FOO
138240
    1MOL0     O    1   8.678   4.037   6.626 -0.1335  0.1857 -0.2134
    1MOL0     C    2   8.644   4.086   6.512  0.1225 -0.5831 -0.3665
    1MOL0     O    3   8.716   4.082   6.393  0.2244  0.0097  0.1826
    1MOL0     C    4   8.819   3.994   6.385 -0.8371  0.6699  0.2207
    1MOL0     C    5   8.947   4.037   6.372 -0.2023 -0.3885 -0.4271
    1MOL0     C    6   9.060   3.952   6.363  0.1793 -0.3896 -0.8797
    1MOL0     C    7   9.037   3.817   6.368 -0.7002  0.9871  0.4529
    1MOL0     O    8   9.140   3.736   6.332 -0.3425  0.4843  0.0737
    1MOL0     C    9   9.155   3.729   6.188  0.3246 -0.6723 -0.4782
    1MOL0     C   10   9.298   3.741   6.145 -0.2749  0.3068 -0.4472
    1MOL0     C   11   9.354   3.882   6.160 -0.5304 -0.0691 -0.0073
    1MOL0     C   12   9.502   3.867   6.148 -0.2978 -0.2220 -0.2032
    1MOL0     C   13   9.566   4.005   6.102  0.1691  0.0815 -0.1249
    1MOL0     C   14   9.538   4.119   6.205 -0.1709 -0.3809 -0.0158
    1MOL0     C   15   9.570   4.248   6.132 -0.3827  0.2902  0.3943
    1MOL0     C   16   9.540   4.378   6.209  0.0942 -0.4416  0.3053
    1MOL0     N   17   9.391   4.400   6.224 -0.4708 -0.1331  0.5324
    1MOL0     C   18   9.325   4.424   6.344  0.3911  0.2342  0.6670
    1MOL0     C   19   9.193   4.434   6.307  0.6048 -0.2880  0.3134
    1MOL0     C   20   9.085   4.462   6.409  0.2085 -1.1917  0.9465
    1MOL0     C   21   8.955   4.543   6.350 -0.6795  0.0496 -0.3438
    1MOL0     C   22   8.867   4.602   6.466 -0.4819 -0.2297 -0.2253
    1MOL0     C   23   8.759   4.690   6.413  0.2248  0.2385  0.1884
    1MOL0     O   24   8.675   4.732   6.526 -0.1135 -0.7192  0.0369
    1MOL0     C   25   8.552   4.769   6.506  0.5041 -0.4404  1.0987
    1MOL0     C   26   8.505   4.889   6.553  0.2429  0.3680  0.1438
    1MOL0     C   27   8.366   4.915   6.543 -0.3126  0.3119  0.0409
    1MOL0     C   28   8.327   5.049   6.596 -0.1670  1.5504 -1.4119
    1MOL0     C   29   8.274   4.824   6.483  0.6078  0.2247  0.2017
    1MOL0     C   30   8.127   4.838   6.489 -0.1209  0.8052  0.3013
    1MOL0     O   31   8.055   4.775   6.383  0.0799  0.2768 -0.6029
    1MOL0     C   32   7.923   4.762   6.396  1.0341  0.0983 -0.7545
    1MOL0     C   33   7.834   4.810   6.296 -0.6488  0.3101  0.0989
    1MOL0     C   34   7.696   4.818   6.310  0.3731 -1.0878 -0.0411
    1MOL0     C   35   7.636   4.750   6.414  0.7737 -0.2151 -0.2761
    1MOL0     O   36   7.500   4.751   6.442 -0.1508 -0.4551  0.1847
    1MOL0     C   37   7.414   4.763   6.324  0.6029  0.2612 -0.0952
    1MOL0     C   38   7.267   4.749   6.348  0.1823 -0.6986  0.1054
    1MOL0     C   39   7.219   4.861   6.431  0.9609  0.4908 -0.4760
    1MOL0     C   40   7.058   4.857   6.435 -1.1517  0.4215 -0.4360
    1MOL0     C   41   6.992   4.977   6.514 -0.0786  0.2680 -0.5803
    1MOL0     C   42   6.847   4.951   6.531 -0.1801 -0.6177  0.1077
    1MOL0     C   43   6.778   5.069   6.607 -1.1351 -0.0776  0.3645
    1MOL0     C   44   6.626   5.065   6.590  0.4224 -0.2170  0.3234
    1MOL0    Cl   45   6.551   5.194   6.689  0.7715  0.4041 -0.3906
    1MOL0     C   46   7.721   4.691   6.505  1.2358  0.7350 -0.5099
    1MOL0     C   47   7.860   4.692   6.497 -0.1717 -0.4028 -0.0131
    1MOL0     O   48   8.078   4.868   6.595  0.0323  0.4609 -0.4205
    1MOL0     C   49   8.324   4.710   6.421  0.0693 -0.4200  0.3831
    1MOL0     C   50   8.468   4.677   6.435  0.1944 -0.7081 -0.5050
    1MOL0     N   51   9.178   4.420   6.171 -0.5828 -0.2440 -0.3080
    1MOL0     N   52   9.302   4.399   6.122 -0.3235  0.5350 -0.3766
    1MOL0     C   53   8.908   3.767   6.369 -0.1658  0.0666  0.6259
    1MOL0     C   54   8.801   3.860   6.367 -0.1336  0.2911 -0.6142
    1MOL0     C   55   8.510   4.145   6.498  0.1756 -0.0972 -0.8382
    1MOL0     C   56   8.480   4.208   6.380  0.0362  0.9946 -0.5842
    1MOL0     C   57   8.359   4.272   6.365 -0.2071 -0.9010  0.3781
    1MOL0     C   58   8.262   4.268   6.463  0.1172  0.3051  0.0823
    1MOL0     O   59   8.143   4.332   6.442 -0.0806 -0.8073 -0.7585
    1MOL0     C   60   8.036   4.339   6.531  0.4419 -0.0899  0.4239
    1MOL0     C   61   7.969   4.210   6.538  0.7110  0.4872 -0.3090
    1MOL0     C   62   7.824   4.223   6.555  0.3816 -0.1457 -0.8380
    1MOL0     C   63   7.780   4.265   6.700 -0.0999  0.4612 -0.4350
    1MOL0     C   64   7.632   4.258   6.704  0.5035 -0.8411  0.3881
    1MOL0     C   65   7.506   4.256   6.709 -0.1791 -0.9493 -0.3365
    1MOL0     C   66   8.290   4.200   6.582 -0.0862 -0.4910 -0.1435
    1MOL0     C   67   8.415   4.140   6.600 -0.1963  0.2596 -0.0054
    1MOL0     H   68   8.961   4.145   6.368 -2.8035  0.0028 -1.5911
    1MOL0     H   69   9.156   4.001   6.352 -0.8468  2.7440  2.3254
    1MOL0     H   70   9.121   3.627   6.169 -1.8287 -0.1265  0.1742
    1MOL0     H   71   9.096   3.806   6.138 -0.9776  0.7968  2.9571
    1MOL0     H   72   9.361   3.675   6.206  0.3808  0.4786 -0.9172
    1MOL0     H   73   9.303   3.715   6.039 -1.0963  0.8828 -0.6341
    1MOL0     H   74   9.324   3.938   6.072  0.2943 -1.6288 -1.3253
    1MOL0     H   75   9.336   3.931   6.257  3.7681 -1.9745  2.0140
    1MOL0     H   76   9.543   3.829   6.242  1.0954 -1.7870 -1.3809
    1MOL0     H   77   9.537   3.796   6.073  0.0982  1.3808 -1.5928
    1MOL0     H   78   9.673   3.990   6.090  0.1181 -1.2170  0.8357
    1MOL0     H   79   9.530   4.029   6.002  0.2822 -0.1652 -0.2257
    1MOL0     H   80   9.434   4.127   6.241  0.0238 -0.0217  0.4756
    1MOL0     H   81   9.592   4.101   6.299 -3.1549 -1.6226  1.6275
    1MOL0     H   82   9.674   4.245   6.098 -0.9227 -0.3017 -1.2931
    1MOL0     H   83   9.500   4.245   6.048 -1.6080 -2.8832  1.3661
    1MOL0     H   84   9.573   4.467   6.155  2.1920 -0.3750  1.5650
    1MOL0     H   85   9.591   4.373   6.306  1.2678  0.8324 -0.2165
    1MOL0     H   86   9.373   4.424   6.442 -1.1358  0.3405  1.4413
    1MOL0     H   87   9.054   4.367   6.452 -1.1922 -0.6383  1.2261
    1MOL0     H   88   9.130   4.526   6.485  1.9550  1.3747 -2.0232
    1MOL0     H   89   8.900   4.473   6.286 -1.0191 -1.5384  1.6024
    1MOL0     H   90   8.994   4.628   6.292  0.5983 -0.8546 -0.8559
    1MOL0     H   91   8.931   4.655   6.537  1.3119  0.3739 -2.2132
    1MOL0     H   92   8.836   4.521   6.533  1.9280  1.8096  3.7180
    1MOL0     H   93   8.707   4.637   6.333  1.6575  0.6096 -1.0272
    1MOL0     H   94   8.797   4.782   6.367  1.1942 -0.3878 -0.2864
    1MOL0     H   95   8.572   4.950   6.613  0.1134 -0.3639  1.0624
    1MOL0     H   96   8.240   5.095   6.549 -2.7120 -0.5337  0.8963
    1MOL0     H   97   8.293   5.030   6.699  0.0296  2.1069 -1.2387
    1MOL0     H   98   8.414   5.116   6.596  0.4029  0.8724  0.4297
    1MOL0     H   99   7.882   4.874   6.223  0.4878  2.5304  2.5938
    1MOL0     H  100   7.639   4.897   6.262 -1.3454 -1.2815  1.5746
    1MOL0     H  101   7.434   4.854   6.266 -0.8175 -1.3142 -3.2685
    1MOL0     H  102   7.432   4.680   6.256 -0.3507  0.0078 -0.0438
    1MOL0     H  103   7.211   4.746   6.254  3.1747 -0.5833 -1.8138
    1MOL0     H  104   7.250   4.650   6.391  1.9171 -0.3475  1.7454
    1MOL0     H  105   7.249   4.959   6.392 -1.1232  0.5521 -2.0429
    1MOL0     H  106   7.256   4.876   6.533 -0.6716 -0.3049  0.2601
    1MOL0     H  107   7.019   4.846   6.334 -2.3602  0.5405 -0.0001
    1MOL0     H  108   7.029   4.767   6.490 -2.5795  0.3025 -1.3619
    1MOL0     H  109   7.012   5.067   6.455  0.5320 -0.5160 -1.6221
    1MOL0     H  110   7.043   4.991   6.610  0.2120  2.1524 -0.9744
    1MOL0     H  111   6.792   4.917   6.442 -2.1043  0.2567  0.8997
    1MOL0     H  112   6.841   4.866   6.600 -1.1779 -2.3338 -1.9550
    1MOL0     H  113   6.814   5.164   6.566  0.9871 -0.8579  0.2939
    1MOL0     H  114   6.808   5.067   6.712 -1.2768 -0.3044  0.4008
    1MOL0     H  115   6.586   4.973   6.632 -2.2572  0.5849 -0.2834
    1MOL0     H  116   6.597   5.068   6.485  0.4832 -1.2988  0.2704
    1MOL0     H  117   7.678   4.635   6.587 -3.1673  0.7282 -2.5601
    1MOL0     H  118   7.927   4.636   6.561 -2.0172 -5.2937 -1.8743
    1MOL0     H  119   8.259   4.635   6.376  0.6690  0.0072 -1.2923
    1MOL0     H  120   8.510   4.582   6.403  0.0975 -0.5000 -1.2669
    1MOL0     H  121   8.899   3.660   6.355  2.8136 -0.0867 -1.1321
    1MOL0     H  122   8.699   3.828   6.350  0.0915  0.0750 -1.6175
    1MOL0     H  123   8.548   4.204   6.296  2.6880  1.7534  1.3599
    1MOL0     H  124   8.343   4.312   6.265 -1.9450  0.4749  1.1486
    1MOL0     H  125   8.077   4.394   6.616  0.5206 -0.2435  0.4852
    1MOL0     H  126   7.971   4.408   6.476  1.8051  0.3726 -0.6682
    1MOL0     H  127   7.995   4.136   6.614  1.4698  0.2218 -0.8154
    1MOL0     H  128   7.979   4.160   6.441  1.9428 -0.4480  0.2786
    1MOL0     H  129   7.794   4.119   6.537  3.3375 -0.9818 -1.4693
    1MOL0     H  130   7.772   4.277   6.476 -0.0180  1.0493  0.2128
    1MOL0     H  131   7.823   4.364   6.719 -2.2019  2.1831 -3.5477
    1MOL0     H  132   7.815   4.197   6.777 -1.0857  2.2909  1.7549
    1MOL0     H  133   7.401   4.270   6.727  0.5898  2.5836  2.7197
    1MOL0     H  134   8.224   4.205   6.668 -1.0562 -1.5052 -0.8030
    1MOL0     H  135   8.442   4.093   6.694  0.1598 -1.8968 -1.1352
    2MOL0     O  136   6.763   5.748   5.383 -0.5230 -0.1969 -0.3851
    2MOL0     C  137   6.671   5.748   5.462 -0.2846 -0.7616 -0.7871
    2MOL0     O  138   6.552   5.686   5.444 -0.3907 -0.4486 -0.4682
    2MOL0     C  139   6.533   5.633   5.322 -0.0699  0.1986 -0.7278
    2MOL0     C  140   6.465   5.707   5.227  0.1793  0.0792  0.1804
    2MOL0     C  141   6.440   5.642   5.107  0.3062 -0.1877 -0.1703
    2MOL0     C  142   6.457   5.502   5.083 -0.2790  0.4653 -0.8060
    2MOL0     O  143   6.422   5.434   4.973 -0.5233  0.2236 -0.3724
    2MOL0     C  144   6.327   5.488   4.887  1.1294  0.5507  0.3421
    2MOL0     C  145   6.175   5.478   4.944 -0.1463 -0.2820  0.4779
    2MOL0     C  146   6.153   5.354   5.029 -0.0339 -0.1456  0.1609
    2MOL0     C  147   6.178   5.217   4.962  1.0667  0.8315  1.2513
    2MOL0     C  148   6.042   5.170   4.902  0.5035  0.4813  0.1610
    2MOL0     C  149   5.930   5.130   4.995  0.0111  0.9246 -0.6011
    2MOL0     C  150   5.982   5.041   5.116  0.1506 -1.1312 -0.1275
    2MOL0     C  151   6.020   4.900   5.079  0.4394 -0.2085 -0.5124
    2MOL0     N  152   5.915   4.824   5.012  0.4684  0.0248  0.9666
    2MOL0     C  153   5.927   4.749   4.891 -0.0429  0.1102  0.4282
    2MOL0     C  154   5.795   4.723   4.867 -0.8447 -0.0405  0.2278
    2MOL0     C  155   5.751   4.634   4.760  0.5948  1.1859 -0.3868
    2MOL0     C  156   5.668   4.518   4.804 -0.0118  0.2635  0.1017
    2MOL0     C  157   5.611   4.449   4.676  0.1456 -1.2263  0.1087
    2MOL0     C  158   5.543   4.319   4.724  0.8366 -0.4354 -0.2409
    2MOL0     O  159   5.409   4.347   4.769 -0.3524 -0.3115  0.2837
    2MOL0     C  160   5.289   4.314   4.712 -0.1206  1.5163  0.1574
    2MOL0     C  161   5.283   4.242   4.587  0.2910 -0.4764  0.0602
    2MOL0     C  162   5.161   4.215   4.522  0.4436 -0.5689 -0.6197
    2MOL0     C  163   5.171   4.128   4.400 -0.2641 -0.0860 -0.8291
    2MOL0     C  164   5.042   4.261   4.586  0.0750  0.4770  0.5784
    2MOL0     C  165   4.905   4.228   4.530 -0.1818 -0.2862 -0.2855
    2MOL0     O  166   4.884   4.147   4.417  0.3070  0.4484  0.5379
    2MOL0     C  167   4.760   4.143   4.357 -0.4189  0.9340 -0.0162
    2MOL0     C  168   4.662   4.241   4.362 -0.3703 -0.2138 -0.1695
    2MOL0     C  169   4.548   4.217   4.287  0.3222 -0.1004  0.5815
    2MOL0     C  170   4.526   4.093   4.212 -0.1166  0.1407 -0.7717
    2MOL0     O  171   4.402   4.071   4.156 -0.5154  0.0217  0.4009
    2MOL0     C  172   4.379   4.144   4.031  0.1388 -0.4934 -0.3131
    2MOL0     C  173   4.250   4.081   3.980 -0.6513  0.4477 -0.6779
    2MOL0     C  174   4.180   4.150   3.865  0.0426  0.4274  0.0456
    2MOL0     C  175   4.045   4.087   3.850  0.3993 -1.0613 -1.0587
    2MOL0     C  176   3.958   4.168   3.746 -0.0667 -0.0495  0.3224
    2MOL0     C  177   3.828   4.097   3.699 -0.2195 -0.6862 -0.3289
    2MOL0     C  178   3.737   4.042   3.808 -0.6287 -0.8091 -0.7837
    2MOL0     C  179   3.630   3.952   3.752  0.3385  0.2422 -1.1827
    2MOL0    Cl  180   3.716   3.822   3.660  0.2329 -0.2766  0.4941
    2MOL0     C  181   4.626   4.001   4.209 -0.1587 -0.1833 -0.3551
    2MOL0     C  182   4.743   4.028   4.280  1.1613  0.2444  0.5498
    2MOL0     O  183   4.816   4.279   4.600  0.0834  0.6115  0.5932
    2MOL0     C  184   5.047   4.335   4.705 -0.3634  0.2674 -0.4592
    2MOL0     C  185   5.171   4.356   4.769  1.1885  0.3751  0.0239
    2MOL0     N  186   5.707   4.774   4.960 -0.2647 -0.1143  0.3414
    2MOL0     N  187   5.783   4.833   5.047  0.1841 -0.4170 -1.0355
    2MOL0     C  188   6.526   5.426   5.185 -0.0223  0.0420 -0.0674
    2MOL0     C  189   6.554   5.490   5.305 -0.1580  0.5066 -0.0140
    2MOL0     C  190   6.696   5.805   5.591  0.2198  0.2488  0.1760
    2MOL0     C  191   6.811   5.884   5.608 -1.1236  0.4797 -0.3716
    2MOL0     C  192   6.842   5.951   5.728  0.2821  0.2378 -0.1759
    2MOL0     C  193   6.750   5.940   5.840  0.0733 -0.3744  0.4799
    2MOL0     O  194   6.777   6.011   5.958  0.7603  0.1424 -0.2593
    2MOL0     C  195   6.907   6.055   5.982  0.2313 -0.7530  0.0924
    2MOL0     C  196   6.933   6.074   6.134  0.1036 -0.4444  0.3658
    2MOL0     C  197   6.861   6.197   6.191  0.4392  0.7949 -0.1517
    2MOL0     C  198   6.844   6.201   6.345 -0.4937  0.9878  0.0334
    2MOL0     C  199   6.979   6.212   6.398  0.3489 -0.6351 -0.0683
    2MOL0     C  200   7.093   6.219   6.445  0.8478  0.0651  0.5168
    2MOL0     C  201   6.636   5.870   5.820  0.5419  0.4771  0.7377
    2MOL0     C  202   6.615   5.792   5.700  0.5232  0.2735  0.1711
    2MOL0     H  203   6.445   5.813   5.233  0.0970  0.1845 -1.4601
    2MOL0     H  204   6.383   5.689   5.027  0.9695  2.2093  0.6632
    2MOL0     H  205   6.354   5.587   4.848  0.6773  0.4243 -0.3214
    2MOL0     H  206   6.326   5.433   4.792  1.1423  2.3244 -0.7384
    2MOL0     H  207   6.150   5.571   4.995  0.4681  1.5497 -2.3159
    2MOL0     H  208   6.110   5.471   4.856  1.6953 -2.4708 -0.8254
    2MOL0     H  209   6.222   5.361   5.114  0.2303  1.3483 -0.1564
    2MOL0     H  210   6.056   5.356   5.080  1.0809  0.0773  2.3764
    2MOL0     H  211   6.246   5.232   4.878  0.9835 -1.6769  0.6372
    2MOL0     H  212   6.220   5.147   5.035 -0.8039  0.3918  1.9458
    2MOL0     H  213   6.008   5.254   4.841  0.8871  0.6459  0.1717
    2MOL0     H  214   6.058   5.091   4.828  0.5362  0.0449  0.6263
    2MOL0     H  215   5.876   5.215   5.039 -2.5907  0.1167 -2.0325
    2MOL0     H  216   5.863   5.072   4.930  0.4637 -1.2344  0.7621
    2MOL0     H  217   6.055   5.093   5.178  1.5583 -2.5264 -0.5530
    2MOL0     H  218   5.889   5.033   5.174  0.7644  0.2082  1.1081
    2MOL0     H  219   6.045   4.850   5.173  0.8328 -0.3964 -0.7164
    2MOL0     H  220   6.110   4.906   5.018 -0.2917 -0.8505 -1.6927
    2MOL0     H  221   6.008   4.698   4.841 -1.7411 -0.4658 -1.9061
    2MOL0     H  222   5.690   4.697   4.696 -0.8869  1.2762  1.0415
    2MOL0     H  223   5.831   4.596   4.696  1.1136  0.5916  0.5845
    2MOL0     H  224   5.585   4.536   4.873 -0.8213 -0.6692 -0.6051
    2MOL0     H  225   5.743   4.448   4.840 -0.2314 -0.6329 -1.1309
    2MOL0     H  226   5.693   4.431   4.606  0.8527  0.2679  0.5152
    2MOL0     H  227   5.536   4.525   4.649 -0.4465 -1.2404  1.6134
    2MOL0     H  228   5.596   4.276   4.809 -1.2184 -1.3107  0.6583
    2MOL0     H  229   5.527   4.243   4.647 -1.9362 -1.9817  1.7056
    2MOL0     H  230   5.371   4.194   4.545  0.7759 -1.5373  2.1394
    2MOL0     H  231   5.122   4.180   4.317  3.3808  0.7728 -2.6350
    2MOL0     H  232   5.267   4.088   4.368  0.4981  1.6122 -0.7656
    2MOL0     H  233   5.097   4.050   4.418 -0.8278  0.4606 -0.7396
    2MOL0     H  234   4.682   4.335   4.412  1.7542 -1.6821  2.0224
    2MOL0     H  235   4.468   4.290   4.286  0.0665 -0.3585  1.5590
    2MOL0     H  236   4.367   4.252   4.043  2.3388 -0.1752 -0.6237
    2MOL0     H  237   4.465   4.116   3.970 -1.4520 -1.4522 -2.2180
    2MOL0     H  238   4.282   3.984   3.941  2.0744  0.4550  1.2479
    2MOL0     H  239   4.181   4.069   4.064  0.4389 -1.0940  0.0335
    2MOL0     H  240   4.244   4.144   3.776  0.2437 -2.6909  0.2774
    2MOL0     H  241   4.163   4.256   3.886 -5.1399  0.2119 -1.6328
    2MOL0     H  242   4.064   3.984   3.817  1.8782 -1.0732 -0.2353
    2MOL0     H  243   3.985   4.083   3.941 -0.3629 -0.3365 -1.5075
    2MOL0     H  244   4.016   4.192   3.656  1.7071  2.2609  1.9500
    2MOL0     H  245   3.922   4.259   3.795  0.9681 -0.7474  2.4771
    2MOL0     H  246   3.778   4.170   3.635 -1.3582 -0.2369  1.0170
    2MOL0     H  247   3.865   4.009   3.646 -3.4161 -1.5465 -1.3368
    2MOL0     H  248   3.689   4.118   3.870  0.5663 -0.5124 -0.2118
    2MOL0     H  249   3.795   3.984   3.880  0.0009  0.8400  0.0738
    2MOL0     H  250   3.563   4.009   3.687 -0.5365 -1.9819 -2.3340
    2MOL0     H  251   3.565   3.916   3.833  1.8666  0.4773  0.1977
    2MOL0     H  252   4.620   3.909   4.152  0.5206  0.2799 -1.1818
    2MOL0     H  253   4.829   3.962   4.278  1.4338  0.5884  0.7393
    2MOL0     H  254   4.961   4.380   4.755 -0.4618 -0.7787  0.3585
    2MOL0     H  255   5.178   4.415   4.859 -3.4644 -1.2042  1.7257
    2MOL0     H  256   6.555   5.323   5.172  0.0688  0.0116  0.3508
    2MOL0     H  257   6.592   5.430   5.386  1.5924  0.0081 -1.1336
    2MOL0     H  258   6.881   5.897   5.526 -1.1066 -0.7096 -0.5579
    2MOL0     H  259   6.933   6.008   5.742 -0.4988  0.7308  4.0804
    2MOL0     H  260   6.987   5.995   5.937  0.3039 -0.6501  0.0840
    2MOL0     H  261   6.908   6.157   5.942 -0.2875 -0.0172  1.8593
    2MOL0     H  262   7.038   6.072   6.161  0.3829 -0.1168 -0.6568
    2MOL0     H  263   6.890   5.982   6.175 -2.1451 -0.4290 -1.7288
    2MOL0     H  264   6.757   6.185   6.159  0.5351 -2.4924  0.4868
    2MOL0     H  265   6.907   6.289   6.152  1.3831  0.6868  0.6771
    2MOL0     H  266   6.790   6.110   6.373 -1.0822  0.4196 -2.6710
    2MOL0     H  267   6.790   6.292   6.373 -0.0592  2.2286 -2.8627
    2MOL0     H  268   7.195   6.221   6.478  0.7765  0.4008  0.7254
    2MOL0     H  269   6.564   5.860   5.901 -0.8950 -4.1859 -0.8221
    2MOL0     H  270   6.530   5.724   5.700  1.8541 -1.4741 -0.2775
    3MOL0     O  271  10.403   9.803  10.695  0.3048  0.7679 -1.0884
    3MOL0     C  272  10.464   9.776  10.794 -0.7029  0.1679 -0.2749
    3MOL0     O  273  10.404   9.776  10.921 -0.2613 -0.0577 -0.7637
    3MOL0     C  274  10.269   9.764  10.942  0.0802  0.4785 -0.5609
    3MOL0     C  275  10.166   9.716  10.851 -0.1098 -0.3431 -0.7733
    3MOL0     C  276  10.030   9.737  10.884 -0.4457 -0.1417 -1.2154
    3MOL0     C  277   9.986   9.791  11.013  0.0597  0.0549 -0.2725
    3MOL0     O  278   9.857   9.802  11.067  0.1487  0.1181  0.1195
    3MOL0     C  279   9.746   9.787  10.975  0.5049  0.0721 -0.0532
    3MOL0     C  280   9.609   9.832  11.026 -0.2467  0.1900 -0.7630
    3MOL0     C  281   9.512   9.779  10.918 -0.0928  0.6244 -0.2881
    3MOL0     C  282   9.366   9.803  10.965  0.3588 -0.3556 -0.5405
    3MOL0     C  283   9.255   9.805  10.855  0.2632  0.0108  0.1258
    3MOL0     C  284   9.264   9.929  10.772 -0.0250  0.7231  0.5584
    3MOL0     C  285   9.149   9.922  10.675  0.3402 -0.3933 -0.8561
    3MOL0     C  286   9.141  10.037  10.576  1.1107  0.3803  0.2803
    3MOL0     N  287   9.238  10.015  10.474  0.8953 -0.4324  1.3572
    3MOL0     C  288   9.374  10.030  10.482 -0.1310 -0.3299 -0.6838
    3MOL0     C  289   9.415  10.035  10.352  0.2380 -0.2554  0.5752
    3MOL0     C  290   9.547  10.063  10.300 -0.7400 -0.3084 -0.0411
    3MOL0     C  291   9.625   9.945  10.244 -0.3922  0.9056 -0.8059
    3MOL0     C  292   9.757   9.985  10.188 -0.7922 -0.2397 -0.0629
    3MOL0     C  293   9.830   9.873  10.115  0.7522  0.0076  0.0199
    3MOL0     O  294   9.910   9.901  10.003  0.1444 -0.8153 -0.1986
    3MOL0     C  295  10.039   9.859   9.972 -0.0018 -0.1751 -0.2407
    3MOL0     C  296  10.128   9.785  10.046 -0.3776 -0.7863 -0.7240
    3MOL0     C  297  10.252   9.751   9.992  0.1180  0.7920 -1.0464
    3MOL0     C  298  10.344   9.668  10.089 -0.3844  0.2821 -0.0031
    3MOL0     C  299  10.286   9.779   9.860  0.1314  0.2485 -0.1143
    3MOL0     C  300  10.420   9.737   9.807  0.0700 -0.3009 -0.4177
    3MOL0     O  301  10.474   9.826   9.717  0.6047 -0.7310 -0.2392
    3MOL0     C  302  10.591   9.807   9.654  0.3212 -0.5759  0.1566
    3MOL0     C  303  10.601   9.785   9.515  0.0917  0.4177  1.0437
    3MOL0     C  304  10.722   9.776   9.443  0.1127  0.0829 -0.5281
    3MOL0     C  305  10.843   9.780   9.515  0.7500 -0.1909 -0.3167
    3MOL0     O  306  10.970   9.776   9.454  0.0150 -0.1587  0.2392
    3MOL0     C  307  10.981   9.701   9.332 -0.2066 -0.1872 -0.0853
    3MOL0     C  308  11.132   9.686   9.301  0.1473  0.6823  0.2413
    3MOL0     C  309  11.145   9.607   9.171 -0.5393 -0.5512 -0.0548
    3MOL0     C  310  11.299   9.579   9.144  0.1329 -0.4388 -0.3949
    3MOL0     C  311  11.377   9.712   9.099  0.5909 -0.4756  1.1776
    3MOL0     C  312  11.517   9.670   9.043 -0.3193 -0.5642  0.3906
    3MOL0     C  313  11.608   9.790   9.024  0.2664 -0.5337  0.4424
    3MOL0     C  314  11.745   9.747   8.967 -0.0990  0.0849 -0.1496
    3MOL0    Cl  315  11.831   9.707   9.119  0.0312 -0.5706  0.1597
    3MOL0     C  316  10.832   9.797   9.658  0.0162  0.0383  0.1981
    3MOL0     C  317  10.710   9.823   9.723 -0.1238  0.2109 -0.6890
    3MOL0     O  318  10.463   9.629   9.832 -0.9780  0.6342  0.1382
    3MOL0     C  319  10.196   9.852   9.783  0.5533  0.2033 -0.4935
    3MOL0     C  320  10.072   9.893   9.841 -0.6310  0.2175 -0.0338
    3MOL0     N  321   9.303  10.025  10.265 -0.3518  0.7679 -0.6025
    3MOL0     N  322   9.202  10.017  10.341 -0.7154 -0.3825  0.4132
    3MOL0     C  323  10.086   9.834  11.097  0.0876  0.1100  0.0463
    3MOL0     C  324  10.224   9.825  11.059 -0.6316 -0.0092 -0.9839
    3MOL0     C  325  10.616   9.768  10.791  0.9859 -0.6831 -0.6816
    3MOL0     C  326  10.691   9.727  10.907  0.1473 -0.3474  0.5060
    3MOL0     C  327  10.824   9.714  10.897 -0.3897 -0.3301  0.0845
    3MOL0     C  328  10.886   9.723  10.773 -0.4741  0.1363  0.5261
    3MOL0     O  329  11.022   9.700  10.766  0.0812  0.1542  0.2180
    3MOL0     C  330  11.092   9.630  10.873  0.3660  0.2885  1.0300
    3MOL0     C  331  11.228   9.585  10.833  0.1024  0.0399 -0.1470
    3MOL0     C  332  11.317   9.566  10.954 -0.6210  0.5259 -0.1380
    3MOL0     C  333  11.436   9.483  10.908 -0.2801 -0.7042 -0.4741
    3MOL0     C  334  11.403   9.339  10.882 -0.2370  0.2312  0.6683
    3MOL0     C  335  11.393   9.226  10.841 -0.0020 -0.6245 -0.1313
    3MOL0     C  336  10.823   9.764  10.662 -0.5934  0.8718  0.1532
    3MOL0     C  337  10.689   9.791  10.673  0.8436 -0.7466  0.1070
    3MOL0     H  338  10.193   9.667  10.758  0.6832 -3.0106  0.7200
    3MOL0     H  339   9.960   9.690  10.817  0.4413 -0.9240 -1.6194
    3MOL0     H  340   9.767   9.841  10.881 -0.4811 -0.0846 -0.3752
    3MOL0     H  341   9.737   9.679  10.961  0.1940 -0.1917  1.9004
    3MOL0     H  342   9.591   9.793  11.127  1.8806  0.5841 -0.1679
    3MOL0     H  343   9.623   9.940  11.028  3.8061 -0.1074 -2.6228
    3MOL0     H  344   9.529   9.829  10.822 -0.6484  0.8506 -0.2693
    3MOL0     H  345   9.519   9.670  10.911 -2.2842  0.2511  1.8902
    3MOL0     H  346   9.331   9.720  11.027  1.5644 -0.8750 -0.5173
    3MOL0     H  347   9.361   9.900  11.016  1.3548 -0.5222 -0.0995
    3MOL0     H  348   9.268   9.717  10.792 -0.8358  2.0337 -3.1714
    3MOL0     H  349   9.157   9.798  10.903 -0.6718  0.3173 -1.6571
    3MOL0     H  350   9.256  10.015  10.840  0.3621  0.1729  1.3228
    3MOL0     H  351   9.359   9.929  10.719 -0.4504  0.3423 -0.2245
    3MOL0     H  352   9.166   9.826  10.625  3.3335 -0.7624  0.6585
    3MOL0     H  353   9.061   9.918  10.741  2.0449 -1.5364  1.5116
    3MOL0     H  354   9.164  10.136  10.617  0.0966  0.5656  0.4188
    3MOL0     H  355   9.045  10.039  10.525  2.4947  2.9542 -2.5522
    3MOL0     H  356   9.441  10.042  10.566 -0.7849  3.2423 -0.5212
    3MOL0     H  357   9.539  10.142  10.225 -0.7107  0.5553  0.8374
    3MOL0     H  358   9.601  10.101  10.388 -2.5522 -1.2065  1.5491
    3MOL0     H  359   9.570   9.890  10.167  0.9821  0.2080 -1.3150
    3MOL0     H  360   9.642   9.872  10.323 -0.0942 -0.0258 -1.7058
    3MOL0     H  361   9.829  10.027  10.260  0.6587 -1.6029 -0.6545
    3MOL0     H  362   9.746  10.071  10.120  2.6287  1.8363  1.7209
    3MOL0     H  363   9.780   9.776  10.107 -1.0914  0.9234 -0.0613
    3MOL0     H  364   9.908   9.846  10.188 -0.1903 -0.4248  0.8918
    3MOL0     H  365  10.091   9.741  10.138 -1.6506  1.0242 -0.3170
    3MOL0     H  366  10.341   9.728  10.181  1.4056 -0.2036  0.4129
    3MOL0     H  367  10.299   9.569  10.095 -2.3503  1.2169  3.3027
    3MOL0     H  368  10.451   9.681  10.075 -0.9144  3.2475 -2.4798
    3MOL0     H  369  10.508   9.781   9.459  2.3727  3.4574 -3.5521
    3MOL0     H  370  10.713   9.758   9.336 -2.8063 -3.0535  0.0542
    3MOL0     H  371  10.940   9.600   9.341 -4.1722  1.2714  0.1139
    3MOL0     H  372  10.927   9.757   9.255  2.7939  2.0060 -0.7591
    3MOL0     H  373  11.186   9.781   9.299 -0.2880  1.0354  2.4252
    3MOL0     H  374  11.173   9.627   9.383 -0.4649  3.8324  3.0346
    3MOL0     H  375  11.103   9.663   9.087  1.4401  2.0702  0.5758
    3MOL0     H  376  11.090   9.513   9.184 -2.1617  0.4422  0.4863
    3MOL0     H  377  11.348   9.544   9.235  0.3429  0.0838 -0.3051
    3MOL0     H  378  11.320   9.500   9.071 -0.2461 -1.1030  0.1959
    3MOL0     H  379  11.375   9.780   9.184 -1.3288  1.6598 -0.4543
    3MOL0     H  380  11.319   9.762   9.021  0.9734  1.1492  1.8833
    3MOL0     H  381  11.553   9.597   9.117 -2.8155 -2.0721  0.2147
    3MOL0     H  382  11.514   9.616   8.948 -0.7099 -2.4025  1.3951
    3MOL0     H  383  11.623   9.837   9.122  0.5056  0.1801  0.0687
    3MOL0     H  384  11.556   9.862   8.960 -3.1199 -2.7822  0.3978
    3MOL0     H  385  11.790   9.832   8.914 -1.9198 -0.2846 -2.4497
    3MOL0     H  386  11.736   9.664   8.897 -1.0444  1.5764 -1.8856
    3MOL0     H  387  10.923   9.796   9.717  1.0195 -1.8082 -1.2663
    3MOL0     H  388  10.717   9.838   9.830  4.0279 -0.8065 -0.6212
    3MOL0     H  389  10.225   9.883   9.683  1.9691  0.7329  0.0511
    3MOL0     H  390  10.009   9.958   9.781  1.6059 -0.0752 -2.9059
    3MOL0     H  391  10.063   9.890  11.187 -1.2734  0.3452 -0.4276
    3MOL0     H  392  10.291   9.868  11.133 -1.7600 -1.5837  1.0244
    3MOL0     H  393  10.629   9.712  10.994 -0.6775  2.2140  0.4689
    3MOL0     H  394  10.883   9.707  10.988  1.5861 -0.4951 -1.1549
    3MOL0     H  395  11.105   9.697  10.958  2.3404  0.1336  0.8885
    3MOL0     H  396  11.039   9.537  10.899  0.4198  0.6639  2.6074
    3MOL0     H  397  11.268   9.665  10.770  1.3681 -1.7927 -1.7852
    3MOL0     H  398  11.226   9.503  10.760  0.3495  2.1474 -2.6649
    3MOL0     H  399  11.269   9.513  11.037 -0.4599 -2.6191 -1.8858
    3MOL0     H  400  11.352   9.661  10.996  0.3231 -1.1828  3.3419
    3MOL0     H  401  11.523   9.494  10.974 -0.5808 -0.5822 -0.0893
    3MOL0     H  402  11.473   9.526  10.815 -0.0084  2.6739  1.0391
    3MOL0     H  403  11.383   9.133  10.789  0.0504  0.1836 -1.6469
    3MOL0     H  404  10.878   9.757  10.569 -0.9650 -2.1023  0.0498
    3MOL0     H  405  10.651   9.836  10.581  2.4846 -1.6305 -1.0437
    4MOL0     O  406   4.137   1.525   2.658  0.0222  0.9326  0.4149
    4MOL0     C  407   4.147   1.581   2.548  0.1161 -0.3445 -0.1870
    4MOL0     O  408   4.038   1.618   2.472 -0.6084 -0.0525  0.1283
    4MOL0     C  409   3.921   1.541   2.466 -0.5811 -0.1134 -0.7374
    4MOL0     C  410   3.831   1.585   2.376  0.1804  0.2607  0.7856
    4MOL0     C  411   3.726   1.496   2.339  0.3228  0.6871 -0.3293
    4MOL0     C  412   3.695   1.376   2.410  0.3209 -0.1946  0.4510
    4MOL0     O  413   3.597   1.283   2.383  0.3573 -0.0007 -0.4493
    4MOL0     C  414   3.500   1.273   2.277 -0.7129 -0.0436 -0.3213
    4MOL0     C  415   3.389   1.365   2.305 -0.0694  0.3362 -0.4807
    4MOL0     C  416   3.269   1.337   2.210  1.2596 -0.4440 -1.0918
    4MOL0     C  417   3.145   1.422   2.257 -0.5332  0.1815 -0.5546
    4MOL0     C  418   3.013   1.373   2.206 -0.3915 -0.0861  0.1830
    4MOL0     C  419   2.903   1.442   2.282  0.2886  0.2462  0.2545
    4MOL0     C  420   2.769   1.370   2.283  0.0613  1.1079 -0.9456
    4MOL0     C  421   2.716   1.311   2.152 -0.1674  0.5081 -0.6895
    4MOL0     N  422   2.579   1.247   2.164 -0.0918 -0.2171  0.9445
    4MOL0     C  423   2.555   1.143   2.253  0.6605  0.0025 -0.5704
    4MOL0     C  424   2.413   1.132   2.249  0.1276  0.0620  0.3451
    4MOL0     C  425   2.331   1.028   2.329 -0.1459  0.4148  0.0290
    4MOL0     C  426   2.209   1.078   2.413 -0.3608 -1.8424 -0.0044
    4MOL0     C  427   2.123   0.969   2.463 -0.6894  0.1113  0.3218
    4MOL0     C  428   1.991   1.019   2.497  0.0934 -0.1329 -0.7645
    4MOL0     O  429   1.920   0.904   2.543  0.9097  0.3376  0.1873
    4MOL0     C  430   1.789   0.927   2.588 -1.0732  0.0669  0.1473
    4MOL0     C  431   1.704   0.814   2.600  0.4179 -0.0749 -0.5922
    4MOL0     C  432   1.564   0.811   2.631  0.1638 -0.1463 -0.0339
    4MOL0     C  433   1.481   0.682   2.633  0.0838 -0.3544  0.8723
    4MOL0     C  434   1.495   0.932   2.634  0.4994 -0.6010  0.3198
    4MOL0     C  435   1.353   0.966   2.642  0.0181  0.4961 -0.6579
    4MOL0     O  436   1.318   1.097   2.615 -0.2241 -0.8653 -0.6775
    4MOL0     C  437   1.187   1.125   2.617 -0.0858 -0.6486  0.2902
    4MOL0     C  438   1.129   1.188   2.724 -0.5022  0.0010  0.1588
    4MOL0     C  439   0.992   1.212   2.714  0.6352 -0.1575 -0.4307
    4MOL0     C  440   0.898   1.167   2.616  0.3648  0.0880  0.5605
    4MOL0     O  441   0.758   1.188   2.596  0.5582  0.6867  0.2592
    4MOL0     C  442   0.705   1.281   2.687 -0.1478 -0.4471  0.6228
    4MOL0     C  443   0.556   1.271   2.669  0.3368  0.2536  0.3676
    4MOL0     C  444   0.493   1.399   2.725  0.3536 -0.6373 -0.3366
    4MOL0     C  445   0.342   1.384   2.706  0.4126  0.6339 -0.5904
    4MOL0     C  446   0.256   1.494   2.765 -0.2542  0.2152 -0.7224
    4MOL0     C  447   0.231   1.488   2.918 -0.5310  0.9164  0.9046
    4MOL0     C  448   0.151   1.614   2.948  0.3495 -0.3143  0.6869
    4MOL0     C  449   0.096   1.607   3.088 -0.4365 -0.0628  0.3643
    4MOL0    Cl  450   0.220   1.565   3.217  0.2772  0.0588  0.2625
    4MOL0     C  451   0.960   1.102   2.510 -0.1565  0.2632 -0.1115
    4MOL0     C  452   1.101   1.080   2.514 -0.8892 -0.5391  0.1275
    4MOL0     O  453   1.269   0.879   2.678  0.6558 -0.1783 -0.0850
    4MOL0     C  454   1.588   1.045   2.637 -0.2839  0.1870 -1.3868
    4MOL0     C  455   1.727   1.047   2.615  0.4503 -0.2167 -0.2889
    4MOL0     N  456   2.367   1.244   2.176  0.4959  0.2618 -0.2664
    4MOL0     N  457   2.465   1.307   2.118  0.5822  0.1403  0.1009
    4MOL0     C  458   3.785   1.344   2.506 -0.4113  0.0789  0.7471
    4MOL0     C  459   3.898   1.416   2.534  0.2925 -0.0520 -0.1164
    4MOL0     C  460   4.273   1.628   2.490 -0.2616 -0.9195  1.0071
    4MOL0     C  461   4.397   1.631   2.566  0.3493  0.1224 -0.0544
    4MOL0     C  462   4.511   1.695   2.512 -0.0665  0.0626 -0.2641
    4MOL0     C  463   4.504   1.753   2.379 -0.9877  0.2028  0.3953
    4MOL0     O  464   4.622   1.807   2.340  0.4407  0.1358 -0.9718
    4MOL0     C  465   4.627   1.911   2.244 -0.4802 -0.3204  0.7128
    4MOL0     C  466   4.641   2.039   2.330  0.0001  0.5834 -0.0540
    4MOL0     C  467   4.663   2.171   2.257  1.0518 -0.2995 -0.0670
    4MOL0     C  468   4.808   2.198   2.231 -1.1117  0.3041 -0.3004
    4MOL0     C  469   4.819   2.312   2.146  0.3618 -0.1106 -0.4287
    4MOL0     C  470   4.818   2.400   2.064 -0.6836 -0.5570 -0.0349
    4MOL0     C  471   4.389   1.731   2.299 -0.1963 -0.3965 -0.5371
    4MOL0     C  472   4.277   1.676   2.352  1.0208 -0.6390  0.4423
    4MOL0     H  473   3.856   1.671   2.315  0.3149  0.6643  1.4139
    4MOL0     H  474   3.663   1.527   2.257  1.0439  3.2231 -0.0003
    4MOL0     H  475   3.547   1.307   2.183 -3.0293  1.4635 -1.0168
    4MOL0     H  476   3.457   1.174   2.264  0.1560 -0.4859  0.1322
    4MOL0     H  477   3.346   1.350   2.405 -0.1848 -0.5297 -0.6551
    4MOL0     H  478   3.422   1.469   2.300 -3.3401  1.4366 -4.3839
    4MOL0     H  479   3.285   1.365   2.106 -0.8943  2.5882 -0.7309
    4MOL0     H  480   3.237   1.232   2.204 -0.7760 -0.0620  1.1805
    4MOL0     H  481   3.148   1.438   2.365  1.8689  3.6461 -0.9645
    4MOL0     H  482   3.168   1.525   2.226  0.1260  0.7678  1.7234
    4MOL0     H  483   2.994   1.393   2.100 -1.5359 -0.2592  0.3417
    4MOL0     H  484   3.015   1.265   2.227  0.4841 -0.2551 -0.6971
    4MOL0     H  485   2.931   1.454   2.386 -1.2619 -0.8677  0.8557
    4MOL0     H  486   2.898   1.542   2.238 -0.1700  0.0816 -0.0832
    4MOL0     H  487   2.758   1.293   2.360 -3.3671  0.0716 -2.2623
    4MOL0     H  488   2.691   1.442   2.310 -1.0655 -0.4959  0.3475
    4MOL0     H  489   2.785   1.232   2.121 -1.1394  0.2040 -2.2240
    4MOL0     H  490   2.701   1.392   2.080 -0.9056  2.3355  1.4375
    4MOL0     H  491   2.625   1.087   2.314 -0.1770  0.5710  0.9424
    4MOL0     H  492   2.301   0.951   2.258  0.8995  1.0022 -1.0782
    4MOL0     H  493   2.405   0.982   2.395 -0.5579 -0.2619  0.0277
    4MOL0     H  494   2.153   1.160   2.366  2.4865  2.4759  3.2963
    4MOL0     H  495   2.254   1.125   2.501 -1.7655 -1.3640  0.4875
    4MOL0     H  496   2.171   0.920   2.548 -3.9317 -1.6651  1.2807
    4MOL0     H  497   2.112   0.885   2.394 -0.4975  0.6990 -0.4332
    4MOL0     H  498   1.930   1.047   2.410 -1.4131  0.7694  0.5399
    4MOL0     H  499   1.998   1.107   2.561 -1.5020  0.2823 -1.1091
    4MOL0     H  500   1.750   0.720   2.571  1.5272  0.9154 -2.2760
    4MOL0     H  501   1.391   0.691   2.571  1.2242  1.3315 -0.6497
    4MOL0     H  502   1.535   0.604   2.579 -2.5469 -1.0930 -0.8925
    4MOL0     H  503   1.459   0.657   2.737  2.4016 -1.5566  1.1631
    4MOL0     H  504   1.188   1.229   2.805  3.1529 -1.1941 -1.6662
    4MOL0     H  505   0.959   1.265   2.803 -0.5222 -1.3589 -0.1130
    4MOL0     H  506   0.724   1.244   2.789  1.8418  1.3004  0.9500
    4MOL0     H  507   0.746   1.382   2.688 -0.5395 -0.1805 -2.5915
    4MOL0     H  508   0.543   1.266   2.561  2.6200  1.5751 -0.0386
    4MOL0     H  509   0.523   1.179   2.718  0.0127  0.7419  1.0837
    4MOL0     H  510   0.535   1.493   2.690 -1.7911 -0.4157 -2.5663
    4MOL0     H  511   0.502   1.399   2.834 -3.0376 -0.3885  0.0658
    4MOL0     H  512   0.333   1.377   2.597  0.0941  0.6412 -0.5677
    4MOL0     H  513   0.312   1.287   2.748 -0.9217  1.6002  0.7926
    4MOL0     H  514   0.153   1.490   2.728 -0.0870 -4.4261 -1.1715
    4MOL0     H  515   0.299   1.591   2.737 -2.5385  1.7444  0.6925
    4MOL0     H  516   0.177   1.399   2.952  0.0597  1.3742  3.2233
    4MOL0     H  517   0.321   1.496   2.980 -2.6789 -0.4054  4.4776
    4MOL0     H  518   0.064   1.624   2.882 -0.7302  0.1617  2.1361
    4MOL0     H  519   0.208   1.707   2.941 -2.2840  1.3396 -0.0282
    4MOL0     H  520   0.024   1.525   3.085  0.7153 -1.1578  1.2921
    4MOL0     H  521   0.045   1.701   3.110  2.5405  1.7569  0.1938
    4MOL0     H  522   0.898   1.068   2.427 -0.1606  2.7943 -1.2334
    4MOL0     H  523   1.148   1.043   2.423 -0.7788  4.0117 -1.9484
    4MOL0     H  524   1.554   1.146   2.659 -4.1752 -1.3091  0.5281
    4MOL0     H  525   1.773   1.141   2.587  3.0687 -1.4323 -0.3201
    4MOL0     H  526   3.769   1.252   2.561 -5.0356  0.6388  0.7094
    4MOL0     H  527   3.967   1.362   2.598  0.1982 -2.4693 -1.9224
    4MOL0     H  528   4.406   1.600   2.669  0.6578  2.6519  0.7541
    4MOL0     H  529   4.592   1.715   2.581 -1.8680 -0.9515  2.2977
    4MOL0     H  530   4.721   1.894   2.190 -0.7096  0.7437 -0.0737
    4MOL0     H  531   4.542   1.909   2.176  1.5187 -2.5977 -1.9661
    4MOL0     H  532   4.725   2.035   2.400 -0.9170  0.5973  1.0822
    4MOL0     H  533   4.548   2.041   2.387 -1.0009 -0.3276 -1.5932
    4MOL0     H  534   4.620   2.256   2.310  0.3083  0.5450 -1.9169
    4MOL0     H  535   4.620   2.162   2.156  1.2079  0.7734 -0.2391
    4MOL0     H  536   4.860   2.118   2.177 -1.7096  0.2971 -0.8671
    4MOL0     H  537   4.856   2.229   2.324  1.1172 -0.3114 -1.1591
    4MOL0     H  538   4.792   2.470   1.988 -3.2024 -1.0968  0.2416
    4MOL0     H  539   4.393   1.757   2.194 -2.0619  0.2787 -0.4676
    4MOL0     H  540   4.191   1.663   2.287  2.4217 -1.8172 -1.2804
    5MOL0     O  541   1.970   6.635   4.953 -0.2887 -0.6489  0.4838
    5MOL0     C  542   1.976   6.596   5.069  0.6177 -0.1073  0.0091
    5MOL0     O  543   1.865   6.566   5.150 -0.6103 -0.8353 -0.5791
    5MOL0     C  544   1.737   6.570   5.095 -0.2056  0.5256 -0.0305
    5MOL0     C  545   1.688   6.654   5.004 -0.3795 -0.3898  0.5181
    5MOL0     C  546   1.552   6.648   4.960  0.0033 -0.3850 -0.2671
    5MOL0     C  547   1.465   6.547   4.996 -0.5298  0.2379  0.0644
    5MOL0     O  548   1.338   6.532   4.957  0.1690 -0.3157 -0.1745
    5MOL0     C  549   1.304   6.549   4.817  0.0173  0.3129  0.1148
    5MOL0     C  550   1.244   6.411   4.753  0.1302 -0.1969  0.0238
    5MOL0     C  551   1.209   6.438   4.611 -0.4687 -0.2570 -0.3252
    5MOL0     C  552   1.206   6.313   4.536 -0.5620  0.0934 -0.6963
    5MOL0     C  553   1.139   6.298   4.400 -0.2753  0.9545  0.3423
    5MOL0     C  554   1.168   6.153   4.348 -0.3317  1.3480 -0.3117
    5MOL0     C  555   1.132   6.130   4.192  0.0029  0.3045 -0.0106
    5MOL0     C  556   0.993   6.185   4.158  0.6474  0.1206 -0.7102
    5MOL0     N  557   0.889   6.107   4.226 -0.3629  0.1360  0.2594
    5MOL0     C  558   0.868   5.971   4.206 -0.2679  0.1635  0.0929
    5MOL0     C  559   0.781   5.937   4.309  0.0667  0.2351  0.0845
    5MOL0     C  560   0.734   5.802   4.348 -0.0704 -0.4964 -0.0353
    5MOL0     C  561   0.812   5.733   4.453 -0.4643 -0.3687  0.1394
    5MOL0     C  562   0.783   5.581   4.460 -0.6826  0.0785 -0.2302
    5MOL0     C  563   0.904   5.509   4.404  1.0684 -0.2501 -0.7254
    5MOL0     O  564   0.936   5.539   4.273  0.4625  0.0958  0.0512
    5MOL0     C  565   0.839   5.513   4.176  0.3286 -0.0812  0.9936
    5MOL0     C  566   0.724   5.444   4.184  0.1057 -0.3461  0.4069
    5MOL0     C  567   0.633   5.430   4.078 -0.2219  0.7592  0.1788
    5MOL0     C  568   0.512   5.356   4.110 -0.1311  0.3410 -0.0940
    5MOL0     C  569   0.667   5.471   3.951 -0.2395 -0.0891 -0.1243
    5MOL0     C  570   0.587   5.465   3.829  0.4657 -0.2167  0.1270
    5MOL0     O  571   0.455   5.481   3.824  0.2045 -0.0702 -0.3474
    5MOL0     C  572   0.390   5.429   3.719  0.3671  0.5789  0.8189
    5MOL0     C  573   0.376   5.502   3.601 -0.3201  0.1385 -0.4532
    5MOL0     C  574   0.309   5.446   3.499 -0.8823  0.0499  0.3650
    5MOL0     C  575   0.263   5.312   3.506  0.2816 -0.2239 -0.5146
    5MOL0     O  576   0.203   5.257   3.396  0.3565 -0.1698 -0.4585
    5MOL0     C  577   0.097   5.165   3.422 -0.2086 -0.4703  0.3538
    5MOL0     C  578  -0.035   5.212   3.348  0.2322 -0.9632  0.9374
    5MOL0     C  579  -0.028   5.249   3.203  0.6236  0.3813  0.6433
    5MOL0     C  580   0.085   5.337   3.142 -0.1663 -0.7272 -0.3266
    5MOL0     C  581   0.101   5.490   3.192  0.7336  0.6201  0.9639
    5MOL0     C  582   0.034   5.591   3.092 -0.3188 -0.5113  1.2948
    5MOL0     C  583   0.038   5.734   3.149 -0.4389 -0.4053  1.2111
    5MOL0     C  584   0.008   5.826   3.027  0.7342  0.0621 -0.3216
    5MOL0    Cl  585  -0.166   5.827   2.992 -0.0482 -0.5335 -0.2660
    5MOL0     C  586   0.307   5.233   3.612 -0.4607 -0.4438  0.6876
    5MOL0     C  587   0.365   5.294   3.724  0.1902 -0.2155  0.4145
    5MOL0     O  588   0.652   5.446   3.728 -0.7782 -0.7278 -0.2515
    5MOL0     C  589   0.789   5.534   3.939 -0.2847  0.6833  0.5793
    5MOL0     C  590   0.870   5.561   4.047  0.9821  0.3633 -0.9285
    5MOL0     N  591   0.725   6.057   4.358  0.4474  0.8729 -0.4945
    5MOL0     N  592   0.795   6.152   4.309 -0.6575 -0.3320 -0.3083
    5MOL0     C  593   1.522   6.449   5.080 -0.5785  0.5653 -0.4147
    5MOL0     C  594   1.649   6.466   5.132  0.9093 -0.2458  0.1694
    5MOL0     C  595   2.108   6.564   5.123  0.5638  0.1311  0.4810
    5MOL0     C  596   2.226   6.572   5.046 -0.4301 -0.2703 -0.2623
    5MOL0     C  597   2.350   6.560   5.107 -0.2570 -0.9058  0.0392
    5MOL0     C  598   2.353   6.522   5.247 -0.6217 -0.0151 -0.2251
    5MOL0     O  599   2.481   6.498   5.302  0.7484 -0.0744  1.3999
    5MOL0     C  600   2.572   6.408   5.232  0.7231  0.1374 -0.1653
    5MOL0     C  601   2.641   6.321   5.331  1.0605 -0.4470 -0.1233
    5MOL0     C  602   2.750   6.403   5.408  0.2617 -0.0355  0.1834
    5MOL0     C  603   2.891   6.426   5.333 -0.0579 -1.7115 -0.3037
    5MOL0     C  604   2.999   6.330   5.371 -0.3866  0.1803  0.9174
    5MOL0     C  605   3.103   6.280   5.400 -0.7564  0.0905  0.6925
    5MOL0     C  606   2.240   6.518   5.322 -0.8911  0.3284  0.7869
    5MOL0     C  607   2.122   6.545   5.260 -0.4833  0.0701  0.5829
    5MOL0     H  608   1.759   6.722   4.959  1.9164 -2.3825  0.9301
    5MOL0     H  609   1.506   6.715   4.888 -3.0148 -1.8416  0.1479
    5MOL0     H  610   1.230   6.628   4.815 -0.2639  0.0533  0.1944
    5MOL0     H  611   1.389   6.583   4.757  0.7663 -0.7366  0.5277
    5MOL0     H  612   1.331   6.345   4.756  1.1649  1.1358 -0.0628
    5MOL0     H  613   1.165   6.381   4.824 -0.6171  0.5155 -0.4875
    5MOL0     H  614   1.110   6.484   4.608 -1.4275 -2.0217  1.8081
    5MOL0     H  615   1.276   6.514   4.570 -1.6089  0.5406 -0.7762
    5MOL0     H  616   1.308   6.274   4.535  0.6174  2.6927  2.2075
    5MOL0     H  617   1.149   6.248   4.603 -1.0761  2.7628  1.6631
    5MOL0     H  618   1.033   6.324   4.396 -0.4953 -0.0496 -1.1023
    5MOL0     H  619   1.187   6.362   4.326  3.3348 -2.0651 -0.1926
    5MOL0     H  620   1.274   6.130   4.359 -0.5881  0.5907  0.7427
    5MOL0     H  621   1.114   6.074   4.401 -1.8034  1.0495 -2.1229
    5MOL0     H  622   1.209   6.187   4.139  1.7413 -1.3104  0.6682
    5MOL0     H  623   1.139   6.023   4.174  2.3271  0.1081  1.6316
    5MOL0     H  624   0.976   6.186   4.050 -1.9334 -0.3823 -0.3772
    5MOL0     H  625   0.987   6.289   4.192  1.3232  0.4626 -1.5833
    5MOL0     H  626   0.914   5.899   4.139  0.6844  0.1342  0.7574
    5MOL0     H  627   0.632   5.817   4.383  0.3912  1.5453  0.5718
    5MOL0     H  628   0.735   5.737   4.259 -0.4713 -0.8589  0.2206
    5MOL0     H  629   0.783   5.795   4.539  2.9067  2.5872 -0.6130
    5MOL0     H  630   0.919   5.751   4.442 -0.4067 -1.2255 -0.8144
    5MOL0     H  631   0.688   5.559   4.409  0.8938 -0.8575 -2.9578
    5MOL0     H  632   0.761   5.559   4.565  2.8782  1.7709  1.0050
    5MOL0     H  633   0.897   5.403   4.431 -2.0062  0.7963  3.6599
    5MOL0     H  634   0.995   5.538   4.458  0.3589  0.4878  0.1117
    5MOL0     H  635   0.702   5.393   4.277  0.7023 -1.5585 -0.0861
    5MOL0     H  636   0.535   5.257   4.150 -1.0559  0.2717  0.2668
    5MOL0     H  637   0.455   5.416   4.181 -1.4573 -1.0558  0.0525
    5MOL0     H  638   0.446   5.345   4.024 -1.5722  3.3063  0.4944
    5MOL0     H  639   0.418   5.602   3.606 -1.6867  0.7468 -0.5879
    5MOL0     H  640   0.298   5.497   3.404  1.8996 -1.9449 -1.1838
    5MOL0     H  641   0.119   5.070   3.373  4.8278  0.8078 -0.3470
    5MOL0     H  642   0.069   5.153   3.527  1.9291 -1.3038  0.8713
    5MOL0     H  643  -0.104   5.127   3.347  1.5933 -2.0929  0.7776
    5MOL0     H  644  -0.079   5.299   3.398 -2.5676 -0.5508 -1.9187
    5MOL0     H  645  -0.114   5.311   3.176 -0.7214 -1.5642  0.2797
    5MOL0     H  646  -0.036   5.162   3.137  0.0446 -0.3683  1.6943
    5MOL0     H  647   0.176   5.278   3.155 -0.1069 -0.4413  0.6027
    5MOL0     H  648   0.082   5.340   3.032  1.0967  2.0762 -0.3859
    5MOL0     H  649   0.208   5.514   3.200  0.8519 -0.1934  2.1619
    5MOL0     H  650   0.045   5.503   3.285  2.1629 -2.9253  2.4957
    5MOL0     H  651   0.091   5.588   2.998 -2.2425  0.7519  0.0134
    5MOL0     H  652  -0.068   5.559   3.068 -1.7544  3.7854  0.6874
    5MOL0     H  653   0.133   5.756   3.197  1.4454  0.3647 -2.4777
    5MOL0     H  654  -0.045   5.739   3.220  1.1412 -2.2166  3.3133
    5MOL0     H  655   0.081   5.808   2.948  2.8904 -0.5050  1.6585
    5MOL0     H  656   0.021   5.930   3.058  1.7904 -0.3502  0.7224
    5MOL0     H  657   0.292   5.126   3.618  1.0830 -0.5841  3.8056
    5MOL0     H  658   0.376   5.233   3.813  4.3397 -1.8671 -0.9785
    5MOL0     H  659   0.819   5.560   3.838  0.4609 -0.3132  0.5280
    5MOL0     H  660   0.966   5.611   4.032  1.1151 -0.1109 -1.7172
    5MOL0     H  661   1.464   6.367   5.120 -3.1247  1.7974 -1.3287
    5MOL0     H  662   1.685   6.399   5.209  0.1767  2.5928  3.1624
    5MOL0     H  663   2.224   6.599   4.941  0.2525  1.9727  0.2369
    5MOL0     H  664   2.431   6.572   5.036 -2.5833  1.2994 -2.4534
    5MOL0     H  665   2.515   6.353   5.157  0.6163  1.0588 -0.7844
    5MOL0     H  666   2.644   6.466   5.173  0.0928  2.2639  1.0382
    5MOL0     H  667   2.676   6.228   5.285 -0.7474 -2.6104  2.6221
    5MOL0     H  668   2.569   6.286   5.405 -1.5071  4.6299  0.2172
    5MOL0     H  669   2.793   6.355   5.496  2.8874 -1.1336 -1.5594
    5MOL0     H  670   2.714   6.504   5.428 -0.0602 -0.5776  2.6093
    5MOL0     H  671   2.937   6.520   5.361 -0.0838 -1.3182 -1.4992
    5MOL0     H  672   2.884   6.426   5.223 -2.7938  2.9164 -0.3903
    5MOL0     H  673   3.200   6.236   5.411  0.1459  0.4165 -3.7814
    5MOL0     H  674   2.256   6.496   5.427  2.0048 -1.6063  0.0462
    5MOL0     H  675   2.027   6.545   5.312 -1.1298  0.1246 -0.5815
    6MOL0     O  676   3.235   1.341   4.538 -0.2600 -0.4133  0.6913
    6MOL0     C  677   3.264   1.403   4.441  0.7136 -1.2046  0.3499
    6MOL0     O  678   3.204   1.521   4.406  0.2541  0.5010 -0.0972
    6MOL0     C  679   3.119   1.588   4.484  0.5744  0.1311  0.1865
    6MOL0     C  680   2.998   1.622   4.430 -0.5644  0.3323  0.7207
    6MOL0     C  681   2.901   1.686   4.500  0.6569  0.0589 -0.5944
    6MOL0     C  682   2.915   1.724   4.631 -0.6570  0.6171 -0.2652
    6MOL0     O  683   2.828   1.801   4.697  0.0896  0.6235 -0.5138
    6MOL0     C  684   2.864   1.940   4.677 -0.8882  0.5084 -0.8890
    6MOL0     C  685   2.762   2.052   4.726  0.8933  0.4053  0.3400
    6MOL0     C  686   2.606   2.015   4.698 -0.4416 -0.5723 -0.2762
    6MOL0     C  687   2.557   2.104   4.584  0.0837 -0.6981  0.0470
    6MOL0     C  688   2.420   2.070   4.538  0.3548  0.0292 -0.3047
    6MOL0     C  689   2.310   2.092   4.645  0.1987 -0.6417  0.4614
    6MOL0     C  690   2.169   2.114   4.581  0.0841  0.4856  0.6757
    6MOL0     C  691   2.054   2.103   4.688  0.3559  0.4575 -0.2585
    6MOL0     N  692   1.916   2.090   4.635 -0.8623 -0.3476 -0.0993
    6MOL0     C  693   1.829   2.186   4.593 -0.5142  0.1525 -0.5057
    6MOL0     C  694   1.743   2.120   4.520 -1.0885  0.0482 -0.9085
    6MOL0     C  695   1.611   2.167   4.444  0.0992 -0.1559  0.6492
    6MOL0     C  696   1.512   2.060   4.439  0.0804  0.2110  0.2077
    6MOL0     C  697   1.395   2.119   4.353  0.3033 -0.2711 -0.1473
    6MOL0     C  698   1.273   2.031   4.355 -1.1022  0.6506  0.0782
    6MOL0     O  699   1.161   2.095   4.294 -0.4240  0.2448 -0.4693
    6MOL0     C  700   1.045   2.034   4.277  0.0318  0.6066  0.0453
    6MOL0     C  701   1.021   1.902   4.332 -0.7911 -0.7666  0.6634
    6MOL0     C  702   0.894   1.838   4.324 -0.8030  0.3863 -0.2311
    6MOL0     C  703   0.880   1.708   4.407 -1.1303 -0.2495  0.9426
    6MOL0     C  704   0.785   1.903   4.255  0.6920  0.8354 -0.4029
    6MOL0     C  705   0.649   1.845   4.222  0.7287 -0.4439 -1.0610
    6MOL0     O  706   0.634   1.713   4.253 -0.2991  0.0964  0.8867
    6MOL0     C  707   0.533   1.640   4.195  0.3723  0.4864 -0.1773
    6MOL0     C  708   0.485   1.653   4.060 -0.2417  0.5787 -0.4680
    6MOL0     C  709   0.386   1.567   4.015  0.5609  0.8965  0.2235
    6MOL0     C  710   0.331   1.472   4.102 -0.4773  1.2039  0.3037
    6MOL0     O  711   0.225   1.387   4.065  0.3379  0.0580 -0.1821
    6MOL0     C  712   0.151   1.334   4.178 -0.9502 -0.3613  0.4372
    6MOL0     C  713   0.021   1.298   4.115 -0.1158 -0.1612  0.3526
    6MOL0     C  714  -0.083   1.300   4.224  0.9588  0.4352 -0.3133
    6MOL0     C  715  -0.196   1.206   4.192  0.3483 -0.2940 -0.0801
    6MOL0     C  716  -0.167   1.065   4.221 -0.0470 -0.2566  0.3912
    6MOL0     C  717  -0.282   0.971   4.265  0.3605  0.3388  0.8683
    6MOL0     C  718  -0.405   0.959   4.167 -0.2742  0.2187  0.3908
    6MOL0     C  719  -0.490   0.833   4.186  1.2194 -0.0060 -0.0698
    6MOL0    Cl  720  -0.561   0.871   4.347 -0.1287 -0.3000 -0.3156
    6MOL0     C  721   0.377   1.452   4.235 -0.1482 -0.6020  0.2447
    6MOL0     C  722   0.482   1.532   4.269 -0.3464 -0.3963 -0.2380
    6MOL0     O  723   0.564   1.923   4.175  0.0134 -0.1804  0.3784
    6MOL0     C  724   0.810   2.031   4.205 -0.1864 -0.1851  0.8475
    6MOL0     C  725   0.939   2.097   4.217  0.2085  0.8395  0.4932
    6MOL0     N  726   1.782   1.983   4.515 -0.4979  0.4853  0.5628
    6MOL0     N  727   1.878   1.972   4.584 -0.5453 -0.0367  0.4710
    6MOL0     C  728   3.031   1.689   4.688 -0.5230 -0.3223  0.7606
    6MOL0     C  729   3.137   1.632   4.615  0.5890  0.4990  0.0138
    6MOL0     C  730   3.353   1.336   4.349  0.2282 -0.1351 -0.1610
    6MOL0     C  731   3.358   1.375   4.216  0.2414 -0.1516 -0.2044
    6MOL0     C  732   3.433   1.314   4.118 -0.0480 -0.0563  0.5338
    6MOL0     C  733   3.523   1.209   4.153 -0.0717  0.0499 -0.0901
    6MOL0     O  734   3.587   1.149   4.040 -0.0880 -0.0394 -0.4537
    6MOL0     C  735   3.689   1.046   4.076  0.4973  0.3601  0.3308
    6MOL0     C  736   3.760   0.996   3.949 -0.5027 -0.1799 -0.1134
    6MOL0     C  737   3.821   1.109   3.872 -0.2924 -0.4571 -0.7822
    6MOL0     C  738   3.875   1.065   3.738  1.3157 -0.5819 -0.2615
    6MOL0     C  739   3.967   0.945   3.749 -0.6484  0.2989  0.0760
    6MOL0     C  740   4.048   0.856   3.748 -0.7452  0.9817  1.1048
    6MOL0     C  741   3.520   1.164   4.287 -0.0599 -0.0124  0.0703
    6MOL0     C  742   3.441   1.232   4.383 -0.1744 -0.2401  0.0700
    6MOL0     H  743   2.977   1.614   4.323 -0.5488  1.1885  0.6429
    6MOL0     H  744   2.811   1.724   4.453 -0.1787 -0.5683  0.4574
    6MOL0     H  745   2.961   1.962   4.723  0.0256 -5.3780  0.8527
    6MOL0     H  746   2.880   1.955   4.570  3.5417  4.6297  0.0136
    6MOL0     H  747   2.773   2.072   4.833 -0.8492 -1.4452  0.9326
    6MOL0     H  748   2.789   2.138   4.664  1.4349 -1.0895 -1.5903
    6MOL0     H  749   2.596   1.912   4.664 -3.4581 -0.6413  0.5859
    6MOL0     H  750   2.543   2.026   4.787  0.2832  1.0793  0.0874
    6MOL0     H  751   2.564   2.209   4.616  1.6150 -0.6457 -0.3983
    6MOL0     H  752   2.624   2.092   4.498  0.2854  0.6324 -0.0035
    6MOL0     H  753   2.408   2.128   4.446 -1.0821  0.5523  0.1768
    6MOL0     H  754   2.396   1.973   4.494 -2.6343  0.6016 -0.1910
    6MOL0     H  755   2.287   2.009   4.713 -1.1481 -0.1556  0.6436
    6MOL0     H  756   2.338   2.180   4.703  1.8775 -0.8642  0.0266
    6MOL0     H  757   2.173   2.201   4.515 -1.1074 -0.6666 -1.0109
    6MOL0     H  758   2.142   2.025   4.522 -2.7272  1.0739  0.9279
    6MOL0     H  759   2.054   2.196   4.746  2.9238 -1.5010  3.2694
    6MOL0     H  760   2.063   2.014   4.751 -2.0012 -1.0384 -1.8615
    6MOL0     H  761   1.831   2.292   4.613 -2.3662  0.4901 -1.8634
    6MOL0     H  762   1.569   2.254   4.495 -0.9643 -1.3222  1.8302
    6MOL0     H  763   1.645   2.202   4.346  2.1876 -0.1610  1.3076
    6MOL0     H  764   1.472   2.028   4.535 -1.3632 -0.7881 -0.6910
    6MOL0     H  765   1.558   1.970   4.396  2.9106  0.7240  1.9079
    6MOL0     H  766   1.422   2.147   4.251  0.4654  2.6874  0.6306
    6MOL0     H  767   1.354   2.204   4.408  1.0661  0.2039 -0.2970
    6MOL0     H  768   1.245   1.996   4.454  1.4263 -1.3724  0.1703
    6MOL0     H  769   1.295   1.935   4.308  0.3575  1.9553 -2.1166
    6MOL0     H  770   1.097   1.844   4.384 -0.8273 -0.1004  1.4774
    6MOL0     H  771   0.972   1.682   4.461  0.5487  1.3742 -1.0059
    6MOL0     H  772   0.806   1.728   4.486 -0.9045 -1.8066  1.5895
    6MOL0     H  773   0.848   1.624   4.344 -3.6226  1.6772 -0.5105
    6MOL0     H  774   0.522   1.738   4.004  0.1287  1.6445  1.3149
    6MOL0     H  775   0.352   1.583   3.913 -1.1598 -4.0070 -0.2459
    6MOL0     H  776   0.205   1.248   4.218  0.3909 -0.4359 -1.3838
    6MOL0     H  777   0.138   1.414   4.251 -2.0537 -1.2440  1.2470
    6MOL0     H  778  -0.001   1.358   4.026 -0.8034 -0.8759  0.0239
    6MOL0     H  779   0.046   1.198   4.078  1.3119  0.3177 -0.0316
    6MOL0     H  780  -0.135   1.396   4.212  1.7359  0.9631  0.3836
    6MOL0     H  781  -0.030   1.280   4.317  3.0022 -3.1902 -2.0213
    6MOL0     H  782  -0.286   1.229   4.251  1.7437  1.0485  1.6471
    6MOL0     H  783  -0.219   1.217   4.085 -0.7453  4.4793  0.3907
    6MOL0     H  784  -0.084   1.064   4.292  1.1228 -0.3314 -0.9306
    6MOL0     H  785  -0.135   1.026   4.124 -0.6435 -2.1890  0.9129
    6MOL0     H  786  -0.237   0.872   4.261  3.2110  1.5716  0.2107
    6MOL0     H  787  -0.304   0.990   4.371  0.4318 -1.0508  1.1541
    6MOL0     H  788  -0.377   0.961   4.062 -1.4167  0.5097  0.0708
    6MOL0     H  789  -0.471   1.047   4.160 -0.8443 -0.2503 -0.3007
    6MOL0     H  790  -0.427   0.744   4.183 -1.8354 -2.4438  1.7189
    6MOL0     H  791  -0.560   0.809   4.106 -0.0061 -0.4250  1.0797
    6MOL0     H  792   0.344   1.383   4.311 -3.4509 -0.9717 -1.3221
    6MOL0     H  793   0.514   1.524   4.372  1.2178  2.2051 -0.4395
    6MOL0     H  794   0.749   2.074   4.127  1.6517 -2.4002 -1.9858
    6MOL0     H  795   0.959   2.194   4.173  1.4042  0.1805 -0.4826
    6MOL0     H  796   3.067   1.717   4.787  2.8501 -2.7567  0.4167
    6MOL0     H  797   3.231   1.620   4.668  1.1511  1.5597 -0.7020
    6MOL0     H  798   3.297   1.461   4.187  0.4509 -0.1762 -0.7150
    6MOL0     H  799   3.412   1.357   4.021 -1.6285  0.3687  1.0310
    6MOL0     H  800   3.762   1.080   4.150  1.1365 -2.0721  0.9071
    6MOL0     H  801   3.640   0.960   4.123 -0.5101 -0.0107 -1.3273
    6MOL0     H  802   3.693   0.940   3.884  0.8496  1.5143 -3.1579
    6MOL0     H  803   3.837   0.928   3.986 -0.3084  0.4103  0.5930
    6MOL0     H  804   3.903   1.156   3.928 -1.0851 -0.7913  0.7093
    6MOL0     H  805   3.749   1.190   3.855 -0.1501  0.3623  2.0309
    6MOL0     H  806   3.926   1.152   3.696  0.1596  1.7263  2.7525
    6MOL0     H  807   3.803   1.025   3.666  0.0647 -0.1120  0.7011
    6MOL0     H  808   4.123   0.779   3.753  0.0794  1.8313  2.8618
    6MOL0     H  809   3.584   1.081   4.315 -2.2139 -2.7499 -2.4373
    6MOL0     H  810   3.433   1.190   4.482 -0.3154 -0.8109 -0.1805
    7MOL0     O  811   7.499   1.311   4.521 -0.0436 -0.4790 -0.1515
    7MOL0     C  812   7.420   1.377   4.450  0.5521  0.6619  0.3930
    7MOL0     O  813   7.437   1.501   4.402  0.5721  0.0691  0.2845
    7MOL0     C  814   7.542   1.579   4.446  0.4685 -0.9225 -0.5823
    7MOL0     C  815   7.623   1.563   4.563 -0.1279 -0.2259 -0.0866
    7MOL0     C  816   7.733   1.647   4.592  0.1833  0.4652 -0.0082
    7MOL0     C  817   7.755   1.750   4.502 -0.7499 -0.4695 -0.2181
    7MOL0     O  818   7.872   1.826   4.523  0.6009 -0.2956  0.0917
    7MOL0     C  819   7.849   1.967   4.502 -0.8734  0.1408  0.0916
    7MOL0     C  820   7.949   2.045   4.587 -0.4585  0.7813 -0.1453
    7MOL0     C  821   7.914   2.194   4.585 -0.3812  0.1270 -0.3356
    7MOL0     C  822   7.938   2.268   4.453  1.0135  0.1509 -0.1233
    7MOL0     C  823   7.946   2.419   4.488 -0.6733  0.5327  0.5494
    7MOL0     C  824   7.970   2.496   4.347  0.6035  0.9226 -0.5637
    7MOL0     C  825   8.004   2.644   4.357 -0.4899 -0.3509 -0.7664
    7MOL0     C  826   8.133   2.676   4.447 -0.5979  0.1171  0.1249
    7MOL0     N  827   8.247   2.599   4.393  0.3186 -0.6067  0.2792
    7MOL0     C  828   8.334   2.641   4.299 -0.1061 -0.0255 -0.0532
    7MOL0     C  829   8.411   2.532   4.271  0.6723 -0.5183 -0.0420
    7MOL0     C  830   8.540   2.533   4.194 -0.3208 -0.9034 -0.4695
    7MOL0     C  831   8.517   2.449   4.065  0.5586 -0.5404  0.3222
    7MOL0     C  832   8.412   2.510   3.968  0.5543  0.4336 -0.0039
    7MOL0     C  833   8.279   2.442   3.985  0.0769 -0.6786 -0.1233
    7MOL0     O  834   8.191   2.495   3.884 -0.1101  0.5692  0.3519
    7MOL0     C  835   8.057   2.461   3.885  0.4055  0.0428 -0.5201
    7MOL0     C  836   8.000   2.376   3.980  0.4057  0.3417 -0.3023
    7MOL0     C  837   7.862   2.353   3.989 -0.3689  0.1292 -0.3866
    7MOL0     C  838   7.814   2.257   4.097  0.9698 -0.4228  0.3252
    7MOL0     C  839   7.781   2.407   3.887  1.2052 -0.1994  0.1481
    7MOL0     C  840   7.629   2.393   3.875 -0.2841  1.2652 -0.6876
    7MOL0     O  841   7.581   2.390   3.746 -0.1088  0.6684 -0.2475
    7MOL0     C  842   7.480   2.297   3.721  0.3975  0.6198 -0.1005
    7MOL0     C  843   7.361   2.351   3.671 -0.4004  0.1992  0.4407
    7MOL0     C  844   7.249   2.263   3.667  0.2262  0.0943  0.3231
    7MOL0     C  845   7.258   2.127   3.714  1.0788  0.0488 -0.0617
    7MOL0     O  846   7.157   2.033   3.708  0.0308 -0.6164  0.0131
    7MOL0     C  847   7.025   2.080   3.679  0.6008 -0.3663 -0.3842
    7MOL0     C  848   6.930   1.962   3.687  0.4092  0.6132  0.0392
    7MOL0     C  849   6.792   2.014   3.654 -0.9365 -0.9480  0.5397
    7MOL0     C  850   6.702   1.904   3.675 -0.1571  0.4630  0.8671
    7MOL0     C  851   6.710   1.785   3.585 -0.0103 -0.3963  0.8497
    7MOL0     C  852   6.628   1.662   3.620 -0.6347  0.2601 -0.5224
    7MOL0     C  853   6.685   1.611   3.758 -0.4722  0.0319 -0.0807
    7MOL0     C  854   6.636   1.471   3.782 -1.0289  0.1800  0.1923
    7MOL0    Cl  855   6.663   1.440   3.958  0.3145  0.1884  0.5535
    7MOL0     C  856   7.382   2.077   3.755 -0.3001  0.7964 -0.0387
    7MOL0     C  857   7.492   2.163   3.764 -0.2503  0.4730 -0.0626
    7MOL0     O  858   7.557   2.366   3.974 -0.5637 -0.2200  0.6677
    7MOL0     C  859   7.838   2.481   3.786  0.5927  0.1637 -0.1642
    7MOL0     C  860   7.977   2.499   3.782  0.0263 -0.0845 -0.2085
    7MOL0     N  861   8.364   2.429   4.355 -0.1577 -0.1271 -0.0403
    7MOL0     N  862   8.278   2.467   4.424  0.0970 -0.0248 -0.1007
    7MOL0     C  863   7.671   1.772   4.391 -0.2013 -0.1880 -0.7170
    7MOL0     C  864   7.559   1.695   4.371 -0.9435 -0.0768 -0.8213
    7MOL0     C  865   7.301   1.298   4.399  0.5366 -0.4659  0.5114
    7MOL0     C  866   7.206   1.358   4.306 -0.1322  0.3079  0.1179
    7MOL0     C  867   7.104   1.283   4.254 -0.4113  0.8304  0.1405
    7MOL0     C  868   7.075   1.149   4.287  0.0216 -0.1603 -0.3096
    7MOL0     O  869   6.974   1.077   4.231  0.5048 -0.5926 -0.5745
    7MOL0     C  870   6.881   1.005   4.317 -0.4056 -0.1639 -0.1050
    7MOL0     C  871   6.908   0.856   4.297 -0.0151 -0.2638 -0.5987
    7MOL0     C  872   6.872   0.776   4.424  0.1811  0.3873  0.6169
    7MOL0     C  873   6.935   0.640   4.421  0.2701  0.7083  0.2601
    7MOL0     C  874   6.857   0.552   4.504  0.3997  0.3488  0.1962
    7MOL0     C  875   6.784   0.499   4.588  0.5120  0.0073 -1.1917
    7MOL0     C  876   7.163   1.094   4.383  0.3498  0.5550  0.7460
    7MOL0     C  877   7.267   1.165   4.440 -0.7003 -0.6599  0.4690
    7MOL0     H  878   7.619   1.475   4.627 -1.6391  0.4283  0.7637
    7MOL0     H  879   7.792   1.606   4.673 -0.9719 -3.3018 -0.8609
    7MOL0     H  880   7.854   1.998   4.397 -1.3815 -1.8682 -0.5768
    7MOL0     H  881   7.745   1.986   4.529 -2.1890 -4.7283 -0.5900
    7MOL0     H  882   7.960   2.014   4.691 -0.1774 -0.4766 -0.5310
    7MOL0     H  883   8.051   2.036   4.548 -0.6399 -1.7494 -0.1900
    7MOL0     H  884   7.814   2.214   4.624  0.1687 -0.1414  1.2672
    7MOL0     H  885   7.978   2.228   4.667  0.6504  0.8827 -1.4033
    7MOL0     H  886   8.029   2.237   4.401 -0.5318 -0.8525 -2.3857
    7MOL0     H  887   7.861   2.234   4.383  0.3851  1.8014 -0.2642
    7MOL0     H  888   7.861   2.457   4.545 -0.5668 -0.5147  1.4559
    7MOL0     H  889   8.036   2.427   4.550  1.7449 -1.4016 -2.4076
    7MOL0     H  890   8.045   2.443   4.288 -0.1827 -0.1776 -0.6066
    7MOL0     H  891   7.876   2.477   4.295 -1.6268  3.2336  2.2524
    7MOL0     H  892   8.019   2.658   4.250 -1.4370  0.9441 -0.7561
    7MOL0     H  893   7.927   2.710   4.399 -0.2291 -0.3103 -0.3474
    7MOL0     H  894   8.122   2.649   4.553  0.4966 -0.4578  0.0995
    7MOL0     H  895   8.164   2.780   4.437  0.9763 -0.1423  1.7980
    7MOL0     H  896   8.348   2.744   4.268  0.1885  0.0504  0.3248
    7MOL0     H  897   8.567   2.638   4.180  0.3814 -0.6424  2.2371
    7MOL0     H  898   8.621   2.491   4.255  0.3726 -1.3523 -1.6650
    7MOL0     H  899   8.489   2.345   4.084 -0.4848 -0.4571 -0.6441
    7MOL0     H  900   8.616   2.440   4.020  0.5492 -2.3232  0.5865
    7MOL0     H  901   8.447   2.487   3.867 -1.5217 -1.4402 -0.3746
    7MOL0     H  902   8.402   2.613   4.001 -3.6314 -0.6110  2.8031
    7MOL0     H  903   8.248   2.471   4.086  2.4690  0.0496  0.4532
    7MOL0     H  904   8.284   2.333   3.978 -2.9963 -0.8580 -1.3179
    7MOL0     H  905   8.068   2.328   4.050  1.0372  0.6798 -0.6766
    7MOL0     H  906   7.892   2.214   4.160 -0.0566 -0.9813  1.2423
    7MOL0     H  907   7.724   2.295   4.146 -0.5838 -1.7811 -1.3003
    7MOL0     H  908   7.781   2.164   4.047  0.9768 -0.5290  0.5179
    7MOL0     H  909   7.354   2.457   3.647 -0.9081  0.0728  0.0084
    7MOL0     H  910   7.163   2.304   3.615  2.5361  1.1877 -3.0187
    7MOL0     H  911   6.991   2.145   3.760  0.9817 -1.7535  0.9276
    7MOL0     H  912   7.016   2.124   3.579 -0.0794 -1.3065 -0.7516
    7MOL0     H  913   6.961   1.886   3.615  0.6790  0.3364  0.4462
    7MOL0     H  914   6.938   1.921   3.788  1.9427  0.8525  0.0320
    7MOL0     H  915   6.789   2.067   3.558 -1.6856  1.2562  1.7097
    7MOL0     H  916   6.768   2.097   3.721 -0.0484 -0.1586 -0.0844
    7MOL0     H  917   6.706   1.861   3.775 -3.1983  0.1011  0.9378
    7MOL0     H  918   6.604   1.950   3.659  0.0949  0.6466 -0.2542
    7MOL0     H  919   6.808   1.737   3.590 -0.2881 -0.8998  1.5155
    7MOL0     H  920   6.683   1.813   3.482 -0.3003 -0.3680  0.9333
    7MOL0     H  921   6.525   1.696   3.633 -1.2662 -1.3462 -1.0888
    7MOL0     H  922   6.633   1.586   3.543 -0.8539 -2.5842  2.0884
    7MOL0     H  923   6.643   1.668   3.841 -1.6210 -0.5501 -0.2375
    7MOL0     H  924   6.794   1.620   3.763 -0.4570 -0.7642  2.0260
    7MOL0     H  925   6.677   1.393   3.717 -5.4448 -1.1678 -1.3577
    7MOL0     H  926   6.529   1.456   3.764 -0.9895  1.1558 -1.0118
    7MOL0     H  927   7.391   1.969   3.768 -0.3797  0.8436  0.4230
    7MOL0     H  928   7.592   2.133   3.794  0.4352  0.1134 -2.4895
    7MOL0     H  929   7.790   2.531   3.702  0.0639 -0.8940 -0.5187
    7MOL0     H  930   8.020   2.560   3.703  2.9449  1.2952  2.2113
    7MOL0     H  931   7.691   1.852   4.321 -2.2641 -0.0360 -1.2231
    7MOL0     H  932   7.497   1.720   4.285 -0.1524 -3.0648 -2.3852
    7MOL0     H  933   7.225   1.447   4.248 -2.6345  1.5296  1.0197
    7MOL0     H  934   7.044   1.316   4.170  0.7111  0.9442 -0.6343
    7MOL0     H  935   6.910   1.035   4.418 -0.4461  3.6283 -1.0793
    7MOL0     H  936   6.776   1.026   4.293 -1.2658 -3.6509  0.0612
    7MOL0     H  937   7.012   0.828   4.277 -0.3622 -1.8532 -0.3274
    7MOL0     H  938   6.851   0.806   4.218  0.9192 -2.3602 -0.0264
    7MOL0     H  939   6.763   0.772   4.415  0.1144  1.1143  0.9768
    7MOL0     H  940   6.893   0.810   4.526  3.9325 -0.4022  0.2712
    7MOL0     H  941   7.039   0.644   4.453 -0.6854  0.4832  3.7331
    7MOL0     H  942   6.929   0.607   4.316  0.2490  2.4835 -0.3259
    7MOL0     H  943   6.726   0.462   4.671 -1.6133 -2.0493 -3.4119
    7MOL0     H  944   7.147   0.991   4.414 -2.2728  0.5027 -0.4927
    7MOL0     H  945   7.327   1.110   4.512 -0.0813 -3.0966 -1.7450
    8MOL0     O  946   3.473   0.432  10.365 -0.2939 -0.4146  0.3246
    8MOL0     C  947   3.480   0.543  10.410 -0.6946  0.4671  0.2971
    8MOL0     O  948   3.378   0.617  10.443 -0.4577 -0.1040  0.2661
    8MOL0     C  949   3.251   0.571  10.407  0.4729 -0.1760 -0.3943
    8MOL0     C  950   3.195   0.459  10.461  0.5451 -0.5845  1.1457
    8MOL0     C  951   3.070   0.418  10.430 -0.3236  0.1029 -0.4699
    8MOL0     C  952   2.988   0.487  10.338 -0.5288 -0.6787  0.3046
    8MOL0     O  953   2.862   0.432  10.312 -0.3143  0.1068 -0.0990
    8MOL0     C  954   2.786   0.486  10.195  0.1292  0.3015 -0.9506
    8MOL0     C  955   2.676   0.373  10.161  0.4384  0.2070 -0.2464
    8MOL0     C  956   2.549   0.441  10.120  0.1767  0.5348  0.3198
    8MOL0     C  957   2.486   0.500  10.238  0.3947 -0.4438 -0.9992
    8MOL0     C  958   2.333   0.538  10.219 -1.1978  0.0803  0.7637
    8MOL0     C  959   2.236   0.429  10.267 -0.0831 -0.0069 -0.0024
    8MOL0     C  960   2.093   0.436  10.221  0.5618 -0.0787  0.8465
    8MOL0     C  961   2.047   0.581  10.190 -0.0291  0.6513 -0.2799
    8MOL0     N  962   1.902   0.576  10.154 -0.6693 -0.2786  0.1603
    8MOL0     C  963   1.840   0.475  10.078  0.2064  0.4568  0.3364
    8MOL0     C  964   1.709   0.503  10.084  0.1418  0.3579  0.4345
    8MOL0     C  965   1.623   0.409  10.012  1.2928  0.4343  1.4344
    8MOL0     C  966   1.463   0.417  10.029 -1.0064  0.5377 -0.2547
    8MOL0     C  967   1.381   0.306   9.964  0.5681  0.9105 -0.6625
    8MOL0     C  968   1.409   0.294   9.810  0.0845  0.3505 -0.3856
    8MOL0     O  969   1.370   0.422   9.742 -0.1129 -0.2034  0.4585
    8MOL0     C  970   1.237   0.451   9.748  0.8048  0.5897 -0.4279
    8MOL0     C  971   1.203   0.589   9.764  0.0498  0.0790 -0.6544
    8MOL0     C  972   1.064   0.620   9.787  0.0625 -0.1976  0.0085
    8MOL0     C  973   1.029   0.761   9.831  0.7978 -0.4176  0.3682
    8MOL0     C  974   0.962   0.527   9.783  0.0923 -0.6279 -0.7708
    8MOL0     C  975   0.818   0.564   9.759  0.0297  0.4356  0.3478
    8MOL0     O  976   0.726   0.477   9.800 -0.2491  0.9020  0.0388
    8MOL0     C  977   0.589   0.513   9.784  0.2216  0.1925  0.7748
    8MOL0     C  978   0.544   0.641   9.807 -0.2489 -0.4711 -0.5968
    8MOL0     C  979   0.409   0.669   9.783  0.4840 -0.3832  0.3857
    8MOL0     C  980   0.314   0.567   9.759 -0.8824 -0.4963  0.6568
    8MOL0     O  981   0.186   0.599   9.748 -0.3971  0.3031  0.1636
    8MOL0     C  982   0.137   0.570   9.621  1.0126 -0.7075  0.7772
    8MOL0     C  983  -0.010   0.532   9.636 -0.3628  0.2189 -0.5423
    8MOL0     C  984  -0.098   0.652   9.635  0.2822 -0.0366 -0.4431
    8MOL0     C  985  -0.238   0.601   9.596 -0.9543 -0.8446 -0.0948
    8MOL0     C  986  -0.334   0.719   9.559  0.5164 -1.0574 -1.1819
    8MOL0     C  987  -0.474   0.669   9.514 -0.3009  0.4511 -0.1691
    8MOL0     C  988  -0.548   0.768   9.430 -0.0513 -0.2167  0.1086
    8MOL0     C  989  -0.686   0.708   9.409  0.5953  1.3335 -0.5249
    8MOL0    Cl  990  -0.771   0.689   9.568 -0.1697 -0.1026  0.3819
    8MOL0     C  991   0.357   0.438   9.742 -0.3462  0.4199  0.4150
    8MOL0     C  992   0.495   0.406   9.746  0.5570  0.1323 -0.4639
    8MOL0     O  993   0.798   0.647   9.670  0.4429 -0.2070  0.4075
    8MOL0     C  994   1.000   0.397   9.763 -0.3360 -0.1273 -0.6051
    8MOL0     C  995   1.133   0.366   9.750  0.3796 -0.5961  0.3528
    8MOL0     N  996   1.693   0.621  10.153 -0.2189  0.7293 -0.0917
    8MOL0     N  997   1.808   0.676  10.188 -0.2824  0.2140  0.0980
    8MOL0     C  998   3.050   0.604  10.274  0.7650  0.2031 -0.6762
    8MOL0     C  999   3.177   0.642  10.316 -0.2229  0.1925  0.3892
    8MOL0     C 1000   3.618   0.589  10.437 -0.6220  0.3705 -0.8773
    8MOL0     C 1001   3.633   0.726  10.462 -0.3593 -0.1731 -0.2589
    8MOL0     C 1002   3.757   0.788  10.485 -0.4921 -0.3967  0.4362
    8MOL0     C 1003   3.873   0.695  10.487  0.3223 -1.4886 -0.5094
    8MOL0     O 1004   3.999   0.750  10.516  0.1471  0.1904 -0.8222
    8MOL0     C 1005   4.024   0.872  10.584  0.0086  0.0889 -0.2821
    8MOL0     C 1006   4.180   0.913  10.577 -0.1946 -0.1416  0.2775
    8MOL0     C 1007   4.207   1.037  10.505  0.0845 -0.0476 -0.2480
    8MOL0     C 1008   4.349   1.047  10.461 -0.4139  0.7000  0.1641
    8MOL0     C 1009   4.388   1.172  10.401  0.0053 -0.4812  0.1446
    8MOL0     C 1010   4.428   1.269  10.329  0.3289 -0.9580 -0.4305
    8MOL0     C 1011   3.854   0.560  10.467  0.3513  0.0166  1.5529
    8MOL0     C 1012   3.733   0.504  10.430 -0.5602 -0.5496 -0.5819
    8MOL0     H 1013   3.260   0.399  10.524 -0.0940 -1.8708  0.6270
    8MOL0     H 1014   3.019   0.337  10.482 -0.4904  0.6323  0.1999
    8MOL0     H 1015   2.746   0.586  10.215 -0.9453 -0.2791 -0.1522
    8MOL0     H 1016   2.858   0.507  10.115 -0.6304 -0.1541 -1.7682
    8MOL0     H 1017   2.705   0.305  10.080  2.5025  0.7204  0.0069
    8MOL0     H 1018   2.660   0.318  10.254  0.4703  0.3641 -0.1476
    8MOL0     H 1019   2.563   0.513  10.040 -3.7662  2.2459  0.9576
    8MOL0     H 1020   2.480   0.368  10.077 -0.0220  1.5553 -1.1615
    8MOL0     H 1021   2.497   0.428  10.321  4.3514 -1.6241 -2.3363
    8MOL0     H 1022   2.531   0.596  10.265  0.3546 -0.5150 -0.6700
    8MOL0     H 1023   2.312   0.634  10.266  1.0435  1.6900 -1.2282
    8MOL0     H 1024   2.324   0.548  10.110  0.3751 -2.7303  0.2588
    8MOL0     H 1025   2.272   0.327  10.250 -0.7997 -0.7351  2.3711
    8MOL0     H 1026   2.233   0.433  10.377  0.1352  3.0477 -0.0181
    8MOL0     H 1027   2.090   0.374  10.132  0.3990  0.7740  0.2436
    8MOL0     H 1028   2.025   0.384  10.290  0.0291 -0.1516  0.2778
    8MOL0     H 1029   2.105   0.609  10.102  2.6166  1.1212  1.4779
    8MOL0     H 1030   2.072   0.650  10.271 -0.1956 -1.7774  1.9830
    8MOL0     H 1031   1.876   0.386  10.029 -2.1756 -1.3125  1.5380
    8MOL0     H 1032   1.647   0.426   9.906  0.4668 -0.0983  1.1509
    8MOL0     H 1033   1.652   0.308  10.042  3.1658 -0.1835 -1.9014
    8MOL0     H 1034   1.422   0.511   9.991 -1.4079  0.9926  1.2259
    8MOL0     H 1035   1.442   0.418  10.136  0.3874 -2.0182  0.1249
    8MOL0     H 1036   1.274   0.323   9.975  0.2178 -0.6746 -1.3533
    8MOL0     H 1037   1.407   0.220  10.026 -1.1307  1.3020  0.6784
    8MOL0     H 1038   1.346   0.209   9.782 -0.5421  0.5148  0.4669
    8MOL0     H 1039   1.516   0.280   9.792 -0.1668 -3.8429  0.4183
    8MOL0     H 1040   1.276   0.669   9.765 -1.1941  1.2419 -0.0533
    8MOL0     H 1041   0.989   0.757   9.933  0.6718 -3.0720  0.2780
    8MOL0     H 1042   1.112   0.831   9.819 -0.7249  1.6434  1.3835
    8MOL0     H 1043   0.947   0.799   9.770 -1.2398  0.3111  3.3253
    8MOL0     H 1044   0.610   0.716   9.848 -1.6253  1.2628 -1.4539
    8MOL0     H 1045   0.373   0.764   9.820  1.7440  1.1146 -1.9602
    8MOL0     H 1046   0.150   0.650   9.547 -0.4582 -0.1956  1.0354
    8MOL0     H 1047   0.184   0.481   9.576  0.9135 -0.2391 -0.2900
    8MOL0     H 1048  -0.032   0.474   9.545  2.0061  0.7983 -1.5660
    8MOL0     H 1049  -0.022   0.459   9.716  1.0031  1.5861  0.9709
    8MOL0     H 1050  -0.083   0.730   9.560 -0.6376  1.1109  0.5151
    8MOL0     H 1051  -0.099   0.697   9.735 -1.9812 -0.7601 -0.0890
    8MOL0     H 1052  -0.244   0.526   9.517 -1.4761 -0.4388 -0.4402
    8MOL0     H 1053  -0.277   0.544   9.681  1.5204 -3.5287 -0.5983
    8MOL0     H 1054  -0.292   0.774   9.475  0.0328 -0.0245 -0.7568
    8MOL0     H 1055  -0.359   0.782   9.645 -1.6956  0.4400 -2.8338
    8MOL0     H 1056  -0.452   0.580   9.454  1.2381  0.7284 -0.0762
    8MOL0     H 1057  -0.525   0.639   9.606 -1.7702  3.0724 -0.0346
    8MOL0     H 1058  -0.512   0.791   9.329 -1.5072  0.2023 -0.3464
    8MOL0     H 1059  -0.565   0.865   9.479 -0.4958 -0.3451  0.2122
    8MOL0     H 1060  -0.682   0.611   9.358 -1.8296 -0.2781  2.0512
    8MOL0     H 1061  -0.746   0.779   9.352  0.5131  2.0988  0.4840
    8MOL0     H 1062   0.281   0.360   9.739  0.6557 -0.6078  0.9413
    8MOL0     H 1063   0.532   0.306   9.726  0.8227  0.5189 -2.0305
    8MOL0     H 1064   0.929   0.316   9.753  0.5093 -1.0631  0.5998
    8MOL0     H 1065   1.140   0.258   9.738 -1.7927 -0.9893  2.0261
    8MOL0     H 1066   2.999   0.668  10.202 -0.4400  1.6167  1.3346
    8MOL0     H 1067   3.212   0.738  10.279 -0.2985 -0.2149 -0.7846
    8MOL0     H 1068   3.554   0.799  10.453 -0.0669 -0.0462 -2.0881
    8MOL0     H 1069   3.772   0.893  10.506  0.9817 -0.2881 -0.9602
    8MOL0     H 1070   3.969   0.956  10.541 -2.9868 -0.1505  2.6481
    8MOL0     H 1071   4.004   0.861  10.692 -1.1986  1.3060 -0.3504
    8MOL0     H 1072   4.248   0.837  10.538  1.6788  0.6259  1.9000
    8MOL0     H 1073   4.204   0.923  10.683 -1.2642 -1.3804  0.6617
    8MOL0     H 1074   4.189   1.127  10.564  0.9124  0.9806 -1.5089
    8MOL0     H 1075   4.141   1.028  10.418 -1.0489 -0.9290  0.6618
    8MOL0     H 1076   4.374   0.973  10.385 -1.9350  2.2244 -1.9216
    8MOL0     H 1077   4.415   1.030  10.548  0.0055  2.9304  0.3633
    8MOL0     H 1078   4.471   1.346  10.268  3.9458 -0.2001  2.6770
    8MOL0     H 1079   3.943   0.499  10.466  1.1224  1.0777  2.4914
    8MOL0     H 1080   3.722   0.403  10.393 -0.1883 -0.4039 -1.1117
    9MOL0     O 1081   9.965   5.381   5.887 -0.4185 -0.5637 -0.1933
    9MOL0     C 1082  10.029   5.488   5.870 -0.0756 -0.6408 -0.0731
    9MOL0     O 1083   9.986   5.594   5.791 -0.0274  0.1343 -0.0987
    9MOL0     C 1084   9.908   5.564   5.682 -0.5038  0.8243 -0.6753
    9MOL0     C 1085   9.935   5.466   5.596  0.5922  0.4215  0.0981
    9MOL0     C 1086   9.836   5.444   5.498  0.6825 -0.7263 -0.3859
    9MOL0     C 1087   9.714   5.503   5.494  0.6523  0.7256  0.2081
    9MOL0     O 1088   9.618   5.484   5.396 -0.8054  0.6652 -0.3857
    9MOL0     C 1089   9.608   5.357   5.333 -0.5949 -0.2012 -0.3195
    9MOL0     C 1090   9.473   5.346   5.257  0.0392 -0.3799  0.1401
    9MOL0     C 1091   9.420   5.202   5.245 -0.3122 -0.1066  0.7437
    9MOL0     C 1092   9.305   5.185   5.139 -0.5440 -0.1727 -0.6416
    9MOL0     C 1093   9.170   5.234   5.184 -0.3297 -0.2790  0.2545
    9MOL0     C 1094   9.078   5.220   5.071 -0.5441 -0.6435 -0.3849
    9MOL0     C 1095   8.936   5.220   5.130 -1.2713  0.1600 -0.2886
    9MOL0     C 1096   8.828   5.221   5.014 -0.1887 -0.6370  0.0038
    9MOL0     N 1097   8.689   5.259   5.060 -0.1324 -0.1546 -0.3955
    9MOL0     C 1098   8.575   5.183   5.063 -0.5985  0.2904  0.4055
    9MOL0     C 1099   8.478   5.265   5.108 -0.9681 -0.3419 -0.0675
    9MOL0     C 1100   8.338   5.232   5.146  0.5296 -0.5154  0.4972
    9MOL0     C 1101   8.250   5.241   5.013 -0.4746  0.6338 -0.8340
    9MOL0     C 1102   8.094   5.225   5.020 -0.6604 -0.2907  0.0675
    9MOL0     C 1103   8.013   5.269   4.889 -0.3432 -0.3710 -0.6266
    9MOL0     O 1104   7.875   5.222   4.895 -0.5205 -0.4670 -0.5826
    9MOL0     C 1105   7.786   5.310   4.845 -0.5780 -0.2247 -0.4970
    9MOL0     C 1106   7.662   5.313   4.908  0.6168  0.5426  0.3138
    9MOL0     C 1107   7.555   5.390   4.855 -0.6983 -0.1077  1.1972
    9MOL0     C 1108   7.424   5.391   4.928 -0.2574 -0.2532  1.2013
    9MOL0     C 1109   7.567   5.441   4.725  0.1875 -0.3974  0.5130
    9MOL0     C 1110   7.453   5.505   4.643 -0.1917  0.3461 -0.3861
    9MOL0     O 1111   7.434   5.446   4.518 -0.0075  0.3129 -0.2031
    9MOL0     C 1112   7.308   5.449   4.458 -0.0046 -0.5333  1.2476
    9MOL0     C 1113   7.277   5.571   4.388  0.5087  0.1432 -1.1822
    9MOL0     C 1114   7.155   5.573   4.319 -0.3635 -0.4838 -0.1026
    9MOL0     C 1115   7.062   5.472   4.343  0.1490  0.0381  0.6205
    9MOL0     O 1116   6.942   5.483   4.278 -0.4114  0.1250  0.8824
    9MOL0     C 1117   6.874   5.593   4.319 -0.1407 -0.3121 -0.3982
    9MOL0     C 1118   6.776   5.566   4.432 -0.1570 -0.6419  0.2657
    9MOL0     C 1119   6.679   5.685   4.453 -0.3567  0.4797  0.7821
    9MOL0     C 1120   6.666   5.696   4.610  0.5552  0.4407  0.3304
    9MOL0     C 1121   6.576   5.804   4.653 -0.6216 -1.3548 -0.6909
    9MOL0     C 1122   6.600   5.865   4.790 -0.6609  0.3590  0.2283
    9MOL0     C 1123   6.489   5.963   4.816  0.4683 -0.0056  0.1723
    9MOL0     C 1124   6.515   6.009   4.953 -0.2733 -0.9007 -1.0905
    9MOL0    Cl 1125   6.414   6.134   5.013  0.2840 -0.1688 -0.3855
    9MOL0     C 1126   7.082   5.369   4.433 -0.2679  0.0096 -0.3840
    9MOL0     C 1127   7.212   5.350   4.478  0.0552 -0.0133 -0.1467
    9MOL0     O 1128   7.386   5.594   4.693 -0.0077 -0.0887 -0.2814
    9MOL0     C 1129   7.694   5.437   4.659  0.5372  0.2446  0.0629
    9MOL0     C 1130   7.802   5.372   4.722  0.2283  0.0781  0.3713
    9MOL0     N 1131   8.525   5.398   5.118 -0.1652  0.5625  0.0734
    9MOL0     N 1132   8.650   5.390   5.086  0.4215  0.6833  0.1504
    9MOL0     C 1133   9.686   5.594   5.591  0.0127  0.9262  0.0641
    9MOL0     C 1134   9.779   5.627   5.682 -0.0227 -0.6332  0.4527
    9MOL0     C 1135  10.164   5.514   5.943  1.1145  1.7093  0.7778
    9MOL0     C 1136  10.232   5.635   5.929 -0.2916  0.3774 -0.3585
    9MOL0     C 1137  10.361   5.656   5.978 -0.2180 -0.6825  0.0223
    9MOL0     C 1138  10.415   5.558   6.061  0.3587  0.2587  0.1265
    9MOL0     O 1139  10.534   5.584   6.112 -0.2014  0.5127  0.1354
    9MOL0     C 1140  10.572   5.501   6.224  0.2726 -0.4782  1.0745
    9MOL0     C 1141  10.690   5.564   6.298  0.7600 -0.0783 -0.7540
    9MOL0     C 1142  10.802   5.604   6.201  0.1147 -1.1676 -0.2636
    9MOL0     C 1143  10.934   5.644   6.264  0.6426 -0.8578 -1.4670
    9MOL0     C 1144  11.034   5.642   6.162  0.1596 -0.4256 -0.2783
    9MOL0     C 1145  11.116   5.624   6.074 -0.1696  0.4209  0.7290
    9MOL0     C 1146  10.344   5.427   6.072 -0.9283 -0.8618  0.3684
    9MOL0     C 1147  10.226   5.405   6.003  0.2742  0.9265  0.2166
    9MOL0     H 1148  10.023   5.403   5.594  2.6913  3.2035  0.0185
    9MOL0     H 1149   9.872   5.385   5.415  3.5318 -0.0628  0.2929
    9MOL0     H 1150   9.696   5.333   5.272  0.4954  1.4426  0.5169
    9MOL0     H 1151   9.595   5.278   5.408 -3.3019 -1.9483 -2.4328
    9MOL0     H 1152   9.391   5.397   5.307  0.2745  0.4056 -0.2575
    9MOL0     H 1153   9.477   5.397   5.160 -2.5717 -0.6925 -0.2056
    9MOL0     H 1154   9.500   5.133   5.218  1.2726  1.9039 -0.0007
    9MOL0     H 1155   9.380   5.179   5.344 -2.1110 -2.3840 -0.4296
    9MOL0     H 1156   9.338   5.238   5.049  2.1826 -1.7782 -0.6809
    9MOL0     H 1157   9.301   5.078   5.115  1.2340 -0.8448  1.7344
    9MOL0     H 1158   9.146   5.175   5.273  3.0595 -0.8423  0.9302
    9MOL0     H 1159   9.184   5.338   5.216 -3.3680  0.3117 -0.0808
    9MOL0     H 1160   9.086   5.308   5.007 -0.0601  0.9841  1.7834
    9MOL0     H 1161   9.097   5.129   5.013  0.8605  0.0745 -1.1197
    9MOL0     H 1162   8.910   5.139   5.199  0.1003 -0.0714 -0.0115
    9MOL0     H 1163   8.934   5.317   5.182 -2.2219 -0.8239  1.6438
    9MOL0     H 1164   8.835   5.122   4.969  1.7970  0.3830 -2.1675
    9MOL0     H 1165   8.844   5.292   4.932 -0.7175 -1.3592 -0.7463
    9MOL0     H 1166   8.572   5.078   5.038 -2.9165  0.2525  0.6685
    9MOL0     H 1167   8.337   5.130   5.186 -1.0973 -0.6012  0.2873
    9MOL0     H 1168   8.297   5.298   5.224  2.5815 -0.7769  1.8973
    9MOL0     H 1169   8.288   5.160   4.951  0.4212 -0.5043  1.0982
    9MOL0     H 1170   8.277   5.335   4.963  2.4061 -0.1313 -0.8828
    9MOL0     H 1171   8.076   5.284   5.111 -1.7486 -0.0249 -0.3070
    9MOL0     H 1172   8.074   5.118   5.026 -1.8780 -0.0661  0.1063
    9MOL0     H 1173   8.060   5.232   4.798  1.7647  1.8359 -0.5453
    9MOL0     H 1174   8.013   5.378   4.880 -1.0773 -0.3437 -0.3505
    9MOL0     H 1175   7.641   5.269   5.005  0.4164  0.6034  0.2986
    9MOL0     H 1176   7.441   5.373   5.034 -1.6524 -2.7124  1.0904
    9MOL0     H 1177   7.372   5.487   4.924  2.4951  1.3466  1.2212
    9MOL0     H 1178   7.354   5.313   4.896  0.5110  0.0723 -1.5477
    9MOL0     H 1179   7.349   5.652   4.386 -0.0383  0.6364 -1.0517
    9MOL0     H 1180   7.133   5.655   4.251  2.0415  3.8321  3.7375
    9MOL0     H 1181   6.935   5.680   4.344  0.9944 -1.3556  0.6078
    9MOL0     H 1182   6.807   5.615   4.236 -1.6471  2.1335  1.3225
    9MOL0     H 1183   6.716   5.475   4.428  0.4028 -1.0912  1.4744
    9MOL0     H 1184   6.835   5.556   4.524 -1.4708  1.1111  1.3596
    9MOL0     H 1185   6.583   5.666   4.403  0.9901 -1.9386 -1.0859
    9MOL0     H 1186   6.720   5.783   4.427  0.1706  0.2920  0.9112
    9MOL0     H 1187   6.635   5.602   4.658  1.7869  0.8165  1.9564
    9MOL0     H 1188   6.767   5.708   4.650  0.2206 -0.5141  1.5089
    9MOL0     H 1189   6.471   5.775   4.642 -0.5822 -2.9302  2.1717
    9MOL0     H 1190   6.590   5.889   4.586  1.0265  0.0467  1.2961
    9MOL0     H 1191   6.605   5.779   4.857  0.8638  1.1246  1.1525
    9MOL0     H 1192   6.692   5.924   4.786 -0.4538  0.0410 -3.3695
    9MOL0     H 1193   6.398   5.904   4.814 -0.0596  0.8044 -0.2804
    9MOL0     H 1194   6.477   6.047   4.747 -2.6102  0.3120  0.9612
    9MOL0     H 1195   6.611   6.062   4.952 -0.6573 -0.1257  0.2824
    9MOL0     H 1196   6.503   5.926   5.022 -3.2402 -0.1260 -0.5422
    9MOL0     H 1197   7.004   5.297   4.454 -1.8598  1.7381 -0.0840
    9MOL0     H 1198   7.239   5.262   4.536 -0.6156  0.3319  0.7081
    9MOL0     H 1199   7.697   5.486   4.562 -0.2594  2.0305  0.8786
    9MOL0     H 1200   7.900   5.375   4.677  0.2989  1.9019  0.5700
    9MOL0     H 1201   9.588   5.635   5.609  0.0132  0.2638  1.8127
    9MOL0     H 1202   9.745   5.711   5.741 -3.2407 -1.0644 -0.6064
    9MOL0     H 1203  10.184   5.713   5.871  0.5687  0.8964 -0.3964
    9MOL0     H 1204  10.401   5.755   5.957 -3.6022  0.6274 -0.9013
    9MOL0     H 1205  10.498   5.475   6.300  0.6025  0.0690  1.5846
    9MOL0     H 1206  10.597   5.404   6.180  0.9346  0.4026 -0.5794
    9MOL0     H 1207  10.729   5.499   6.377  0.3798  0.3244 -0.2270
    9MOL0     H 1208  10.658   5.657   6.346  3.4638  1.2432 -1.3192
    9MOL0     H 1209  10.772   5.693   6.145  3.2772  0.7212  0.8134
    9MOL0     H 1210  10.816   5.520   6.131 -0.4345 -1.0214 -0.5566
    9MOL0     H 1211  10.973   5.579   6.343  1.1806  1.4997  0.3035
    9MOL0     H 1212  10.929   5.736   6.323  2.3242 -1.3588 -0.4578
    9MOL0     H 1213  11.180   5.607   5.990 -0.7683  0.7642  0.1947
    9MOL0     H 1214  10.386   5.346   6.130 -0.9741 -1.3303 -0.2573
    9MOL0     H 1215  10.175   5.310   5.992 -1.5578  1.8429  0.4380
   10MOL0     O 1216   9.516  10.036   1.279 -0.3657 -0.4093  0.3934
   10MOL0     C 1217   9.538  10.077   1.159 -0.6087  0.2418 -0.1658
   10MOL0     O 1218   9.446  10.119   1.071 -0.6429  0.3078 -0.1722
   10MOL0     C 1219   9.313  10.104   1.094  0.1225 -0.1937 -0.0678
   10MOL0     C 1220   9.245   9.987   1.052  0.3482 -0.4632 -0.9401
   10MOL0     C 1221   9.105   9.959   1.083 -0.3653  0.2228 -0.6305
   10MOL0     C 1222   9.024  10.055   1.140  0.8142  0.0308  0.6509
   10MOL0     O 1223   8.889  10.039   1.162  1.0053  0.1517 -0.4138
   10MOL0     C 1224   8.800  10.154   1.182  0.1309  0.4295  0.4191
   10MOL0     C 1225   8.665  10.112   1.138  0.4421 -0.1879 -0.6358
   10MOL0     C 1226   8.660  10.101   0.986  0.4785  0.0508  1.3622
   10MOL0     C 1227   8.514  10.139   0.932 -0.0923 -0.0350  0.4802
   10MOL0     C 1228   8.395  10.091   1.018  0.0426  0.8367 -0.1886
   10MOL0     C 1229   8.274  10.087   0.945  0.1877 -0.1663 -0.1707
   10MOL0     C 1230   8.168  10.031   1.034  0.4533  0.2052  0.6370
   10MOL0     C 1231   8.049   9.969   0.964 -0.0982  0.5156 -0.2535
   10MOL0     N 1232   7.971  10.051   0.878  0.3216  0.0237  0.1298
   10MOL0     C 1233   7.940  10.031   0.740 -0.3372 -0.4819 -0.0613
   10MOL0     C 1234   7.880  10.145   0.705  0.1301 -0.4349  0.2371
   10MOL0     C 1235   7.833  10.183   0.569 -0.0999  1.1386 -0.8237
   10MOL0     C 1236   7.697  10.110   0.526 -0.6820 -1.3647 -1.0335
   10MOL0     C 1237   7.568  10.145   0.609  1.1765 -0.5646  0.0660
   10MOL0     C 1238   7.492  10.271   0.580  0.0003 -0.2626 -0.6990
   10MOL0     O 1239   7.395  10.246   0.478  0.5950 -0.6293 -0.2984
   10MOL0     C 1240   7.267  10.296   0.490  0.5821  0.1735  0.7033
   10MOL0     C 1241   7.162  10.208   0.458  0.0233 -0.4807 -0.5303
   10MOL0     C 1242   7.031  10.238   0.482 -0.1842  0.8414  0.0670
   10MOL0     C 1243   6.924  10.142   0.425 -0.3676  0.4588 -0.4794
   10MOL0     C 1244   6.994  10.356   0.543 -0.0768  0.0932  0.3878
   10MOL0     C 1245   6.858  10.391   0.588 -0.2669  0.7022 -0.7223
   10MOL0     O 1246   6.792  10.483   0.525  0.7320  0.2837  0.2414
   10MOL0     C 1247   6.656  10.483   0.531  0.6492  0.6887  0.2040
   10MOL0     C 1248   6.580  10.435   0.427  0.2028 -0.7641 -0.4854
   10MOL0     C 1249   6.439  10.425   0.437 -0.9358  0.2129  0.6126
   10MOL0     C 1250   6.372  10.473   0.547  0.1616 -0.8673  0.3118
   10MOL0     O 1251   6.237  10.456   0.549  0.5113  1.0841 -0.2132
   10MOL0     C 1252   6.153  10.547   0.618 -0.5520  0.1389  0.5504
   10MOL0     C 1253   6.017  10.510   0.576  0.2384  0.2556 -0.3355
   10MOL0     C 1254   5.935  10.639   0.587 -1.1182  0.1566 -0.0936
   10MOL0     C 1255   5.797  10.626   0.523 -0.0426 -0.1250 -0.2128
   10MOL0     C 1256   5.786  10.676   0.380  0.8484  0.5453 -0.0951
   10MOL0     C 1257   5.643  10.632   0.329 -0.8282  0.3728 -0.1487
   10MOL0     C 1258   5.641  10.665   0.176  0.6415 -0.0875  0.2068
   10MOL0     C 1259   5.500  10.663   0.107 -0.3976  0.1041  0.5962
   10MOL0    Cl 1260   5.489  10.630  -0.062 -0.1852 -0.3588  0.3147
   10MOL0     C 1261   6.448  10.522   0.651  0.8520 -0.5923  0.3187
   10MOL0     C 1262   6.586  10.541   0.643  0.7114 -0.1311 -0.6921
   10MOL0     O 1263   6.807  10.318   0.672  0.0901 -0.2014 -0.1671
   10MOL0     C 1264   7.093  10.449   0.577 -0.6210  0.1643 -0.0480
   10MOL0     C 1265   7.232  10.417   0.551 -0.2853 -0.6212 -0.8012
   10MOL0     N 1266   7.866  10.224   0.816 -0.2990  0.0792  0.1019
   10MOL0     N 1267   7.910  10.164   0.906  0.1185 -0.6011 -0.1253
   10MOL0     C 1268   9.097  10.166   1.189  0.1020  0.0217  0.2042
   10MOL0     C 1269   9.237  10.196   1.160  0.5332  0.9585 -0.0418
   10MOL0     C 1270   9.674  10.093   1.111 -0.0750  0.2451 -0.3842
   10MOL0     C 1271   9.781  10.062   1.199  0.2253  0.1594  0.9568
   10MOL0     C 1272   9.915  10.066   1.161 -0.5778  0.0469  0.8370
   10MOL0     C 1273   9.942  10.107   1.033  0.2424 -0.5053 -0.0833
   10MOL0     O 1274  10.081  10.122   1.017  0.3484 -0.1525  0.3399
   10MOL0     C 1275  10.131  10.160   0.891  0.1759  0.0719 -0.8895
   10MOL0     C 1276  10.283  10.153   0.896 -0.9072 -0.0761  0.2807
   10MOL0     C 1277  10.359  10.234   1.003  0.0482  0.4813 -0.9738
   10MOL0     C 1278  10.325  10.390   1.002  0.1868 -0.5610 -0.2429
   10MOL0     C 1279  10.383  10.451   0.886  0.6169 -0.6537  0.7652
   10MOL0     C 1280  10.423  10.525   0.794  0.3350 -0.5283 -0.4931
   10MOL0     C 1281   9.843  10.141   0.941  0.2294 -0.1142  1.0667
   10MOL0     C 1282   9.703  10.139   0.986 -0.0457  0.1493  0.1885
   10MOL0     H 1283   9.308   9.916   1.000 -0.7944 -1.2558 -1.2886
   10MOL0     H 1284   9.063   9.867   1.043  0.6706 -0.0093 -1.2001
   10MOL0     H 1285   8.782  10.182   1.286 -1.8837 -0.3456  0.3078
   10MOL0     H 1286   8.831  10.248   1.135 -1.6579  1.1685  0.6535
   10MOL0     H 1287   8.646  10.012   1.178  0.3746 -0.3990 -1.1774
   10MOL0     H 1288   8.600  10.187   1.183  1.6017  0.9245 -0.7459
   10MOL0     H 1289   8.719  10.174   0.931  0.2346 -0.3014  0.6159
   10MOL0     H 1290   8.678  10.000   0.947 -2.8531  0.6096 -2.3303
   10MOL0     H 1291   8.511  10.249   0.933  1.2584  0.0756 -1.4939
   10MOL0     H 1292   8.513  10.105   0.828 -0.6046  1.8400 -0.1632
   10MOL0     H 1293   8.421   9.993   1.058 -0.9616  0.6514  0.0311
   10MOL0     H 1294   8.380  10.167   1.095 -2.9650  0.3538 -0.1766
   10MOL0     H 1295   8.251  10.190   0.914  2.5751 -0.1950 -2.3749
   10MOL0     H 1296   8.277  10.034   0.850  0.7360  3.6498 -2.5185
   10MOL0     H 1297   8.208   9.943   1.086 -1.0690 -0.3219  0.9708
   10MOL0     H 1298   8.143  10.104   1.111  1.2606  0.9129  0.2438
   10MOL0     H 1299   7.994   9.917   1.044  0.9613 -0.4790 -0.1545
   10MOL0     H 1300   8.092   9.895   0.895  1.1729  0.0689  0.9751
   10MOL0     H 1301   7.969   9.952   0.671 -0.1353 -1.9285  1.6180
   10MOL0     H 1302   7.816  10.290   0.561 -0.6626  0.9625 -2.1955
   10MOL0     H 1303   7.917  10.152   0.506 -1.1089  0.1208 -1.7124
   10MOL0     H 1304   7.721  10.007   0.553  2.4366 -0.1372  1.4486
   10MOL0     H 1305   7.693  10.132   0.419 -0.1081  0.9034 -0.6455
   10MOL0     H 1306   7.594  10.155   0.715 -1.1738  0.8563  0.5806
   10MOL0     H 1307   7.501  10.059   0.599 -1.8921  1.4985  1.4043
   10MOL0     H 1308   7.558  10.358   0.569 -0.6207  0.6437  2.1034
   10MOL0     H 1309   7.437  10.286   0.673  0.4703  4.0561 -0.9108
   10MOL0     H 1310   7.181  10.108   0.418 -2.0214 -0.9171 -0.4949
   10MOL0     H 1311   6.898  10.166   0.322  0.7399  1.7485 -0.4960
   10MOL0     H 1312   6.968  10.042   0.430  1.1311  1.0447 -1.2698
   10MOL0     H 1313   6.839  10.159   0.492  1.2713  3.3482  1.0479
   10MOL0     H 1314   6.637  10.407   0.339  1.6563  0.3696  0.0522
   10MOL0     H 1315   6.383  10.367   0.364  2.5161 -0.3611 -1.8155
   10MOL0     H 1316   6.162  10.524   0.724  0.9028  0.3799  0.5066
   10MOL0     H 1317   6.193  10.648   0.611  0.6772 -0.4205 -1.8671
   10MOL0     H 1318   6.014  10.482   0.470  1.5948 -0.8316 -0.1176
   10MOL0     H 1319   5.981  10.423   0.632 -2.3182  1.2069 -0.3285
   10MOL0     H 1320   5.978  10.719   0.526 -2.7483 -2.0273 -4.5202
   10MOL0     H 1321   5.922  10.672   0.691  2.7814  0.8503  0.3491
   10MOL0     H 1322   5.755  10.525   0.531 -3.0915  1.1496  1.9121
   10MOL0     H 1323   5.726  10.673   0.592  1.1559 -1.3435  1.9392
   10MOL0     H 1324   5.859  10.630   0.314 -0.7817 -0.3290 -1.3607
   10MOL0     H 1325   5.787  10.785   0.385  0.1002  0.5390  0.3899
   10MOL0     H 1326   5.627  10.524   0.338  1.9297  0.0515  4.8196
   10MOL0     H 1327   5.563  10.691   0.375  1.8843  2.3650  2.3863
   10MOL0     H 1328   5.704  10.591   0.126 -0.7967 -1.0774 -0.2100
   10MOL0     H 1329   5.679  10.766   0.159 -0.8850  0.4985  0.1061
   10MOL0     H 1330   5.449  10.756   0.135 -0.2279 -0.0383  1.3858
   10MOL0     H 1331   5.436  10.585   0.150 -0.3258  0.5871  1.5931
   10MOL0     H 1332   6.392  10.559   0.736  0.3803  2.5659 -1.2122
   10MOL0     H 1333   6.659  10.571   0.718  0.3843 -2.4595  0.6390
   10MOL0     H 1334   7.065  10.547   0.615 -0.1441 -0.1304  1.1012
   10MOL0     H 1335   7.305  10.496   0.568 -1.6658  0.8332 -1.3307
   10MOL0     H 1336   9.059  10.238   1.261  4.0873  0.8572  1.7558
   10MOL0     H 1337   9.286  10.285   1.199 -1.3774  2.1302 -0.1866
   10MOL0     H 1338   9.778  10.034   1.304 -0.8890 -0.6793  0.7258
   10MOL0     H 1339   9.995  10.037   1.229 -0.1319  2.6778  1.5586
   10MOL0     H 1340  10.086  10.090   0.819 -1.6479  0.9362 -0.6489
   10MOL0     H 1341  10.109  10.264   0.865 -1.9696  0.1879  1.0788
   10MOL0     H 1342  10.319  10.183   0.798 -1.8291 -2.8606 -1.0144
   10MOL0     H 1343  10.313  10.048   0.903  1.1016  0.0600 -3.5217
   10MOL0     H 1344  10.466  10.212   0.993 -0.1813 -1.2851  0.1648
   10MOL0     H 1345  10.331  10.213   1.107  3.1707  2.1072  0.3632
   10MOL0     H 1346  10.363  10.438   1.093  2.2785  0.1253 -1.4243
   10MOL0     H 1347  10.217  10.404   1.011 -0.0674 -2.7193  0.6797
   10MOL0     H 1348  10.460  10.585   0.713  2.9940  0.7881  1.5111
   10MOL0     H 1349   9.871  10.162   0.839  3.8479 -1.6867  1.5716
   10MOL0     H 1350   9.625  10.169   0.916  0.1365  4.3868  1.5512
   11MOL0     O 1351  10.750   3.643   1.772 -0.3298  0.8230 -1.2575
   11MOL0     C 1352  10.758   3.566   1.677 -0.0945 -0.3980 -0.0916
   11MOL0     O 1353  10.651   3.516   1.607  0.1822  0.8389  0.6673
   11MOL0     C 1354  10.526   3.556   1.646  0.0164  0.1206 -0.1252
   11MOL0     C 1355  10.476   3.679   1.612 -0.2004 -0.8259  0.5210
   11MOL0     C 1356  10.362   3.731   1.662 -0.4557 -0.8147  0.2255
   11MOL0     C 1357  10.283   3.651   1.747 -0.2583 -0.5780 -0.3303
   11MOL0     O 1358  10.170   3.707   1.788  0.4181 -0.0269 -0.3070
   11MOL0     C 1359  10.054   3.624   1.771  0.1549  0.1725 -0.7862
   11MOL0     C 1360   9.984   3.604   1.908 -0.9065  0.2337  0.0024
   11MOL0     C 1361   9.931   3.739   1.971 -0.0205 -0.7849 -0.2261
   11MOL0     C 1362   9.841   3.714   2.096  0.2834 -0.2361  0.2769
   11MOL0     C 1363   9.915   3.693   2.225 -0.8207 -0.3678 -1.0095
   11MOL0     C 1364   9.840   3.729   2.363  0.5144 -0.0089  0.5810
   11MOL0     C 1365   9.702   3.660   2.378  0.4087  0.5921 -0.3600
   11MOL0     C 1366   9.724   3.528   2.450  0.9334 -0.1187 -0.0468
   11MOL0     N 1367   9.588   3.482   2.482  0.6416  0.0845  0.1173
   11MOL0     C 1368   9.459   3.535   2.460  0.7746  0.9260 -0.1319
   11MOL0     C 1369   9.369   3.454   2.531  0.1084 -1.0889  0.6267
   11MOL0     C 1370   9.221   3.483   2.535 -0.0341  0.1852  0.0089
   11MOL0     C 1371   9.168   3.614   2.471 -0.8275  0.2552  0.7284
   11MOL0     C 1372   9.025   3.620   2.519 -0.3154  0.2131  0.2845
   11MOL0     C 1373   8.952   3.752   2.479 -0.4389 -0.1304  0.3401
   11MOL0     O 1374   8.818   3.744   2.510  0.4569  0.6677  0.3836
   11MOL0     C 1375   8.738   3.853   2.508  0.2878  0.3620 -1.2350
   11MOL0     C 1376   8.747   3.965   2.418 -0.0583 -0.3419  0.0351
   11MOL0     C 1377   8.656   4.072   2.424  0.0114 -0.2700  0.1756
   11MOL0     C 1378   8.668   4.186   2.320 -0.8563  0.5129  0.1169
   11MOL0     C 1379   8.560   4.077   2.530  0.2400  0.5264  0.0893
   11MOL0     C 1380   8.463   4.188   2.557 -0.4991  0.2593  0.7881
   11MOL0     O 1381   8.402   4.179   2.673  0.1149  0.1669 -0.1353
   11MOL0     C 1382   8.269   4.217   2.695 -0.2693  0.9654  1.2490
   11MOL0     C 1383   8.174   4.235   2.593 -0.6763 -0.0270 -0.2092
   11MOL0     C 1384   8.039   4.256   2.637 -0.5583 -0.1518 -0.0748
   11MOL0     C 1385   8.016   4.291   2.763 -0.7063  0.5549  0.3222
   11MOL0     O 1386   7.879   4.305   2.796 -0.3464  0.3520 -0.6136
   11MOL0     C 1387   7.836   4.392   2.905  0.3968  0.0240  0.7443
   11MOL0     C 1388   7.695   4.434   2.870  1.2694 -0.0983  0.2956
   11MOL0     C 1389   7.699   4.559   2.779  1.0210  0.2135  0.3851
   11MOL0     C 1390   7.774   4.552   2.644 -0.0196 -0.2736  0.7434
   11MOL0     C 1391   7.779   4.673   2.553 -0.6439 -1.0168  0.2862
   11MOL0     C 1392   7.789   4.815   2.602 -0.3148 -0.0981 -0.5437
   11MOL0     C 1393   7.911   4.865   2.693 -0.0960 -0.1261  0.1120
   11MOL0     C 1394   7.926   5.020   2.694 -0.3201 -0.0264  0.1837
   11MOL0    Cl 1395   7.952   5.104   2.544 -0.1215 -0.3557  0.1625
   11MOL0     C 1396   8.117   4.290   2.855  0.9040 -0.3082 -0.0672
   11MOL0     C 1397   8.244   4.245   2.826  0.1954  0.2985 -0.8695
   11MOL0     O 1398   8.442   4.275   2.473 -0.2068  0.0332 -0.2012
   11MOL0     C 1399   8.553   3.961   2.608 -1.0443  0.1714 -0.9724
   11MOL0     C 1400   8.633   3.851   2.598 -0.0899 -0.2451  0.2355
   11MOL0     N 1401   9.447   3.363   2.607 -0.1259 -0.3326 -0.2816
   11MOL0     N 1402   9.569   3.373   2.568 -0.2483 -0.1501 -0.3151
   11MOL0     C 1403  10.328   3.520   1.784  0.1083  0.1632 -0.1333
   11MOL0     C 1404  10.444   3.476   1.734 -0.3020 -0.5359  0.0297
   11MOL0     C 1405  10.892   3.523   1.642 -0.1971  0.0641 -0.6767
   11MOL0     C 1406  10.929   3.454   1.526 -0.1500 -0.8511 -0.0665
   11MOL0     C 1407  11.054   3.409   1.499 -0.3858  0.3308 -0.3193
   11MOL0     C 1408  11.153   3.432   1.592 -0.2694  0.2705  0.1362
   11MOL0     O 1409  11.274   3.371   1.560 -0.6087 -0.4802  1.1932
   11MOL0     C 1410  11.382   3.393   1.649  0.5961  0.3224 -0.3540
   11MOL0     C 1411  11.513   3.333   1.616 -0.0738  1.0801 -1.0231
   11MOL0     C 1412  11.569   3.383   1.483  0.6563 -0.4962 -1.7974
   11MOL0     C 1413  11.713   3.330   1.469 -0.1211 -0.0915 -0.0435
   11MOL0     C 1414  11.741   3.272   1.340  0.5958  0.5174 -0.0530
   11MOL0     C 1415  11.758   3.215   1.238  0.6433 -0.3815 -0.3767
   11MOL0     C 1416  11.129   3.514   1.698 -0.3478 -0.1699 -0.0787
   11MOL0     C 1417  11.005   3.553   1.732  0.8082  0.3132  0.5837
   11MOL0     H 1418  10.525   3.747   1.543 -1.1833  0.8002  1.3739
   11MOL0     H 1419  10.339   3.836   1.647 -1.0500 -1.0366 -0.4491
   11MOL0     H 1420   9.994   3.684   1.702  1.6017 -0.0236 -2.2635
   11MOL0     H 1421  10.078   3.529   1.722  0.7260 -0.3711  0.5008
   11MOL0     H 1422   9.902   3.535   1.886 -0.4193 -0.5048  0.4518
   11MOL0     H 1423  10.060   3.565   1.978  0.5326  2.3861 -0.2703
   11MOL0     H 1424  10.005   3.813   2.004 -3.0481  2.3006  0.3134
   11MOL0     H 1425   9.859   3.784   1.902 -0.0688  1.0341  0.9314
   11MOL0     H 1426   9.775   3.799   2.112  0.6654  0.1675 -0.2482
   11MOL0     H 1427   9.784   3.625   2.067  1.8986 -0.0877 -4.2462
   11MOL0     H 1428   9.931   3.585   2.231 -1.9698 -0.6016 -1.7820
   11MOL0     H 1429  10.009   3.748   2.216 -0.8199 -0.1966 -0.0803
   11MOL0     H 1430   9.900   3.711   2.452 -1.1366 -0.0611  1.7399
   11MOL0     H 1431   9.820   3.836   2.355  1.0642  0.2893  2.6972
   11MOL0     H 1432   9.646   3.727   2.445 -0.9333 -1.9980  1.2964
   11MOL0     H 1433   9.646   3.647   2.285 -0.9621 -1.8110  0.7044
   11MOL0     H 1434   9.778   3.544   2.543  0.4513  3.6975 -0.2674
   11MOL0     H 1435   9.767   3.455   2.381 -1.2953 -2.1093  0.5524
   11MOL0     H 1436   9.433   3.622   2.399 -0.5126 -1.9015 -3.9948
   11MOL0     H 1437   9.165   3.403   2.484 -1.0426  1.9563 -1.7820
   11MOL0     H 1438   9.192   3.483   2.641  2.6824  0.0268  0.8209
   11MOL0     H 1439   9.175   3.621   2.362 -3.8688  0.0509  0.4177
   11MOL0     H 1440   9.220   3.702   2.511 -1.4249  1.2436 -0.5937
   11MOL0     H 1441   9.018   3.599   2.626 -0.9188  0.0240  0.2095
   11MOL0     H 1442   8.972   3.546   2.458 -1.4141  2.1416 -1.2085
   11MOL0     H 1443   8.950   3.777   2.372  1.7018 -0.7026  0.1134
   11MOL0     H 1444   9.001   3.838   2.526  2.6576 -0.4887 -1.9078
   11MOL0     H 1445   8.823   3.952   2.342  0.6330 -0.0987  0.6753
   11MOL0     H 1446   8.671   4.279   2.378  2.0268 -1.0516  2.7308
   11MOL0     H 1447   8.768   4.172   2.279 -0.9349  2.1159 -0.7318
   11MOL0     H 1448   8.593   4.183   2.240 -0.6736  1.3718 -0.1096
   11MOL0     H 1449   8.199   4.218   2.489  1.1912 -1.1319  0.3569
   11MOL0     H 1450   7.954   4.241   2.571  0.7286 -0.7948 -1.6680
   11MOL0     H 1451   7.838   4.331   2.996  1.3234 -4.3212 -1.8988
   11MOL0     H 1452   7.899   4.481   2.902 -1.1586  1.3532 -5.2428
   11MOL0     H 1453   7.645   4.345   2.832  0.8009 -1.0709  2.9782
   11MOL0     H 1454   7.636   4.464   2.957  1.1505  0.5402 -0.0025
   11MOL0     H 1455   7.740   4.640   2.839  1.0803  2.9843 -3.0385
   11MOL0     H 1456   7.595   4.592   2.770  1.3127  1.3884  1.1195
   11MOL0     H 1457   7.874   4.524   2.677  0.0281 -1.9604 -0.6699
   11MOL0     H 1458   7.734   4.467   2.588 -1.4254  0.4774  0.5626
   11MOL0     H 1459   7.699   4.672   2.478 -0.0142  0.6554 -0.4649
   11MOL0     H 1460   7.876   4.668   2.502 -0.8424  2.6949 -0.7653
   11MOL0     H 1461   7.802   4.879   2.515 -1.7818  2.5055  1.0200
   11MOL0     H 1462   7.698   4.848   2.654 -0.2380 -2.2212  1.0556
   11MOL0     H 1463   8.003   4.819   2.654 -0.6645 -0.6847 -0.6081
   11MOL0     H 1464   7.903   4.826   2.795  2.9306 -1.6184 -0.1140
   11MOL0     H 1465   8.017   5.032   2.755 -1.2136 -2.6241  2.1764
   11MOL0     H 1466   7.839   5.050   2.753 -0.3116  0.9219 -0.2724
   11MOL0     H 1467   8.107   4.322   2.958  0.1823  0.3333 -0.3293
   11MOL0     H 1468   8.315   4.241   2.908 -1.6222  1.0240  0.8403
   11MOL0     H 1469   8.477   3.954   2.686  0.1075  0.7199  0.2327
   11MOL0     H 1470   8.621   3.759   2.654  1.7301 -1.1929 -0.8040
   11MOL0     H 1471  10.274   3.456   1.852 -2.3769 -0.4821 -2.5332
   11MOL0     H 1472  10.475   3.378   1.766  2.8391  0.5127  0.5512
   11MOL0     H 1473  10.856   3.421   1.452 -1.0922  0.5413  0.1966
   11MOL0     H 1474  11.084   3.346   1.416  0.2934 -0.0996  0.2366
   11MOL0     H 1475  11.399   3.501   1.661  1.9740  0.2321 -1.3167
   11MOL0     H 1476  11.356   3.345   1.744  0.1682  0.2693 -0.4934
   11MOL0     H 1477  11.504   3.224   1.611  1.6370  0.8698  0.0008
   11MOL0     H 1478  11.573   3.351   1.705 -0.9179 -0.4557 -0.0943
   11MOL0     H 1479  11.563   3.492   1.475 -0.9917 -0.0584  2.5913
   11MOL0     H 1480  11.507   3.335   1.406  0.0379 -1.5777 -0.6597
   11MOL0     H 1481  11.741   3.258   1.547 -0.7165 -2.3513 -1.8265
   11MOL0     H 1482  11.774   3.421   1.470 -0.9202  0.4581  0.3818
   11MOL0     H 1483  11.770   3.169   1.142  0.9312  1.4880 -1.2839
   11MOL0     H 1484  11.205   3.558   1.761 -1.8176 -2.0134  3.2782
   11MOL0     H 1485  10.994   3.613   1.822 -2.4998 -2.4235  2.2365
   12MOL0     O 1486   1.973  10.023   9.610 -0.2223 -0.4268 -0.1929
   12MOL0     C 1487   1.948   9.904   9.619 -0.2872 -0.7960 -1.2168
   12MOL0     O 1488   2.043   9.807   9.630 -0.5484 -0.1034  0.0521
   12MOL0     C 1489   2.182   9.831   9.639 -0.7431  0.4590  0.2591
   12MOL0     C 1490   2.251   9.957   9.644  0.6020  0.9660  0.0707
   12MOL0     C 1491   2.388   9.950   9.651  0.1842  0.1530  0.3429
   12MOL0     C 1492   2.463   9.829   9.648 -0.3906 -0.1967 -0.0121
   12MOL0     O 1493   2.601   9.843   9.668 -0.2212  0.7013 -0.2658
   12MOL0     C 1494   2.693   9.747   9.603 -0.4768  0.4171  0.4862
   12MOL0     C 1495   2.826   9.744   9.666  0.2872  0.4532 -0.5335
   12MOL0     C 1496   2.875   9.884   9.689 -0.0104 -0.2116  0.1322
   12MOL0     C 1497   3.006   9.861   9.762  0.8424 -0.2041 -0.3918
   12MOL0     C 1498   3.064   9.972   9.849  0.2599  0.1795 -0.0463
   12MOL0     C 1499   3.064  10.102   9.773  0.7255 -0.3521 -0.1654
   12MOL0     C 1500   3.069  10.215   9.878 -0.0489 -1.1895 -0.4902
   12MOL0     C 1501   3.067  10.358   9.819 -0.0439  0.4564 -0.3784
   12MOL0     N 1502   2.937  10.422   9.830  1.3568  0.6021 -1.1276
   12MOL0     C 1503   2.836  10.411   9.746  0.6074 -0.3539  0.4616
   12MOL0     C 1504   2.733  10.477   9.801  0.2898 -0.8767 -0.2986
   12MOL0     C 1505   2.604  10.510   9.736 -0.5163  0.3992  0.3287
   12MOL0     C 1506   2.495  10.426   9.815 -0.5304 -0.2034 -0.4869
   12MOL0     C 1507   2.360  10.439   9.736 -0.4944  0.1187 -0.2855
   12MOL0     C 1508   2.277  10.568   9.745 -0.0934  0.4561 -0.5009
   12MOL0     O 1509   2.188  10.578   9.860  0.8973 -0.3631  0.4574
   12MOL0     C 1510   2.059  10.532   9.856  0.0374  0.3186  0.1356
   12MOL0     C 1511   1.994  10.534   9.975 -0.9080 -0.0226 -0.0952
   12MOL0     C 1512   1.869  10.479   9.999 -0.2158 -0.3305 -0.3283
   12MOL0     C 1513   1.818  10.491  10.136 -0.5216  0.2862  0.4023
   12MOL0     C 1514   1.796  10.426   9.890 -0.1280  1.0186 -0.5053
   12MOL0     C 1515   1.663  10.363   9.896  0.2935  0.7349 -0.0507
   12MOL0     O 1516   1.639  10.274   9.795  0.8299  0.3890 -0.4207
   12MOL0     C 1517   1.511  10.221   9.763  0.6412 -0.8807  0.1515
   12MOL0     C 1518   1.463  10.122   9.850 -0.1423 -0.5777 -0.5866
   12MOL0     C 1519   1.339  10.060   9.836  0.0175 -0.3280 -0.8303
   12MOL0     C 1520   1.252  10.110   9.742  0.5008  0.1748 -0.2417
   12MOL0     O 1521   1.121  10.061   9.717 -0.4078  0.6954 -0.3696
   12MOL0     C 1522   1.060   9.964   9.803 -0.0515 -0.0864 -0.7580
   12MOL0     C 1523   0.939   9.896   9.733  0.2560 -0.1060 -0.1690
   12MOL0     C 1524   0.976   9.838   9.599 -0.9718 -0.4451 -0.7046
   12MOL0     C 1525   0.869   9.753   9.548  0.2873  0.0076  1.4330
   12MOL0     C 1526   0.896   9.705   9.400  0.6323  0.2320  0.7906
   12MOL0     C 1527   0.818   9.580   9.346  0.6376 -0.3916 -0.4553
   12MOL0     C 1528   0.875   9.456   9.409  0.4379  0.5891  0.0152
   12MOL0     C 1529   0.858   9.329   9.318 -0.4213 -1.1391 -0.3724
   12MOL0    Cl 1530   0.912   9.188   9.410  0.0871  0.2655 -0.2374
   12MOL0     C 1531   1.307  10.201   9.650  0.0461  0.5132  1.1902
   12MOL0     C 1532   1.441  10.253   9.654 -0.4846 -0.0350  1.0253
   12MOL0     O 1533   1.577  10.393   9.981 -0.6626  0.5433 -0.9308
   12MOL0     C 1534   1.865  10.422   9.768  0.0138  0.2951  0.4452
   12MOL0     C 1535   1.992  10.475   9.750  0.0372 -0.0768 -0.3740
   12MOL0     N 1536   2.781  10.526   9.924  0.8087 -0.3924  0.2375
   12MOL0     N 1537   2.898  10.481   9.949 -0.1698 -0.5809 -0.2296
   12MOL0     C 1538   2.395   9.704   9.632 -0.2908  0.4700 -0.0664
   12MOL0     C 1539   2.253   9.713   9.632 -0.1908 -0.3131  0.1355
   12MOL0     C 1540   1.800   9.869   9.641 -0.3384  0.2899 -0.0593
   12MOL0     C 1541   1.694   9.951   9.619  0.0430  0.9126  0.6815
   12MOL0     C 1542   1.567   9.897   9.617 -0.4907  0.0003  0.0635
   12MOL0     C 1543   1.538   9.765   9.648  0.5446 -0.8001 -0.0292
   12MOL0     O 1544   1.403   9.727   9.641 -0.5899  0.4362  0.1862
   12MOL0     C 1545   1.363   9.583   9.656 -0.4394 -0.3286  0.6633
   12MOL0     C 1546   1.357   9.543   9.801  0.4341  0.1688 -0.4706
   12MOL0     C 1547   1.246   9.605   9.875  0.5047 -0.0768 -0.9938
   12MOL0     C 1548   1.135   9.499   9.897 -0.6767  0.0763  1.0533
   12MOL0     C 1549   1.096   9.433   9.776  0.0982 -0.7065 -0.0290
   12MOL0     C 1550   1.076   9.373   9.671 -0.5275 -0.2260  0.1046
   12MOL0     C 1551   1.644   9.684   9.688  0.9614  0.6038  0.1295
   12MOL0     C 1552   1.774   9.737   9.679 -0.3501  0.4130  0.4203
   12MOL0     H 1553   2.198  10.051   9.646  0.2121  0.7874 -1.0784
   12MOL0     H 1554   2.440  10.042   9.676 -0.1921 -0.4346  3.6381
   12MOL0     H 1555   2.651   9.646   9.606 -0.3401  0.2768 -1.2174
   12MOL0     H 1556   2.702   9.768   9.496 -0.2136  1.4315  0.7014
   12MOL0     H 1557   2.812   9.691   9.761 -1.6271 -1.8474 -1.9708
   12MOL0     H 1558   2.895   9.687   9.604  2.4734  0.9483  1.3105
   12MOL0     H 1559   2.864   9.951   9.603 -1.8476 -1.5137 -0.7036
   12MOL0     H 1560   2.816   9.926   9.772 -2.2969 -0.2069 -1.3983
   12MOL0     H 1561   2.998   9.777   9.832 -0.3296  0.0991 -0.1367
   12MOL0     H 1562   3.077   9.836   9.683 -0.0964 -0.9930 -1.0043
   12MOL0     H 1563   3.002   9.979   9.939 -2.4006 -0.6840 -1.7057
   12MOL0     H 1564   3.166   9.950   9.882  1.6670  1.7906 -2.9194
   12MOL0     H 1565   3.153  10.107   9.711  0.2053  0.8673 -0.8592
   12MOL0     H 1566   2.975  10.120   9.712  1.0252 -0.9290 -0.7809
   12MOL0     H 1567   2.984  10.211   9.946  0.0606  1.3159 -0.1118
   12MOL0     H 1568   3.155  10.207   9.945 -1.0513 -1.1960  0.8243
   12MOL0     H 1569   3.094  10.365   9.713  0.0615  1.5839 -0.2950
   12MOL0     H 1570   3.137  10.417   9.879 -0.2326 -0.1136  0.4221
   12MOL0     H 1571   2.840  10.360   9.650 -0.2364 -3.4887  1.9482
   12MOL0     H 1572   2.574  10.615   9.725 -1.8376  0.1384  1.1340
   12MOL0     H 1573   2.610  10.471   9.634  0.2081 -0.4436  0.6838
   12MOL0     H 1574   2.480  10.460   9.918  0.6050  2.5823 -1.1360
   12MOL0     H 1575   2.524  10.321   9.818 -0.0492 -0.0515  0.5769
   12MOL0     H 1576   2.291  10.368   9.784 -3.1572  3.3451  1.0314
   12MOL0     H 1577   2.383  10.423   9.631  0.4698 -2.3981  0.2352
   12MOL0     H 1578   2.230  10.580   9.647 -1.2052 -1.4420 -0.2424
   12MOL0     H 1579   2.354  10.644   9.759 -0.0876  0.0428  2.1394
   12MOL0     H 1580   2.049  10.572  10.061 -1.3028  0.2550  0.0380
   12MOL0     H 1581   1.712  10.519  10.138 -0.0761  2.1330  2.4135
   12MOL0     H 1582   1.829  10.400  10.195  0.5148  0.0970 -0.0629
   12MOL0     H 1583   1.875  10.569  10.188 -0.3223  0.0351  0.5584
   12MOL0     H 1584   1.540  10.077   9.913  1.3249  0.8356 -1.3063
   12MOL0     H 1585   1.309   9.984   9.907  1.5160 -0.4288 -0.2589
   12MOL0     H 1586   1.127   9.880   9.824 -1.7017 -1.3358 -0.3005
   12MOL0     H 1587   1.027   9.995   9.902 -0.4673  2.5117 -1.6361
   12MOL0     H 1588   0.913   9.817   9.804 -1.2905  0.6534  0.1563
   12MOL0     H 1589   0.856   9.967   9.736  0.7913  0.5359 -0.1819
   12MOL0     H 1590   1.069   9.781   9.610 -0.0466  1.1659  0.2810
   12MOL0     H 1591   1.005   9.916   9.529  2.9924 -2.7932 -2.0058
   12MOL0     H 1592   0.859   9.661   9.605  0.7003 -0.9103  0.0741
   12MOL0     H 1593   0.779   9.814   9.543  1.0853  1.1240 -1.4613
   12MOL0     H 1594   1.002   9.681   9.391  0.6122  0.4087  0.0614
   12MOL0     H 1595   0.872   9.790   9.336 -1.1539 -0.3603  0.6135
   12MOL0     H 1596   0.710   9.575   9.361  0.7665  0.7530  1.0816
   12MOL0     H 1597   0.839   9.577   9.238  1.9691 -3.1593 -0.1949
   12MOL0     H 1598   0.814   9.443   9.499 -0.2469 -1.0987 -0.6481
   12MOL0     H 1599   0.984   9.469   9.418  0.4663 -0.1762  0.9621
   12MOL0     H 1600   0.908   9.336   9.221  1.6731 -2.5707  0.5268
   12MOL0     H 1601   0.753   9.316   9.290 -1.1744  0.9823  1.1730
   12MOL0     H 1602   1.247  10.224   9.562  2.8817 -1.4841 -1.4815
   12MOL0     H 1603   1.480  10.326   9.583 -1.5989 -0.3925  0.0168
   12MOL0     H 1604   1.812  10.396   9.677 -1.2413  2.7600  0.3669
   12MOL0     H 1605   2.040  10.484   9.653 -1.7989  2.9021 -1.1599
   12MOL0     H 1606   2.446   9.610   9.617  2.2517  1.8905 -0.9424
   12MOL0     H 1607   2.204   9.618   9.615 -0.1242 -0.6200  1.5695
   12MOL0     H 1608   1.701  10.058   9.603 -0.1445  0.7174 -0.8360
   12MOL0     H 1609   1.486   9.969   9.605 -0.6124 -0.0841  0.3576
   12MOL0     H 1610   1.267   9.581   9.604 -0.2109  1.6705  0.0658
   12MOL0     H 1611   1.438   9.516   9.614 -0.1905  0.5973 -0.4084
   12MOL0     H 1612   1.448   9.567   9.855 -1.1019 -0.1148  2.4428
   12MOL0     H 1613   1.346   9.434   9.799  0.8390  0.0873  1.0000
   12MOL0     H 1614   1.202   9.682   9.811 -0.3450  1.6612  1.5194
   12MOL0     H 1615   1.282   9.648   9.969  0.0101 -1.4839 -0.1359
   12MOL0     H 1616   1.045   9.536   9.947 -1.4156 -0.1133 -0.1011
   12MOL0     H 1617   1.168   9.426   9.971  1.1523  1.6854  1.9034
   12MOL0     H 1618   1.055   9.322   9.580  1.5673 -4.2413  1.6405
   12MOL0     H 1619   1.642   9.583   9.729 -0.4265  1.4199  2.2075
   12MOL0     H 1620   1.855   9.667   9.695  0.2760  1.1665  0.5622
   13MOL0     O 1621  10.655   5.333   4.865  0.1820  0.3434 -0.6510
   13MOL0     C 1622  10.630   5.226   4.808 -0.0135  0.0558 -0.6383
   13MOL0     O 1623  10.529   5.195   4.728  0.2274 -0.3321 -0.2976
   13MOL0     C 1624  10.450   5.301   4.682  0.1974  0.3566 -0.3932
   13MOL0     C 1625  10.510   5.421   4.637 -0.1397  0.0895 -0.3457
   13MOL0     C 1626  10.430   5.521   4.578  0.1199 -0.3576 -0.5034
   13MOL0     C 1627  10.294   5.504   4.561 -0.3416 -0.6701  0.3052
   13MOL0     O 1628  10.231   5.608   4.497 -0.3766  0.3341 -0.0265
   13MOL0     C 1629  10.104   5.655   4.548 -0.0026 -0.1807 -0.2815
   13MOL0     C 1630  10.040   5.788   4.475 -0.3148 -0.8007  0.0554
   13MOL0     C 1631  10.007   5.748   4.329  0.4228 -0.2349  0.0398
   13MOL0     C 1632   9.904   5.627   4.304 -0.2087 -0.4753 -0.5071
   13MOL0     C 1633   9.896   5.605   4.161  0.2693  0.6944 -0.5396
   13MOL0     C 1634   9.752   5.568   4.105 -0.3455 -0.4243 -0.5263
   13MOL0     C 1635   9.746   5.535   3.953 -0.3242  0.3177 -0.0229
   13MOL0     C 1636   9.604   5.485   3.927  0.6732  0.0413 -0.0211
   13MOL0     N 1637   9.586   5.396   3.810 -0.0200 -0.9657 -0.7404
   13MOL0     C 1638   9.569   5.446   3.681  0.5709 -1.0801 -0.2824
   13MOL0     C 1639   9.501   5.347   3.619 -0.0669  0.7968  0.0405
   13MOL0     C 1640   9.461   5.331   3.477 -0.2116  0.4266 -0.4820
   13MOL0     C 1641   9.317   5.361   3.448 -0.2209 -0.5423 -0.0358
   13MOL0     C 1642   9.292   5.380   3.299  0.4086 -0.5410 -0.0906
   13MOL0     C 1643   9.162   5.440   3.254 -0.4593 -0.5343 -0.0073
   13MOL0     O 1644   9.151   5.576   3.306 -0.4923 -0.6631 -0.8896
   13MOL0     C 1645   9.029   5.626   3.298  0.1361  0.5363 -0.3104
   13MOL0     C 1646   8.991   5.690   3.177  0.2463  0.3107 -0.0328
   13MOL0     C 1647   8.858   5.740   3.171 -0.2214 -0.2273 -1.1271
   13MOL0     C 1648   8.819   5.787   3.040  0.0121 -0.5435  0.3299
   13MOL0     C 1649   8.772   5.725   3.285  0.5086 -0.8230  0.3761
   13MOL0     C 1650   8.631   5.768   3.292  0.0827  0.5396  0.2896
   13MOL0     O 1651   8.543   5.698   3.368 -0.2067  1.5641  0.2486
   13MOL0     C 1652   8.408   5.699   3.329 -0.1346 -0.1446 -0.9496
   13MOL0     C 1653   8.368   5.624   3.229  0.2182  0.6258  1.0519
   13MOL0     C 1654   8.237   5.627   3.184  1.4280 -0.4898 -0.4604
   13MOL0     C 1655   8.138   5.704   3.256 -1.1131  0.0892  0.1444
   13MOL0     O 1656   8.008   5.704   3.214 -0.3000 -0.3770 -0.0976
   13MOL0     C 1657   7.904   5.768   3.286 -0.4514 -0.8925 -0.9444
   13MOL0     C 1658   7.766   5.748   3.222  0.6910  0.0178 -0.2407
   13MOL0     C 1659   7.657   5.840   3.290  0.5834 -0.0754  0.3745
   13MOL0     C 1660   7.530   5.758   3.323  0.0449 -0.1296 -0.5158
   13MOL0     C 1661   7.428   5.840   3.404 -0.1977  0.8489  0.7992
   13MOL0     C 1662   7.310   5.749   3.452 -0.3488  0.6788  0.1793
   13MOL0     C 1663   7.252   5.664   3.330  0.0096 -0.9575  0.1049
   13MOL0     C 1664   7.115   5.608   3.367 -0.3456 -0.7739 -0.2128
   13MOL0    Cl 1665   6.984   5.697   3.280 -0.1963 -0.1785 -0.6762
   13MOL0     C 1666   8.190   5.782   3.364  0.6983 -0.0049  0.0707
   13MOL0     C 1667   8.324   5.774   3.402 -0.5926  0.1172  0.4412
   13MOL0     O 1668   8.597   5.857   3.220 -0.3628  0.2690  0.2286
   13MOL0     C 1669   8.811   5.656   3.394  0.2282  0.3004 -0.9069
   13MOL0     C 1670   8.935   5.602   3.401 -0.1320 -0.1116 -0.7806
   13MOL0     N 1671   9.481   5.245   3.712 -0.0944  0.2341  0.5660
   13MOL0     N 1672   9.533   5.277   3.828  1.0165 -0.9525 -0.3412
   13MOL0     C 1673  10.233   5.380   4.597 -0.4224 -0.0258 -0.6719
   13MOL0     C 1674  10.316   5.277   4.657 -0.1173 -0.4855 -0.5771
   13MOL0     C 1675  10.716   5.110   4.832 -0.4366  0.6404 -0.4467
   13MOL0     C 1676  10.646   4.985   4.859 -0.7004 -0.1324 -0.0286
   13MOL0     C 1677  10.720   4.869   4.901  0.2645 -0.3905  0.4442
   13MOL0     C 1678  10.854   4.884   4.925 -0.1940 -0.1550  0.4745
   13MOL0     O 1679  10.930   4.784   4.974 -0.3768  0.4931 -0.0637
   13MOL0     C 1680  10.975   4.684   4.888  0.5805 -0.2287 -0.1090
   13MOL0     C 1681  11.116   4.720   4.834  0.7289  0.0733 -0.3142
   13MOL0     C 1682  11.186   4.596   4.776  0.1515  0.3290 -0.2291
   13MOL0     C 1683  11.331   4.613   4.731  0.0767 -1.0514 -0.2512
   13MOL0     C 1684  11.421   4.657   4.830  0.1687  0.3449  1.1739
   13MOL0     C 1685  11.475   4.697   4.930 -0.1636  0.4409 -0.1813
   13MOL0     C 1686  10.917   5.008   4.899  0.1255 -0.6041  1.1655
   13MOL0     C 1687  10.857   5.123   4.858  0.2282 -0.4599  1.9699
   13MOL0     H 1688  10.617   5.437   4.647  0.3544 -1.4213 -2.5229
   13MOL0     H 1689  10.471   5.611   4.533  2.2283 -2.1696 -2.4657
   13MOL0     H 1690  10.023   5.582   4.542  0.7323 -1.5165  3.5914
   13MOL0     H 1691  10.116   5.682   4.653 -1.2533 -0.2392 -0.1030
   13MOL0     H 1692   9.950   5.819   4.528  2.0798  1.3497  3.2838
   13MOL0     H 1693  10.114   5.869   4.480  0.4644 -1.3605 -1.6510
   13MOL0     H 1694   9.952   5.836   4.294 -1.9718 -2.6917 -3.0383
   13MOL0     H 1695  10.087   5.734   4.256 -0.6945  2.5334 -1.8664
   13MOL0     H 1696   9.931   5.532   4.350  3.2974  0.5343 -0.1983
   13MOL0     H 1697   9.804   5.646   4.345  0.4783 -0.7380  1.3678
   13MOL0     H 1698   9.921   5.692   4.099  0.3198  0.7912 -0.3828
   13MOL0     H 1699   9.970   5.527   4.142 -1.9325 -2.3179  2.1881
   13MOL0     H 1700   9.707   5.489   4.166  2.6640 -1.3333  0.6766
   13MOL0     H 1701   9.697   5.659   4.134 -1.0365 -1.8548  3.1292
   13MOL0     H 1702   9.778   5.618   3.891  0.9526  0.1121  0.3408
   13MOL0     H 1703   9.809   5.454   3.916 -1.3653 -0.5747  0.1099
   13MOL0     H 1704   9.541   5.575   3.921  0.4719  0.0523  1.6946
   13MOL0     H 1705   9.570   5.431   4.015  0.9350 -0.2497 -0.0971
   13MOL0     H 1706   9.623   5.533   3.645  1.7084 -1.3135  0.8057
   13MOL0     H 1707   9.525   5.398   3.419 -0.7571  0.2152 -1.3484
   13MOL0     H 1708   9.479   5.225   3.454 -1.2438  0.5971 -2.2727
   13MOL0     H 1709   9.286   5.450   3.502  0.0601 -1.5867  1.9708
   13MOL0     H 1710   9.256   5.284   3.495  0.4129 -0.6915  0.5716
   13MOL0     H 1711   9.304   5.277   3.262  2.4800 -0.1993 -0.4597
   13MOL0     H 1712   9.372   5.440   3.256 -0.7835  0.5307 -0.8976
   13MOL0     H 1713   9.072   5.385   3.283 -1.6230  0.3894 -1.7025
   13MOL0     H 1714   9.156   5.444   3.145 -1.8884  1.2942  0.0996
   13MOL0     H 1715   9.061   5.695   3.094  0.1071  2.1851 -0.0810
   13MOL0     H 1716   8.789   5.695   2.989 -0.1046 -0.8916  1.0223
   13MOL0     H 1717   8.745   5.867   3.049  1.2889  0.6063  1.0425
   13MOL0     H 1718   8.911   5.829   2.997 -0.2303 -1.0514 -0.7138
   13MOL0     H 1719   8.442   5.556   3.189 -0.7169 -1.3309  2.4594
   13MOL0     H 1720   8.190   5.571   3.103  1.3218 -0.7738 -0.2024
   13MOL0     H 1721   7.905   5.734   3.390 -1.3889  2.4509  0.2735
   13MOL0     H 1722   7.917   5.877   3.288  0.1511 -0.9535  1.3737
   13MOL0     H 1723   7.764   5.771   3.115 -1.5853 -0.1040 -0.2874
   13MOL0     H 1724   7.740   5.642   3.226  0.9747 -0.0297  0.3732
   13MOL0     H 1725   7.632   5.922   3.222  0.7473 -2.5445 -2.9005
   13MOL0     H 1726   7.696   5.869   3.388  0.2856 -1.7201  0.9992
   13MOL0     H 1727   7.483   5.718   3.233 -0.7916  0.7382 -0.4770
   13MOL0     H 1728   7.554   5.670   3.383 -1.7338 -1.3337 -1.4609
   13MOL0     H 1729   7.386   5.913   3.335 -0.7458  0.0960  0.3172
   13MOL0     H 1730   7.475   5.876   3.496 -1.2424  0.9230  1.3185
   13MOL0     H 1731   7.351   5.666   3.509  0.1598 -1.3081 -2.8147
   13MOL0     H 1732   7.239   5.807   3.512  1.3503  0.9617  2.0089
   13MOL0     H 1733   7.319   5.581   3.306 -0.7307 -0.9159 -2.3914
   13MOL0     H 1734   7.248   5.721   3.237  0.5806 -1.7723 -0.4305
   13MOL0     H 1735   7.092   5.616   3.474 -0.2618 -1.5211 -0.1357
   13MOL0     H 1736   7.112   5.503   3.338  3.7322 -0.7449 -1.4135
   13MOL0     H 1737   8.128   5.843   3.429  0.0420 -0.7122  0.1140
   13MOL0     H 1738   8.361   5.847   3.474  3.3346 -1.1476 -0.0224
   13MOL0     H 1739   8.746   5.626   3.476  1.4451  0.3984  0.1211
   13MOL0     H 1740   8.948   5.531   3.482 -2.4493 -1.6459 -1.6586
   13MOL0     H 1741  10.124   5.377   4.592 -0.5003  1.9822 -1.0370
   13MOL0     H 1742  10.273   5.182   4.685 -1.0171 -0.6323 -2.2846
   13MOL0     H 1743  10.540   4.982   4.839 -1.1154  0.3296  1.8637
   13MOL0     H 1744  10.671   4.773   4.910  1.0943 -0.7166  1.8715
   13MOL0     H 1745  10.971   4.587   4.938  1.1053 -1.5595 -2.4871
   13MOL0     H 1746  10.910   4.669   4.801  0.8925 -2.7188  0.0076
   13MOL0     H 1747  11.161   4.760   4.925  0.5577  1.8602 -0.9848
   13MOL0     H 1748  11.107   4.807   4.768 -0.2506  0.4226  0.2653
   13MOL0     H 1749  11.128   4.543   4.699 -0.8467  1.4116 -0.2470
   13MOL0     H 1750  11.201   4.535   4.865  2.3209  0.8038 -0.2186
   13MOL0     H 1751  11.353   4.688   4.654  0.6576 -0.3684  0.5680
   13MOL0     H 1752  11.366   4.514   4.702 -5.0009 -2.5197 -2.5471
   13MOL0     H 1753  11.524   4.740   5.015  2.8161 -0.0135 -1.5236
   13MOL0     H 1754  11.021   5.024   4.925  0.6509  0.9181 -1.5406
   13MOL0     H 1755  10.926   5.205   4.836 -1.2198 -0.1542 -2.3935
   14MOL0     O 1756   2.258   5.152   4.401 -0.3315  0.0936 -0.1483
   14MOL0     C 1757   2.326   5.245   4.435  0.3990 -0.4253 -0.1521
   14MOL0     O 1758   2.291   5.379   4.442  0.1632 -0.5955  0.2031
   14MOL0     C 1759   2.154   5.400   4.450 -0.8878 -0.1275 -0.3026
   14MOL0     C 1760   2.068   5.327   4.539 -0.9998  0.6172  0.3017
   14MOL0     C 1761   1.929   5.350   4.541  0.9550 -0.4045  0.3468
   14MOL0     C 1762   1.871   5.458   4.468  1.0119  0.4202  0.4522
   14MOL0     O 1763   1.736   5.475   4.457 -0.4579 -0.6815  0.0373
   14MOL0     C 1764   1.648   5.365   4.476  0.5610  0.2985  0.2771
   14MOL0     C 1765   1.509   5.410   4.422  0.6128 -0.5428  0.5781
   14MOL0     C 1766   1.413   5.290   4.394  0.1204  0.6233 -0.5218
   14MOL0     C 1767   1.271   5.301   4.346 -0.2696  0.3942 -0.3061
   14MOL0     C 1768   1.184   5.169   4.363 -0.0538  0.0604  0.3837
   14MOL0     C 1769   1.239   5.059   4.279 -0.3289 -0.9506  0.8694
   14MOL0     C 1770   1.171   4.925   4.271  0.9165 -0.6456  0.0169
   14MOL0     C 1771   1.054   4.900   4.359  0.2021  0.3674  0.1521
   14MOL0     N 1772   0.927   4.950   4.298  0.1329  0.9959 -0.2740
   14MOL0     C 1773   0.873   4.884   4.195  0.2708 -0.4597  0.1033
   14MOL0     C 1774   0.771   4.970   4.156  0.2256 -0.1835  0.2470
   14MOL0     C 1775   0.663   4.932   4.053  0.1130 -0.0390  0.0423
   14MOL0     C 1776   0.693   4.941   3.898 -0.0665 -0.1957 -0.4789
   14MOL0     C 1777   0.723   5.088   3.844  0.4295 -0.6015 -0.7093
   14MOL0     C 1778   0.855   5.141   3.895  0.3991 -0.5209  0.0038
   14MOL0     O 1779   0.962   5.046   3.886 -0.6272  0.5078 -0.5758
   14MOL0     C 1780   1.093   5.088   3.898  0.2429  0.7620 -0.8353
   14MOL0     C 1781   1.125   5.221   3.936 -0.3522  0.7317  0.0357
   14MOL0     C 1782   1.253   5.258   3.945 -0.1015  0.5696 -0.3019
   14MOL0     C 1783   1.280   5.399   3.986 -0.5398  0.5048 -0.4528
   14MOL0     C 1784   1.350   5.173   3.902 -0.0310 -0.1300  0.4981
   14MOL0     C 1785   1.490   5.209   3.918 -0.2678 -0.0938  0.7882
   14MOL0     O 1786   1.543   5.199   4.040 -0.6763  0.1710  0.1703
   14MOL0     C 1787   1.667   5.257   4.059 -0.1958  0.6716 -0.0714
   14MOL0     C 1788   1.770   5.165   4.099  0.6268 -0.0805 -0.2195
   14MOL0     C 1789   1.897   5.217   4.103 -0.5802  0.1335 -0.0006
   14MOL0     C 1790   1.934   5.346   4.065  0.2897  0.8733 -0.6102
   14MOL0     O 1791   2.063   5.371   4.067  0.1991  0.4241 -0.3113
   14MOL0     C 1792   2.114   5.476   3.981 -0.4151 -0.0481 -0.2523
   14MOL0     C 1793   2.087   5.441   3.833  0.1838  0.4974  0.3678
   14MOL0     C 1794   2.184   5.509   3.743 -0.0127 -0.2457 -0.3912
   14MOL0     C 1795   2.172   5.480   3.588  0.0598 -0.9238 -0.5320
   14MOL0     C 1796   2.309   5.481   3.520  0.5981  0.1197 -0.2350
   14MOL0     C 1797   2.374   5.622   3.521 -0.9879  0.0446 -0.4665
   14MOL0     C 1798   2.491   5.631   3.425  0.2927  0.0223  0.2796
   14MOL0     C 1799   2.554   5.777   3.411  0.1310  0.7261 -0.6018
   14MOL0    Cl 1800   2.683   5.781   3.279 -0.0875 -0.1219 -0.2503
   14MOL0     C 1801   1.833   5.438   4.040  0.7074 -0.3430 -0.7493
   14MOL0     C 1802   1.703   5.391   4.043  0.6296  0.5808 -0.2085
   14MOL0     O 1803   1.542   5.235   3.806 -0.6194  0.1881  0.2498
   14MOL0     C 1804   1.321   5.036   3.861 -0.2116 -0.3281  0.1017
   14MOL0     C 1805   1.188   4.995   3.867 -0.1797 -0.4099  0.2641
   14MOL0     N 1806   0.764   5.082   4.240  0.8165  0.2166 -0.9488
   14MOL0     N 1807   0.868   5.063   4.326  0.1581 -0.0335 -0.1371
   14MOL0     C 1808   1.956   5.530   4.382  0.0339  0.5294 -1.1643
   14MOL0     C 1809   2.099   5.511   4.383 -0.6338  0.1724 -0.3293
   14MOL0     C 1810   2.469   5.219   4.453  1.1729  0.0908  0.3727
   14MOL0     C 1811   2.530   5.103   4.408 -1.0150  1.4033  0.7053
   14MOL0     C 1812   2.668   5.083   4.425 -0.3081 -0.4346 -0.1104
   14MOL0     C 1813   2.750   5.187   4.478 -0.5023 -0.8332  0.4266
   14MOL0     O 1814   2.887   5.156   4.466  0.3486 -0.1260  0.1963
   14MOL0     C 1815   2.982   5.257   4.493 -0.3328  0.2162 -0.3544
   14MOL0     C 1816   3.117   5.216   4.431 -0.0517 -0.1842 -0.4435
   14MOL0     C 1817   3.222   5.314   4.475 -0.5439  0.3911  0.4440
   14MOL0     C 1818   3.358   5.292   4.410  0.1015  0.3076  0.3352
   14MOL0     C 1819   3.454   5.391   4.460 -0.1996 -0.8561  0.3698
   14MOL0     C 1820   3.534   5.472   4.507  0.3960 -0.2045 -1.0652
   14MOL0     C 1821   2.690   5.307   4.519 -0.8833  0.2595  0.0390
   14MOL0     C 1822   2.552   5.321   4.510 -0.8616  0.5578 -0.4668
   14MOL0     H 1823   2.109   5.238   4.586  0.8451  0.6386 -1.1444
   14MOL0     H 1824   1.867   5.295   4.612  2.0171 -0.8063  0.9929
   14MOL0     H 1825   1.673   5.282   4.410 -0.4676 -0.2899  0.6129
   14MOL0     H 1826   1.645   5.343   4.583  1.4572  0.6532  0.3859
   14MOL0     H 1827   1.461   5.486   4.485  0.1456  1.8992 -2.4476
   14MOL0     H 1828   1.529   5.467   4.331  0.0022 -1.8585 -0.4135
   14MOL0     H 1829   1.472   5.225   4.328  1.6442  0.7725  0.6349
   14MOL0     H 1830   1.407   5.240   4.491  0.0873 -2.5424 -2.0287
   14MOL0     H 1831   1.209   5.371   4.404 -1.3585  0.4910 -1.5532
   14MOL0     H 1832   1.278   5.333   4.242  2.3839  1.8696  0.2379
   14MOL0     H 1833   1.195   5.136   4.467 -0.3141  0.0954  0.4228
   14MOL0     H 1834   1.080   5.188   4.333 -0.0047  0.7845  0.6693
   14MOL0     H 1835   1.262   5.096   4.179 -0.3704  0.9652  1.5361
   14MOL0     H 1836   1.338   5.046   4.322  0.9334 -0.7279 -1.7831
   14MOL0     H 1837   1.140   4.913   4.167 -2.9348 -1.4050  1.1112
   14MOL0     H 1838   1.240   4.844   4.295 -0.2269 -1.1813  1.7064
   14MOL0     H 1839   1.066   4.936   4.462 -3.0439  1.0169  0.4323
   14MOL0     H 1840   1.043   4.792   4.363 -0.0655  0.3476 -0.8940
   14MOL0     H 1841   0.896   4.788   4.150 -0.5752 -1.5609  1.8835
   14MOL0     H 1842   0.623   4.834   4.080 -1.8305  1.1274  1.7047
   14MOL0     H 1843   0.581   5.004   4.063 -2.0364 -2.6096  3.1012
   14MOL0     H 1844   0.601   4.910   3.847 -0.1492  0.2116 -0.5792
   14MOL0     H 1845   0.772   4.873   3.865 -0.9419  0.6846 -4.9905
   14MOL0     H 1846   0.646   5.162   3.868  2.5641  2.5862 -2.9678
   14MOL0     H 1847   0.732   5.080   3.736  0.0748  1.0521 -0.8809
   14MOL0     H 1848   0.845   5.175   3.999  1.3879  0.2065 -0.1211
   14MOL0     H 1849   0.879   5.228   3.833  1.2205 -0.6116  0.1750
   14MOL0     H 1850   1.039   5.272   3.978  0.0355 -1.2535  3.7198
   14MOL0     H 1851   1.185   5.437   4.025 -1.1555 -1.9049  0.6515
   14MOL0     H 1852   1.359   5.399   4.062 -0.1941 -1.3502 -0.7547
   14MOL0     H 1853   1.325   5.466   3.913  3.0900 -1.2067 -0.0109
   14MOL0     H 1854   1.746   5.061   4.117 -3.0451  0.9194  1.7137
   14MOL0     H 1855   1.978   5.158   4.146 -0.7094  1.6191  2.4332
   14MOL0     H 1856   2.077   5.575   4.011 -1.9336  0.2140 -2.7221
   14MOL0     H 1857   2.223   5.461   3.984 -0.7800 -3.3500  0.6629
   14MOL0     H 1858   2.101   5.333   3.821 -1.4698  0.2484  0.3404
   14MOL0     H 1859   1.982   5.464   3.811 -0.7705 -0.4834  3.3365
   14MOL0     H 1860   2.289   5.484   3.764  0.2824  1.0803 -0.1701
   14MOL0     H 1861   2.179   5.618   3.735 -2.0145 -0.3597 -1.2567
   14MOL0     H 1862   2.132   5.381   3.567 -0.5477 -0.1077 -3.6567
   14MOL0     H 1863   2.108   5.562   3.554 -0.2703 -0.8054  0.3542
   14MOL0     H 1864   2.289   5.443   3.419  1.3603 -1.2925  0.1242
   14MOL0     H 1865   2.378   5.416   3.575  1.0475  1.8396  1.3423
   14MOL0     H 1866   2.299   5.700   3.503 -1.3908  0.0457  1.0145
   14MOL0     H 1867   2.415   5.642   3.621 -0.2275  2.2720 -1.1778
   14MOL0     H 1868   2.461   5.599   3.325  1.6309  2.8759 -1.1572
   14MOL0     H 1869   2.569   5.565   3.467 -1.1137 -1.0327  1.3473
   14MOL0     H 1870   2.606   5.805   3.503  0.3192 -0.8746 -0.1920
   14MOL0     H 1871   2.478   5.852   3.387  0.8641  1.4263 -0.7412
   14MOL0     H 1872   1.846   5.545   4.030 -0.0002  0.0201  1.6466
   14MOL0     H 1873   1.620   5.453   4.012 -0.3262  0.4304  1.8573
   14MOL0     H 1874   1.395   4.960   3.837  0.9531  0.4526  1.0928
   14MOL0     H 1875   1.177   4.889   3.845  0.5043 -0.3136 -0.5812
   14MOL0     H 1876   1.922   5.610   4.317 -2.5483  1.7728  1.5023
   14MOL0     H 1877   2.170   5.566   4.322 -0.5450  0.3506 -0.0687
   14MOL0     H 1878   2.473   5.031   4.352 -0.7393  2.5149 -1.0920
   14MOL0     H 1879   2.710   4.989   4.388 -0.0445 -1.2130  2.0219
   14MOL0     H 1880   2.950   5.347   4.441  1.7622 -0.1868 -2.5100
   14MOL0     H 1881   2.999   5.281   4.598  1.9969 -0.3478 -0.5495
   14MOL0     H 1882   3.117   5.231   4.323  2.6144  3.4775 -0.1298
   14MOL0     H 1883   3.141   5.114   4.463 -0.1698  0.5150  2.1351
   14MOL0     H 1884   3.236   5.306   4.583  3.1646  1.0037  0.1401
   14MOL0     H 1885   3.198   5.417   4.446  2.6999  1.1154 -0.0088
   14MOL0     H 1886   3.350   5.317   4.304  0.6809  2.2459  0.7023
   14MOL0     H 1887   3.398   5.193   4.435 -2.8462 -1.2758 -0.7608
   14MOL0     H 1888   3.592   5.544   4.560  2.0684 -2.3744  0.2243
   14MOL0     H 1889   2.747   5.386   4.567 -2.0827  1.2967 -0.1977
   14MOL0     H 1890   2.505   5.412   4.545 -0.0767  0.7609  0.0740
   15MOL0     O 1891   4.676   3.425   1.973  0.2558  0.3484 -0.5094
   15MOL0     C 1892   4.732   3.354   2.061  0.4022  0.4748  0.6002
   15MOL0     O 1893   4.674   3.246   2.122  0.0445  0.4560  0.3386
   15MOL0     C 1894   4.547   3.208   2.094  0.4013  0.1091 -0.0300
   15MOL0     C 1895   4.444   3.252   2.166  0.5490 -0.2360  1.0261
   15MOL0     C 1896   4.309   3.221   2.134  0.1956  0.5326  0.1770
   15MOL0     C 1897   4.276   3.135   2.030 -0.1730  0.1913  1.0268
   15MOL0     O 1898   4.140   3.100   2.008 -0.6572 -0.3710 -0.6113
   15MOL0     C 1899   4.111   3.013   1.897  0.2613 -0.2042  0.8653
   15MOL0     C 1900   3.961   3.037   1.845  0.2270 -0.3278  0.2256
   15MOL0     C 1901   3.861   2.961   1.928  0.3058 -0.8768 -0.5543
   15MOL0     C 1902   3.832   3.046   2.063 -0.4305  0.1506 -0.1051
   15MOL0     C 1903   3.704   2.993   2.133 -0.2402 -0.6439  1.1430
   15MOL0     C 1904   3.726   2.880   2.237 -0.7172 -1.1434 -0.0242
   15MOL0     C 1905   3.594   2.810   2.273 -0.4045 -0.7118 -0.7342
   15MOL0     C 1906   3.590   2.722   2.398  0.0922 -0.0101 -0.1093
   15MOL0     N 1907   3.535   2.781   2.518 -0.3048 -0.0163 -0.4962
   15MOL0     C 1908   3.404   2.836   2.520  0.2178 -0.6188 -0.7529
   15MOL0     C 1909   3.405   2.888   2.648 -0.9062 -0.3344  0.0525
   15MOL0     C 1910   3.297   2.961   2.717 -0.4472 -0.0002  0.3360
   15MOL0     C 1911   3.209   2.860   2.787  0.1719 -0.4191 -0.8589
   15MOL0     C 1912   3.080   2.929   2.828  0.1749 -0.3389  1.4193
   15MOL0     C 1913   2.978   2.834   2.892  0.4125 -0.3163  0.1870
   15MOL0     O 1914   2.874   2.917   2.939 -0.3197 -0.2766 -0.2056
   15MOL0     C 1915   2.747   2.869   2.947  0.0322  0.5425  0.0709
   15MOL0     C 1916   2.641   2.956   2.928 -0.1867 -0.2869  0.3968
   15MOL0     C 1917   2.504   2.923   2.944 -1.1101  0.2181 -0.6597
   15MOL0     C 1918   2.400   3.030   2.927 -0.0974  0.1185 -0.8581
   15MOL0     C 1919   2.471   2.791   2.992 -0.8560 -0.0153 -0.1885
   15MOL0     C 1920   2.334   2.738   3.011 -0.2023  0.8928 -0.1691
   15MOL0     O 1921   2.307   2.601   2.987  0.2246  0.2277 -0.0725
   15MOL0     C 1922   2.180   2.553   3.021 -0.6571 -0.6856 -0.7474
   15MOL0     C 1923   2.168   2.424   3.080 -0.2325  0.0330  0.0404
   15MOL0     C 1924   2.039   2.373   3.104 -0.0645 -0.3613  0.2026
   15MOL0     C 1925   1.919   2.443   3.081  0.5738  0.0415 -0.6483
   15MOL0     O 1926   1.789   2.396   3.098 -0.4648  0.1545  0.2223
   15MOL0     C 1927   1.674   2.459   3.055  0.2894 -1.2660  0.3758
   15MOL0     C 1928   1.560   2.375   3.095  0.2660 -0.3611  0.3599
   15MOL0     C 1929   1.434   2.446   3.050  0.2905  0.4223  0.1482
   15MOL0     C 1930   1.303   2.376   3.107 -0.3159 -0.2002  0.2243
   15MOL0     C 1931   1.314   2.225   3.105  0.5502 -0.2469 -0.2642
   15MOL0     C 1932   1.186   2.157   3.161 -0.7310  0.0337 -0.4969
   15MOL0     C 1933   1.186   2.006   3.140  0.1899  0.0161 -0.5078
   15MOL0     C 1934   1.308   1.929   3.199 -0.0118  0.0403 -0.1439
   15MOL0    Cl 1935   1.262   1.878   3.361 -0.4983  0.3163 -0.5198
   15MOL0     C 1936   1.935   2.574   3.030  0.2857  0.7034 -0.4997
   15MOL0     C 1937   2.063   2.620   2.997 -0.2468  0.3561  0.6603
   15MOL0     O 1938   2.269   2.820   3.080  0.2297 -0.8847 -0.7223
   15MOL0     C 1939   2.587   2.698   3.007 -0.3908 -0.6092 -0.4831
   15MOL0     C 1940   2.714   2.738   2.984  0.0952 -0.6298  0.3300
   15MOL0     N 1941   3.529   2.886   2.705 -0.2519  0.9394 -1.2129
   15MOL0     N 1942   3.605   2.806   2.632  0.8545 -0.2779 -0.3812
   15MOL0     C 1943   4.388   3.088   1.957 -0.1265 -0.0916 -0.7007
   15MOL0     C 1944   4.522   3.125   1.987  0.2264  0.3918 -0.0649
   15MOL0     C 1945   4.871   3.396   2.106  0.5501  0.3418  0.2832
   15MOL0     C 1946   4.923   3.522   2.063  0.4603  0.2368  0.4695
   15MOL0     C 1947   5.042   3.568   2.103 -0.5193 -0.1921 -0.7446
   15MOL0     C 1948   5.113   3.495   2.200  0.2795 -0.9561 -0.7709
   15MOL0     O 1949   5.227   3.541   2.260 -0.2188 -0.2814  0.2738
   15MOL0     C 1950   5.273   3.680   2.221 -0.0287 -0.2865 -0.9861
   15MOL0     C 1951   5.369   3.665   2.107  0.2153  0.8461 -0.1666
   15MOL0     C 1952   5.403   3.805   2.075 -0.1107  0.2336  0.1075
   15MOL0     C 1953   5.514   3.811   1.972 -0.4355 -0.3262 -0.6825
   15MOL0     C 1954   5.521   3.937   1.903  0.3296  0.2922 -0.8816
   15MOL0     C 1955   5.517   4.042   1.839 -0.4924  0.0080 -0.4130
   15MOL0     C 1956   5.068   3.366   2.241  0.3328  0.9328 -0.2763
   15MOL0     C 1957   4.949   3.315   2.191  0.1669  0.1215 -0.0142
   15MOL0     H 1958   4.478   3.322   2.242  3.4273  0.0430 -0.3553
   15MOL0     H 1959   4.222   3.263   2.183 -0.9546 -0.3514 -1.0109
   15MOL0     H 1960   4.166   3.055   1.812  0.9335  3.3915  2.8902
   15MOL0     H 1961   4.140   2.909   1.910  2.8370  0.1644 -1.1366
   15MOL0     H 1962   3.938   3.143   1.846 -0.5071 -0.4103 -1.7891
   15MOL0     H 1963   3.954   3.001   1.742 -2.0401  0.0073  0.2126
   15MOL0     H 1964   3.766   2.957   1.875 -0.4853  1.5169  0.5246
   15MOL0     H 1965   3.899   2.860   1.949 -0.2349 -0.7794  1.0986
   15MOL0     H 1966   3.910   3.049   2.140 -0.4183 -0.2723 -0.1032
   15MOL0     H 1967   3.815   3.152   2.039  0.3560  0.4842  0.7206
   15MOL0     H 1968   3.665   3.078   2.189 -1.8093 -0.9202  0.5462
   15MOL0     H 1969   3.629   2.963   2.058 -1.7478  1.1993  1.8427
   15MOL0     H 1970   3.804   2.812   2.201 -0.0386 -0.2663 -0.2447
   15MOL0     H 1971   3.771   2.925   2.325 -1.6206 -0.4126  0.0811
   15MOL0     H 1972   3.513   2.884   2.276 -1.2786 -1.5197 -2.6325
   15MOL0     H 1973   3.562   2.738   2.198 -0.3226  0.8491 -2.3261
   15MOL0     H 1974   3.688   2.678   2.420  1.2838  1.5627 -1.9102
   15MOL0     H 1975   3.521   2.639   2.381  1.0116 -0.8502  0.1135
   15MOL0     H 1976   3.323   2.827   2.448  0.1414 -0.6529 -0.6638
   15MOL0     H 1977   3.333   3.028   2.796 -2.1865  0.9448  0.3860
   15MOL0     H 1978   3.238   3.017   2.643 -0.6422  1.9671  1.8966
   15MOL0     H 1979   3.241   2.833   2.888 -1.9885 -2.1979 -0.5789
   15MOL0     H 1980   3.195   2.767   2.732  1.3950  0.2096 -2.3133
   15MOL0     H 1981   3.043   2.979   2.738  1.5986  1.5514  1.8212
   15MOL0     H 1982   3.103   3.009   2.899 -0.1298  2.8649 -1.7848
   15MOL0     H 1983   3.019   2.784   2.980 -2.7891 -0.3096  1.8390
   15MOL0     H 1984   2.929   2.764   2.824 -2.6444  1.4051  0.4403
   15MOL0     H 1985   2.671   3.058   2.908  0.8898 -0.6178  0.2274
   15MOL0     H 1986   2.303   2.994   2.890 -0.8975  1.6656 -0.3495
   15MOL0     H 1987   2.377   3.075   3.024  0.5970  0.7070 -0.9630
   15MOL0     H 1988   2.429   3.106   2.854 -0.8834  0.9225 -0.3568
   15MOL0     H 1989   2.256   2.363   3.096  0.3466  0.4639 -1.3558
   15MOL0     H 1990   2.033   2.272   3.141 -0.8017 -0.5507 -0.4032
   15MOL0     H 1991   1.669   2.565   3.080  2.3368 -0.9608 -0.3462
   15MOL0     H 1992   1.671   2.463   2.946  2.8495  1.4291  0.2937
   15MOL0     H 1993   1.559   2.280   3.041 -0.6748 -0.0967 -0.1136
   15MOL0     H 1994   1.561   2.367   3.204 -2.5748 -0.9841  0.4285
   15MOL0     H 1995   1.432   2.444   2.940 -3.4432 -1.3031  0.0562
   15MOL0     H 1996   1.443   2.554   3.060  0.2467  0.5891 -1.3808
   15MOL0     H 1997   1.292   2.408   3.211  0.6537  2.1625 -0.3505
   15MOL0     H 1998   1.211   2.410   3.057 -0.6096  0.3762  1.1393
   15MOL0     H 1999   1.402   2.195   3.162  1.0864 -0.7274 -1.3247
   15MOL0     H 2000   1.342   2.196   3.004 -1.8321  0.2551 -1.1456
   15MOL0     H 2001   1.185   2.173   3.270  0.1707  1.1127 -0.6309
   15MOL0     H 2002   1.091   2.191   3.118 -2.0554 -1.2391  1.2439
   15MOL0     H 2003   1.194   2.000   3.032 -0.2341 -0.4494 -0.5178
   15MOL0     H 2004   1.090   1.967   3.176  1.4093 -2.2349  0.5007
   15MOL0     H 2005   1.404   1.982   3.196 -0.6181  1.2148  0.6041
   15MOL0     H 2006   1.323   1.841   3.135  0.5777  1.2484 -1.7301
   15MOL0     H 2007   1.855   2.648   3.024  0.0458  0.9361  3.1347
   15MOL0     H 2008   2.072   2.725   2.972 -0.9515 -0.0022 -1.3138
   15MOL0     H 2009   2.578   2.595   3.038  1.7289 -0.0956  2.2553
   15MOL0     H 2010   2.802   2.674   2.993  2.4743  1.7592 -3.2017
   15MOL0     H 2011   4.377   3.006   1.887 -2.5389 -1.1775  0.8084
   15MOL0     H 2012   4.598   3.081   1.923  2.5635  1.7533  1.6373
   15MOL0     H 2013   4.870   3.592   2.000 -0.1624  1.4405  2.2446
   15MOL0     H 2014   5.075   3.664   2.064 -0.4289 -0.2063 -0.7037
   15MOL0     H 2015   5.191   3.753   2.219 -0.0522 -0.3035 -0.6734
   15MOL0     H 2016   5.328   3.714   2.309  0.0777 -2.0149 -0.3532
   15MOL0     H 2017   5.324   3.606   2.026  1.3588 -1.7704  0.9952
   15MOL0     H 2018   5.461   3.614   2.137  1.0571  3.2119  1.5675
   15MOL0     H 2019   5.434   3.866   2.160 -2.5652 -0.7995  1.8633
   15MOL0     H 2020   5.324   3.859   2.023  0.2923  2.3696  1.5695
   15MOL0     H 2021   5.500   3.725   1.907  1.3615 -0.3217 -1.1147
   15MOL0     H 2022   5.609   3.804   2.026 -1.5232  3.9129  2.3729
   15MOL0     H 2023   5.520   4.130   1.778  0.4132 -0.4172 -0.9999
   15MOL0     H 2024   5.128   3.323   2.320 -2.0993  0.4454  1.4128
   15MOL0     H 2025   4.911   3.216   2.212  0.1677  0.4301  1.5585
   16MOL0     O 2026   6.853   0.358   5.642 -0.1313  0.4792 -0.2952
   16MOL0     C 2027   6.853   0.317   5.523  0.1739 -0.2989 -0.0366
   16MOL0     O 2028   6.754   0.359   5.424  0.2489 -0.4820 -0.5622
   16MOL0     C 2029   6.681   0.481   5.450  0.2777  0.2169 -0.5340
   16MOL0     C 2030   6.548   0.494   5.397 -0.1734 -0.0139 -0.2043
   16MOL0     C 2031   6.475   0.612   5.418  0.6941 -0.7896  0.6179
   16MOL0     C 2032   6.534   0.732   5.468 -0.5799  1.0169 -0.4339
   16MOL0     O 2033   6.479   0.859   5.471 -0.4391  0.0751 -0.2170
   16MOL0     C 2034   6.341   0.880   5.432 -0.1608  0.5091  0.4946
   16MOL0     C 2035   6.296   1.021   5.458  0.2937  0.1859 -0.5691
   16MOL0     C 2036   6.152   1.055   5.418  0.0387 -0.8800  0.3223
   16MOL0     C 2037   6.102   1.197   5.443  0.2720  0.4609 -0.2149
   16MOL0     C 2038   5.950   1.216   5.416 -0.1967  0.1088 -0.4509
   16MOL0     C 2039   5.913   1.210   5.272 -0.5012 -0.2416  0.4828
   16MOL0     C 2040   5.758   1.202   5.266 -0.0852 -0.0186 -0.5797
   16MOL0     C 2041   5.688   1.323   5.330 -1.3199  0.5875 -0.3959
   16MOL0     N 2042   5.728   1.450   5.267 -0.3054  0.1834  0.3117
   16MOL0     C 2043   5.833   1.528   5.311 -0.5497  0.3169  0.2692
   16MOL0     C 2044   5.846   1.614   5.213 -0.1200  0.2354  0.2119
   16MOL0     C 2045   5.944   1.722   5.219 -0.6860 -0.5374  0.8205
   16MOL0     C 2046   6.003   1.754   5.082 -0.8184 -0.4667  0.1737
   16MOL0     C 2047   6.100   1.646   5.038 -0.5083  0.0986  0.2295
   16MOL0     C 2048   6.140   1.673   4.893  0.3151  0.1849  0.5621
   16MOL0     O 2049   6.212   1.795   4.898 -0.2132 -0.3682  0.4503
   16MOL0     C 2050   6.344   1.780   4.932 -0.3285  0.0436  0.9089
   16MOL0     C 2051   6.424   1.891   4.952 -0.5483 -0.5244  0.4228
   16MOL0     C 2052   6.559   1.888   4.991 -1.0004 -0.3313  1.0242
   16MOL0     C 2053   6.627   2.022   5.020  0.1129 -0.4613 -0.0154
   16MOL0     C 2054   6.620   1.762   5.015 -0.1003  0.0443 -0.1018
   16MOL0     C 2055   6.761   1.739   5.063 -0.5280  0.4264  0.0211
   16MOL0     O 2056   6.793   1.614   5.086 -0.1524 -0.7318  0.4282
   16MOL0     C 2057   6.903   1.593   5.161  0.0120  0.7707  0.0787
   16MOL0     C 2058   6.922   1.649   5.287  0.7683  0.7022  0.3831
   16MOL0     C 2059   7.033   1.615   5.362  1.1347  0.4685  0.4781
   16MOL0     C 2060   7.129   1.521   5.318  0.2200 -0.0681 -0.4833
   16MOL0     O 2061   7.239   1.492   5.399  0.8929  0.4915  0.2440
   16MOL0     C 2062   7.349   1.578   5.378 -0.5018  0.4569  0.3322
   16MOL0     C 2063   7.436   1.504   5.278  0.7597 -0.1182  0.0668
   16MOL0     C 2064   7.575   1.573   5.263 -0.6993  0.0730 -0.5837
   16MOL0     C 2065   7.669   1.550   5.380 -1.1115  0.0434 -0.1671
   16MOL0     C 2066   7.821   1.568   5.374 -0.3411  0.7147  0.5559
   16MOL0     C 2067   7.898   1.463   5.287 -0.5974 -0.0067  0.3781
   16MOL0     C 2068   8.048   1.517   5.286  0.1126  0.1828 -0.2010
   16MOL0     C 2069   8.125   1.414   5.205  0.3728 -0.4499  0.0837
   16MOL0    Cl 2070   8.292   1.469   5.170  0.9461  0.2112  0.3007
   16MOL0     C 2071   7.114   1.452   5.195  0.1403  0.4800  0.8003
   16MOL0     C 2072   6.997   1.490   5.119 -0.0494  0.2271  0.1559
   16MOL0     O 2073   6.839   1.837   5.070  0.1902  0.3018  0.2294
   16MOL0     C 2074   6.532   1.647   5.004 -0.3300 -0.1387  0.0675
   16MOL0     C 2075   6.405   1.652   4.966  0.0921  0.0821 -0.4942
   16MOL0     N 2076   5.749   1.593   5.108  0.1899 -1.0205  1.0597
   16MOL0     N 2077   5.681   1.492   5.147  0.3224  0.6821 -0.6593
   16MOL0     C 2078   6.666   0.721   5.506 -0.2589 -0.5080  0.3005
   16MOL0     C 2079   6.732   0.600   5.498  0.1504 -0.1729  0.0114
   16MOL0     C 2080   6.949   0.213   5.495 -0.4473 -0.1345  0.2135
   16MOL0     C 2081   7.057   0.190   5.577 -0.0348 -0.7032 -0.2597
   16MOL0     C 2082   7.159   0.103   5.544 -0.3210 -0.3715 -0.0024
   16MOL0     C 2083   7.148   0.031   5.428 -0.3223 -0.3101  0.0801
   16MOL0     O 2084   7.247  -0.056   5.377  0.4700  0.1089  0.3031
   16MOL0     C 2085   7.337  -0.123   5.460 -0.5233 -0.2184 -0.4234
   16MOL0     C 2086   7.319  -0.270   5.451  0.5694  0.7778  0.1192
   16MOL0     C 2087   7.443  -0.351   5.516 -0.2824 -0.4386 -0.2644
   16MOL0     C 2088   7.446  -0.332   5.667 -0.4930 -0.0944  0.8640
   16MOL0     C 2089   7.556  -0.404   5.729 -0.0317  0.6200  0.6861
   16MOL0     C 2090   7.647  -0.464   5.785  0.1502 -0.0332  0.0932
   16MOL0     C 2091   7.031   0.052   5.349  0.6592 -0.0239  0.4937
   16MOL0     C 2092   6.932   0.141   5.377  1.0427 -0.4743 -0.0362
   16MOL0     H 2093   6.510   0.403   5.351  3.2952 -1.4010 -0.6620
   16MOL0     H 2094   6.378   0.607   5.369  0.6081  0.0489  0.6987
   16MOL0     H 2095   6.332   0.865   5.324 -0.5745  0.5717  0.5186
   16MOL0     H 2096   6.271   0.813   5.484 -0.1953 -1.1657 -1.5387
   16MOL0     H 2097   6.305   1.035   5.566 -2.0525  0.1083 -0.3082
   16MOL0     H 2098   6.365   1.090   5.410  2.1484 -1.8310 -0.9628
   16MOL0     H 2099   6.147   1.031   5.311 -1.6487  0.0486  0.1593
   16MOL0     H 2100   6.084   0.981   5.460 -0.3303 -1.4209 -1.1565
   16MOL0     H 2101   6.131   1.221   5.546 -0.9424 -2.2641  0.8653
   16MOL0     H 2102   6.156   1.268   5.380 -1.0853  3.5757  1.8749
   16MOL0     H 2103   5.895   1.136   5.467  0.6689  0.5940  1.3404
   16MOL0     H 2104   5.911   1.308   5.460 -0.5888 -0.0348 -0.4974
   16MOL0     H 2105   5.952   1.297   5.217  0.0620 -0.4601  0.5243
   16MOL0     H 2106   5.953   1.125   5.215  0.6387  0.4956  0.1359
   16MOL0     H 2107   5.732   1.190   5.161  1.1835  2.6216 -1.2681
   16MOL0     H 2108   5.718   1.112   5.315 -2.2030  1.3825  0.4334
   16MOL0     H 2109   5.705   1.323   5.438 -1.7174 -2.1636 -0.2658
   16MOL0     H 2110   5.581   1.309   5.318 -1.8447 -0.8674  4.1285
   16MOL0     H 2111   5.898   1.532   5.398  1.5637  3.4477 -1.2750
   16MOL0     H 2112   5.889   1.814   5.243  0.0125 -0.6392  3.0262
   16MOL0     H 2113   6.027   1.713   5.289  0.5324  1.7336 -0.2102
   16MOL0     H 2114   6.067   1.841   5.097 -1.2711 -0.6644  4.6030
   16MOL0     H 2115   5.930   1.781   5.004  0.2328  1.4716 -0.1860
   16MOL0     H 2116   6.054   1.547   5.049 -0.2182  0.1681  2.7286
   16MOL0     H 2117   6.185   1.641   5.107 -0.2296 -0.9379 -0.1635
   16MOL0     H 2118   6.046   1.691   4.840  1.5155  1.4520 -1.2651
   16MOL0     H 2119   6.186   1.591   4.837 -1.0999 -0.0113 -0.3829
   16MOL0     H 2120   6.360   1.975   4.929 -0.8615 -1.4910 -2.7365
   16MOL0     H 2121   6.560   2.108   5.025  2.0436  1.1929 -1.0586
   16MOL0     H 2122   6.677   2.025   5.117 -0.8858  0.4969  0.4902
   16MOL0     H 2123   6.702   2.044   4.943 -0.3138  1.5982  0.0985
   16MOL0     H 2124   6.841   1.714   5.318  0.2162 -0.6206  1.8985
   16MOL0     H 2125   7.044   1.682   5.446  3.6565 -1.9051  2.2377
   16MOL0     H 2126   7.316   1.679   5.353 -0.8863  0.0750 -0.7382
   16MOL0     H 2127   7.410   1.582   5.469 -1.7386  1.0745  1.1673
   16MOL0     H 2128   7.450   1.401   5.312 -1.2553 -0.3969  0.1560
   16MOL0     H 2129   7.385   1.508   5.182  0.2696 -1.3281  0.2597
   16MOL0     H 2130   7.566   1.682   5.255  1.0839  0.2147 -1.0469
   16MOL0     H 2131   7.633   1.542   5.176 -2.2660 -1.6821 -1.0689
   16MOL0     H 2132   7.633   1.600   5.471  0.0512 -1.2742  1.0876
   16MOL0     H 2133   7.660   1.444   5.408  1.1008  0.1444  1.2115
   16MOL0     H 2134   7.852   1.562   5.479  1.0791  0.1444  0.1273
   16MOL0     H 2135   7.838   1.669   5.337  0.6004  0.4548  0.2338
   16MOL0     H 2136   7.884   1.364   5.330 -4.4678  0.3249  0.2496
   16MOL0     H 2137   7.861   1.462   5.184 -1.3464  1.8816  0.5909
   16MOL0     H 2138   8.078   1.536   5.390 -1.3862  2.9538 -0.1861
   16MOL0     H 2139   8.064   1.614   5.238 -3.8780  0.9754 -0.2663
   16MOL0     H 2140   8.069   1.387   5.115 -0.1602 -1.2891  0.6405
   16MOL0     H 2141   8.125   1.314   5.250 -2.9594 -1.0285 -0.8645
   16MOL0     H 2142   7.164   1.365   5.154  0.1608  0.1539  1.5138
   16MOL0     H 2143   6.980   1.443   5.022  1.5081 -0.6412  0.2776
   16MOL0     H 2144   6.579   1.555   5.039  0.9533  0.2559 -0.5234
   16MOL0     H 2145   6.360   1.554   4.955  1.9785 -0.9433  0.4242
   16MOL0     H 2146   6.719   0.808   5.543  1.8699 -1.6414  0.0515
   16MOL0     H 2147   6.837   0.608   5.525 -0.4151 -1.0021  2.6901
   16MOL0     H 2148   7.065   0.252   5.666 -0.1752 -2.0502  0.7147
   16MOL0     H 2149   7.245   0.100   5.611  0.5557  3.4192 -0.7483
   16MOL0     H 2150   7.438  -0.100   5.424  0.5253 -3.0072  0.5018
   16MOL0     H 2151   7.344  -0.092   5.564  1.0705 -1.5052 -0.0999
   16MOL0     H 2152   7.286  -0.306   5.354 -0.3941  1.6394  0.0993
   16MOL0     H 2153   7.235  -0.293   5.518  0.2304  0.7364 -0.3201
   16MOL0     H 2154   7.533  -0.310   5.468 -0.6205 -0.0426 -0.5705
   16MOL0     H 2155   7.436  -0.460   5.509  0.8628 -0.9669  3.9821
   16MOL0     H 2156   7.354  -0.367   5.715 -0.4903 -1.2639  0.0540
   16MOL0     H 2157   7.462  -0.226   5.688  0.6134  0.0838 -0.7134
   16MOL0     H 2158   7.719  -0.511   5.850  0.5826  1.6415  0.9049
   16MOL0     H 2159   7.015  -0.007   5.259  0.7849  0.1414  0.3605
   16MOL0     H 2160   6.847   0.163   5.313  1.7107  0.3170 -0.6689
   17MOL0     O 2161   4.266   8.659   6.119  0.1786 -0.2664 -0.1680
   17MOL0     C 2162   4.350   8.748   6.149  0.1472 -0.1248  0.6925
   17MOL0     O 2163   4.317   8.871   6.206 -0.1511  0.5354 -0.2014
   17MOL0     C 2164   4.182   8.896   6.233 -0.0660 -0.1379  0.0279
   17MOL0     C 2165   4.130   9.023   6.202 -0.0646 -0.3047 -0.0824
   17MOL0     C 2166   3.998   9.068   6.222 -0.3684  0.8182  0.1154
   17MOL0     C 2167   3.915   8.979   6.282  0.7680 -0.5627  0.3104
   17MOL0     O 2168   3.787   9.012   6.309  0.2222  0.4619 -1.0718
   17MOL0     C 2169   3.719   9.066   6.192 -0.2425 -0.1375 -0.4593
   17MOL0     C 2170   3.568   9.082   6.232  0.5106  0.6598  0.6246
   17MOL0     C 2171   3.492   8.950   6.250 -0.2764 -0.1875 -0.5952
   17MOL0     C 2172   3.346   8.984   6.302  0.4876  0.4488  0.6427
   17MOL0     C 2173   3.289   8.843   6.347 -0.9678  0.2892 -0.1097
   17MOL0     C 2174   3.232   8.768   6.232 -0.3411 -0.3137  0.2235
   17MOL0     C 2175   3.161   8.636   6.270  0.1254  0.2813 -0.5878
   17MOL0     C 2176   3.017   8.617   6.221 -0.3683  0.0403 -0.6359
   17MOL0     N 2177   2.936   8.719   6.289 -0.9026  0.1646  0.8938
   17MOL0     C 2178   2.922   8.735   6.424 -0.6651 -0.1243 -0.4242
   17MOL0     C 2179   2.848   8.845   6.438  0.5421 -0.1232  0.9408
   17MOL0     C 2180   2.793   8.916   6.560  0.3447  0.5127 -0.4195
   17MOL0     C 2181   2.641   8.928   6.547 -0.6626 -0.8497 -0.4299
   17MOL0     C 2182   2.569   8.795   6.539 -0.2132  0.5393 -0.2655
   17MOL0     C 2183   2.423   8.808   6.563  0.1913 -0.1910 -0.6279
   17MOL0     O 2184   2.390   8.807   6.699 -0.1003  0.4730 -0.1760
   17MOL0     C 2185   2.261   8.833   6.733 -0.0710  1.3540 -0.2441
   17MOL0     C 2186   2.225   8.832   6.872 -0.1201 -0.6889 -0.4941
   17MOL0     C 2187   2.084   8.829   6.910 -0.1715  0.1584  0.3278
   17MOL0     C 2188   2.055   8.819   7.059  0.6663 -0.0897 -0.8276
   17MOL0     C 2189   1.985   8.844   6.817  0.0125 -1.1291 -0.2740
   17MOL0     C 2190   1.840   8.858   6.845 -0.0480  0.5585 -0.6413
   17MOL0     O 2191   1.773   8.949   6.781  0.0901  0.1496  0.3986
   17MOL0     C 2192   1.648   9.008   6.815  0.1570  0.0574  0.4269
   17MOL0     C 2193   1.567   9.060   6.718  0.2351 -0.4645  0.8673
   17MOL0     C 2194   1.444   9.128   6.755  0.3862  1.1287  0.2954
   17MOL0     C 2195   1.395   9.125   6.882  0.6229  0.2841  1.0784
   17MOL0     O 2196   1.263   9.162   6.906  0.4115  0.5480  0.0977
   17MOL0     C 2197   1.154   9.090   6.843 -0.0518 -0.6500  0.8372
   17MOL0     C 2198   1.032   9.171   6.882  0.6098  0.8851  0.2219
   17MOL0     C 2199   0.906   9.115   6.825  0.8850  0.9364  0.0518
   17MOL0     C 2200   0.895   9.085   6.675  0.1646  0.0426 -0.5675
   17MOL0     C 2201   0.754   9.117   6.610 -0.5986  0.1371  0.2735
   17MOL0     C 2202   0.762   9.171   6.466 -0.0577 -0.0900  0.0495
   17MOL0     C 2203   0.811   9.082   6.350  0.0936  0.0314  0.0184
   17MOL0     C 2204   0.705   9.022   6.252 -0.1775 -1.0078  0.6828
   17MOL0    Cl 2205   0.616   9.158   6.161 -0.0123 -0.0685 -0.3593
   17MOL0     C 2206   1.483   9.076   6.978  0.4962 -0.5011 -0.1623
   17MOL0     C 2207   1.607   9.025   6.949  0.0240  0.9713  0.1960
   17MOL0     O 2208   1.792   8.770   6.919 -0.1159  0.1215  0.5644
   17MOL0     C 2209   2.023   8.853   6.678 -0.0691  0.3486 -0.5504
   17MOL0     C 2210   2.157   8.849   6.635  0.5154 -0.5489 -0.2448
   17MOL0     N 2211   2.805   8.880   6.310  0.5727 -0.0356  1.1861
   17MOL0     N 2212   2.869   8.813   6.221 -0.3532 -0.2960  0.4828
   17MOL0     C 2213   3.971   8.858   6.331 -0.5163  0.8488 -0.6524
   17MOL0     C 2214   4.097   8.811   6.302 -0.3558 -0.4921  0.8703
   17MOL0     C 2215   4.495   8.712   6.124  0.1953 -1.0030 -0.0762
   17MOL0     C 2216   4.593   8.802   6.163  0.9200 -0.2860 -0.0759
   17MOL0     C 2217   4.725   8.770   6.144  0.0398  0.4599  0.3367
   17MOL0     C 2218   4.769   8.646   6.092 -0.6347 -0.0889 -0.5063
   17MOL0     O 2219   4.901   8.609   6.075  0.0696 -0.0930 -0.0436
   17MOL0     C 2220   5.002   8.718   6.069  0.6828 -0.2840 -0.4848
   17MOL0     C 2221   5.133   8.669   6.028  0.0469  0.7448  0.1396
   17MOL0     C 2222   5.149   8.634   5.875  0.5447 -0.1163  0.0968
   17MOL0     C 2223   5.292   8.614   5.829  0.4890  0.3698 -1.2293
   17MOL0     C 2224   5.366   8.733   5.831  0.0089 -0.1521 -0.0801
   17MOL0     C 2225   5.441   8.828   5.830  0.3264  0.3513 -0.0223
   17MOL0     C 2226   4.673   8.551   6.061  0.4644  0.5778  0.2664
   17MOL0     C 2227   4.534   8.579   6.094  0.3018 -1.1188 -0.3531
   17MOL0     H 2228   4.192   9.102   6.160 -0.1597 -0.3728 -0.3555
   17MOL0     H 2229   3.982   9.172   6.198  0.5454  0.6570 -1.2975
   17MOL0     H 2230   3.758   9.164   6.162 -0.5660 -0.1638 -0.9791
   17MOL0     H 2231   3.726   8.993   6.111 -1.2520 -0.9060  0.1268
   17MOL0     H 2232   3.564   9.143   6.322  0.4653  0.2307  0.9147
   17MOL0     H 2233   3.517   9.136   6.151  0.0542 -0.8838 -0.1556
   17MOL0     H 2234   3.490   8.899   6.153  0.4118 -2.3825  0.4872
   17MOL0     H 2235   3.541   8.889   6.326 -0.2311  2.0727  1.3087
   17MOL0     H 2236   3.346   9.058   6.383  2.0121  4.0869 -2.3804
   17MOL0     H 2237   3.289   9.030   6.221  3.6652  0.1549 -1.9285
   17MOL0     H 2238   3.359   8.781   6.404 -2.1000  0.1782  1.2243
   17MOL0     H 2239   3.204   8.854   6.416  0.9290 -1.2534  2.7037
   17MOL0     H 2240   3.168   8.843   6.185 -1.0747 -1.9024 -1.4482
   17MOL0     H 2241   3.309   8.746   6.157 -1.2829  0.6256 -1.0655
   17MOL0     H 2242   3.228   8.554   6.243 -1.6096 -0.7771 -1.8727
   17MOL0     H 2243   3.165   8.628   6.379  0.7852 -1.0282 -0.6942
   17MOL0     H 2244   2.988   8.524   6.270  2.3210  0.0532  1.2348
   17MOL0     H 2245   3.009   8.619   6.112 -0.7754 -0.1045 -0.6095
   17MOL0     H 2246   2.982   8.680   6.496 -0.5202 -1.0957 -1.2596
   17MOL0     H 2247   2.817   8.859   6.650 -1.1508 -2.1380 -1.5663
   17MOL0     H 2248   2.830   9.019   6.565 -0.4673  0.7662  0.4129
   17MOL0     H 2249   2.616   9.003   6.471 -1.4072  1.5689  2.0530
   17MOL0     H 2250   2.603   8.978   6.636  1.3693 -2.4212  1.4494
   17MOL0     H 2251   2.621   8.713   6.590  1.3402  1.3760 -0.4176
   17MOL0     H 2252   2.573   8.771   6.433 -0.7184  1.0834 -0.4110
   17MOL0     H 2253   2.368   8.726   6.515  0.9665  0.1725 -2.2226
   17MOL0     H 2254   2.382   8.897   6.515 -2.1780 -0.3627  0.8922
   17MOL0     H 2255   2.308   8.825   6.942  0.8150 -1.1004 -1.6257
   17MOL0     H 2256   2.023   8.722   7.099  1.3284 -0.2219 -0.6037
   17MOL0     H 2257   2.140   8.859   7.114  0.1435 -0.3432  0.1835
   17MOL0     H 2258   1.964   8.877   7.075 -0.7694 -2.8009  1.9501
   17MOL0     H 2259   1.607   9.066   6.618 -0.1293  0.1688  0.7552
   17MOL0     H 2260   1.383   9.177   6.679 -3.0910  1.8503  3.2850
   17MOL0     H 2261   1.175   9.088   6.736  1.6085 -0.1847  1.1156
   17MOL0     H 2262   1.138   8.989   6.882 -2.4073 -0.0486  1.5882
   17MOL0     H 2263   1.021   9.172   6.991 -1.9123  2.0970  0.0309
   17MOL0     H 2264   1.037   9.279   6.862  3.8277  0.2465 -3.7247
   17MOL0     H 2265   0.832   9.193   6.844  0.1013 -0.2850  2.4090
   17MOL0     H 2266   0.890   9.021   6.877  3.5491  0.1323 -0.4211
   17MOL0     H 2267   0.965   9.160   6.636  1.2497 -0.9759 -0.6093
   17MOL0     H 2268   0.927   8.987   6.640  1.9825  1.1768 -2.2742
   17MOL0     H 2269   0.702   9.183   6.681 -1.0444  0.4018 -0.2938
   17MOL0     H 2270   0.698   9.023   6.604  0.1060 -0.1922 -1.6007
   17MOL0     H 2271   0.659   9.202   6.447  0.4228  1.4308 -0.1652
   17MOL0     H 2272   0.829   9.257   6.464 -0.9511  0.6002 -0.8001
   17MOL0     H 2273   0.867   8.993   6.380 -1.8934 -1.6619 -1.0396
   17MOL0     H 2274   0.877   9.133   6.279  0.9763  0.5810  1.2161
   17MOL0     H 2275   0.642   8.953   6.310  0.2235 -2.5002 -0.5789
   17MOL0     H 2276   0.748   8.956   6.176 -1.2632  2.1465 -2.9829
   17MOL0     H 2277   1.446   9.075   7.080  2.1825  0.7547  0.5153
   17MOL0     H 2278   1.671   9.001   7.034  1.2721 -0.3221 -1.0621
   17MOL0     H 2279   1.948   8.863   6.600 -0.3561  0.1534 -0.3014
   17MOL0     H 2280   2.164   8.819   6.531  0.4923  0.8463 -0.6687
   17MOL0     H 2281   3.904   8.794   6.388 -0.6356  0.5151 -1.1542
   17MOL0     H 2282   4.136   8.712   6.323  2.7587  0.3895 -0.1087
   17MOL0     H 2283   4.573   8.902   6.199 -0.2185 -0.3197 -0.5614
   17MOL0     H 2284   4.805   8.842   6.161  0.4270 -0.1997  1.3837
   17MOL0     H 2285   4.967   8.801   6.007  0.3580  1.0698  1.4069
   17MOL0     H 2286   5.018   8.748   6.174 -0.5057 -2.9992  0.5458
   17MOL0     H 2287   5.164   8.576   6.076 -2.0371 -1.2437 -2.1121
   17MOL0     H 2288   5.197   8.755   6.051 -1.7143  1.5563  2.3595
   17MOL0     H 2289   5.116   8.721   5.816  3.3195 -1.7900 -4.4575
   17MOL0     H 2290   5.087   8.546   5.855  0.0169  0.0670  0.8795
   17MOL0     H 2291   5.300   8.562   5.733  1.3343 -3.3318  0.6587
   17MOL0     H 2292   5.334   8.545   5.904 -3.5444  2.0136  3.0509
   17MOL0     H 2293   5.508   8.912   5.828 -1.4143  1.7849 -2.1700
   17MOL0     H 2294   4.700   8.450   6.031 -1.5779  0.5607 -1.8154
   17MOL0     H 2295   4.456   8.503   6.096 -2.4035  1.4133 -1.4805
   18MOL0     O 2296   4.159  10.094   4.573 -0.2263 -0.0605  0.1068
   18MOL0     C 2297   4.223  10.186   4.513 -0.7319 -0.5225  0.4572
   18MOL0     O 2298   4.207  10.321   4.523  0.7848  0.2043  0.1697
   18MOL0     C 2299   4.159  10.386   4.630 -0.0548  0.7704  0.0539
   18MOL0     C 2300   4.150  10.522   4.606  0.3001 -0.5244 -0.2090
   18MOL0     C 2301   4.099  10.608   4.700 -0.5895  0.2724  0.1113
   18MOL0     C 2302   4.040  10.563   4.818 -0.7246 -0.3161  0.6552
   18MOL0     O 2303   3.980  10.652   4.902 -1.0520 -0.0626  0.2053
   18MOL0     C 2304   3.852  10.623   4.951  0.0375  0.7769  0.1250
   18MOL0     C 2305   3.808  10.738   5.033 -0.1870  0.2824  0.4869
   18MOL0     C 2306   3.672  10.719   5.097 -0.3958  0.0312  0.1138
   18MOL0     C 2307   3.555  10.728   4.995  0.2814 -0.1898 -0.3439
   18MOL0     C 2308   3.424  10.667   5.052  0.3615  0.1609  0.1429
   18MOL0     C 2309   3.299  10.718   4.975  0.7884  0.1885 -0.0381
   18MOL0     C 2310   3.166  10.668   5.047  0.7492  0.4167  0.3436
   18MOL0     C 2311   3.110  10.529   5.007  0.2434 -0.6925  0.1416
   18MOL0     N 2312   2.994  10.486   5.083 -0.1981 -0.2010 -0.1009
   18MOL0     C 2313   2.991  10.363   5.140 -0.0987 -0.2721  0.3948
   18MOL0     C 2314   2.872  10.358   5.209  0.5847 -0.1007  0.0274
   18MOL0     C 2315   2.811  10.255   5.296 -0.2047  0.3526 -0.1190
   18MOL0     C 2316   2.715  10.155   5.228  0.7240  0.1345 -0.4494
   18MOL0     C 2317   2.796  10.048   5.152 -0.6058 -0.1009 -0.0599
   18MOL0     C 2318   2.714   9.938   5.103  0.5668  0.5677  0.0565
   18MOL0     O 2319   2.646   9.877   5.218  0.5731 -0.2647  0.4394
   18MOL0     C 2320   2.519   9.826   5.197 -0.5273  0.4713 -0.2515
   18MOL0     C 2321   2.491   9.722   5.105 -0.4961 -0.5444 -0.0659
   18MOL0     C 2322   2.363   9.675   5.087  0.5884 -1.2679  0.4347
   18MOL0     C 2323   2.354   9.563   4.979  0.6315 -0.0053  0.5168
   18MOL0     C 2324   2.254   9.737   5.157 -0.7279  0.0066  0.2936
   18MOL0     C 2325   2.119   9.714   5.123 -0.0801  0.3870  0.8241
   18MOL0     O 2326   2.092   9.657   5.002 -0.3444  0.3356  0.1176
   18MOL0     C 2327   1.970   9.649   4.941 -0.4443  0.8383 -0.2842
   18MOL0     C 2328   1.843   9.678   4.994  0.4135 -0.6193  0.6790
   18MOL0     C 2329   1.731   9.670   4.913 -0.6569  0.6446  0.6097
   18MOL0     C 2330   1.734   9.620   4.780  0.1550  0.3845 -0.0965
   18MOL0     O 2331   1.626   9.601   4.698  0.1161 -0.5517 -1.0671
   18MOL0     C 2332   1.500   9.654   4.754 -0.4081  0.6352 -0.6041
   18MOL0     C 2333   1.382   9.620   4.663 -0.0947  1.0789  0.0595
   18MOL0     C 2334   1.262   9.719   4.704  0.7916 -0.2341 -0.3402
   18MOL0     C 2335   1.147   9.680   4.610  0.2907 -0.4990  0.2184
   18MOL0     C 2336   1.011   9.747   4.631 -0.1669 -0.0851 -0.6000
   18MOL0     C 2337   0.901   9.688   4.541 -0.1429  0.0257 -1.2041
   18MOL0     C 2338   0.767   9.761   4.572  0.0044 -0.4005  0.1952
   18MOL0     C 2339   0.649   9.687   4.496 -0.1767  0.7569  0.1582
   18MOL0    Cl 2340   0.677   9.706   4.326 -0.3978  0.0325 -0.2301
   18MOL0     C 2341   1.857   9.581   4.728  0.5418  0.2096 -0.0952
   18MOL0     C 2342   1.972   9.594   4.805 -0.6021 -0.7804 -0.0796
   18MOL0     O 2343   2.035   9.738   5.206  0.3517  0.5442  0.1413
   18MOL0     C 2344   2.289   9.826   5.259  0.5349 -0.3822  0.8672
   18MOL0     C 2345   2.423   9.872   5.284 -1.0135  0.2249 -0.1004
   18MOL0     N 2346   2.801  10.471   5.175  0.3393  0.1505  0.3715
   18MOL0     N 2347   2.875  10.546   5.099 -1.1828  0.2010 -0.6664
   18MOL0     C 2348   4.056  10.433   4.842 -0.0256 -0.8144  0.2189
   18MOL0     C 2349   4.119  10.342   4.755 -0.4930 -0.0923 -0.5911
   18MOL0     C 2350   4.335  10.144   4.429  0.4192 -0.4680 -0.6574
   18MOL0     C 2351   4.378  10.010   4.426 -0.8456  0.5758 -0.2773
   18MOL0     C 2352   4.499   9.983   4.363 -0.4630 -0.5225  0.1899
   18MOL0     C 2353   4.581  10.081   4.309 -0.2289 -0.4132 -0.0369
   18MOL0     O 2354   4.707  10.064   4.259 -0.0360 -0.0601 -0.1240
   18MOL0     C 2355   4.754   9.930   4.230  0.3866  0.1253 -0.4134
   18MOL0     C 2356   4.891   9.934   4.153 -0.2221 -0.2956  0.3318
   18MOL0     C 2357   5.009   9.909   4.243  0.0404  0.5507  0.4944
   18MOL0     C 2358   5.046  10.026   4.333  0.8234 -0.7291  0.7368
   18MOL0     C 2359   5.176   9.991   4.398 -0.0095  0.4218  0.2646
   18MOL0     C 2360   5.271   9.940   4.448  0.0652 -0.4503 -0.5721
   18MOL0     C 2361   4.537  10.211   4.311 -0.2244 -0.0744 -0.0782
   18MOL0     C 2362   4.420  10.248   4.370 -0.5733  0.5497 -0.7848
   18MOL0     H 2363   4.189  10.578   4.522 -1.3035  0.7328 -0.1606
   18MOL0     H 2364   4.103  10.716   4.687  2.1404  0.2872  0.5314
   18MOL0     H 2365   3.788  10.598   4.866  0.5515 -0.5809  0.1221
   18MOL0     H 2366   3.846  10.543   5.024 -0.7223  1.8082  1.2278
   18MOL0     H 2367   3.884  10.730   5.111  0.9383 -0.3457 -0.6177
   18MOL0     H 2368   3.814  10.829   4.971 -0.2385 -0.7879 -1.1643
   18MOL0     H 2369   3.677  10.620   5.143 -2.4260 -0.2022 -0.0916
   18MOL0     H 2370   3.663  10.792   5.179  1.9672 -0.1059  0.5736
   18MOL0     H 2371   3.532  10.832   4.969  0.2297 -0.4063 -1.1950
   18MOL0     H 2372   3.589  10.675   4.905 -0.8055  1.7909 -2.0196
   18MOL0     H 2373   3.432  10.558   5.063 -1.1761 -0.0483 -0.5443
   18MOL0     H 2374   3.417  10.695   5.158  0.3420 -3.2390  1.1481
   18MOL0     H 2375   3.307  10.826   4.957  1.4222  0.0561 -0.6077
   18MOL0     H 2376   3.308  10.678   4.874 -0.6041  1.3949 -0.6665
   18MOL0     H 2377   3.182  10.663   5.155 -1.4549 -1.5082  0.6731
   18MOL0     H 2378   3.093  10.748   5.028  0.4958 -0.2820 -1.8832
   18MOL0     H 2379   3.190  10.455   4.998 -1.3074 -2.5552  0.9325
   18MOL0     H 2380   3.072  10.544   4.905 -0.2085 -0.8348  0.2902
   18MOL0     H 2381   3.059  10.279   5.128  1.5844  1.2547 -1.3461
   18MOL0     H 2382   2.891  10.211   5.356 -1.7630 -2.4437  0.0783
   18MOL0     H 2383   2.749  10.317   5.360 -0.4820 -0.4835  0.4352
   18MOL0     H 2384   2.642  10.191   5.156  1.6034 -2.8121 -3.0391
   18MOL0     H 2385   2.650  10.112   5.305 -1.1647  1.2503 -1.3608
   18MOL0     H 2386   2.869  10.008   5.223 -0.2958  1.9081  0.7969
   18MOL0     H 2387   2.859  10.087   5.071  1.2664  1.3207  1.9659
   18MOL0     H 2388   2.774   9.855   5.065  1.0438  0.6737  0.5701
   18MOL0     H 2389   2.642   9.971   5.028  1.1807 -0.5636 -1.0500
   18MOL0     H 2390   2.568   9.672   5.046  0.3547  0.6248  0.0269
   18MOL0     H 2391   2.451   9.515   4.966  0.7828 -0.1148  1.8966
   18MOL0     H 2392   2.279   9.485   4.993 -0.8851  0.9651 -1.6672
   18MOL0     H 2393   2.328   9.615   4.887 -0.5501  5.4181  3.4751
   18MOL0     H 2394   1.832   9.737   5.084 -3.3584  0.2884 -0.2205
   18MOL0     H 2395   1.636   9.698   4.957 -0.8442  0.0424  0.6014
   18MOL0     H 2396   1.479   9.594   4.843  0.0310  1.9782  0.4374
   18MOL0     H 2397   1.503   9.761   4.778 -2.6179  0.4831  0.6609
   18MOL0     H 2398   1.405   9.652   4.560 -2.5007 -0.8599 -1.1873
   18MOL0     H 2399   1.346   9.517   4.667  0.8313  0.7274 -0.2606
   18MOL0     H 2400   1.294   9.817   4.669  3.8044 -0.7578  0.6756
   18MOL0     H 2401   1.232   9.696   4.807 -2.2992 -0.7146 -1.2180
   18MOL0     H 2402   1.170   9.708   4.507  0.7168  0.8559  0.6674
   18MOL0     H 2403   1.131   9.572   4.622 -2.4968 -0.2909 -0.8726
   18MOL0     H 2404   1.018   9.856   4.630 -0.5233 -0.0024  1.3785
   18MOL0     H 2405   0.983   9.718   4.733  0.5181  2.4281  0.3707
   18MOL0     H 2406   0.934   9.702   4.438  0.0549 -1.8518 -1.4357
   18MOL0     H 2407   0.897   9.579   4.548  1.8942 -0.2614 -3.0914
   18MOL0     H 2408   0.775   9.868   4.549  0.0984 -0.2310  1.0041
   18MOL0     H 2409   0.745   9.751   4.678 -2.5892 -0.2181 -0.2741
   18MOL0     H 2410   0.547   9.712   4.529 -1.3906 -2.2205 -0.9649
   18MOL0     H 2411   0.642   9.582   4.526 -1.0531  0.1383 -2.0268
   18MOL0     H 2412   1.872   9.541   4.628  0.0359  0.4430 -0.2664
   18MOL0     H 2413   2.066   9.580   4.753 -1.5144 -1.0702 -1.7191
   18MOL0     H 2414   2.218   9.856   5.335 -0.3067 -0.3506  0.0750
   18MOL0     H 2415   2.446   9.935   5.369 -2.1726  0.3631  0.1212
   18MOL0     H 2416   4.024  10.397   4.939  0.1372 -2.6809 -0.3759
   18MOL0     H 2417   4.121  10.235   4.773 -0.3069  0.0377  0.1992
   18MOL0     H 2418   4.317   9.928   4.464 -1.5926  1.4252  0.4186
   18MOL0     H 2419   4.536   9.881   4.356 -1.5118 -0.8256 -1.6517
   18MOL0     H 2420   4.762   9.870   4.322 -2.7036 -0.5512 -0.4661
   18MOL0     H 2421   4.679   9.869   4.178 -0.3640  1.2313 -0.6800
   18MOL0     H 2422   4.903  10.031   4.103 -1.7981  0.0762  0.6265
   18MOL0     H 2423   4.887   9.856   4.077  0.4389 -1.1779  1.1711
   18MOL0     H 2424   5.090   9.876   4.178  0.1845  0.3117  0.7888
   18MOL0     H 2425   4.985   9.822   4.305  0.7041 -0.8372 -1.1142
   18MOL0     H 2426   4.968  10.039   4.409  0.3626  0.9221  0.0323
   18MOL0     H 2427   5.044  10.112   4.265 -0.6572 -2.0167 -0.9694
   18MOL0     H 2428   5.372   9.911   4.472 -0.5108 -0.8967  1.5616
   18MOL0     H 2429   4.610  10.277   4.266  0.4626 -0.8471 -0.1152
   18MOL0     H 2430   4.403  10.353   4.389  1.6037  0.7793  0.1352
   19MOL0     O 2431   3.943   7.552   1.393  0.4596 -0.0610  0.4057
   19MOL0     C 2432   4.017   7.586   1.302  0.1346  0.4838 -0.2405
   19MOL0     O 2433   3.985   7.642   1.188  0.5217 -0.6893  0.9246
   19MOL0     C 2434   3.853   7.648   1.149  0.2460 -0.2208  0.0844
   19MOL0     C 2435   3.762   7.711   1.230  0.7051  0.9995 -0.6232
   19MOL0     C 2436   3.627   7.714   1.190 -0.4489 -0.1714 -0.7884
   19MOL0     C 2437   3.584   7.634   1.080 -0.2307 -0.1247 -0.0005
   19MOL0     O 2438   3.449   7.639   1.057 -0.6307  1.0026  0.2594
   19MOL0     C 2439   3.405   7.524   0.981  0.7731  0.5289  0.3658
   19MOL0     C 2440   3.269   7.478   1.019  0.3372  0.1130 -1.0958
   19MOL0     C 2441   3.196   7.375   0.924  0.2637  0.9434 -0.3913
   19MOL0     C 2442   3.067   7.310   1.000 -0.8563  0.7932  0.1808
   19MOL0     C 2443   3.012   7.186   0.931 -0.4802 -0.6196 -0.6091
   19MOL0     C 2444   2.934   7.229   0.808  1.1779 -0.1752  0.4227
   19MOL0     C 2445   2.865   7.104   0.746  0.3184  0.4065 -0.0642
   19MOL0     C 2446   2.840   7.121   0.591  0.0133  0.0857 -0.1925
   19MOL0     N 2447   2.754   7.011   0.540  0.3772  0.4484 -0.1278
   19MOL0     C 2448   2.635   7.028   0.471  0.2765 -0.4377  0.2834
   19MOL0     C 2449   2.596   6.905   0.453  0.4668 -0.7107  1.0725
   19MOL0     C 2450   2.469   6.880   0.365 -0.6369  0.6703  0.8532
   19MOL0     C 2451   2.344   6.947   0.417 -0.0629  0.3239 -0.4013
   19MOL0     C 2452   2.302   6.859   0.523 -0.0069  0.0335  0.3124
   19MOL0     C 2453   2.160   6.905   0.586 -1.0620 -0.0744 -0.1858
   19MOL0     O 2454   2.058   6.900   0.484  0.1968  0.5762 -1.0928
   19MOL0     C 2455   1.934   6.871   0.516  0.3435  0.4360 -0.1725
   19MOL0     C 2456   1.866   6.794   0.420 -0.0776  0.5033  0.2910
   19MOL0     C 2457   1.736   6.741   0.436 -0.2470 -0.0176 -0.4778
   19MOL0     C 2458   1.692   6.641   0.330  0.6983  0.5404  0.1462
   19MOL0     C 2459   1.674   6.775   0.558  1.0102  0.7102  0.4738
   19MOL0     C 2460   1.536   6.736   0.590  0.3286 -0.5443 -0.7761
   19MOL0     O 2461   1.500   6.747   0.730  0.2617  0.3873 -0.5450
   19MOL0     C 2462   1.372   6.710   0.769  0.5174  0.4912 -0.3302
   19MOL0     C 2463   1.251   6.747   0.704 -0.0695 -0.2901 -1.1685
   19MOL0     C 2464   1.132   6.716   0.746  0.5942  0.6601 -0.4099
   19MOL0     C 2465   1.120   6.634   0.859  0.1057 -0.0929 -0.2203
   19MOL0     O 2466   0.992   6.601   0.900  0.3831  0.5363  0.0611
   19MOL0     C 2467   0.977   6.511   1.017 -0.2045 -0.5505 -0.8101
   19MOL0     C 2468   0.829   6.514   1.051  0.0556  0.2605 -0.2674
   19MOL0     C 2469   0.809   6.445   1.184 -0.1701  1.1919  1.2945
   19MOL0     C 2470   0.659   6.429   1.226 -0.5653  0.4611  1.3158
   19MOL0     C 2471   0.594   6.564   1.256 -0.2369 -0.4610  0.2117
   19MOL0     C 2472   0.444   6.554   1.287 -0.6198 -0.2938  0.0590
   19MOL0     C 2473   0.361   6.477   1.181 -0.2163 -0.7564 -0.2452
   19MOL0     C 2474   0.213   6.528   1.177 -0.1934  0.0090 -0.9590
   19MOL0    Cl 2475   0.142   6.530   1.339 -0.3096 -0.2751  0.1219
   19MOL0     C 2476   1.235   6.593   0.924 -0.5122 -0.2278  0.4809
   19MOL0     C 2477   1.365   6.634   0.884  0.5466  1.1687  0.3001
   19MOL0     O 2478   1.463   6.690   0.508 -0.3848 -0.5382 -0.9357
   19MOL0     C 2479   1.741   6.849   0.657 -0.5865 -0.1126  0.4105
   19MOL0     C 2480   1.870   6.896   0.631  0.1419  1.0385  0.5270
   19MOL0     N 2481   2.690   6.812   0.497  0.0588  0.3338  0.0202
   19MOL0     N 2482   2.777   6.876   0.559 -0.3803 -0.0985 -0.5142
   19MOL0     C 2483   3.683   7.568   1.003 -0.4090 -0.3402 -0.8960
   19MOL0     C 2484   3.816   7.575   1.042 -0.6175 -0.2968  0.8606
   19MOL0     C 2485   4.168   7.581   1.315 -0.3878  0.7986  0.0764
   19MOL0     C 2486   4.228   7.637   1.427  0.5702 -0.1518 -0.5547
   19MOL0     C 2487   4.368   7.651   1.437  0.2556 -0.0655  0.3941
   19MOL0     C 2488   4.444   7.603   1.338 -0.4394  0.4782  0.8006
   19MOL0     O 2489   4.578   7.619   1.360 -0.0861 -0.1181  0.9285
   19MOL0     C 2490   4.659   7.501   1.360  0.6656  0.0081 -0.2514
   19MOL0     C 2491   4.756   7.499   1.248  0.1890  0.0778 -0.1319
   19MOL0     C 2492   4.849   7.373   1.260 -1.1714 -0.1345 -0.0117
   19MOL0     C 2493   4.944   7.358   1.143  0.3850  0.1135  0.6997
   19MOL0     C 2494   4.888   7.305   1.020  0.2748  0.5351 -0.3822
   19MOL0     C 2495   4.856   7.273   0.911  0.0035 -0.0959 -0.1260
   19MOL0     C 2496   4.386   7.546   1.221  0.2963  0.4292 -1.0145
   19MOL0     C 2497   4.249   7.536   1.206 -0.0628  0.1038 -1.0087
   19MOL0     H 2498   3.789   7.768   1.318  2.1762 -2.3210  1.2396
   19MOL0     H 2499   3.555   7.768   1.251  0.5242 -1.0699  1.2386
   19MOL0     H 2500   3.401   7.550   0.875  0.8580  0.2718  0.3005
   19MOL0     H 2501   3.461   7.431   0.990 -0.5970 -0.1879  1.9602
   19MOL0     H 2502   3.272   7.430   1.118 -0.9269 -2.1328 -2.0684
   19MOL0     H 2503   3.201   7.562   1.034 -0.1756 -0.4888  0.1360
   19MOL0     H 2504   3.175   7.428   0.831  4.1285  1.3628 -1.1975
   19MOL0     H 2505   3.271   7.300   0.898 -0.4428  0.3662 -0.7807
   19MOL0     H 2506   3.083   7.272   1.102 -1.6265 -2.3569 -0.7707
   19MOL0     H 2507   2.991   7.388   1.008 -1.2442  0.8994 -3.2940
   19MOL0     H 2508   3.089   7.119   0.892 -0.8199  1.6327 -5.9524
   19MOL0     H 2509   2.944   7.133   0.999 -0.9960  1.5584  0.6662
   19MOL0     H 2510   2.859   7.299   0.845  0.4777 -1.2702  1.1498
   19MOL0     H 2511   2.998   7.282   0.738 -1.0686  0.6711 -1.0835
   19MOL0     H 2512   2.928   7.020   0.777  1.9037  1.9926  1.2147
   19MOL0     H 2513   2.771   7.084   0.798  0.7707 -1.1237  0.2011
   19MOL0     H 2514   2.934   7.132   0.537 -0.9363  0.0524 -1.9030
   19MOL0     H 2515   2.782   7.212   0.571 -0.8367 -0.2798  0.5011
   19MOL0     H 2516   2.591   7.122   0.442 -1.0554  0.0369  3.3736
   19MOL0     H 2517   2.497   6.925   0.269 -0.1791  1.1981  1.2249
   19MOL0     H 2518   2.456   6.772   0.354  4.2290 -0.2354  1.5131
   19MOL0     H 2519   2.267   6.971   0.343 -1.3829  2.4622  1.5685
   19MOL0     H 2520   2.368   7.047   0.454  1.2624  0.1576 -0.7342
   19MOL0     H 2521   2.373   6.835   0.603 -0.3063  0.5630  0.7455
   19MOL0     H 2522   2.275   6.765   0.475  0.6171  0.4876 -0.9592
   19MOL0     H 2523   2.175   7.008   0.618 -2.6687 -0.3295  1.6393
   19MOL0     H 2524   2.138   6.853   0.680  0.1000 -0.1466  0.0569
   19MOL0     H 2525   1.911   6.763   0.326 -2.5081  0.6778 -0.9937
   19MOL0     H 2526   1.746   6.649   0.235 -0.8964 -1.0424 -0.9548
   19MOL0     H 2527   1.694   6.535   0.359 -2.8792  0.6265  1.2570
   19MOL0     H 2528   1.588   6.662   0.305  0.0789 -0.6144  1.6029
   19MOL0     H 2529   1.266   6.815   0.621 -0.1652  0.6544 -0.4308
   19MOL0     H 2530   1.046   6.749   0.690  0.8400  1.8715 -0.0883
   19MOL0     H 2531   1.017   6.411   1.000 -0.9549 -0.8064 -1.1380
   19MOL0     H 2532   1.031   6.555   1.100 -0.0745 -0.0758 -1.1402
   19MOL0     H 2533   0.787   6.614   1.061  3.0405  1.3960  2.3696
   19MOL0     H 2534   0.782   6.465   0.965  0.3855 -0.7611  0.1148
   19MOL0     H 2535   0.857   6.507   1.260  0.5112 -2.0433  3.7348
   19MOL0     H 2536   0.853   6.344   1.184 -1.9657  0.1314 -3.7155
   19MOL0     H 2537   0.608   6.379   1.144  0.5382  0.4680  0.6107
   19MOL0     H 2538   0.652   6.356   1.308 -0.9110 -0.9237  0.0940
   19MOL0     H 2539   0.602   6.614   1.160 -0.8676 -0.9472 -0.1011
   19MOL0     H 2540   0.660   6.612   1.330  2.5199 -1.6112 -1.3506
   19MOL0     H 2541   0.429   6.511   1.386  1.0265 -0.8981  0.0785
   19MOL0     H 2542   0.399   6.654   1.295  1.5591  1.2316 -3.7867
   19MOL0     H 2543   0.364   6.372   1.214 -0.2720  0.4407  4.2973
   19MOL0     H 2544   0.394   6.496   1.079 -2.1783  0.5776 -0.6751
   19MOL0     H 2545   0.154   6.470   1.104  0.6561 -1.0870 -0.8059
   19MOL0     H 2546   0.227   6.629   1.137  1.5179  1.1157  2.1149
   19MOL0     H 2547   1.223   6.530   1.012 -5.1167 -0.7372 -0.2560
   19MOL0     H 2548   1.458   6.614   0.935  0.1341  1.6370  1.2620
   19MOL0     H 2549   1.702   6.888   0.750  0.6314 -2.5882  2.0931
   19MOL0     H 2550   1.925   6.938   0.715 -0.9975 -0.7428  2.2517
   19MOL0     H 2551   3.675   7.515   0.908  0.1929  0.7469 -1.5780
   19MOL0     H 2552   3.892   7.536   0.975  0.4460  3.7585 -0.5768
   19MOL0     H 2553   4.173   7.678   1.511  1.2517  0.8201 -0.5723
   19MOL0     H 2554   4.412   7.700   1.523  0.5453  1.2497 -0.4716
   19MOL0     H 2555   4.725   7.498   1.446  0.7507  2.7251 -0.1443
   19MOL0     H 2556   4.605   7.406   1.360  0.2794  0.1957 -1.7144
   19MOL0     H 2557   4.814   7.591   1.245  0.7610 -0.2354  0.7566
   19MOL0     H 2558   4.694   7.488   1.158 -1.5479  0.3162  0.9863
   19MOL0     H 2559   4.789   7.282   1.274  0.7410 -1.2978  1.1070
   19MOL0     H 2560   4.902   7.376   1.355  0.8183  0.6781 -1.0854
   19MOL0     H 2561   5.014   7.285   1.183  2.3953  1.5021 -0.1193
   19MOL0     H 2562   4.999   7.453   1.135  2.3716 -0.9069  1.5976
   19MOL0     H 2563   4.829   7.239   0.813  1.9139 -0.1435 -0.6635
   19MOL0     H 2564   4.456   7.533   1.139  0.1912  0.8447 -1.1700
   19MOL0     H 2565   4.211   7.504   1.110  1.4645 -1.2732 -1.1976
   20MOL0     O 2566   3.089   3.213   7.345 -0.5853 -0.4198  0.5122
   20MOL0     C 2567   3.193   3.161   7.372 -0.4390  0.2723 -0.7154
   20MOL0     O 2568   3.224   3.065   7.475 -0.4633 -0.2557  0.1296
   20MOL0     C 2569   3.111   3.009   7.523  0.0505  0.3083  0.6879
   20MOL0     C 2570   3.075   2.892   7.458  0.4331  1.2581 -0.6647
   20MOL0     C 2571   2.962   2.823   7.517  0.2132 -0.2931  0.2189
   20MOL0     C 2572   2.895   2.880   7.627 -0.0125  0.3987 -0.0930
   20MOL0     O 2573   2.777   2.822   7.674  0.5683 -0.4536 -0.0089
   20MOL0     C 2574   2.742   2.687   7.650  0.9661  0.2878  0.3980
   20MOL0     C 2575   2.638   2.630   7.746 -0.7313 -0.0081  0.7935
   20MOL0     C 2576   2.506   2.700   7.738 -0.0562 -0.1278 -0.1165
   20MOL0     C 2577   2.419   2.632   7.839  0.0622  0.1590 -0.3293
   20MOL0     C 2578   2.292   2.703   7.888  0.7041  0.6774 -0.3786
   20MOL0     C 2579   2.202   2.778   7.784  1.2487  0.2037  0.0977
   20MOL0     C 2580   2.091   2.857   7.853  0.1855  0.8184  0.1642
   20MOL0     C 2581   2.004   2.925   7.749  0.5678  0.7742 -0.1708
   20MOL0     N 2582   1.900   3.012   7.816 -1.3032  0.3318 -0.0624
   20MOL0     C 2583   1.863   3.141   7.776 -0.2097 -0.0958  0.7146
   20MOL0     C 2584   1.762   3.181   7.861  0.3606  0.2997 -0.1696
   20MOL0     C 2585   1.704   3.324   7.865  0.4530  0.5272  0.5310
   20MOL0     C 2586   1.566   3.322   7.803  0.7236  0.5783 -0.5982
   20MOL0     C 2587   1.567   3.348   7.652 -0.1112 -0.6460 -0.0087
   20MOL0     C 2588   1.426   3.350   7.591  0.0243 -0.5738  0.4367
   20MOL0     O 2589   1.395   3.491   7.575 -0.4173 -0.3736  0.2345
   20MOL0     C 2590   1.288   3.522   7.497 -0.2815  0.1070 -0.0889
   20MOL0     C 2591   1.199   3.437   7.437  1.3200  0.1352 -0.7961
   20MOL0     C 2592   1.085   3.477   7.364 -0.5317 -0.1407 -0.1644
   20MOL0     C 2593   0.993   3.365   7.330  0.5402  0.1976 -0.5694
   20MOL0     C 2594   1.056   3.618   7.356 -0.9265 -0.0083 -0.1034
   20MOL0     C 2595   0.932   3.675   7.301  0.1330 -0.1715 -0.1715
   20MOL0     O 2596   0.904   3.798   7.347  0.5891  0.1215  0.2022
   20MOL0     C 2597   0.778   3.853   7.365 -0.8217  0.6689 -0.8492
   20MOL0     C 2598   0.654   3.803   7.317 -0.7451 -0.6789 -1.0635
   20MOL0     C 2599   0.538   3.870   7.351 -0.0664 -0.7266  0.2617
   20MOL0     C 2600   0.541   3.987   7.427 -0.0597  0.0866 -0.9222
   20MOL0     O 2601   0.415   4.033   7.455 -0.4149  0.6804  0.1838
   20MOL0     C 2602   0.404   4.170   7.487 -0.0673  0.6999  0.3133
   20MOL0     C 2603   0.254   4.200   7.485 -0.3544  0.0673 -0.2768
   20MOL0     C 2604   0.194   4.169   7.344  0.0572 -0.3390 -0.9715
   20MOL0     C 2605   0.083   4.052   7.356 -0.5931  0.5964 -0.2311
   20MOL0     C 2606   0.013   4.027   7.225 -0.4554  0.3573 -0.1110
   20MOL0     C 2607  -0.097   4.131   7.188  0.0763 -0.4262  0.1205
   20MOL0     C 2608  -0.120   4.124   7.042 -0.2368  0.3465  0.7136
   20MOL0     C 2609  -0.194   3.990   7.002  0.0795  0.7114 -0.9374
   20MOL0    Cl 2610  -0.246   4.010   6.838  0.0509  0.4595 -0.0558
   20MOL0     C 2611   0.658   4.036   7.466 -1.0630  0.0607 -0.7369
   20MOL0     C 2612   0.782   3.975   7.434  0.3470 -1.1000 -0.4291
   20MOL0     O 2613   0.864   3.605   7.225  0.0287  0.1965  0.4949
   20MOL0     C 2614   1.148   3.702   7.415 -0.5771 -0.1257  0.0699
   20MOL0     C 2615   1.269   3.655   7.475 -0.4359  0.1521  0.1920
   20MOL0     N 2616   1.737   3.081   7.956  0.8124  0.0109 -0.1950
   20MOL0     N 2617   1.817   2.991   7.921  0.3534  0.1474  0.7271
   20MOL0     C 2618   2.924   3.001   7.674 -0.1334  1.6336  0.3050
   20MOL0     C 2619   3.042   3.063   7.628  0.0780  0.1948 -0.5961
   20MOL0     C 2620   3.312   3.200   7.287  0.1892  0.6138  0.2703
   20MOL0     C 2621   3.307   3.309   7.197 -0.7851 -0.1578 -1.1393
   20MOL0     C 2622   3.421   3.346   7.124  0.7681  0.6386 -0.3424
   20MOL0     C 2623   3.535   3.268   7.137  0.0425 -0.1015 -0.3411
   20MOL0     O 2624   3.652   3.305   7.065 -0.0330  0.7095 -0.1677
   20MOL0     C 2625   3.746   3.201   7.047  0.0601 -0.0179  0.2503
   20MOL0     C 2626   3.838   3.260   6.929  0.2983 -0.9803 -0.8717
   20MOL0     C 2627   3.981   3.219   6.925  0.1811  0.1470 -0.8482
   20MOL0     C 2628   4.053   3.291   6.805  0.5858 -0.0703 -0.0597
   20MOL0     C 2629   4.078   3.198   6.693  0.3079  0.2000 -0.4857
   20MOL0     C 2630   4.103   3.118   6.603 -0.4529 -0.7345 -0.0082
   20MOL0     C 2631   3.547   3.160   7.226  0.0147  0.2021 -0.9620
   20MOL0     C 2632   3.428   3.124   7.303 -0.5617 -0.4053  0.3690
   20MOL0     H 2633   3.138   2.855   7.378  0.1983  1.8326 -1.1283
   20MOL0     H 2634   2.948   2.722   7.480  1.0718 -0.1102 -0.6254
   20MOL0     H 2635   2.702   2.693   7.549 -1.0744 -1.7014  1.0054
   20MOL0     H 2636   2.824   2.614   7.646  0.0652 -0.6740 -1.7355
   20MOL0     H 2637   2.625   2.525   7.719  1.6562  0.2474 -1.8678
   20MOL0     H 2638   2.677   2.635   7.848 -1.4138 -1.7566  1.1748
   20MOL0     H 2639   2.521   2.801   7.778  0.4036 -0.3462  0.2658
   20MOL0     H 2640   2.464   2.713   7.637 -1.7378  3.4884  0.8958
   20MOL0     H 2641   2.393   2.537   7.791 -2.3603  0.7088 -0.2592
   20MOL0     H 2642   2.468   2.602   7.932 -1.1814  1.1703  0.6832
   20MOL0     H 2643   2.233   2.628   7.941 -3.5062  3.3979 -0.7412
   20MOL0     H 2644   2.316   2.767   7.974  0.1928 -2.8898  2.7128
   20MOL0     H 2645   2.251   2.853   7.720 -3.1868  0.7703 -3.0930
   20MOL0     H 2646   2.148   2.707   7.722 -0.2147  1.3856 -0.0529
   20MOL0     H 2647   2.015   2.797   7.904 -0.3806  0.8388 -0.6428
   20MOL0     H 2648   2.133   2.923   7.929 -1.5808  1.5621  0.5366
   20MOL0     H 2649   1.953   2.849   7.689  1.8793 -0.7564  0.5473
   20MOL0     H 2650   2.059   2.990   7.681 -1.4640  2.4373 -0.3285
   20MOL0     H 2651   1.895   3.196   7.688  2.1662 -2.4726 -0.0491
   20MOL0     H 2652   1.688   3.351   7.970  0.4667  0.9583  0.4258
   20MOL0     H 2653   1.775   3.393   7.818  2.1243 -0.7917  0.9890
   20MOL0     H 2654   1.499   3.390   7.857  1.5537  1.1401 -0.2544
   20MOL0     H 2655   1.516   3.225   7.819  0.2069  1.0716  0.9381
   20MOL0     H 2656   1.616   3.262   7.605  0.4267 -0.6319  0.5159
   20MOL0     H 2657   1.624   3.437   7.625  0.1475 -1.4567 -2.3986
   20MOL0     H 2658   1.352   3.296   7.650  0.0876 -1.2182 -0.0612
   20MOL0     H 2659   1.427   3.305   7.491 -4.5183 -0.1032 -0.0665
   20MOL0     H 2660   1.204   3.330   7.453  0.0350 -0.2325 -2.5537
   20MOL0     H 2661   1.020   3.267   7.372  2.2428  2.0291  3.0403
   20MOL0     H 2662   0.896   3.390   7.374  1.4988  1.7980  0.7232
   20MOL0     H 2663   0.997   3.347   7.222  2.2008 -1.5549 -0.2779
   20MOL0     H 2664   0.654   3.719   7.248  1.3778 -1.4560 -0.1894
   20MOL0     H 2665   0.450   3.815   7.318 -0.8435 -0.4362  1.7816
   20MOL0     H 2666   0.448   4.190   7.585 -0.8430  0.2175  0.7749
   20MOL0     H 2667   0.456   4.224   7.407  1.9052 -1.5076 -0.0238
   20MOL0     H 2668   0.205   4.137   7.560 -0.0424  0.0864 -0.0576
   20MOL0     H 2669   0.235   4.306   7.501  1.1955  0.3611 -0.2759
   20MOL0     H 2670   0.268   4.139   7.269  0.5028  1.6891 -1.4137
   20MOL0     H 2671   0.144   4.259   7.307  1.6304  1.3943  0.8821
   20MOL0     H 2672   0.129   3.958   7.386 -0.9952  0.9701  1.7051
   20MOL0     H 2673   0.017   4.073   7.442  0.4283 -0.0898  0.7454
   20MOL0     H 2674  -0.034   3.929   7.222 -0.0464  0.1057  1.1136
   20MOL0     H 2675   0.095   4.028   7.152 -1.7819  0.1849 -1.6621
   20MOL0     H 2676  -0.188   4.100   7.241 -1.0537  0.8345 -1.0194
   20MOL0     H 2677  -0.068   4.235   7.209  1.5011 -0.1390 -2.7673
   20MOL0     H 2678  -0.024   4.126   6.989 -1.8418  1.0059 -2.4321
   20MOL0     H 2679  -0.179   4.212   7.017 -2.9683 -1.2673  1.0741
   20MOL0     H 2680  -0.286   3.973   7.060 -0.8686  1.4831 -2.1530
   20MOL0     H 2681  -0.124   3.907   7.016 -1.1146  0.0839  2.0587
   20MOL0     H 2682   0.662   4.136   7.509  0.8147 -0.5989  0.7807
   20MOL0     H 2683   0.876   4.008   7.478 -0.1989 -2.6600  2.0923
   20MOL0     H 2684   1.128   3.809   7.420  2.1120  0.3857  3.4000
   20MOL0     H 2685   1.342   3.720   7.521 -0.1418  1.2493 -1.7178
   20MOL0     H 2686   2.853   3.042   7.744 -0.0079  0.2097  1.3093
   20MOL0     H 2687   3.072   3.158   7.670 -0.6636  0.6008 -0.9622
   20MOL0     H 2688   3.231   3.386   7.198 -0.3848  0.3613  2.3530
   20MOL0     H 2689   3.419   3.429   7.055  1.4660  0.6189 -0.3905
   20MOL0     H 2690   3.805   3.183   7.137  2.9426  0.1801 -1.5007
   20MOL0     H 2691   3.690   3.114   7.011 -1.0277  0.9362 -0.4267
   20MOL0     H 2692   3.841   3.369   6.930  0.3104 -0.9628 -1.9387
   20MOL0     H 2693   3.798   3.224   6.834 -1.6363 -2.8471  0.5379
   20MOL0     H 2694   3.987   3.110   6.917  3.2120  0.0889  0.7449
   20MOL0     H 2695   4.021   3.261   7.018 -1.0740  3.4761 -1.6717
   20MOL0     H 2696   4.138   3.348   6.842  0.3421 -1.5378  3.0834
   20MOL0     H 2697   3.996   3.374   6.762 -0.7819 -1.6832 -1.5162
   20MOL0     H 2698   4.117   3.036   6.535  2.2468  0.1458 -0.6268
   20MOL0     H 2699   3.636   3.101   7.245 -0.8407 -2.2862 -4.0079
   20MOL0     H 2700   3.430   3.043   7.375 -3.8867 -0.7715  0.2292
   21MOL0     O 2701   0.236   2.869   6.440 -0.1144  0.5147  0.6379
   21MOL0     C 2702   0.349   2.829   6.414  0.4607 -0.1177  0.1616
   21MOL0     O 2703   0.421   2.746   6.489 -0.4743 -0.1826  0.3458
   21MOL0     C 2704   0.348   2.696   6.590 -0.5392  0.4219 -0.6650
   21MOL0     C 2705   0.231   2.618   6.576 -0.5836  0.4392 -0.2527
   21MOL0     C 2706   0.137   2.595   6.677  0.1730  0.2143  0.0156
   21MOL0     C 2707   0.166   2.644   6.804  0.1751  1.1874 -0.5238
   21MOL0     O 2708   0.081   2.655   6.914 -0.3273 -0.0597  0.3639
   21MOL0     C 2709  -0.045   2.591   6.916 -0.7992 -0.3072 -0.0272
   21MOL0     C 2710  -0.035   2.434   6.903 -0.3609  0.5550  0.6314
   21MOL0     C 2711  -0.164   2.366   6.944  0.7463  1.2825 -0.0252
   21MOL0     C 2712  -0.137   2.211   6.946 -0.6330  0.4505 -1.2511
   21MOL0     C 2713  -0.268   2.154   6.969  0.5795  0.4762 -0.3559
   21MOL0     C 2714  -0.268   2.005   6.952  0.0535 -0.3540 -0.6175
   21MOL0     C 2715  -0.408   1.952   6.911 -0.2737 -1.0058  0.1498
   21MOL0     C 2716  -0.516   1.976   7.020 -0.7999  0.6752 -0.2339
   21MOL0     N 2717  -0.643   1.949   6.974  0.0268  0.6137  0.3070
   21MOL0     C 2718  -0.691   1.825   6.962  0.6824 -0.8670  0.7319
   21MOL0     C 2719  -0.829   1.848   6.940 -0.6806 -0.0089 -0.0675
   21MOL0     C 2720  -0.925   1.727   6.920 -0.2552  0.2792  0.1749
   21MOL0     C 2721  -0.975   1.699   6.776 -0.1656  0.0420  0.2643
   21MOL0     C 2722  -1.042   1.570   6.736 -0.4687 -0.2357 -0.6958
   21MOL0     C 2723  -0.953   1.450   6.689 -0.3233 -0.0761 -1.0141
   21MOL0     O 2724  -0.872   1.386   6.791 -0.7265  0.2940  0.3448
   21MOL0     C 2725  -0.736   1.376   6.791 -0.1245  0.2800  0.2331
   21MOL0     C 2726  -0.654   1.492   6.766  0.1155  0.5762 -0.1215
   21MOL0     C 2727  -0.509   1.483   6.772  0.6100  0.3180  0.1572
   21MOL0     C 2728  -0.439   1.610   6.744 -0.4672  0.1795  0.2348
   21MOL0     C 2729  -0.451   1.366   6.790 -0.1532  0.6637  0.3848
   21MOL0     C 2730  -0.299   1.340   6.774 -0.2433  0.1478 -0.9761
   21MOL0     O 2731  -0.239   1.410   6.669 -0.3129  0.5690 -0.2399
   21MOL0     C 2732  -0.104   1.383   6.637 -0.5482  0.6510  0.3663
   21MOL0     C 2733   0.011   1.356   6.711 -0.2476 -0.2432  0.1288
   21MOL0     C 2734   0.128   1.326   6.643  0.1462 -0.2234 -0.0744
   21MOL0     C 2735   0.137   1.333   6.501 -0.5877 -0.1002  0.3597
   21MOL0     O 2736   0.250   1.308   6.424  0.2303  0.6849  0.3170
   21MOL0     C 2737   0.362   1.276   6.494 -0.9122  0.7399  0.1526
   21MOL0     C 2738   0.488   1.286   6.402 -0.0828  0.1454  0.1126
   21MOL0     C 2739   0.477   1.183   6.291 -0.5950  0.9708  0.3912
   21MOL0     C 2740   0.614   1.168   6.221 -0.0696  0.4314 -0.5381
   21MOL0     C 2741   0.604   1.120   6.078  0.3761 -0.7784  0.7402
   21MOL0     C 2742   0.742   1.122   6.014 -0.4110  0.6307  0.4131
   21MOL0     C 2743   0.727   1.119   5.858 -0.0221  0.1822  0.3157
   21MOL0     C 2744   0.697   0.982   5.802  0.9323 -0.0234  0.0550
   21MOL0    Cl 2745   0.619   0.978   5.655  0.0111  0.0477  0.1373
   21MOL0     C 2746   0.018   1.362   6.431 -0.6293 -0.2901 -0.4673
   21MOL0     C 2747  -0.094   1.392   6.499  0.1854 -0.3571  0.7341
   21MOL0     O 2748  -0.254   1.244   6.837 -0.5877 -0.1681 -0.4448
   21MOL0     C 2749  -0.537   1.250   6.814 -0.4944  0.4750  0.6386
   21MOL0     C 2750  -0.675   1.258   6.807 -0.7873 -0.9888 -0.3397
   21MOL0     N 2751  -0.854   1.986   6.942  0.2822  0.0314 -0.1200
   21MOL0     N 2752  -0.743   2.039   6.955 -0.3202 -0.3238  0.1136
   21MOL0     C 2753   0.286   2.711   6.830 -1.2653  0.0766  0.6659
   21MOL0     C 2754   0.378   2.740   6.723  0.3041  0.1945 -0.3035
   21MOL0     C 2755   0.410   2.884   6.295 -0.2251 -0.4786  0.2603
   21MOL0     C 2756   0.553   2.895   6.288 -0.5143  0.5656 -0.6590
   21MOL0     C 2757   0.607   2.910   6.161  0.2472 -0.7947 -0.8032
   21MOL0     C 2758   0.525   2.914   6.044 -0.2663  0.0219 -0.3043
   21MOL0     O 2759   0.557   2.931   5.909 -0.6732 -1.0145  0.8118
   21MOL0     C 2760   0.697   2.954   5.887 -0.2359 -0.8910 -0.9924
   21MOL0     C 2761   0.725   2.984   5.740  0.4367 -0.1502  0.4218
   21MOL0     C 2762   0.872   2.997   5.695  0.2885  0.0751  0.1788
   21MOL0     C 2763   0.864   3.092   5.576  0.1352 -0.0003 -0.3640
   21MOL0     C 2764   0.801   3.027   5.464 -0.4028 -0.0691 -0.0398
   21MOL0     C 2765   0.747   2.989   5.361 -0.1737  0.5072 -0.0290
   21MOL0     C 2766   0.386   2.910   6.064 -0.0581  0.0923 -0.1327
   21MOL0     C 2767   0.325   2.913   6.191  0.6187  0.7580  0.4271
   21MOL0     H 2768   0.217   2.578   6.476  0.9078 -0.3301 -0.1828
   21MOL0     H 2769   0.044   2.543   6.656 -0.5171  1.8008 -1.0520
   21MOL0     H 2770  -0.095   2.611   7.012  0.9815  0.3028  0.8098
   21MOL0     H 2771  -0.110   2.635   6.840 -1.2605  2.6084  1.8760
   21MOL0     H 2772  -0.008   2.403   6.802 -3.0256  1.5657 -0.4556
   21MOL0     H 2773   0.038   2.406   6.981  0.7853 -2.6520 -1.3959
   21MOL0     H 2774  -0.200   2.397   7.043 -0.8131  3.0411 -1.0798
   21MOL0     H 2775  -0.240   2.399   6.873 -0.5778  0.0223  0.7523
   21MOL0     H 2776  -0.098   2.167   6.854 -0.0107  0.1869 -0.8696
   21MOL0     H 2777  -0.076   2.168   7.026 -3.1064 -1.8504 -0.4535
   21MOL0     H 2778  -0.297   2.188   7.069  0.5246  2.2685 -0.9417
   21MOL0     H 2779  -0.342   2.194   6.899 -0.6938 -1.9000 -0.4743
   21MOL0     H 2780  -0.190   1.983   6.878  0.7387 -1.1473  0.3253
   21MOL0     H 2781  -0.238   1.950   7.041 -2.7592  0.0127  0.6397
   21MOL0     H 2782  -0.442   2.000   6.819 -1.2297  2.6845  2.2518
   21MOL0     H 2783  -0.385   1.846   6.895 -0.8384 -0.6443 -4.4510
   21MOL0     H 2784  -0.514   2.084   7.035  3.7728  0.5315  1.6495
   21MOL0     H 2785  -0.507   1.926   7.117 -0.8995  0.7334 -0.1939
   21MOL0     H 2786  -0.654   1.723   6.961  1.5162 -0.5779  0.9095
   21MOL0     H 2787  -0.865   1.641   6.952 -0.1216  0.2714 -0.1004
   21MOL0     H 2788  -1.010   1.739   6.988 -0.9884 -1.2767 -0.4079
   21MOL0     H 2789  -0.885   1.709   6.715  0.3490  3.2826  1.3855
   21MOL0     H 2790  -1.042   1.784   6.760 -0.7269 -0.0795  1.7512
   21MOL0     H 2791  -1.101   1.592   6.647  2.0568  2.0499 -1.9315
   21MOL0     H 2792  -1.107   1.542   6.820  2.5647 -1.9653  1.2532
   21MOL0     H 2793  -0.886   1.502   6.620 -0.3641  0.7210 -0.4680
   21MOL0     H 2794  -1.016   1.381   6.631  0.2420 -1.0707 -0.4872
   21MOL0     H 2795  -0.698   1.590   6.756  4.0055  2.4457 -0.6889
   21MOL0     H 2796  -0.405   1.615   6.641 -2.1773 -1.1602 -0.4344
   21MOL0     H 2797  -0.498   1.700   6.766 -2.0261  0.2010 -3.4003
   21MOL0     H 2798  -0.351   1.621   6.808 -0.0240  1.4944 -0.5612
   21MOL0     H 2799  -0.005   1.369   6.817 -1.9930  2.6941 -0.3836
   21MOL0     H 2800   0.194   1.295   6.724 -2.3452 -1.4815  1.6119
   21MOL0     H 2801   0.370   1.340   6.583 -0.8102 -0.6812  1.2005
   21MOL0     H 2802   0.347   1.175   6.532 -1.3184  0.6330 -0.2878
   21MOL0     H 2803   0.489   1.376   6.341  2.4296 -0.4907 -0.9027
   21MOL0     H 2804   0.575   1.280   6.468 -1.6335 -1.7397  2.1345
   21MOL0     H 2805   0.399   1.217   6.222  0.5630 -0.3704 -1.6477
   21MOL0     H 2806   0.442   1.087   6.330 -4.4942  2.6352  1.4998
   21MOL0     H 2807   0.671   1.261   6.222  0.2368  0.3327  2.7673
   21MOL0     H 2808   0.678   1.097   6.275 -0.5965  1.3600  1.4069
   21MOL0     H 2809   0.537   1.191   6.029  2.7618  2.3973  1.8123
   21MOL0     H 2810   0.551   1.024   6.083 -1.1582  0.0333  0.5666
   21MOL0     H 2811   0.800   1.206   6.051  0.2710 -1.7487  5.5692
   21MOL0     H 2812   0.796   1.030   6.036 -0.3165  0.7560  0.7060
   21MOL0     H 2813   0.825   1.152   5.823  0.0926  0.7421  1.1406
   21MOL0     H 2814   0.649   1.190   5.830  0.4839  0.1275 -1.3129
   21MOL0     H 2815   0.638   0.913   5.863 -1.3985  0.3221 -1.6659
   21MOL0     H 2816   0.795   0.935   5.793  2.2008  2.5511 -0.5339
   21MOL0     H 2817   0.037   1.371   6.324  0.0205  0.2231 -0.3110
   21MOL0     H 2818  -0.183   1.419   6.443 -0.9796 -2.0916  1.6487
   21MOL0     H 2819  -0.488   1.163   6.855  1.9071  3.3563  4.6898
   21MOL0     H 2820  -0.728   1.164   6.813 -2.2398 -0.0878  2.5629
   21MOL0     H 2821   0.326   2.751   6.923  2.1586  0.6204 -0.8755
   21MOL0     H 2822   0.464   2.806   6.732  0.1118  0.2722  1.1504
   21MOL0     H 2823   0.619   2.894   6.374  1.3980 -0.5494 -2.0504
   21MOL0     H 2824   0.715   2.921   6.163  0.0714  1.4939  0.5724
   21MOL0     H 2825   0.734   3.044   5.937  1.6573 -1.5868 -1.0534
   21MOL0     H 2826   0.761   2.870   5.913 -1.6624 -2.2687 -1.7431
   21MOL0     H 2827   0.662   3.072   5.720 -0.7528 -0.8884  0.7755
   21MOL0     H 2828   0.671   2.911   5.678  1.7993 -1.3647  0.6199
   21MOL0     H 2829   0.922   2.902   5.675 -1.0537 -0.3971 -1.0508
   21MOL0     H 2830   0.926   3.040   5.780 -1.5055 -1.3447  2.0906
   21MOL0     H 2831   0.962   3.122   5.536  0.0669 -1.3192 -1.5956
   21MOL0     H 2832   0.814   3.184   5.609 -0.3858 -0.4376  0.0664
   21MOL0     H 2833   0.690   2.970   5.272  0.6622  0.6966 -0.6200
   21MOL0     H 2834   0.329   2.941   5.978  0.1223 -0.2578 -0.3834
   21MOL0     H 2835   0.217   2.916   6.195  0.5170 -0.8161 -0.5199
   22MOL0     O 2836   1.015   4.423   3.381 -0.0918  0.3187  0.3102
   22MOL0     C 2837   1.055   4.478   3.279 -0.4113 -0.1955 -0.0620
   22MOL0     O 2838   1.172   4.538   3.266  0.0707 -0.2617  0.7836
   22MOL0     C 2839   1.254   4.544   3.373  0.5168  0.3631  0.4309
   22MOL0     C 2840   1.360   4.445   3.387 -0.1690 -0.0575  0.2001
   22MOL0     C 2841   1.453   4.453   3.489 -0.7241 -1.1689 -0.4421
   22MOL0     C 2842   1.458   4.564   3.580  0.2736 -0.6211  0.0832
   22MOL0     O 2843   1.536   4.586   3.687  0.1643 -0.3632 -0.6310
   22MOL0     C 2844   1.677   4.551   3.692 -0.1536  0.0738  0.2015
   22MOL0     C 2845   1.718   4.533   3.838 -0.5082 -0.2745 -0.4678
   22MOL0     C 2846   1.722   4.678   3.902 -0.3369 -0.2272  0.2304
   22MOL0     C 2847   1.596   4.737   3.966  0.1772 -0.8254 -0.2411
   22MOL0     C 2848   1.533   4.646   4.076  0.1347  0.1632  0.8517
   22MOL0     C 2849   1.416   4.555   4.032 -0.5371  0.6220 -0.8336
   22MOL0     C 2850   1.294   4.638   3.974  0.9481 -0.4289 -0.0211
   22MOL0     C 2851   1.183   4.526   3.977  0.4524 -0.5809  0.2805
   22MOL0     N 2852   1.066   4.579   3.904 -0.4229 -0.1584  0.2802
   22MOL0     C 2853   1.061   4.601   3.768  0.1974  0.2788  0.3819
   22MOL0     C 2854   0.930   4.617   3.749 -0.4463  0.5013  0.0513
   22MOL0     C 2855   0.872   4.651   3.615 -0.0971  0.6425 -0.2151
   22MOL0     C 2856   0.730   4.585   3.591  0.0869 -0.5351  0.5176
   22MOL0     C 2857   0.697   4.622   3.449  0.1961 -0.5214  0.4963
   22MOL0     C 2858   0.569   4.569   3.411 -0.2508  0.0374  0.0471
   22MOL0     O 2859   0.463   4.636   3.477 -0.9224 -0.6456  0.2943
   22MOL0     C 2860   0.336   4.611   3.439 -0.2054  0.8357 -0.4515
   22MOL0     C 2861   0.233   4.690   3.496  0.2212 -0.7830 -0.3653
   22MOL0     C 2862   0.098   4.680   3.459 -0.7041  0.2874  0.1610
   22MOL0     C 2863   0.000   4.785   3.512 -0.0695  0.2182 -0.7954
   22MOL0     C 2864   0.073   4.573   3.363  0.3079  0.0047  0.4463
   22MOL0     C 2865  -0.063   4.548   3.310  0.1949 -0.7605  0.4981
   22MOL0     O 2866  -0.081   4.472   3.196  0.4056  0.3244 -0.7711
   22MOL0     C 2867  -0.210   4.451   3.161 -0.2793  1.0771 -0.9478
   22MOL0     C 2868  -0.295   4.550   3.108 -0.2675 -0.7933 -0.5202
   22MOL0     C 2869  -0.426   4.526   3.057 -0.0151  0.7423  0.6034
   22MOL0     C 2870  -0.452   4.388   3.037 -0.2370 -0.2518 -0.4985
   22MOL0     O 2871  -0.570   4.365   2.963 -0.2869 -0.3488 -0.1979
   22MOL0     C 2872  -0.671   4.287   3.025 -0.9732  0.7329 -0.6493
   22MOL0     C 2873  -0.730   4.368   3.140  0.9095 -0.1204 -0.2971
   22MOL0     C 2874  -0.823   4.274   3.227 -0.3771 -0.5779  0.1192
   22MOL0     C 2875  -0.891   4.363   3.332 -0.8786 -0.7391  0.3462
   22MOL0     C 2876  -0.942   4.274   3.442  0.4789 -0.8514  0.0905
   22MOL0     C 2877  -0.984   4.361   3.552 -0.1644  0.1207  0.4048
   22MOL0     C 2878  -1.025   4.277   3.671 -0.1968 -0.2854 -0.4291
   22MOL0     C 2879  -1.096   4.370   3.765 -0.4594  0.3560 -0.2966
   22MOL0    Cl 2880  -1.185   4.282   3.899 -0.0341 -0.1956 -0.5372
   22MOL0     C 2881  -0.373   4.290   3.093 -0.9459 -0.4751  0.6895
   22MOL0     C 2882  -0.251   4.318   3.154 -0.0050 -0.4318 -0.0650
   22MOL0     O 2883  -0.161   4.587   3.375  0.3383 -0.1986 -0.0170
   22MOL0     C 2884   0.169   4.485   3.315 -0.3990 -0.5613  0.9667
   22MOL0     C 2885   0.301   4.506   3.346  0.1922  0.0489 -0.3152
   22MOL0     N 2886   0.858   4.622   3.875 -0.3975 -0.1733  0.2148
   22MOL0     N 2887   0.948   4.593   3.967 -0.0835  0.2369  0.3702
   22MOL0     C 2888   1.362   4.661   3.566  0.3966  0.1322 -0.0306
   22MOL0     C 2889   1.260   4.649   3.468  1.0650 -0.2315 -0.0824
   22MOL0     C 2890   0.949   4.494   3.175 -1.2380  0.5288 -0.3835
   22MOL0     C 2891   0.835   4.414   3.173 -0.0242 -0.4070  0.3453
   22MOL0     C 2892   0.736   4.422   3.068 -0.1634  0.7969  0.2342
   22MOL0     C 2893   0.751   4.517   2.970 -0.6498 -0.2323  0.0407
   22MOL0     O 2894   0.671   4.552   2.870  0.6669  0.6708 -0.5582
   22MOL0     C 2895   0.574   4.455   2.826 -0.1316 -0.2749 -0.0877
   22MOL0     C 2896   0.461   4.448   2.922  0.7770  0.9117  0.7132
   22MOL0     C 2897   0.321   4.458   2.868 -1.3105  0.6282  0.1570
   22MOL0     C 2898   0.229   4.453   2.991 -0.6365  0.4825 -0.8109
   22MOL0     C 2899   0.217   4.322   3.047  0.6633  0.2901 -0.4662
   22MOL0     C 2900   0.181   4.208   3.076  0.0778  0.2290 -1.4310
   22MOL0     C 2901   0.861   4.602   2.971  0.9928  0.3694 -0.1074
   22MOL0     C 2902   0.951   4.590   3.083 -0.2794  0.9720 -0.1733
   22MOL0     H 2903   1.382   4.360   3.323  0.5674 -0.8376  1.4453
   22MOL0     H 2904   1.535   4.383   3.489  0.9656  0.6311 -3.1971
   22MOL0     H 2905   1.699   4.463   3.631  0.2479 -0.6828  1.4039
   22MOL0     H 2906   1.725   4.643   3.657 -2.0744  1.6135  1.3633
   22MOL0     H 2907   1.653   4.459   3.885  0.6173  0.2958  2.1799
   22MOL0     H 2908   1.824   4.506   3.831 -0.8826 -1.4937 -1.8928
   22MOL0     H 2909   1.790   4.662   3.987  0.4366 -1.2635 -0.5549
   22MOL0     H 2910   1.767   4.757   3.842 -1.4853  1.9908  2.1031
   22MOL0     H 2911   1.624   4.826   4.023  3.6557 -1.7521 -0.2795
   22MOL0     H 2912   1.521   4.760   3.889 -0.1459 -2.5515 -0.4761
   22MOL0     H 2913   1.618   4.584   4.106 -0.5754 -2.2393 -1.6917
   22MOL0     H 2914   1.510   4.711   4.161 -1.6003 -1.3075  1.5456
   22MOL0     H 2915   1.448   4.480   3.959 -0.9580 -0.6488  0.2531
   22MOL0     H 2916   1.401   4.501   4.125 -1.0000  1.0846 -0.6343
   22MOL0     H 2917   1.260   4.724   4.032 -0.4569  0.2565 -1.7752
   22MOL0     H 2918   1.299   4.668   3.869 -1.1652 -5.1980 -1.8022
   22MOL0     H 2919   1.164   4.492   4.079  1.2705  0.1933  0.7012
   22MOL0     H 2920   1.217   4.435   3.926  0.4409 -0.6626  0.4184
   22MOL0     H 2921   1.139   4.590   3.693  2.3353  0.1387  2.5221
   22MOL0     H 2922   0.874   4.761   3.609 -0.1679  0.7324  1.1096
   22MOL0     H 2923   0.939   4.619   3.535 -2.0689 -1.0492 -1.2810
   22MOL0     H 2924   0.662   4.633   3.662  2.5522 -1.4109  3.7345
   22MOL0     H 2925   0.735   4.476   3.605  0.1726 -0.5744  0.1819
   22MOL0     H 2926   0.770   4.585   3.375  0.9012  1.9632 -0.1461
   22MOL0     H 2927   0.705   4.729   3.429 -0.5462  0.2677  3.8281
   22MOL0     H 2928   0.573   4.468   3.452 -0.5472  0.0386  0.0828
   22MOL0     H 2929   0.569   4.569   3.301  2.0603 -1.6660 -0.0392
   22MOL0     H 2930   0.260   4.765   3.570 -0.3569 -0.9679  0.0473
   22MOL0     H 2931   0.042   4.868   3.570  2.7526 -1.6074 -0.0449
   22MOL0     H 2932  -0.051   4.823   3.422 -0.0839 -0.1903 -0.9615
   22MOL0     H 2933  -0.074   4.733   3.572  0.7753  0.0490  0.1228
   22MOL0     H 2934  -0.263   4.653   3.117 -0.3989 -0.7004 -1.0468
   22MOL0     H 2935  -0.487   4.606   3.017  0.0485 -0.1115 -1.3125
   22MOL0     H 2936  -0.750   4.260   2.956 -0.3346  0.7718 -1.4048
   22MOL0     H 2937  -0.622   4.195   3.060 -0.8776  1.7917  2.3418
   22MOL0     H 2938  -0.658   4.414   3.208  0.3793  1.9552 -1.0735
   22MOL0     H 2939  -0.794   4.450   3.105  0.2937 -1.5557 -2.7757
   22MOL0     H 2940  -0.778   4.183   3.269  1.4130 -0.0950 -0.6477
   22MOL0     H 2941  -0.895   4.234   3.155 -1.4462 -0.2743  1.0028
   22MOL0     H 2942  -0.812   4.430   3.368 -0.6696 -0.2389 -1.0095
   22MOL0     H 2943  -0.965   4.429   3.287  0.3282 -0.1702 -0.8623
   22MOL0     H 2944  -0.867   4.200   3.470 -0.6747 -2.1611 -0.1906
   22MOL0     H 2945  -1.024   4.215   3.400 -0.9144  1.6912 -1.0313
   22MOL0     H 2946  -0.901   4.428   3.579 -1.9967  2.3772  0.7706
   22MOL0     H 2947  -1.067   4.428   3.527 -1.3024 -1.3501  0.1128
   22MOL0     H 2948  -0.946   4.215   3.715 -1.7213 -1.5575  0.6297
   22MOL0     H 2949  -1.098   4.210   3.625  0.5963 -2.1566  0.8918
   22MOL0     H 2950  -1.179   4.405   3.703 -0.0014 -1.2969 -1.9048
   22MOL0     H 2951  -1.026   4.447   3.800  2.7763 -1.9472 -1.3185
   22MOL0     H 2952  -0.392   4.185   3.074 -1.1588 -0.2819 -0.1984
   22MOL0     H 2953  -0.192   4.232   3.181 -1.1506 -1.1224  0.3269
   22MOL0     H 2954   0.136   4.396   3.262 -0.3280 -1.7945  2.8850
   22MOL0     H 2955   0.374   4.430   3.319  0.7153  0.2102  0.6084
   22MOL0     H 2956   1.339   4.741   3.636 -4.6877  0.1642 -1.2858
   22MOL0     H 2957   1.180   4.722   3.470  0.4970 -0.8335 -0.3915
   22MOL0     H 2958   0.828   4.326   3.237 -0.0232  1.8345  3.6960
   22MOL0     H 2959   0.652   4.354   3.069 -0.6116  1.3145 -0.6513
   22MOL0     H 2960   0.540   4.490   2.728  0.9684  2.4280  0.4170
   22MOL0     H 2961   0.622   4.358   2.811  2.6255  1.2856 -2.2830
   22MOL0     H 2962   0.476   4.522   3.002  0.5353  0.4426  1.2009
   22MOL0     H 2963   0.462   4.347   2.964 -0.8967 -0.0776 -1.4237
   22MOL0     H 2964   0.305   4.372   2.803  1.9339 -1.4973  1.9093
   22MOL0     H 2965   0.304   4.551   2.813 -0.3833  1.3874  1.1090
   22MOL0     H 2966   0.129   4.482   2.958 -0.3938 -1.4738 -3.6606
   22MOL0     H 2967   0.268   4.525   3.064 -1.4052  1.1791 -1.0680
   22MOL0     H 2968   0.140   4.111   3.092  1.3825  0.2429  3.3689
   22MOL0     H 2969   0.854   4.674   2.890 -5.8523  1.1908  0.6084
   22MOL0     H 2970   1.032   4.660   3.070 -1.0292  2.4482  2.4476
   23MOL0     O 2971   3.077   8.612   5.819 -0.0152 -0.0904 -0.9499
   23MOL0     C 2972   3.142   8.713   5.793  1.2814  0.5670 -0.0396
   23MOL0     O 2973   3.086   8.832   5.748  0.0685  0.0104 -0.3908
   23MOL0     C 2974   2.950   8.839   5.727  0.5269 -0.1441  0.2880
   23MOL0     C 2975   2.897   8.809   5.606 -0.5215  0.8690 -0.7545
   23MOL0     C 2976   2.762   8.818   5.582  0.1914 -0.1728 -0.0680
   23MOL0     C 2977   2.670   8.860   5.691  0.5404 -0.1074 -0.2176
   23MOL0     O 2978   2.530   8.859   5.680  0.1313 -0.7994  0.3645
   23MOL0     C 2979   2.468   8.923   5.568  0.7086 -0.0581 -1.0383
   23MOL0     C 2980   2.324   8.958   5.606  0.0868 -0.3097  0.6843
   23MOL0     C 2981   2.223   8.887   5.504 -0.2664  0.7207  0.4674
   23MOL0     C 2982   2.078   8.929   5.537 -0.9260  0.9932 -0.2999
   23MOL0     C 2983   1.975   8.867   5.440  0.2842 -0.6834 -0.1938
   23MOL0     C 2984   1.841   8.957   5.456 -0.1153 -1.0803 -0.2615
   23MOL0     C 2985   1.725   8.879   5.385 -0.2011 -0.5652 -0.7332
   23MOL0     C 2986   1.608   8.973   5.353  0.2144 -0.0525  0.1797
   23MOL0     N 2987   1.505   8.895   5.279  0.3969  0.5261  0.1368
   23MOL0     C 2988   1.498   8.856   5.153 -0.7140  0.1412  0.1714
   23MOL0     C 2989   1.374   8.807   5.140 -0.1749  0.9920  0.7491
   23MOL0     C 2990   1.309   8.734   5.029 -1.1068  0.3067  0.1090
   23MOL0     C 2991   1.217   8.826   4.955  1.0887 -0.1357 -1.0643
   23MOL0     C 2992   1.122   8.728   4.875 -0.1457  0.4271  0.1308
   23MOL0     C 2993   1.015   8.800   4.791 -0.1582 -0.3931 -0.5509
   23MOL0     O 2994   0.927   8.865   4.878  1.0355 -0.0803 -0.3940
   23MOL0     C 2995   0.816   8.796   4.926 -0.5074  0.9059  0.0772
   23MOL0     C 2996   0.773   8.663   4.905 -1.1570  0.1235  0.2194
   23MOL0     C 2997   0.644   8.613   4.931 -0.2479 -0.8700 -0.4813
   23MOL0     C 2998   0.624   8.469   4.926  0.9711 -0.2924 -1.0951
   23MOL0     C 2999   0.547   8.699   4.994  0.1978  0.2885  0.0986
   23MOL0     C 3000   0.415   8.656   5.035  0.5099  0.0649  0.5156
   23MOL0     O 3001   0.325   8.763   5.039 -0.2623 -0.6263 -0.5198
   23MOL0     C 3002   0.188   8.725   5.042 -0.6206  0.0518 -0.9748
   23MOL0     C 3003   0.115   8.819   4.967 -0.6254 -0.0626  0.1617
   23MOL0     C 3004  -0.020   8.823   4.964  0.3320  0.5609  0.3953
   23MOL0     C 3005  -0.096   8.739   5.044 -0.7221 -0.3190  0.1995
   23MOL0     O 3006  -0.226   8.741   5.062 -0.3383 -0.4574 -0.4256
   23MOL0     C 3007  -0.317   8.810   4.973 -0.5118 -0.4751 -0.3903
   23MOL0     C 3008  -0.464   8.777   5.010  0.1848 -0.3779  0.3615
   23MOL0     C 3009  -0.534   8.866   5.119 -0.6806 -0.8258 -0.4138
   23MOL0     C 3010  -0.679   8.861   5.083  0.1246 -0.4940  0.2091
   23MOL0     C 3011  -0.746   8.740   5.134  0.8773  0.2324  0.7674
   23MOL0     C 3012  -0.901   8.754   5.094  0.4853  0.5671 -0.2830
   23MOL0     C 3013  -0.976   8.853   5.183 -0.3200  0.6681  0.7298
   23MOL0     C 3014  -1.122   8.837   5.158  0.6648 -0.2672  1.0534
   23MOL0    Cl 3015  -1.219   8.971   5.224  0.1129 -0.0189 -0.0726
   23MOL0     C 3016  -0.022   8.641   5.113 -0.1828 -0.0470 -0.4200
   23MOL0     C 3017   0.117   8.623   5.117 -0.3318  0.8452 -1.1588
   23MOL0     O 3018   0.391   8.540   5.071 -0.4008  0.2218  0.3279
   23MOL0     C 3019   0.593   8.825   5.020  0.1069 -0.8275 -1.0349
   23MOL0     C 3020   0.721   8.872   4.994  0.0282  0.3383  0.1954
   23MOL0     N 3021   1.311   8.817   5.261  0.2374 -0.2541 -0.1212
   23MOL0     N 3022   1.388   8.872   5.339  0.4739  0.3889 -0.4227
   23MOL0     C 3023   2.733   8.888   5.815 -0.5738  0.3268  1.0620
   23MOL0     C 3024   2.871   8.890   5.831  0.0535  0.3094  0.3427
   23MOL0     C 3025   3.280   8.719   5.851 -0.0213 -0.0734  0.8053
   23MOL0     C 3026   3.332   8.627   5.944  0.4393 -0.4079 -0.1920
   23MOL0     C 3027   3.461   8.632   6.001 -0.0900 -0.1669  0.0738
   23MOL0     C 3028   3.544   8.735   5.964  0.2081 -0.1803 -0.4281
   23MOL0     O 3029   3.669   8.754   6.013 -0.0264 -0.5270  0.2056
   23MOL0     C 3030   3.731   8.624   6.037 -0.8643  0.2402 -0.5683
   23MOL0     C 3031   3.882   8.622   6.037 -0.2928  0.1467  0.7857
   23MOL0     C 3032   3.969   8.651   5.911 -0.3165 -0.1784  0.6726
   23MOL0     C 3033   3.976   8.805   5.904  0.6408 -0.1026 -0.5068
   23MOL0     C 3034   4.080   8.828   5.798  1.1141  0.5345 -0.3516
   23MOL0     C 3035   4.157   8.843   5.706 -0.0501 -0.8655 -0.4236
   23MOL0     C 3036   3.495   8.831   5.872  0.2502 -0.0174  0.2371
   23MOL0     C 3037   3.361   8.829   5.820  0.9769  0.1257 -0.1691
   23MOL0     H 3038   2.961   8.776   5.525  1.0618  2.9488 -0.4410
   23MOL0     H 3039   2.719   8.811   5.482 -1.3640  3.4962  0.2109
   23MOL0     H 3040   2.531   9.007   5.537  2.6382 -0.7720  0.7166
   23MOL0     H 3041   2.474   8.850   5.486  0.4097 -0.9721 -0.2614
   23MOL0     H 3042   2.296   8.946   5.711  0.5430  0.5898  0.9132
   23MOL0     H 3043   2.308   9.065   5.590 -0.8283 -0.9711 -4.7197
   23MOL0     H 3044   2.256   8.907   5.402 -3.9328  2.6197 -0.5091
   23MOL0     H 3045   2.234   8.778   5.513  4.5034  0.7498 -1.8892
   23MOL0     H 3046   2.068   8.902   5.642  0.9491 -0.1510 -0.3728
   23MOL0     H 3047   2.067   9.038   5.531 -1.3120  1.0609  1.1858
   23MOL0     H 3048   1.996   8.863   5.333 -2.2961 -0.4055 -0.7942
   23MOL0     H 3049   1.951   8.765   5.474  3.9644 -2.0620 -1.3014
   23MOL0     H 3050   1.803   8.976   5.558 -1.1151  1.9025 -1.0940
   23MOL0     H 3051   1.858   9.057   5.418 -0.6062  0.1028  2.3752
   23MOL0     H 3052   1.768   8.844   5.290  0.3562 -0.4315 -0.5299
   23MOL0     H 3053   1.694   8.795   5.447  2.2408 -0.8578  0.1870
   23MOL0     H 3054   1.643   9.059   5.296 -0.1334  0.5352  0.8305
   23MOL0     H 3055   1.559   8.999   5.447 -1.3711 -2.8943  0.2653
   23MOL0     H 3056   1.584   8.850   5.086  0.4300  2.3827  1.3148
   23MOL0     H 3057   1.386   8.705   4.956  0.0883  2.3206  0.5082
   23MOL0     H 3058   1.261   8.641   5.060  0.4257  0.0277  1.8461
   23MOL0     H 3059   1.259   8.904   4.891 -0.0052  0.9722 -0.4683
   23MOL0     H 3060   1.150   8.880   5.022  0.0935 -1.7277 -0.7215
   23MOL0     H 3061   1.070   8.659   4.942  0.1953  0.0395 -0.0031
   23MOL0     H 3062   1.180   8.668   4.805  0.1709  0.8262  0.0438
   23MOL0     H 3063   0.976   8.730   4.717 -0.4072  1.7571 -2.6004
   23MOL0     H 3064   1.081   8.870   4.737  2.1157 -0.0812  2.4037
   23MOL0     H 3065   0.847   8.610   4.845  0.7288  1.2888  1.3928
   23MOL0     H 3066   0.628   8.426   5.027  2.0950 -3.0485 -2.2129
   23MOL0     H 3067   0.525   8.443   4.889  1.3692  0.7530 -2.9875
   23MOL0     H 3068   0.699   8.420   4.864  2.4667 -2.4944  2.1678
   23MOL0     H 3069   0.170   8.884   4.900  0.3514 -2.0747 -1.0841
   23MOL0     H 3070  -0.071   8.889   4.895 -0.6131 -1.8276 -1.3121
   23MOL0     H 3071  -0.302   8.918   4.973  0.4902 -0.6015  0.5629
   23MOL0     H 3072  -0.304   8.781   4.868 -1.6210  0.9873 -0.9620
   23MOL0     H 3073  -0.526   8.783   4.920 -0.8660 -0.3458  1.0810
   23MOL0     H 3074  -0.478   8.674   5.041 -0.3501 -1.0465 -1.9280
   23MOL0     H 3075  -0.493   8.965   5.095 -3.6814  0.2492 -1.6595
   23MOL0     H 3076  -0.509   8.827   5.217  0.2701 -1.1533 -0.7723
   23MOL0     H 3077  -0.726   8.952   5.122 -0.1473 -0.3992 -0.3352
   23MOL0     H 3078  -0.702   8.870   4.977  1.9479 -1.6083 -0.3258
   23MOL0     H 3079  -0.743   8.743   5.243 -0.5860 -2.2541  0.9500
   23MOL0     H 3080  -0.706   8.647   5.093  0.6719 -0.0680  1.2474
   23MOL0     H 3081  -0.908   8.806   4.998  0.0385  1.8209  0.4066
   23MOL0     H 3082  -0.952   8.658   5.081 -2.3131  1.8590  0.4817
   23MOL0     H 3083  -0.938   8.955   5.172 -0.3082  0.7109  1.1384
   23MOL0     H 3084  -0.956   8.808   5.281  4.0238  0.6718  0.0611
   23MOL0     H 3085  -1.161   8.736   5.174 -1.0352 -0.0153 -1.0936
   23MOL0     H 3086  -1.148   8.847   5.052 -0.8691  1.5307  1.5651
   23MOL0     H 3087  -0.084   8.573   5.171  1.3789 -0.5709  0.7338
   23MOL0     H 3088   0.160   8.550   5.186 -1.2557 -0.1546 -1.6100
   23MOL0     H 3089   0.528   8.888   5.080 -1.5585 -2.0804 -1.4463
   23MOL0     H 3090   0.749   8.973   5.023  1.6302 -0.6144  2.2487
   23MOL0     H 3091   2.669   8.917   5.899 -1.7168 -0.5294  0.5170
   23MOL0     H 3092   2.925   8.921   5.919 -0.7641 -1.7912  1.6783
   23MOL0     H 3093   3.260   8.553   5.977  1.6723 -0.6707  2.1042
   23MOL0     H 3094   3.495   8.566   6.080  1.0945 -0.0037 -0.2829
   23MOL0     H 3095   3.701   8.592   6.137 -0.0514 -0.9740 -0.7003
   23MOL0     H 3096   3.689   8.542   5.978 -1.9011  1.3294 -1.3870
   23MOL0     H 3097   3.911   8.522   6.073  1.2085  0.4321  0.4645
   23MOL0     H 3098   3.927   8.680   6.118  2.4367 -0.0814 -0.4577
   23MOL0     H 3099   3.922   8.609   5.822 -1.6082 -1.5543  1.9456
   23MOL0     H 3100   4.063   8.595   5.910 -0.8207 -1.0609 -0.7738
   23MOL0     H 3101   4.010   8.843   6.001 -1.3222 -2.5563  1.3023
   23MOL0     H 3102   3.875   8.836   5.876 -1.0588 -2.5829  2.2780
   23MOL0     H 3103   4.245   8.836   5.645  1.2896 -1.9205  1.5397
   23MOL0     H 3104   3.571   8.907   5.853  0.7906 -0.9818 -1.6577
   23MOL0     H 3105   3.330   8.903   5.747 -0.5460  0.1279  0.4367
   24MOL0     O 3106  10.912   0.829   0.249  0.0930  0.7127  0.2326
   24MOL0     C 3107  11.009   0.775   0.307 -0.4207  0.3843 -0.5361
   24MOL0     O 3108  11.003   0.669   0.393 -0.1298 -0.4493  0.8898
   24MOL0     C 3109  10.874   0.618   0.422 -0.6420 -0.5998 -0.3644
   24MOL0     C 3110  10.809   0.647   0.548  0.8619  0.5294 -0.0880
   24MOL0     C 3111  10.676   0.598   0.567  0.4478  0.9332  1.2640
   24MOL0     C 3112  10.616   0.525   0.463 -0.2705  0.4858 -0.4895
   24MOL0     O 3113  10.492   0.464   0.480 -0.5125  0.1416  0.1495
   24MOL0     C 3114  10.424   0.469   0.607 -0.2590 -0.7190  0.5507
   24MOL0     C 3115  10.299   0.373   0.624  0.0033  0.4845 -0.9132
   24MOL0     C 3116  10.178   0.420   0.539  0.0454  0.0850  0.2320
   24MOL0     C 3117  10.051   0.352   0.586  1.1434 -0.2740 -0.2971
   24MOL0     C 3118   9.930   0.433   0.534  0.2695  0.1652  0.1416
   24MOL0     C 3119   9.796   0.390   0.590  0.1986 -0.1990 -0.9057
   24MOL0     C 3120   9.751   0.264   0.522  0.7057  0.1600 -0.2473
   24MOL0     C 3121   9.621   0.211   0.581  0.3995  0.6062  0.4715
   24MOL0     N 3122   9.509   0.296   0.625 -0.0862  0.6147 -0.5126
   24MOL0     C 3123   9.488   0.352   0.753 -0.3418  0.6151  1.1276
   24MOL0     C 3124   9.381   0.427   0.751 -0.0065 -0.7826  0.5156
   24MOL0     C 3125   9.303   0.494   0.861  0.0578 -0.9019  0.1114
   24MOL0     C 3126   9.159   0.441   0.889 -0.2630 -0.2508 -0.1292
   24MOL0     C 3127   9.132   0.292   0.878 -0.6673 -0.8733  0.0140
   24MOL0     C 3128   9.004   0.247   0.948  0.1626  0.3624 -0.9307
   24MOL0     O 3129   8.898   0.292   0.865 -0.1618  0.3639  0.3859
   24MOL0     C 3130   8.768   0.299   0.916 -0.4388 -0.3554  0.1260
   24MOL0     C 3131   8.730   0.271   1.049  0.1410  0.4843  0.1994
   24MOL0     C 3132   8.603   0.295   1.087  1.0611  0.2234 -0.2950
   24MOL0     C 3133   8.571   0.270   1.230  0.5074 -0.1519  0.5955
   24MOL0     C 3134   8.500   0.337   0.995 -0.0733 -1.1039  1.3712
   24MOL0     C 3135   8.359   0.351   1.033  0.6983  0.1324 -0.3064
   24MOL0     O 3136   8.270   0.372   0.933  0.0582 -0.1849 -0.0389
   24MOL0     C 3137   8.137   0.395   0.971  0.0325  0.0509  0.3641
   24MOL0     C 3138   8.040   0.297   0.944  0.1698 -0.5719  0.3870
   24MOL0     C 3139   7.903   0.327   0.970 -0.1048 -0.1615 -0.1378
   24MOL0     C 3140   7.870   0.453   1.022 -0.1098 -0.0038 -0.4408
   24MOL0     O 3141   7.734   0.487   1.047 -0.1889  1.1870  0.4928
   24MOL0     C 3142   7.693   0.432   1.174 -0.3470 -0.0353 -0.0780
   24MOL0     C 3143   7.592   0.526   1.242 -0.1836 -0.5440 -0.1902
   24MOL0     C 3144   7.506   0.603   1.137  0.4148  0.7530 -0.5184
   24MOL0     C 3145   7.389   0.674   1.209 -0.2657  0.7050 -0.3847
   24MOL0     C 3146   7.294   0.749   1.110 -0.2317 -0.5835 -0.7016
   24MOL0     C 3147   7.347   0.883   1.040 -0.4881 -0.9507 -0.5160
   24MOL0     C 3148   7.234   0.989   1.033 -0.0451 -0.5541 -1.1489
   24MOL0     C 3149   7.279   1.109   0.959 -0.1873 -0.4220  0.3448
   24MOL0    Cl 3150   7.376   1.220   1.056 -0.2976  0.1567  0.1861
   24MOL0     C 3151   7.968   0.542   1.042 -0.5734 -0.4265 -0.0385
   24MOL0     C 3152   8.105   0.519   1.018  0.5726 -0.4551 -0.2445
   24MOL0     O 3153   8.324   0.337   1.154 -0.2643  0.2546 -0.2508
   24MOL0     C 3154   8.541   0.368   0.862  0.4435  0.8719 -0.3788
   24MOL0     C 3155   8.672   0.352   0.822  0.4711  0.8115  0.2010
   24MOL0     N 3156   9.328   0.409   0.625 -0.1693  0.2725  0.2934
   24MOL0     N 3157   9.407   0.345   0.551  0.4703  0.9223 -0.2530
   24MOL0     C 3158  10.687   0.496   0.351 -0.1472  0.0085 -0.0250
   24MOL0     C 3159  10.812   0.541   0.324  0.2000  0.7854  0.5087
   24MOL0     C 3160  11.142   0.823   0.276  0.6417  0.7150  0.0153
   24MOL0     C 3161  11.255   0.743   0.307 -0.5381  0.2211  0.0259
   24MOL0     C 3162  11.387   0.777   0.266  0.0893 -0.5186 -0.4220
   24MOL0     C 3163  11.398   0.898   0.208  0.0200 -0.1069  0.3807
   24MOL0     O 3164  11.519   0.937   0.164 -0.2453  0.2911  0.3116
   24MOL0     C 3165  11.534   1.002   0.041 -0.2856 -0.0050  0.1531
   24MOL0     C 3166  11.663   0.965  -0.035  0.5873 -0.0245  0.5256
   24MOL0     C 3167  11.785   1.032   0.028  0.3550  0.1154 -0.3714
   24MOL0     C 3168  11.913   0.992  -0.052 -0.6559 -0.0207 -0.4542
   24MOL0     C 3169  12.038   1.045   0.011  0.3478 -0.4850 -0.9773
   24MOL0     C 3170  12.141   1.088   0.055  0.3862  0.0344 -0.1470
   24MOL0     C 3171  11.291   0.986   0.187  0.0526  0.5838 -0.1269
   24MOL0     C 3172  11.160   0.943   0.204  0.4398  0.1402 -0.1061
   24MOL0     H 3173  10.853   0.709   0.626 -1.6614  2.2137  0.0987
   24MOL0     H 3174  10.640   0.611   0.668 -0.2126  2.9867  0.8219
   24MOL0     H 3175  10.507   0.444   0.673  4.2325 -0.2656 -4.2693
   24MOL0     H 3176  10.391   0.572   0.628  0.0158 -0.5960  0.3918
   24MOL0     H 3177  10.335   0.274   0.597 -1.0894 -0.1067 -0.2672
   24MOL0     H 3178  10.270   0.377   0.730 -0.6663  1.8698 -1.1233
   24MOL0     H 3179  10.177   0.528   0.556  0.1838  0.1214  0.0137
   24MOL0     H 3180  10.196   0.418   0.431  0.0164  2.2318  0.1296
   24MOL0     H 3181  10.053   0.252   0.541  0.0495 -0.2953 -0.3262
   24MOL0     H 3182  10.053   0.346   0.695  0.2942 -1.4395 -0.3228
   24MOL0     H 3183   9.953   0.537   0.559  4.1014 -0.5770  0.2188
   24MOL0     H 3184   9.939   0.427   0.425  1.6217 -0.3296  0.2611
   24MOL0     H 3185   9.813   0.379   0.697  0.9805 -2.2992 -1.1739
   24MOL0     H 3186   9.724   0.468   0.565 -0.6981 -0.7260 -0.0316
   24MOL0     H 3187   9.724   0.276   0.416 -0.4009 -0.9281 -0.1140
   24MOL0     H 3188   9.831   0.190   0.526  0.5009 -0.0675 -0.3576
   24MOL0     H 3189   9.649   0.156   0.671 -0.2718  0.2750  0.4825
   24MOL0     H 3190   9.578   0.137   0.513  0.7825 -1.2974  2.1889
   24MOL0     H 3191   9.560   0.339   0.833  2.4439 -0.2992 -1.3501
   24MOL0     H 3192   9.361   0.493   0.954  0.2280  3.1853  0.2241
   24MOL0     H 3193   9.291   0.598   0.831 -1.4611 -1.6584 -2.0844
   24MOL0     H 3194   9.087   0.489   0.822 -0.6113 -0.7628 -0.1336
   24MOL0     H 3195   9.134   0.465   0.992  1.7910  3.0670 -0.2669
   24MOL0     H 3196   9.208   0.223   0.914 -0.9295 -2.3337 -2.0070
   24MOL0     H 3197   9.122   0.271   0.771 -1.2217 -0.8255  0.0538
   24MOL0     H 3198   8.994   0.293   1.047 -1.8312 -2.2135  0.1828
   24MOL0     H 3199   8.988   0.139   0.955 -2.0072  0.7563  1.4151
   24MOL0     H 3200   8.794   0.225   1.123 -0.4673  0.5310  0.7648
   24MOL0     H 3201   8.556   0.364   1.285  0.8099  0.0252  0.3795
   24MOL0     H 3202   8.493   0.201   1.263 -2.8265  2.5041 -1.0852
   24MOL0     H 3203   8.666   0.227   1.263  1.8994 -0.2276 -3.0332
   24MOL0     H 3204   8.060   0.197   0.910  2.6989 -0.5630  1.6113
   24MOL0     H 3205   7.820   0.257   0.958 -1.1973  1.0988 -0.1088
   24MOL0     H 3206   7.651   0.333   1.153  0.5424 -0.2389 -0.9433
   24MOL0     H 3207   7.777   0.424   1.244 -0.7770 -0.7172  0.3811
   24MOL0     H 3208   7.520   0.479   1.310  0.6923 -1.3649  0.1970
   24MOL0     H 3209   7.656   0.585   1.308 -1.0404  1.8564 -1.3890
   24MOL0     H 3210   7.469   0.535   1.059  1.0008  1.5846 -1.5509
   24MOL0     H 3211   7.563   0.674   1.077 -0.3600  1.9637  0.1341
   24MOL0     H 3212   7.329   0.593   1.252  1.2612 -0.4119 -0.2992
   24MOL0     H 3213   7.432   0.740   1.285 -3.0437  0.6826  1.3476
   24MOL0     H 3214   7.195   0.777   1.147  0.8368  3.8652 -0.6152
   24MOL0     H 3215   7.281   0.680   1.027  1.5577 -0.6853 -0.9342
   24MOL0     H 3216   7.433   0.931   1.088 -0.0332 -0.5295 -1.7037
   24MOL0     H 3217   7.377   0.865   0.936 -1.3501  4.9533 -2.1758
   24MOL0     H 3218   7.223   1.019   1.138  1.2043  1.5265 -1.5489
   24MOL0     H 3219   7.140   0.955   0.987 -1.2878  2.1497 -0.8492
   24MOL0     H 3220   7.196   1.170   0.923  1.3891  3.3390  2.5095
   24MOL0     H 3221   7.334   1.076   0.871 -0.4201  0.0307  0.0231
   24MOL0     H 3222   7.932   0.636   1.082 -2.6460 -0.4235 -1.7181
   24MOL0     H 3223   8.179   0.597   1.032 -1.0887  1.0547  0.5385
   24MOL0     H 3224   8.464   0.406   0.796  0.0185  0.1940 -0.2820
   24MOL0     H 3225   8.707   0.377   0.722  0.4258  2.4591  0.5655
   24MOL0     H 3226  10.650   0.423   0.279  0.9047 -2.2092  1.5598
   24MOL0     H 3227  10.872   0.509   0.239 -0.8411 -2.8315  0.9586
   24MOL0     H 3228  11.244   0.642   0.345  2.8415 -0.2042  0.1581
   24MOL0     H 3229  11.479   0.722   0.283  0.0526  0.2250  2.9775
   24MOL0     H 3230  11.451   0.984  -0.027 -0.8131 -1.8281  1.2028
   24MOL0     H 3231  11.537   1.111   0.049 -0.2440 -0.0291  0.4770
   24MOL0     H 3232  11.652   0.992  -0.140 -0.3239 -2.3296 -0.0488
   24MOL0     H 3233  11.671   0.856  -0.026  0.1295 -0.2230 -1.1089
   24MOL0     H 3234  11.787   1.008   0.135  1.8465  1.5687 -0.0380
   24MOL0     H 3235  11.761   1.137   0.039  0.0238  0.0896 -0.8001
   24MOL0     H 3236  11.902   1.019  -0.158 -1.2497  0.6263 -0.2359
   24MOL0     H 3237  11.929   0.884  -0.051  3.2486  0.4001  1.4567
   24MOL0     H 3238  12.238   1.127   0.082  1.3684 -2.4800  0.2849
   24MOL0     H 3239  11.311   1.088   0.156  0.4088  0.7816  0.7384
   24MOL0     H 3240  11.073   1.004   0.179  0.8511  1.0087  0.5271
   25MOL0     O 3241   3.885  10.925   6.509  0.0272  0.0542  0.0536
   25MOL0     C 3242   3.882  10.810   6.472  0.5534  0.3605 -1.1024
   25MOL0     O 3243   3.777  10.734   6.490 -0.1089  0.7185 -0.2391
   25MOL0     C 3244   3.667  10.793   6.543 -0.0277 -0.7797  0.1543
   25MOL0     C 3245   3.597  10.906   6.484 -0.5343  0.4844 -0.4908
   25MOL0     C 3246   3.462  10.942   6.502  0.3628  0.1923 -0.2322
   25MOL0     C 3247   3.391  10.861   6.594  0.1628  0.7496  0.0852
   25MOL0     O 3248   3.257  10.877   6.628  0.2267 -0.2882 -0.3748
   25MOL0     C 3249   3.177  10.965   6.552 -0.4693  0.2181 -0.2411
   25MOL0     C 3250   3.035  10.927   6.573 -0.7721  0.3459 -0.1723
   25MOL0     C 3251   2.938  10.979   6.478  0.1231 -0.4759  0.8896
   25MOL0     C 3252   2.793  10.933   6.484  0.3891  0.1508  0.8344
   25MOL0     C 3253   2.775  10.783   6.446  0.1214 -0.2283 -0.0116
   25MOL0     C 3254   2.642  10.725   6.480  0.7472  0.8148 -0.5411
   25MOL0     C 3255   2.531  10.767   6.389 -0.6749  0.5000  0.1767
   25MOL0     C 3256   2.396  10.711   6.438 -0.7299  0.1723 -0.4897
   25MOL0     N 3257   2.354  10.782   6.560 -0.3544  0.0563  0.1579
   25MOL0     C 3258   2.289  10.901   6.572 -1.0164  0.6969 -0.6023
   25MOL0     C 3259   2.274  10.921   6.701 -0.5041 -0.9267  0.0971
   25MOL0     C 3260   2.194  11.030   6.770  0.1415 -0.2327 -0.0755
   25MOL0     C 3261   2.052  11.053   6.700  0.4343 -0.1478  0.6490
   25MOL0     C 3262   1.952  11.141   6.783 -0.0311  0.7997  0.1259
   25MOL0     C 3263   2.014  11.258   6.854  0.4258  0.4526 -0.5765
   25MOL0     O 3264   1.922  11.363   6.857  0.0659 -0.0832  0.4340
   25MOL0     C 3265   1.815  11.356   6.938  0.3208 -0.9024  0.6008
   25MOL0     C 3266   1.772  11.260   7.033 -0.5729 -0.5778 -0.3120
   25MOL0     C 3267   1.657  11.269   7.111 -0.7394 -0.7782 -0.4461
   25MOL0     C 3268   1.621  11.157   7.189  0.2107  0.7729 -0.6320
   25MOL0     C 3269   1.580  11.384   7.108  0.6451  0.2664 -0.1448
   25MOL0     C 3270   1.460  11.409   7.194 -0.2074 -0.4194  0.3126
   25MOL0     O 3271   1.438  11.542   7.244 -0.2896  1.1282 -0.6207
   25MOL0     C 3272   1.323  11.564   7.322 -0.8372 -0.5693  0.0054
   25MOL0     C 3273   1.200  11.515   7.282 -0.2654  0.0084 -0.1362
   25MOL0     C 3274   1.082  11.560   7.341 -0.9059 -0.1490  0.2436
   25MOL0     C 3275   1.089  11.644   7.455  0.3517 -0.7639  0.0252
   25MOL0     O 3276   0.978  11.681   7.519  0.0552  0.5976 -0.1794
   25MOL0     C 3277   0.963  11.820   7.520 -0.3113  0.5675 -0.2673
   25MOL0     C 3278   0.917  11.864   7.656  0.3826 -0.1087 -0.1581
   25MOL0     C 3279   1.031  11.853   7.757  0.3649  0.3262 -0.8615
   25MOL0     C 3280   1.004  11.931   7.892 -0.1408  0.7129  0.1928
   25MOL0     C 3281   1.108  11.899   7.996  0.7429  0.3869  0.5623
   25MOL0     C 3282   1.084  11.762   8.057  0.0632  0.0556  0.3457
   25MOL0     C 3283   1.186  11.736   8.161  0.3806 -0.3603  0.1692
   25MOL0     C 3284   1.148  11.629   8.268  0.1346 -0.9222  0.1924
   25MOL0    Cl 3285   1.170  11.455   8.231 -0.1971 -0.1331  0.2642
   25MOL0     C 3286   1.217  11.674   7.510  0.6637  0.3222  0.2769
   25MOL0     C 3287   1.330  11.646   7.440  0.0218 -0.3152  0.2951
   25MOL0     O 3288   1.387  11.315   7.202  0.1636  0.2585 -0.1552
   25MOL0     C 3289   1.630  11.487   7.019  0.5553  0.7488 -0.4704
   25MOL0     C 3290   1.742  11.474   6.937 -0.1836 -0.0897  0.4381
   25MOL0     N 3291   2.327  10.824   6.773 -0.9774  0.7613 -0.1026
   25MOL0     N 3292   2.366  10.731   6.688 -0.7464  0.5325 -0.5787
   25MOL0     C 3293   3.454  10.745   6.663  0.2284 -0.3702  0.8098
   25MOL0     C 3294   3.586  10.714   6.631 -0.3545  0.3773 -0.0773
   25MOL0     C 3295   4.006  10.739   6.440  0.4508 -0.4440  0.6285
   25MOL0     C 3296   4.122  10.806   6.404 -0.2108 -1.1085 -0.5505
   25MOL0     C 3297   4.239  10.742   6.381  0.3423  0.0717  0.0607
   25MOL0     C 3298   4.245  10.601   6.373  1.2916 -0.0000 -0.2556
   25MOL0     O 3299   4.355  10.530   6.343  0.3276 -0.7593  0.3012
   25MOL0     C 3300   4.451  10.555   6.444  0.4450 -1.4169  0.0866
   25MOL0     C 3301   4.580  10.477   6.420  1.1072 -0.2504  0.8175
   25MOL0     C 3302   4.704  10.538   6.483 -0.3570  0.2423  0.2606
   25MOL0     C 3303   4.695  10.532   6.637 -1.0923 -0.1210  1.0450
   25MOL0     C 3304   4.832  10.533   6.693  0.1570  0.5957 -0.5578
   25MOL0     C 3305   4.939  10.536   6.747 -0.4216  0.0102  0.3643
   25MOL0     C 3306   4.133  10.531   6.407  0.6913  0.4179 -0.5355
   25MOL0     C 3307   4.009  10.599   6.439  0.2682  0.6423  0.0381
   25MOL0     H 3308   3.651  10.989   6.440 -1.0146  0.9085 -0.3022
   25MOL0     H 3309   3.420  11.025   6.447 -2.6744 -1.4688 -0.6665
   25MOL0     H 3310   3.195  11.068   6.582 -1.4026  0.7059 -1.3176
   25MOL0     H 3311   3.197  10.962   6.444 -3.2811  0.7108 -0.8467
   25MOL0     H 3312   3.018  10.819   6.564  0.1815  0.3110 -2.1385
   25MOL0     H 3313   3.013  10.950   6.678  4.4996  0.0416  1.2903
   25MOL0     H 3314   2.945  11.088   6.477  2.6773 -0.4687  3.8950
   25MOL0     H 3315   2.972  10.946   6.379  2.1797  1.1552  0.9757
   25MOL0     H 3316   2.732  10.971   6.567  1.4287  1.7678  0.8890
   25MOL0     H 3317   2.743  10.987   6.404 -1.6458 -1.7166  0.7313
   25MOL0     H 3318   2.794  10.784   6.338 -0.4897  0.2703 -0.1216
   25MOL0     H 3319   2.849  10.728   6.504  0.8463  1.6931  0.9936
   25MOL0     H 3320   2.651  10.617   6.465  2.6779  1.0829 -1.5461
   25MOL0     H 3321   2.614  10.749   6.584 -0.7808  1.0876 -0.9901
   25MOL0     H 3322   2.528  10.876   6.380  0.0931  0.4146 -1.4531
   25MOL0     H 3323   2.548  10.730   6.288 -0.0691  0.9201  0.1153
   25MOL0     H 3324   2.420  10.606   6.457 -1.8078 -0.0688 -0.4061
   25MOL0     H 3325   2.320  10.709   6.360  0.3252  0.9098 -1.5771
   25MOL0     H 3326   2.247  10.947   6.482  1.1465 -1.2660 -2.7254
   25MOL0     H 3327   2.182  10.994   6.873 -3.8347 -2.8042 -1.1684
   25MOL0     H 3328   2.249  11.124   6.770  1.8798 -1.1529  2.0545
   25MOL0     H 3329   2.006  10.956   6.681 -0.0512  0.1771  0.1607
   25MOL0     H 3330   2.087  11.093   6.605  1.9902 -2.5696  0.0966
   25MOL0     H 3331   1.896  11.077   6.852  0.8912 -0.6870 -0.4558
   25MOL0     H 3332   1.874  11.181   6.718  1.0967  0.7921 -1.2782
   25MOL0     H 3333   2.102  11.284   6.794  2.1660 -2.7991  0.2945
   25MOL0     H 3334   2.043  11.229   6.956 -3.1824  0.1986  0.4919
   25MOL0     H 3335   1.823  11.165   7.025 -3.2523 -1.9556 -3.9829
   25MOL0     H 3336   1.617  11.183   7.295  3.1433 -0.7957 -0.0215
   25MOL0     H 3337   1.523  11.125   7.154  1.5391 -2.0230 -2.1747
   25MOL0     H 3338   1.686  11.071   7.171  0.5086  0.3878  1.9492
   25MOL0     H 3339   1.193  11.474   7.182 -0.1640  2.6584 -1.2998
   25MOL0     H 3340   0.983  11.535   7.304 -1.4765 -0.4930  1.9059
   25MOL0     H 3341   1.057  11.870   7.494  0.0291  0.0443 -0.0477
   25MOL0     H 3342   0.885  11.840   7.446 -0.9548  0.5366  0.3916
   25MOL0     H 3343   0.885  11.968   7.657 -0.4471 -0.3531  0.0623
   25MOL0     H 3344   0.832  11.813   7.703  0.2911  1.2060  1.1913
   25MOL0     H 3345   1.122  11.893   7.710  1.0448  2.2195  1.8473
   25MOL0     H 3346   1.062  11.749   7.772  5.0559  1.5486 -0.3580
   25MOL0     H 3347   1.010  12.038   7.872 -1.0356  1.1736  2.1640
   25MOL0     H 3348   0.907  11.894   7.926  0.8051 -0.8277  1.3585
   25MOL0     H 3349   1.112  11.976   8.074  2.1389 -0.4300  1.3208
   25MOL0     H 3350   1.204  11.893   7.944 -0.2586 -0.7963 -1.2868
   25MOL0     H 3351   0.985  11.759   8.104 -0.0483 -1.7562  0.0627
   25MOL0     H 3352   1.100  11.688   7.978  0.7195  1.2444 -0.6673
   25MOL0     H 3353   1.199  11.833   8.208 -1.2233  1.8104 -3.4670
   25MOL0     H 3354   1.282  11.705   8.117 -0.3224  1.5259 -2.9556
   25MOL0     H 3355   1.045  11.643   8.301  0.0976 -3.6963  1.5732
   25MOL0     H 3356   1.217  11.656   8.348 -1.2499  1.4637  0.6849
   25MOL0     H 3357   1.212  11.736   7.599  0.0636  2.6468 -1.3027
   25MOL0     H 3358   1.424  11.692   7.469 -0.5599 -0.0154  1.7984
   25MOL0     H 3359   1.574  11.580   7.013 -0.4997  0.1808  0.3114
   25MOL0     H 3360   1.775  11.554   6.872  1.5730 -2.3760 -1.7131
   25MOL0     H 3361   3.389  10.684   6.725  2.5709 -1.1302  2.6887
   25MOL0     H 3362   3.622  10.620   6.672  0.7903 -0.0630 -1.9751
   25MOL0     H 3363   4.123  10.912   6.380 -2.1556 -0.8765  0.2226
   25MOL0     H 3364   4.321  10.799   6.338  2.3319 -2.0966  0.7572
   25MOL0     H 3365   4.478  10.661   6.437 -0.7120 -1.2135 -3.3259
   25MOL0     H 3366   4.417  10.533   6.545  1.9612  0.1636  1.0159
   25MOL0     H 3367   4.584  10.482   6.310 -3.1885  0.9514  0.5505
   25MOL0     H 3368   4.569  10.372   6.447 -0.4439 -1.1698 -2.8081
   25MOL0     H 3369   4.708  10.643   6.455  0.8255  0.2573  0.4429
   25MOL0     H 3370   4.792  10.483   6.449 -0.6402 -1.9356  2.7143
   25MOL0     H 3371   4.654  10.434   6.665 -1.0672 -0.0908  1.1888
   25MOL0     H 3372   4.638  10.615   6.679  0.5784  0.0159  3.2649
   25MOL0     H 3373   5.030  10.532   6.803 -1.3929 -0.0491  1.9867
   25MOL0     H 3374   4.140  10.425   6.431 -1.3332  0.7546  1.9778
   25MOL0     H 3375   3.920  10.539   6.456 -0.6658  1.8505 -0.3901
   26MOL0     O 3376   4.924   8.343   8.673 -0.5661  0.3323  0.3492
   26MOL0     C 3377   4.861   8.240   8.647 -0.4806  0.1962  0.9325
   26MOL0     O 3378   4.861   8.117   8.724  0.2251 -0.3855  0.2499
   26MOL0     C 3379   4.971   8.078   8.802  0.5376 -0.4787  0.1830
   26MOL0     C 3380   5.101   8.103   8.765 -0.1433  0.1766  0.0292
   26MOL0     C 3381   5.209   8.063   8.848  0.4068 -0.1388 -0.7047
   26MOL0     C 3382   5.187   7.990   8.961 -0.3817  0.1542  0.2379
   26MOL0     O 3383   5.285   7.952   9.043  0.3055 -0.3586 -0.5893
   26MOL0     C 3384   5.418   8.015   9.035  1.4521 -0.3067  0.9725
   26MOL0     C 3385   5.486   7.983   9.164 -0.1892 -0.0127  0.0674
   26MOL0     C 3386   5.616   8.077   9.182  0.2731 -0.1585 -0.5666
   26MOL0     C 3387   5.579   8.215   9.203  0.0087  0.4481 -0.5995
   26MOL0     C 3388   5.484   8.232   9.333  0.1530  0.0959 -0.3048
   26MOL0     C 3389   5.335   8.250   9.300  0.6080 -0.2439 -0.7753
   26MOL0     C 3390   5.261   8.250   9.429 -0.0758 -0.1320 -0.3156
   26MOL0     C 3391   5.279   8.369   9.519 -0.3053  0.1589 -0.6324
   26MOL0     N 3392   5.352   8.326   9.640 -0.5271 -0.1999 -0.0919
   26MOL0     C 3393   5.485   8.355   9.654  0.0388 -0.7479  0.1934
   26MOL0     C 3394   5.536   8.275   9.752 -0.8145  0.4693 -0.4039
   26MOL0     C 3395   5.682   8.246   9.786  0.1933 -0.8925 -0.4548
   26MOL0     C 3396   5.682   8.229   9.943  0.8903  0.2795  0.0027
   26MOL0     C 3397   5.828   8.243   9.993  0.6008  0.6624  0.1111
   26MOL0     C 3398   5.855   8.211  10.143 -0.6567  0.3178  0.8360
   26MOL0     O 3399   5.752   8.257  10.236 -0.0908 -0.7652  0.0553
   26MOL0     C 3400   5.751   8.400  10.249  0.5647  0.6144 -0.9760
   26MOL0     C 3401   5.859   8.489  10.231  0.2273 -0.1792 -0.5975
   26MOL0     C 3402   5.829   8.628  10.241  0.6606 -0.0539 -0.4929
   26MOL0     C 3403   5.948   8.723  10.259  1.0032 -0.4755 -0.0705
   26MOL0     C 3404   5.698   8.674  10.238  0.7313  0.5746 -0.1455
   26MOL0     C 3405   5.646   8.815  10.227  0.6083  0.3627  0.7242
   26MOL0     O 3406   5.512   8.834  10.269 -0.1217  0.1286 -0.1585
   26MOL0     C 3407   5.450   8.954  10.265 -0.0223 -0.7834  0.1257
   26MOL0     C 3408   5.329   8.979  10.195 -0.4427 -0.7652  1.1669
   26MOL0     C 3409   5.269   9.098  10.195  0.9571 -0.5155  0.2418
   26MOL0     C 3410   5.322   9.209  10.259 -0.4999  0.2387  0.2354
   26MOL0     O 3411   5.268   9.335  10.270  0.2905 -0.4705  0.9908
   26MOL0     C 3412   5.124   9.351  10.231 -0.3831  0.2963  0.7515
   26MOL0     C 3413   5.029   9.285  10.329  0.5788  0.0105  0.2291
   26MOL0     C 3414   4.888   9.315  10.291 -0.3369 -0.0907 -0.1812
   26MOL0     C 3415   4.843   9.304  10.141 -0.5611 -1.0344  0.3453
   26MOL0     C 3416   4.693   9.348  10.113 -0.0716 -0.4929  0.6293
   26MOL0     C 3417   4.658   9.490  10.144 -0.9029 -0.2854  0.7149
   26MOL0     C 3418   4.512   9.522  10.126  0.1580  0.3898 -0.4863
   26MOL0     C 3419   4.485   9.663  10.092 -0.1692 -0.0588  0.3449
   26MOL0    Cl 3420   4.312   9.677  10.083  0.2619 -0.1056  0.5010
   26MOL0     C 3421   5.449   9.190  10.330 -0.6438  0.4495 -0.9124
   26MOL0     C 3422   5.504   9.058  10.343 -0.9296 -0.1636  0.5741
   26MOL0     O 3423   5.710   8.906  10.173 -0.5117 -1.3715 -0.3420
   26MOL0     C 3424   5.596   8.576  10.257 -1.1304 -0.3391 -0.1497
   26MOL0     C 3425   5.620   8.442  10.274 -0.2906 -0.4962 -0.7943
   26MOL0     N 3426   5.429   8.201   9.813 -0.1570 -0.0008 -0.6844
   26MOL0     N 3427   5.319   8.236   9.739 -0.2939 -0.5188  0.5425
   26MOL0     C 3428   5.055   7.966   9.005  0.8121  0.6324 -0.1405
   26MOL0     C 3429   4.949   8.005   8.914 -0.0579 -0.0465 -0.9604
   26MOL0     C 3430   4.779   8.245   8.536 -0.2072 -0.5582 -0.4696
   26MOL0     C 3431   4.783   8.340   8.426 -0.3865  0.7236  0.8231
   26MOL0     C 3432   4.690   8.338   8.327 -0.0134  0.2171  0.5394
   26MOL0     C 3433   4.590   8.238   8.324 -0.0730  1.0955  0.4084
   26MOL0     O 3434   4.484   8.232   8.235  0.0781  0.2096  0.2917
   26MOL0     C 3435   4.488   8.303   8.113  0.9077  0.2700 -0.2524
   26MOL0     C 3436   4.337   8.306   8.064  0.6366 -0.1259 -0.4707
   26MOL0     C 3437   4.300   8.162   7.999 -1.0594 -0.0447 -0.1149
   26MOL0     C 3438   4.161   8.104   8.038  0.2500  0.4778 -0.4559
   26MOL0     C 3439   4.180   8.071   8.181  0.8345 -0.2367 -0.2459
   26MOL0     C 3440   4.180   8.069   8.303  0.6494  0.0438 -0.1589
   26MOL0     C 3441   4.603   8.137   8.411  0.0900 -0.2464 -0.0971
   26MOL0     C 3442   4.687   8.146   8.523  0.6523  0.0195  0.2520
   26MOL0     H 3443   5.126   8.148   8.670  0.4093  0.2335  0.1962
   26MOL0     H 3444   5.305   8.085   8.802  0.3983  2.5458  0.4086
   26MOL0     H 3445   5.472   7.982   8.946 -1.9978  0.3674 -1.5855
   26MOL0     H 3446   5.402   8.122   9.023 -2.5372 -0.7570  0.6909
   26MOL0     H 3447   5.418   7.965   9.248 -2.1883 -1.9032 -1.8345
   26MOL0     H 3448   5.516   7.880   9.142 -0.7061 -0.2170  0.2812
   26MOL0     H 3449   5.666   8.036   9.270 -0.2315 -1.8172 -1.0055
   26MOL0     H 3450   5.686   8.087   9.099  1.7074  0.6115  0.6779
   26MOL0     H 3451   5.670   8.275   9.211  1.0280 -1.0693 -0.4978
   26MOL0     H 3452   5.529   8.253   9.113 -1.3451 -0.2539 -0.1817
   26MOL0     H 3453   5.488   8.141   9.394 -5.3274 -2.4538 -3.0767
   26MOL0     H 3454   5.524   8.315   9.392 -0.8232  1.3329 -1.3327
   26MOL0     H 3455   5.330   8.349   9.255 -0.4782  0.2515  0.3790
   26MOL0     H 3456   5.283   8.183   9.231  0.9049  0.4561 -1.6891
   26MOL0     H 3457   5.154   8.235   9.417 -0.1800  0.6987 -0.4830
   26MOL0     H 3458   5.283   8.153   9.476 -1.8750 -1.1734 -1.4992
   26MOL0     H 3459   5.182   8.414   9.543 -1.2031 -1.9399 -0.0915
   26MOL0     H 3460   5.338   8.448   9.471 -1.4740  1.1644 -0.4497
   26MOL0     H 3461   5.540   8.431   9.598 -0.3827 -0.1491  0.5861
   26MOL0     H 3462   5.710   8.166   9.718  0.9860 -0.3798 -0.7440
   26MOL0     H 3463   5.757   8.322   9.762  2.0892 -2.4506  0.2976
   26MOL0     H 3464   5.640   8.131   9.965 -1.0633  0.8952 -0.7405
   26MOL0     H 3465   5.614   8.301   9.991  0.3994 -1.3841  1.9573
   26MOL0     H 3466   5.855   8.347   9.970 -0.2030  1.2856  1.7866
   26MOL0     H 3467   5.885   8.175   9.929  1.0951 -1.2923  2.4709
   26MOL0     H 3468   5.956   8.242  10.170 -0.8751  0.5776  1.3603
   26MOL0     H 3469   5.868   8.103  10.157 -0.4242  0.1752 -0.3618
   26MOL0     H 3470   5.965   8.466  10.221  0.0389 -2.1020  1.1810
   26MOL0     H 3471   6.023   8.670  10.320  3.4835  2.9922  0.1619
   26MOL0     H 3472   5.978   8.752  10.158 -1.2323 -0.4139 -0.7677
   26MOL0     H 3473   5.924   8.809  10.322  2.7169 -0.3733  0.4976
   26MOL0     H 3474   5.291   8.902  10.130 -0.7335  0.2255  0.1299
   26MOL0     H 3475   5.171   9.115  10.151  1.1703 -2.2540 -1.0225
   26MOL0     H 3476   5.096   9.457  10.235  0.2156  0.4847  0.1414
   26MOL0     H 3477   5.108   9.309  10.131  2.1678 -0.5517  0.6306
   26MOL0     H 3478   5.030   9.177  10.345  0.6990  0.1639  1.3833
   26MOL0     H 3479   5.047   9.328  10.428 -1.3370 -1.7868  1.4470
   26MOL0     H 3480   4.871   9.416  10.330  0.2210 -0.0110 -0.1419
   26MOL0     H 3481   4.822   9.250  10.349 -1.9899  0.7337 -1.0784
   26MOL0     H 3482   4.899   9.382  10.089 -2.6403  1.0817  1.0703
   26MOL0     H 3483   4.876   9.207  10.104 -0.4424 -0.7217 -0.3939
   26MOL0     H 3484   4.620   9.292  10.172 -0.9325  1.6843  1.7497
   26MOL0     H 3485   4.666   9.326  10.009 -3.6408 -2.2965  1.7784
   26MOL0     H 3486   4.696   9.508  10.245 -0.0034 -0.6424  0.4594
   26MOL0     H 3487   4.718   9.558  10.083 -1.2458  2.1341  2.8791
   26MOL0     H 3488   4.464   9.504  10.222  0.0897 -3.8664 -1.1453
   26MOL0     H 3489   4.468   9.469  10.041 -0.8494 -1.4938  1.1377
   26MOL0     H 3490   4.531   9.686   9.995 -1.3341 -3.0263 -1.0183
   26MOL0     H 3491   4.527   9.732  10.166  0.9203 -0.0756 -0.2239
   26MOL0     H 3492   5.491   9.275  10.381 -2.5465  1.2876 -0.6683
   26MOL0     H 3493   5.593   9.040  10.402 -1.1479  3.5731  2.3076
   26MOL0     H 3494   5.492   8.608  10.261 -1.9091 -2.5401 -1.0804
   26MOL0     H 3495   5.543   8.373  10.308 -0.7326  0.5093  0.3488
   26MOL0     H 3496   5.033   7.905   9.092 -0.1991  1.2792  0.0748
   26MOL0     H 3497   4.842   7.991   8.928 -0.2333 -1.2814 -3.0988
   26MOL0     H 3498   4.860   8.416   8.434 -0.1183  0.4212  1.1337
   26MOL0     H 3499   4.686   8.431   8.270 -1.5424  1.4952  2.5719
   26MOL0     H 3500   4.516   8.408   8.125  1.7409 -0.0911  1.1914
   26MOL0     H 3501   4.558   8.243   8.054  1.1736 -0.5985  0.9062
   26MOL0     H 3502   4.327   8.381   7.985  1.1946  0.7166  0.2505
   26MOL0     H 3503   4.267   8.330   8.144  0.6713  2.7147 -1.1908
   26MOL0     H 3504   4.379   8.088   8.017 -0.9999 -0.0907 -0.5494
   26MOL0     H 3505   4.303   8.179   7.891  2.4229  0.7623  0.0118
   26MOL0     H 3506   4.147   8.012   7.982  1.3128  0.7975 -1.2680
   26MOL0     H 3507   4.078   8.175   8.032 -2.1866 -1.8979  2.1996
   26MOL0     H 3508   4.192   8.066   8.410  2.7084  3.9624 -0.1063
   26MOL0     H 3509   4.521   8.065   8.407  0.0196 -0.4585  2.7629
   26MOL0     H 3510   4.655   8.063   8.585  0.7806 -1.3589 -1.4659
   27MOL0     O 3511   4.765   9.097   6.224  0.7605  0.6932  0.6582
   27MOL0     C 3512   4.841   9.063   6.311  0.0717  0.0301 -0.1832
   27MOL0     O 3513   4.813   9.045   6.436  0.1615 -0.6948 -0.2012
   27MOL0     C 3514   4.691   9.087   6.488  1.5402 -0.2393  0.1646
   27MOL0     C 3515   4.632   8.993   6.572 -0.1459  0.0635 -0.3658
   27MOL0     C 3516   4.515   9.024   6.647  0.0710  0.7547 -0.6854
   27MOL0     C 3517   4.464   9.154   6.636 -0.9588  0.5573 -0.2158
   27MOL0     O 3518   4.349   9.179   6.705 -0.0431  1.3915 -0.6777
   27MOL0     C 3519   4.260   9.061   6.726 -0.4224 -0.4318 -0.5760
   27MOL0     C 3520   4.128   9.120   6.764  0.9552  0.1885  0.2290
   27MOL0     C 3521   4.019   9.006   6.780  0.5993  0.1601 -0.5410
   27MOL0     C 3522   3.893   9.054   6.709 -0.2458 -0.5056 -0.5527
   27MOL0     C 3523   3.781   8.949   6.728  0.5276  0.3133 -0.0803
   27MOL0     C 3524   3.650   8.997   6.656  0.1156 -0.2074 -0.4967
   27MOL0     C 3525   3.525   8.919   6.684  0.1250 -0.2323 -0.3743
   27MOL0     C 3526   3.399   9.009   6.695 -0.5485  0.3416 -0.1889
   27MOL0     N 3527   3.284   8.941   6.741  0.7656 -0.4859  0.3527
   27MOL0     C 3528   3.195   8.978   6.846  0.5728  0.6146 -1.0458
   27MOL0     C 3529   3.089   8.890   6.840  0.6537  0.5873  0.8665
   27MOL0     C 3530   2.968   8.896   6.922  0.2959 -0.5933 -0.6390
   27MOL0     C 3531   3.010   8.896   7.075 -0.4655  0.6209 -0.4366
   27MOL0     C 3532   2.905   8.825   7.154 -0.0233  0.4754  0.1389
   27MOL0     C 3533   2.778   8.899   7.181  0.0191  0.5011  0.5485
   27MOL0     O 3534   2.708   8.926   7.064  0.7042  1.0653  0.2771
   27MOL0     C 3535   2.584   8.987   7.079 -0.3964  0.1922 -0.4757
   27MOL0     C 3536   2.511   9.013   7.196 -0.2238  0.0288  0.0015
   27MOL0     C 3537   2.392   9.081   7.200  0.1925  0.3093 -0.0424
   27MOL0     C 3538   2.329   9.100   7.330 -0.5164  0.1739 -0.6717
   27MOL0     C 3539   2.335   9.133   7.083 -0.8255  0.6796  0.3136
   27MOL0     C 3540   2.202   9.196   7.076 -0.4190 -1.2519  0.4011
   27MOL0     O 3541   2.190   9.286   6.976 -0.5238 -0.2465  0.3851
   27MOL0     C 3542   2.067   9.336   6.925 -0.3498  0.1313  0.0370
   27MOL0     C 3543   1.938   9.273   6.948  0.3505 -0.9942  0.3646
   27MOL0     C 3544   1.817   9.332   6.897 -0.6906  0.4747 -0.1212
   27MOL0     C 3545   1.832   9.448   6.811 -0.4329  0.9286  0.1260
   27MOL0     O 3546   1.734   9.519   6.743  0.2666  0.4789  0.2292
   27MOL0     C 3547   1.612   9.448   6.705 -0.7574 -0.0511  0.0199
   27MOL0     C 3548   1.546   9.527   6.593  0.4356 -0.2552  0.3266
   27MOL0     C 3549   1.402   9.473   6.568  0.1193 -0.3312  0.0299
   27MOL0     C 3550   1.290   9.578   6.596 -0.3358  1.1067 -0.2523
   27MOL0     C 3551   1.150   9.538   6.561  0.1561 -1.3369 -0.1326
   27MOL0     C 3552   1.048   9.569   6.668  0.9252 -0.4073 -0.1864
   27MOL0     C 3553   0.909   9.522   6.616  0.1695  0.1072  0.7209
   27MOL0     C 3554   0.794   9.564   6.707 -0.1387 -0.0944  0.6294
   27MOL0    Cl 3555   0.801   9.468   6.861  0.2662 -0.2380  0.1467
   27MOL0     C 3556   1.956   9.507   6.780  0.2547 -0.6204  0.0125
   27MOL0     C 3557   2.071   9.452   6.840  0.6251  0.3663  0.3968
   27MOL0     O 3558   2.116   9.170   7.161  0.0028 -0.2779  0.7851
   27MOL0     C 3559   2.408   9.103   6.965 -0.1326  0.4320  0.2513
   27MOL0     C 3560   2.534   9.043   6.964 -0.0998  0.2275 -0.1243
   27MOL0     N 3561   3.120   8.787   6.744  0.4397 -0.6201  0.0818
   27MOL0     N 3562   3.228   8.825   6.693 -0.1451 -0.5256  0.4095
   27MOL0     C 3563   4.501   9.245   6.538 -0.5171  0.1174  1.0816
   27MOL0     C 3564   4.616   9.205   6.464  0.2152  0.4715 -0.0067
   27MOL0     C 3565   4.983   9.021   6.273 -0.9858  0.2482  0.3145
   27MOL0     C 3566   5.066   8.958   6.368 -0.2985 -0.3157  1.1338
   27MOL0     C 3567   5.202   8.942   6.344 -0.6079  0.1525  0.3121
   27MOL0     C 3568   5.257   8.967   6.213 -0.4787  0.5095  0.1419
   27MOL0     O 3569   5.387   8.948   6.173 -0.6941 -0.0866 -0.4664
   27MOL0     C 3570   5.474   8.902   6.274 -0.2189  0.5594  1.0773
   27MOL0     C 3571   5.462   8.753   6.298 -0.8596  0.3665  0.6987
   27MOL0     C 3572   5.546   8.679   6.197  0.1493 -0.5345  0.3985
   27MOL0     C 3573   5.518   8.525   6.200  0.1666 -0.0777  0.2731
   27MOL0     C 3574   5.603   8.469   6.092 -0.8891 -0.1350 -0.3736
   27MOL0     C 3575   5.667   8.409   6.000  0.5888  0.5860 -0.5505
   27MOL0     C 3576   5.171   9.025   6.121  0.4510 -0.4590 -0.5036
   27MOL0     C 3577   5.038   9.057   6.149  0.6338  0.0994 -0.2072
   27MOL0     H 3578   4.685   8.899   6.584  1.2739  1.0405  1.9210
   27MOL0     H 3579   4.478   8.950   6.716  0.1448 -0.7792 -2.2229
   27MOL0     H 3580   4.248   9.007   6.631 -0.3518  0.7434 -1.2774
   27MOL0     H 3581   4.291   8.990   6.803 -1.2010  0.0536  0.1981
   27MOL0     H 3582   4.130   9.180   6.856  0.8371  0.2483  0.1941
   27MOL0     H 3583   4.103   9.182   6.677  0.3244 -0.2183  0.1160
   27MOL0     H 3584   4.059   8.910   6.747 -0.8275 -0.9932  0.9895
   27MOL0     H 3585   3.996   8.988   6.885  0.3744 -2.0583 -0.9236
   27MOL0     H 3586   3.864   9.151   6.750 -1.8549 -1.2559  0.1802
   27MOL0     H 3587   3.928   9.075   6.608  3.1212  1.2713  0.8438
   27MOL0     H 3588   3.800   8.851   6.684  0.0410  0.3965 -0.4851
   27MOL0     H 3589   3.762   8.941   6.836 -4.8012  0.3524 -0.7831
   27MOL0     H 3590   3.635   9.101   6.686 -0.9204  0.1429 -2.0786
   27MOL0     H 3591   3.665   9.004   6.547 -0.9442  1.7401 -0.5687
   27MOL0     H 3592   3.516   8.847   6.603  2.8079 -0.9757 -0.1162
   27MOL0     H 3593   3.530   8.852   6.771 -1.0728 -1.2645 -1.0656
   27MOL0     H 3594   3.375   9.046   6.595  2.5642  2.9956 -0.1380
   27MOL0     H 3595   3.429   9.086   6.768 -1.1232 -1.5689  2.1785
   27MOL0     H 3596   3.203   9.063   6.912  0.8519 -1.3773  1.6842
   27MOL0     H 3597   2.913   8.986   6.893 -1.1403 -0.8732  0.9978
   27MOL0     H 3598   2.899   8.816   6.894  0.0383  0.4279 -3.1799
   27MOL0     H 3599   3.036   8.992   7.120  0.8823 -1.4509  3.6708
   27MOL0     H 3600   3.098   8.831   7.082  0.0868  0.5728 -4.7399
   27MOL0     H 3601   2.956   8.794   7.246  1.6580 -2.5428 -1.6410
   27MOL0     H 3602   2.873   8.733   7.104  0.4911  0.3002  0.1293
   27MOL0     H 3603   2.799   8.995   7.230  1.3954 -0.5165  2.0596
   27MOL0     H 3604   2.719   8.835   7.247  0.1893 -3.0060 -2.3784
   27MOL0     H 3605   2.529   8.974   7.296 -3.2672  3.4757  2.1452
   27MOL0     H 3606   2.256   9.019   7.345  1.1981 -1.2494  0.3348
   27MOL0     H 3607   2.413   9.094   7.400  0.9963  0.8986 -2.3430
   27MOL0     H 3608   2.276   9.194   7.351 -0.0849  0.4011 -0.5862
   27MOL0     H 3609   1.921   9.192   7.017 -0.4616 -1.4509 -0.3619
   27MOL0     H 3610   1.722   9.291   6.927  0.0145 -0.9697  0.2651
   27MOL0     H 3611   1.635   9.343   6.687 -2.0321 -0.4151  0.4154
   27MOL0     H 3612   1.551   9.442   6.796 -3.2947  2.6301 -1.3250
   27MOL0     H 3613   1.538   9.633   6.616  2.2031 -0.3801  1.6513
   27MOL0     H 3614   1.615   9.520   6.508 -0.5266 -1.7506 -0.3827
   27MOL0     H 3615   1.383   9.384   6.628 -0.5891 -0.7252 -0.7523
   27MOL0     H 3616   1.405   9.441   6.464  0.7546  0.4601 -0.2044
   27MOL0     H 3617   1.288   9.596   6.704  1.8104 -2.1219  0.4638
   27MOL0     H 3618   1.316   9.676   6.554  2.7046  0.4257 -0.1950
   27MOL0     H 3619   1.136   9.430   6.560  0.1637 -1.4786  3.1690
   27MOL0     H 3620   1.131   9.584   6.464  0.9594 -1.9473 -0.5922
   27MOL0     H 3621   1.081   9.519   6.759  1.3590  0.2529  0.0228
   27MOL0     H 3622   1.049   9.677   6.686  0.3344 -0.7669  2.2871
   27MOL0     H 3623   0.900   9.415   6.598 -0.0755  0.1733  0.4321
   27MOL0     H 3624   0.891   9.588   6.530  1.4246  0.9774  1.0922
   27MOL0     H 3625   0.695   9.552   6.661 -1.3453 -0.2620  3.1131
   27MOL0     H 3626   0.808   9.670   6.731 -0.0703 -0.2491  1.2652
   27MOL0     H 3627   1.958   9.598   6.722  2.6439  0.2512  1.2960
   27MOL0     H 3628   2.170   9.493   6.821  0.8714 -0.2227  0.3738
   27MOL0     H 3629   2.358   9.131   6.873  0.0479  0.7354  0.2423
   27MOL0     H 3630   2.580   9.024   6.868 -0.4178 -0.2865 -0.1792
   27MOL0     H 3631   4.434   9.330   6.525 -0.9558 -0.4897 -1.0305
   27MOL0     H 3632   4.653   9.262   6.379  0.5807  0.3084  0.0435
   27MOL0     H 3633   5.027   8.926   6.464  0.2352 -0.6483  1.2447
   27MOL0     H 3634   5.260   8.912   6.431 -1.1730  1.2544  1.0970
   27MOL0     H 3635   5.574   8.918   6.233 -0.5460  2.0467  0.7701
   27MOL0     H 3636   5.483   8.964   6.364  1.1104  1.0972  0.5991
   27MOL0     H 3637   5.359   8.717   6.284  0.5940 -3.2228 -2.0720
   27MOL0     H 3638   5.482   8.728   6.403 -4.5976  0.5239  1.5899
   27MOL0     H 3639   5.650   8.695   6.228  0.5373  1.4041 -1.6391
   27MOL0     H 3640   5.530   8.718   6.096  0.4241 -0.3689  0.4184
   27MOL0     H 3641   5.416   8.495   6.176  1.4719 -2.8792 -2.5704
   27MOL0     H 3642   5.553   8.484   6.295  1.7411  0.3110 -0.1160
   27MOL0     H 3643   5.712   8.374   5.909 -0.0698  0.5967 -0.8866
   27MOL0     H 3644   5.212   9.054   6.025  0.0849  2.4075  0.0855
   27MOL0     H 3645   4.979   9.123   6.086  1.3848  1.7509  0.7322
   28MOL0     O 3646   3.666  10.953  10.039  0.3251 -1.0810  0.5396
   28MOL0     C 3647   3.728  10.983  10.141 -0.1985  0.8068  0.0261
   28MOL0     O 3648   3.663  11.004  10.262 -0.2212  0.3339 -0.0365
   28MOL0     C 3649   3.525  10.971  10.268 -0.0592  0.0707 -0.0637
   28MOL0     C 3650   3.481  10.844  10.212 -0.7088  0.0753  0.2255
   28MOL0     C 3651   3.345  10.802  10.214 -0.0952  0.0069 -0.5986
   28MOL0     C 3652   3.249  10.903  10.251  0.0493 -0.7521  0.3799
   28MOL0     O 3653   3.112  10.891  10.239  0.2085 -0.0779 -0.0928
   28MOL0     C 3654   3.069  10.819  10.128  0.1956 -0.5626  0.1525
   28MOL0     C 3655   2.922  10.809  10.110  0.5660 -0.7777 -0.2083
   28MOL0     C 3656   2.847  10.949  10.095 -0.8908 -0.5518  0.7391
   28MOL0     C 3657   2.710  10.922  10.037 -0.1155  0.1057  0.0890
   28MOL0     C 3658   2.604  10.866  10.134 -1.2844  0.1665  0.8728
   28MOL0     C 3659   2.472  10.831  10.064  0.3601 -0.7424  0.5826
   28MOL0     C 3660   2.365  10.836  10.169 -0.6842  1.0187  0.1596
   28MOL0     C 3661   2.324  10.689  10.195  0.0117  0.3069 -0.7354
   28MOL0     N 3662   2.242  10.674  10.312 -0.5145 -0.8989 -0.0250
   28MOL0     C 3663   2.278  10.706  10.446  0.0485 -1.0325  1.2956
   28MOL0     C 3664   2.186  10.645  10.525  0.1462 -0.0385 -0.7648
   28MOL0     C 3665   2.190  10.622  10.679 -0.4300 -0.2653  0.0608
   28MOL0     C 3666   2.336  10.595  10.734  0.4226  1.0089 -0.8373
   28MOL0     C 3667   2.342  10.618  10.890 -0.1490  0.2078  0.5280
   28MOL0     C 3668   2.481  10.581  10.940 -0.8396 -0.6415 -0.3024
   28MOL0     O 3669   2.559  10.704  10.942  0.4717  0.5794 -0.0419
   28MOL0     C 3670   2.694  10.685  10.958 -0.0061  0.3425 -0.4702
   28MOL0     C 3671   2.759  10.564  11.004  0.2689 -0.5262  0.1327
   28MOL0     C 3672   2.899  10.554  11.018 -0.4247 -0.2117  0.0954
   28MOL0     C 3673   2.960  10.420  11.054  0.7883 -0.3112 -0.6655
   28MOL0     C 3674   2.976  10.672  10.989  0.9614 -0.2041  0.5274
   28MOL0     C 3675   3.124  10.683  10.998  0.9347 -0.0252  0.3760
   28MOL0     O 3676   3.194  10.803  10.966  1.0326  0.3573  0.3637
   28MOL0     C 3677   3.325  10.813  11.005  0.3907  0.1424  0.0505
   28MOL0     C 3678   3.385  10.767  11.127  0.2953  0.1056  0.1004
   28MOL0     C 3679   3.524  10.776  11.136  0.1116 -0.9285 -0.5054
   28MOL0     C 3680   3.610  10.838  11.041  0.0236  0.0155  0.2330
   28MOL0     O 3681   3.749  10.831  11.053  0.2698  0.6248 -0.3693
   28MOL0     C 3682   3.805  10.713  10.994  0.2867  0.5003  0.0367
   28MOL0     C 3683   3.955  10.723  11.011 -0.2721  0.1008  0.3139
   28MOL0     C 3684   4.011  10.838  10.927 -0.4138 -0.1605  0.5757
   28MOL0     C 3685   4.165  10.828  10.937 -0.5598 -0.0852 -0.3655
   28MOL0     C 3686   4.227  10.914  10.827  0.3811  0.5062  0.1345
   28MOL0     C 3687   4.373  10.931  10.854 -0.5501  0.2384 -0.6131
   28MOL0     C 3688   4.450  11.016  10.745  0.4114 -0.2639  0.4820
   28MOL0     C 3689   4.600  11.002  10.776  0.4225  0.0402  0.4941
   28MOL0    Cl 3690   4.707  11.016  10.630 -0.0955  0.1934  0.0542
   28MOL0     C 3691   3.550  10.899  10.930  0.7842  0.2346  0.7229
   28MOL0     C 3692   3.404  10.892  10.923  0.5105 -0.3579 -0.3618
   28MOL0     O 3693   3.180  10.575  11.026 -0.1226  0.1145  0.2855
   28MOL0     C 3694   2.916  10.784  10.934  0.5089  0.2407  0.8099
   28MOL0     C 3695   2.779  10.786  10.905  0.2293  0.2057 -0.4585
   28MOL0     N 3696   2.089  10.586  10.441  0.2246 -0.4291  0.2927
   28MOL0     N 3697   2.121  10.615  10.318  0.7231  0.8216  0.3633
   28MOL0     C 3698   3.292  11.020  10.309 -0.2605 -0.7452  0.1753
   28MOL0     C 3699   3.429  11.056  10.312  1.1212  0.0553 -0.0206
   28MOL0     C 3700   3.875  10.993  10.145 -0.2697  0.5813  0.3405
   28MOL0     C 3701   3.930  11.061  10.251 -0.6674  0.0155  0.5345
   28MOL0     C 3702   4.068  11.071  10.266  0.0076  0.7201  0.1972
   28MOL0     C 3703   4.152  11.026  10.173 -0.2770 -0.4511 -0.0993
   28MOL0     O 3704   4.289  11.068  10.170  0.4464  0.1982 -0.0026
   28MOL0     C 3705   4.371  11.038  10.280  0.4564 -0.0277 -0.2731
   28MOL0     C 3706   4.514  11.085  10.258 -0.4863  0.5279 -0.1512
   28MOL0     C 3707   4.563  11.013  10.134  0.9244  0.4532  0.3638
   28MOL0     C 3708   4.712  11.024  10.109 -0.1438  0.3841 -0.3219
   28MOL0     C 3709   4.784  10.949  10.216 -0.5925 -0.7560  0.1958
   28MOL0     C 3710   4.834  10.887  10.308 -0.3135 -0.4459 -0.2232
   28MOL0     C 3711   4.102  10.965  10.062 -0.0659  0.0732 -0.1672
   28MOL0     C 3712   3.967  10.939  10.052 -0.8065  0.2575  0.7343
   28MOL0     H 3713   3.553  10.772  10.175 -1.5490 -0.5102 -0.2877
   28MOL0     H 3714   3.317  10.698  10.202 -1.1617  0.0266  1.3094
   28MOL0     H 3715   3.110  10.871  10.040 -0.5539  0.5576  0.4456
   28MOL0     H 3716   3.105  10.716  10.123  2.5404  0.2507 -2.9181
   28MOL0     H 3717   2.899  10.749  10.021  0.3171  1.0717 -1.4461
   28MOL0     H 3718   2.881  10.758  10.198  0.5821  0.8181  0.7600
   28MOL0     H 3719   2.848  10.985  10.198  3.9366 -0.0397  0.7688
   28MOL0     H 3720   2.909  11.006  10.024 -0.4156  0.9929  2.3439
   28MOL0     H 3721   2.677  11.019   9.999  0.5060 -0.0171 -0.8042
   28MOL0     H 3722   2.725  10.851   9.954 -0.6985 -1.4012  1.2299
   28MOL0     H 3723   2.638  10.781  10.193  0.9476  0.5786  0.2518
   28MOL0     H 3724   2.592  10.950  10.204 -1.2746  1.2462 -0.3744
   28MOL0     H 3725   2.450  10.895   9.978  2.1047 -1.2681 -0.3043
   28MOL0     H 3726   2.477  10.726  10.032 -0.3921 -1.2127  1.9128
   28MOL0     H 3727   2.400  10.864  10.269 -1.3967  2.2501  0.0951
   28MOL0     H 3728   2.279  10.901  10.149 -1.0301  0.3416 -0.5761
   28MOL0     H 3729   2.412  10.625  10.205  0.8306  1.5024 -0.1286
   28MOL0     H 3730   2.271  10.641  10.112  0.1175 -3.4249  1.1645
   28MOL0     H 3731   2.373  10.740  10.485  0.4256  1.6392 -1.5495
   28MOL0     H 3732   2.163  10.715  10.729 -1.4803 -1.3208  1.5748
   28MOL0     H 3733   2.113  10.550  10.709 -0.9787  1.0073  1.8624
   28MOL0     H 3734   2.415  10.656  10.692  3.0749  0.8510  3.3676
   28MOL0     H 3735   2.371  10.492  10.722  3.2984  1.9645 -1.3433
   28MOL0     H 3736   2.275  10.553  10.947 -2.2199  2.3191  0.6470
   28MOL0     H 3737   2.317  10.722  10.913 -1.1017  0.1605 -0.2200
   28MOL0     H 3738   2.529  10.505  10.877  3.4322  2.1867 -0.8621
   28MOL0     H 3739   2.472  10.539  11.041  3.5554 -0.1422  0.4834
   28MOL0     H 3740   2.711  10.470  11.027 -2.0784  0.3195 -1.0038
   28MOL0     H 3741   3.040  10.380  10.990  2.6869  0.1502  1.2893
   28MOL0     H 3742   3.002  10.420  11.155 -1.5565  0.0254  0.3810
   28MOL0     H 3743   2.882  10.343  11.058 -0.0687  0.5706  1.7613
   28MOL0     H 3744   3.326  10.720  11.206 -2.8076  1.0819 -1.4651
   28MOL0     H 3745   3.580  10.743  11.222  1.7829  2.1147 -0.2838
   28MOL0     H 3746   3.762  10.625  11.043 -1.0916  1.6170  0.8939
   28MOL0     H 3747   3.773  10.711  10.889 -1.0931 -0.0971  0.4440
   28MOL0     H 3748   3.977  10.730  11.118 -0.4594 -0.6595  0.4053
   28MOL0     H 3749   4.002  10.639  10.959 -0.8776  0.5399 -0.9826
   28MOL0     H 3750   3.981  10.935  10.968  0.5113 -0.6765  2.6217
   28MOL0     H 3751   3.982  10.828  10.822 -2.7341  0.4478  1.0920
   28MOL0     H 3752   4.182  10.855  11.042 -4.4220 -0.1832  0.4686
   28MOL0     H 3753   4.200  10.726  10.927 -0.0448  0.0485  0.0394
   28MOL0     H 3754   4.184  11.014  10.828  2.4204  1.4480 -0.5369
   28MOL0     H 3755   4.208  10.866  10.730 -2.2919 -2.5767  1.9901
   28MOL0     H 3756   4.396  10.981  10.949 -0.2937  0.1539 -0.6314
   28MOL0     H 3757   4.428  10.839  10.874 -1.5029  0.1120  1.8639
   28MOL0     H 3758   4.417  11.120  10.745 -0.6304 -0.5789  0.6131
   28MOL0     H 3759   4.429  10.982  10.643 -1.1312  1.9807 -0.0234
   28MOL0     H 3760   4.612  10.913  10.839 -1.7449  1.5951  3.3573
   28MOL0     H 3761   4.621  11.086  10.843 -1.7199  0.4035  0.7682
   28MOL0     H 3762   3.602  10.946  10.848 -0.3869  2.8410  1.3797
   28MOL0     H 3763   3.357  10.944  10.840 -1.6685 -0.9409  0.4410
   28MOL0     H 3764   2.972  10.872  10.905 -0.3009  0.1537 -1.2219
   28MOL0     H 3765   2.750  10.874  10.850  0.5080  0.6339  0.0717
   28MOL0     H 3766   3.210  11.087  10.333 -0.9023 -1.5140  0.1834
   28MOL0     H 3767   3.444  11.159  10.344  0.8129  0.1065 -0.0350
   28MOL0     H 3768   3.875  11.117  10.325 -0.2725  0.3937  0.5401
   28MOL0     H 3769   4.098  11.111  10.363  1.8236  0.7382 -0.3341
   28MOL0     H 3770   4.330  11.087  10.368 -1.4808  0.8255 -1.5824
   28MOL0     H 3771   4.370  10.929  10.291 -4.0523  0.0175  1.8128
   28MOL0     H 3772   4.577  11.062  10.344 -3.3023  0.0354  1.9215
   28MOL0     H 3773   4.527  11.192  10.238 -1.6482  0.3882 -1.9633
   28MOL0     H 3774   4.510  11.065  10.053 -0.8224 -0.0541  1.1306
   28MOL0     H 3775   4.531  10.909  10.128 -2.8809  1.0829  4.4544
   28MOL0     H 3776   4.756  11.122  10.088  1.3212 -0.1341  0.1967
   28MOL0     H 3777   4.733  10.980  10.011  0.4268  1.7533 -0.8289
   28MOL0     H 3778   4.885  10.834  10.385 -1.0716 -2.6019 -1.1316
   28MOL0     H 3779   4.173  10.932   9.986 -2.4906 -0.7736 -2.2146
   28MOL0     H 3780   3.935  10.872   9.973  2.7193 -3.0421  1.7849
   29MOL0     O 3781   1.732   3.829  10.087  0.2258  0.8076 -0.1823
   29MOL0     C 3782   1.724   3.707  10.073  1.2407 -0.5335 -0.5320
   29MOL0     O 3783   1.610   3.626  10.088  0.1364 -0.0819  0.2280
   29MOL0     C 3784   1.492   3.684  10.127 -0.4652 -1.2379  0.3928
   29MOL0     C 3785   1.432   3.789  10.047 -0.0176  0.0707 -0.5344
   29MOL0     C 3786   1.315   3.861  10.089  0.3220  0.7091 -0.0605
   29MOL0     C 3787   1.265   3.824  10.221 -0.6182 -0.5645  0.3972
   29MOL0     O 3788   1.150   3.878  10.278 -0.0917 -0.1732 -0.4663
   29MOL0     C 3789   1.042   3.901  10.199 -0.3353 -0.7471  0.7704
   29MOL0     C 3790   0.932   3.951  10.288 -0.5428 -0.4742  1.0622
   29MOL0     C 3791   0.788   3.955  10.218 -0.3260 -0.4141 -1.8401
   29MOL0     C 3792   0.688   4.015  10.314 -0.7055 -0.2009 -0.2272
   29MOL0     C 3793   0.554   4.042  10.249  0.2601 -0.3911  0.9875
   29MOL0     C 3794   0.467   4.138  10.334 -0.2389 -0.9325 -0.8967
   29MOL0     C 3795   0.336   4.162  10.278  0.6042  0.6361 -0.4127
   29MOL0     C 3796   0.275   4.297  10.322  0.4555  0.4233 -0.9022
   29MOL0     N 3797   0.127   4.301  10.295  0.3867  0.0650 -0.7282
   29MOL0     C 3798   0.064   4.242  10.189  0.6496  0.1488  0.2143
   29MOL0     C 3799  -0.070   4.283  10.201 -0.3333 -0.4805  0.7267
   29MOL0     C 3800  -0.177   4.266  10.107  1.1880 -0.1392 -0.2160
   29MOL0     C 3801  -0.303   4.197  10.167  0.7472  0.4988 -0.2620
   29MOL0     C 3802  -0.429   4.246  10.083 -0.0837 -0.5357 -0.9653
   29MOL0     C 3803  -0.557   4.161  10.105 -0.0748 -0.1733  0.0754
   29MOL0     O 3804  -0.585   4.146  10.246 -0.1399 -0.4121 -0.8001
   29MOL0     C 3805  -0.638   4.028  10.268 -0.3193  0.0435  0.8041
   29MOL0     C 3806  -0.584   3.956  10.366 -1.4032 -0.0981  0.2965
   29MOL0     C 3807  -0.650   3.842  10.419  0.2807 -0.2725 -0.9276
   29MOL0     C 3808  -0.606   3.775  10.555 -0.1203  0.2318 -0.1560
   29MOL0     C 3809  -0.777   3.810  10.373  0.0610  0.0810  0.0372
   29MOL0     C 3810  -0.866   3.709  10.438  0.3596 -0.2143 -0.9626
   29MOL0     O 3811  -0.831   3.576  10.456  0.1558  0.3004  0.6140
   29MOL0     C 3812  -0.928   3.496  10.503 -0.5687  0.4204 -0.4697
   29MOL0     C 3813  -0.969   3.382  10.423  0.8078  0.9205 -0.2632
   29MOL0     C 3814  -1.075   3.297  10.468 -0.2021  0.4638 -0.1525
   29MOL0     C 3815  -1.138   3.317  10.586 -0.0627  0.9609 -0.2431
   29MOL0     O 3816  -1.242   3.232  10.625 -0.1965  0.1572 -0.0449
   29MOL0     C 3817  -1.260   3.182  10.750  0.2022 -0.5710 -0.4434
   29MOL0     C 3818  -1.400   3.113  10.748 -0.3299 -0.8619  0.5576
   29MOL0     C 3819  -1.459   3.097  10.887 -0.7746  0.1527 -0.1601
   29MOL0     C 3820  -1.615   3.075  10.889 -0.0124 -0.2201  0.3605
   29MOL0     C 3821  -1.649   3.013  11.030  0.2104  0.1305  0.1825
   29MOL0     C 3822  -1.805   3.013  11.051 -0.3110 -0.2168 -0.6951
   29MOL0     C 3823  -1.878   2.942  10.939 -0.1915 -0.2912 -0.8308
   29MOL0     C 3824  -2.026   2.934  10.957  0.0630 -0.4541 -0.1707
   29MOL0    Cl 3825  -2.068   2.853  11.115  0.1282  0.0533  0.1312
   29MOL0     C 3826  -1.103   3.433  10.663 -1.3552  0.2653  0.0448
   29MOL0     C 3827  -0.998   3.514  10.628 -0.4880  0.1904  0.2223
   29MOL0     O 3828  -0.985   3.753  10.457  0.0337  0.7206  0.0231
   29MOL0     C 3829  -0.828   3.880  10.257  0.6323  1.1043 -0.1585
   29MOL0     C 3830  -0.752   3.979  10.204 -0.4512  0.2933 -0.4870
   29MOL0     N 3831  -0.078   4.373  10.301  0.0227 -0.8699  0.7004
   29MOL0     N 3832   0.040   4.390  10.353  0.2550  0.0397  0.2621
   29MOL0     C 3833   1.333   3.726  10.299  0.7050 -0.3208  0.4637
   29MOL0     C 3834   1.441   3.655  10.256  0.0573 -0.4494  0.1791
   29MOL0     C 3835   1.849   3.642  10.036  0.0696  0.7449 -1.6169
   29MOL0     C 3836   1.847   3.529   9.954  0.6277 -0.7218  0.2149
   29MOL0     C 3837   1.958   3.484   9.887 -0.7579 -0.0348 -1.1752
   29MOL0     C 3838   2.078   3.547   9.909 -0.6336  0.0078 -0.2279
   29MOL0     O 3839   2.197   3.488   9.852  0.1845 -0.2821  0.6257
   29MOL0     C 3840   2.319   3.562   9.838  0.6923 -0.7766 -0.4204
   29MOL0     C 3841   2.427   3.457   9.811 -0.4825  0.1654  0.0124
   29MOL0     C 3842   2.576   3.508   9.810 -0.3250 -0.4173  0.3271
   29MOL0     C 3843   2.612   3.612   9.702  0.0113 -0.1863  0.4490
   29MOL0     C 3844   2.755   3.624   9.677  0.0257  0.1090  0.0482
   29MOL0     C 3845   2.878   3.630   9.654 -0.2593  0.1344  0.2778
   29MOL0     C 3846   2.082   3.658   9.989  0.8454 -0.3372 -0.0478
   29MOL0     C 3847   1.971   3.704  10.055 -0.1095  0.3696 -0.6605
   29MOL0     H 3848   1.484   3.821   9.957  2.7839  0.8694  1.2447
   29MOL0     H 3849   1.261   3.933  10.029 -4.0427 -1.8268  0.4544
   29MOL0     H 3850   1.067   3.971  10.119  0.2060 -0.6581  1.0197
   29MOL0     H 3851   1.009   3.810  10.147  0.9825 -1.0724  0.4652
   29MOL0     H 3852   0.917   3.883  10.372 -2.7390  1.0218  1.9795
   29MOL0     H 3853   0.955   4.049  10.331 -1.2870 -0.1321  0.7029
   29MOL0     H 3854   0.787   4.024  10.133 -1.7844  1.1296 -0.6588
   29MOL0     H 3855   0.750   3.856  10.190 -2.0858 -0.4665  0.3611
   29MOL0     H 3856   0.675   3.957  10.406 -2.6623 -0.3515 -0.5600
   29MOL0     H 3857   0.716   4.115  10.348 -1.1991  1.2464 -3.6179
   29MOL0     H 3858   0.574   4.102  10.160  0.3780 -0.6179  0.8608
   29MOL0     H 3859   0.503   3.949  10.223 -0.0912 -0.7478  2.8062
   29MOL0     H 3860   0.469   4.100  10.437  0.4616  0.4046 -0.3923
   29MOL0     H 3861   0.513   4.237  10.324  0.5731 -1.2184 -0.1567
   29MOL0     H 3862   0.341   4.144  10.170 -2.9796  0.0767 -0.5860
   29MOL0     H 3863   0.280   4.077  10.319  0.0781 -0.9071 -3.9418
   29MOL0     H 3864   0.317   4.384  10.270 -0.1749  3.0848  2.7345
   29MOL0     H 3865   0.298   4.316  10.427 -2.8027 -0.6190  0.1256
   29MOL0     H 3866   0.113   4.174  10.120  1.8702  0.0321  1.1550
   29MOL0     H 3867  -0.203   4.372  10.101  2.1223  0.0437 -1.2319
   29MOL0     H 3868  -0.137   4.214  10.020  1.4080 -1.7757  0.8192
   29MOL0     H 3869  -0.309   4.227  10.272 -0.2752 -0.0274 -0.1558
   29MOL0     H 3870  -0.290   4.089  10.155  3.0433  0.5495  1.2108
   29MOL0     H 3871  -0.404   4.247   9.977 -1.3489  1.3451 -1.2785
   29MOL0     H 3872  -0.463   4.337  10.133 -0.3310 -1.0859 -0.0914
   29MOL0     H 3873  -0.554   4.065  10.051  3.1116  0.7613 -1.6517
   29MOL0     H 3874  -0.640   4.213  10.056  1.0983  0.6397 -1.1194
   29MOL0     H 3875  -0.496   3.989  10.421 -0.8993 -0.0540 -0.5202
   29MOL0     H 3876  -0.688   3.715  10.596  0.3339 -0.4887 -0.2886
   29MOL0     H 3877  -0.528   3.702  10.531 -0.4821 -0.0826 -0.3899
   29MOL0     H 3878  -0.554   3.843  10.623  0.0369 -0.7496  0.7347
   29MOL0     H 3879  -0.914   3.362  10.331  1.6339  0.1951  0.3710
   29MOL0     H 3880  -1.100   3.212  10.405 -3.4277  1.8235 -0.9336
   29MOL0     H 3881  -1.174   3.117  10.767  0.3788 -0.4781 -0.9541
   29MOL0     H 3882  -1.256   3.267  10.819 -0.2398 -0.2675 -0.7882
   29MOL0     H 3883  -1.464   3.188  10.700  1.3893  1.3829  1.5703
   29MOL0     H 3884  -1.397   3.017  10.697 -0.6163 -1.2762  1.2993
   29MOL0     H 3885  -1.442   3.191  10.941 -1.7869  0.3758 -0.1986
   29MOL0     H 3886  -1.398   3.022  10.938  0.0536  1.1643  0.3757
   29MOL0     H 3887  -1.662   3.172  10.876 -3.0179 -1.0948  3.2275
   29MOL0     H 3888  -1.630   3.009  10.803  0.6233  3.4755 -2.8668
   29MOL0     H 3889  -1.602   3.066  11.114  0.3370 -0.8800  0.7646
   29MOL0     H 3890  -1.604   2.913  11.033 -1.7877 -0.8421 -0.4924
   29MOL0     H 3891  -1.818   2.963  11.147  2.0305 -1.3733 -0.9144
   29MOL0     H 3892  -1.827   3.119  11.069  3.5776  0.6436 -0.0089
   29MOL0     H 3893  -1.838   2.840  10.940  1.5231  0.3360 -1.4487
   29MOL0     H 3894  -1.862   2.994  10.844 -0.8199  3.9756  1.1628
   29MOL0     H 3895  -2.066   2.890  10.866  2.1656 -1.4308 -0.6862
   29MOL0     H 3896  -2.058   3.038  10.975  0.9982  0.2986 -2.4706
   29MOL0     H 3897  -1.153   3.479  10.748 -0.0514  0.5126  0.7000
   29MOL0     H 3898  -0.970   3.596  10.694  0.9349  0.0277 -0.1404
   29MOL0     H 3899  -0.919   3.856  10.204  0.2683 -0.3622  1.0610
   29MOL0     H 3900  -0.781   4.023  10.108 -1.9446 -1.8973 -1.1270
   29MOL0     H 3901   1.281   3.709  10.393  2.2302 -0.4727  1.3078
   29MOL0     H 3902   1.481   3.579  10.322 -0.3132 -0.3429  0.5283
   29MOL0     H 3903   1.754   3.473   9.949 -0.8635  1.7248 -1.8400
   29MOL0     H 3904   1.956   3.394   9.826 -0.2860 -1.3434  0.6516
   29MOL0     H 3905   2.313   3.634   9.756  0.3011  1.8687  1.7827
   29MOL0     H 3906   2.347   3.631   9.919 -0.3995  0.4620 -1.0720
   29MOL0     H 3907   2.415   3.402   9.717  1.3019 -3.2906  1.6161
   29MOL0     H 3908   2.416   3.390   9.896 -2.5053  2.2143  1.4986
   29MOL0     H 3909   2.636   3.419   9.792 -0.2613 -0.9191  2.7242
   29MOL0     H 3910   2.614   3.545   9.906  0.8083  0.4350 -0.4237
   29MOL0     H 3911   2.568   3.705   9.740 -2.2188 -2.3014  3.4517
   29MOL0     H 3912   2.570   3.595   9.603  0.3030 -2.1511  0.6319
   29MOL0     H 3913   2.984   3.648   9.652 -0.2828  0.2554 -0.0670
   29MOL0     H 3914   2.172   3.719   9.990  1.0455 -0.5997 -0.8173
   29MOL0     H 3915   1.977   3.797  10.111 -2.4204  0.2019 -0.0110
   30MOL0     O 3916   0.253  10.629   8.600 -0.2045  0.3706  0.3820
   30MOL0     C 3917   0.265  10.734   8.670 -0.0285  0.9444 -0.1235
   30MOL0     O 3918   0.162  10.817   8.720  0.3215 -0.2981  0.3827
   30MOL0     C 3919   0.034  10.785   8.673  0.2271  0.5403  0.2403
   30MOL0     C 3920  -0.029  10.684   8.740 -0.4461  0.1448  0.5026
   30MOL0     C 3921  -0.163  10.647   8.707 -0.5454 -0.0479 -0.5756
   30MOL0     C 3922  -0.238  10.706   8.603  0.6707  0.3264 -0.1744
   30MOL0     O 3923  -0.362  10.653   8.580 -0.4268 -0.5091  0.0616
   30MOL0     C 3924  -0.441  10.677   8.460 -0.1607 -0.3354 -0.0665
   30MOL0     C 3925  -0.570  10.740   8.503 -0.5738  0.8802  0.9398
   30MOL0     C 3926  -0.583  10.890   8.470 -0.1382 -0.3114 -0.9317
   30MOL0     C 3927  -0.507  10.976   8.573  0.6602 -0.3476  0.6411
   30MOL0     C 3928  -0.504  11.119   8.539 -0.2173  0.4148  0.3149
   30MOL0     C 3929  -0.405  11.155   8.420  0.0368  1.1603  0.2796
   30MOL0     C 3930  -0.341  11.291   8.437  1.0553 -1.3008 -0.3476
   30MOL0     C 3931  -0.271  11.332   8.312  0.5549  0.1365  0.1536
   30MOL0     N 3932  -0.257  11.473   8.286  0.5459  0.2072 -0.6139
   30MOL0     C 3933  -0.184  11.523   8.182  0.2705 -0.3620 -1.0966
   30MOL0     C 3934  -0.158  11.650   8.218 -0.7274  0.0138  0.7046
   30MOL0     C 3935  -0.098  11.757   8.127  0.7834 -0.3940  0.6849
   30MOL0     C 3936  -0.206  11.789   8.027 -0.0785  0.2119  0.3022
   30MOL0     C 3937  -0.157  11.905   7.941  0.5753  0.4871  0.2728
   30MOL0     C 3938  -0.246  11.940   7.819 -0.5549  0.2643 -0.4938
   30MOL0     O 3939  -0.380  11.978   7.869 -0.0419  0.0421  0.1955
   30MOL0     C 3940  -0.476  12.002   7.776  0.6868  0.7605 -0.1008
   30MOL0     C 3941  -0.451  12.053   7.648 -0.1163 -0.2349  0.9151
   30MOL0     C 3942  -0.557  12.067   7.557  1.0117  0.2963  0.6372
   30MOL0     C 3943  -0.523  12.103   7.413 -0.2836  0.0410 -0.5525
   30MOL0     C 3944  -0.698  12.046   7.594  0.1328  0.1524  0.3723
   30MOL0     C 3945  -0.814  12.046   7.506  0.4773  0.4979 -0.5033
   30MOL0     O 3946  -0.928  11.994   7.563  0.0354  0.3272  0.1718
   30MOL0     C 3947  -1.048  12.001   7.510  0.6235  0.2645  0.2591
   30MOL0     C 3948  -1.080  11.988   7.373  0.3776  0.1623  0.5624
   30MOL0     C 3949  -1.210  12.000   7.321 -0.4873 -0.1525 -0.6327
   30MOL0     C 3950  -1.306  12.034   7.407 -0.2873 -0.5914 -0.5336
   30MOL0     O 3951  -1.437  12.043   7.350 -0.0033 -0.3546 -0.0885
   30MOL0     C 3952  -1.544  12.080   7.430  0.2346 -0.7730 -0.1402
   30MOL0     C 3953  -1.620  11.960   7.491 -0.3042  0.0017  0.0120
   30MOL0     C 3954  -1.768  11.998   7.521 -0.2445  0.2604  0.5106
   30MOL0     C 3955  -1.772  12.105   7.632  0.1145  0.3453  0.1068
   30MOL0     C 3956  -1.902  12.120   7.716  0.2522  0.8339 -0.3218
   30MOL0     C 3957  -2.000  12.204   7.626 -0.3473 -0.1788  0.6455
   30MOL0     C 3958  -2.145  12.207   7.667 -0.4798 -0.1432  0.1677
   30MOL0     C 3959  -2.182  12.271   7.796  0.1868  0.0589 -0.9582
   30MOL0    Cl 3960  -2.362  12.270   7.812  0.0323  0.0373 -0.2689
   30MOL0     C 3961  -1.287  12.050   7.541  0.3610  0.4137  0.0250
   30MOL0     C 3962  -1.158  12.032   7.595 -0.4495 -0.1187 -0.1674
   30MOL0     O 3963  -0.812  12.095   7.393  0.6463 -0.2490  0.3945
   30MOL0     C 3964  -0.719  12.006   7.730 -0.4271 -0.1940 -0.2857
   30MOL0     C 3965  -0.611  11.980   7.823  0.0804 -0.3235  0.5162
   30MOL0     N 3966  -0.212  11.681   8.342 -0.8491  0.0673 -0.0894
   30MOL0     N 3967  -0.260  11.574   8.377  0.3337  0.1710  0.3644
   30MOL0     C 3968  -0.167  10.799   8.524  0.5091  0.1500 -0.1256
   30MOL0     C 3969  -0.034  10.843   8.564  0.3168  0.4218  0.7470
   30MOL0     C 3970   0.405  10.755   8.717  0.3913 -0.2917 -0.0986
   30MOL0     C 3971   0.509  10.692   8.655  0.6305 -0.0091 -0.5467
   30MOL0     C 3972   0.633  10.707   8.702  0.0504  0.4549  0.0887
   30MOL0     C 3973   0.660  10.803   8.808 -0.4027 -1.0137  0.6925
   30MOL0     O 3974   0.778  10.828   8.869 -0.8142 -0.2065 -0.0990
   30MOL0     C 3975   0.894  10.769   8.803 -0.4724 -0.2456 -0.6377
   30MOL0     C 3976   1.014  10.850   8.854  0.2152  0.2051  0.1299
   30MOL0     C 3977   1.144  10.827   8.762 -0.9520 -1.2963  0.2622
   30MOL0     C 3978   1.180  10.680   8.717  0.3635 -0.3122  0.6515
   30MOL0     C 3979   1.170  10.590   8.837  1.2209  0.1453 -0.0900
   30MOL0     C 3980   1.170  10.527   8.934 -0.3544  0.7240 -0.5998
   30MOL0     C 3981   0.555  10.885   8.854 -0.5686 -0.0233 -1.1467
   30MOL0     C 3982   0.429  10.860   8.809 -0.2669 -0.6177 -0.1521
   30MOL0     H 3983   0.031  10.630   8.813 -1.8301 -1.6656  0.3603
   30MOL0     H 3984  -0.207  10.573   8.773  0.4716  0.3236  0.5598
   30MOL0     H 3985  -0.396  10.743   8.384  0.7507  2.0921  2.3992
   30MOL0     H 3986  -0.450  10.579   8.413  1.2268 -0.9540  0.8855
   30MOL0     H 3987  -0.642  10.679   8.448  1.4056 -1.1254  0.4150
   30MOL0     H 3988  -0.584  10.730   8.611 -1.0884  1.4765  0.9379
   30MOL0     H 3989  -0.542  10.917   8.372  2.3873  2.1801  0.6601
   30MOL0     H 3990  -0.682  10.929   8.495  0.8007 -0.2758  3.4899
   30MOL0     H 3991  -0.551  10.969   8.672  0.0507  0.4905  0.4425
   30MOL0     H 3992  -0.411  10.923   8.576 -0.0984 -1.8093  0.1903
   30MOL0     H 3993  -0.600  11.153   8.497 -1.0623 -0.0946  1.7497
   30MOL0     H 3994  -0.480  11.173   8.631 -1.2992  0.6366  0.4870
   30MOL0     H 3995  -0.321  11.085   8.420 -0.5907  0.3895  0.1002
   30MOL0     H 3996  -0.460  11.148   8.325  2.0868 -2.0742 -0.8271
   30MOL0     H 3997  -0.412  11.369   8.465  1.5385 -0.3134 -1.7618
   30MOL0     H 3998  -0.275  11.287   8.524 -1.1001  3.8132  1.8957
   30MOL0     H 3999  -0.324  11.289   8.226 -1.2014  0.9835  0.7752
   30MOL0     H 4000  -0.171  11.288   8.313 -0.7341 -3.2324 -2.0492
   30MOL0     H 4001  -0.161  11.469   8.091 -2.8562 -0.8521 -1.6926
   30MOL0     H 4002  -0.075  11.851   8.177 -2.8495  0.5589  0.8739
   30MOL0     H 4003  -0.004  11.718   8.086  1.0092 -0.1159  0.9355
   30MOL0     H 4004  -0.295  11.828   8.078  0.3575 -0.4626  1.6329
   30MOL0     H 4005  -0.232  11.705   7.961 -0.4940  1.8147 -1.6643
   30MOL0     H 4006  -0.059  11.878   7.903  0.2075  0.4508 -0.6875
   30MOL0     H 4007  -0.154  11.992   8.007  1.6209 -0.0953  0.9957
   30MOL0     H 4008  -0.248  11.857   7.747  0.4220 -0.6269  0.4550
   30MOL0     H 4009  -0.199  12.024   7.769  1.8937 -2.3755 -3.0249
   30MOL0     H 4010  -0.351  12.066   7.607 -1.3718  0.3842 -2.2441
   30MOL0     H 4011  -0.529  12.211   7.397  0.5747  0.3468  0.9672
   30MOL0     H 4012  -0.417  12.078   7.405  0.2623  0.7983  2.7741
   30MOL0     H 4013  -0.587  12.052   7.340  2.4371 -3.0862 -0.9495
   30MOL0     H 4014  -1.009  11.955   7.298 -1.4833  1.3345 -1.8871
   30MOL0     H 4015  -1.237  11.989   7.217 -1.9858  0.1749 -0.3151
   30MOL0     H 4016  -1.525  12.159   7.504 -0.2269 -1.6068  0.9107
   30MOL0     H 4017  -1.626  12.121   7.370 -0.2008 -2.1817 -0.5389
   30MOL0     H 4018  -1.616  11.872   7.426  1.7915  0.6588 -0.8039
   30MOL0     H 4019  -1.572  11.926   7.583  1.1696 -0.0576 -0.7622
   30MOL0     H 4020  -1.826  11.909   7.547  0.1219 -0.4661 -1.0458
   30MOL0     H 4021  -1.815  12.034   7.428 -1.1435 -0.3349  0.7218
   30MOL0     H 4022  -1.687  12.099   7.701  0.5951  1.2678 -0.3771
   30MOL0     H 4023  -1.742  12.202   7.592  2.2823  0.4718  1.8295
   30MOL0     H 4024  -1.874  12.175   7.807  0.2069  0.6081 -0.1702
   30MOL0     H 4025  -1.949  12.025   7.742  1.9193  0.0170 -0.1649
   30MOL0     H 4026  -1.969  12.307   7.607 -1.6727 -0.3053 -2.7717
   30MOL0     H 4027  -1.999  12.161   7.526  2.4484  1.6185 -0.2111
   30MOL0     H 4028  -2.176  12.103   7.656  1.8157 -1.0138  1.3535
   30MOL0     H 4029  -2.191  12.263   7.585  4.4550  1.2920 -2.0257
   30MOL0     H 4030  -2.145  12.371   7.817  2.5252 -1.2090  1.5471
   30MOL0     H 4031  -2.139  12.203   7.870  3.7366 -0.6023 -3.3617
   30MOL0     H 4032  -1.369  12.057   7.612  0.9088 -1.6560  0.9601
   30MOL0     H 4033  -1.130  12.067   7.693 -2.6274  1.9811 -0.2190
   30MOL0     H 4034  -0.816  12.005   7.777  1.1772  0.4630  3.3934
   30MOL0     H 4035  -0.638  11.948   7.924  2.8647 -1.2237  1.0654
   30MOL0     H 4036  -0.207  10.852   8.438  3.3860  1.7236 -0.6028
   30MOL0     H 4037   0.015  10.924   8.510 -2.5160  2.1417  0.5510
   30MOL0     H 4038   0.497  10.618   8.577  0.1388  1.7930 -2.2755
   30MOL0     H 4039   0.712  10.646   8.659  1.8075  2.3573  0.4660
   30MOL0     H 4040   0.898  10.662   8.824  3.3283  0.1207  1.2584
   30MOL0     H 4041   0.886  10.788   8.695  0.3542  0.7808 -0.5377
   30MOL0     H 4042   1.022  10.828   8.961 -0.9834  1.6776  0.5642
   30MOL0     H 4043   0.990  10.957   8.849 -3.4427 -0.5225 -0.7962
   30MOL0     H 4044   1.230  10.869   8.814  0.6746 -1.3515 -2.2311
   30MOL0     H 4045   1.124  10.882   8.669 -0.3207  0.9066  1.3540
   30MOL0     H 4046   1.287  10.673   8.691  0.5182 -3.3434  1.6966
   30MOL0     H 4047   1.123  10.651   8.628  0.0285  1.3479  0.2897
   30MOL0     H 4048   1.178  10.470   9.024  0.6876  1.0937 -0.4433
   30MOL0     H 4049   0.586  10.959   8.927  1.3676 -1.4873 -0.4042
   30MOL0     H 4050   0.349  10.923   8.847 -0.9983 -1.7726  0.2923
   31MOL0     O 4051   7.384   6.285   8.639 -0.3927 -0.3312 -0.1352
   31MOL0     C 4052   7.483   6.227   8.677 -0.1441 -0.9892 -0.1224
   31MOL0     O 4053   7.481   6.099   8.711 -0.0649  0.8450  1.0117
   31MOL0     C 4054   7.368   6.048   8.764  0.2001 -0.1765  0.0906
   31MOL0     C 4055   7.353   6.052   8.905  0.5038  0.1265 -0.4216
   31MOL0     C 4056   7.238   5.992   8.963  0.2724 -0.6359 -0.5932
   31MOL0     C 4057   7.128   5.956   8.884  0.4484 -0.0356 -0.6413
   31MOL0     O 4058   7.011   5.893   8.924  0.6512 -1.2118 -0.6068
   31MOL0     C 4059   7.007   5.855   9.065  0.9816 -0.0119 -0.3055
   31MOL0     C 4060   6.894   5.762   9.110  0.3833  0.8856 -0.5603
   31MOL0     C 4061   6.768   5.841   9.146  0.4146  0.6678  0.4065
   31MOL0     C 4062   6.679   5.751   9.227  0.4736  0.1371  0.1213
   31MOL0     C 4063   6.543   5.814   9.251  0.5469 -0.2317  0.1162
   31MOL0     C 4064   6.440   5.723   9.317  0.5275 -0.9415  0.4704
   31MOL0     C 4065   6.302   5.799   9.349  0.8345  0.3773  0.8413
   31MOL0     C 4066   6.315   5.921   9.440  0.0256 -0.2518 -1.0214
   31MOL0     N 4067   6.192   6.004   9.450 -0.4603  0.2874 -0.9983
   31MOL0     C 4068   6.075   5.966   9.518  0.1180  0.1052 -1.0924
   31MOL0     C 4069   6.009   6.082   9.519  0.2881  0.4528  0.0750
   31MOL0     C 4070   5.869   6.102   9.577 -0.9798 -0.4070  0.2867
   31MOL0     C 4071   5.777   6.149   9.467 -0.5295  0.2423  0.1126
   31MOL0     C 4072   5.636   6.146   9.513 -0.5209  1.1331  0.4949
   31MOL0     C 4073   5.590   6.260   9.605  0.2706 -0.7307  0.4206
   31MOL0     O 4074   5.450   6.241   9.617 -0.4667 -0.4700  0.7681
   31MOL0     C 4075   5.378   6.328   9.688  0.0752 -1.4729 -0.0959
   31MOL0     C 4076   5.245   6.308   9.704  1.0751 -0.0539  0.8387
   31MOL0     C 4077   5.162   6.393   9.777 -0.1833 -0.4561 -0.2285
   31MOL0     C 4078   5.010   6.356   9.794 -0.7070  0.0909 -0.5453
   31MOL0     C 4079   5.220   6.515   9.829 -0.1999  0.1856 -0.1706
   31MOL0     C 4080   5.144   6.613   9.906  0.3677 -0.2480  0.5483
   31MOL0     O 4081   5.015   6.583   9.934  0.5628 -0.2737  0.2173
   31MOL0     C 4082   4.920   6.670   9.972  0.3541 -0.8754 -0.4009
   31MOL0     C 4083   4.808   6.599  10.005  0.2714 -0.2993  0.5485
   31MOL0     C 4084   4.698   6.679  10.050 -0.2049  1.3493  0.4926
   31MOL0     C 4085   4.695   6.816  10.052  1.0881  0.0523  0.6318
   31MOL0     O 4086   4.596   6.901  10.103 -0.6535  0.2309 -0.2695
   31MOL0     C 4087   4.464   6.874  10.063  0.6198  0.5225  0.3974
   31MOL0     C 4088   4.374   6.961  10.162 -0.3112 -1.2692 -0.0176
   31MOL0     C 4089   4.392   7.114  10.155 -0.4525  0.0397  0.2657
   31MOL0     C 4090   4.291   7.196  10.245 -0.2852 -0.6268  0.1783
   31MOL0     C 4091   4.313   7.343  10.256 -0.1773 -0.6132  0.4822
   31MOL0     C 4092   4.309   7.419  10.117 -0.1144  0.3424  0.0382
   31MOL0     C 4093   4.430   7.518  10.103 -0.1504 -0.0018 -1.6028
   31MOL0     C 4094   4.408   7.623  10.002  0.4170 -0.3788 -0.0140
   31MOL0    Cl 4095   4.550   7.735  10.013  0.1501  0.3101 -0.3317
   31MOL0     C 4096   4.812   6.883  10.008  0.1485  0.4829  0.9314
   31MOL0     C 4097   4.924   6.815   9.971  0.4764 -0.1061  0.1521
   31MOL0     O 4098   5.195   6.723   9.917 -0.2911  0.3069 -0.1233
   31MOL0     C 4099   5.362   6.529   9.811  0.5898 -0.6345 -0.4663
   31MOL0     C 4100   5.441   6.444   9.742  0.1039 -0.5900 -0.5464
   31MOL0     N 4101   6.078   6.184   9.466  0.3461 -0.0283 -0.0628
   31MOL0     N 4102   6.188   6.130   9.426 -0.1317 -0.1889 -0.0431
   31MOL0     C 4103   7.145   5.976   8.743 -0.3829  0.5340 -0.9924
   31MOL0     C 4104   7.267   6.007   8.680 -0.5452 -0.3837 -0.0196
   31MOL0     C 4105   7.611   6.295   8.676 -0.1856 -0.3550  0.9645
   31MOL0     C 4106   7.725   6.220   8.719  0.0455  0.5496  0.0629
   31MOL0     C 4107   7.849   6.277   8.726  0.1600 -0.0138 -0.2056
   31MOL0     C 4108   7.871   6.413   8.687  0.4703 -0.4671 -0.7754
   31MOL0     O 4109   7.994   6.472   8.694  0.2482  0.3243 -0.8604
   31MOL0     C 4110   8.110   6.389   8.709 -0.4186 -0.2191  0.1738
   31MOL0     C 4111   8.238   6.479   8.702  0.3234 -0.9674 -0.5438
   31MOL0     C 4112   8.224   6.611   8.775 -0.6429  0.3902 -0.7708
   31MOL0     C 4113   8.349   6.687   8.814 -0.2756  0.4528  0.2182
   31MOL0     C 4114   8.406   6.745   8.701 -0.7917 -0.7284  0.4776
   31MOL0     C 4115   8.461   6.792   8.601  0.0681  0.0855  0.2455
   31MOL0     C 4116   7.755   6.486   8.636  0.0896 -0.6670  0.1749
   31MOL0     C 4117   7.626   6.423   8.638  0.3636 -0.4411 -0.4591
   31MOL0     H 4118   7.430   6.094   8.970 -0.3234  0.9290  0.0720
   31MOL0     H 4119   7.238   5.984   9.071 -2.3286  0.8506 -0.4018
   31MOL0     H 4120   7.102   5.803   9.081  2.2577  1.7250 -1.7847
   31MOL0     H 4121   7.004   5.945   9.127  2.9671  1.9692 -2.8649
   31MOL0     H 4122   6.879   5.693   9.027 -3.5756  0.5862  0.2291
   31MOL0     H 4123   6.919   5.712   9.204  3.3887  1.1840 -1.0971
   31MOL0     H 4124   6.803   5.926   9.205  1.6854  0.5473 -0.1484
   31MOL0     H 4125   6.726   5.878   9.052  2.0617  1.4108 -0.0621
   31MOL0     H 4126   6.654   5.661   9.170  1.6998  0.4294 -0.9146
   31MOL0     H 4127   6.724   5.722   9.322 -0.0994 -0.7843  0.1255
   31MOL0     H 4128   6.553   5.908   9.305 -0.6161  2.2242 -3.5765
   31MOL0     H 4129   6.496   5.853   9.160 -0.9002  3.6101  2.2837
   31MOL0     H 4130   6.418   5.638   9.253  0.4991 -0.9220  0.4543
   31MOL0     H 4131   6.467   5.683   9.416  0.5853 -3.9878 -0.6936
   31MOL0     H 4132   6.264   5.825   9.250 -1.5655 -1.2131  1.2521
   31MOL0     H 4133   6.240   5.723   9.398  1.6699  0.4311  2.0270
   31MOL0     H 4134   6.391   5.985   9.395 -0.5552  1.1958 -0.0166
   31MOL0     H 4135   6.345   5.888   9.540 -1.2438  0.0143 -0.5382
   31MOL0     H 4136   6.044   5.866   9.545 -0.1464  0.3787 -0.3722
   31MOL0     H 4137   5.825   6.015   9.627 -0.9201  1.0144  2.9772
   31MOL0     H 4138   5.875   6.177   9.656  3.7113 -0.4774  0.3128
   31MOL0     H 4139   5.776   6.073   9.389  0.3506 -0.9403  1.2034
   31MOL0     H 4140   5.812   6.239   9.414 -0.2473 -1.3089 -2.5036
   31MOL0     H 4141   5.612   6.050   9.559  1.1729  0.5120  0.1577
   31MOL0     H 4142   5.578   6.160   9.421 -1.3167 -4.0571 -0.0732
   31MOL0     H 4143   5.600   6.358   9.558 -2.2466 -0.2783  0.7162
   31MOL0     H 4144   5.648   6.261   9.698  3.7083 -1.4648 -1.5427
   31MOL0     H 4145   5.211   6.221   9.648  1.3167  0.5873 -0.3401
   31MOL0     H 4146   5.007   6.261   9.739  3.9409 -2.3334  2.7033
   31MOL0     H 4147   4.991   6.341   9.900  1.2536  0.0054 -0.1654
   31MOL0     H 4148   4.941   6.429   9.751 -1.8992 -0.2635  0.6997
   31MOL0     H 4149   4.812   6.491   9.995  0.8635 -0.1910 -0.4933
   31MOL0     H 4150   4.622   6.613  10.093  0.2848  0.5915  0.2223
   31MOL0     H 4151   4.445   6.908   9.961  0.8806  1.1300  0.5485
   31MOL0     H 4152   4.426   6.771  10.064  0.1623  0.4741 -3.8863
   31MOL0     H 4153   4.267   6.944  10.150  0.0979 -2.7699 -2.1918
   31MOL0     H 4154   4.416   6.939  10.260  0.7781  1.0636  0.1164
   31MOL0     H 4155   4.408   7.147  10.052  1.0556 -0.6512  0.2626
   31MOL0     H 4156   4.487   7.129  10.207 -1.1149  0.4315  1.4094
   31MOL0     H 4157   4.192   7.188  10.199  0.3779  2.9126 -2.3074
   31MOL0     H 4158   4.293   7.132  10.333  0.3464 -0.7247  0.0985
   31MOL0     H 4159   4.411   7.356  10.302  0.3799 -1.6420 -0.3596
   31MOL0     H 4160   4.234   7.382  10.322 -1.5116 -0.6300 -1.0457
   31MOL0     H 4161   4.318   7.340  10.042 -0.7967  0.8555 -0.5903
   31MOL0     H 4162   4.214   7.471  10.105 -1.3852 -1.9894 -0.5383
   31MOL0     H 4163   4.530   7.476  10.083  1.0059  0.8575  1.7249
   31MOL0     H 4164   4.441   7.571  10.198 -3.4262  0.1526 -1.2212
   31MOL0     H 4165   4.318   7.677  10.033  0.0563 -0.8954 -0.1616
   31MOL0     H 4166   4.389   7.584   9.902  2.0706 -1.2730 -0.0229
   31MOL0     H 4167   4.835   6.989  10.001 -0.3061  0.4858 -3.8604
   31MOL0     H 4168   5.018   6.862   9.944  1.7606 -2.6147 -0.1013
   31MOL0     H 4169   5.402   6.627   9.835 -1.8175  0.3981 -0.3847
   31MOL0     H 4170   5.547   6.463   9.731 -0.2697  0.5481 -2.8821
   31MOL0     H 4171   7.056   5.955   8.684 -0.9838 -2.0193  0.6387
   31MOL0     H 4172   7.265   6.005   8.572 -2.9325  0.9459 -0.0828
   31MOL0     H 4173   7.719   6.116   8.751  0.5828  0.3636 -0.4413
   31MOL0     H 4174   7.931   6.212   8.756 -0.9876 -0.1144  3.1125
   31MOL0     H 4175   8.113   6.335   8.804  2.3598 -0.9640 -0.2807
   31MOL0     H 4176   8.117   6.321   8.624  2.1737  0.6014 -0.3413
   31MOL0     H 4177   8.273   6.506   8.602 -2.3541  1.5382 -0.9227
   31MOL0     H 4178   8.321   6.429   8.753  0.6140 -0.2266 -0.2788
   31MOL0     H 4179   8.183   6.589   8.875  3.1648  2.2757  1.4391
   31MOL0     H 4180   8.155   6.673   8.717 -0.2670 -0.7083 -2.4359
   31MOL0     H 4181   8.416   6.610   8.854 -2.8723 -3.0287 -1.5445
   31MOL0     H 4182   8.325   6.768   8.884 -0.5546  1.5538 -1.1317
   31MOL0     H 4183   8.514   6.825   8.514  3.6149  0.3487  2.3139
   31MOL0     H 4184   7.770   6.590   8.610 -0.6962 -0.7445 -0.6161
   31MOL0     H 4185   7.540   6.477   8.601  0.5403  0.9527  1.0362
   32MOL0     O 4186   3.106   8.812   9.081 -0.7305  0.2299 -0.0202
   32MOL0     C 4187   3.154   8.740   8.989 -0.5624 -0.7969  0.5201
   32MOL0     O 4188   3.073   8.663   8.900  0.7943 -1.1130  0.2959
   32MOL0     C 4189   2.936   8.663   8.923 -0.6627  0.4681  0.1964
   32MOL0     C 4190   2.892   8.575   9.021 -0.3747 -0.1256 -0.5316
   32MOL0     C 4191   2.752   8.566   9.041  0.1107 -0.0749  0.0293
   32MOL0     C 4192   2.661   8.634   8.960  0.3241 -0.1126  1.1639
   32MOL0     O 4193   2.525   8.606   8.975 -0.3399 -0.0014 -0.1539
   32MOL0     C 4194   2.418   8.640   8.888 -0.5237  0.0794  0.4592
   32MOL0     C 4195   2.304   8.538   8.909  0.8207 -0.1980  0.1955
   32MOL0     C 4196   2.180   8.576   8.820 -0.0792 -0.2780  0.0236
   32MOL0     C 4197   2.051   8.521   8.877 -0.4686  0.4380  0.2785
   32MOL0     C 4198   1.915   8.552   8.810 -0.0782 -1.0534  0.3899
   32MOL0     C 4199   1.916   8.514   8.661  0.3246 -0.0879  0.7001
   32MOL0     C 4200   1.782   8.547   8.586 -0.8799 -0.0494  0.5859
   32MOL0     C 4201   1.783   8.521   8.438 -0.2614  0.6521  0.0994
   32MOL0     N 4202   1.651   8.545   8.383 -0.0805 -0.0576  0.2537
   32MOL0     C 4203   1.586   8.452   8.305 -0.0639 -0.2464  0.0781
   32MOL0     C 4204   1.514   8.526   8.211  0.3877 -0.1821  0.2905
   32MOL0     C 4205   1.425   8.481   8.099  0.0671  0.0928 -0.5550
   32MOL0     C 4206   1.284   8.545   8.089 -0.5587 -0.0374 -1.0216
   32MOL0     C 4207   1.201   8.494   7.970  0.6198 -0.3699  0.6225
   32MOL0     C 4208   1.089   8.593   7.938 -0.6391  0.9940 -0.2896
   32MOL0     O 4209   1.001   8.600   8.049 -0.1367 -0.5368 -0.1827
   32MOL0     C 4210   0.879   8.542   8.047  0.9989  0.3146  0.8241
   32MOL0     C 4211   0.818   8.449   7.956  0.0879  0.8688  0.7932
   32MOL0     C 4212   0.683   8.410   7.965 -0.0435  0.0950 -0.2765
   32MOL0     C 4213   0.635   8.321   7.860  0.3146 -0.0125 -0.3318
   32MOL0     C 4214   0.594   8.457   8.068  0.5980 -0.7552 -0.0733
   32MOL0     C 4215   0.440   8.433   8.082 -0.0783 -0.3583 -0.3322
   32MOL0     O 4216   0.384   8.338   8.012 -0.5407 -0.0396 -0.4164
   32MOL0     C 4217   0.247   8.321   8.000 -0.0124  0.7303  1.0518
   32MOL0     C 4218   0.151   8.340   8.095 -0.0766 -0.5348 -0.5536
   32MOL0     C 4219   0.014   8.321   8.055 -0.0616  0.9881 -0.2982
   32MOL0     C 4220  -0.018   8.277   7.930  1.1646  0.3704 -0.5383
   32MOL0     O 4221  -0.150   8.258   7.891  0.2594  0.8807  0.0411
   32MOL0     C 4222  -0.237   8.158   7.954 -0.4137 -0.2488 -0.0380
   32MOL0     C 4223  -0.351   8.149   7.851  0.2419 -0.1028  0.0225
   32MOL0     C 4224  -0.462   8.067   7.903  0.6261  0.8546  0.5219
   32MOL0     C 4225  -0.571   8.052   7.790 -0.0426  0.4379 -0.2742
   32MOL0     C 4226  -0.691   7.977   7.840  0.2220 -0.6926  0.1081
   32MOL0     C 4227  -0.783   7.957   7.725 -0.5125 -0.0728  0.5684
   32MOL0     C 4228  -0.916   7.882   7.775  0.9756  0.0245 -0.6910
   32MOL0     C 4229  -0.988   7.837   7.646 -0.5183  0.5746 -0.5607
   32MOL0    Cl 4230  -1.090   7.701   7.697 -0.0538 -0.4173 -0.1508
   32MOL0     C 4231   0.079   8.259   7.836  0.2520  0.0853 -0.0189
   32MOL0     C 4232   0.210   8.285   7.873 -0.0537 -0.1364  0.6494
   32MOL0     O 4233   0.392   8.502   8.172 -1.0281 -0.2725  0.4448
   32MOL0     C 4234   0.654   8.556   8.146 -0.1698  0.0895 -0.1117
   32MOL0     C 4235   0.790   8.598   8.138  0.1166 -0.0386 -0.5128
   32MOL0     N 4236   1.545   8.662   8.229  0.2924 -0.0989 -0.3803
   32MOL0     N 4237   1.625   8.670   8.331  0.1467  0.1615 -0.4230
   32MOL0     C 4238   2.710   8.725   8.864  0.1201  0.4176 -0.5596
   32MOL0     C 4239   2.850   8.739   8.840  0.4146 -0.4678 -0.1471
   32MOL0     C 4240   3.296   8.738   8.961 -0.0123 -0.1989  0.1935
   32MOL0     C 4241   3.392   8.813   9.031 -0.1108  0.0814 -0.4463
   32MOL0     C 4242   3.521   8.818   8.992 -0.1019  0.3709  0.3848
   32MOL0     C 4243   3.567   8.749   8.887 -0.9515  0.6997 -0.4569
   32MOL0     O 4244   3.701   8.755   8.853  0.1298 -1.0577 -0.2488
   32MOL0     C 4245   3.759   8.660   8.764 -0.0552 -0.2993 -0.5003
   32MOL0     C 4246   3.906   8.680   8.789 -0.2899  0.6149  0.2363
   32MOL0     C 4247   3.938   8.676   8.940 -0.4030  0.2676  0.5427
   32MOL0     C 4248   4.087   8.689   8.956  0.0013  0.8601  0.2439
   32MOL0     C 4249   4.143   8.823   8.920  0.3905  0.4892 -0.5943
   32MOL0     C 4250   4.206   8.924   8.884  0.1561  0.1252  0.0614
   32MOL0     C 4251   3.479   8.660   8.824  0.7822  0.4663 -0.5781
   32MOL0     C 4252   3.342   8.648   8.856  0.7822 -0.3569 -0.5821
   32MOL0     H 4253   2.950   8.512   9.087 -0.8676 -0.3129 -0.2695
   32MOL0     H 4254   2.714   8.504   9.121  1.4377  2.5293  2.8749
   32MOL0     H 4255   2.386   8.744   8.900 -0.0172  0.3153 -0.2067
   32MOL0     H 4256   2.456   8.630   8.786 -3.9252 -2.2956 -0.7461
   32MOL0     H 4257   2.348   8.442   8.878  0.7861 -0.0082 -0.4467
   32MOL0     H 4258   2.265   8.545   9.011 -0.1889  0.8090 -0.2405
   32MOL0     H 4259   2.178   8.685   8.810  0.9876 -0.2342  0.1300
   32MOL0     H 4260   2.198   8.543   8.718 -0.6791 -0.7072  0.0574
   32MOL0     H 4261   2.065   8.413   8.872 -0.8186  0.4257 -0.6182
   32MOL0     H 4262   2.039   8.549   8.982 -3.5800 -3.3763  1.1818
   32MOL0     H 4263   1.835   8.497   8.860 -2.1275  2.5959  1.4803
   32MOL0     H 4264   1.886   8.657   8.823 -0.6603 -0.8748 -1.8378
   32MOL0     H 4265   1.993   8.575   8.614 -0.6634  0.5124 -0.1964
   32MOL0     H 4266   1.947   8.409   8.658  0.8302 -0.0436 -4.6356
   32MOL0     H 4267   1.692   8.501   8.629 -1.5457 -0.5100 -1.2226
   32MOL0     H 4268   1.777   8.656   8.594  2.7099  0.2407  0.4554
   32MOL0     H 4269   1.805   8.415   8.420  0.4641  0.7071  0.5928
   32MOL0     H 4270   1.864   8.577   8.393  2.6675 -0.4669  3.4722
   32MOL0     H 4271   1.579   8.344   8.314 -2.4883 -0.1682 -0.2102
   32MOL0     H 4272   1.476   8.504   8.005  1.2489  2.0144  0.4934
   32MOL0     H 4273   1.408   8.372   8.102  0.6458 -0.0188 -1.1430
   32MOL0     H 4274   1.301   8.653   8.081  1.8647 -0.4540 -2.6232
   32MOL0     H 4275   1.230   8.528   8.183 -0.5968  1.1562 -0.8023
   32MOL0     H 4276   1.165   8.393   7.994 -2.3445 -0.6335 -3.7677
   32MOL0     H 4277   1.269   8.481   7.885 -1.8210  1.0814 -1.6876
   32MOL0     H 4278   1.036   8.559   7.848  1.4253 -0.4788 -1.0431
   32MOL0     H 4279   1.118   8.695   7.913 -0.1625  1.1475  0.8399
   32MOL0     H 4280   0.878   8.405   7.877 -2.7627 -1.2502 -0.3704
   32MOL0     H 4281   0.573   8.377   7.789  0.2470 -1.8569 -1.8223
   32MOL0     H 4282   0.726   8.284   7.812  1.2552  0.8615  0.7324
   32MOL0     H 4283   0.575   8.246   7.912  0.4510  1.4974  2.1378
   32MOL0     H 4284   0.182   8.372   8.195  1.8829 -3.4307 -0.1096
   32MOL0     H 4285  -0.062   8.337   8.131  1.8143  0.9251  1.6884
   32MOL0     H 4286  -0.190   8.061   7.971  0.6626 -0.1732 -2.2605
   32MOL0     H 4287  -0.276   8.198   8.048 -1.2231 -1.2631  0.0630
   32MOL0     H 4288  -0.393   8.243   7.816  2.8159  0.9864 -0.3290
   32MOL0     H 4289  -0.317   8.104   7.758 -0.5364 -1.3078  0.2887
   32MOL0     H 4290  -0.510   8.126   7.981 -0.2627  0.4927  0.2598
   32MOL0     H 4291  -0.428   7.969   7.937 -1.0968 -0.6135 -1.6418
   32MOL0     H 4292  -0.604   8.155   7.772 -0.0763  0.3430 -0.7913
   32MOL0     H 4293  -0.527   8.009   7.699 -2.2899 -1.9255 -0.3671
   32MOL0     H 4294  -0.744   8.041   7.911 -0.0468  0.9220 -1.4792
   32MOL0     H 4295  -0.660   7.886   7.892  1.7975  0.1845  0.7745
   32MOL0     H 4296  -0.803   8.056   7.684 -0.4451  0.3029  1.4124
   32MOL0     H 4297  -0.724   7.891   7.662  2.2585 -1.9531  4.6929
   32MOL0     H 4298  -0.981   7.944   7.837 -1.7528 -0.0799 -3.2003
   32MOL0     H 4299  -0.897   7.788   7.829 -2.1068  0.1604  0.8501
   32MOL0     H 4300  -0.913   7.791   7.581  0.5115 -1.4410  1.8619
   32MOL0     H 4301  -1.048   7.914   7.596 -0.3460  0.9753 -0.1625
   32MOL0     H 4302   0.053   8.239   7.733 -0.2619  0.1187  0.1020
   32MOL0     H 4303   0.297   8.275   7.810  0.4864  0.3544  1.3056
   32MOL0     H 4304   0.596   8.611   8.220 -3.3856 -0.3747 -2.1088
   32MOL0     H 4305   0.828   8.663   8.216  1.0669 -1.2855  0.1025
   32MOL0     H 4306   2.650   8.796   8.809 -0.9036  0.5251  0.6506
   32MOL0     H 4307   2.897   8.796   8.761  0.1665 -0.5649 -0.3624
   32MOL0     H 4308   3.354   8.887   9.102  1.1429 -1.0659  1.5141
   32MOL0     H 4309   3.585   8.874   9.059  0.8794 -0.7753  0.4286
   32MOL0     H 4310   3.736   8.557   8.791  0.9549 -0.5961 -0.7139
   32MOL0     H 4311   3.744   8.681   8.657 -1.2496  1.4615 -0.0276
   32MOL0     H 4312   3.935   8.780   8.756 -1.8689  1.3148  0.8517
   32MOL0     H 4313   3.954   8.603   8.729 -0.8457 -1.4517  2.2994
   32MOL0     H 4314   3.909   8.574   8.968 -1.6369  0.0629 -1.2594
   32MOL0     H 4315   3.888   8.752   9.000 -2.4219 -0.2625 -0.3689
   32MOL0     H 4316   4.129   8.616   8.886 -1.0017  0.1730  0.3465
   32MOL0     H 4317   4.116   8.654   9.056 -1.3990 -2.0382 -0.2508
   32MOL0     H 4318   4.250   9.016   8.850 -2.5115  1.4281 -0.1649
   32MOL0     H 4319   3.521   8.606   8.740 -0.9340  1.6565 -2.2951
   32MOL0     H 4320   3.278   8.580   8.802  0.1629  0.5995 -1.0667
   33MOL0     O 4321   8.039   9.535   9.060 -0.5367  0.0639  0.0519
   33MOL0     C 4322   7.986   9.476   8.966  0.6413  0.2507 -0.8038
   33MOL0     O 4323   7.859   9.432   8.959  0.2137  0.7859 -0.2099
   33MOL0     C 4324   7.768   9.492   9.057  0.6693  0.4170  1.0084
   33MOL0     C 4325   7.772   9.632   9.082 -0.4304 -0.3988 -0.4056
   33MOL0     C 4326   7.694   9.686   9.186  0.2086 -0.1656 -0.0392
   33MOL0     C 4327   7.602   9.604   9.257  0.4105 -0.7937  0.4038
   33MOL0     O 4328   7.536   9.642   9.372 -0.1670  0.1233  0.0177
   33MOL0     C 4329   7.524   9.785   9.388 -0.2748  0.5386 -0.0854
   33MOL0     C 4330   7.457   9.821   9.526 -0.4293 -0.1054  0.2406
   33MOL0     C 4331   7.304   9.796   9.518  0.2223 -0.3009  0.0137
   33MOL0     C 4332   7.220   9.866   9.632 -0.0310  0.7262  0.8021
   33MOL0     C 4333   7.073   9.867   9.610  0.2527  0.0920  0.2050
   33MOL0     C 4334   7.029   9.917   9.469  0.6080  0.6522  0.5761
   33MOL0     C 4335   6.879   9.928   9.462  0.2639  0.0975  0.3219
   33MOL0     C 4336   6.813   9.833   9.358 -0.5951 -0.0962 -1.5105
   33MOL0     N 4337   6.681   9.790   9.390  0.3611  0.0996 -0.1462
   33MOL0     C 4338   6.573   9.796   9.296 -0.0569  0.0033  0.2334
   33MOL0     C 4339   6.476   9.739   9.365 -0.3337  0.3041 -0.3331
   33MOL0     C 4340   6.337   9.712   9.312  0.8232  0.9483  0.6086
   33MOL0     C 4341   6.238   9.816   9.363  0.6191 -0.7306 -0.8767
   33MOL0     C 4342   6.188   9.904   9.264  0.3173 -0.9152  0.4897
   33MOL0     C 4343   6.092  10.004   9.320  0.4322 -0.0710 -0.8182
   33MOL0     O 4344   5.966   9.935   9.350 -0.2889 -0.2583 -0.2104
   33MOL0     C 4345   5.858   9.966   9.264  0.3044 -0.0040 -0.6724
   33MOL0     C 4346   5.870   9.998   9.129 -0.2039 -1.1544  0.4322
   33MOL0     C 4347   5.753  10.002   9.046  0.2003  0.0796 -1.0760
   33MOL0     C 4348   5.767  10.074   8.911  0.0823  0.5610  0.0532
   33MOL0     C 4349   5.630   9.947   9.099 -0.4037 -0.3568  0.1950
   33MOL0     C 4350   5.506   9.948   9.027  0.1752  0.0142  0.8482
   33MOL0     O 4351   5.435   9.831   9.022 -0.4608  0.2579  0.6972
   33MOL0     C 4352   5.313   9.827   8.954  1.1296 -0.2826  0.3145
   33MOL0     C 4353   5.281   9.732   8.858  0.3211 -0.2467 -1.0266
   33MOL0     C 4354   5.154   9.723   8.799 -0.0112 -0.3580 -0.0108
   33MOL0     C 4355   5.045   9.802   8.849  0.0480  0.8464 -0.2568
   33MOL0     O 4356   4.918   9.792   8.795 -0.2247  0.0755 -0.3882
   33MOL0     C 4357   4.807   9.830   8.876  0.4838 -0.6565  0.7708
   33MOL0     C 4358   4.728   9.948   8.831 -0.2814 -0.7572 -0.2406
   33MOL0     C 4359   4.697   9.945   8.680 -0.2303  0.2714 -0.3509
   33MOL0     C 4360   4.639  10.075   8.616  0.2381  0.0317  0.0921
   33MOL0     C 4361   4.644  10.053   8.462  0.1866 -0.2423 -0.9721
   33MOL0     C 4362   4.571  10.157   8.382 -0.0089 -0.4489  0.4202
   33MOL0     C 4363   4.418  10.147   8.394 -0.3926  0.4992  0.2449
   33MOL0     C 4364   4.366  10.287   8.360 -0.1692  0.9076  0.5128
   33MOL0    Cl 4365   4.197  10.269   8.418 -0.1818  0.2314  0.5452
   33MOL0     C 4366   5.087   9.894   8.945  0.4399  0.1898 -0.6863
   33MOL0     C 4367   5.215   9.906   9.001  0.7721 -0.7301 -0.2078
   33MOL0     O 4368   5.474  10.056   8.965  0.1259  0.2125  0.2559
   33MOL0     C 4369   5.623   9.920   9.238  0.2081  0.0984  0.6163
   33MOL0     C 4370   5.736   9.935   9.326 -0.4286 -1.1478 -0.0905
   33MOL0     N 4371   6.514   9.701   9.499  0.0054  0.2925 -0.4958
   33MOL0     N 4372   6.634   9.739   9.509  0.3400 -0.1913 -0.5455
   33MOL0     C 4373   7.584   9.473   9.216 -0.1615 -0.2980 -0.1879
   33MOL0     C 4374   7.670   9.415   9.124  0.6049 -0.1755 -0.2053
   33MOL0     C 4375   8.069   9.429   8.860  0.5880  0.4402 -0.4242
   33MOL0     C 4376   8.017   9.329   8.775  0.3369 -0.0877 -0.3677
   33MOL0     C 4377   8.101   9.296   8.662 -0.4275  0.6700 -0.7126
   33MOL0     C 4378   8.230   9.344   8.647 -0.7144 -0.3355 -0.0258
   33MOL0     O 4379   8.323   9.309   8.557  0.6763  0.3631  0.0273
   33MOL0     C 4380   8.309   9.173   8.503 -0.7996 -0.2493 -0.3860
   33MOL0     C 4381   8.453   9.122   8.468 -0.7276  0.0638 -0.2726
   33MOL0     C 4382   8.526   9.216   8.371 -0.0098 -0.6220  0.0504
   33MOL0     C 4383   8.645   9.289   8.431  0.6524  0.3247 -0.0747
   33MOL0     C 4384   8.724   9.352   8.331 -0.0927  0.8434  0.0821
   33MOL0     C 4385   8.794   9.419   8.259  0.2188  0.7044  0.4807
   33MOL0     C 4386   8.279   9.447   8.727  0.5885  0.2236 -0.8278
   33MOL0     C 4387   8.191   9.491   8.828  0.6465 -0.5543 -0.3380
   33MOL0     H 4388   7.837   9.693   9.020 -2.3102  0.6754 -1.4444
   33MOL0     H 4389   7.701   9.791   9.211 -0.0062 -0.5463  1.7609
   33MOL0     H 4390   7.623   9.831   9.380 -0.3513  0.3723 -2.8891
   33MOL0     H 4391   7.466   9.821   9.302  0.1873  1.9240  0.1525
   33MOL0     H 4392   7.514   9.766   9.601  1.3705  2.1724  0.6612
   33MOL0     H 4393   7.489   9.924   9.546  1.7700 -0.7582  0.3957
   33MOL0     H 4394   7.279   9.824   9.415 -2.0051 -2.0659 -0.0284
   33MOL0     H 4395   7.289   9.687   9.526 -0.5223 -0.2120 -0.0337
   33MOL0     H 4396   7.241   9.815   9.726  3.2576  1.6368  0.6640
   33MOL0     H 4397   7.256   9.969   9.641  0.2121  0.9706 -2.0687
   33MOL0     H 4398   7.037   9.764   9.617 -1.6953  0.5698 -1.8643
   33MOL0     H 4399   7.026   9.934   9.683 -0.0500  0.8403 -0.6624
   33MOL0     H 4400   7.074  10.008   9.431 -0.2857  1.4391  1.3484
   33MOL0     H 4401   7.050   9.830   9.406 -0.9668 -0.2523  1.2135
   33MOL0     H 4402   6.837   9.893   9.558 -1.7079 -4.2605 -1.8491
   33MOL0     H 4403   6.862  10.034   9.439  0.5877 -0.1294 -0.9826
   33MOL0     H 4404   6.865   9.738   9.346 -1.1039 -0.7223  0.7355
   33MOL0     H 4405   6.812   9.880   9.259 -0.4908  2.4813 -0.3605
   33MOL0     H 4406   6.578   9.819   9.190  1.2839 -3.9449 -0.7152
   33MOL0     H 4407   6.334   9.713   9.202 -1.1439 -1.1078  0.5658
   33MOL0     H 4408   6.300   9.614   9.343 -0.1059  0.9714 -0.3479
   33MOL0     H 4409   6.283   9.871   9.447  0.1362  0.1807 -1.2063
   33MOL0     H 4410   6.145   9.774   9.404  0.3953  1.1109  0.6325
   33MOL0     H 4411   6.134   9.846   9.189  1.0534 -2.9222  1.4458
   33MOL0     H 4412   6.276   9.956   9.225 -0.1773 -0.4899 -0.0877
   33MOL0     H 4413   6.085  10.090   9.253 -0.3631  1.5921  1.2767
   33MOL0     H 4414   6.131  10.044   9.414 -0.1702 -2.7713  0.7148
   33MOL0     H 4415   5.967  10.008   9.082 -0.4568 -0.2888  0.0715
   33MOL0     H 4416   5.674  10.131   8.896 -1.1899 -1.4654 -0.1114
   33MOL0     H 4417   5.854  10.140   8.912 -0.8953  1.9076  1.4646
   33MOL0     H 4418   5.760   9.996   8.835 -1.2805 -2.9606  3.4335
   33MOL0     H 4419   5.360   9.662   8.831 -0.8401 -2.1420  0.2610
   33MOL0     H 4420   5.145   9.650   8.720 -1.7951 -0.1948 -0.0017
   33MOL0     H 4421   4.743   9.741   8.878 -0.5450 -0.0162 -1.0757
   33MOL0     H 4422   4.840   9.845   8.979 -1.8166  3.0625  1.1336
   33MOL0     H 4423   4.636   9.957   8.889  0.7762  0.4388  1.3214
   33MOL0     H 4424   4.792  10.035   8.847  1.0766 -1.7420 -0.1776
   33MOL0     H 4425   4.627   9.864   8.656 -1.2904  0.9800  0.2787
   33MOL0     H 4426   4.784   9.916   8.620 -1.7814 -0.7554 -2.1926
   33MOL0     H 4427   4.540  10.100   8.655  1.1949  2.1251  1.3590
   33MOL0     H 4428   4.709  10.155   8.643  1.7030 -0.9496 -0.6890
   33MOL0     H 4429   4.589   9.960   8.446 -1.8815  0.4429  1.4469
   33MOL0     H 4430   4.745  10.037   8.423  0.9646 -4.8417  2.0690
   33MOL0     H 4431   4.604  10.255   8.415 -3.8273  1.0038  0.4595
   33MOL0     H 4432   4.602  10.154   8.277  3.1499 -0.5619  1.2647
   33MOL0     H 4433   4.407  10.112   8.497  2.6036 -0.9590  0.1516
   33MOL0     H 4434   4.380  10.072   8.325  2.7599 -1.3127  0.2925
   33MOL0     H 4435   4.381  10.303   8.253  1.5764 -1.6750  0.2900
   33MOL0     H 4436   4.418  10.372   8.406  1.1135  0.8926 -0.8470
   33MOL0     H 4437   5.016   9.962   8.990  1.1116  0.3991  0.0792
   33MOL0     H 4438   5.238   9.965   9.090 -1.2884  0.2976 -0.3019
   33MOL0     H 4439   5.528   9.880   9.274  0.8480 -1.7172  0.3753
   33MOL0     H 4440   5.727   9.914   9.432 -2.2989  0.8721  0.2386
   33MOL0     H 4441   7.502   9.419   9.263  0.1055 -0.1831  0.4068
   33MOL0     H 4442   7.661   9.310   9.100  2.9347 -0.6077  0.5464
   33MOL0     H 4443   7.922   9.278   8.785  0.9037 -1.9539 -3.1843
   33MOL0     H 4444   8.063   9.213   8.603 -2.7517  1.1634  0.0031
   33MOL0     H 4445   8.269   9.116   8.588  0.6295 -1.4091 -0.4630
   33MOL0     H 4446   8.246   9.173   8.414 -1.2247 -2.1051 -0.1288
   33MOL0     H 4447   8.441   9.031   8.409 -0.2532  1.9064 -3.4532
   33MOL0     H 4448   8.516   9.121   8.557 -0.7877  1.7902 -0.1907
   33MOL0     H 4449   8.447   9.286   8.344  0.5462  0.9639  2.2561
   33MOL0     H 4450   8.557   9.153   8.287  2.2475  0.8017 -0.2585
   33MOL0     H 4451   8.705   9.211   8.478 -1.1181 -2.2637 -1.8160
   33MOL0     H 4452   8.624   9.359   8.513  0.9704 -0.2728  0.5364
   33MOL0     H 4453   8.849   9.477   8.187 -2.3758 -0.0363 -2.3484
   33MOL0     H 4454   8.382   9.477   8.708  1.2121 -1.1069  0.2820
   33MOL0     H 4455   8.229   9.570   8.892  1.2816 -0.6455 -0.5957
   34MOL0     O 4456  10.715  11.355   8.124 -0.5008 -0.1895  0.9487
   34MOL0     C 4457  10.599  11.362   8.173 -0.1628  0.4773 -0.3943
   34MOL0     O 4458  10.534  11.470   8.229 -0.4674  0.1716 -0.0038
   34MOL0     C 4459  10.607  11.592   8.224  0.5599  0.6052 -0.0982
   34MOL0     C 4460  10.732  11.599   8.275 -0.2159  0.2944  0.1788
   34MOL0     C 4461  10.800  11.719   8.290 -0.1118  0.4741  0.1469
   34MOL0     C 4462  10.736  11.838   8.241 -0.7928  0.2597 -0.8280
   34MOL0     O 4463  10.784  11.966   8.249 -0.6008  0.1819  0.2226
   34MOL0     C 4464  10.915  11.994   8.297 -0.4442  0.4873 -0.5600
   34MOL0     C 4465  10.921  12.144   8.325 -0.5703  0.2424  0.4471
   34MOL0     C 4466  10.809  12.202   8.411 -0.2735 -0.1588  0.3567
   34MOL0     C 4467  10.802  12.146   8.554 -0.1293  0.1373  0.3831
   34MOL0     C 4468  10.947  12.126   8.612  0.1404 -0.5720 -0.1207
   34MOL0     C 4469  10.921  12.107   8.758 -0.4223  0.5416 -0.4953
   34MOL0     C 4470  11.053  12.049   8.821 -0.4877  0.2263  0.6283
   34MOL0     C 4471  11.034  12.012   8.973  0.1240  0.7052  0.4094
   34MOL0     N 4472  10.900  11.952   9.007 -0.5052  0.1240  0.2085
   34MOL0     C 4473  10.866  11.818   8.994  0.5049  0.2850 -0.2820
   34MOL0     C 4474  10.741  11.823   9.046 -0.1481 -0.3135 -0.0168
   34MOL0     C 4475  10.645  11.709   9.053 -0.7496 -0.5150  0.6154
   34MOL0     C 4476  10.515  11.739   9.130 -0.6356 -0.4923 -1.2697
   34MOL0     C 4477  10.415  11.623   9.159  0.5396  0.1344 -0.1617
   34MOL0     C 4478  10.266  11.670   9.202 -0.3111 -0.2479  0.6470
   34MOL0     O 4479  10.208  11.739   9.097 -0.1383 -0.4988  0.3311
   34MOL0     C 4480  10.106  11.820   9.120  0.7006 -0.8044 -0.9834
   34MOL0     C 4481  10.080  11.925   9.039  0.7231 -0.0136 -0.8939
   34MOL0     C 4482   9.971  12.014   9.063 -0.1754  0.0351  0.8808
   34MOL0     C 4483   9.949  12.121   8.962 -0.5844  0.0390  0.6895
   34MOL0     C 4484   9.884  12.003   9.174  0.6974  0.1787  0.1733
   34MOL0     C 4485   9.771  12.090   9.207 -0.0010  0.0753 -1.6176
   34MOL0     O 4486   9.727  12.096   9.338  0.0997 -0.5771  0.7039
   34MOL0     C 4487   9.626  12.174   9.380  0.0480  0.0697 -0.1139
   34MOL0     C 4488   9.508  12.103   9.412 -0.4895  0.8614 -0.4970
   34MOL0     C 4489   9.408  12.172   9.477 -1.0543  0.1470  1.0105
   34MOL0     C 4490   9.416  12.313   9.493 -0.4754 -0.5197  0.2547
   34MOL0     O 4491   9.301  12.381   9.535  0.3345 -0.2920  0.2065
   34MOL0     C 4492   9.293  12.526   9.525 -0.2973 -0.0209  0.3241
   34MOL0     C 4493   9.185  12.582   9.619 -0.6781  0.9583  0.1269
   34MOL0     C 4494   9.040  12.541   9.574 -0.9248 -0.2060 -0.5020
   34MOL0     C 4495   8.930  12.570   9.675  0.5556 -0.4445 -0.1248
   34MOL0     C 4496   8.901  12.724   9.699 -0.3454  0.6549  0.9454
   34MOL0     C 4497   8.801  12.753   9.816 -0.5962  0.1043  0.8581
   34MOL0     C 4498   8.811  12.897   9.870  0.4507  0.0709 -0.3442
   34MOL0     C 4499   8.761  12.983   9.761  0.1640 -0.0187 -0.5757
   34MOL0    Cl 4500   8.598  12.923   9.692  0.2267 -0.1452 -0.0837
   34MOL0     C 4501   9.539  12.389   9.457  0.2754  0.1730 -0.2716
   34MOL0     C 4502   9.641  12.307   9.409  0.1849 -0.2067  0.5341
   34MOL0     O 4503   9.710  12.140   9.120  0.3754  0.6385 -0.2955
   34MOL0     C 4504   9.919  11.900   9.262  0.2785  0.2893 -0.0324
   34MOL0     C 4505  10.024  11.807   9.236  0.1538  0.4382 -0.5109
   34MOL0     N 4506  10.706  11.944   9.091  0.8267 -0.4230 -0.2137
   34MOL0     N 4507  10.807  12.028   9.071 -0.4487  0.3057  0.0998
   34MOL0     C 4508  10.607  11.832   8.194  0.0233 -0.3093  0.0662
   34MOL0     C 4509  10.539  11.709   8.188 -0.1253 -0.5543  0.2808
   34MOL0     C 4510  10.530  11.239   8.191  0.5364  0.1182  0.0453
   34MOL0     C 4511  10.602  11.120   8.215  0.9803  0.0266 -0.4532
   34MOL0     C 4512  10.528  10.998   8.235  1.1513 -0.3673 -0.1575
   34MOL0     C 4513  10.393  10.990   8.195  1.0916 -0.4464  0.3801
   34MOL0     O 4514  10.316  10.878   8.185  0.0703 -0.3045  0.0816
   34MOL0     C 4515  10.379  10.752   8.225 -0.0360  0.0084 -0.6782
   34MOL0     C 4516  10.277  10.628   8.204 -0.7196 -0.5458 -0.0816
   34MOL0     C 4517  10.316  10.489   8.271 -0.3230 -0.2541  1.0794
   34MOL0     C 4518  10.352  10.507   8.415 -0.4587 -0.0459 -0.4343
   34MOL0     C 4519  10.355  10.386   8.487 -0.1077 -0.3029 -0.6576
   34MOL0     C 4520  10.359  10.279   8.543 -0.0596 -0.5037 -0.3482
   34MOL0     C 4521  10.326  11.115   8.181 -0.2921 -0.0263  0.4995
   34MOL0     C 4522  10.393  11.235   8.187  0.6857  0.7137  0.8003
   34MOL0     H 4523  10.790  11.520   8.323  3.3842  3.4909  1.5622
   34MOL0     H 4524  10.902  11.721   8.328  0.5299 -2.1079 -1.1838
   34MOL0     H 4525  10.932  11.939   8.390  0.9224  0.0092 -1.0780
   34MOL0     H 4526  10.992  11.974   8.222  0.8147  0.2748  0.7417
   34MOL0     H 4527  11.017  12.157   8.375 -0.8897  0.7497  0.9364
   34MOL0     H 4528  10.911  12.192   8.227  3.0852 -0.6015 -0.4947
   34MOL0     H 4529  10.821  12.310   8.427 -0.1790 -0.2928  1.2793
   34MOL0     H 4530  10.712  12.176   8.367 -1.0394  2.3652  0.3748
   34MOL0     H 4531  10.748  12.217   8.617  1.6293  1.2818  0.6605
   34MOL0     H 4532  10.744  12.053   8.559 -1.6069  1.0915  2.5105
   34MOL0     H 4533  10.996  12.035   8.578 -0.2751 -0.3672 -1.2902
   34MOL0     H 4534  11.002  12.218   8.593 -1.0857  0.2294  0.1145
   34MOL0     H 4535  10.902  12.200   8.813  1.2429  0.1343  0.8684
   34MOL0     H 4536  10.834  12.046   8.782 -0.5391  0.8917 -0.0108
   34MOL0     H 4537  11.100  11.962   8.774  1.4466  2.4260 -1.8306
   34MOL0     H 4538  11.126  12.130   8.823  1.7491 -1.6769  1.9557
   34MOL0     H 4539  11.041  12.106   9.029  0.6735  0.2220  1.1805
   34MOL0     H 4540  11.120  11.954   9.009 -0.6718  0.6593  2.3703
   34MOL0     H 4541  10.920  11.744   8.935 -1.1257 -0.7412 -0.5589
   34MOL0     H 4542  10.634  11.679   8.948  0.7254  1.3555 -0.1398
   34MOL0     H 4543  10.682  11.619   9.102 -1.8882 -2.2679 -1.5923
   34MOL0     H 4544  10.470  11.814   9.065  0.0125  0.8548 -0.2135
   34MOL0     H 4545  10.550  11.788   9.221 -1.1439  0.9313 -1.8217
   34MOL0     H 4546  10.452  11.567   9.245  2.0403  1.6245  0.2209
   34MOL0     H 4547  10.420  11.554   9.074  2.6068 -1.6550  1.3102
   34MOL0     H 4548  10.274  11.743   9.284  1.6884 -0.9842  1.1615
   34MOL0     H 4549  10.198  11.590   9.233  0.8058 -1.1349  0.8709
   34MOL0     H 4550  10.144  11.948   8.954  1.3408 -1.8049 -0.9504
   34MOL0     H 4551   9.903  12.081   8.871 -1.6530  0.0752  1.2008
   34MOL0     H 4552   9.894  12.204   9.007 -1.2440  0.2573 -0.4944
   34MOL0     H 4553  10.045  12.157   8.923 -0.9628 -1.7634 -2.1639
   34MOL0     H 4554   9.490  11.999   9.391  3.2379  0.0124 -0.1161
   34MOL0     H 4555   9.316  12.121   9.500 -0.5237  0.3376  3.9423
   34MOL0     H 4556   9.385  12.581   9.549 -0.1529  0.4261 -1.1307
   34MOL0     H 4557   9.264  12.565   9.427  1.7753  0.5119 -0.1426
   34MOL0     H 4558   9.205  12.551   9.722  1.1121  2.1278  0.1660
   34MOL0     H 4559   9.192  12.691   9.617 -3.6316  1.2319 -1.6447
   34MOL0     H 4560   9.035  12.436   9.545 -1.8237  0.7680 -4.4848
   34MOL0     H 4561   9.018  12.592   9.480  0.7641  1.3877 -0.0974
   34MOL0     H 4562   8.832  12.534   9.642 -0.1446  0.1115  1.2655
   34MOL0     H 4563   8.954  12.516   9.767 -0.9530 -0.2447  0.4050
   34MOL0     H 4564   8.872  12.772   9.605  3.9951  2.6048  0.3277
   34MOL0     H 4565   8.995  12.776   9.720  0.9857 -0.7912 -1.0745
   34MOL0     H 4566   8.698  12.725   9.793 -0.8240  0.8651  0.9240
   34MOL0     H 4567   8.830  12.684   9.896  1.3244 -0.5494 -0.3279
   34MOL0     H 4568   8.913  12.926   9.897  0.3446  2.2810 -2.0542
   34MOL0     H 4569   8.760  12.915   9.965 -1.1628 -2.4904 -0.6111
   34MOL0     H 4570   8.844  12.972   9.691  0.0692  1.0996 -0.8728
   34MOL0     H 4571   8.761  13.085   9.800 -0.7508 -0.4694  0.6944
   34MOL0     H 4572   9.560  12.495   9.467 -1.2237  0.4057  0.6946
   34MOL0     H 4573   9.739  12.353   9.400  1.2085 -1.3760  4.1670
   34MOL0     H 4574   9.851  11.878   9.345 -3.3750  1.6089 -2.4055
   34MOL0     H 4575  10.031  11.729   9.311 -0.4633 -1.1949 -2.0743
   34MOL0     H 4576  10.567  11.924   8.153  1.8188  0.5909  0.2324
   34MOL0     H 4577  10.436  11.695   8.154  0.2904  0.2847 -1.4078
   34MOL0     H 4578  10.711  11.117   8.224  1.0392  0.5234 -0.9322
   34MOL0     H 4579  10.586  10.910   8.264  2.9349  1.3001  1.6661
   34MOL0     H 4580  10.475  10.735   8.176 -0.6405  0.6714 -2.1312
   34MOL0     H 4581  10.400  10.749   8.333  0.5336  1.6884 -0.7195
   34MOL0     H 4582  10.278  10.624   8.095 -1.3799  0.0581 -0.1248
   34MOL0     H 4583  10.176  10.659   8.236 -0.6750 -0.3770 -0.0998
   34MOL0     H 4584  10.398  10.449   8.211 -1.3142 -3.2987  1.5917
   34MOL0     H 4585  10.232  10.422   8.254 -0.1058  0.3284 -3.2332
   34MOL0     H 4586  10.278  10.581   8.447 -0.4569  0.8179 -2.3128
   34MOL0     H 4587  10.450  10.551   8.436 -1.3318  0.7939  2.2691
   34MOL0     H 4588  10.343  10.186   8.593 -2.3340  0.4117  0.7676
   34MOL0     H 4589  10.219  11.131   8.172 -0.4158  0.4174  2.4214
   34MOL0     H 4590  10.334  11.322   8.162  4.1475  2.6426 -1.4144
   35MOL0     O 4591   9.367   8.979   7.496 -0.5387  0.4025 -0.2656
   35MOL0     C 4592   9.358   9.036   7.605 -0.0343 -0.0885 -0.0344
   35MOL0     O 4593   9.254   9.111   7.659  1.0217  0.1288 -0.1192
   35MOL0     C 4594   9.167   9.192   7.587  0.2527  0.1357 -0.4966
   35MOL0     C 4595   9.119   9.170   7.454  0.1615  0.2347  0.0184
   35MOL0     C 4596   9.038   9.263   7.395  0.1835 -0.1183  0.3198
   35MOL0     C 4597   8.983   9.378   7.459  0.7875  0.7927 -0.7438
   35MOL0     O 4598   8.896   9.466   7.390 -0.5338  0.0856 -0.2702
   35MOL0     C 4599   8.806   9.412   7.297 -0.5960 -0.3410 -0.2211
   35MOL0     C 4600   8.723   9.523   7.237  0.3895 -0.2364  0.3315
   35MOL0     C 4601   8.621   9.461   7.133 -0.8360  0.4351 -0.1145
   35MOL0     C 4602   8.531   9.576   7.080 -0.6808 -0.1467  0.0880
   35MOL0     C 4603   8.398   9.557   7.146  0.1464 -0.4749  0.2180
   35MOL0     C 4604   8.293   9.653   7.094  0.1094 -0.5606 -0.4236
   35MOL0     C 4605   8.158   9.646   7.171 -0.3999  1.0990  0.5241
   35MOL0     C 4606   8.046   9.752   7.125  0.0474  0.7410 -0.3196
   35MOL0     N 4607   8.017   9.776   6.986  0.8251  0.0174  0.1597
   35MOL0     C 4608   8.096   9.852   6.904 -0.2057 -0.3127 -0.5016
   35MOL0     C 4609   8.036   9.845   6.780  1.3741 -0.1404 -0.1609
   35MOL0     C 4610   8.082   9.908   6.655 -0.1954  1.0924  0.3924
   35MOL0     C 4611   8.176   9.818   6.575 -0.1639  0.1615  0.4931
   35MOL0     C 4612   8.285   9.741   6.650 -0.3283 -0.4670 -0.5465
   35MOL0     C 4613   8.397   9.701   6.558 -0.0834 -0.1986  0.2989
   35MOL0     O 4614   8.465   9.587   6.619 -0.6204 -1.0650  0.7247
   35MOL0     C 4615   8.582   9.598   6.684  0.2568  0.3375 -0.1587
   35MOL0     C 4616   8.638   9.715   6.732  0.3528 -0.1982  0.1942
   35MOL0     C 4617   8.764   9.715   6.803  0.6324 -0.0723 -0.0506
   35MOL0     C 4618   8.819   9.838   6.862 -0.4804  0.2194 -0.2432
   35MOL0     C 4619   8.821   9.589   6.825  1.1977  0.1641  0.1058
   35MOL0     C 4620   8.940   9.556   6.909  0.0681 -0.5639 -0.6633
   35MOL0     O 4621   8.951   9.426   6.949 -0.1524  0.5949 -0.7918
   35MOL0     C 4622   9.078   9.379   6.984  0.5141  0.8027  0.4966
   35MOL0     C 4623   9.139   9.412   7.103 -0.4452 -0.0096  0.1739
   35MOL0     C 4624   9.261   9.363   7.146 -0.0324 -0.3154 -0.6310
   35MOL0     C 4625   9.321   9.264   7.065 -0.0551  1.1696  0.1013
   35MOL0     O 4626   9.440   9.193   7.083  0.0581 -0.8205  0.4066
   35MOL0     C 4627   9.511   9.229   7.201  0.6973 -0.2534  1.2639
   35MOL0     C 4628   9.637   9.144   7.225 -0.4239  0.2518  0.5010
   35MOL0     C 4629   9.739   9.233   7.305  0.3348 -0.2309  0.0571
   35MOL0     C 4630   9.862   9.150   7.340 -0.0626  0.8978 -0.1124
   35MOL0     C 4631   9.957   9.216   7.437 -0.0060  0.2647 -0.0507
   35MOL0     C 4632  10.090   9.132   7.441  0.4748 -0.0629  0.6272
   35MOL0     C 4633  10.182   9.198   7.554 -0.5717  0.0873 -0.0430
   35MOL0     C 4634  10.305   9.112   7.563 -0.6924  0.3759  0.2785
   35MOL0    Cl 4635  10.389   9.118   7.410 -0.0651 -0.0988  0.3704
   35MOL0     C 4636   9.254   9.227   6.949 -0.0819  0.4582  0.2011
   35MOL0     C 4637   9.136   9.284   6.907 -0.3599 -0.2673  0.3812
   35MOL0     O 4638   9.022   9.645   6.926  0.1367 -0.0788  1.1102
   35MOL0     C 4639   8.779   9.472   6.754 -0.0459 -0.9865  0.2739
   35MOL0     C 4640   8.651   9.480   6.692  0.7589 -0.4576 -0.5956
   35MOL0     N 4641   7.937   9.753   6.793  0.2748 -0.1567 -0.3245
   35MOL0     N 4642   7.930   9.705   6.914  0.3366  0.6769  1.5729
   35MOL0     C 4643   9.016   9.387   7.597 -0.2663 -0.2137 -0.9540
   35MOL0     C 4644   9.103   9.301   7.659  0.9548  0.1001 -0.3255
   35MOL0     C 4645   9.468   8.990   7.702  0.9466  0.2306  0.4470
   35MOL0     C 4646   9.594   8.939   7.648  0.2535 -0.0573 -0.6239
   35MOL0     C 4647   9.691   8.884   7.728  0.0150 -0.6232  0.2496
   35MOL0     C 4648   9.666   8.860   7.862 -0.7287 -0.1625  0.2227
   35MOL0     O 4649   9.770   8.793   7.923 -0.4676 -0.7928 -0.5902
   35MOL0     C 4650   9.769   8.816   8.071  0.8160  0.1159 -0.3517
   35MOL0     C 4651   9.890   8.770   8.131 -0.0408  0.5293  0.2633
   35MOL0     C 4652   9.890   8.779   8.284  0.4510  1.0302 -0.1031
   35MOL0     C 4653   9.772   8.710   8.359  0.6690  0.2263 -0.3507
   35MOL0     C 4654   9.810   8.670   8.497  0.0451 -0.6279  0.3162
   35MOL0     C 4655   9.856   8.636   8.602  0.4742  0.1646  0.5684
   35MOL0     C 4656   9.553   8.921   7.918  0.3302  0.0716  0.4805
   35MOL0     C 4657   9.445   8.974   7.835 -0.0933  0.0017 -0.8851
   35MOL0     H 4658   9.152   9.088   7.391 -1.8715 -2.3917  2.1287
   35MOL0     H 4659   9.014   9.237   7.293  2.2991 -2.1552  0.2458
   35MOL0     H 4660   8.867   9.367   7.218  2.2044  0.3812  1.3918
   35MOL0     H 4661   8.744   9.342   7.353  0.2884 -0.2363  0.9280
   35MOL0     H 4662   8.671   9.586   7.311 -1.6751  0.8221 -1.8617
   35MOL0     H 4663   8.800   9.573   7.177  1.6505  0.2393  2.2528
   35MOL0     H 4664   8.678   9.409   7.056 -0.7001 -0.0692  0.3182
   35MOL0     H 4665   8.568   9.380   7.185  1.3026 -1.2848 -0.4349
   35MOL0     H 4666   8.583   9.669   7.106  1.1961 -1.2833  0.6441
   35MOL0     H 4667   8.528   9.572   6.970 -0.3982 -2.2041  0.1119
   35MOL0     H 4668   8.353   9.458   7.135  2.5509 -1.6894  0.7189
   35MOL0     H 4669   8.396   9.566   7.255 -3.4706 -0.5933  0.2945
   35MOL0     H 4670   8.325   9.757   7.110  0.0304 -0.4673 -0.8400
   35MOL0     H 4671   8.273   9.613   6.995 -1.6559 -3.1978  0.9003
   35MOL0     H 4672   8.118   9.545   7.170  0.1803  0.8393  1.4710
   35MOL0     H 4673   8.182   9.669   7.276 -4.1289 -2.2812  2.3780
   35MOL0     H 4674   8.071   9.853   7.158  2.2625  0.5908 -1.3636
   35MOL0     H 4675   7.958   9.711   7.176 -0.3148 -0.2227 -1.6526
   35MOL0     H 4676   8.184   9.913   6.923 -1.3750  1.2209  0.1900
   35MOL0     H 4677   7.996   9.934   6.592  0.2113  0.0738 -0.6209
   35MOL0     H 4678   8.135  10.000   6.678  0.7052  0.3042  1.5563
   35MOL0     H 4679   8.226   9.890   6.510  0.0822  2.2979  2.8852
   35MOL0     H 4680   8.123   9.739   6.522  1.0399 -1.3990  1.5083
   35MOL0     H 4681   8.233   9.652   6.688  0.1956 -1.3153 -1.7262
   35MOL0     H 4682   8.319   9.805   6.731 -3.3830  2.4992 -1.3516
   35MOL0     H 4683   8.466   9.779   6.527  0.5039 -0.9396 -0.3191
   35MOL0     H 4684   8.353   9.658   6.468  0.4697 -0.5979  0.2167
   35MOL0     H 4685   8.600   9.814   6.709 -0.7708 -0.2488  1.6628
   35MOL0     H 4686   8.905   9.873   6.804 -1.4163  1.1008 -1.1494
   35MOL0     H 4687   8.743   9.917   6.861 -2.4618 -1.5336  1.3765
   35MOL0     H 4688   8.850   9.817   6.964  0.2698 -0.3564 -0.5819
   35MOL0     H 4689   9.100   9.492   7.165  1.4352  1.3526 -0.3103
   35MOL0     H 4690   9.311   9.392   7.238 -2.7058 -0.0309  0.8147
   35MOL0     H 4691   9.529   9.337   7.202 -2.6148  0.4304  0.2174
   35MOL0     H 4692   9.441   9.211   7.283 -2.5642  2.6755 -0.5940
   35MOL0     H 4693   9.627   9.045   7.269 -0.5053  0.2429  0.4614
   35MOL0     H 4694   9.681   9.129   7.126 -0.2453 -0.3998  0.6769
   35MOL0     H 4695   9.687   9.265   7.396  2.3572 -0.6583  1.4415
   35MOL0     H 4696   9.764   9.317   7.239 -1.0050  1.0029  1.0460
   35MOL0     H 4697   9.831   9.058   7.391  3.9939 -1.5622 -1.6033
   35MOL0     H 4698   9.924   9.133   7.251  4.7209  0.0073  2.9967
   35MOL0     H 4699   9.912   9.214   7.537 -0.7983 -0.1411 -0.4077
   35MOL0     H 4700   9.973   9.321   7.411  2.0127  0.4167  1.5109
   35MOL0     H 4701  10.076   9.028   7.471  0.1220  0.2263  1.5335
   35MOL0     H 4702  10.139   9.147   7.345 -0.1346 -1.0526  0.1471
   35MOL0     H 4703  10.133   9.197   7.652  2.6003 -1.8529  1.6921
   35MOL0     H 4704  10.197   9.298   7.513 -3.1627 -0.0488 -1.5567
   35MOL0     H 4705  10.286   9.008   7.589 -0.4148  0.0472 -0.7645
   35MOL0     H 4706  10.367   9.156   7.641 -3.6679  0.4217  2.8226
   35MOL0     H 4707   9.296   9.140   6.900 -2.2012  0.8027 -2.4942
   35MOL0     H 4708   9.086   9.244   6.819 -0.2404  0.6042 -0.0981
   35MOL0     H 4709   8.826   9.375   6.763  0.5662 -0.5456  2.4157
   35MOL0     H 4710   8.611   9.388   6.649  0.4626  0.1475 -1.6623
   35MOL0     H 4711   8.966   9.466   7.651  0.0424 -1.4308  1.2343
   35MOL0     H 4712   9.145   9.306   7.759 -0.4444 -2.9342  0.5496
   35MOL0     H 4713   9.611   8.945   7.541 -0.9929 -1.1823 -0.9033
   35MOL0     H 4714   9.781   8.853   7.677  0.1182 -0.3017  0.2304
   35MOL0     H 4715   9.750   8.918   8.105 -1.2820 -0.0313 -0.9244
   35MOL0     H 4716   9.685   8.760   8.114  1.5302 -1.9146 -1.4679
   35MOL0     H 4717   9.973   8.826   8.089  0.3578 -1.3261 -1.5976
   35MOL0     H 4718   9.920   8.669   8.103  1.4778  1.0072  0.1145
   35MOL0     H 4719   9.893   8.884   8.312  0.6626  0.9800  0.0646
   35MOL0     H 4720   9.982   8.728   8.315  0.4129  0.9827 -0.0676
   35MOL0     H 4721   9.738   8.626   8.298 -2.3818  0.5142  0.7810
   35MOL0     H 4722   9.682   8.770   8.371 -1.7207 -3.3655  1.7906
   35MOL0     H 4723   9.886   8.603   8.699  1.2141 -0.1355  0.2457
   35MOL0     H 4724   9.532   8.904   8.023  2.3664  0.4078  0.9874
   35MOL0     H 4725   9.359   9.027   7.875  1.8014  3.1568 -0.5872
   36MOL0     O 4726   9.210   8.778  11.026 -0.3370  0.2637  0.5740
   36MOL0     C 4727   9.295   8.852  10.974 -0.1179  0.4859  0.9295
   36MOL0     O 4728   9.263   8.961  10.895 -0.6570 -0.7410  0.4741
   36MOL0     C 4729   9.128   8.979  10.874 -0.2951 -0.6895  0.7348
   36MOL0     C 4730   9.064   9.085  10.936  0.1298 -1.1116  0.1502
   36MOL0     C 4731   8.928   9.102  10.930  0.7535  0.4828  0.5623
   36MOL0     C 4732   8.845   9.013  10.857 -0.4583 -0.4264 -0.2146
   36MOL0     O 4733   8.710   9.023  10.879  0.4665  0.1238 -0.2288
   36MOL0     C 4734   8.620   8.972  10.785  0.6968 -0.4791 -0.3232
   36MOL0     C 4735   8.585   8.827  10.779 -1.2373  0.0929 -0.3936
   36MOL0     C 4736   8.445   8.801  10.856  0.4197  0.6000 -0.3483
   36MOL0     C 4737   8.342   8.798  10.750 -1.0406 -0.1337  0.6122
   36MOL0     C 4738   8.207   8.803  10.825 -0.0498  0.5248 -0.4917
   36MOL0     C 4739   8.160   8.673  10.886  0.6970 -0.3850 -0.6228
   36MOL0     C 4740   8.012   8.689  10.928 -0.7535  0.1027  0.3495
   36MOL0     C 4741   7.969   8.551  10.973  0.4807  0.4874  0.6852
   36MOL0     N 4742   7.839   8.559  11.030  0.5214  0.0907 -0.6410
   36MOL0     C 4743   7.809   8.509  11.150 -0.3441 -0.6755  0.1402
   36MOL0     C 4744   7.679   8.554  11.176  0.0279  0.5258  0.5024
   36MOL0     C 4745   7.608   8.524  11.307 -0.2212 -0.0744 -0.0701
   36MOL0     C 4746   7.473   8.584  11.309  0.7465 -0.5932 -0.1325
   36MOL0     C 4747   7.408   8.577  11.451  0.1047  0.6877  0.5519
   36MOL0     C 4748   7.256   8.611  11.451 -0.2151  0.1746  0.1321
   36MOL0     O 4749   7.180   8.543  11.348  0.0594  0.3525  0.2250
   36MOL0     C 4750   7.049   8.589  11.319 -0.4986  0.8640 -0.0706
   36MOL0     C 4751   6.972   8.693  11.387  0.2093  0.0470 -0.3547
   36MOL0     C 4752   6.851   8.747  11.336 -0.2826  0.0558  0.0245
   36MOL0     C 4753   6.794   8.871  11.393 -1.0060  0.0836  0.1600
   36MOL0     C 4754   6.792   8.678  11.228 -0.2634 -0.1703 -0.2928
   36MOL0     C 4755   6.662   8.728  11.179  0.7480  0.2751 -0.0444
   36MOL0     O 4756   6.561   8.648  11.201  0.4181 -0.2552 -0.2498
   36MOL0     C 4757   6.442   8.662  11.127  0.4489 -0.5210  0.1938
   36MOL0     C 4758   6.382   8.785  11.097  0.2318  0.1796 -0.4511
   36MOL0     C 4759   6.252   8.796  11.042 -0.6526 -0.0646  0.3935
   36MOL0     C 4760   6.185   8.682  11.003  1.0204  0.2694 -0.4999
   36MOL0     O 4761   6.067   8.701  10.936  0.5055 -0.5591  0.1631
   36MOL0     C 4762   6.073   8.713  10.790 -0.0861 -0.4121  0.1376
   36MOL0     C 4763   6.065   8.582  10.718 -0.3965  0.1115  0.1293
   36MOL0     C 4764   5.950   8.493  10.744  0.1954  0.4976  0.5363
   36MOL0     C 4765   5.824   8.520  10.651 -0.1049  0.0681 -0.7498
   36MOL0     C 4766   5.702   8.441  10.706 -0.2737 -0.9008 -0.4389
   36MOL0     C 4767   5.569   8.489  10.636 -0.6796  0.4621  0.3925
   36MOL0     C 4768   5.554   8.639  10.646  0.8461 -0.0176 -0.7933
   36MOL0     C 4769   5.409   8.676  10.636  0.3868 -0.0362  0.3079
   36MOL0    Cl 4770   5.312   8.631  10.779 -0.0432 -0.3749  0.1306
   36MOL0     C 4771   6.242   8.555  11.045  0.3405 -1.0609 -0.0427
   36MOL0     C 4772   6.362   8.551  11.103 -0.4366  0.4611  0.0728
   36MOL0     O 4773   6.665   8.822  11.098 -0.4565 -0.3743 -0.5929
   36MOL0     C 4774   6.872   8.584  11.163 -0.3396  0.1954  0.1779
   36MOL0     C 4775   6.996   8.535  11.206 -0.2293  0.0680  0.1345
   36MOL0     N 4776   7.641   8.629  11.066 -0.3077 -0.5940 -0.4268
   36MOL0     N 4777   7.736   8.630  10.977  0.1523  0.3325  0.2155
   36MOL0     C 4778   8.913   8.911  10.792  1.3140 -0.0488  1.2125
   36MOL0     C 4779   9.046   8.892  10.802 -0.2248  0.7758 -0.5168
   36MOL0     C 4780   9.437   8.832  10.998  0.1824 -0.0038  0.8095
   36MOL0     C 4781   9.481   8.738  11.096 -0.5905 -0.8000  0.1530
   36MOL0     C 4782   9.616   8.730  11.128 -0.1787  0.3921 -0.4102
   36MOL0     C 4783   9.708   8.792  11.047 -1.1346 -0.3184  0.6622
   36MOL0     O 4784   9.841   8.769  11.058 -0.1984  0.0212 -0.0388
   36MOL0     C 4785   9.885   8.651  10.991 -0.3330  0.5260 -0.4288
   36MOL0     C 4786  10.019   8.683  10.917 -0.2481 -0.6332  0.2292
   36MOL0     C 4787  10.146   8.691  11.006 -0.4096  0.3744 -0.3710
   36MOL0     C 4788  10.257   8.757  10.932 -0.3699  0.6577  0.0013
   36MOL0     C 4789  10.259   8.700  10.793  0.0563 -0.2669 -0.2104
   36MOL0     C 4790  10.266   8.660  10.675 -0.8485  0.5471 -0.7130
   36MOL0     C 4791   9.660   8.876  10.943 -0.0250 -0.0086 -0.3079
   36MOL0     C 4792   9.526   8.901  10.921 -0.7204 -0.2292  0.3535
   36MOL0     H 4793   9.107   9.152  11.010  0.2057 -1.2181  0.2027
   36MOL0     H 4794   8.878   9.175  10.992  0.6610 -0.4273  1.5769
   36MOL0     H 4795   8.525   9.025  10.792  1.3415  0.6569  0.0410
   36MOL0     H 4796   8.654   9.001  10.686  0.0769  1.9892  0.1121
   36MOL0     H 4797   8.571   8.799  10.674 -1.3756 -2.6182  0.2737
   36MOL0     H 4798   8.663   8.761  10.819 -0.9108 -0.1895 -1.4628
   36MOL0     H 4799   8.452   8.698  10.892  1.0858  0.0048 -2.1190
   36MOL0     H 4800   8.419   8.871  10.937 -1.5926 -0.4067 -0.0588
   36MOL0     H 4801   8.358   8.876  10.674 -1.7199  0.0945  0.7022
   36MOL0     H 4802   8.361   8.706  10.694  2.1502  2.1050 -2.4768
   36MOL0     H 4803   8.209   8.896  10.882  0.8578  2.3712 -3.2852
   36MOL0     H 4804   8.138   8.818  10.741 -0.6644  0.5993  0.0193
   36MOL0     H 4805   8.145   8.609  10.798  0.4731  2.3754 -2.7393
   36MOL0     H 4806   8.223   8.629  10.964 -1.8288 -0.2032  1.6655
   36MOL0     H 4807   7.992   8.768  11.001 -1.3959  0.8401 -0.5927
   36MOL0     H 4808   7.953   8.726  10.843 -1.6781  2.8690  2.0405
   36MOL0     H 4809   8.054   8.521  11.035 -0.8808 -2.1288  1.4070
   36MOL0     H 4810   7.967   8.472  10.899  3.0272  0.9118  0.0967
   36MOL0     H 4811   7.873   8.447  11.212  0.2609 -0.4302 -0.2285
   36MOL0     H 4812   7.618   8.415  11.311 -0.3364 -0.1087 -0.6756
   36MOL0     H 4813   7.665   8.577  11.384 -0.7833 -1.2447  1.1834
   36MOL0     H 4814   7.410   8.531  11.237 -1.3710  2.6801 -0.8847
   36MOL0     H 4815   7.477   8.686  11.270  3.8425 -1.4139 -2.4045
   36MOL0     H 4816   7.468   8.649  11.508 -1.8454  1.8125  1.2658
   36MOL0     H 4817   7.427   8.477  11.490  1.6630 -0.1201 -2.0335
   36MOL0     H 4818   7.230   8.716  11.434 -0.5593  0.1275  0.3650
   36MOL0     H 4819   7.220   8.585  11.550 -1.0732  0.6509 -0.0440
   36MOL0     H 4820   7.015   8.755  11.465  2.2095  2.3124 -3.0485
   36MOL0     H 4821   6.686   8.867  11.380 -0.7961  1.0846 -2.8075
   36MOL0     H 4822   6.810   8.875  11.501 -3.2997 -1.1123  0.5963
   36MOL0     H 4823   6.836   8.959  11.342  2.4699 -1.9482 -0.8199
   36MOL0     H 4824   6.428   8.877  11.129  2.7421 -0.0350 -2.9756
   36MOL0     H 4825   6.212   8.896  11.028 -3.7744 -0.9152  2.0705
   36MOL0     H 4826   5.989   8.777  10.758  0.0666 -0.6004 -0.6574
   36MOL0     H 4827   6.166   8.761  10.758  1.2088 -1.1001  2.6012
   36MOL0     H 4828   6.075   8.604  10.611  0.9863  0.9391  0.4038
   36MOL0     H 4829   6.161   8.530  10.722  0.3696  1.3857 -0.8682
   36MOL0     H 4830   5.911   8.515  10.843 -0.2947  1.5374  0.1225
   36MOL0     H 4831   5.986   8.390  10.741 -1.0629  0.0308  1.1630
   36MOL0     H 4832   5.814   8.628  10.645  3.0652  0.3877 -1.8627
   36MOL0     H 4833   5.846   8.483  10.551 -1.5846  1.2959 -1.5613
   36MOL0     H 4834   5.699   8.465  10.812  0.5879 -3.3978  0.2004
   36MOL0     H 4835   5.714   8.333  10.694  3.6093 -0.9260  2.0008
   36MOL0     H 4836   5.571   8.450  10.534 -2.8217  1.6230 -0.1583
   36MOL0     H 4837   5.483   8.440  10.684 -0.0115 -3.7446 -2.1883
   36MOL0     H 4838   5.600   8.694  10.563  0.2694  1.2495 -0.3163
   36MOL0     H 4839   5.587   8.681  10.741  3.0094  1.4459 -2.0985
   36MOL0     H 4840   5.367   8.637  10.543 -0.5812  0.9470  0.3126
   36MOL0     H 4841   5.398   8.784  10.618 -2.0234 -0.1785  0.6750
   36MOL0     H 4842   6.183   8.465  11.026 -1.9770 -0.1602  2.3168
   36MOL0     H 4843   6.395   8.452  11.134  0.2214  0.7932  0.4442
   36MOL0     H 4844   6.835   8.535  11.073 -1.2344 -3.1733  2.2073
   36MOL0     H 4845   7.060   8.469  11.148 -2.4897 -2.6775  0.5797
   36MOL0     H 4846   8.856   8.828  10.751  0.6877 -0.3032  2.5534
   36MOL0     H 4847   9.096   8.804  10.762 -2.6768 -0.8652 -0.1493
   36MOL0     H 4848   9.414   8.682  11.161 -1.0326 -0.2689  0.1576
   36MOL0     H 4849   9.631   8.660  11.210 -3.9007 -0.3749 -0.1937
   36MOL0     H 4850   9.895   8.577  11.071 -1.5145  0.6194 -0.1745
   36MOL0     H 4851   9.801   8.608  10.936 -1.0379 -0.7143  1.5162
   36MOL0     H 4852  10.003   8.783  10.876  1.8756  0.0914  1.0208
   36MOL0     H 4853  10.039   8.619  10.831 -0.4223  0.6513 -0.7852
   36MOL0     H 4854  10.174   8.589  11.036  0.8000  0.9596  0.5620
   36MOL0     H 4855  10.129   8.742  11.101 -0.6214 -0.8346  0.2692
   36MOL0     H 4856  10.348   8.743  10.991  1.6474  0.0966 -3.0417
   36MOL0     H 4857  10.247   8.865  10.920 -4.1071  0.4387 -0.1014
   36MOL0     H 4858  10.276   8.625  10.574  0.3140 -0.9576 -0.1278
   36MOL0     H 4859   9.740   8.924  10.888  1.5245 -0.3290  1.5459
   36MOL0     H 4860   9.499   8.956  10.832 -1.2957 -0.5232  0.3434
   37MOL0     O 4861   4.274   8.806   7.023  0.0954  0.1120  0.1221
   37MOL0     C 4862   4.270   8.874   7.127  0.3488  1.2415  1.3221
   37MOL0     O 4863   4.160   8.906   7.193  0.6365  0.3913  0.4820
   37MOL0     C 4864   4.046   8.854   7.157  0.4376  0.0871 -0.0513
   37MOL0     C 4865   3.936   8.940   7.145 -0.3116  0.3131 -0.1342
   37MOL0     C 4866   3.813   8.887   7.103  0.0739  0.6710  0.0341
   37MOL0     C 4867   3.794   8.758   7.093 -0.3622  1.1449  0.8455
   37MOL0     O 4868   3.669   8.716   7.084 -0.8519  0.4017  0.4117
   37MOL0     C 4869   3.632   8.583   7.123  0.9846 -0.0390  0.0489
   37MOL0     C 4870   3.482   8.563   7.130  1.0516  0.4978 -0.1541
   37MOL0     C 4871   3.425   8.438   7.197  0.2575 -0.0131  1.0880
   37MOL0     C 4872   3.278   8.426   7.205 -0.1128  0.2529  0.2295
   37MOL0     C 4873   3.248   8.299   7.288 -0.2210  0.1273  0.6059
   37MOL0     C 4874   3.101   8.268   7.275  0.4968 -0.1526  0.4156
   37MOL0     C 4875   3.061   8.150   7.376 -0.2820 -0.1708 -0.3632
   37MOL0     C 4876   3.119   8.026   7.323  0.0037 -0.6485  0.4087
   37MOL0     N 4877   3.041   7.908   7.365 -0.2214 -0.0651 -0.2480
   37MOL0     C 4878   2.973   7.834   7.275  1.1456 -0.1747  0.1326
   37MOL0     C 4879   2.917   7.731   7.353  0.5803 -0.2284 -0.2726
   37MOL0     C 4880   2.834   7.629   7.290  0.6676  0.2317  0.6761
   37MOL0     C 4881   2.703   7.593   7.369 -0.2217 -0.2021  0.3702
   37MOL0     C 4882   2.741   7.487   7.476  0.0851  0.8315 -0.4768
   37MOL0     C 4883   2.624   7.453   7.580 -0.7002 -0.6877  0.4437
   37MOL0     O 4884   2.516   7.396   7.510  0.3141 -1.1063 -0.3487
   37MOL0     C 4885   2.431   7.317   7.586 -0.0018 -1.0251  0.0465
   37MOL0     C 4886   2.401   7.354   7.719 -0.0978 -0.1147  0.0159
   37MOL0     C 4887   2.312   7.281   7.799  0.0760 -0.4862  0.2112
   37MOL0     C 4888   2.289   7.331   7.943 -0.1288 -0.3378 -0.1550
   37MOL0     C 4889   2.245   7.169   7.741  0.4206  0.3576 -0.0876
   37MOL0     C 4890   2.143   7.089   7.825  0.3468 -0.9419  0.7333
   37MOL0     O 4891   2.060   7.008   7.749  0.2408  0.1749 -1.5031
   37MOL0     C 4892   1.984   6.917   7.825 -0.3598 -0.4052 -0.0628
   37MOL0     C 4893   1.851   6.942   7.853  0.0836  0.4692  0.0917
   37MOL0     C 4894   1.770   6.853   7.927 -0.2397 -0.3539  0.4141
   37MOL0     C 4895   1.827   6.731   7.969  0.0972 -0.1867 -0.0321
   37MOL0     O 4896   1.767   6.620   8.031  0.5103 -0.0852  0.8513
   37MOL0     C 4897   1.628   6.620   8.031  0.3797  0.4891  0.4633
   37MOL0     C 4898   1.572   6.484   8.075 -0.5615 -0.3292 -0.0042
   37MOL0     C 4899   1.433   6.460   8.040  0.1960 -1.4801 -1.0889
   37MOL0     C 4900   1.393   6.310   8.074 -0.4394 -0.4235  0.5426
   37MOL0     C 4901   1.261   6.275   7.994 -0.4531 -0.3825  0.0103
   37MOL0     C 4902   1.207   6.135   8.026  0.3865  0.5841 -0.4907
   37MOL0     C 4903   1.090   6.100   7.932 -0.3019 -1.0424 -0.1476
   37MOL0     C 4904   1.022   5.965   7.947  0.1460 -0.0591  0.1666
   37MOL0    Cl 4905   0.900   5.920   7.828  0.0382  0.2295 -0.0004
   37MOL0     C 4906   1.965   6.715   7.953  0.6114  0.3720  0.3762
   37MOL0     C 4907   2.038   6.796   7.863  0.2278 -0.0227  0.0521
   37MOL0     O 4908   2.153   7.090   7.943  0.0286 -0.4779  0.0258
   37MOL0     C 4909   2.271   7.138   7.606 -0.1874 -0.5719 -0.3527
   37MOL0     C 4910   2.359   7.213   7.532 -0.0724 -0.7386 -0.5257
   37MOL0     N 4911   2.955   7.753   7.484 -0.1351  0.0528  1.1204
   37MOL0     N 4912   3.019   7.861   7.490 -0.5395 -0.8072 -0.1779
   37MOL0     C 4913   3.898   8.663   7.122  0.6714  0.8377 -0.2099
   37MOL0     C 4914   4.029   8.715   7.148  1.1911  0.7188 -0.5925
   37MOL0     C 4915   4.397   8.934   7.170  0.9555 -0.6600 -0.4806
   37MOL0     C 4916   4.509   8.921   7.085  0.5715  0.5752  0.1141
   37MOL0     C 4917   4.629   8.981   7.129 -0.1693 -0.2841  0.3347
   37MOL0     C 4918   4.644   9.063   7.244 -0.1550 -0.0462 -0.2090
   37MOL0     O 4919   4.764   9.114   7.287  0.2601 -0.0789 -0.0151
   37MOL0     C 4920   4.862   9.147   7.180 -0.1130 -0.3564 -0.0586
   37MOL0     C 4921   4.913   9.292   7.211 -0.6357  0.5120 -0.0292
   37MOL0     C 4922   4.996   9.295   7.338  0.3960  0.2654  0.3934
   37MOL0     C 4923   5.086   9.174   7.358 -0.5989  0.5331 -0.3452
   37MOL0     C 4924   5.193   9.202   7.451  0.3711  0.0472 -0.7761
   37MOL0     C 4925   5.286   9.221   7.526 -0.3390 -0.0015  0.7732
   37MOL0     C 4926   4.530   9.073   7.324  0.6894 -0.2805  0.2315
   37MOL0     C 4927   4.404   9.014   7.288 -0.4763  0.6238  0.6585
   37MOL0     H 4928   3.948   9.045   7.168 -2.9928  0.7754 -0.5577
   37MOL0     H 4929   3.736   8.957   7.075  1.6030  2.0100 -1.0277
   37MOL0     H 4930   3.678   8.511   7.054 -2.0710 -2.8699  0.6775
   37MOL0     H 4931   3.668   8.567   7.225 -0.8210 -0.0582  0.7267
   37MOL0     H 4932   3.452   8.653   7.184  0.9539  1.1596 -1.2681
   37MOL0     H 4933   3.445   8.556   7.027 -0.8566  0.6401  0.4848
   37MOL0     H 4934   3.464   8.344   7.158  3.3584  1.0904  1.2713
   37MOL0     H 4935   3.467   8.451   7.298 -1.5042  1.1236  1.7394
   37MOL0     H 4936   3.242   8.510   7.265 -0.7407  0.4683 -0.4315
   37MOL0     H 4937   3.228   8.431   7.108 -3.0031 -1.4527  1.5216
   37MOL0     H 4938   3.302   8.213   7.246 -1.2515 -0.5302  0.5909
   37MOL0     H 4939   3.280   8.322   7.390 -2.9066  1.0525  1.3346
   37MOL0     H 4940   3.049   8.359   7.308 -0.4579 -0.9270  1.1326
   37MOL0     H 4941   3.068   8.245   7.173  3.6670  0.9243 -0.9752
   37MOL0     H 4942   3.091   8.178   7.477 -2.4302 -2.6881  1.0955
   37MOL0     H 4943   2.953   8.132   7.378 -0.2148 -0.5970  1.8844
   37MOL0     H 4944   3.218   8.017   7.369  0.7416  2.7569 -0.3028
   37MOL0     H 4945   3.133   8.025   7.215 -0.1461  1.2042  0.3522
   37MOL0     H 4946   2.964   7.853   7.168  1.1555 -0.2661  0.1152
   37MOL0     H 4947   2.808   7.667   7.191 -0.9154  1.5987  1.5555
   37MOL0     H 4948   2.876   7.530   7.270  0.4281  0.5982 -1.9133
   37MOL0     H 4949   2.633   7.559   7.292 -1.2340  0.0497  1.1596
   37MOL0     H 4950   2.667   7.685   7.415  1.2734 -0.2249  1.6715
   37MOL0     H 4951   2.829   7.521   7.531  0.4229  0.4081 -0.7507
   37MOL0     H 4952   2.773   7.398   7.421 -0.1840  0.4816 -0.0843
   37MOL0     H 4953   2.583   7.540   7.631 -0.9851 -0.5649  0.0066
   37MOL0     H 4954   2.654   7.381   7.657 -1.0605  0.2805  1.5121
   37MOL0     H 4955   2.449   7.442   7.759  1.7937 -1.6132  1.2603
   37MOL0     H 4956   2.317   7.260   8.020  2.2526  1.0834  0.4010
   37MOL0     H 4957   2.346   7.424   7.957 -0.0920 -0.6504  2.1748
   37MOL0     H 4958   2.185   7.362   7.959 -0.1971 -1.5344  1.9968
   37MOL0     H 4959   1.814   7.036   7.814  0.8059  0.9906  0.6277
   37MOL0     H 4960   1.667   6.880   7.948 -0.1256 -0.8083  1.6798
   37MOL0     H 4961   1.584   6.700   8.092  0.5554  1.3612 -0.5159
   37MOL0     H 4962   1.586   6.639   7.932  1.0973  0.1725  0.0904
   37MOL0     H 4963   1.628   6.402   8.028 -0.3322  1.3674 -2.9178
   37MOL0     H 4964   1.572   6.474   8.184  0.0831  0.4645  0.0742
   37MOL0     H 4965   1.411   6.475   7.934  0.0103  0.6879 -0.7975
   37MOL0     H 4966   1.371   6.533   8.094  5.2352  1.7366  1.1605
   37MOL0     H 4967   1.466   6.241   8.030  3.6800  1.6590  3.4045
   37MOL0     H 4968   1.391   6.296   8.182 -2.9966  0.1891  0.6381
   37MOL0     H 4969   1.284   6.295   7.890 -0.5493  1.8827  0.3800
   37MOL0     H 4970   1.181   6.346   8.019  1.1633  1.4740  0.0945
   37MOL0     H 4971   1.291   6.069   8.002  0.1940  0.5519 -1.0831
   37MOL0     H 4972   1.170   6.117   8.127 -0.1551  0.4071 -0.7158
   37MOL0     H 4973   1.124   6.106   7.828  1.8986  1.4513  0.5839
   37MOL0     H 4974   1.009   6.170   7.956 -1.5120 -2.4259 -0.1197
   37MOL0     H 4975   0.975   5.968   8.046  0.7326  0.4060  0.4329
   37MOL0     H 4976   1.105   5.895   7.949  1.4899  1.4885  0.6720
   37MOL0     H 4977   2.011   6.623   7.989 -0.1075  0.4940  1.6525
   37MOL0     H 4978   2.141   6.774   7.837  0.3633  0.8154 -0.1497
   37MOL0     H 4979   2.205   7.063   7.563 -2.3765 -0.4970  2.5580
   37MOL0     H 4980   2.373   7.191   7.426 -0.4635  0.3754 -0.8271
   37MOL0     H 4981   3.894   8.554   7.126 -1.8995  0.8762 -0.4925
   37MOL0     H 4982   4.117   8.655   7.166  0.1336 -0.6389  0.3383
   37MOL0     H 4983   4.515   8.856   6.998  1.3677  1.3018 -0.3973
   37MOL0     H 4984   4.701   8.950   7.054 -1.9359 -1.5419 -0.9285
   37MOL0     H 4985   4.948   9.080   7.174  0.4887  0.3341  0.6732
   37MOL0     H 4986   4.823   9.155   7.078  2.1346 -2.0061 -1.1312
   37MOL0     H 4987   4.818   9.346   7.215 -1.0755 -0.2605  0.4354
   37MOL0     H 4988   4.975   9.330   7.130  2.4873 -0.0025  1.9758
   37MOL0     H 4989   4.930   9.289   7.426 -0.4433 -0.7985 -0.2856
   37MOL0     H 4990   5.063   9.381   7.343 -0.3955  0.9773 -0.7781
   37MOL0     H 4991   5.137   9.135   7.269  2.2480  2.4677  0.3104
   37MOL0     H 4992   5.022   9.097   7.402 -2.5386  3.2878  2.0577
   37MOL0     H 4993   5.354   9.233   7.608 -0.9688  1.9621  1.0565
   37MOL0     H 4994   4.546   9.134   7.412  0.1275  1.3066 -0.7301
   37MOL0     H 4995   4.320   9.024   7.357 -0.5874  0.2934  0.5700
   38MOL0     O 4996   3.924   7.616  10.265 -0.5185  0.4840 -0.6477
   38MOL0     C 4997   3.992   7.709  10.231  0.2168 -0.7295  0.3003
   38MOL0     O 4998   3.950   7.806  10.146 -0.5689 -0.2211 -0.7634
   38MOL0     C 4999   3.825   7.860  10.143 -0.2284  0.4806 -0.4898
   38MOL0     C 5000   3.812   7.962  10.051  0.7274  0.0944  0.7331
   38MOL0     C 5001   3.693   8.037  10.039 -0.7612  0.4427  0.7585
   38MOL0     C 5002   3.590   8.017  10.125  0.2017  0.2888 -0.1173
   38MOL0     O 5003   3.475   8.103  10.107  0.1874  0.3971  0.3319
   38MOL0     C 5004   3.387   8.116  10.214  0.6272  0.0050  0.3981
   38MOL0     C 5005   3.279   8.228  10.185  0.2934  0.0145  0.0305
   38MOL0     C 5006   3.136   8.210  10.245  0.2861 -0.4664 -0.4025
   38MOL0     C 5007   3.132   8.225  10.398 -0.6199 -0.3579  0.9441
   38MOL0     C 5008   2.994   8.201  10.463 -0.5577  0.2488  1.1930
   38MOL0     C 5009   2.889   8.310  10.463  0.7080  0.1246 -0.4277
   38MOL0     C 5010   2.754   8.245  10.508 -0.3834  0.0476 -0.2967
   38MOL0     C 5011   2.652   8.348  10.517 -0.1026 -0.2561 -0.1757
   38MOL0     N 5012   2.517   8.281  10.524  0.0120  0.2596 -0.1868
   38MOL0     C 5013   2.409   8.330  10.455  0.1646 -0.3170  0.3934
   38MOL0     C 5014   2.298   8.289  10.529 -0.1247 -0.7559  0.8051
   38MOL0     C 5015   2.150   8.310  10.490  1.0352  0.1024  0.0098
   38MOL0     C 5016   2.068   8.266  10.613  0.1407 -0.3603 -0.1079
   38MOL0     C 5017   1.923   8.296  10.582  0.0524  0.1326  1.1219
   38MOL0     C 5018   1.859   8.243  10.458 -0.3766 -0.1740  0.5497
   38MOL0     O 5019   1.716   8.228  10.473  0.0638 -0.2286 -0.1100
   38MOL0     C 5020   1.642   8.200  10.364  0.8072 -0.6442  0.7716
   38MOL0     C 5021   1.500   8.208  10.372 -0.1306 -0.4698  0.8396
   38MOL0     C 5022   1.420   8.184  10.250 -1.2744 -0.3649 -0.3430
   38MOL0     C 5023   1.274   8.217  10.264  0.3423 -0.3269  0.6962
   38MOL0     C 5024   1.483   8.148  10.128  0.5125  0.2805  0.2937
   38MOL0     C 5025   1.418   8.122   9.992 -0.7963  0.0732  0.3444
   38MOL0     O 5026   1.496   8.081   9.880 -0.3662 -0.3208  0.2819
   38MOL0     C 5027   1.446   8.044   9.759  0.0769 -0.2638  0.2436
   38MOL0     C 5028   1.386   7.919   9.732 -1.5579  0.2075 -0.2611
   38MOL0     C 5029   1.338   7.899   9.604  0.0421 -0.2407 -0.0245
   38MOL0     C 5030   1.352   7.994   9.496  0.1329 -0.7685  0.5729
   38MOL0     O 5031   1.295   7.968   9.373 -1.3807  0.3276  0.1308
   38MOL0     C 5032   1.394   7.925   9.283 -0.4553 -0.0087 -0.4926
   38MOL0     C 5033   1.351   7.786   9.216  1.1256 -0.2535 -0.1046
   38MOL0     C 5034   1.459   7.725   9.126  0.0087  0.6485 -0.6441
   38MOL0     C 5035   1.466   7.795   8.991 -0.7089 -0.2370 -0.7296
   38MOL0     C 5036   1.605   7.848   8.959  0.7839  0.2537 -0.2064
   38MOL0     C 5037   1.594   7.975   8.866  0.5390  0.1739 -0.1244
   38MOL0     C 5038   1.734   8.032   8.849 -0.3234 -0.5500 -0.5475
   38MOL0     C 5039   1.748   8.121   8.727  0.4483 -0.5212 -0.2347
   38MOL0    Cl 5040   1.643   8.259   8.740  0.3861 -0.2989 -0.3301
   38MOL0     C 5041   1.414   8.112   9.520  0.2123  0.1021 -0.0950
   38MOL0     C 5042   1.469   8.130   9.652 -0.3341 -0.9323 -0.0911
   38MOL0     O 5043   1.297   8.090   9.995 -0.6624  0.2445 -0.1549
   38MOL0     C 5044   1.620   8.135  10.130  1.0616  0.0628 -0.2047
   38MOL0     C 5045   1.694   8.158  10.243 -0.7359 -0.1241 -0.7232
   38MOL0     N 5046   2.351   8.219  10.631 -0.7202 -0.4809 -0.1879
   38MOL0     N 5047   2.472   8.208  10.627 -1.4266 -0.4084  0.9868
   38MOL0     C 5048   3.602   7.917  10.222  0.2887 -0.4195 -0.9426
   38MOL0     C 5049   3.717   7.843  10.231  0.2520  0.0706  0.2312
   38MOL0     C 5050   4.123   7.732  10.292 -0.5377 -0.4936  0.0376
   38MOL0     C 5051   4.199   7.650  10.374 -0.4189 -0.5614 -0.6643
   38MOL0     C 5052   4.327   7.689  10.425  0.0329 -0.2776 -0.0859
   38MOL0     C 5053   4.382   7.814  10.395  0.1782 -0.0467 -0.7490
   38MOL0     O 5054   4.507   7.859  10.444  0.2973  0.3679  0.0186
   38MOL0     C 5055   4.551   7.786  10.563 -0.0901  0.0822 -0.2301
   38MOL0     C 5056   4.667   7.849  10.630  0.4683  0.3986  0.2394
   38MOL0     C 5057   4.707   7.785  10.759 -0.2993  0.0476  0.1005
   38MOL0     C 5058   4.831   7.851  10.811  0.0075  0.4816  0.6480
   38MOL0     C 5059   4.949   7.823  10.730  0.1975  0.2326 -0.7097
   38MOL0     C 5060   5.055   7.826  10.666  0.1597 -1.0334  0.1088
   38MOL0     C 5061   4.320   7.889  10.302 -0.1918 -0.8644 -0.1113
   38MOL0     C 5062   4.193   7.858  10.253 -0.0079 -0.3172  0.6723
   38MOL0     H 5063   3.890   7.973   9.977 -1.0353 -0.1882 -1.2569
   38MOL0     H 5064   3.685   8.103   9.953 -0.0934  1.1889  1.2592
   38MOL0     H 5065   3.325   8.026  10.219 -0.7890  0.9938  3.0078
   38MOL0     H 5066   3.433   8.127  10.313 -2.2455 -1.7672  2.0816
   38MOL0     H 5067   3.320   8.326  10.213  2.2434 -0.3679 -1.2328
   38MOL0     H 5068   3.263   8.233  10.077  1.0600  1.0148 -0.0536
   38MOL0     H 5069   3.076   8.285  10.193  2.0859  0.3657 -1.3546
   38MOL0     H 5070   3.098   8.111  10.218  2.2931 -0.7930 -2.2439
   38MOL0     H 5071   3.210   8.163  10.442 -2.3850  0.1307  5.1930
   38MOL0     H 5072   3.163   8.328  10.417 -0.7995 -0.1799  0.3209
   38MOL0     H 5073   2.961   8.100  10.434 -1.4157  0.7099  0.5081
   38MOL0     H 5074   3.021   8.177  10.566  0.6326  2.4499  1.4423
   38MOL0     H 5075   2.918   8.398  10.521  0.6968  0.6271 -1.1744
   38MOL0     H 5076   2.877   8.343  10.360 -1.2996  0.3693 -0.1540
   38MOL0     H 5077   2.725   8.168  10.435  1.5370  1.4332 -2.6752
   38MOL0     H 5078   2.772   8.191  10.601 -2.3850  0.0287  0.1337
   38MOL0     H 5079   2.658   8.412  10.428 -2.0692  3.6743  2.2490
   38MOL0     H 5080   2.672   8.410  10.605  1.3082 -0.6952 -0.1662
   38MOL0     H 5081   2.411   8.394  10.366 -1.4251  0.9112  1.1800
   38MOL0     H 5082   2.126   8.416  10.480 -0.8359 -0.2889  0.0537
   38MOL0     H 5083   2.133   8.249  10.401  0.7344  0.6016 -0.2839
   38MOL0     H 5084   2.099   8.319  10.703 -0.7379  0.3542 -0.2162
   38MOL0     H 5085   2.073   8.159  10.637  1.1050  0.4235  4.0130
   38MOL0     H 5086   1.897   8.402  10.577 -2.2228 -0.4461 -1.3662
   38MOL0     H 5087   1.862   8.254  10.663 -0.3065 -0.2864  0.6348
   38MOL0     H 5088   1.897   8.142  10.442 -0.7701 -0.3171  0.4860
   38MOL0     H 5089   1.891   8.298  10.369 -1.0745 -1.6096 -0.6262
   38MOL0     H 5090   1.458   8.240  10.467 -0.8668  0.1372  0.3262
   38MOL0     H 5091   1.238   8.267  10.173  1.3364  1.7903  1.4021
   38MOL0     H 5092   1.224   8.122  10.287  1.9326 -1.9460 -2.0142
   38MOL0     H 5093   1.259   8.285  10.349 -1.9386 -1.1596  1.0465
   38MOL0     H 5094   1.377   7.850   9.815 -1.5885  0.8631  0.2905
   38MOL0     H 5095   1.283   7.807   9.591  1.3739 -0.7984 -2.0858
   38MOL0     H 5096   1.404   8.005   9.209  1.6693  0.2168 -0.0269
   38MOL0     H 5097   1.492   7.922   9.331 -1.2908  1.2649  1.4196
   38MOL0     H 5098   1.323   7.717   9.297 -0.3056 -2.4766 -2.3694
   38MOL0     H 5099   1.263   7.801   9.153  0.2024  1.4689  1.4862
   38MOL0     H 5100   1.438   7.620   9.107 -2.2204  0.4226  2.3824
   38MOL0     H 5101   1.546   7.723   9.192 -0.9040 -0.1120  0.5746
   38MOL0     H 5102   1.456   7.736   8.900 -1.6851 -0.8300 -0.2461
   38MOL0     H 5103   1.394   7.878   8.993 -2.3382 -1.6214 -0.4482
   38MOL0     H 5104   1.662   7.769   8.911  0.7466  0.6590 -0.9284
   38MOL0     H 5105   1.654   7.883   9.051 -3.4245  2.0968  1.6229
   38MOL0     H 5106   1.559   7.945   8.766  2.9863  1.2358 -1.3902
   38MOL0     H 5107   1.527   8.056   8.895  0.9475  1.6567 -2.9921
   38MOL0     H 5108   1.808   7.953   8.838  0.7876  0.3002  0.5529
   38MOL0     H 5109   1.758   8.093   8.936 -0.1050  1.4198 -1.9431
   38MOL0     H 5110   1.726   8.066   8.635 -1.4363 -0.2401  0.0147
   38MOL0     H 5111   1.854   8.148   8.731  1.1624 -3.1747  1.2125
   38MOL0     H 5112   1.435   8.187   9.444  3.0606 -2.2037 -1.7776
   38MOL0     H 5113   1.516   8.225   9.678 -0.9721 -1.0713  1.7483
   38MOL0     H 5114   1.662   8.109  10.033 -0.5810  2.4743 -1.6717
   38MOL0     H 5115   1.802   8.151  10.236 -0.5785  0.5700  0.7202
   38MOL0     H 5116   3.523   7.878  10.285  2.4673 -1.6794  1.1866
   38MOL0     H 5117   3.721   7.766  10.307  4.3802 -0.3314 -0.1712
   38MOL0     H 5118   4.157   7.556  10.409 -0.6001 -0.3438 -0.2856
   38MOL0     H 5119   4.371   7.628  10.504  0.3811  0.2377  0.1255
   38MOL0     H 5120   4.467   7.794  10.634  1.1799  0.8968  1.2556
   38MOL0     H 5121   4.580   7.682  10.546 -1.2027 -0.8055  2.6824
   38MOL0     H 5122   4.635   7.952  10.644 -1.4871  0.0065 -1.0239
   38MOL0     H 5123   4.748   7.848  10.556 -0.0397  2.9029 -0.4254
   38MOL0     H 5124   4.715   7.677  10.740 -2.5487  0.1276 -1.8183
   38MOL0     H 5125   4.621   7.797  10.826  0.6285  1.9930  1.0174
   38MOL0     H 5126   4.849   7.820  10.914 -0.3427  1.6577  1.0830
   38MOL0     H 5127   4.814   7.959  10.815 -0.7559  0.3472  1.0852
   38MOL0     H 5128   5.149   7.842  10.618 -0.6180  1.4025 -0.7370
   38MOL0     H 5129   4.359   7.978  10.252  0.8021 -2.1938 -1.7998
   38MOL0     H 5130   4.142   7.926  10.186  0.8833 -0.7008 -0.4268
   39MOL0     O 5131   2.500   1.096   9.138 -0.4156  0.5619 -0.4732
   39MOL0     C 5132   2.588   1.027   9.188  0.3357  0.5433  0.1287
   39MOL0     O 5133   2.573   0.898   9.225  0.4058  1.0548  0.5555
   39MOL0     C 5134   2.451   0.855   9.274 -1.0993 -0.0405  0.8714
   39MOL0     C 5135   2.333   0.926   9.293 -0.6643 -0.3151  0.3378
   39MOL0     C 5136   2.221   0.865   9.353  0.1872 -0.1856 -0.1196
   39MOL0     C 5137   2.216   0.735   9.385  0.7512  0.6810 -0.2379
   39MOL0     O 5138   2.116   0.668   9.439 -0.0568 -0.2037 -0.3229
   39MOL0     C 5139   1.991   0.713   9.396 -0.7276 -0.3837 -0.4307
   39MOL0     C 5140   1.888   0.640   9.468  0.0435 -0.1171 -1.0044
   39MOL0     C 5141   1.752   0.640   9.390 -0.2058 -0.1275  0.1498
   39MOL0     C 5142   1.629   0.635   9.476 -0.3623 -0.1126  1.2441
   39MOL0     C 5143   1.506   0.666   9.384 -0.5945  0.1761  0.0065
   39MOL0     C 5144   1.382   0.603   9.429 -0.8034  0.6243  0.2262
   39MOL0     C 5145   1.276   0.648   9.335 -0.0027  0.2938 -0.9845
   39MOL0     C 5146   1.136   0.604   9.390 -0.4771 -0.6288 -0.4572
   39MOL0     N 5147   1.032   0.606   9.289 -0.5427 -0.0824  0.1526
   39MOL0     C 5148   1.026   0.519   9.183 -0.8774 -0.5602 -0.3741
   39MOL0     C 5149   0.928   0.559   9.111  0.0622  0.3908  0.0994
   39MOL0     C 5150   0.875   0.492   8.987  0.3282 -0.3445 -0.5742
   39MOL0     C 5151   0.721   0.488   9.009  0.5551  0.1749  0.0160
   39MOL0     C 5152   0.648   0.435   8.884 -0.1444  0.5538 -0.8563
   39MOL0     C 5153   0.500   0.461   8.905 -0.7062  0.5169  0.6061
   39MOL0     O 5154   0.423   0.389   8.806 -0.6669  0.2691  0.3049
   39MOL0     C 5155   0.288   0.364   8.830 -0.7569  0.5610  0.0434
   39MOL0     C 5156   0.227   0.277   8.746 -1.0582 -0.7547 -0.7738
   39MOL0     C 5157   0.095   0.259   8.742  0.2969 -0.8675  1.3269
   39MOL0     C 5158   0.045   0.151   8.644 -0.2821  0.7586  0.9090
   39MOL0     C 5159   0.010   0.341   8.810  0.3556 -0.8153 -0.3320
   39MOL0     C 5160  -0.133   0.325   8.802 -0.0944  0.3699  0.3790
   39MOL0     O 5161  -0.205   0.304   8.687  0.2043 -0.7947 -0.4019
   39MOL0     C 5162  -0.328   0.247   8.697  0.1715 -0.2286 -0.3466
   39MOL0     C 5163  -0.354   0.140   8.768  0.2057  0.0076 -0.8898
   39MOL0     C 5164  -0.479   0.077   8.767 -0.6269  0.5080  0.7927
   39MOL0     C 5165  -0.577   0.131   8.688  0.4588 -0.1553  0.0184
   39MOL0     O 5166  -0.704   0.080   8.684 -0.0138 -0.6362 -0.7564
   39MOL0     C 5167  -0.761   0.016   8.802  0.6552 -0.2298  0.8550
   39MOL0     C 5168  -0.913   0.008   8.782  0.4836 -0.0385 -0.2266
   39MOL0     C 5169  -0.970  -0.053   8.919 -0.0828  0.1197 -0.2761
   39MOL0     C 5170  -1.115  -0.029   8.936  0.4482  0.0456 -0.4486
   39MOL0     C 5171  -1.181  -0.084   9.066 -0.4461 -0.5547  0.3585
   39MOL0     C 5172  -1.192  -0.238   9.083 -0.8665  0.4879 -0.8929
   39MOL0     C 5173  -1.241  -0.315   8.962 -0.5680  0.8390 -0.3660
   39MOL0     C 5174  -1.288  -0.452   9.002 -0.0477 -0.7931 -0.2303
   39MOL0    Cl 5175  -1.146  -0.541   9.031 -0.8445  0.2689  0.6044
   39MOL0     C 5176  -0.557   0.249   8.618  0.4027  0.2291  0.1910
   39MOL0     C 5177  -0.434   0.310   8.624  0.1832  0.0957  0.7746
   39MOL0     O 5178  -0.185   0.328   8.914  0.2245  0.0694  0.1153
   39MOL0     C 5179   0.067   0.433   8.903 -0.7344 -0.5446 -0.4607
   39MOL0     C 5180   0.208   0.449   8.904 -0.3040  0.3947  0.1131
   39MOL0     N 5181   0.864   0.670   9.168  0.7876 -0.1745 -0.6566
   39MOL0     N 5182   0.921   0.686   9.277 -0.1220 -0.1418 -0.3801
   39MOL0     C 5183   2.328   0.655   9.343  0.6314 -1.0019  0.1286
   39MOL0     C 5184   2.442   0.715   9.297 -0.0249  0.3527  0.1042
   39MOL0     C 5185   2.729   1.083   9.181  0.3835  0.6641 -0.3140
   39MOL0     C 5186   2.748   1.213   9.126 -1.0641  0.2386 -0.4468
   39MOL0     C 5187   2.880   1.271   9.112  0.5950 -0.2885 -0.1397
   39MOL0     C 5188   2.990   1.196   9.147  0.6876  1.1386 -1.3597
   39MOL0     O 5189   3.128   1.224   9.131 -0.5763  0.1856 -0.3349
   39MOL0     C 5190   3.144   1.322   9.035  0.6715 -0.1335  0.4324
   39MOL0     C 5191   3.129   1.262   8.890 -0.4781  0.2530 -0.4203
   39MOL0     C 5192   3.142   1.381   8.797  0.0012 -0.0743  0.1291
   39MOL0     C 5193   3.157   1.329   8.645 -0.3127  0.0964 -0.1492
   39MOL0     C 5194   3.300   1.290   8.615  0.3378  0.5454 -0.0374
   39MOL0     C 5195   3.416   1.249   8.604  0.3551  0.5620 -0.3431
   39MOL0     C 5196   2.963   1.070   9.212  0.7409  0.1544 -0.1635
   39MOL0     C 5197   2.843   1.008   9.226  0.4811 -0.2339 -0.2695
   39MOL0     H 5198   2.329   1.034   9.282  2.6423 -0.0961  0.2882
   39MOL0     H 5199   2.154   0.949   9.371 -0.2645 -0.2205 -1.4990
   39MOL0     H 5200   1.975   0.819   9.420  1.9702  0.4648 -1.9616
   39MOL0     H 5201   1.969   0.711   9.289 -5.6493  1.6013  0.2683
   39MOL0     H 5202   1.912   0.534   9.468  1.3501  0.1606 -0.9787
   39MOL0     H 5203   1.874   0.677   9.569 -2.3032 -1.1193 -0.9035
   39MOL0     H 5204   1.756   0.728   9.325  2.5396  0.0212  0.3867
   39MOL0     H 5205   1.736   0.554   9.323 -5.0840  1.9869 -1.8688
   39MOL0     H 5206   1.629   0.534   9.519  0.8683 -0.7172 -0.0664
   39MOL0     H 5207   1.640   0.712   9.552  1.5112 -1.5319  2.4870
   39MOL0     H 5208   1.484   0.772   9.368 -4.4020 -0.4896 -0.2407
   39MOL0     H 5209   1.522   0.627   9.283  1.6391  3.0286 -0.9050
   39MOL0     H 5210   1.397   0.495   9.424  2.0216  0.8032  2.2465
   39MOL0     H 5211   1.354   0.632   9.531 -0.3088  0.0546  0.5328
   39MOL0     H 5212   1.261   0.757   9.328 -3.3179  0.5833  4.4821
   39MOL0     H 5213   1.305   0.609   9.237 -0.0573  0.7123 -1.1737
   39MOL0     H 5214   1.115   0.689   9.456  2.4449  2.4136 -3.0236
   39MOL0     H 5215   1.150   0.511   9.445 -0.1133  0.4387  1.3425
   39MOL0     H 5216   1.101   0.446   9.155  0.2648  0.3841  0.1106
   39MOL0     H 5217   0.912   0.545   8.899  1.8867 -0.8110 -0.2281
   39MOL0     H 5218   0.908   0.388   8.978 -0.6409 -0.8836  1.4042
   39MOL0     H 5219   0.675   0.587   9.020 -3.9466 -0.8392 -5.2572
   39MOL0     H 5220   0.694   0.426   9.096 -1.0447 -1.3263 -1.4781
   39MOL0     H 5221   0.665   0.329   8.865 -2.1508 -0.7505  3.4834
   39MOL0     H 5222   0.669   0.495   8.794 -4.0108  0.7102 -1.8371
   39MOL0     H 5223   0.469   0.565   8.910 -2.3343 -0.0061  3.5802
   39MOL0     H 5224   0.473   0.418   9.002 -1.7019 -2.2350 -0.7731
   39MOL0     H 5225   0.289   0.216   8.682 -0.1316  0.5815 -1.1829
   39MOL0     H 5226   0.129   0.086   8.617 -0.8481  1.0797 -2.0012
   39MOL0     H 5227  -0.031   0.095   8.699 -1.1541  1.5387  0.5139
   39MOL0     H 5228   0.018   0.195   8.548 -2.2235  0.1630  1.1351
   39MOL0     H 5229  -0.280   0.093   8.832 -0.5245  1.2347  0.9650
   39MOL0     H 5230  -0.490  -0.024   8.806 -1.4043  0.1596 -0.2696
   39MOL0     H 5231  -0.726  -0.087   8.816 -1.8855 -1.2184  0.5579
   39MOL0     H 5232  -0.736   0.070   8.893 -0.2779 -0.2047  1.1083
   39MOL0     H 5233  -0.960   0.104   8.762  0.3291  0.2386  1.3385
   39MOL0     H 5234  -0.939  -0.052   8.694 -0.4037  0.9533 -0.6535
   39MOL0     H 5235  -0.907  -0.015   8.999 -0.9340  1.5320 -0.2538
   39MOL0     H 5236  -0.966  -0.163   8.920 -0.4176  0.1043 -0.3453
   39MOL0     H 5237  -1.112   0.080   8.946  2.4391 -0.1148  1.9595
   39MOL0     H 5238  -1.171  -0.050   8.845  0.9268  1.4921 -1.1082
   39MOL0     H 5239  -1.281  -0.042   9.055  1.0114  2.4471 -3.5953
   39MOL0     H 5240  -1.133  -0.038   9.154 -1.6216 -0.5885  1.0435
   39MOL0     H 5241  -1.095  -0.278   9.115 -1.8142 -0.1474  1.3838
   39MOL0     H 5242  -1.264  -0.258   9.163  0.2211  1.1067  0.2862
   39MOL0     H 5243  -1.160  -0.334   8.891 -0.4395  0.5226 -0.1365
   39MOL0     H 5244  -1.317  -0.263   8.902  0.8607  1.5429 -1.6408
   39MOL0     H 5245  -1.346  -0.501   8.923  0.3581 -0.0500 -0.9955
   39MOL0     H 5246  -1.351  -0.456   9.092 -1.8810 -1.8397 -1.4812
   39MOL0     H 5247  -0.642   0.287   8.563  0.0989 -3.4041 -2.1836
   39MOL0     H 5248  -0.413   0.392   8.556  0.8686  1.1827  2.2503
   39MOL0     H 5249   0.019   0.495   8.978  2.6717  0.9244  0.7001
   39MOL0     H 5250   0.242   0.532   8.965  0.0903 -0.6557  1.3770
   39MOL0     H 5251   2.323   0.547   9.343  0.6161 -1.0022 -0.1915
   39MOL0     H 5252   2.533   0.655   9.289 -1.0774 -1.1608 -0.9534
   39MOL0     H 5253   2.660   1.266   9.090 -0.5655  0.6868 -1.0317
   39MOL0     H 5254   2.896   1.357   9.048  1.1664 -0.6660 -0.5171
   39MOL0     H 5255   3.081   1.409   9.054  0.9509 -0.3915  3.0170
   39MOL0     H 5256   3.247   1.359   9.043  0.9923 -0.3241 -2.1816
   39MOL0     H 5257   3.039   1.201   8.877  0.9159 -1.4194 -3.0309
   39MOL0     H 5258   3.216   1.202   8.861 -0.6071  0.7257 -1.8273
   39MOL0     H 5259   3.227   1.444   8.825  1.8886 -2.0552 -0.8672
   39MOL0     H 5260   3.047   1.431   8.817 -0.8956 -1.6440 -0.0420
   39MOL0     H 5261   3.116   1.397   8.570  0.9653 -1.5247 -2.4304
   39MOL0     H 5262   3.097   1.240   8.627 -4.1127  2.3412  0.2006
   39MOL0     H 5263   3.510   1.199   8.615  0.2577  0.4000 -0.2447
   39MOL0     H 5264   3.053   1.016   9.238  1.3860  0.3687 -1.8219
   39MOL0     H 5265   2.830   0.906   9.261  0.7534 -0.1682  0.0280
   40MOL0     O 5266   0.020  10.551   4.591 -0.0496  0.5710 -0.5776
   40MOL0     C 5267  -0.028  10.521   4.698  0.8970  0.0215  0.3711
   40MOL0     O 5268  -0.159  10.471   4.720 -0.3075  0.3483 -0.4784
   40MOL0     C 5269  -0.225  10.409   4.619  0.3815 -0.1161 -0.0062
   40MOL0     C 5270  -0.185  10.302   4.555 -0.2676 -0.2062 -0.6232
   40MOL0     C 5271  -0.280  10.233   4.472 -0.6786 -0.5670  0.5034
   40MOL0     C 5272  -0.401  10.293   4.441 -0.2129 -0.0170  0.1552
   40MOL0     O 5273  -0.494  10.210   4.387 -0.4735  0.0539  0.2528
   40MOL0     C 5274  -0.533  10.269   4.266 -0.1839 -0.0462 -0.3286
   40MOL0     C 5275  -0.548  10.150   4.156  0.3572  0.2696 -0.0089
   40MOL0     C 5276  -0.670  10.066   4.182  0.0403 -0.6017  0.3366
   40MOL0     C 5277  -0.804  10.130   4.148 -0.2007  0.8770 -0.2675
   40MOL0     C 5278  -0.932  10.041   4.142 -0.0540 -0.0272 -0.6304
   40MOL0     C 5279  -1.003  10.028   4.276 -0.3885 -0.5110  0.2736
   40MOL0     C 5280  -1.146   9.955   4.273  0.4961  0.0581 -0.0841
   40MOL0     C 5281  -1.132   9.808   4.249  0.7580 -0.5976 -0.1680
   40MOL0     N 5282  -1.274   9.755   4.233 -0.0028 -0.3525 -0.6515
   40MOL0     C 5283  -1.331   9.715   4.111  0.2553 -0.0083  0.3338
   40MOL0     C 5284  -1.464   9.698   4.140  0.3883 -0.2311  0.2615
   40MOL0     C 5285  -1.591   9.655   4.051  0.0960  0.2115 -0.2015
   40MOL0     C 5286  -1.588   9.499   4.033 -0.3807  0.2871  0.0334
   40MOL0     C 5287  -1.686   9.460   3.922  0.9090  0.1829 -1.0835
   40MOL0     C 5288  -1.838   9.489   3.949 -0.8360 -0.7646 -0.3808
   40MOL0     O 5289  -1.901   9.460   3.821  0.8064  0.5357 -0.2478
   40MOL0     C 5290  -2.031   9.428   3.831 -0.4197 -0.4136 -0.7157
   40MOL0     C 5291  -2.090   9.385   3.714  0.0100  0.5282 -0.0817
   40MOL0     C 5292  -2.224   9.338   3.711 -0.4407 -1.2975 -0.7997
   40MOL0     C 5293  -2.263   9.281   3.584  0.8402  0.1722 -0.5293
   40MOL0     C 5294  -2.309   9.369   3.823 -0.5660 -0.3132 -1.5629
   40MOL0     C 5295  -2.446   9.328   3.836  0.6347  0.7052 -0.6660
   40MOL0     O 5296  -2.512   9.382   3.940 -0.2254  0.0222 -0.5714
   40MOL0     C 5297  -2.647   9.404   3.936  0.4344 -0.1816 -0.5064
   40MOL0     C 5298  -2.702   9.458   3.818 -0.0977 -0.3164 -0.1646
   40MOL0     C 5299  -2.837   9.473   3.811 -0.8333  0.4976 -0.4629
   40MOL0     C 5300  -2.918   9.447   3.921  0.4172 -0.5000 -0.6548
   40MOL0     O 5301  -3.052   9.481   3.905  0.2030  0.6389 -0.2897
   40MOL0     C 5302  -3.152   9.442   3.999 -0.1350  0.2312  0.0772
   40MOL0     C 5303  -3.272   9.541   3.985  0.0555  0.6710 -0.4403
   40MOL0     C 5304  -3.361   9.520   4.111  1.0192 -0.5468 -0.3742
   40MOL0     C 5305  -3.498   9.575   4.086 -0.0993  0.4482  0.6486
   40MOL0     C 5306  -3.598   9.553   4.202  0.3951 -0.0708 -0.4541
   40MOL0     C 5307  -3.728   9.644   4.187  0.2499 -0.5159 -0.1340
   40MOL0     C 5308  -3.835   9.608   4.296  0.2459  0.9297 -0.1250
   40MOL0     C 5309  -3.957   9.713   4.293  0.3602 -0.1269  0.4136
   40MOL0    Cl 5310  -4.038   9.704   4.141 -0.0536  0.0309  0.4240
   40MOL0     C 5311  -2.865   9.402   4.042  0.8208 -0.6718 -0.4448
   40MOL0     C 5312  -2.728   9.380   4.046 -0.2961  0.0315 -0.6716
   40MOL0     O 5313  -2.492   9.242   3.763 -0.7055 -0.4068  0.2580
   40MOL0     C 5314  -2.247   9.422   3.935  0.4484 -0.6116 -0.3449
   40MOL0     C 5315  -2.112   9.447   3.942 -0.0964  0.3730 -0.0138
   40MOL0     N 5316  -1.486   9.733   4.277 -0.1622  0.3863  0.2343
   40MOL0     N 5317  -1.374   9.763   4.328 -0.3104 -0.3902  0.3471
   40MOL0     C 5318  -0.424  10.426   4.491  0.1999  0.6581 -0.0560
   40MOL0     C 5319  -0.345  10.474   4.584 -0.5056  0.6562 -0.0579
   40MOL0     C 5320   0.072  10.541   4.807 -0.4032 -0.3809 -0.0309
   40MOL0     C 5321   0.026  10.537   4.941 -0.0313  0.3880  0.2399
   40MOL0     C 5322   0.126  10.552   5.038  0.7309 -0.0666 -0.3710
   40MOL0     C 5323   0.259  10.582   5.015  0.0471  0.5385 -0.2108
   40MOL0     O 5324   0.347  10.585   5.120 -0.1496  0.5614  0.1998
   40MOL0     C 5325   0.383  10.452   5.168 -0.0999 -0.2493 -0.1788
   40MOL0     C 5326   0.503  10.378   5.099 -0.0726  0.6029  0.3241
   40MOL0     C 5327   0.636  10.434   5.141  0.1123 -0.3859  0.2061
   40MOL0     C 5328   0.758  10.356   5.108 -0.5743  0.9446  0.0395
   40MOL0     C 5329   0.753  10.330   4.963 -0.5922 -0.1820 -0.5731
   40MOL0     C 5330   0.749  10.306   4.847 -0.0823 -0.3847 -0.2529
   40MOL0     C 5331   0.301  10.575   4.880 -0.3652 -0.8126 -0.8968
   40MOL0     C 5332   0.208  10.552   4.778  0.2719  0.1087  0.6291
   40MOL0     H 5333  -0.092  10.248   4.568 -1.6926 -2.2099  2.8334
   40MOL0     H 5334  -0.263  10.137   4.424  1.1408 -1.0772  2.0117
   40MOL0     H 5335  -0.622  10.330   4.282  1.2840  2.0165  0.3462
   40MOL0     H 5336  -0.460  10.337   4.221  0.0345 -0.3083 -0.3712
   40MOL0     H 5337  -0.563  10.201   4.060  1.5550 -0.3889 -0.5706
   40MOL0     H 5338  -0.458  10.088   4.156 -0.0028 -0.2625 -0.4406
   40MOL0     H 5339  -0.664   9.976   4.120  1.7982 -0.1384 -0.2445
   40MOL0     H 5340  -0.660  10.016   4.279  3.0860 -1.3850 -0.2644
   40MOL0     H 5341  -0.819  10.226   4.199 -0.7240  0.1871  0.8965
   40MOL0     H 5342  -0.791  10.160   4.043  1.1113  1.7858  0.1203
   40MOL0     H 5343  -1.002  10.091   4.075 -2.1506 -1.5775  0.3118
   40MOL0     H 5344  -0.909   9.948   4.088 -2.3187 -1.3879  0.6023
   40MOL0     H 5345  -0.945   9.972   4.351  0.1588  0.3474  0.5119
   40MOL0     H 5346  -1.021  10.124   4.325 -3.8967 -1.1072  0.3653
   40MOL0     H 5347  -1.179   9.971   4.376 -0.5875  0.0320 -0.4166
   40MOL0     H 5348  -1.223  10.005   4.214 -0.7249  0.5915  1.8739
   40MOL0     H 5349  -1.075   9.759   4.328  0.3897 -0.9313 -0.1036
   40MOL0     H 5350  -1.081   9.784   4.155 -0.0564 -0.7421 -0.5860
   40MOL0     H 5351  -1.280   9.697   4.017 -1.3620  1.2182 -0.8220
   40MOL0     H 5352  -1.683   9.696   4.093 -0.5030  1.5352 -2.6242
   40MOL0     H 5353  -1.562   9.684   3.950  1.4996 -4.8328 -1.5703
   40MOL0     H 5354  -1.628   9.459   4.127 -2.1098  2.7886  0.4796
   40MOL0     H 5355  -1.490   9.461   4.003 -0.6993  0.9428 -2.0171
   40MOL0     H 5356  -1.687   9.353   3.899 -1.3390  0.4014 -2.3609
   40MOL0     H 5357  -1.646   9.512   3.834  3.7945 -0.0986 -0.0393
   40MOL0     H 5358  -1.842   9.594   3.978  1.7172 -1.2634  2.2619
   40MOL0     H 5359  -1.868   9.426   4.034  0.9522 -0.8042  0.2548
   40MOL0     H 5360  -2.025   9.368   3.629 -0.1127 -0.0040 -0.0739
   40MOL0     H 5361  -2.279   9.173   3.591 -2.1697  0.3540 -2.6042
   40MOL0     H 5362  -2.348   9.330   3.533  1.7607  0.4888 -1.8244
   40MOL0     H 5363  -2.187   9.286   3.505  1.4536 -1.4667 -0.0608
   40MOL0     H 5364  -2.635   9.476   3.735  1.8689  1.1396  1.6029
   40MOL0     H 5365  -2.887   9.514   3.724  1.3862  1.2419 -1.4364
   40MOL0     H 5366  -3.181   9.338   3.983  2.6330 -0.6197 -0.0008
   40MOL0     H 5367  -3.101   9.454   4.095  2.3688  2.0343 -1.3330
   40MOL0     H 5368  -3.240   9.644   3.966 -0.5597  0.7800 -0.8798
   40MOL0     H 5369  -3.323   9.503   3.897 -0.2998 -2.1932  0.9029
   40MOL0     H 5370  -3.317   9.573   4.196 -0.6528  0.1341  0.0988
   40MOL0     H 5371  -3.367   9.415   4.141  1.8539 -0.8701 -1.2747
   40MOL0     H 5372  -3.486   9.682   4.067  0.6388  0.2795  0.1138
   40MOL0     H 5373  -3.552   9.535   3.999  1.0185  0.1551  0.0765
   40MOL0     H 5374  -3.560   9.584   4.300 -0.5608 -0.7366  0.1557
   40MOL0     H 5375  -3.622   9.447   4.219 -1.6596  0.0060 -2.4066
   40MOL0     H 5376  -3.697   9.749   4.191  1.0835 -0.5172 -3.5331
   40MOL0     H 5377  -3.762   9.619   4.086  2.3791 -0.1891 -0.9794
   40MOL0     H 5378  -3.784   9.617   4.392  1.7592 -1.8424 -0.5742
   40MOL0     H 5379  -3.859   9.502   4.283  4.8643 -0.4621  0.7487
   40MOL0     H 5380  -3.919   9.812   4.320  3.7001 -1.0121 -0.5508
   40MOL0     H 5381  -4.037   9.686   4.363 -0.1246 -3.6831 -1.2863
   40MOL0     H 5382  -2.920   9.379   4.133  1.7255  0.0814  0.3173
   40MOL0     H 5383  -2.672   9.331   4.125 -0.4433 -0.3624 -0.8092
   40MOL0     H 5384  -2.308   9.463   4.015 -0.7281  0.4305 -1.7283
   40MOL0     H 5385  -2.091   9.500   4.034 -2.1852 -1.6213  1.7500
   40MOL0     H 5386  -0.518  10.481   4.484  0.7437  1.6596  0.2959
   40MOL0     H 5387  -0.365  10.561   4.645  1.1618  0.8457  0.2669
   40MOL0     H 5388  -0.081  10.520   4.952  0.0858 -1.2382 -0.6821
   40MOL0     H 5389   0.094  10.557   5.141  2.5886 -1.7164  0.3484
   40MOL0     H 5390   0.397  10.445   5.276  1.5454  0.3843 -0.3162
   40MOL0     H 5391   0.301  10.381   5.159 -0.9554  0.0438  3.6982
   40MOL0     H 5392   0.499  10.383   4.990 -1.1122  0.2792  0.3336
   40MOL0     H 5393   0.496  10.272   5.127 -0.6202  0.4413 -0.3889
   40MOL0     H 5394   0.632  10.448   5.250  3.8686  1.0992  0.2898
   40MOL0     H 5395   0.641  10.534   5.096  3.7726 -1.5427 -2.3867
   40MOL0     H 5396   0.773  10.267   5.170  2.2479 -0.2496 -2.1508
   40MOL0     H 5397   0.838  10.427   5.130  0.2637  0.4198 -1.2610
   40MOL0     H 5398   0.727  10.284   4.744 -0.8165  0.6547 -0.3332
   40MOL0     H 5399   0.407  10.595   4.870  0.4812 -2.8393  2.3564
   40MOL0     H 5400   0.244  10.552   4.676 -0.3502 -1.2785  0.3867
   41MOL0     O 5401   1.734   7.716   7.234  0.0451 -0.6492 -0.0456
   41MOL0     C 5402   1.791   7.759   7.333  0.9506 -0.8306 -0.1216
   41MOL0     O 5403   1.737   7.739   7.459 -0.3155 -0.6184 -0.4828
   41MOL0     C 5404   1.618   7.678   7.478  0.8440 -0.1993 -0.0021
   41MOL0     C 5405   1.500   7.722   7.406  0.0063  0.3265  0.7599
   41MOL0     C 5406   1.366   7.675   7.450 -0.1480 -0.8394 -0.4142
   41MOL0     C 5407   1.350   7.590   7.558 -0.4017  0.0217 -1.1959
   41MOL0     O 5408   1.222   7.536   7.587  0.0843  0.5782 -0.2174
   41MOL0     C 5409   1.125   7.636   7.628 -0.1032  0.4602 -0.0837
   41MOL0     C 5410   1.007   7.560   7.695 -0.0860 -0.0547  0.3402
   41MOL0     C 5411   0.880   7.624   7.706  0.1168 -0.0375  0.8582
   41MOL0     C 5412   0.780   7.569   7.807  0.0654 -0.8753  0.5904
   41MOL0     C 5413   0.644   7.643   7.787 -0.4600  0.4321  0.6396
   41MOL0     C 5414   0.559   7.617   7.911 -0.1865 -0.2057  0.4320
   41MOL0     C 5415   0.417   7.693   7.921 -0.3433  0.1341  0.6083
   41MOL0     C 5416   0.321   7.651   7.808  0.2485 -0.6169  0.7037
   41MOL0     N 5417   0.246   7.758   7.766 -0.3804 -0.7392 -0.9262
   41MOL0     C 5418   0.105   7.749   7.774 -0.0533 -0.0678 -0.1434
   41MOL0     C 5419   0.067   7.867   7.723  0.9606  0.6356  0.0515
   41MOL0     C 5420  -0.083   7.894   7.697  0.5333 -0.5723  0.6878
   41MOL0     C 5421  -0.112   7.898   7.548 -0.1558  0.4612 -0.0092
   41MOL0     C 5422  -0.105   7.760   7.481 -0.5110  0.1966 -0.2507
   41MOL0     C 5423  -0.237   7.692   7.468  1.1288  0.1268 -1.0484
   41MOL0     O 5424  -0.273   7.669   7.603 -0.2807 -0.1918 -0.2420
   41MOL0     C 5425  -0.392   7.621   7.644 -0.4796  0.1645 -0.1360
   41MOL0     C 5426  -0.494   7.565   7.573  0.8773  0.6972  0.3628
   41MOL0     C 5427  -0.624   7.531   7.625  1.5449 -0.3573 -0.3634
   41MOL0     C 5428  -0.727   7.464   7.538  0.1469 -0.1505  0.1889
   41MOL0     C 5429  -0.645   7.559   7.768 -0.6020  0.4963  1.3007
   41MOL0     C 5430  -0.771   7.530   7.845 -0.4428  0.0689 -0.2195
   41MOL0     O 5431  -0.777   7.536   7.978 -0.1382  0.1433 -0.6494
   41MOL0     C 5432  -0.882   7.474   8.048  1.0811  0.4125 -0.7553
   41MOL0     C 5433  -0.933   7.345   8.011 -0.3013 -0.6187  0.0494
   41MOL0     C 5434  -1.035   7.283   8.083  0.8302 -0.1570  1.5612
   41MOL0     C 5435  -1.073   7.335   8.201 -0.2525  0.2585  0.6132
   41MOL0     O 5436  -1.176   7.288   8.275 -0.2691  0.2052 -0.5096
   41MOL0     C 5437  -1.267   7.195   8.216  0.2946  1.1972 -0.2643
   41MOL0     C 5438  -1.358   7.247   8.105  0.2577  0.4083  0.3209
   41MOL0     C 5439  -1.430   7.381   8.121  0.7141  0.4011  0.0499
   41MOL0     C 5440  -1.543   7.370   8.231  1.1395  0.2406  0.7363
   41MOL0     C 5441  -1.644   7.491   8.228 -0.1506  0.4365  0.0106
   41MOL0     C 5442  -1.727   7.490   8.360 -0.1753 -1.2076 -0.6980
   41MOL0     C 5443  -1.830   7.380   8.357  0.0862  0.7183  0.0453
   41MOL0     C 5444  -1.923   7.361   8.470  0.1928  0.3450 -0.4686
   41MOL0    Cl 5445  -1.852   7.278   8.617  0.0133  0.2466  0.2145
   41MOL0     C 5446  -1.009   7.449   8.251 -0.5088  0.2354  1.3933
   41MOL0     C 5447  -0.924   7.523   8.177  0.1277 -0.0774  0.7309
   41MOL0     O 5448  -0.872   7.525   7.775  0.1518 -0.3065 -0.5885
   41MOL0     C 5449  -0.535   7.598   7.847  0.9681 -0.5153  0.3538
   41MOL0     C 5450  -0.411   7.621   7.782  0.5143 -0.4140 -0.2249
   41MOL0     N 5451   0.168   7.951   7.698  0.0056 -0.5328 -0.1932
   41MOL0     N 5452   0.274   7.890   7.738  0.1123 -0.1555 -0.4735
   41MOL0     C 5453   1.464   7.538   7.614 -0.1533  0.0414 -0.4950
   41MOL0     C 5454   1.598   7.588   7.582  0.1777  0.3134 -0.0493
   41MOL0     C 5455   1.928   7.798   7.326 -0.2663  0.3903 -0.6676
   41MOL0     C 5456   2.015   7.726   7.237 -0.4344  1.0922 -0.3942
   41MOL0     C 5457   2.144   7.768   7.224 -0.1890  0.3517  0.3422
   41MOL0     C 5458   2.196   7.887   7.286  0.5212 -0.2108  0.5755
   41MOL0     O 5459   2.318   7.936   7.266 -0.0467 -0.0650  0.9524
   41MOL0     C 5460   2.397   7.908   7.140  1.4529  0.6961 -0.7014
   41MOL0     C 5461   2.533   7.981   7.166  0.2705  1.6029  0.8828
   41MOL0     C 5462   2.532   8.138   7.189 -0.5258 -0.0639 -0.3131
   41MOL0     C 5463   2.673   8.201   7.162  0.2994 -0.8178 -0.0637
   41MOL0     C 5464   2.667   8.354   7.152 -0.2038  0.7180 -0.7035
   41MOL0     C 5465   2.677   8.473   7.138 -0.4602 -0.0017 -0.4224
   41MOL0     C 5466   2.107   7.950   7.380 -0.1749  0.2214 -0.4849
   41MOL0     C 5467   1.976   7.905   7.399 -0.2221  0.8475 -0.2746
   41MOL0     H 5468   1.518   7.803   7.336  2.1824 -0.5291  0.2354
   41MOL0     H 5469   1.280   7.714   7.395 -2.0260 -1.2193  2.1004
   41MOL0     H 5470   1.165   7.711   7.697  0.2280  0.4429 -0.2562
   41MOL0     H 5471   1.095   7.680   7.533 -0.4534 -2.7971 -1.6265
   41MOL0     H 5472   0.999   7.464   7.643 -0.5456  1.1281 -1.9127
   41MOL0     H 5473   1.040   7.547   7.799 -3.0977  0.0362  1.3992
   41MOL0     H 5474   0.904   7.729   7.725  4.5438 -0.6103 -0.3663
   41MOL0     H 5475   0.833   7.629   7.607  1.1647 -2.6171  0.1583
   41MOL0     H 5476   0.780   7.459   7.804  2.1855 -0.9839  2.0813
   41MOL0     H 5477   0.814   7.601   7.905 -0.5919 -1.0794  0.8895
   41MOL0     H 5478   0.668   7.749   7.792  1.7735 -0.0808  1.7414
   41MOL0     H 5479   0.605   7.623   7.686  0.2508  1.7019  0.0993
   41MOL0     H 5480   0.545   7.509   7.911  1.2164 -0.4730 -2.0569
   41MOL0     H 5481   0.609   7.645   8.005 -1.5028  4.1338  0.0933
   41MOL0     H 5482   0.372   7.655   8.014 -0.1609  1.1062  1.1110
   41MOL0     H 5483   0.440   7.800   7.927 -0.2617  0.1974 -0.7092
   41MOL0     H 5484   0.247   7.575   7.838 -1.6347 -0.2052 -2.4370
   41MOL0     H 5485   0.379   7.606   7.727 -2.1489 -0.5752 -1.1545
   41MOL0     H 5486   0.045   7.663   7.801 -0.1201  0.4579  1.4792
   41MOL0     H 5487  -0.148   7.828   7.754 -0.7542  0.6596  0.6920
   41MOL0     H 5488  -0.111   7.995   7.730  0.3350  0.6669 -2.7843
   41MOL0     H 5489  -0.032   7.951   7.496  1.5116 -0.0359  1.9277
   41MOL0     H 5490  -0.209   7.947   7.534 -0.5092 -0.4370 -0.7967
   41MOL0     H 5491  -0.044   7.691   7.539  2.0000  1.5691 -1.1075
   41MOL0     H 5492  -0.071   7.770   7.377 -1.1480 -0.3216 -0.5125
   41MOL0     H 5493  -0.232   7.589   7.434  0.2103  0.0100 -0.8715
   41MOL0     H 5494  -0.307   7.740   7.398 -2.8277 -4.5316 -0.7748
   41MOL0     H 5495  -0.465   7.537   7.472 -1.2797 -4.1188  0.7844
   41MOL0     H 5496  -0.817   7.525   7.531  0.9218  1.0508  0.4154
   41MOL0     H 5497  -0.695   7.435   7.438 -1.8407 -0.9758 -0.2602
   41MOL0     H 5498  -0.747   7.363   7.576  0.0708 -0.2933 -0.2290
   41MOL0     H 5499  -0.900   7.302   7.917 -1.5186 -1.2269 -0.1174
   41MOL0     H 5500  -1.078   7.196   8.035  2.9106 -0.6736  0.5536
   41MOL0     H 5501  -1.216   7.104   8.182 -0.6387  0.7842 -0.5928
   41MOL0     H 5502  -1.329   7.156   8.297  1.9640 -2.6274 -0.6239
   41MOL0     H 5503  -1.322   7.232   8.002 -0.5466 -0.8922  0.1960
   41MOL0     H 5504  -1.442   7.177   8.111  1.3230 -0.8966  0.7457
   41MOL0     H 5505  -1.467   7.412   8.023 -0.9250 -2.4021 -0.3365
   41MOL0     H 5506  -1.360   7.456   8.159  0.7688  0.5207 -0.2844
   41MOL0     H 5507  -1.602   7.280   8.210  1.0087  0.5915 -0.4503
   41MOL0     H 5508  -1.496   7.350   8.328  2.4764 -3.0465 -0.4541
   41MOL0     H 5509  -1.706   7.471   8.141  1.4252 -3.0928 -0.4447
   41MOL0     H 5510  -1.590   7.586   8.215  2.7150 -1.1953 -0.8451
   41MOL0     H 5511  -1.653   7.469   8.437  0.7939 -2.0937 -1.8222
   41MOL0     H 5512  -1.781   7.584   8.368 -3.2623 -2.8719 -0.5887
   41MOL0     H 5513  -1.784   7.282   8.342 -1.7354 -0.2721  0.6289
   41MOL0     H 5514  -1.891   7.399   8.268  1.8358 -2.0936 -1.9123
   41MOL0     H 5515  -2.013   7.310   8.433  0.5919 -1.1467  0.5468
   41MOL0     H 5516  -1.980   7.447   8.508 -3.3067 -2.4015  1.0338
   41MOL0     H 5517  -1.038   7.471   8.354 -2.5644  1.0196  0.7009
   41MOL0     H 5518  -0.887   7.617   8.218  0.6020  0.4340 -0.7935
   41MOL0     H 5519  -0.534   7.609   7.955  3.7983  1.8307  0.2184
   41MOL0     H 5520  -0.330   7.651   7.847 -1.2886 -0.0708  2.0025
   41MOL0     H 5521   1.439   7.469   7.695  1.0611 -1.0936 -1.0540
   41MOL0     H 5522   1.671   7.582   7.662 -0.0934 -1.4284  0.1074
   41MOL0     H 5523   1.977   7.637   7.189  0.4293  1.5077 -1.9103
   41MOL0     H 5524   2.211   7.706   7.166  0.2838  1.3903 -0.2521
   41MOL0     H 5525   2.418   7.801   7.141 -1.7804 -0.0685 -2.2676
   41MOL0     H 5526   2.350   7.935   7.045 -2.9517 -1.8432  0.4736
   41MOL0     H 5527   2.610   7.947   7.095  2.4188  0.6151  3.4998
   41MOL0     H 5528   2.580   7.938   7.256  0.9746 -0.7954 -0.5225
   41MOL0     H 5529   2.491   8.152   7.289 -1.8045 -1.4736 -0.5999
   41MOL0     H 5530   2.455   8.179   7.123 -0.8207  2.7006  1.5891
   41MOL0     H 5531   2.709   8.169   7.064  1.8956 -0.4990  0.3833
   41MOL0     H 5532   2.756   8.175   7.228  1.5593  0.7911 -0.9307
   41MOL0     H 5533   2.682   8.577   7.113  0.7050  0.3973  1.3011
   41MOL0     H 5534   2.154   8.029   7.438 -1.4288 -1.0289  2.4620
   41MOL0     H 5535   1.913   7.957   7.470 -0.5422 -0.9646  0.8324
   42MOL0     O 5536   7.918   6.159   3.729  0.0543 -0.2069  0.1263
   42MOL0     C 5537   7.892   6.040   3.714  0.2727  0.0076  0.4756
   42MOL0     O 5538   7.774   5.985   3.685  0.6432  0.0434 -0.1952
   42MOL0     C 5539   7.655   6.061   3.670 -0.6179  0.2546 -0.8757
   42MOL0     C 5540   7.564   6.078   3.776 -0.2877  0.1364 -0.4248
   42MOL0     C 5541   7.451   6.154   3.766  0.5281 -0.3822 -0.4548
   42MOL0     C 5542   7.413   6.199   3.640 -0.3705 -0.1842  0.2436
   42MOL0     O 5543   7.291   6.259   3.639  0.7207  0.3643  0.5473
   42MOL0     C 5544   7.270   6.363   3.543  0.2473  0.1367  0.0674
   42MOL0     C 5545   7.311   6.495   3.609 -0.4830 -0.5415  0.0605
   42MOL0     C 5546   7.300   6.510   3.758  1.4133 -0.8158 -0.1736
   42MOL0     C 5547   7.148   6.507   3.792 -0.3734 -0.3898  1.0612
   42MOL0     C 5548   7.114   6.581   3.925 -0.3058  0.1015 -0.3039
   42MOL0     C 5549   7.182   6.506   4.043  0.2762  0.2812 -0.2358
   42MOL0     C 5550   7.138   6.569   4.180 -0.3754  0.3966 -0.3575
   42MOL0     C 5551   7.203   6.507   4.302  0.8124  0.3510  0.5588
   42MOL0     N 5552   7.153   6.567   4.423 -0.2371 -0.1175 -0.3337
   42MOL0     C 5553   7.162   6.694   4.465  0.2843  0.9713 -0.3094
   42MOL0     C 5554   7.100   6.694   4.587 -0.5200  0.3245 -0.2478
   42MOL0     C 5555   7.084   6.810   4.671  0.5565 -0.4626  0.1032
   42MOL0     C 5556   6.956   6.801   4.764 -0.3481 -1.0091 -0.1655
   42MOL0     C 5557   6.823   6.818   4.684  0.1355  0.3008  0.0480
   42MOL0     C 5558   6.786   6.959   4.649  1.5000  0.2104 -0.1877
   42MOL0     O 5559   6.731   7.028   4.762 -0.0917  0.9728  0.0701
   42MOL0     C 5560   6.603   7.003   4.806  0.1426  0.4267  0.1050
   42MOL0     C 5561   6.560   7.055   4.928 -0.1345  1.2397 -0.1911
   42MOL0     C 5562   6.434   7.018   4.983 -0.1083 -0.2256  0.4858
   42MOL0     C 5563   6.409   7.063   5.130  0.8872 -0.4878 -0.1206
   42MOL0     C 5564   6.349   6.933   4.905  1.0706  0.2865  0.0818
   42MOL0     C 5565   6.217   6.884   4.955 -0.4476  0.7596 -0.2897
   42MOL0     O 5566   6.155   6.794   4.872  0.3343 -0.4988 -0.0141
   42MOL0     C 5567   6.040   6.728   4.911 -0.2944  0.1575  0.3982
   42MOL0     C 5568   6.030   6.662   5.036  0.1799 -0.0883 -0.3006
   42MOL0     C 5569   5.915   6.588   5.064  0.0367 -0.1261 -0.6220
   42MOL0     C 5570   5.811   6.568   4.970 -0.3160  0.2482 -0.3288
   42MOL0     O 5571   5.711   6.482   4.998  0.2665  0.0602  0.0933
   42MOL0     C 5572   5.587   6.504   4.919 -0.8056  0.6570 -0.0153
   42MOL0     C 5573   5.470   6.427   4.979  0.6068  0.2616  0.0298
   42MOL0     C 5574   5.451   6.458   5.123 -0.1503  0.0565  0.4537
   42MOL0     C 5575   5.349   6.370   5.186 -0.6118 -0.3842 -0.2926
   42MOL0     C 5576   5.350   6.383   5.336  0.9455 -1.1070  0.4127
   42MOL0     C 5577   5.282   6.261   5.401 -0.1091  0.9520 -0.6161
   42MOL0     C 5578   5.133   6.249   5.362  0.7557  0.7232 -0.4310
   42MOL0     C 5579   5.042   6.216   5.488  0.5942 -0.5482 -0.0217
   42MOL0    Cl 5580   4.896   6.119   5.456  0.1761  0.1502  0.2409
   42MOL0     C 5581   5.821   6.630   4.847 -0.1527  0.2268  0.4296
   42MOL0     C 5582   5.930   6.706   4.823 -0.7308  0.7246  0.4546
   42MOL0     O 5583   6.169   6.932   5.058 -0.3352  0.0788  0.1438
   42MOL0     C 5584   6.390   6.882   4.787  0.2080  0.5498  0.4555
   42MOL0     C 5585   6.514   6.916   4.737 -0.7611  0.2015 -0.0191
   42MOL0     N 5586   7.033   6.571   4.598  0.2211  0.1905 -0.2880
   42MOL0     N 5587   7.062   6.500   4.498 -0.2763  0.1926  0.1151
   42MOL0     C 5588   7.512   6.201   3.538 -0.1860 -0.0691  0.3997
   42MOL0     C 5589   7.628   6.129   3.553  0.5442  0.3237  0.9856
   42MOL0     C 5590   8.000   5.936   3.734  0.0378 -0.6092  0.4587
   42MOL0     C 5591   7.988   5.802   3.695 -0.4244  0.0385 -0.5942
   42MOL0     C 5592   8.089   5.716   3.731 -0.0235 -0.3533 -0.8754
   42MOL0     C 5593   8.208   5.752   3.793 -0.3082 -0.5752  0.3574
   42MOL0     O 5594   8.314   5.663   3.799  0.0692  0.3034 -0.3859
   42MOL0     C 5595   8.444   5.711   3.836 -0.0903 -0.2633  0.3033
   42MOL0     C 5596   8.541   5.596   3.816 -0.0416  0.0829 -0.1456
   42MOL0     C 5597   8.569   5.569   3.664 -0.5900 -0.9656 -0.4652
   42MOL0     C 5598   8.672   5.456   3.652 -0.1903  0.4917 -0.3927
   42MOL0     C 5599   8.803   5.481   3.706  1.2081 -0.6891  0.0289
   42MOL0     C 5600   8.903   5.514   3.759  0.3227 -0.0620  0.2055
   42MOL0     C 5601   8.223   5.882   3.828  0.4870 -0.2631  0.3446
   42MOL0     C 5602   8.125   5.972   3.793 -0.0165  1.1209 -0.7107
   42MOL0     H 5603   7.581   6.029   3.871  0.2612 -2.4227 -1.7606
   42MOL0     H 5604   7.386   6.165   3.853  0.1521  0.5597 -0.8399
   42MOL0     H 5605   7.311   6.343   3.443 -1.5028 -1.0013 -0.4712
   42MOL0     H 5606   7.161   6.359   3.540  0.2398 -0.5969  1.1703
   42MOL0     H 5607   7.414   6.526   3.592 -0.6426 -1.2724 -2.8981
   42MOL0     H 5608   7.255   6.575   3.559 -1.4780 -1.1671  0.1389
   42MOL0     H 5609   7.351   6.427   3.807  1.1084 -0.0127  1.5994
   42MOL0     H 5610   7.347   6.600   3.798 -0.0783 -0.5319  1.0531
   42MOL0     H 5611   7.102   6.568   3.713 -1.1025 -1.8115  0.3439
   42MOL0     H 5612   7.111   6.405   3.783 -1.7309  0.0811  1.0046
   42MOL0     H 5613   7.162   6.680   3.918 -0.5924  0.1910 -1.1441
   42MOL0     H 5614   7.005   6.591   3.928 -0.5624 -2.4025  0.4098
   42MOL0     H 5615   7.165   6.398   4.040  0.2492  0.2641  0.3470
   42MOL0     H 5616   7.291   6.520   4.036  0.5727 -1.3780  0.4516
   42MOL0     H 5617   7.174   6.672   4.182  1.5013 -0.1467  3.7172
   42MOL0     H 5618   7.030   6.579   4.196  0.0128  1.3610  2.1742
   42MOL0     H 5619   7.307   6.541   4.309  1.0973 -0.6947  1.6794
   42MOL0     H 5620   7.192   6.398   4.299  1.5009  0.2180 -3.9159
   42MOL0     H 5621   7.212   6.780   4.421 -3.4404  2.5560 -1.7782
   42MOL0     H 5622   7.175   6.829   4.728  1.6458  1.0239 -1.9923
   42MOL0     H 5623   7.071   6.893   4.602  2.6400 -0.9176 -0.9261
   42MOL0     H 5624   6.962   6.874   4.846 -1.8485  0.8247 -1.6106
   42MOL0     H 5625   6.954   6.702   4.811  2.2992 -0.3114  1.6600
   42MOL0     H 5626   6.748   6.776   4.752 -1.4188  2.1008 -0.4564
   42MOL0     H 5627   6.826   6.749   4.600  0.3907 -0.2514  0.4986
   42MOL0     H 5628   6.710   6.957   4.571 -0.4006  1.8419  1.4763
   42MOL0     H 5629   6.873   7.013   4.612  1.1152  1.5009  0.7256
   42MOL0     H 5630   6.630   7.109   4.990 -3.0434  2.1982  2.5645
   42MOL0     H 5631   6.374   6.974   5.184  2.8711 -0.3949  1.4592
   42MOL0     H 5632   6.500   7.085   5.187  1.0425 -2.0014  0.2658
   42MOL0     H 5633   6.347   7.152   5.143 -0.8480 -1.7474  0.5510
   42MOL0     H 5634   6.117   6.663   5.101  0.6591 -0.2629 -0.9257
   42MOL0     H 5635   5.907   6.547   5.164  0.6086 -0.9153 -0.8932
   42MOL0     H 5636   5.576   6.612   4.916 -0.3963  0.8466  2.8828
   42MOL0     H 5637   5.604   6.468   4.817  0.9832 -0.1823  0.5312
   42MOL0     H 5638   5.372   6.445   4.933  0.4280 -2.8969 -1.0366
   42MOL0     H 5639   5.497   6.322   4.983 -1.7281 -0.5536 -2.5010
   42MOL0     H 5640   5.433   6.564   5.143  0.4458  0.4838 -1.1236
   42MOL0     H 5641   5.550   6.449   5.169 -0.9792  0.6147  2.4636
   42MOL0     H 5642   5.253   6.392   5.139 -1.9622 -0.8395  2.1376
   42MOL0     H 5643   5.373   6.268   5.155  0.7121 -0.2734  0.2867
   42MOL0     H 5644   5.299   6.476   5.362  0.9550 -0.6734 -1.0558
   42MOL0     H 5645   5.456   6.387   5.363  1.1137  0.4790 -0.3550
   42MOL0     H 5646   5.330   6.170   5.364 -2.0737 -1.2726  1.9760
   42MOL0     H 5647   5.293   6.266   5.509 -1.6742 -3.4281 -0.0526
   42MOL0     H 5648   5.113   6.170   5.290 -0.9162  1.0470 -0.3474
   42MOL0     H 5649   5.107   6.343   5.312  1.3730  1.1540  0.0363
   42MOL0     H 5650   5.005   6.312   5.526  1.0930 -1.2771  2.4468
   42MOL0     H 5651   5.093   6.169   5.572 -4.0250 -1.2558  2.7943
   42MOL0     H 5652   5.746   6.615   4.771 -0.2875  1.6534  0.2617
   42MOL0     H 5653   5.949   6.754   4.728 -0.2595 -0.6591 -0.1753
   42MOL0     H 5654   6.335   6.821   4.716 -1.4429  0.8672  1.4078
   42MOL0     H 5655   6.551   6.857   4.654  1.0485 -0.7433  1.3939
   42MOL0     H 5656   7.496   6.235   3.436  0.5628 -0.0254  0.2923
   42MOL0     H 5657   7.684   6.116   3.461 -1.9313 -1.0995 -0.4317
   42MOL0     H 5658   7.892   5.773   3.655 -0.7377  0.6089 -0.2769
   42MOL0     H 5659   8.076   5.611   3.708 -0.3182 -0.2655 -1.1142
   42MOL0     H 5660   8.475   5.804   3.788 -1.3305  0.4206  0.7818
   42MOL0     H 5661   8.437   5.730   3.944 -1.6747  2.7378 -0.2415
   42MOL0     H 5662   8.502   5.507   3.866 -0.8960  1.1562  1.1514
   42MOL0     H 5663   8.625   5.630   3.877  2.9110 -0.0126 -3.7940
   42MOL0     H 5664   8.591   5.664   3.615 -0.4311 -2.1308 -2.7569
   42MOL0     H 5665   8.490   5.520   3.606  0.2460 -2.9598 -0.0011
   42MOL0     H 5666   8.684   5.419   3.550 -1.9520 -2.5760  0.3693
   42MOL0     H 5667   8.633   5.369   3.705  0.3357  1.5857  1.9414
   42MOL0     H 5668   8.992   5.547   3.808  1.3438 -2.3130 -0.0047
   42MOL0     H 5669   8.314   5.929   3.865  0.2308 -0.6910  1.5807
   42MOL0     H 5670   8.150   6.074   3.820 -2.1591  1.4403  0.3473
   43MOL0     O 5671  10.355  11.245   1.623 -0.3208 -0.6343 -0.0851
   43MOL0     C 5672  10.428  11.241   1.724 -0.0483  0.1867 -1.3836
   43MOL0     O 5673  10.380  11.252   1.856 -0.7185  0.3563  0.3462
   43MOL0     C 5674  10.253  11.285   1.891 -0.2143 -0.6216  0.7019
   43MOL0     C 5675  10.230  11.352   2.012 -0.0870 -0.2562  0.4189
   43MOL0     C 5676  10.102  11.385   2.060 -0.9993  0.5315  1.3050
   43MOL0     C 5677  10.000  11.338   1.988  0.2876 -0.5160  0.1015
   43MOL0     O 5678   9.874  11.361   2.038  0.2144 -0.0683  0.5399
   43MOL0     C 5679   9.758  11.342   1.956  0.6582  0.1579 -0.0243
   43MOL0     C 5680   9.648  11.432   2.006  0.0908 -0.1684 -0.4515
   43MOL0     C 5681   9.520  11.379   1.939  0.5537 -0.0456  0.2677
   43MOL0     C 5682   9.402  11.459   1.998 -0.0985  0.7572 -0.5716
   43MOL0     C 5683   9.259  11.416   1.941 -0.5913  0.2503  0.1103
   43MOL0     C 5684   9.154  11.527   1.971  0.5100 -0.6167  0.4274
   43MOL0     C 5685   9.087  11.521   2.109 -0.3759  0.3223 -0.2382
   43MOL0     C 5686   9.009  11.395   2.131 -0.5341 -0.0324  0.3568
   43MOL0     N 5687   8.897  11.378   2.033  0.6571  0.0247 -0.9206
   43MOL0     C 5688   8.773  11.432   2.040  0.5615 -0.0158  0.1308
   43MOL0     C 5689   8.711  11.393   1.936 -0.1711  0.6002 -0.3024
   43MOL0     C 5690   8.564  11.402   1.900 -0.3259 -0.8597  0.9671
   43MOL0     C 5691   8.510  11.543   1.895  0.2287  0.2149 -0.5415
   43MOL0     C 5692   8.354  11.549   1.877 -0.2177  0.6279 -0.2695
   43MOL0     C 5693   8.301  11.478   1.745 -0.4629 -0.0333 -0.6484
   43MOL0     O 5694   8.288  11.331   1.754  0.7387 -0.6645  0.1449
   43MOL0     C 5695   8.171  11.265   1.773  0.6101  0.0468  1.2987
   43MOL0     C 5696   8.163  11.131   1.767 -0.6645  0.1632  0.1483
   43MOL0     C 5697   8.049  11.064   1.799 -0.1721 -0.2478 -0.1865
   43MOL0     C 5698   8.054  10.913   1.780  0.4239  0.0280  0.4614
   43MOL0     C 5699   7.942  11.130   1.862  0.0673  0.0696  0.8412
   43MOL0     C 5700   7.814  11.069   1.897  0.7184  0.7801  0.3667
   43MOL0     O 5701   7.697  11.134   1.855 -0.0562 -0.3199  0.4397
   43MOL0     C 5702   7.577  11.081   1.889 -0.7891 -0.4058  0.0880
   43MOL0     C 5703   7.535  10.948   1.863  0.3355  0.1466 -0.2392
   43MOL0     C 5704   7.414  10.904   1.915 -0.0307  0.3247 -0.4345
   43MOL0     C 5705   7.339  10.980   1.998  0.6088  0.7518 -0.4316
   43MOL0     O 5706   7.228  10.934   2.067  0.2255 -0.3793 -0.1793
   43MOL0     C 5707   7.126  10.857   1.998  0.6646 -0.5187  0.2559
   43MOL0     C 5708   7.032  10.955   1.939 -0.7936 -0.6980  0.3607
   43MOL0     C 5709   6.909  10.884   1.883  0.1639 -0.1938  0.5692
   43MOL0     C 5710   6.830  10.964   1.778 -0.5387 -0.4924 -0.7453
   43MOL0     C 5711   6.712  10.881   1.730 -0.0869  0.0715  0.1527
   43MOL0     C 5712   6.631  10.954   1.622 -0.8298 -0.0689  0.2131
   43MOL0     C 5713   6.541  10.862   1.529 -0.6030 -0.2730 -0.6743
   43MOL0     C 5714   6.623  10.805   1.413 -0.5978  0.2821  0.3645
   43MOL0    Cl 5715   6.508  10.678   1.337  0.0644 -0.0054  0.5498
   43MOL0     C 5716   7.376  11.112   2.019  0.4928  0.0179  0.3197
   43MOL0     C 5717   7.489  11.163   1.960  0.4942  0.3333 -0.0005
   43MOL0     O 5718   7.816  10.950   1.927 -0.6726  1.2910 -0.5460
   43MOL0     C 5719   7.952  11.268   1.883  1.0375 -0.1363  0.3235
   43MOL0     C 5720   8.060  11.333   1.827 -0.4506  0.0015 -0.9374
   43MOL0     N 5721   8.794  11.336   1.844 -0.2343  0.4465 -0.5520
   43MOL0     N 5722   8.898  11.321   1.910 -0.4846  0.1478 -0.0473
   43MOL0     C 5723  10.018  11.253   1.881  0.1006  0.4014 -0.1490
   43MOL0     C 5724  10.144  11.223   1.829  0.0951  0.4608 -0.0599
   43MOL0     C 5725  10.572  11.214   1.701  0.2978 -0.0068 -0.6928
   43MOL0     C 5726  10.660  11.188   1.806 -0.2395  0.3027  0.0931
   43MOL0     C 5727  10.796  11.173   1.789 -0.8774 -0.7571  0.5878
   43MOL0     C 5728  10.852  11.186   1.654 -0.5441  0.4483  0.6280
   43MOL0     O 5729  10.990  11.176   1.629  0.1915 -0.2478  0.3334
   43MOL0     C 5730  11.046  11.164   1.500 -0.2101 -0.4081  0.2920
   43MOL0     C 5731  11.196  11.131   1.484 -0.9415 -0.4799 -0.4385
   43MOL0     C 5732  11.283  11.246   1.556  0.0851 -0.0621 -0.6303
   43MOL0     C 5733  11.431  11.205   1.557  0.0816  1.0350 -0.3719
   43MOL0     C 5734  11.499  11.289   1.650  0.5433 -1.5352  0.8549
   43MOL0     C 5735  11.559  11.358   1.730  0.1383  0.5205  0.2550
   43MOL0     C 5736  10.762  11.208   1.557 -0.0861  0.4385  1.2037
   43MOL0     C 5737  10.627  11.218   1.571  0.0767 -0.1071 -0.4274
   43MOL0     H 5738  10.317  11.380   2.070 -0.2967 -0.3816  0.8041
   43MOL0     H 5739  10.099  11.433   2.157 -1.2663  0.0893  1.5193
   43MOL0     H 5740   9.780  11.366   1.852 -1.6526  1.4278 -0.2913
   43MOL0     H 5741   9.746  11.235   1.974  1.2740  0.1856  0.6458
   43MOL0     H 5742   9.643  11.443   2.115 -0.1424 -2.2426 -0.1978
   43MOL0     H 5743   9.671  11.534   1.976  1.1359 -0.0193  0.7646
   43MOL0     H 5744   9.532  11.398   1.831  0.9200  3.9752  0.8470
   43MOL0     H 5745   9.512  11.273   1.962 -0.0230  0.1259  0.8623
   43MOL0     H 5746   9.416  11.457   2.106  0.3719  0.7470 -0.6286
   43MOL0     H 5747   9.417  11.565   1.976  0.7382  0.6082 -0.7390
   43MOL0     H 5748   9.257  11.388   1.835  0.4972 -3.7137  0.9649
   43MOL0     H 5749   9.240  11.317   1.983  0.6640 -0.6903 -1.3890
   43MOL0     H 5750   9.192  11.629   1.954 -1.6141 -0.1467 -2.1720
   43MOL0     H 5751   9.075  11.518   1.896 -1.2978  0.0064  2.1778
   43MOL0     H 5752   9.166  11.527   2.185  0.5593 -0.1611 -1.1325
   43MOL0     H 5753   9.023  11.608   2.120  1.1034  1.6164 -1.3937
   43MOL0     H 5754   8.971  11.385   2.234  2.0532 -0.6516  1.3354
   43MOL0     H 5755   9.074  11.308   2.120  1.4477  1.5796 -1.2888
   43MOL0     H 5756   8.715  11.478   2.119 -0.4894  1.0402 -1.1994
   43MOL0     H 5757   8.546  11.351   1.805 -0.0120  1.5302 -0.4525
   43MOL0     H 5758   8.497  11.363   1.977 -1.1481 -0.3981  0.4968
   43MOL0     H 5759   8.564  11.605   1.823 -0.5431  1.8699  0.2283
   43MOL0     H 5760   8.537  11.586   1.992  1.5709  1.4862 -1.4377
   43MOL0     H 5761   8.309  11.648   1.872 -0.6253  0.4099 -1.3567
   43MOL0     H 5762   8.314  11.504   1.969 -1.4046 -2.6413 -2.1922
   43MOL0     H 5763   8.377  11.505   1.670 -0.0922 -0.0920 -0.2962
   43MOL0     H 5764   8.207  11.519   1.708 -0.6355 -2.7536 -3.7509
   43MOL0     H 5765   8.254  11.076   1.747 -0.1143 -0.0982  2.9034
   43MOL0     H 5766   8.137  10.888   1.713  0.2244  0.4008  0.0672
   43MOL0     H 5767   8.072  10.854   1.870 -0.6128 -0.8029  0.1482
   43MOL0     H 5768   7.963  10.873   1.734 -0.4761  1.3505  1.0383
   43MOL0     H 5769   7.587  10.879   1.798 -0.4429 -0.9105  0.2363
   43MOL0     H 5770   7.385  10.800   1.905 -1.8133  0.7906 -0.2922
   43MOL0     H 5771   7.167  10.797   1.917 -1.1571  0.4658 -1.4744
   43MOL0     H 5772   7.065  10.810   2.076 -3.6274  1.4726 -1.5658
   43MOL0     H 5773   7.009  11.022   2.022  1.0993 -1.5080  1.6321
   43MOL0     H 5774   7.087  11.006   1.860  2.1660 -1.6467  1.6569
   43MOL0     H 5775   6.848  10.852   1.967 -1.4648 -1.7899 -1.1194
   43MOL0     H 5776   6.947  10.799   1.826 -0.5002  0.1222 -0.3768
   43MOL0     H 5777   6.782  11.049   1.828 -0.7628 -1.0808  0.0691
   43MOL0     H 5778   6.909  10.989   1.707  1.7079 -0.7520  1.5283
   43MOL0     H 5779   6.651  10.857   1.817  0.5419  1.4701  1.0156
   43MOL0     H 5780   6.771  10.795   1.695  2.6621  1.6131  0.6625
   43MOL0     H 5781   6.570  11.028   1.676  1.2582  0.1550  2.4320
   43MOL0     H 5782   6.694  11.010   1.551 -0.1131  0.4996  1.2786
   43MOL0     H 5783   6.440  10.898   1.506 -0.5271 -0.7296 -1.7959
   43MOL0     H 5784   6.519  10.772   1.587  0.2841 -2.8170 -3.9756
   43MOL0     H 5785   6.714  10.748   1.433 -2.0865 -1.8465  1.5010
   43MOL0     H 5786   6.647  10.873   1.330  1.5718 -1.1215 -0.2506
   43MOL0     H 5787   7.327  11.172   2.095  0.6026  1.6078 -0.8281
   43MOL0     H 5788   7.505  11.268   1.980 -2.8409  0.7423  1.2358
   43MOL0     H 5789   7.878  11.315   1.947  0.2085 -3.5210  2.0890
   43MOL0     H 5790   8.060  11.438   1.853 -0.4832 -0.4316  0.8994
   43MOL0     H 5791   9.930  11.203   1.843 -0.7307  0.0044  2.1085
   43MOL0     H 5792  10.155  11.144   1.755  1.0334  0.2585  0.2850
   43MOL0     H 5793  10.620  11.182   1.907  0.2691 -0.8529  0.2371
   43MOL0     H 5794  10.867  11.157   1.869  3.8970  0.7420 -2.8317
   43MOL0     H 5795  11.002  11.078   1.449  0.6071 -1.0304  0.6209
   43MOL0     H 5796  11.036  11.259   1.446  2.2594 -0.2611  0.0054
   43MOL0     H 5797  11.211  11.132   1.375 -1.6548 -2.1550 -0.5781
   43MOL0     H 5798  11.218  11.029   1.516  0.5504  0.3779  1.4683
   43MOL0     H 5799  11.250  11.274   1.656  2.9021 -0.6199  0.5661
   43MOL0     H 5800  11.275  11.326   1.482 -1.2699 -0.3026 -0.7601
   43MOL0     H 5801  11.474  11.213   1.457  0.5339  3.7036 -0.0347
   43MOL0     H 5802  11.443  11.102   1.593 -1.2878  1.3294  1.0293
   43MOL0     H 5803  11.622  11.422   1.789  1.4702 -1.3853  1.0042
   43MOL0     H 5804  10.797  11.225   1.456  0.0173 -3.5827  0.4065
   43MOL0     H 5805  10.571  11.227   1.479 -0.0963 -0.3854 -0.3490
   44MOL0     O 5806   0.043   9.841  11.210 -0.6498 -0.0140  0.4248
   44MOL0     C 5807   0.070   9.960  11.240  0.6251  0.0031 -0.4637
   44MOL0     O 5808  -0.013  10.051  11.310  0.0077  0.5823  0.0685
   44MOL0     C 5809  -0.133  10.005  11.365  0.5954  0.4601 -0.2605
   44MOL0     C 5810  -0.142   9.893  11.448  0.5005 -0.6877  0.1482
   44MOL0     C 5811  -0.260   9.865  11.522 -0.5739 -0.0811  0.5897
   44MOL0     C 5812  -0.369   9.944  11.510  0.0877 -0.5763 -0.2804
   44MOL0     O 5813  -0.483   9.905  11.574  0.9452 -0.2958  0.7420
   44MOL0     C 5814  -0.606   9.984  11.574  0.2331 -0.0953 -0.6167
   44MOL0     C 5815  -0.681   9.975  11.445 -0.4684  0.2595  0.7909
   44MOL0     C 5816  -0.743   9.834  11.431 -0.7361  0.6614  0.6298
   44MOL0     C 5817  -0.667   9.774  11.309  0.0432  0.2673  0.4708
   44MOL0     C 5818  -0.723   9.632  11.265  0.4095 -0.0184 -0.3246
   44MOL0     C 5819  -0.704   9.527  11.383  1.1263  0.3134 -0.4035
   44MOL0     C 5820  -0.743   9.381  11.343 -0.1287  0.0088 -0.2526
   44MOL0     C 5821  -0.898   9.355  11.329 -0.1047 -0.3782  0.0389
   44MOL0     N 5822  -0.974   9.392  11.441  0.6764  0.3922 -0.9271
   44MOL0     C 5823  -1.049   9.509  11.472  0.1676 -0.2703  0.1439
   44MOL0     C 5824  -1.101   9.483  11.592  0.7790 -0.1932  0.1968
   44MOL0     C 5825  -1.209   9.565  11.667 -0.0957  1.0019 -0.4318
   44MOL0     C 5826  -1.344   9.517  11.629 -0.5981 -0.3643 -0.1585
   44MOL0     C 5827  -1.385   9.546  11.486  0.2185  0.3942 -0.3258
   44MOL0     C 5828  -1.403   9.688  11.451  0.1925 -0.7276 -0.3442
   44MOL0     O 5829  -1.482   9.766  11.545 -0.4213  0.3053  0.4666
   44MOL0     C 5830  -1.607   9.792  11.500  0.8065  0.5947 -0.3314
   44MOL0     C 5831  -1.663   9.904  11.566 -0.2759 -0.2041 -0.1766
   44MOL0     C 5832  -1.798   9.936  11.541  0.1993  0.3836  0.1753
   44MOL0     C 5833  -1.825  10.073  11.607 -1.1183 -0.4980 -0.3334
   44MOL0     C 5834  -1.883   9.856  11.456 -0.9528  0.3648  0.3130
   44MOL0     C 5835  -2.021   9.900  11.413  0.8338  0.8222 -0.1265
   44MOL0     O 5836  -2.082   9.833  11.313 -0.7106 -0.4941  0.2947
   44MOL0     C 5837  -2.199   9.898  11.263  0.2453 -0.1319  0.5417
   44MOL0     C 5838  -2.199  10.031  11.207 -0.0581  0.7726  0.1068
   44MOL0     C 5839  -2.311  10.090  11.149  0.8169  0.1787  0.1731
   44MOL0     C 5840  -2.431  10.027  11.152 -0.1354  0.4374 -0.7320
   44MOL0     O 5841  -2.540  10.072  11.085  0.0866  0.5703 -0.0377
   44MOL0     C 5842  -2.512  10.088  10.944  1.0104  0.5532 -0.0097
   44MOL0     C 5843  -2.643  10.100  10.861 -1.4751 -0.0257  0.1137
   44MOL0     C 5844  -2.707   9.953  10.864  0.6562  0.2900 -0.1957
   44MOL0     C 5845  -2.784   9.911  10.992 -0.4437  0.0589  0.3844
   44MOL0     C 5846  -2.930   9.875  10.955  0.1902 -1.3045 -0.4208
   44MOL0     C 5847  -3.016   9.863  11.075 -0.3687  0.1542  0.3071
   44MOL0     C 5848  -2.986   9.723  11.137  0.3568  0.4740  0.1139
   44MOL0     C 5849  -3.078   9.719  11.248 -0.5722 -0.2976 -0.3379
   44MOL0    Cl 5850  -3.250   9.717  11.192 -0.0599  0.3363 -0.0258
   44MOL0     C 5851  -2.438   9.904  11.211  0.3646 -0.8874 -0.1979
   44MOL0     C 5852  -2.325   9.836  11.259  0.2057 -0.1583  0.1597
   44MOL0     O 5853  -2.072   9.983  11.494 -0.5083 -0.1393  0.9953
   44MOL0     C 5854  -1.823   9.743  11.395  0.4524 -1.0945 -0.4044
   44MOL0     C 5855  -1.689   9.715  11.410  0.8885  0.0397  0.5242
   44MOL0     N 5856  -1.066   9.356  11.633  0.4820  0.0932  0.8037
   44MOL0     N 5857  -0.997   9.302  11.544  0.5150  0.6209  0.0406
   44MOL0     C 5858  -0.352  10.062  11.427  0.0114  0.1938 -0.4046
   44MOL0     C 5859  -0.239  10.096  11.358  0.3365 -0.0083 -0.3929
   44MOL0     C 5860   0.196  10.012  11.194 -0.8114 -0.7352  0.1402
   44MOL0     C 5861   0.247  10.127  11.257  0.3854 -0.5694 -0.6651
   44MOL0     C 5862   0.385  10.155  11.245 -0.0508  0.8544  0.2578
   44MOL0     C 5863   0.471  10.089  11.160 -0.3793 -1.0142  0.7009
   44MOL0     O 5864   0.601  10.140  11.173 -0.7582 -0.6823 -0.0928
   44MOL0     C 5865   0.660  10.136  11.038 -0.6482 -0.4257 -0.0543
   44MOL0     C 5866   0.781  10.225  11.031 -0.6118 -0.6854 -0.2861
   44MOL0     C 5867   0.874  10.197  11.144 -0.3757  0.1011 -0.9331
   44MOL0     C 5868   0.965  10.079  11.111 -0.3422 -0.3406 -0.5617
   44MOL0     C 5869   1.072  10.064  11.211  0.0031 -0.6176 -0.3626
   44MOL0     C 5870   1.172  10.068  11.285 -0.4111  0.1088  0.9392
   44MOL0     C 5871   0.416   9.992  11.085 -0.9188  0.8898 -0.5651
   44MOL0     C 5872   0.287   9.949  11.105  0.4799  0.1148 -0.0751
   44MOL0     H 5873  -0.057   9.827  11.462 -0.3291 -2.0494 -0.9974
   44MOL0     H 5874  -0.274   9.768  11.569 -0.5135 -1.2791 -1.7222
   44MOL0     H 5875  -0.664   9.969  11.666 -0.5494 -1.0903 -1.2602
   44MOL0     H 5876  -0.585  10.091  11.586 -2.7299  0.5581 -0.3834
   44MOL0     H 5877  -0.767  10.042  11.441  1.0106  2.5136  3.2978
   44MOL0     H 5878  -0.613   9.996  11.361 -0.4809  1.2268  1.0077
   44MOL0     H 5879  -0.739   9.769  11.519 -1.7083 -0.9313 -0.4386
   44MOL0     H 5880  -0.848   9.841  11.400 -0.7629 -0.8030  0.3146
   44MOL0     H 5881  -0.679   9.834  11.218 -0.9859 -0.2373  0.2567
   44MOL0     H 5882  -0.560   9.763  11.328  0.6198  1.8549 -1.5238
   44MOL0     H 5883  -0.828   9.640  11.235  1.2175 -1.5609 -4.2072
   44MOL0     H 5884  -0.675   9.597  11.173 -2.1125  0.0040 -1.7313
   44MOL0     H 5885  -0.601   9.521  11.420  1.0624 -3.9907 -0.4606
   44MOL0     H 5886  -0.760   9.569  11.468  0.5318  1.7808 -1.4795
   44MOL0     H 5887  -0.691   9.345  11.254  1.2336  0.4757  0.3197
   44MOL0     H 5888  -0.710   9.312  11.421  1.0008 -2.2641 -2.5930
   44MOL0     H 5889  -0.923   9.252  11.303 -1.6165 -0.0203 -0.0471
   44MOL0     H 5890  -0.938   9.417  11.248 -0.2108 -2.2916 -1.4527
   44MOL0     H 5891  -1.062   9.592  11.403  1.1824 -1.4763 -1.5816
   44MOL0     H 5892  -1.206   9.557  11.776  2.6375  0.9584 -0.4436
   44MOL0     H 5893  -1.201   9.670  11.639 -1.6838  1.5097  0.8548
   44MOL0     H 5894  -1.404   9.579  11.697 -1.3827  0.5668 -1.6377
   44MOL0     H 5895  -1.352   9.415  11.667 -1.3153  0.6979  2.8817
   44MOL0     H 5896  -1.478   9.491  11.467 -0.3107  0.1799  2.4303
   44MOL0     H 5897  -1.310   9.497  11.424 -0.5462 -0.6217 -0.4747
   44MOL0     H 5898  -1.429   9.692  11.345  1.4554  0.3750 -0.6511
   44MOL0     H 5899  -1.310   9.745  11.439 -1.4342  2.3745  0.6959
   44MOL0     H 5900  -1.603   9.967  11.632  0.0021 -0.2728 -0.3635
   44MOL0     H 5901  -1.879  10.137  11.537  3.0977  0.4361 -3.1422
   44MOL0     H 5902  -1.881  10.064  11.701  0.6329 -1.5633  0.6758
   44MOL0     H 5903  -1.736  10.133  11.630 -1.6758 -0.0913  0.8702
   44MOL0     H 5904  -2.104  10.083  11.201  1.1726 -1.2151  1.2909
   44MOL0     H 5905  -2.300  10.184  11.095  0.0779 -0.4327 -1.0896
   44MOL0     H 5906  -2.442  10.171  10.931  1.0340  0.3560 -1.1648
   44MOL0     H 5907  -2.450  10.007  10.906  1.7129  1.3833 -0.6628
   44MOL0     H 5908  -2.699  10.178  10.912 -1.6177  0.0538 -0.1613
   44MOL0     H 5909  -2.609  10.128  10.761  2.3709 -0.2471  1.2190
   44MOL0     H 5910  -2.636   9.873  10.841 -0.3512 -0.6171 -0.2633
   44MOL0     H 5911  -2.775   9.939  10.779 -1.4854 -1.2117  1.6470
   44MOL0     H 5912  -2.727   9.827  11.033 -1.9312 -1.0352  0.2782
   44MOL0     H 5913  -2.795   9.991  11.065 -1.4631 -0.3967  0.7481
   44MOL0     H 5914  -2.928   9.786  10.890  2.3958 -0.8699 -1.0252
   44MOL0     H 5915  -2.965   9.962  10.899  0.1058 -2.4764 -2.2660
   44MOL0     H 5916  -3.023   9.943  11.150  0.9865  0.1997  0.4000
   44MOL0     H 5917  -3.119   9.854  11.038 -0.5965  0.4342  0.8542
   44MOL0     H 5918  -2.883   9.720  11.172  0.5356  4.3959  0.3646
   44MOL0     H 5919  -3.010   9.647  11.062 -0.6401  0.0886  0.8005
   44MOL0     H 5920  -3.049   9.791  11.325  1.1305 -0.8734 -0.4031
   44MOL0     H 5921  -3.066   9.623  11.300  1.7635 -0.3485 -0.8831
   44MOL0     H 5922  -2.538   9.864  11.209 -0.1712  0.3764 -2.1285
   44MOL0     H 5923  -2.338   9.740  11.307 -0.3436  0.1783  0.6987
   44MOL0     H 5924  -1.878   9.674  11.331 -0.2749  1.3334 -2.5687
   44MOL0     H 5925  -1.646   9.635  11.351  1.0651 -0.0660  0.7936
   44MOL0     H 5926  -0.436  10.130  11.433 -2.5234 -2.5443 -2.2776
   44MOL0     H 5927  -0.242  10.185  11.297 -0.0192 -1.3430 -2.4159
   44MOL0     H 5928   0.186  10.191  11.321  0.8904  2.9790 -3.3740
   44MOL0     H 5929   0.426  10.225  11.317  1.3366 -1.3086  1.6742
   44MOL0     H 5930   0.703  10.038  11.018  0.0401 -0.1159 -0.1167
   44MOL0     H 5931   0.588  10.156  10.957  1.0876  0.7386 -1.4079
   44MOL0     H 5932   0.748  10.326  11.057  0.3424 -0.8937  1.9274
   44MOL0     H 5933   0.827  10.239  10.932 -2.1222 -0.8913 -1.0453
   44MOL0     H 5934   0.824  10.171  11.238  4.8251 -3.3609  1.3596
   44MOL0     H 5935   0.924  10.288  11.179  0.6895  0.5459 -3.4006
   44MOL0     H 5936   1.015  10.093  11.015  2.3012  3.1495  1.1082
   44MOL0     H 5937   0.905   9.988  11.120  0.7148 -0.9062  1.4014
   44MOL0     H 5938   1.271  10.080  11.327  1.1086  1.7567 -2.6870
   44MOL0     H 5939   0.482   9.928  11.027  3.5814  4.0486  0.4924
   44MOL0     H 5940   0.262   9.859  11.050 -0.6644  0.8543 -0.8055
   45MOL0     O 5941   5.205   1.859   6.540  0.4352 -0.0848 -0.2366
   45MOL0     C 5942   5.240   1.970   6.520 -0.2544  1.2358  0.5205
   45MOL0     O 5943   5.167   2.072   6.465 -0.8590  0.9546 -0.6834
   45MOL0     C 5944   5.035   2.056   6.451 -0.0814  0.6503  0.2443
   45MOL0     C 5945   4.971   2.031   6.326  0.0866  0.0917 -0.4885
   45MOL0     C 5946   4.837   2.003   6.327 -0.0317  0.5294  0.0209
   45MOL0     C 5947   4.761   2.008   6.444 -0.4648 -0.0578  0.8695
   45MOL0     O 5948   4.630   1.970   6.450 -0.3205 -0.0572 -0.4167
   45MOL0     C 5949   4.532   2.080   6.466  0.0773 -0.2690 -0.8283
   45MOL0     C 5950   4.437   2.038   6.581  0.2050 -1.2902  0.7171
   45MOL0     C 5951   4.373   1.916   6.564 -0.0200  1.6193 -1.6126
   45MOL0     C 5952   4.258   1.912   6.457  0.2983 -0.5028  0.2374
   45MOL0     C 5953   4.200   1.772   6.442  0.2976 -0.4036 -0.2980
   45MOL0     C 5954   4.088   1.762   6.350  0.1779  0.1231 -0.1813
   45MOL0     C 5955   4.074   1.610   6.316 -0.5618  0.2266  0.6617
   45MOL0     C 5956   3.993   1.590   6.184 -0.1056 -0.0643  0.2338
   45MOL0     N 5957   3.863   1.644   6.192  0.0276 -0.3464  0.1793
   45MOL0     C 5958   3.833   1.766   6.160  0.3501 -0.7943  0.1103
   45MOL0     C 5959   3.701   1.792   6.190 -0.4440 -0.5527  0.5817
   45MOL0     C 5960   3.620   1.920   6.178 -0.1930  0.1048  0.4261
   45MOL0     C 5961   3.700   2.057   6.208  0.3347 -0.4015 -0.3746
   45MOL0     C 5962   3.712   2.091   6.352  0.4375 -0.1037 -0.2439
   45MOL0     C 5963   3.584   2.108   6.423 -0.4031  1.0852  1.0079
   45MOL0     O 5964   3.517   2.222   6.373 -0.2792 -0.2735 -0.8656
   45MOL0     C 5965   3.378   2.226   6.392 -0.1747 -1.7024  0.1272
   45MOL0     C 5966   3.308   2.342   6.338  0.0104  1.4152 -0.9859
   45MOL0     C 5967   3.170   2.350   6.341  0.2222 -0.1362 -0.0913
   45MOL0     C 5968   3.121   2.490   6.299  0.0845  1.4432  0.0497
   45MOL0     C 5969   3.096   2.249   6.406 -0.2453  0.8995 -0.9307
   45MOL0     C 5970   2.947   2.244   6.417  0.5726 -0.6473 -0.5550
   45MOL0     O 5971   2.893   2.165   6.522  0.4760  0.2944  0.5939
   45MOL0     C 5972   2.762   2.134   6.498  0.2568 -0.3093 -0.6020
   45MOL0     C 5973   2.725   2.019   6.439  0.4775 -0.0580 -0.4147
   45MOL0     C 5974   2.593   1.982   6.416  0.5699 -0.0493  0.7239
   45MOL0     C 5975   2.489   2.075   6.449 -0.4379 -0.6230  0.0225
   45MOL0     O 5976   2.357   2.053   6.430 -0.0748  0.6186  0.4712
   45MOL0     C 5977   2.320   1.928   6.367 -0.3451  0.5443 -0.5013
   45MOL0     C 5978   2.175   1.916   6.346 -0.0398  0.0496 -0.6122
   45MOL0     C 5979   2.102   1.922   6.476  1.4856  0.0489  0.3346
   45MOL0     C 5980   1.949   1.929   6.461  0.3715 -0.0890 -0.1161
   45MOL0     C 5981   1.861   1.936   6.589 -0.4301  0.2566 -0.3869
   45MOL0     C 5982   1.714   1.940   6.541  0.4115 -0.0296  0.1615
   45MOL0     C 5983   1.611   1.920   6.655  0.1376  1.0088  0.2325
   45MOL0     C 5984   1.601   1.783   6.738 -0.0914 -0.1538  0.1543
   45MOL0    Cl 5985   1.455   1.796   6.833 -0.2637 -0.2448 -0.0417
   45MOL0     C 5986   2.527   2.200   6.496  0.4321  0.9508 -0.0052
   45MOL0     C 5987   2.664   2.229   6.525 -0.3568  0.1138  0.3036
   45MOL0     O 5988   2.883   2.286   6.320 -0.4589  0.2578  0.4892
   45MOL0     C 5989   3.163   2.137   6.456 -0.1376  0.3180  0.9043
   45MOL0     C 5990   3.306   2.126   6.453  0.0583  0.1263  0.1272
   45MOL0     N 5991   3.660   1.675   6.252 -0.1114  0.2837 -0.4973
   45MOL0     N 5992   3.757   1.587   6.248 -0.4242 -0.0773 -0.0240
   45MOL0     C 5993   4.828   2.063   6.557 -0.5686 -0.1275  0.0261
   45MOL0     C 5994   4.961   2.079   6.566 -0.7666 -0.1537  0.4317
   45MOL0     C 5995   5.379   1.985   6.562 -0.3395 -0.0079  0.0166
   45MOL0     C 5996   5.444   2.098   6.528 -0.6496 -0.2512  0.9844
   45MOL0     C 5997   5.567   2.125   6.570  0.2766  0.1789  0.2850
   45MOL0     C 5998   5.632   2.041   6.654  0.5829 -0.3415 -0.2681
   45MOL0     O 5999   5.747   2.089   6.706 -0.0600 -0.8183  0.2349
   45MOL0     C 6000   5.857   2.009   6.722 -0.6857 -0.4548 -0.3292
   45MOL0     C 6001   5.981   2.092   6.767  0.2785 -0.0922  0.0255
   45MOL0     C 6002   6.017   2.208   6.685 -0.5367 -0.1124 -0.3312
   45MOL0     C 6003   6.114   2.314   6.757  1.0112  0.5708  0.7016
   45MOL0     C 6004   6.225   2.262   6.834 -0.4276 -0.0210  0.4304
   45MOL0     C 6005   6.321   2.218   6.901 -0.7269  0.3888  0.1103
   45MOL0     C 6006   5.580   1.913   6.682 -0.3286 -0.3834 -0.0361
   45MOL0     C 6007   5.449   1.881   6.633  0.2385 -0.1504  0.2989
   45MOL0     H 6008   5.006   2.041   6.223 -2.0308 -0.2548 -1.2977
   45MOL0     H 6009   4.785   1.985   6.233 -0.9169  3.4345 -0.1493
   45MOL0     H 6010   4.575   2.177   6.494 -0.5471 -0.5061  1.1357
   45MOL0     H 6011   4.482   2.095   6.370  2.3568 -0.5779 -2.1172
   45MOL0     H 6012   4.504   2.042   6.668  0.6730 -0.2407  0.3325
   45MOL0     H 6013   4.352   2.102   6.608 -0.6708 -1.7915 -0.7831
   45MOL0     H 6014   4.445   1.837   6.542 -1.2672  0.2450 -1.0121
   45MOL0     H 6015   4.318   1.892   6.655  2.3592 -1.4822 -0.8155
   45MOL0     H 6016   4.183   1.990   6.473 -2.1034 -2.2987 -1.5895
   45MOL0     H 6017   4.304   1.925   6.359  0.8722 -3.7942 -0.0522
   45MOL0     H 6018   4.280   1.700   6.422 -0.0170 -0.8974  0.2051
   45MOL0     H 6019   4.159   1.739   6.537  1.6496  0.5869  0.6745
   45MOL0     H 6020   3.995   1.804   6.390 -0.4204 -1.0019 -0.3437
   45MOL0     H 6021   4.115   1.819   6.261  1.7621 -0.0920  0.1419
   45MOL0     H 6022   4.170   1.559   6.306 -1.0443 -0.4511 -0.8757
   45MOL0     H 6023   4.013   1.566   6.396  0.9919 -0.1916  1.6546
   45MOL0     H 6024   3.987   1.481   6.171  0.2325 -0.2466  1.4670
   45MOL0     H 6025   4.036   1.633   6.094 -1.5338 -0.2988 -0.6008
   45MOL0     H 6026   3.900   1.840   6.117  2.5302 -2.5466  0.3184
   45MOL0     H 6027   3.587   1.919   6.074 -2.5364 -0.1668  1.1255
   45MOL0     H 6028   3.533   1.915   6.244 -1.7654 -0.4274 -1.6112
   45MOL0     H 6029   3.675   2.148   6.153 -2.3360 -0.2752  0.8803
   45MOL0     H 6030   3.802   2.034   6.178  0.9965  1.1385  0.6136
   45MOL0     H 6031   3.775   2.180   6.368  0.3365 -0.0017 -0.4100
   45MOL0     H 6032   3.767   2.009   6.398 -1.4236 -0.5906  1.2224
   45MOL0     H 6033   3.606   2.118   6.529  3.0580 -0.4182  0.6053
   45MOL0     H 6034   3.531   2.012   6.421 -2.1681  2.0181 -1.1801
   45MOL0     H 6035   3.371   2.417   6.291 -0.4293  2.5467  0.1947
   45MOL0     H 6036   3.073   2.539   6.384  1.4756 -0.1020  1.8132
   45MOL0     H 6037   3.208   2.539   6.255  0.5970  0.6632  0.1643
   45MOL0     H 6038   3.051   2.476   6.216  0.7393 -1.8446 -0.1176
   45MOL0     H 6039   2.802   1.946   6.417  2.3871  1.4685  0.8405
   45MOL0     H 6040   2.583   1.883   6.371  1.7366 -0.4283  1.2484
   45MOL0     H 6041   2.354   1.917   6.264  2.3843 -2.5257  0.5467
   45MOL0     H 6042   2.365   1.864   6.443 -0.8087  2.2629  1.3209
   45MOL0     H 6043   2.135   1.996   6.283 -0.2942  0.5274  0.1399
   45MOL0     H 6044   2.158   1.820   6.297 -2.4046  0.1389 -0.0483
   45MOL0     H 6045   2.124   2.018   6.523  1.3091  1.6940 -2.6863
   45MOL0     H 6046   2.133   1.842   6.544 -0.1264  0.4047  1.5529
   45MOL0     H 6047   1.920   2.017   6.402 -2.6388  0.4409  1.9110
   45MOL0     H 6048   1.918   1.843   6.402  2.7038 -1.1484  0.0934
   45MOL0     H 6049   1.898   2.020   6.649  0.4558 -0.4080  0.0186
   45MOL0     H 6050   1.881   1.845   6.647  2.2305  1.5614  0.9080
   45MOL0     H 6051   1.701   2.033   6.485  2.4803 -0.6843 -1.5026
   45MOL0     H 6052   1.696   1.859   6.470  0.3000  0.4312 -0.3421
   45MOL0     H 6053   1.509   1.936   6.619 -0.4316 -1.2197  0.6720
   45MOL0     H 6054   1.639   2.003   6.720  1.5081  1.0521 -0.3718
   45MOL0     H 6055   1.689   1.764   6.800  1.0349  2.4554 -0.5076
   45MOL0     H 6056   1.583   1.697   6.673 -1.3328 -2.7289  3.6480
   45MOL0     H 6057   2.451   2.277   6.509 -0.9310 -0.5452  1.3528
   45MOL0     H 6058   2.679   2.329   6.563 -0.6900  0.0464  0.6213
   45MOL0     H 6059   3.104   2.065   6.511 -2.5774  1.4876  0.0017
   45MOL0     H 6060   3.341   2.032   6.495  0.7466 -1.1812 -3.0555
   45MOL0     H 6061   4.776   2.076   6.651  1.5682  1.2912  1.0842
   45MOL0     H 6062   5.017   2.101   6.656  2.9796 -2.7496 -1.0106
   45MOL0     H 6063   5.397   2.177   6.470  0.5112  0.7795  1.3818
   45MOL0     H 6064   5.608   2.225   6.572  0.0418  0.3597  4.2832
   45MOL0     H 6065   5.832   1.932   6.795 -1.6577 -1.2131 -1.4195
   45MOL0     H 6066   5.879   1.952   6.631  2.6929 -1.3968  0.9251
   45MOL0     H 6067   6.063   2.022   6.787  0.4644  0.6055  1.9491
   45MOL0     H 6068   5.958   2.134   6.866 -0.1654 -1.2490  0.4334
   45MOL0     H 6069   5.927   2.259   6.653 -1.3018 -0.8854  0.5250
   45MOL0     H 6070   6.068   2.168   6.596  0.6906  0.0375  0.2758
   45MOL0     H 6071   6.060   2.384   6.823  2.0412 -0.0154  2.2232
   45MOL0     H 6072   6.157   2.373   6.676 -0.0231 -0.6118 -0.7489
   45MOL0     H 6073   6.412   2.185   6.947  2.5580  5.5566 -1.8150
   45MOL0     H 6074   5.624   1.849   6.758 -1.7568  0.0799  1.2225
   45MOL0     H 6075   5.402   1.788   6.665  1.2340 -0.7324  0.1243
   46MOL0     O 6076   9.262   5.756   1.460 -0.5720  0.2936 -0.4443
   46MOL0     C 6077   9.286   5.831   1.369 -1.1896 -0.1623 -1.3506
   46MOL0     O 6078   9.201   5.915   1.303 -0.5478  0.4922 -0.5051
   46MOL0     C 6079   9.065   5.885   1.320  0.1981 -0.4749  0.3134
   46MOL0     C 6080   8.980   5.997   1.315  0.7488  0.2000 -0.0389
   46MOL0     C 6081   8.843   5.983   1.330  0.4721  0.3404  0.3644
   46MOL0     C 6082   8.785   5.855   1.336 -0.8315  0.0412 -0.4799
   46MOL0     O 6083   8.654   5.858   1.356  0.3735  0.1669 -0.0449
   46MOL0     C 6084   8.596   5.724   1.339  0.3983  0.2683  0.5103
   46MOL0     C 6085   8.438   5.735   1.309 -0.4057 -0.1148  0.1080
   46MOL0     C 6086   8.418   5.748   1.158  0.6922  1.4106 -0.2970
   46MOL0     C 6087   8.470   5.887   1.105  0.2802 -0.0072  0.8887
   46MOL0     C 6088   8.378   6.005   1.129 -0.5763  0.1282  0.3693
   46MOL0     C 6089   8.452   6.142   1.145 -0.9070  0.6935 -0.2953
   46MOL0     C 6090   8.543   6.176   1.028 -1.0040 -0.5191 -0.1274
   46MOL0     C 6091   8.471   6.200   0.899  0.6963  0.2665 -0.4361
   46MOL0     N 6092   8.365   6.306   0.925  0.2815  0.4027 -0.0346
   46MOL0     C 6093   8.229   6.273   0.917  0.5714  0.9097  0.3111
   46MOL0     C 6094   8.175   6.388   0.960  1.1265  0.0722  0.0988
   46MOL0     C 6095   8.027   6.406   0.985 -0.7786 -0.0925  0.4459
   46MOL0     C 6096   7.979   6.526   0.893 -0.3313 -0.2752 -0.6928
   46MOL0     C 6097   7.847   6.602   0.933  0.0222  0.6854 -0.4637
   46MOL0     C 6098   7.738   6.500   0.971 -0.5523 -0.3947  0.1857
   46MOL0     O 6099   7.614   6.565   1.023 -0.0539  0.2273 -0.2464
   46MOL0     C 6100   7.524   6.479   1.086  0.4078 -0.2992  1.1438
   46MOL0     C 6101   7.425   6.538   1.164 -1.2753 -1.3247 -0.3977
   46MOL0     C 6102   7.334   6.462   1.238  0.8729  0.2489  0.2991
   46MOL0     C 6103   7.242   6.542   1.327  0.4100  0.5386 -0.2547
   46MOL0     C 6104   7.334   6.320   1.229 -0.6582  0.8333 -0.2873
   46MOL0     C 6105   7.229   6.233   1.286 -0.9791  0.2445 -0.1805
   46MOL0     O 6106   7.253   6.084   1.288  0.2976 -0.7362 -0.5147
   46MOL0     C 6107   7.150   6.002   1.278 -0.1234 -0.5665  0.4747
   46MOL0     C 6108   7.061   5.975   1.382  0.1156  0.3119  0.4186
   46MOL0     C 6109   6.939   5.896   1.360  0.1564  0.1624  0.4139
   46MOL0     C 6110   6.908   5.838   1.235  0.2997  0.2638  0.2419
   46MOL0     O 6111   6.792   5.773   1.205 -0.2496  0.6480 -0.4076
   46MOL0     C 6112   6.726   5.694   1.311  0.0239  0.2782  0.0790
   46MOL0     C 6113   6.635   5.584   1.248  0.0272 -0.0140  0.4108
   46MOL0     C 6114   6.546   5.514   1.354  0.7320 -0.1158 -0.2890
   46MOL0     C 6115   6.475   5.399   1.289 -0.3117  0.2134  0.4903
   46MOL0     C 6116   6.572   5.274   1.290  1.2248  0.4675  0.2611
   46MOL0     C 6117   6.489   5.142   1.268 -0.4218 -0.1565  0.3968
   46MOL0     C 6118   6.567   5.009   1.285 -1.0532 -1.0251  0.0190
   46MOL0     C 6119   6.695   5.001   1.196 -0.0462 -0.1974  0.4114
   46MOL0    Cl 6120   6.682   4.849   1.108  0.0560  0.1165 -0.0416
   46MOL0     C 6121   7.007   5.863   1.137 -0.0125 -0.2930  0.2057
   46MOL0     C 6122   7.119   5.943   1.155  0.6885  0.2502  0.4556
   46MOL0     O 6123   7.122   6.285   1.321  0.1996  0.0704  0.6866
   46MOL0     C 6124   7.430   6.260   1.135 -0.3117 -0.0678 -0.4145
   46MOL0     C 6125   7.520   6.339   1.071 -0.3677 -0.5163 -0.1432
   46MOL0     N 6126   8.272   6.483   0.985 -0.1369 -0.2441 -0.3225
   46MOL0     N 6127   8.393   6.438   0.953  0.1839 -0.3100 -0.6206
   46MOL0     C 6128   8.872   5.745   1.354 -1.0838 -0.1750 -0.5565
   46MOL0     C 6129   9.011   5.759   1.349 -0.1016  0.3694  0.1942
   46MOL0     C 6130   9.431   5.842   1.348  0.6749  0.5673  0.1448
   46MOL0     C 6131   9.513   5.839   1.453 -0.0404  0.4197  0.7029
   46MOL0     C 6132   9.649   5.856   1.438 -0.1999 -0.3549  0.7117
   46MOL0     C 6133   9.704   5.873   1.313  0.1832 -0.5742 -0.3826
   46MOL0     O 6134   9.839   5.892   1.293  0.1440  0.1538  0.3694
   46MOL0     C 6135   9.935   5.886   1.395  0.0503  0.4319  0.1832
   46MOL0     C 6136  10.059   5.972   1.349  0.1171 -0.0389  0.4965
   46MOL0     C 6137  10.169   5.978   1.457 -0.0736  0.5669  0.2404
   46MOL0     C 6138  10.284   6.068   1.413 -0.0088  0.0423 -0.7150
   46MOL0     C 6139  10.399   6.049   1.503 -0.5978 -0.2627 -0.4661
   46MOL0     C 6140  10.506   6.021   1.565  0.4235  0.2149  0.3859
   46MOL0     C 6141   9.618   5.871   1.203 -0.0583  0.0326  0.4565
   46MOL0     C 6142   9.480   5.866   1.224  0.3320 -0.2948  0.6595
   46MOL0     H 6143   9.017   6.097   1.291  0.7915 -0.1513 -1.5824
   46MOL0     H 6144   8.784   6.074   1.327 -0.0984  0.1743  3.5523
   46MOL0     H 6145   8.652   5.670   1.262  2.1252  1.6534  0.7151
   46MOL0     H 6146   8.609   5.668   1.432  2.1580  0.6109  0.5058
   46MOL0     H 6147   8.386   5.654   1.361  2.3477 -1.0355  1.6230
   46MOL0     H 6148   8.404   5.833   1.346  0.6295  0.1604  0.3443
   46MOL0     H 6149   8.465   5.659   1.115 -0.1214  0.5596  0.5046
   46MOL0     H 6150   8.312   5.734   1.133  1.0306  0.8534 -1.4511
   46MOL0     H 6151   8.567   5.905   1.151 -0.3013  4.7543  0.7885
   46MOL0     H 6152   8.480   5.882   0.996 -2.3438 -0.1952  0.5885
   46MOL0     H 6153   8.298   6.012   1.055 -0.4408 -2.1855 -0.0606
   46MOL0     H 6154   8.327   5.982   1.224 -3.1859 -1.2470 -1.2410
   46MOL0     H 6155   8.395   6.234   1.163  0.9409  1.9436 -0.5661
   46MOL0     H 6156   8.520   6.136   1.231  0.7438 -0.6845 -1.6346
   46MOL0     H 6157   8.590   6.273   1.046  1.2569 -1.2252 -1.7479
   46MOL0     H 6158   8.625   6.105   1.012 -1.8660 -0.8922 -3.9534
   46MOL0     H 6159   8.421   6.110   0.863 -3.6991  1.9872  0.6894
   46MOL0     H 6160   8.536   6.227   0.815  3.0907  0.5390  1.3914
   46MOL0     H 6161   8.194   6.174   0.887  0.0014  0.7294  1.5448
   46MOL0     H 6162   7.977   6.310   0.967 -0.8359  0.0560 -0.2187
   46MOL0     H 6163   8.001   6.433   1.088  0.0538  2.6085  0.0208
   46MOL0     H 6164   7.964   6.491   0.790  1.0183 -1.3095 -0.5597
   46MOL0     H 6165   8.060   6.599   0.893  1.0199 -1.7346  0.7481
   46MOL0     H 6166   7.818   6.674   0.855  2.3663  1.2015 -0.9539
   46MOL0     H 6167   7.863   6.661   1.024 -0.3225 -0.7011  0.5219
   46MOL0     H 6168   7.781   6.437   1.049  1.5223  2.4755  1.5711
   46MOL0     H 6169   7.716   6.440   0.883  0.3146  1.4568 -1.3572
   46MOL0     H 6170   7.430   6.646   1.175  3.1790 -1.2837 -1.0900
   46MOL0     H 6171   7.298   6.620   1.379 -1.9234  1.7291  0.6370
   46MOL0     H 6172   7.159   6.593   1.276  0.3188 -1.1692 -1.9084
   46MOL0     H 6173   7.203   6.482   1.410  0.7114 -0.6517 -0.9638
   46MOL0     H 6174   7.082   6.024   1.477 -1.3359  0.0765  0.8875
   46MOL0     H 6175   6.865   5.875   1.436 -1.5855  2.7058 -0.4496
   46MOL0     H 6176   6.803   5.640   1.368  1.6714  0.9000 -1.4540
   46MOL0     H 6177   6.681   5.769   1.377  1.4152  1.2889 -0.0668
   46MOL0     H 6178   6.572   5.617   1.165 -0.8031 -2.0494  0.1814
   46MOL0     H 6179   6.714   5.515   1.217 -0.1122 -0.6888  1.5163
   46MOL0     H 6180   6.479   5.585   1.403  1.4902  0.4934 -0.1017
   46MOL0     H 6181   6.613   5.486   1.436  2.1559 -1.4113 -1.8180
   46MOL0     H 6182   6.382   5.380   1.344 -0.1458 -0.2902  0.5956
   46MOL0     H 6183   6.451   5.419   1.184 -0.2583 -2.0018  0.0155
   46MOL0     H 6184   6.627   5.262   1.384  0.6051 -0.3246  0.5393
   46MOL0     H 6185   6.643   5.278   1.207  0.2253 -0.5055 -0.6723
   46MOL0     H 6186   6.402   5.123   1.331 -1.3897 -1.8771 -1.3187
   46MOL0     H 6187   6.442   5.152   1.169  0.3710  1.9431  0.1803
   46MOL0     H 6188   6.504   4.921   1.271 -3.8900  0.6589  1.3017
   46MOL0     H 6189   6.602   5.011   1.389  0.9686  0.0872 -0.6216
   46MOL0     H 6190   6.785   5.007   1.258  0.4173  1.9270 -0.4048
   46MOL0     H 6191   6.698   5.072   1.113  1.9863 -1.1056 -0.3472
   46MOL0     H 6192   6.976   5.825   1.040 -0.5290  0.0986  0.2153
   46MOL0     H 6193   7.184   5.956   1.069 -0.3958  1.0751 -0.2655
   46MOL0     H 6194   7.422   6.155   1.106  2.4768 -0.8187  1.2555
   46MOL0     H 6195   7.598   6.293   1.010 -1.0963 -2.0752  0.0345
   46MOL0     H 6196   8.830   5.647   1.376 -1.0903 -0.0335  0.0657
   46MOL0     H 6197   9.071   5.673   1.376 -2.1736 -1.3364 -0.4313
   46MOL0     H 6198   9.468   5.829   1.551 -0.6584  0.7219  0.4562
   46MOL0     H 6199   9.708   5.863   1.529 -1.9350 -0.2352  1.8783
   46MOL0     H 6200   9.900   5.932   1.488  2.1620  2.8834 -0.1015
   46MOL0     H 6201   9.956   5.781   1.415 -2.5350  0.5228  4.7931
   46MOL0     H 6202  10.022   6.070   1.316  0.9468  0.0120 -0.3476
   46MOL0     H 6203  10.105   5.921   1.264  0.4318 -2.8858  2.2373
   46MOL0     H 6204  10.207   5.879   1.484  0.6381  0.6839 -0.3032
   46MOL0     H 6205  10.135   6.028   1.548  0.0135  3.4287 -1.1726
   46MOL0     H 6206  10.253   6.172   1.398  0.4670  1.0949  4.0702
   46MOL0     H 6207  10.327   6.037   1.317  1.1524  1.7214 -0.7947
   46MOL0     H 6208  10.604   6.001   1.604  0.6580 -1.5290 -0.9887
   46MOL0     H 6209   9.645   5.885   1.099  1.9918 -1.6012  0.7107
   46MOL0     H 6210   9.408   5.859   1.143  2.7176  0.2310 -1.6220
   47MOL0     O 6211   0.154   1.131   2.548 -0.0144 -0.3411  0.2072
   47MOL0     C 6212   0.092   1.156   2.439  0.3043 -1.5377 -1.3806
   47MOL0     O 6213   0.127   1.133   2.315 -0.0679  0.3379  0.2202
   47MOL0     C 6214   0.255   1.103   2.289 -0.5535 -0.7690  0.0587
   47MOL0     C 6215   0.280   1.007   2.194  0.3390 -0.2093 -0.0084
   47MOL0     C 6216   0.406   0.967   2.149  0.2136 -0.0276 -0.2537
   47MOL0     C 6217   0.518   1.027   2.213  0.5930  0.3983 -0.0165
   47MOL0     O 6218   0.650   0.982   2.212  0.7949 -0.5249  0.1004
   47MOL0     C 6219   0.683   0.840   2.198  1.1005  0.5623  0.0209
   47MOL0     C 6220   0.840   0.826   2.195  0.7235  0.5323 -0.0616
   47MOL0     C 6221   0.895   0.908   2.086 -0.1249  0.2240 -0.2067
   47MOL0     C 6222   1.041   0.861   2.040  0.2165 -0.5987 -0.4228
   47MOL0     C 6223   1.147   0.858   2.149 -0.1056 -0.2238  0.3497
   47MOL0     C 6224   1.281   0.795   2.101  0.0531  0.1522  0.8484
   47MOL0     C 6225   1.398   0.818   2.198 -0.4696 -0.1374 -0.5390
   47MOL0     C 6226   1.485   0.940   2.153  0.3643  0.0693 -0.3136
   47MOL0     N 6227   1.403   1.062   2.133 -0.1965 -0.3999  0.3588
   47MOL0     C 6228   1.351   1.152   2.224 -0.8721 -0.1397 -0.9560
   47MOL0     C 6229   1.284   1.252   2.153  0.3443 -0.3618  0.6664
   47MOL0     C 6230   1.195   1.369   2.195 -0.2355 -0.1543  0.3009
   47MOL0     C 6231   1.058   1.311   2.240  0.6322  0.0439  0.6144
   47MOL0     C 6232   0.954   1.414   2.236  0.2323  0.7066 -0.2679
   47MOL0     C 6233   0.856   1.390   2.355 -0.2441  0.0984 -0.1925
   47MOL0     O 6234   0.797   1.509   2.407 -0.5357  0.1247 -0.4026
   47MOL0     C 6235   0.669   1.542   2.366 -0.9211 -0.0572 -0.5391
   47MOL0     C 6236   0.596   1.493   2.251 -0.1212  0.4448 -0.4224
   47MOL0     C 6237   0.472   1.542   2.210  0.0711  0.3750 -0.3908
   47MOL0     C 6238   0.414   1.485   2.078  0.2855 -0.0725  1.1079
   47MOL0     C 6239   0.416   1.643   2.279  0.3044  0.0094 -0.1446
   47MOL0     C 6240   0.281   1.696   2.243  0.4309 -0.5237 -0.0136
   47MOL0     O 6241   0.196   1.702   2.348  0.8957 -0.6496  0.6308
   47MOL0     C 6242   0.061   1.739   2.340 -0.6764  0.0689  0.0011
   47MOL0     C 6243   0.003   1.824   2.252  0.5350 -0.2877 -0.9080
   47MOL0     C 6244  -0.134   1.866   2.265 -0.2471 -0.2832 -0.5264
   47MOL0     C 6245  -0.215   1.791   2.354  1.0993 -0.2583 -0.5654
   47MOL0     O 6246  -0.345   1.829   2.384  0.3970  0.2134  0.4031
   47MOL0     C 6247  -0.392   1.951   2.324  1.0492 -0.6489 -0.1180
   47MOL0     C 6248  -0.541   1.971   2.359 -0.9840 -0.2538  0.1761
   47MOL0     C 6249  -0.556   2.014   2.506  0.6585 -0.4322  0.7780
   47MOL0     C 6250  -0.560   2.173   2.516  0.5629  0.0509 -0.2401
   47MOL0     C 6251  -0.588   2.247   2.646  0.5444  0.7480  0.1546
   47MOL0     C 6252  -0.743   2.272   2.663  0.1025 -0.0288 -0.1178
   47MOL0     C 6253  -0.765   2.359   2.790 -0.4378  0.3240  0.8737
   47MOL0     C 6254  -0.897   2.406   2.807 -0.2689  0.1574  0.5505
   47MOL0    Cl 6255  -0.892   2.581   2.864 -0.3279  0.1254 -0.2630
   47MOL0     C 6256  -0.163   1.688   2.425 -0.2380  0.8190 -0.4573
   47MOL0     C 6257  -0.025   1.672   2.423  0.3705 -0.0936  0.1238
   47MOL0     O 6258   0.261   1.743   2.136  1.0567 -0.3817  0.5018
   47MOL0     C 6259   0.471   1.679   2.399  0.9197 -0.2729  0.2863
   47MOL0     C 6260   0.592   1.631   2.443 -0.3178  0.3140  0.5895
   47MOL0     N 6261   1.302   1.217   2.020  0.6867 -0.2305  0.8780
   47MOL0     N 6262   1.372   1.107   2.009 -0.1013 -0.4276 -1.4202
   47MOL0     C 6263   0.493   1.133   2.297  0.4247  0.3303 -0.2423
   47MOL0     C 6264   0.367   1.178   2.322  0.2584  0.0996  0.1528
   47MOL0     C 6265  -0.035   1.227   2.457 -0.6610 -0.4560 -0.8726
   47MOL0     C 6266  -0.116   1.213   2.571 -0.0999  0.0985 -0.5489
   47MOL0     C 6267  -0.229   1.281   2.592  0.2525 -0.2106  0.1586
   47MOL0     C 6268  -0.273   1.372   2.491  1.1675 -0.5310  0.8129
   47MOL0     O 6269  -0.392   1.432   2.510 -1.1721 -1.0427 -0.0593
   47MOL0     C 6270  -0.465   1.491   2.395 -0.4597  0.1729  0.2245
   47MOL0     C 6271  -0.577   1.392   2.358 -0.2526  0.0164  0.2247
   47MOL0     C 6272  -0.682   1.391   2.479  0.1350 -0.2684  0.6150
   47MOL0     C 6273  -0.802   1.303   2.422 -0.3145 -0.2852  0.2429
   47MOL0     C 6274  -0.906   1.288   2.520  0.0829  0.0481  0.0123
   47MOL0     C 6275  -0.990   1.269   2.601 -0.1003 -0.5868 -0.1678
   47MOL0     C 6276  -0.188   1.394   2.381  0.5402 -0.3171  0.3382
   47MOL0     C 6277  -0.074   1.320   2.363 -0.5300 -0.1665 -0.3998
   47MOL0     H 6278   0.192   0.951   2.165  0.4883  0.3726 -1.7021
   47MOL0     H 6279   0.413   0.877   2.088 -0.5897  0.0537 -0.4781
   47MOL0     H 6280   0.633   0.789   2.281 -2.0900  4.1344  0.5687
   47MOL0     H 6281   0.636   0.802   2.107 -1.5116  2.1227  0.6118
   47MOL0     H 6282   0.892   0.863   2.284 -1.9664 -0.6604  2.1328
   47MOL0     H 6283   0.862   0.719   2.184 -2.0273 -0.2090  0.9763
   47MOL0     H 6284   0.828   0.884   2.003  0.0985  0.3464 -0.4264
   47MOL0     H 6285   0.888   1.013   2.115 -0.7688  0.5453 -1.4647
   47MOL0     H 6286   1.036   0.755   2.013 -1.9264 -1.0299  1.3771
   47MOL0     H 6287   1.067   0.917   1.949 -0.5075 -0.9757 -0.8736
   47MOL0     H 6288   1.156   0.965   2.170  0.6877  0.3250 -2.4296
   47MOL0     H 6289   1.111   0.790   2.227 -0.5826 -2.2533 -1.5552
   47MOL0     H 6290   1.269   0.686   2.094  0.8586  0.0614  0.7288
   47MOL0     H 6291   1.311   0.831   2.002 -3.5314  0.4752 -0.2624
   47MOL0     H 6292   1.361   0.821   2.301 -1.3623  0.6028 -0.8729
   47MOL0     H 6293   1.472   0.737   2.196 -0.8155 -0.5359  1.4743
   47MOL0     H 6294   1.548   0.933   2.065  0.9540  4.6532 -0.5179
   47MOL0     H 6295   1.550   0.961   2.238 -1.0041  0.2411  0.7345
   47MOL0     H 6296   1.354   1.147   2.332  0.0213 -0.3009 -0.9821
   47MOL0     H 6297   1.247   1.424   2.274  0.3495  1.7787 -1.3464
   47MOL0     H 6298   1.184   1.429   2.104  0.8726 -1.3658 -0.6595
   47MOL0     H 6299   1.078   1.264   2.336 -0.6974 -0.2494  0.7713
   47MOL0     H 6300   1.032   1.238   2.163 -0.5488  0.6057  0.4555
   47MOL0     H 6301   0.898   1.400   2.144 -1.6246  1.5335  0.6747
   47MOL0     H 6302   1.003   1.512   2.244  1.8663 -0.1436  0.6589
   47MOL0     H 6303   0.912   1.344   2.437 -0.4357 -0.0267 -0.1308
   47MOL0     H 6304   0.788   1.307   2.331 -0.7508  0.2953  0.5366
   47MOL0     H 6305   0.634   1.417   2.184  2.2223 -0.0982  1.3879
   47MOL0     H 6306   0.420   1.552   1.992  3.7383 -1.3698  0.1909
   47MOL0     H 6307   0.455   1.392   2.038 -2.1128 -1.6119  1.9921
   47MOL0     H 6308   0.307   1.470   2.097 -0.2505 -3.2434 -2.9400
   47MOL0     H 6309   0.069   1.874   2.182  1.0535  0.0667 -0.1860
   47MOL0     H 6310  -0.174   1.939   2.196  2.3139  2.4862  0.6934
   47MOL0     H 6311  -0.326   2.036   2.344 -1.0159  0.7948  0.9397
   47MOL0     H 6312  -0.392   1.932   2.217 -1.3211  1.7864 -0.6475
   47MOL0     H 6313  -0.567   2.059   2.299 -1.1584  0.4760  1.3024
   47MOL0     H 6314  -0.602   1.885   2.331 -1.4451  0.6998 -1.9500
   47MOL0     H 6315  -0.480   1.975   2.575  0.3684 -1.4585  0.5318
   47MOL0     H 6316  -0.648   1.959   2.526  0.6221 -0.4017  0.6953
   47MOL0     H 6317  -0.461   2.201   2.477  1.6234 -1.3337  1.3011
   47MOL0     H 6318  -0.627   2.205   2.436  0.6485 -2.0704 -1.2133
   47MOL0     H 6319  -0.526   2.336   2.630  4.6744 -2.2122 -2.3415
   47MOL0     H 6320  -0.538   2.199   2.730  4.8777 -0.3331 -2.6698
   47MOL0     H 6321  -0.793   2.309   2.573  0.4005  2.5333  0.6799
   47MOL0     H 6322  -0.780   2.173   2.690  0.3167  0.0591  0.5253
   47MOL0     H 6323  -0.703   2.447   2.774  0.3901 -0.5566 -1.1087
   47MOL0     H 6324  -0.733   2.299   2.876  0.0775  1.0649  1.2086
   47MOL0     H 6325  -0.955   2.334   2.865 -0.8656 -0.7613 -1.1193
   47MOL0     H 6326  -0.940   2.413   2.707  0.8672 -2.1739 -0.1768
   47MOL0     H 6327  -0.223   1.636   2.499  0.9745 -0.1044 -0.0871
   47MOL0     H 6328   0.014   1.594   2.488  0.8163 -0.2856 -0.3664
   47MOL0     H 6329   0.419   1.744   2.469 -1.3472 -1.3130 -0.3548
   47MOL0     H 6330   0.627   1.678   2.534 -0.8933 -0.4268  1.1995
   47MOL0     H 6331   0.581   1.175   2.344 -0.9852  1.5016  1.4676
   47MOL0     H 6332   0.358   1.272   2.377  2.8092 -0.3905  1.5657
   47MOL0     H 6333  -0.073   1.143   2.642  2.0079  0.3069 -1.5263
   47MOL0     H 6334  -0.275   1.247   2.685 -0.3097 -2.2008 -0.7923
   47MOL0     H 6335  -0.507   1.585   2.433  2.2589  1.4484  0.3296
   47MOL0     H 6336  -0.405   1.520   2.308  0.1238 -1.0393  0.2056
   47MOL0     H 6337  -0.532   1.293   2.342  2.9248  1.2706  0.5392
   47MOL0     H 6338  -0.630   1.421   2.267 -0.4871 -1.4215 -0.1254
   47MOL0     H 6339  -0.710   1.496   2.475  0.0142 -0.2917 -3.9063
   47MOL0     H 6340  -0.639   1.346   2.570 -0.3196 -0.5744  0.6791
   47MOL0     H 6341  -0.767   1.207   2.382 -2.2559 -1.2085  0.6557
   47MOL0     H 6342  -0.841   1.345   2.329  0.6046 -0.7607 -0.3792
   47MOL0     H 6343  -1.062   1.256   2.679  0.6435 -1.1769  0.4323
   47MOL0     H 6344  -0.211   1.458   2.296 -1.4967  0.1452  1.1591
   47MOL0     H 6345  -0.011   1.332   2.275 -0.9201 -1.0857 -0.8122
   48MOL0     O 6346   6.797   6.158   9.304  0.1668  1.3396  0.5680
   48MOL0     C 6347   6.881   6.117   9.385 -0.3343 -0.0182  0.0297
   48MOL0     O 6348   6.854   6.050   9.499  0.8570 -0.2974 -0.6935
   48MOL0     C 6349   6.732   6.055   9.563  0.3411  0.6077  0.1906
   48MOL0     C 6350   6.699   5.936   9.625 -0.2510  0.2467 -0.0152
   48MOL0     C 6351   6.579   5.926   9.705 -0.1640  0.4229  0.1307
   48MOL0     C 6352   6.490   6.025   9.717 -0.5933  0.4924  0.0593
   48MOL0     O 6353   6.370   6.000   9.783 -0.1711 -0.3412  0.3650
   48MOL0     C 6354   6.295   6.124   9.810  0.3674 -1.3147 -0.5056
   48MOL0     C 6355   6.171   6.092   9.904  0.0682 -0.3053  1.2079
   48MOL0     C 6356   6.066   6.206   9.921  0.6163 -0.2753  0.0897
   48MOL0     C 6357   5.951   6.150  10.015 -0.3280 -0.1112  0.3545
   48MOL0     C 6358   5.836   6.090   9.930  0.4131  1.0148 -0.4926
   48MOL0     C 6359   5.714   6.060  10.011  0.5515 -0.1874 -0.9349
   48MOL0     C 6360   5.588   6.042   9.927 -0.3648 -0.2792 -0.0212
   48MOL0     C 6361   5.467   6.065  10.017  0.5407 -0.8420 -0.0288
   48MOL0     N 6362   5.449   5.969  10.123 -0.2180 -0.2034  0.5409
   48MOL0     C 6363   5.338   5.886  10.131  0.4385 -0.0893  0.3309
   48MOL0     C 6364   5.345   5.825  10.258  0.3679 -0.3545  1.1287
   48MOL0     C 6365   5.234   5.731  10.297  0.1721  0.0179 -0.3927
   48MOL0     C 6366   5.117   5.805  10.355 -0.2621 -0.7001 -1.3796
   48MOL0     C 6367   5.015   5.713  10.421  0.6317  0.1452  0.3213
   48MOL0     C 6368   4.891   5.783  10.484  0.5189 -0.6396  0.2352
   48MOL0     O 6369   4.788   5.819  10.388 -0.5732 -0.7847  0.4463
   48MOL0     C 6370   4.666   5.870  10.423  0.6804  0.0403 -0.7234
   48MOL0     C 6371   4.628   5.921  10.551 -0.5456  0.8307  0.4388
   48MOL0     C 6372   4.498   5.969  10.578 -0.2848 -0.3529 -0.0189
   48MOL0     C 6373   4.456   6.016  10.723 -0.3794  0.3478  0.4383
   48MOL0     C 6374   4.409   5.977  10.475  0.3531  0.3983  0.3735
   48MOL0     C 6375   4.266   6.035  10.485 -0.2317  0.0365 -0.0221
   48MOL0     O 6376   4.213   6.067  10.362  0.0661 -0.0353 -0.0508
   48MOL0     C 6377   4.087   6.114  10.343 -0.2333 -0.0307  0.5294
   48MOL0     C 6378   4.029   6.071  10.220 -0.2881  0.5309 -0.5741
   48MOL0     C 6379   3.896   6.107  10.178  0.1259  0.1515 -0.2466
   48MOL0     C 6380   3.819   6.190  10.255  0.4659  0.7853 -1.0602
   48MOL0     O 6381   3.685   6.216  10.234  0.0555 -0.1934 -0.3346
   48MOL0     C 6382   3.612   6.136  10.141  0.4447  0.3133 -0.3570
   48MOL0     C 6383   3.469   6.192  10.143  0.1360 -0.1300 -0.0599
   48MOL0     C 6384   3.384   6.128  10.047  0.8291 -0.0820  0.0350
   48MOL0     C 6385   3.255   6.203  10.043 -0.4280 -0.5038  0.0687
   48MOL0     C 6386   3.151   6.153   9.952 -1.0064  0.4335 -0.3548
   48MOL0     C 6387   3.196   6.144   9.806 -1.3687  0.7916  0.6550
   48MOL0     C 6388   3.094   6.067   9.733  0.0605  0.0959 -0.1737
   48MOL0     C 6389   3.117   6.036   9.579  0.5148 -0.7874  0.0155
   48MOL0    Cl 6390   3.152   6.199   9.505 -0.4291 -0.3959  0.0992
   48MOL0     C 6391   3.877   6.230  10.378  0.8154 -0.3941  0.1649
   48MOL0     C 6392   3.998   6.186  10.429 -1.0061  0.4716  0.8398
   48MOL0     O 6393   4.210   6.055  10.591 -0.0991  0.6847  0.2882
   48MOL0     C 6394   4.443   5.925  10.354  0.0881  0.2597  0.3785
   48MOL0     C 6395   4.570   5.873  10.328  0.3326 -0.0614  0.8056
   48MOL0     N 6396   5.466   5.867  10.316  0.1009  0.4304  0.1841
   48MOL0     N 6397   5.526   5.952  10.238 -0.3379  0.1902  0.3441
   48MOL0     C 6398   6.522   6.143   9.652 -0.2346  0.3241 -0.6167
   48MOL0     C 6399   6.649   6.159   9.581  0.5648 -0.2598 -0.3078
   48MOL0     C 6400   7.024   6.161   9.360  0.8065  0.7970 -0.2227
   48MOL0     C 6401   7.049   6.279   9.277 -0.3782  0.8915  0.2119
   48MOL0     C 6402   7.177   6.321   9.253 -0.7310  0.3155  0.0609
   48MOL0     C 6403   7.285   6.255   9.310  0.4938  1.0558  0.3680
   48MOL0     O 6404   7.415   6.309   9.307  0.2799  0.3809  0.1573
   48MOL0     C 6405   7.445   6.412   9.396 -0.6239  0.0517 -0.5627
   48MOL0     C 6406   7.542   6.363   9.501  0.2776 -0.6294 -0.1709
   48MOL0     C 6407   7.670   6.304   9.444  0.0444  0.1509  0.0874
   48MOL0     C 6408   7.793   6.315   9.531 -0.4291  0.3576 -0.2921
   48MOL0     C 6409   7.790   6.239   9.654 -0.1041 -0.0346 -0.1764
   48MOL0     C 6410   7.801   6.176   9.753  0.6322  0.4891  0.7262
   48MOL0     C 6411   7.269   6.138   9.382 -0.6290 -0.1798 -0.8895
   48MOL0     C 6412   7.140   6.096   9.411  0.6407 -0.7328  0.5113
   48MOL0     H 6413   6.756   5.844   9.613 -0.6076 -0.0195  0.2880
   48MOL0     H 6414   6.562   5.825   9.741 -0.3718  0.1941 -0.5900
   48MOL0     H 6415   6.359   6.194   9.864 -2.8178  2.7559 -1.4639
   48MOL0     H 6416   6.254   6.161   9.716  0.4754 -3.1137 -1.3100
   48MOL0     H 6417   6.121   6.006   9.857  1.2111  0.1816 -1.0662
   48MOL0     H 6418   6.212   6.054   9.998  1.2013 -3.1093 -0.2730
   48MOL0     H 6419   6.122   6.291   9.962  2.7553 -0.4266 -2.3034
   48MOL0     H 6420   6.031   6.250   9.827  1.7013  0.7804  0.1505
   48MOL0     H 6421   5.985   6.066  10.075 -1.5775  0.3662  1.8119
   48MOL0     H 6422   5.917   6.233  10.078  1.1223  2.4137 -1.9349
   48MOL0     H 6423   5.807   6.164   9.855 -2.2844 -0.1275 -0.6721
   48MOL0     H 6424   5.867   5.999   9.879  1.9570 -1.2515  3.9388
   48MOL0     H 6425   5.730   5.972  10.073 -1.8067 -0.4073 -0.5271
   48MOL0     H 6426   5.700   6.142  10.081  0.2720 -0.4686 -0.6552
   48MOL0     H 6427   5.574   6.123   9.854 -1.9792 -0.8723 -0.4113
   48MOL0     H 6428   5.597   5.946   9.875  2.4875 -1.5253  2.4886
   48MOL0     H 6429   5.376   6.071   9.957 -0.0382 -0.5242  0.8595
   48MOL0     H 6430   5.482   6.164  10.062  0.0284  0.2791 -2.1904
   48MOL0     H 6431   5.263   5.873  10.054  1.6740 -2.9470 -0.4852
   48MOL0     H 6432   5.193   5.689  10.205 -3.5769  1.5573  0.4158
   48MOL0     H 6433   5.275   5.658  10.368 -0.6440 -2.3398 -2.2262
   48MOL0     H 6434   5.057   5.855  10.278 -3.1621 -0.2733  0.9752
   48MOL0     H 6435   5.154   5.883  10.422  0.1725 -1.9177 -0.1671
   48MOL0     H 6436   5.066   5.665  10.505 -1.3061  1.5825  2.4327
   48MOL0     H 6437   4.978   5.640  10.348 -1.1176  1.5063 -0.2005
   48MOL0     H 6438   4.916   5.863  10.554 -1.7377 -0.1690  0.5639
   48MOL0     H 6439   4.847   5.709  10.552 -2.9296 -0.3451 -1.4953
   48MOL0     H 6440   4.704   5.930  10.628  2.1240 -3.4440 -1.3527
   48MOL0     H 6441   4.414   6.117  10.726 -0.7579  0.1691  1.3162
   48MOL0     H 6442   4.389   5.941  10.765 -2.5326  1.9691  0.0322
   48MOL0     H 6443   4.544   6.006  10.788  0.2585  1.0660 -0.2906
   48MOL0     H 6444   4.084   6.010  10.148 -1.1598 -1.7678  0.5973
   48MOL0     H 6445   3.855   6.074  10.084 -0.5932  0.9293 -0.2136
   48MOL0     H 6446   3.659   6.149  10.043  2.8017  2.4043  0.9338
   48MOL0     H 6447   3.601   6.030  10.163 -1.3042  0.0888 -2.0909
   48MOL0     H 6448   3.427   6.183  10.243  1.9328  0.4433  0.7991
   48MOL0     H 6449   3.479   6.301  10.129  1.7203 -0.3773 -1.1703
   48MOL0     H 6450   3.359   6.024  10.073 -0.2065  0.3485  0.8306
   48MOL0     H 6451   3.435   6.125   9.951 -0.4116  1.5993 -0.7254
   48MOL0     H 6452   3.224   6.209  10.148  0.1333  1.5466  0.1660
   48MOL0     H 6453   3.270   6.305  10.005  0.4222 -0.8892 -0.6623
   48MOL0     H 6454   3.068   6.224   9.954  1.9353  4.2098  0.0337
   48MOL0     H 6455   3.127   6.051   9.982  1.0820 -0.4081 -1.3459
   48MOL0     H 6456   3.194   6.243   9.759  3.3491  0.5609 -0.4432
   48MOL0     H 6457   3.292   6.096   9.787 -2.0326 -0.3523  0.0896
   48MOL0     H 6458   2.993   6.098   9.758 -0.5628  0.1768 -2.5080
   48MOL0     H 6459   3.108   5.966   9.772  1.6933  1.4264  2.9827
   48MOL0     H 6460   3.040   5.979   9.528  1.4551 -0.5348 -1.7867
   48MOL0     H 6461   3.203   5.968   9.580  0.4255 -0.9349 -1.2393
   48MOL0     H 6462   3.813   6.298  10.432 -1.3737 -0.1904 -2.4494
   48MOL0     H 6463   4.027   6.235  10.521  1.8926  0.4490  0.0460
   48MOL0     H 6464   4.371   5.921  10.272  0.0256 -2.0343  0.4840
   48MOL0     H 6465   4.605   5.846  10.229  2.2518 -0.1158  1.4467
   48MOL0     H 6466   6.455   6.228   9.661 -0.2942  0.1911  0.2766
   48MOL0     H 6467   6.658   6.257   9.537  0.7534  0.3548  1.0402
   48MOL0     H 6468   6.962   6.344   9.265 -1.0187 -0.0049 -0.1447
   48MOL0     H 6469   7.194   6.412   9.196 -0.1713 -1.5524 -3.0411
   48MOL0     H 6470   7.500   6.487   9.338  0.2650 -0.0343  0.1435
   48MOL0     H 6471   7.359   6.461   9.443  0.6455  1.3585  0.4942
   48MOL0     H 6472   7.490   6.297   9.572 -1.1737  0.9724  0.3179
   48MOL0     H 6473   7.577   6.453   9.552 -1.3058  1.4855 -2.5894
   48MOL0     H 6474   7.698   6.361   9.355  1.9217  1.7171  1.5881
   48MOL0     H 6475   7.657   6.198   9.422  2.0922 -0.6337  2.2286
   48MOL0     H 6476   7.799   6.421   9.559 -1.5498  0.1116  0.9539
   48MOL0     H 6477   7.875   6.280   9.468  0.1569  0.3879  0.4288
   48MOL0     H 6478   7.798   6.114   9.841 -2.1490 -1.1238 -0.3721
   48MOL0     H 6479   7.348   6.099   9.446 -0.6569 -1.3168 -1.5189
   48MOL0     H 6480   7.132   6.002   9.464  1.0155 -0.7413  0.5549
   49MOL0     O 6481   8.559   2.205   3.681 -0.6736 -0.1556  0.2705
   49MOL0     C 6482   8.557   2.141   3.781 -0.8174 -0.4303 -0.6104
   49MOL0     O 6483   8.448   2.058   3.827 -0.3238 -0.6976  1.0477
   49MOL0     C 6484   8.341   2.058   3.751 -0.2056  0.4236 -0.5699
   49MOL0     C 6485   8.249   2.167   3.740 -0.3724  0.1500  0.6140
   49MOL0     C 6486   8.138   2.166   3.664 -0.3878  0.0735  0.1843
   49MOL0     C 6487   8.117   2.060   3.574  0.2048  0.4060 -0.2181
   49MOL0     O 6488   8.000   2.066   3.504 -0.3726 -0.2036 -0.1121
   49MOL0     C 6489   7.939   1.945   3.465 -0.5927  0.2069  0.2263
   49MOL0     C 6490   7.788   1.961   3.486 -0.1589  0.3812  0.7019
   49MOL0     C 6491   7.707   1.829   3.473  0.5061 -0.1013 -0.3278
   49MOL0     C 6492   7.571   1.859   3.511  0.3355 -0.7075 -0.3191
   49MOL0     C 6493   7.468   1.746   3.504  0.1706  0.1313  0.0092
   49MOL0     C 6494   7.473   1.680   3.365 -0.6979 -0.4082 -0.0626
   49MOL0     C 6495   7.359   1.588   3.347  0.1757  0.1999  0.2333
   49MOL0     C 6496   7.375   1.486   3.230 -0.8984 -0.8837  0.3915
   49MOL0     N 6497   7.340   1.546   3.102  0.0101 -0.4539  0.0633
   49MOL0     C 6498   7.409   1.651   3.036  0.2793  0.0656 -0.3228
   49MOL0     C 6499   7.319   1.689   2.937  0.1153 -0.6250  0.1031
   49MOL0     C 6500   7.350   1.799   2.840 -1.2701 -0.5207  0.2476
   49MOL0     C 6501   7.222   1.844   2.758  0.6344 -0.0899  0.5731
   49MOL0     C 6502   7.129   1.928   2.856  0.2165 -0.2793 -0.7534
   49MOL0     C 6503   6.992   1.969   2.802  0.3509 -0.0745 -0.4352
   49MOL0     O 6504   6.936   1.850   2.750 -1.1388  1.2870  0.0062
   49MOL0     C 6505   6.816   1.846   2.684 -0.4015  0.1308  0.1432
   49MOL0     C 6506   6.735   1.950   2.667 -0.5693 -0.0753  0.3761
   49MOL0     C 6507   6.614   1.944   2.604  0.4517  0.9204  0.4714
   49MOL0     C 6508   6.520   2.062   2.598  0.0639  0.5628  1.0243
   49MOL0     C 6509   6.569   1.816   2.553 -0.2182  0.6495 -0.0662
   49MOL0     C 6510   6.447   1.801   2.477 -0.0536  0.1055  0.5768
   49MOL0     O 6511   6.339   1.775   2.553 -0.3429 -0.4763  0.2188
   49MOL0     C 6512   6.230   1.720   2.493  0.1174 -0.4746 -0.8716
   49MOL0     C 6513   6.145   1.798   2.411  0.2877  0.6071 -0.0340
   49MOL0     C 6514   6.026   1.742   2.356  0.0766  1.0638 -0.1880
   49MOL0     C 6515   6.002   1.602   2.364  0.2221 -0.0700  0.1609
   49MOL0     O 6516   5.894   1.540   2.296  0.2416 -0.1590 -0.6873
   49MOL0     C 6517   5.830   1.603   2.176 -0.4567 -0.4811 -1.0136
   49MOL0     C 6518   5.695   1.672   2.201  0.5287 -0.4085  0.1690
   49MOL0     C 6519   5.606   1.696   2.080 -0.3842  1.0656  0.6076
   49MOL0     C 6520   5.462   1.668   2.098  0.5581  0.4103  0.3084
   49MOL0     C 6521   5.375   1.692   1.969 -0.4738 -0.4707 -0.6886
   49MOL0     C 6522   5.225   1.703   1.998  0.0916 -0.0621  0.6223
   49MOL0     C 6523   5.135   1.739   1.877  0.1287  0.3742 -0.4600
   49MOL0     C 6524   4.991   1.740   1.917  0.2262  1.1489  0.6904
   49MOL0    Cl 6525   4.941   1.886   2.001 -0.2283 -0.1332 -0.4406
   49MOL0     C 6526   6.083   1.527   2.448  0.0730 -0.2560  0.0525
   49MOL0     C 6527   6.187   1.585   2.513 -0.5857 -0.6174 -0.2879
   49MOL0     O 6528   6.457   1.800   2.354  0.3208 -0.4405 -0.1416
   49MOL0     C 6529   6.655   1.704   2.559 -0.6301 -0.6659 -0.3130
   49MOL0     C 6530   6.779   1.725   2.625 -0.2444  0.3062 -0.6085
   49MOL0     N 6531   7.213   1.609   2.943  0.2312  0.2845 -0.1021
   49MOL0     N 6532   7.226   1.522   3.040 -0.3325 -0.1080  0.2703
   49MOL0     C 6533   8.217   1.959   3.574  0.3529 -0.9337  0.0671
   49MOL0     C 6534   8.319   1.949   3.669 -0.0791 -0.1203 -0.5042
   49MOL0     C 6535   8.676   2.147   3.882  0.6652 -0.5215  0.1827
   49MOL0     C 6536   8.664   2.110   4.023 -0.5925  0.0802  0.1645
   49MOL0     C 6537   8.781   2.119   4.099  0.1935 -0.1353 -1.1203
   49MOL0     C 6538   8.898   2.177   4.060 -0.1829 -0.1076  0.4459
   49MOL0     O 6539   9.002   2.187   4.145  0.3811  0.0072  0.5252
   49MOL0     C 6540   9.006   2.282   4.253 -0.3192 -0.2401 -0.3598
   49MOL0     C 6541   9.113   2.392   4.212 -0.4631 -0.6249  0.4426
   49MOL0     C 6542   9.057   2.496   4.109  0.4145  0.2055 -0.0928
   49MOL0     C 6543   9.099   2.641   4.122  1.4321  0.3692 -0.1178
   49MOL0     C 6544   9.242   2.646   4.120  0.1383 -0.7360 -0.4072
   49MOL0     C 6545   9.360   2.644   4.134 -0.0278 -0.2883 -0.3113
   49MOL0     C 6546   8.909   2.208   3.925 -0.1279 -0.1800 -0.5092
   49MOL0     C 6547   8.798   2.195   3.839  0.4883 -0.4293 -0.2206
   49MOL0     H 6548   8.255   2.264   3.789 -1.2186 -0.7122  2.5138
   49MOL0     H 6549   8.071   2.252   3.665 -0.6290 -0.0489 -1.4313
   49MOL0     H 6550   7.958   1.927   3.359 -1.5820  2.3795 -0.3816
   49MOL0     H 6551   7.975   1.853   3.512 -3.0794 -0.6462  0.6542
   49MOL0     H 6552   7.774   2.005   3.585 -0.0589  2.0541  0.0009
   49MOL0     H 6553   7.757   2.030   3.407  0.4061  0.4869  0.5673
   49MOL0     H 6554   7.714   1.795   3.369 -2.1161  3.0356 -1.6957
   49MOL0     H 6555   7.740   1.755   3.546 -2.4108  0.8123  2.1152
   49MOL0     H 6556   7.568   1.909   3.609 -0.5652 -0.3444 -0.5164
   49MOL0     H 6557   7.544   1.942   3.445 -2.8319 -0.0307  1.5948
   49MOL0     H 6558   7.495   1.674   3.582  0.3713 -0.9983 -1.0687
   49MOL0     H 6559   7.367   1.787   3.515  1.7991  4.2588  1.6324
   49MOL0     H 6560   7.461   1.754   3.284  1.3710  1.8461  1.5399
   49MOL0     H 6561   7.564   1.623   3.346 -1.3540 -0.8302 -2.1842
   49MOL0     H 6562   7.352   1.527   3.438 -2.7606 -2.8294 -1.8069
   49MOL0     H 6563   7.264   1.642   3.344 -0.8275 -1.5398 -1.6053
   49MOL0     H 6564   7.303   1.405   3.244 -1.7346 -0.3029 -0.4080
   49MOL0     H 6565   7.477   1.447   3.222  0.1882  1.9769 -0.9447
   49MOL0     H 6566   7.502   1.698   3.066  2.0532 -4.0712  1.4420
   49MOL0     H 6567   7.401   1.880   2.893 -0.7024 -0.7750  0.0914
   49MOL0     H 6568   7.426   1.756   2.775  1.0837  1.1782  1.7051
   49MOL0     H 6569   7.169   1.756   2.720  2.0781 -0.6365 -0.2682
   49MOL0     H 6570   7.274   1.887   2.672  1.8698  1.1877  1.8812
   49MOL0     H 6571   7.185   2.020   2.874  1.5158 -1.1529 -0.1853
   49MOL0     H 6572   7.127   1.885   2.957 -3.3424  0.2309 -0.4729
   49MOL0     H 6573   7.006   2.046   2.726 -0.6037  0.2747 -0.2718
   49MOL0     H 6574   6.946   2.017   2.889  0.8672 -0.0037 -0.1993
   49MOL0     H 6575   6.773   2.047   2.700 -1.2023 -0.9120  4.1150
   49MOL0     H 6576   6.548   2.125   2.513  1.4144 -3.8351 -2.1373
   49MOL0     H 6577   6.422   2.026   2.564  2.4799 -3.1206 -3.0205
   49MOL0     H 6578   6.516   2.098   2.702  0.5603 -0.7952  1.5361
   49MOL0     H 6579   6.160   1.905   2.403 -1.4364  0.7843 -1.6203
   49MOL0     H 6580   5.949   1.804   2.313 -1.4520 -0.2220  0.5795
   49MOL0     H 6581   5.895   1.685   2.142  0.1864  0.8141  2.8819
   49MOL0     H 6582   5.812   1.526   2.100 -0.1914  0.5073 -2.1245
   49MOL0     H 6583   5.642   1.610   2.275  1.0350  0.6904  1.4969
   49MOL0     H 6584   5.709   1.767   2.254  3.3126  0.1518 -1.3815
   49MOL0     H 6585   5.642   1.618   2.012 -0.5513  0.3806  1.2863
   49MOL0     H 6586   5.626   1.794   2.036 -1.3803  1.4681  1.0213
   49MOL0     H 6587   5.442   1.567   2.136 -0.4291  0.3513 -0.3359
   49MOL0     H 6588   5.434   1.738   2.178  1.9150  2.0478 -0.5895
   49MOL0     H 6589   5.393   1.603   1.907  1.8233  1.0940 -2.4500
   49MOL0     H 6590   5.392   1.782   1.909 -2.5957 -0.0556 -0.7545
   49MOL0     H 6591   5.194   1.605   2.035 -3.6227  0.1287 -1.5657
   49MOL0     H 6592   5.206   1.773   2.080  0.1261  0.0386  0.5445
   49MOL0     H 6593   5.157   1.662   1.802 -2.0475  0.6162 -1.4149
   49MOL0     H 6594   5.171   1.831   1.831  4.6862 -2.5350 -3.5525
   49MOL0     H 6595   4.963   1.659   1.985  1.6187  1.2384  1.4126
   49MOL0     H 6596   4.938   1.731   1.822  3.3500  1.8635 -1.2738
   49MOL0     H 6597   6.065   1.420   2.451  0.0530 -0.5668 -4.2399
   49MOL0     H 6598   6.240   1.534   2.593 -0.9224 -0.6736 -0.1000
   49MOL0     H 6599   6.635   1.604   2.524  1.5408 -1.5812  0.8791
   49MOL0     H 6600   6.849   1.642   2.629  0.0093  0.4952 -1.0010
   49MOL0     H 6601   8.205   1.877   3.504 -2.4587 -1.4545  1.0261
   49MOL0     H 6602   8.381   1.860   3.662 -0.3176 -0.3686  0.3730
   49MOL0     H 6603   8.572   2.077   4.069 -1.1291  1.8537  0.4696
   49MOL0     H 6604   8.773   2.099   4.205 -0.7039  2.9253 -0.5002
   49MOL0     H 6605   8.906   2.316   4.282  0.1507  0.0006  1.0492
   49MOL0     H 6606   9.044   2.236   4.344  0.9595  2.3166  0.5013
   49MOL0     H 6607   9.208   2.354   4.175  0.6642  0.0670  2.4787
   49MOL0     H 6608   9.146   2.441   4.304 -0.8267 -0.5118  0.5133
   49MOL0     H 6609   8.949   2.493   4.124  0.4400 -1.5969  0.0388
   49MOL0     H 6610   9.070   2.463   4.005 -0.8477 -1.5026  0.2442
   49MOL0     H 6611   9.064   2.670   4.221  0.0737 -0.9806 -0.1618
   49MOL0     H 6612   9.043   2.709   4.057 -1.8417  1.4135  3.4181
   49MOL0     H 6613   9.466   2.655   4.137 -0.2575  2.5167  0.1220
   49MOL0     H 6614   9.001   2.238   3.876 -0.3635 -0.5881 -1.2198
   49MOL0     H 6615   8.803   2.240   3.741  0.9815  0.8346  0.3609
   50MOL0     O 6616  10.966  10.894   3.205 -0.2701 -0.1970 -0.4015
   50MOL0     C 6617  11.036  10.812   3.262  0.0941  0.6421 -0.1947
   50MOL0     O 6618  10.997  10.719   3.358  0.1681  0.2338  0.2020
   50MOL0     C 6619  10.868  10.722   3.407 -0.7412  0.6299  0.7747
   50MOL0     C 6620  10.798  10.602   3.414 -0.6295 -1.1569  0.2654
   50MOL0     C 6621  10.670  10.604   3.472 -0.3032 -0.1313  0.7506
   50MOL0     C 6622  10.608  10.719   3.515  0.4878 -0.4918 -0.5759
   50MOL0     O 6623  10.481  10.721   3.558 -0.2882 -0.2789 -0.0370
   50MOL0     C 6624  10.434  10.611   3.639  0.1464 -0.5082 -0.2299
   50MOL0     C 6625  10.309  10.651   3.715  0.2135 -0.3448  0.5888
   50MOL0     C 6626  10.221  10.537   3.785  0.0374 -0.9082 -0.0344
   50MOL0     C 6627  10.308  10.463   3.889 -0.1716  0.0540 -0.4477
   50MOL0     C 6628  10.232  10.381   3.992  0.0067 -0.1493  0.0904
   50MOL0     C 6629  10.134  10.287   3.930  0.9216 -0.1527 -0.8135
   50MOL0     C 6630  10.049  10.215   4.040 -0.4019  1.1227 -0.3861
   50MOL0     C 6631   9.983  10.084   3.999 -0.0054  0.5478  0.1688
   50MOL0     N 6632   9.846  10.052   4.053 -0.4786 -0.8965  0.3014
   50MOL0     C 6633   9.810  10.038   4.183  0.8168  0.2464 -0.6714
   50MOL0     C 6634   9.675  10.010   4.181 -0.1245  0.4070 -0.1685
   50MOL0     C 6635   9.593   9.967   4.299 -0.1774 -0.4670  0.2294
   50MOL0     C 6636   9.477  10.055   4.319  0.2427  0.5203 -0.5478
   50MOL0     C 6637   9.398  10.052   4.460 -0.3677  0.4524  0.0482
   50MOL0     C 6638   9.258  10.105   4.452 -0.1016 -0.4510 -0.0318
   50MOL0     O 6639   9.162  10.024   4.381 -0.2450  0.4166  0.4719
   50MOL0     C 6640   9.039  10.078   4.363 -0.4081 -0.5333 -0.2812
   50MOL0     C 6641   8.920  10.000   4.384 -0.1953  0.5435  0.0555
   50MOL0     C 6642   8.788  10.048   4.355 -0.0906  0.1808 -0.5193
   50MOL0     C 6643   8.674   9.959   4.405 -0.0301 -0.4197 -0.6415
   50MOL0     C 6644   8.772  10.178   4.312  0.0329 -0.4443  0.7382
   50MOL0     C 6645   8.642  10.251   4.294 -1.0290 -0.1164  0.3322
   50MOL0     O 6646   8.531  10.177   4.265  0.0330  0.4958  0.3826
   50MOL0     C 6647   8.404  10.231   4.279 -0.1593 -0.8940  0.6287
   50MOL0     C 6648   8.370  10.351   4.210 -0.1072 -0.5132 -0.3363
   50MOL0     C 6649   8.238  10.398   4.206 -0.1768 -0.0654 -0.2902
   50MOL0     C 6650   8.141  10.334   4.282 -0.3599  0.0218 -0.4908
   50MOL0     O 6651   8.023  10.403   4.296  0.1177 -0.7034 -0.4164
   50MOL0     C 6652   7.934  10.385   4.181 -0.2714 -0.9315  0.1709
   50MOL0     C 6653   7.815  10.484   4.188 -1.0664  0.0693 -0.5562
   50MOL0     C 6654   7.705  10.439   4.287  0.2634  0.1235 -0.0537
   50MOL0     C 6655   7.732  10.461   4.433 -0.5733 -0.0465  0.0022
   50MOL0     C 6656   7.736  10.331   4.509 -0.6065 -1.2689  0.5560
   50MOL0     C 6657   7.766  10.364   4.660  0.3344  0.7337  0.5343
   50MOL0     C 6658   7.648  10.428   4.724 -0.4636  0.2572  0.1146
   50MOL0     C 6659   7.653  10.417   4.876 -0.6053 -0.1660 -0.1161
   50MOL0    Cl 6660   7.568  10.266   4.934  0.2567  0.0157 -0.3817
   50MOL0     C 6661   8.170  10.210   4.339 -0.1474  0.2470 -0.5351
   50MOL0     C 6662   8.293  10.156   4.330 -0.6273 -0.4732 -0.2124
   50MOL0     O 6663   8.646  10.375   4.306  0.1395  0.4025 -0.0076
   50MOL0     C 6664   8.891  10.257   4.314 -0.1348 -0.5974 -0.7583
   50MOL0     C 6665   9.021  10.215   4.328 -0.7123  0.4968 -0.7964
   50MOL0     N 6666   9.634  10.014   4.055  0.4577  0.8946  0.3265
   50MOL0     N 6667   9.731  10.042   3.979 -0.6464  0.5531 -0.2612
   50MOL0     C 6668  10.679  10.842   3.501  1.0550  0.5615 -0.2252
   50MOL0     C 6669  10.811  10.842   3.458 -0.0963 -0.7194 -0.3587
   50MOL0     C 6670  11.182  10.821   3.239 -1.1102  0.6570  0.0595
   50MOL0     C 6671  11.235  10.918   3.157 -0.2389 -0.8601 -0.4135
   50MOL0     C 6672  11.378  10.942   3.144 -0.1766 -0.3723 -0.0519
   50MOL0     C 6673  11.465  10.864   3.216 -0.0376  0.2479 -0.2552
   50MOL0     O 6674  11.600  10.887   3.194 -0.1691  0.6276 -1.3104
   50MOL0     C 6675  11.685  10.783   3.245 -0.4467 -0.4118  0.0332
   50MOL0     C 6676  11.682  10.655   3.161  0.5108  0.5018 -0.0981
   50MOL0     C 6677  11.717  10.682   3.014  0.4545 -0.3144  0.3602
   50MOL0     C 6678  11.741  10.546   2.949  0.3634 -0.6844  0.8377
   50MOL0     C 6679  11.798  10.557   2.812  0.1382  0.1687  0.4820
   50MOL0     C 6680  11.842  10.563   2.701  0.4278 -0.6320  0.1017
   50MOL0     C 6681  11.409  10.762   3.304 -0.0392  0.1278  0.4966
   50MOL0     C 6682  11.272  10.742   3.314 -0.7908  0.1950  0.5426
   50MOL0     H 6683  10.834  10.506   3.376 -0.2174 -2.1862  3.0083
   50MOL0     H 6684  10.611  10.515   3.448 -1.1283  0.7664 -0.7224
   50MOL0     H 6685  10.414  10.520   3.582 -0.6863  0.2538 -1.2044
   50MOL0     H 6686  10.510  10.588   3.714  0.3820  0.7269 -0.0679
   50MOL0     H 6687  10.343  10.726   3.788  1.2499  0.0426 -0.2670
   50MOL0     H 6688  10.240  10.701   3.647 -0.4923 -2.5195 -0.3649
   50MOL0     H 6689  10.130  10.581   3.825 -1.0442 -4.4645  1.8827
   50MOL0     H 6690  10.201  10.467   3.703 -0.1906  0.3002 -1.0270
   50MOL0     H 6691  10.387  10.404   3.843  2.0111  4.1303 -2.5573
   50MOL0     H 6692  10.366  10.542   3.939 -0.5797  1.4062 -1.9953
   50MOL0     H 6693  10.298  10.321   4.054 -0.1760 -0.6327 -0.1748
   50MOL0     H 6694  10.175  10.456   4.049 -1.7496 -0.4433 -1.1919
   50MOL0     H 6695  10.066  10.341   3.863 -0.8674 -1.9877 -0.5889
   50MOL0     H 6696  10.183  10.221   3.858  1.5672 -1.0783  0.4342
   50MOL0     H 6697  10.099  10.207   4.137 -1.5004  0.9406  0.1810
   50MOL0     H 6698   9.964  10.281   4.061 -0.8382  1.2225 -2.2224
   50MOL0     H 6699  10.049   9.998   4.018 -2.4695 -1.1902  1.3439
   50MOL0     H 6700   9.969  10.088   3.891 -0.1356  2.1508  0.2254
   50MOL0     H 6701   9.866  10.041   4.276 -1.2890 -0.9201  0.7047
   50MOL0     H 6702   9.561   9.866   4.273 -0.2048 -0.4604  0.2380
   50MOL0     H 6703   9.657   9.970   4.388 -0.5311  0.8219  0.4684
   50MOL0     H 6704   9.410  10.013   4.243 -1.1646 -1.0923  1.4774
   50MOL0     H 6705   9.510  10.157   4.298  0.9434  1.5221  4.1986
   50MOL0     H 6706   9.458  10.107   4.534  0.7161 -1.1395  0.4110
   50MOL0     H 6707   9.401   9.946   4.486 -0.5889  0.2586 -0.7027
   50MOL0     H 6708   9.263  10.207   4.411  2.1400 -0.1149  0.9360
   50MOL0     H 6709   9.212  10.126   4.549  0.3500  2.0972 -0.2943
   50MOL0     H 6710   8.948   9.896   4.397  1.2474  0.5941 -2.0720
   50MOL0     H 6711   8.597  10.002   4.469  0.2668  0.3357 -0.7864
   50MOL0     H 6712   8.630   9.915   4.315  1.1842  0.3582 -1.6515
   50MOL0     H 6713   8.710   9.868   4.454  4.2404  0.1082 -2.3224
   50MOL0     H 6714   8.438  10.411   4.151 -3.4263  2.3054 -1.6743
   50MOL0     H 6715   8.207  10.486   4.151 -1.6353 -1.8124 -2.4609
   50MOL0     H 6716   7.991  10.413   4.092 -1.1040  1.5014  0.3321
   50MOL0     H 6717   7.881  10.290   4.172 -1.1962 -0.5462  1.2903
   50MOL0     H 6718   7.850  10.586   4.208  0.9079 -0.3792 -1.4338
   50MOL0     H 6719   7.769  10.492   4.089 -0.8819 -1.2882 -0.7715
   50MOL0     H 6720   7.667  10.338   4.267  3.0292 -0.6504 -1.8924
   50MOL0     H 6721   7.616  10.498   4.262 -0.6587 -2.3027 -3.1662
   50MOL0     H 6722   7.820  10.523   4.451 -1.2419  0.4545  1.7100
   50MOL0     H 6723   7.655  10.523   4.480  1.3299  0.1911  3.0912
   50MOL0     H 6724   7.818  10.268   4.472 -3.0583 -2.3099 -3.7275
   50MOL0     H 6725   7.648  10.268   4.497 -0.5800 -0.9585 -1.5522
   50MOL0     H 6726   7.806  10.274   4.707 -0.3953  0.3034  0.3376
   50MOL0     H 6727   7.852  10.432   4.654  0.5622  0.6510  2.4618
   50MOL0     H 6728   7.557  10.376   4.692 -0.6910  0.0630  1.0438
   50MOL0     H 6729   7.624  10.526   4.681 -1.4597 -0.7744 -1.8508
   50MOL0     H 6730   7.617  10.507   4.927 -0.9529 -1.6936  2.4988
   50MOL0     H 6731   7.757  10.411   4.912 -1.4103 -1.5859  2.1900
   50MOL0     H 6732   8.095  10.144   4.380  0.2962 -1.4183 -2.2570
   50MOL0     H 6733   8.304  10.056   4.370 -2.5407  0.3241  2.6049
   50MOL0     H 6734   8.882  10.363   4.289 -2.1796 -0.4839  0.2156
   50MOL0     H 6735   9.096  10.292   4.311 -1.5810  1.6583  0.4299
   50MOL0     H 6736  10.627  10.932   3.531 -0.4786 -0.2257 -0.3933
   50MOL0     H 6737  10.845  10.945   3.460  2.7466 -1.5709 -0.6497
   50MOL0     H 6738  11.172  10.988   3.102  0.5095 -0.4942 -0.8325
   50MOL0     H 6739  11.415  11.029   3.091 -0.4294  0.6416  1.3566
   50MOL0     H 6740  11.788  10.819   3.239 -0.2537 -0.2621  2.9448
   50MOL0     H 6741  11.671  10.766   3.352 -2.9040 -0.8469 -0.3053
   50MOL0     H 6742  11.585  10.605   3.168 -0.6350  2.6243 -0.1098
   50MOL0     H 6743  11.765  10.596   3.201  1.7034 -0.3767 -3.5005
   50MOL0     H 6744  11.807  10.744   3.009 -0.5081  1.0594 -0.7732
   50MOL0     H 6745  11.639  10.746   2.971  2.0905  2.9436  1.9117
   50MOL0     H 6746  11.653  10.481   2.942  1.8481 -2.6561 -0.9493
   50MOL0     H 6747  11.821  10.488   2.995  1.5155 -0.6476 -1.0051
   50MOL0     H 6748  11.875  10.560   2.599 -0.3255  0.9641 -0.2179
   50MOL0     H 6749  11.472  10.691   3.358 -0.8610 -0.9785  0.0377
   50MOL0     H 6750  11.240  10.659   3.377  0.3295 -1.3092 -0.8003
   51MOL0     O 6751   9.969   4.834   8.596  0.3372 -0.0836 -0.3977
   51MOL0     C 6752  10.036   4.934   8.587 -0.8935  1.0292 -0.8214
   51MOL0     O 6753  10.165   4.940   8.579 -0.5067  0.2759  0.0216
   51MOL0     C 6754  10.232   4.824   8.548  0.5668 -0.6680  0.3142
   51MOL0     C 6755  10.320   4.763   8.640  0.4190  1.1758  0.0422
   51MOL0     C 6756  10.395   4.655   8.600 -0.8003  0.3788  0.0914
   51MOL0     C 6757  10.409   4.617   8.456  0.2054 -0.3568 -0.0327
   51MOL0     O 6758  10.495   4.516   8.425 -0.0727  0.5373 -0.2770
   51MOL0     C 6759  10.459   4.444   8.301 -0.3173 -0.3456  0.7872
   51MOL0     C 6760  10.546   4.326   8.289  0.8306 -0.0119  0.3825
   51MOL0     C 6761  10.698   4.360   8.305  0.6269 -0.6329  0.7128
   51MOL0     C 6762  10.764   4.225   8.293  0.3378 -0.8243  0.3784
   51MOL0     C 6763  10.918   4.236   8.313  0.3425 -1.0456  0.2016
   51MOL0     C 6764  10.981   4.097   8.298 -1.2994 -0.7923 -0.1385
   51MOL0     C 6765  11.132   4.113   8.294  0.3705  0.3827 -0.6166
   51MOL0     C 6766  11.195   3.975   8.284 -0.1477  0.3469  0.4789
   51MOL0     N 6767  11.167   3.879   8.394 -0.9627 -0.4033  0.3078
   51MOL0     C 6768  11.175   3.913   8.526 -0.9940  0.2833 -0.3145
   51MOL0     C 6769  11.171   3.799   8.602  0.1056 -0.3253 -0.0754
   51MOL0     C 6770  11.161   3.796   8.745 -0.4677  0.7304  0.2466
   51MOL0     C 6771  11.024   3.770   8.795 -0.0948  0.1044 -0.1737
   51MOL0     C 6772  11.020   3.720   8.944  0.1177 -0.2618 -0.4510
   51MOL0     C 6773  11.059   3.832   9.041  1.1108  0.7077  0.0929
   51MOL0     O 6774  11.021   3.824   9.179 -1.0110 -0.1462  0.0333
   51MOL0     C 6775  10.891   3.800   9.205  0.3460  0.1204  0.2346
   51MOL0     C 6776  10.787   3.831   9.113 -0.0863 -0.0533  0.1086
   51MOL0     C 6777  10.654   3.807   9.141 -0.2983  0.3113  0.8355
   51MOL0     C 6778  10.556   3.844   9.029 -0.8676  0.2885  0.3046
   51MOL0     C 6779  10.612   3.743   9.263  0.1396 -0.1099 -0.2245
   51MOL0     C 6780  10.479   3.690   9.303 -0.6894  0.5602  0.3651
   51MOL0     O 6781  10.387   3.671   9.202 -0.4136  0.2579 -0.8033
   51MOL0     C 6782  10.274   3.598   9.219  0.0781 -0.1040 -0.4636
   51MOL0     C 6783  10.249   3.495   9.318  0.8975  0.4163 -0.8273
   51MOL0     C 6784  10.122   3.434   9.321  0.3224 -0.4909 -0.8777
   51MOL0     C 6785  10.030   3.465   9.223 -0.7595  0.6560  0.3468
   51MOL0     O 6786   9.903   3.414   9.209  0.2297  0.6405  0.1367
   51MOL0     C 6787   9.840   3.342   9.323  0.6367  0.6747 -0.0611
   51MOL0     C 6788   9.695   3.344   9.293 -0.2456  0.5929 -0.0879
   51MOL0     C 6789   9.641   3.481   9.290  0.3282 -0.1492 -0.2835
   51MOL0     C 6790   9.491   3.489   9.235 -1.1931  0.0452  0.0398
   51MOL0     C 6791   9.434   3.635   9.242  0.4104  0.8628 -0.2202
   51MOL0     C 6792   9.288   3.626   9.180  0.8966  0.0453 -0.0074
   51MOL0     C 6793   9.190   3.618   9.288  0.4513 -0.3414 -0.7019
   51MOL0     C 6794   9.041   3.615   9.246 -0.8629 -0.2100 -0.2205
   51MOL0    Cl 6795   9.018   3.438   9.222 -0.0989  0.3674  0.0907
   51MOL0     C 6796  10.059   3.565   9.136 -0.1277 -0.4862  1.1350
   51MOL0     C 6797  10.179   3.625   9.131  0.7796  0.1284  0.2812
   51MOL0     O 6798  10.447   3.696   9.419 -0.3576 -0.4306 -0.7264
   51MOL0     C 6799  10.717   3.720   9.356 -0.5345  0.1831 -0.7967
   51MOL0     C 6800  10.855   3.740   9.324  0.1218  0.1466 -0.0009
   51MOL0     N 6801  11.168   3.699   8.509 -0.1629  0.5701  0.3787
   51MOL0     N 6802  11.162   3.740   8.387 -0.4184 -0.4730 -0.4983
   51MOL0     C 6803  10.311   4.675   8.366 -0.9476 -0.8303 -0.9895
   51MOL0     C 6804  10.222   4.773   8.416  0.4011  0.4390  0.1623
   51MOL0     C 6805   9.962   5.056   8.567  0.0365  0.4124  0.4687
   51MOL0     C 6806   9.830   5.070   8.628 -0.5009 -1.2334 -0.0648
   51MOL0     C 6807   9.752   5.191   8.622 -0.3143 -0.5411  0.3278
   51MOL0     C 6808   9.802   5.308   8.555 -0.7380  0.0140  0.1386
   51MOL0     O 6809   9.729   5.420   8.562  0.3189  0.3151 -0.2620
   51MOL0     C 6810   9.780   5.517   8.466  0.0834 -0.8514 -0.0340
   51MOL0     C 6811   9.687   5.639   8.475  0.0072 -0.6071  0.5170
   51MOL0     C 6812   9.568   5.637   8.390  0.7820 -0.4304  0.1365
   51MOL0     C 6813   9.491   5.771   8.400  1.1233 -0.3809  0.1004
   51MOL0     C 6814   9.409   5.801   8.290  0.2370 -0.0827 -0.1305
   51MOL0     C 6815   9.347   5.805   8.187 -0.5553 -0.0363  1.0592
   51MOL0     C 6816   9.924   5.285   8.489 -0.3931 -0.1304  0.8096
   51MOL0     C 6817  10.001   5.168   8.490 -0.3991 -0.8814  0.6083
   51MOL0     H 6818  10.322   4.791   8.745 -1.7674  4.4337 -0.6322
   51MOL0     H 6819  10.476   4.612   8.658 -1.6301 -2.3188 -0.5994
   51MOL0     H 6820  10.355   4.409   8.298 -0.2420 -0.5490  0.4858
   51MOL0     H 6821  10.463   4.513   8.215 -0.6216 -0.0359  1.0200
   51MOL0     H 6822  10.516   4.260   8.372 -3.7668  1.2910  0.0433
   51MOL0     H 6823  10.523   4.286   8.190  0.7778  1.0058 -0.0233
   51MOL0     H 6824  10.736   4.429   8.229 -0.4172 -0.3762  0.4082
   51MOL0     H 6825  10.715   4.411   8.401 -0.3342 -0.9355  1.0482
   51MOL0     H 6826  10.724   4.156   8.367  1.2489 -1.8819 -0.0843
   51MOL0     H 6827  10.742   4.185   8.194  1.3088 -0.4305 -0.0087
   51MOL0     H 6828  10.971   4.305   8.249  2.1075  1.2489  3.8288
   51MOL0     H 6829  10.938   4.278   8.412  1.0272 -0.7123 -0.0769
   51MOL0     H 6830  10.958   4.026   8.379  1.5878 -2.2667 -0.4914
   51MOL0     H 6831  10.946   4.054   8.204 -1.7379 -1.4688  0.3234
   51MOL0     H 6832  11.149   4.175   8.206  0.4886  0.1893 -0.7318
   51MOL0     H 6833  11.177   4.155   8.384  0.7274  1.3624 -1.2423
   51MOL0     H 6834  11.302   3.995   8.297 -0.2886 -0.3401  3.7948
   51MOL0     H 6835  11.189   3.931   8.184  1.9999  1.0078 -0.0006
   51MOL0     H 6836  11.183   4.014   8.565  3.2524 -0.3835  1.0825
   51MOL0     H 6837  11.218   3.715   8.791 -3.2168 -2.5070 -1.5672
   51MOL0     H 6838  11.190   3.890   8.794 -3.7847  0.7362  2.5456
   51MOL0     H 6839  10.975   3.688   8.742 -1.6495 -0.5043  2.0478
   51MOL0     H 6840  10.961   3.858   8.781 -0.0327  0.3213  0.8199
   51MOL0     H 6841  11.086   3.638   8.974 -1.0386  0.0013  3.4170
   51MOL0     H 6842  10.919   3.680   8.958 -1.4836  3.1643 -1.0436
   51MOL0     H 6843  11.037   3.931   9.000  0.4606  0.4961 -0.0969
   51MOL0     H 6844  11.168   3.828   9.048  1.2288  0.3535 -1.5794
   51MOL0     H 6845  10.818   3.877   9.019  0.0386 -0.6809 -0.1661
   51MOL0     H 6846  10.560   3.762   8.957 -2.5249  1.5102 -1.2959
   51MOL0     H 6847  10.452   3.834   9.062 -0.4538 -2.4322  1.0103
   51MOL0     H 6848  10.570   3.937   8.973  1.6469 -0.4469 -0.3926
   51MOL0     H 6849  10.325   3.484   9.395  0.8034  3.6155 -0.1548
   51MOL0     H 6850  10.099   3.367   9.403 -1.6849  0.2992 -0.7324
   51MOL0     H 6851   9.877   3.239   9.314  4.6960  1.9633 -0.5722
   51MOL0     H 6852   9.861   3.385   9.421  0.7960  2.5522 -0.8745
   51MOL0     H 6853   9.655   3.300   9.202 -4.5886 -1.4174  2.4585
   51MOL0     H 6854   9.646   3.283   9.370  0.3632  0.7197  0.4088
   51MOL0     H 6855   9.698   3.553   9.231 -0.4401  2.3379  1.8117
   51MOL0     H 6856   9.647   3.521   9.392  0.6819 -3.3450  1.0391
   51MOL0     H 6857   9.499   3.467   9.129 -2.1730  1.5440 -0.3879
   51MOL0     H 6858   9.419   3.422   9.285 -0.3923  0.0705  1.2773
   51MOL0     H 6859   9.491   3.687   9.164  2.8926 -1.3116  0.0315
   51MOL0     H 6860   9.440   3.683   9.340  3.3834 -0.9151  0.5778
   51MOL0     H 6861   9.270   3.720   9.127  2.9579  0.4525 -0.0717
   51MOL0     H 6862   9.271   3.547   9.107  3.1927  0.0684 -0.6428
   51MOL0     H 6863   9.188   3.705   9.355 -4.1742  1.2408 -2.4947
   51MOL0     H 6864   9.206   3.533   9.355  1.5159  0.0424 -0.4357
   51MOL0     H 6865   9.031   3.675   9.156 -0.0985  1.6533  0.8763
   51MOL0     H 6866   8.977   3.658   9.324 -1.2926 -0.4343 -0.4448
   51MOL0     H 6867   9.975   3.579   9.067  2.3596  1.5476 -1.7583
   51MOL0     H 6868  10.196   3.697   9.051 -4.9429 -0.0730 -1.5576
   51MOL0     H 6869  10.707   3.675   9.455  2.2718  3.8489  1.4019
   51MOL0     H 6870  10.926   3.695   9.394 -1.4070 -1.3360  0.6733
   51MOL0     H 6871  10.306   4.660   8.259  4.0992  1.5593 -1.8805
   51MOL0     H 6872  10.161   4.817   8.338  0.7775  0.8366  0.0869
   51MOL0     H 6873   9.783   4.986   8.678  0.6454 -1.4713  0.6341
   51MOL0     H 6874   9.656   5.189   8.671  0.0184 -0.6969  0.9907
   51MOL0     H 6875   9.880   5.547   8.498 -0.9146  0.9972  1.5432
   51MOL0     H 6876   9.780   5.488   8.360  1.2586  1.2278 -0.6517
   51MOL0     H 6877   9.749   5.724   8.447 -0.2361 -0.1882  1.2179
   51MOL0     H 6878   9.660   5.661   8.579 -1.0503  1.6562 -0.1774
   51MOL0     H 6879   9.497   5.558   8.419  0.4754  0.5405  2.1973
   51MOL0     H 6880   9.604   5.618   8.288 -1.2559  1.9670 -1.1839
   51MOL0     H 6881   9.565   5.847   8.424  0.6451 -0.5879  2.5755
   51MOL0     H 6882   9.430   5.766   8.491 -1.4236  1.5083 -1.3659
   51MOL0     H 6883   9.278   5.812   8.105 -0.5663  2.0443  1.2055
   51MOL0     H 6884   9.967   5.364   8.428 -2.0290  0.9445  0.9846
   51MOL0     H 6885  10.081   5.148   8.420 -1.5488 -0.0434 -1.0117
   52MOL0     O 6886   9.160   3.271   4.757 -0.1803 -0.3189  0.4797
   52MOL0     C 6887   9.205   3.379   4.726  0.5317  0.8815  0.2849
   52MOL0     O 6888   9.148   3.465   4.638 -0.7294  0.0800 -0.2018
   52MOL0     C 6889   9.024   3.430   4.589 -0.2780  0.3090 -0.2890
   52MOL0     C 6890   8.918   3.459   4.674 -0.2037 -0.3860 -0.6526
   52MOL0     C 6891   8.789   3.435   4.637 -0.7580  0.4811  0.3415
   52MOL0     C 6892   8.763   3.390   4.508 -0.7490  0.4566  0.4495
   52MOL0     O 6893   8.646   3.345   4.472  0.0432 -0.4997  0.0809
   52MOL0     C 6894   8.527   3.408   4.528  0.0969 -0.1758 -0.1909
   52MOL0     C 6895   8.417   3.432   4.427 -0.7536  1.0733  0.4355
   52MOL0     C 6896   8.466   3.513   4.303  0.0348  0.0172  0.0307
   52MOL0     C 6897   8.374   3.641   4.292  1.0688  0.9570 -0.4941
   52MOL0     C 6898   8.227   3.600   4.238  0.2624  0.7631 -0.7231
   52MOL0     C 6899   8.158   3.738   4.222 -0.4225  0.8602  0.1925
   52MOL0     C 6900   8.007   3.707   4.203 -0.6211 -0.2285  0.4582
   52MOL0     C 6901   7.972   3.701   4.057 -0.7644  0.0898 -0.2211
   52MOL0     N 6902   7.827   3.710   4.042 -0.0786 -0.3714  0.3783
   52MOL0     C 6903   7.741   3.616   3.996 -0.2356  0.2607  0.1939
   52MOL0     C 6904   7.624   3.676   4.003 -0.2917 -0.2365  0.5128
   52MOL0     C 6905   7.494   3.614   3.957 -0.7048  0.0211 -0.2881
   52MOL0     C 6906   7.366   3.688   4.004  0.0430  0.1151 -0.1385
   52MOL0     C 6907   7.337   3.683   4.152 -0.7520  0.3435  0.7242
   52MOL0     C 6908   7.188   3.715   4.185  0.6903 -0.1486 -0.4642
   52MOL0     O 6909   7.118   3.594   4.181  0.1897 -0.2351 -1.4981
   52MOL0     C 6910   6.981   3.591   4.215  0.4587  0.2694 -0.4273
   52MOL0     C 6911   6.911   3.700   4.271  0.6720  1.3445 -0.0220
   52MOL0     C 6912   6.771   3.697   4.285  0.2651  0.9043  0.1269
   52MOL0     C 6913   6.699   3.823   4.336 -0.1932 -0.2960  0.5833
   52MOL0     C 6914   6.699   3.572   4.256 -0.2530 -0.9144  0.0891
   52MOL0     C 6915   6.550   3.550   4.262 -1.1146 -0.0005  0.4396
   52MOL0     O 6916   6.506   3.458   4.173 -0.1368 -0.1348 -0.4793
   52MOL0     C 6917   6.391   3.409   4.223  0.9012 -0.5785  0.2921
   52MOL0     C 6918   6.381   3.299   4.312 -0.0746  0.1578 -0.8144
   52MOL0     C 6919   6.256   3.232   4.334  0.4620  0.0179 -0.3462
   52MOL0     C 6920   6.144   3.259   4.265 -0.1194 -1.0655  0.2921
   52MOL0     O 6921   6.027   3.195   4.274 -0.3924 -0.5893 -0.1924
   52MOL0     C 6922   6.030   3.053   4.304  0.0928 -0.1972  0.1131
   52MOL0     C 6923   5.897   2.999   4.269  0.3193 -1.1634 -0.4879
   52MOL0     C 6924   5.765   3.069   4.331  0.2087 -0.7769  0.2430
   52MOL0     C 6925   5.772   3.105   4.480  0.6844 -0.1607 -0.2293
   52MOL0     C 6926   5.791   2.977   4.561  0.0543  0.2282  0.4674
   52MOL0     C 6927   5.765   3.018   4.703 -1.0249 -0.0568  0.1951
   52MOL0     C 6928   5.882   3.095   4.761 -0.4078  0.1958 -0.3137
   52MOL0     C 6929   5.899   3.069   4.912 -0.9367  0.3509  0.1383
   52MOL0    Cl 6930   5.952   2.903   4.934  0.0143  0.0265  0.2570
   52MOL0     C 6931   6.151   3.380   4.186  0.4411 -0.6286  0.3573
   52MOL0     C 6932   6.276   3.449   4.160 -0.0589  0.6009  0.0459
   52MOL0     O 6933   6.479   3.628   4.324 -0.4719 -0.0367 -0.4378
   52MOL0     C 6934   6.780   3.465   4.213  1.1625 -0.5317  0.4697
   52MOL0     C 6935   6.912   3.473   4.190  0.3914  0.1020  0.5792
   52MOL0     N 6936   7.649   3.806   4.035  0.4898  0.1126 -0.4832
   52MOL0     N 6937   7.768   3.828   4.067  0.0978 -1.1374  1.0203
   52MOL0     C 6938   8.870   3.370   4.424  0.2471 -0.7818  0.4589
   52MOL0     C 6939   9.002   3.397   4.457 -0.5081  0.0833  0.0662
   52MOL0     C 6940   9.338   3.417   4.782 -0.5348  0.3741  0.5944
   52MOL0     C 6941   9.414   3.330   4.858 -0.4255 -0.1167 -0.1066
   52MOL0     C 6942   9.543   3.360   4.905 -0.4215 -0.3459 -0.1859
   52MOL0     C 6943   9.593   3.494   4.890  0.2755  0.0068  0.5303
   52MOL0     O 6944   9.697   3.544   4.949 -0.8170 -0.2266 -0.1460
   52MOL0     C 6945   9.805   3.459   4.993  0.1248  0.3429 -0.1017
   52MOL0     C 6946   9.920   3.551   5.054  0.7921  0.6258  0.2166
   52MOL0     C 6947   9.977   3.633   4.930  0.0845  0.1254 -0.3001
   52MOL0     C 6948  10.095   3.716   4.974  0.2135  0.5347  0.3213
   52MOL0     C 6949  10.046   3.832   5.056  0.5377  0.1814  0.6360
   52MOL0     C 6950  10.019   3.927   5.131 -0.0771 -0.0394  0.3296
   52MOL0     C 6951   9.512   3.584   4.825 -0.4105 -0.2355  0.0572
   52MOL0     C 6952   9.390   3.551   4.761  0.0163 -0.3188 -1.2856
   52MOL0     H 6953   8.944   3.489   4.775 -0.7221  2.8730 -1.3896
   52MOL0     H 6954   8.709   3.450   4.709 -0.6303  1.9186  0.2112
   52MOL0     H 6955   8.490   3.343   4.608  0.0598  0.9430  0.7430
   52MOL0     H 6956   8.539   3.505   4.578 -2.4040 -1.3174  3.0084
   52MOL0     H 6957   8.377   3.338   4.387 -0.4670  1.4369 -0.7398
   52MOL0     H 6958   8.331   3.479   4.476 -2.6952 -0.3755 -1.3855
   52MOL0     H 6959   8.562   3.559   4.331  0.1372  1.4340 -2.3366
   52MOL0     H 6960   8.476   3.454   4.212 -0.5858  0.8426 -0.5951
   52MOL0     H 6961   8.350   3.694   4.384 -1.7327  2.1255 -1.7987
   52MOL0     H 6962   8.425   3.710   4.224 -0.5681  1.5970 -1.0951
   52MOL0     H 6963   8.240   3.543   4.145 -0.8080 -3.0983  1.2875
   52MOL0     H 6964   8.176   3.538   4.312  0.7140  0.6767 -0.4856
   52MOL0     H 6965   8.158   3.782   4.322 -5.6921 -0.6449  1.1655
   52MOL0     H 6966   8.211   3.801   4.150 -1.6399 -0.4873 -2.0059
   52MOL0     H 6967   7.983   3.616   4.259  4.1213 -1.2115  1.3544
   52MOL0     H 6968   7.955   3.796   4.239 -1.8203 -0.6888 -0.1017
   52MOL0     H 6969   7.992   3.602   4.014 -0.7476  0.1425 -0.3351
   52MOL0     H 6970   8.025   3.778   4.000  2.0789 -1.4208  0.2030
   52MOL0     H 6971   7.751   3.511   3.970  1.4806  1.0145 -2.5271
   52MOL0     H 6972   7.492   3.611   3.848  0.3999 -1.2923 -0.2860
   52MOL0     H 6973   7.484   3.515   4.001 -1.5043  0.6688  1.0558
   52MOL0     H 6974   7.280   3.637   3.959 -0.7638 -0.5872  2.0638
   52MOL0     H 6975   7.368   3.790   3.965  0.1968 -0.5690 -2.0363
   52MOL0     H 6976   7.398   3.751   4.213 -0.7058 -1.6568  3.0696
   52MOL0     H 6977   7.355   3.582   4.188 -1.9051  0.4165  1.5942
   52MOL0     H 6978   7.150   3.784   4.110 -1.8060  0.1195  0.9305
   52MOL0     H 6979   7.174   3.764   4.282  1.5990 -2.7838  1.1195
   52MOL0     H 6980   6.960   3.789   4.309  2.8063 -0.3062  1.2534
   52MOL0     H 6981   6.656   3.814   4.436 -0.3577  0.8986  0.6446
   52MOL0     H 6982   6.776   3.901   4.333 -0.5123  0.0076 -0.1545
   52MOL0     H 6983   6.617   3.864   4.276  0.3492  1.0328  0.7100
   52MOL0     H 6984   6.473   3.272   4.361  0.1806 -0.0350 -1.3844
   52MOL0     H 6985   6.266   3.147   4.400 -1.7895  1.3891  1.9254
   52MOL0     H 6986   6.104   2.987   4.259  1.9652  2.2899 -0.6493
   52MOL0     H 6987   6.028   3.049   4.414 -2.4126  0.6740  0.1712
   52MOL0     H 6988   5.886   3.026   4.163  1.6502  3.1434  0.2770
   52MOL0     H 6989   5.883   2.891   4.278 -2.6526 -0.8390 -0.0029
   52MOL0     H 6990   5.680   3.007   4.300  0.5537  0.1827 -3.0799
   52MOL0     H 6991   5.751   3.160   4.272 -0.4176 -1.4079 -0.6151
   52MOL0     H 6992   5.845   3.185   4.495  0.2603  0.2365 -0.2897
   52MOL0     H 6993   5.676   3.150   4.505  1.4575  1.0951  0.5660
   52MOL0     H 6994   5.889   2.930   4.547 -0.2408 -0.1208 -0.4880
   52MOL0     H 6995   5.712   2.906   4.537  0.8990 -0.0579 -1.7147
   52MOL0     H 6996   5.666   3.056   4.730 -2.9177 -2.5077 -2.6203
   52MOL0     H 6997   5.767   2.926   4.762 -1.9628  0.8928  1.8082
   52MOL0     H 6998   5.875   3.203   4.743 -1.4924  0.0678 -0.7465
   52MOL0     H 6999   5.972   3.062   4.709 -0.2749 -0.4046  0.2816
   52MOL0     H 7000   5.798   3.082   4.952 -1.7841  3.4548 -2.5720
   52MOL0     H 7001   5.970   3.141   4.953 -0.1804  1.3839 -2.7159
   52MOL0     H 7002   6.062   3.412   4.133  0.9217  0.1841  0.0189
   52MOL0     H 7003   6.284   3.526   4.084  2.0404  0.8749  0.4645
   52MOL0     H 7004   6.745   3.367   4.183  3.1386 -1.0227 -0.4285
   52MOL0     H 7005   6.968   3.391   4.147  0.2746  0.1294  0.3716
   52MOL0     H 7006   8.836   3.341   4.325 -1.4177 -0.7487  0.9964
   52MOL0     H 7007   9.087   3.382   4.391 -0.3135  0.3037  0.2645
   52MOL0     H 7008   9.382   3.226   4.868  1.2466 -0.7325 -0.8522
   52MOL0     H 7009   9.601   3.291   4.966 -0.5353  0.9242  1.4344
   52MOL0     H 7010   9.775   3.383   5.066  0.7323  1.4030  1.2813
   52MOL0     H 7011   9.861   3.406   4.915  1.6806 -0.0042  1.1956
   52MOL0     H 7012  10.003   3.492   5.094  0.6172 -1.5364 -2.3419
   52MOL0     H 7013   9.878   3.612   5.135  0.9843 -2.3672  2.7448
   52MOL0     H 7014   9.908   3.703   4.881  0.9441  0.0279 -1.7108
   52MOL0     H 7015  10.010   3.561   4.854  0.1911 -0.8908  0.6895
   52MOL0     H 7016  10.132   3.765   4.884 -1.3701  0.3764 -0.4504
   52MOL0     H 7017  10.178   3.664   5.021  1.1347  1.1081 -0.6402
   52MOL0     H 7018   9.990   4.023   5.170  1.5026  0.4355  0.4207
   52MOL0     H 7019   9.547   3.687   4.821  0.2385 -0.3514 -5.6431
   52MOL0     H 7020   9.329   3.626   4.710  0.1184  3.0126  2.9838
   53MOL0     O 7021   8.574  10.986   3.293  0.2976 -0.7373 -0.1695
   53MOL0     C 7022   8.597  10.925   3.192  0.9144 -0.3683  0.3043
   53MOL0     O 7023   8.521  10.926   3.083 -0.0954  0.6064  0.2261
   53MOL0     C 7024   8.390  10.935   3.089  0.0980 -1.2003 -0.6552
   53MOL0     C 7025   8.307  10.931   3.211  0.8269 -0.3228  0.3871
   53MOL0     C 7026   8.170  10.968   3.208 -0.3859  0.1070 -0.1002
   53MOL0     C 7027   8.114  11.013   3.086  0.6945 -0.0406 -0.0224
   53MOL0     O 7028   7.981  11.050   3.095  0.1055 -0.7443  0.3708
   53MOL0     C 7029   7.920  11.123   2.992  0.0260  0.7910  0.2028
   53MOL0     C 7030   7.770  11.087   2.980  1.1440  0.0985  0.7445
   53MOL0     C 7031   7.701  11.048   3.112  0.2817 -0.7549  0.2623
   53MOL0     C 7032   7.549  11.028   3.091 -0.3610 -0.0736  0.0924
   53MOL0     C 7033   7.470  10.994   3.214  0.3348  0.1195 -0.1084
   53MOL0     C 7034   7.325  11.045   3.192  0.0947  0.2945 -0.3385
   53MOL0     C 7035   7.300  11.189   3.194  0.2943 -0.6605  0.3598
   53MOL0     C 7036   7.391  11.262   3.291  0.6133 -0.2259  0.0067
   53MOL0     N 7037   7.335  11.378   3.359 -0.0444  0.0668 -0.2482
   53MOL0     C 7038   7.209  11.375   3.416  0.0159  0.4951  0.5276
   53MOL0     C 7039   7.205  11.497   3.475  0.2980  0.2714 -0.1127
   53MOL0     C 7040   7.080  11.571   3.531 -0.1068  0.8296  0.4506
   53MOL0     C 7041   6.980  11.632   3.441  1.3290  0.4768  0.6480
   53MOL0     C 7042   6.869  11.703   3.515 -0.9358  0.7791 -0.6433
   53MOL0     C 7043   6.743  11.732   3.442  0.8259  0.5181 -0.0622
   53MOL0     O 7044   6.762  11.809   3.329  0.2735  0.1132  0.4642
   53MOL0     C 7045   6.659  11.858   3.252 -0.6537  0.1831 -0.1403
   53MOL0     C 7046   6.684  11.957   3.157  0.5054 -0.0720  0.5674
   53MOL0     C 7047   6.586  12.006   3.068  1.6706 -0.1582 -0.4940
   53MOL0     C 7048   6.616  12.130   2.993  0.6551 -0.2185 -0.2768
   53MOL0     C 7049   6.458  11.948   3.056 -0.0586  0.6320 -0.0218
   53MOL0     C 7050   6.352  11.985   2.959  0.1358 -0.1445  0.5668
   53MOL0     O 7051   6.225  11.993   3.014 -0.6965 -0.8521  0.0485
   53MOL0     C 7052   6.126  12.025   2.924  0.1655  0.4967  0.1701
   53MOL0     C 7053   6.113  12.155   2.863 -0.6354  0.2780 -0.7192
   53MOL0     C 7054   5.992  12.186   2.793  0.0665  0.7780 -0.3974
   53MOL0     C 7055   5.898  12.080   2.764  0.1174  0.2011 -0.3444
   53MOL0     O 7056   5.788  12.089   2.690  0.0827  0.6384  0.3303
   53MOL0     C 7057   5.767  12.209   2.620 -0.0773  0.0080 -0.1761
   53MOL0     C 7058   5.640  12.190   2.528 -0.4082  0.5655 -0.9268
   53MOL0     C 7059   5.632  12.070   2.433 -0.1039 -0.9852  0.2209
   53MOL0     C 7060   5.504  12.070   2.356 -0.4444  1.3195 -0.8403
   53MOL0     C 7061   5.481  11.947   2.275  0.2998  0.7621 -0.7518
   53MOL0     C 7062   5.328  11.937   2.259  0.0696  0.0179  0.1668
   53MOL0     C 7063   5.291  11.817   2.165 -0.2899  0.0992  0.2599
   53MOL0     C 7064   5.140  11.805   2.158  0.4161  0.4162  0.2832
   53MOL0    Cl 7065   5.066  11.708   2.281  0.3851 -0.1558  0.0392
   53MOL0     C 7066   5.910  11.958   2.832 -0.1182  0.2821  0.4950
   53MOL0     C 7067   6.022  11.932   2.913 -1.1753  0.0026 -0.1057
   53MOL0     O 7068   6.385  11.999   2.839  0.1151  1.2894  0.1223
   53MOL0     C 7069   6.436  11.854   3.152  0.1787 -0.0032 -0.2026
   53MOL0     C 7070   6.527  11.805   3.253  0.3050  0.0730 -0.9032
   53MOL0     N 7071   7.327  11.562   3.458  0.1018  0.0219 -0.2511
   53MOL0     N 7072   7.403  11.489   3.398  0.5087 -0.1349  0.3286
   53MOL0     C 7073   8.194  11.010   2.969  0.8230  0.8665 -0.5344
   53MOL0     C 7074   8.326  10.971   2.967 -1.0187 -0.2142  0.1331
   53MOL0     C 7075   8.721  10.854   3.188 -0.2762 -0.9512 -0.5797
   53MOL0     C 7076   8.772  10.818   3.066 -0.1908  0.6695  0.8101
   53MOL0     C 7077   8.883  10.742   3.061  0.4329 -0.4471  0.0986
   53MOL0     C 7078   8.962  10.724   3.176  0.7326 -0.6241 -0.1071
   53MOL0     O 7079   9.089  10.668   3.171 -0.5334 -0.9610 -0.6278
   53MOL0     C 7080   9.148  10.642   3.047  0.3733 -0.0482  0.0081
   53MOL0     C 7081   9.293  10.609   3.055 -0.1210  0.0025 -0.3225
   53MOL0     C 7082   9.378  10.738   3.060 -0.2082  1.0490  0.0461
   53MOL0     C 7083   9.512  10.727   3.139 -0.6842  0.6639 -0.3641
   53MOL0     C 7084   9.599  10.622   3.071 -0.1817 -0.7408  1.1443
   53MOL0     C 7085   9.657  10.534   3.012 -0.1253 -0.5260  1.5127
   53MOL0     C 7086   8.916  10.774   3.302  1.2662  0.8245 -0.1510
   53MOL0     C 7087   8.794  10.838   3.308 -0.4864  0.1281  0.4636
   53MOL0     H 7088   8.348  10.902   3.307  1.5375  1.1599  0.5574
   53MOL0     H 7089   8.115  10.968   3.301 -1.3358  1.1827 -0.6352
   53MOL0     H 7090   7.932  11.228   3.022  2.2993  0.8633 -0.6839
   53MOL0     H 7091   7.970  11.117   2.895  1.2696 -1.0506  0.8926
   53MOL0     H 7092   7.716  11.164   2.925 -0.5380 -2.5281 -1.5468
   53MOL0     H 7093   7.754  11.003   2.911 -1.1569 -1.5222  3.0671
   53MOL0     H 7094   7.750  10.959   3.152  0.7753 -0.7719 -0.3637
   53MOL0     H 7095   7.727  11.136   3.171 -2.4040  0.3798 -0.0833
   53MOL0     H 7096   7.507  11.122   3.055  0.4696  0.6546  0.9961
   53MOL0     H 7097   7.526  10.950   3.018  0.1281 -0.1649  0.0362
   53MOL0     H 7098   7.474  10.886   3.231  0.2605 -0.0116 -0.8882
   53MOL0     H 7099   7.518  11.034   3.304 -1.7774  1.8554  0.3379
   53MOL0     H 7100   7.277  11.007   3.101  2.0853 -0.0337 -1.2945
   53MOL0     H 7101   7.272  10.999   3.275  1.2374 -0.9350 -0.2550
   53MOL0     H 7102   7.306  11.229   3.092  2.0412 -4.0949 -1.0544
   53MOL0     H 7103   7.197  11.210   3.223  0.9491  1.7280  1.1946
   53MOL0     H 7104   7.483  11.297   3.245 -0.3664  1.5846 -0.6895
   53MOL0     H 7105   7.418  11.194   3.372  2.3596  0.0488 -0.3139
   53MOL0     H 7106   7.133  11.297   3.418 -0.2664  0.7752  1.0899
   53MOL0     H 7107   7.033  11.505   3.604 -1.1330  1.4539  0.3629
   53MOL0     H 7108   7.114  11.649   3.600 -0.5175 -0.1717  1.8204
   53MOL0     H 7109   6.932  11.557   3.377 -0.8273  2.2387  0.0655
   53MOL0     H 7110   7.039  11.695   3.375 -0.5584 -0.7120 -2.3897
   53MOL0     H 7111   6.904  11.790   3.571 -2.2460  0.1481  1.2724
   53MOL0     H 7112   6.842  11.636   3.597  0.9273 -0.6469 -1.1475
   53MOL0     H 7113   6.674  11.781   3.511 -2.6436 -1.8359 -1.5756
   53MOL0     H 7114   6.707  11.639   3.398  1.6087  0.2192 -0.0715
   53MOL0     H 7115   6.785  11.998   3.154  0.7825 -0.7967 -0.2762
   53MOL0     H 7116   6.710  12.174   3.028  1.3549  0.1932 -2.5216
   53MOL0     H 7117   6.634  12.098   2.890  2.1348 -3.1306  0.7932
   53MOL0     H 7118   6.533  12.201   2.998  2.6740  2.1961  2.7387
   53MOL0     H 7119   6.189  12.231   2.879  0.0049 -0.2927 -0.9394
   53MOL0     H 7120   5.962  12.287   2.768 -1.2871  0.0725 -1.8061
   53MOL0     H 7121   5.756  12.289   2.694  0.1733  0.9989 -1.1782
   53MOL0     H 7122   5.851  12.238   2.556  1.3353  1.5458  2.2467
   53MOL0     H 7123   5.556  12.188   2.598  0.6320  2.8547  0.5186
   53MOL0     H 7124   5.623  12.275   2.461 -0.2804 -0.0966 -1.8255
   53MOL0     H 7125   5.630  11.977   2.491  0.4667 -1.8068 -1.0328
   53MOL0     H 7126   5.722  12.072   2.370 -1.3811  1.2098 -1.6971
   53MOL0     H 7127   5.422  12.078   2.428  0.9214 -0.4015  1.0377
   53MOL0     H 7128   5.488  12.158   2.293  2.0407  2.5575  0.1011
   53MOL0     H 7129   5.515  11.859   2.329  1.2296  0.7229 -1.3798
   53MOL0     H 7130   5.537  11.942   2.181 -0.3219  1.3703 -1.1719
   53MOL0     H 7131   5.302  11.907   2.361 -1.8878  0.0482 -0.2783
   53MOL0     H 7132   5.278  12.029   2.228  1.2513  0.5497 -0.1980
   53MOL0     H 7133   5.335  11.723   2.198 -1.0220 -0.6197 -0.7559
   53MOL0     H 7134   5.325  11.846   2.065  1.4254  0.0574  0.7997
   53MOL0     H 7135   5.115  11.758   2.062 -0.4479  2.2585 -0.4495
   53MOL0     H 7136   5.080  11.897   2.156 -1.6851 -0.8937  0.6470
   53MOL0     H 7137   5.832  11.886   2.812 -0.2300  1.1345 -2.7296
   53MOL0     H 7138   6.030  11.836   2.963  1.7503 -0.6652 -1.6550
   53MOL0     H 7139   6.335  11.816   3.165 -1.2371  3.5386  0.4352
   53MOL0     H 7140   6.508  11.728   3.327  1.7136  2.0629  1.6846
   53MOL0     H 7141   8.139  11.025   2.876 -2.0897 -0.9766  0.7695
   53MOL0     H 7142   8.384  10.976   2.876 -0.8665  1.7138  0.2796
   53MOL0     H 7143   8.723  10.849   2.974 -1.7142 -3.6025 -0.0729
   53MOL0     H 7144   8.915  10.709   2.963 -3.6290  0.2421 -1.6607
   53MOL0     H 7145   9.098  10.553   3.005  0.9716 -1.2853  1.7929
   53MOL0     H 7146   9.146  10.728   2.979  3.3085 -2.0701 -2.9951
   53MOL0     H 7147   9.303  10.548   2.965  4.0607 -2.4066  1.4844
   53MOL0     H 7148   9.313  10.547   3.143 -0.9913  1.7523  1.1780
   53MOL0     H 7149   9.321  10.814   3.115  0.3014  0.1046  1.9625
   53MOL0     H 7150   9.405  10.788   2.966 -0.2009 -0.4943 -0.7938
   53MOL0     H 7151   9.499  10.704   3.245  0.1270  0.2831 -0.3423
   53MOL0     H 7152   9.564  10.824   3.134 -2.6273  1.7598 -0.1706
   53MOL0     H 7153   9.702  10.447   2.968 -1.2909 -0.2212 -0.4336
   53MOL0     H 7154   8.969  10.755   3.395  2.8934  0.1401 -1.1810
   53MOL0     H 7155   8.763  10.870   3.407  0.9912 -0.2892  1.0901
   54MOL0     O 7156   8.331   3.388   7.334  0.1399 -0.5660 -0.9357
   54MOL0     C 7157   8.394   3.289   7.364 -0.2878 -0.2357  1.0250
   54MOL0     O 7158   8.353   3.162   7.361  0.1833 -0.0256 -0.6506
   54MOL0     C 7159   8.218   3.153   7.335  0.0179  0.2344  0.6008
   54MOL0     C 7160   8.111   3.192   7.419  0.5263  0.0415 -1.0194
   54MOL0     C 7161   7.971   3.166   7.385  0.3406 -0.4126 -0.2533
   54MOL0     C 7162   7.945   3.108   7.262 -0.2591  0.8657  0.0382
   54MOL0     O 7163   7.811   3.098   7.235  0.6200  0.2582  0.4350
   54MOL0     C 7164   7.764   3.086   7.094 -0.2255 -0.2954 -0.8118
   54MOL0     C 7165   7.615   3.099   7.101 -0.6092  0.2462  0.6292
   54MOL0     C 7166   7.580   3.236   7.146  0.4727  0.0555  0.3165
   54MOL0     C 7167   7.427   3.266   7.143  0.9325  1.0556  0.2634
   54MOL0     C 7168   7.344   3.168   7.224 -0.0264 -0.0322 -0.6795
   54MOL0     C 7169   7.195   3.188   7.222 -0.5693 -0.0666  0.0346
   54MOL0     C 7170   7.161   3.326   7.286 -0.1472 -0.6135  0.3175
   54MOL0     C 7171   7.012   3.343   7.312  0.3151 -1.3495 -0.2822
   54MOL0     N 7172   6.944   3.370   7.187  0.3861  0.5746 -0.2037
   54MOL0     C 7173   6.842   3.287   7.125  1.1740  0.1487  0.3624
   54MOL0     C 7174   6.795   3.368   7.021 -1.0864  1.1161 -0.1361
   54MOL0     C 7175   6.693   3.335   6.921  0.4302 -0.0991  0.9024
   54MOL0     C 7176   6.549   3.314   6.974 -0.3855  0.4679  0.2566
   54MOL0     C 7177   6.448   3.268   6.865 -0.0770 -0.0571 -0.1075
   54MOL0     C 7178   6.300   3.276   6.919  0.9905 -0.3615  0.0857
   54MOL0     O 7179   6.200   3.263   6.813  0.7194 -0.2028 -0.7024
   54MOL0     C 7180   6.178   3.138   6.765  0.2874  0.2833  0.4865
   54MOL0     C 7181   6.240   3.017   6.813  0.7278 -0.3498 -0.6609
   54MOL0     C 7182   6.207   2.901   6.748 -0.0504  0.5055  0.3943
   54MOL0     C 7183   6.260   2.769   6.813 -0.1258  0.0322  0.3625
   54MOL0     C 7184   6.119   2.898   6.640 -0.2326  0.7640  0.5499
   54MOL0     C 7185   6.107   2.777   6.562  0.4067  0.0768 -0.3476
   54MOL0     O 7186   5.995   2.764   6.490  0.4406 -0.4479  0.6710
   54MOL0     C 7187   5.979   2.652   6.414  0.0731 -0.2663  0.2250
   54MOL0     C 7188   6.009   2.650   6.276  0.4705 -0.0203 -0.6765
   54MOL0     C 7189   5.965   2.544   6.197  0.6005  0.0611  0.2582
   54MOL0     C 7190   5.909   2.425   6.259 -0.1737 -0.2704 -0.5446
   54MOL0     O 7191   5.869   2.311   6.199  0.7488 -0.5746 -0.3355
   54MOL0     C 7192   5.949   2.262   6.094  0.0605  0.7317 -0.2316
   54MOL0     C 7193   5.920   2.118   6.106  0.3076 -0.6414  0.6394
   54MOL0     C 7194   5.971   2.044   5.987  1.0948 -0.2607 -0.5493
   54MOL0     C 7195   6.127   2.039   5.988  1.2708 -0.2354 -0.0321
   54MOL0     C 7196   6.188   2.117   5.869  0.1675  0.3542  0.3196
   54MOL0     C 7197   6.331   2.083   5.831  0.2040 -0.4980  0.3618
   54MOL0     C 7198   6.433   2.104   5.943  0.7140  0.0182 -0.3982
   54MOL0     C 7199   6.564   2.045   5.904  0.1845  0.3481 -0.2664
   54MOL0    Cl 7200   6.690   2.055   6.032  0.4267  0.1975 -0.3451
   54MOL0     C 7201   5.906   2.424   6.406  0.0740 -0.0965  0.8346
   54MOL0     C 7202   5.938   2.536   6.481 -0.2643  0.2857  0.1037
   54MOL0     O 7203   6.203   2.701   6.553 -0.2755  0.4611  0.3473
   54MOL0     C 7204   6.069   3.016   6.585 -0.1139 -0.1753  0.3536
   54MOL0     C 7205   6.094   3.137   6.654 -0.5788 -0.3753 -0.1206
   54MOL0     N 7206   6.854   3.490   7.025  0.3943 -0.0018  0.4110
   54MOL0     N 7207   6.931   3.489   7.129  0.0809  0.0664  0.1253
   54MOL0     C 7208   8.049   3.064   7.180  0.6258  0.2473 -0.6297
   54MOL0     C 7209   8.185   3.088   7.220 -0.4914 -0.0418 -0.3319
   54MOL0     C 7210   8.541   3.309   7.402 -0.6009  0.1851 -0.4257
   54MOL0     C 7211   8.640   3.204   7.408 -0.2630  0.3185  0.2412
   54MOL0     C 7212   8.777   3.220   7.426  0.2961 -0.5233  0.5920
   54MOL0     C 7213   8.817   3.341   7.466  0.2230  0.4914  0.9070
   54MOL0     O 7214   8.954   3.353   7.483  0.2403 -0.2082 -0.4464
   54MOL0     C 7215   9.011   3.472   7.527  0.6217  0.4256 -0.4722
   54MOL0     C 7216   9.151   3.428   7.568 -0.2921  1.2243  0.0296
   54MOL0     C 7217   9.229   3.378   7.449 -0.0643  0.3215 -0.7045
   54MOL0     C 7218   9.370   3.361   7.487 -0.4753  0.3412 -0.1151
   54MOL0     C 7219   9.402   3.284   7.608  0.9012 -0.4406 -0.0489
   54MOL0     C 7220   9.428   3.211   7.696  0.4316 -0.7369 -0.4794
   54MOL0     C 7221   8.727   3.449   7.475  0.0901  0.6879 -0.0859
   54MOL0     C 7222   8.591   3.429   7.456  0.6712 -0.4849  0.1755
   54MOL0     H 7223   8.137   3.255   7.502  0.4617  0.0147 -0.9786
   54MOL0     H 7224   7.893   3.200   7.453  2.7127  4.8846  0.3584
   54MOL0     H 7225   7.812   3.163   7.034 -1.6888  0.4048 -1.1475
   54MOL0     H 7226   7.779   2.985   7.055 -0.7359 -1.0691  0.9011
   54MOL0     H 7227   7.570   3.074   7.004 -0.9971 -2.0453  1.3252
   54MOL0     H 7228   7.577   3.022   7.169 -1.5148 -0.4438 -0.6197
   54MOL0     H 7229   7.613   3.253   7.248 -1.5924 -0.3820  1.1241
   54MOL0     H 7230   7.634   3.300   7.076  0.8661 -1.3029 -0.6877
   54MOL0     H 7231   7.403   3.365   7.183 -2.2503 -0.0331  1.3677
   54MOL0     H 7232   7.394   3.257   7.039 -1.7361 -2.8680  1.2322
   54MOL0     H 7233   7.349   3.073   7.169  0.5470 -0.4386  0.0569
   54MOL0     H 7234   7.387   3.145   7.322  1.7715  2.6429 -0.7332
   54MOL0     H 7235   7.154   3.189   7.121 -1.4677 -0.0685  0.3931
   54MOL0     H 7236   7.142   3.103   7.266 -1.1078 -0.5487 -1.4728
   54MOL0     H 7237   7.216   3.329   7.380 -0.0235 -1.7888  0.2914
   54MOL0     H 7238   7.202   3.408   7.225  3.0239 -1.8918  0.5589
   54MOL0     H 7239   7.005   3.429   7.379 -0.3967 -0.4413 -1.4843
   54MOL0     H 7240   6.970   3.248   7.348  0.2515 -2.2040 -2.4421
   54MOL0     H 7241   6.804   3.195   7.169 -1.4723 -0.0988 -2.1932
   54MOL0     H 7242   6.690   3.416   6.848  0.2872  1.3662  2.4916
   54MOL0     H 7243   6.723   3.248   6.860 -0.3886  1.4695 -1.9001
   54MOL0     H 7244   6.521   3.407   7.023  0.6639  0.8219  0.2160
   54MOL0     H 7245   6.545   3.245   7.059  0.0859 -0.9408 -0.8099
   54MOL0     H 7246   6.469   3.163   6.843 -0.2899  0.0191 -0.6977
   54MOL0     H 7247   6.461   3.323   6.771 -0.3546 -0.6399 -0.4915
   54MOL0     H 7248   6.286   3.368   6.975  1.2243 -1.3117  1.7686
   54MOL0     H 7249   6.274   3.201   6.995 -3.1363  0.6141 -0.1315
   54MOL0     H 7250   6.290   3.016   6.909 -0.1991 -2.5911 -0.1372
   54MOL0     H 7251   6.185   2.689   6.809 -1.5803  1.2880  1.1628
   54MOL0     H 7252   6.355   2.728   6.777 -0.4249  1.1303 -1.8499
   54MOL0     H 7253   6.271   2.787   6.920 -1.3463  3.9785 -0.0220
   54MOL0     H 7254   6.042   2.737   6.221  0.5449 -0.6291 -1.6194
   54MOL0     H 7255   5.971   2.545   6.089  1.5892  1.2345  0.3068
   54MOL0     H 7256   5.903   2.306   6.005  1.1044 -0.2133 -1.2799
   54MOL0     H 7257   6.056   2.281   6.099  0.4348 -1.3577  0.9413
   54MOL0     H 7258   5.982   2.079   6.188  1.3190  0.6281  0.5141
   54MOL0     H 7259   5.818   2.084   6.126 -0.1833  0.8865  0.8694
   54MOL0     H 7260   5.941   2.099   5.897  0.2819 -1.1102 -0.8067
   54MOL0     H 7261   5.945   1.938   5.992  3.8187 -1.0059 -0.7986
   54MOL0     H 7262   6.156   2.065   6.090 -3.2940  1.3346  1.1157
   54MOL0     H 7263   6.151   1.935   5.962  1.2800 -0.0156 -0.9103
   54MOL0     H 7264   6.175   2.225   5.875  0.3013  0.5538 -2.0527
   54MOL0     H 7265   6.127   2.077   5.788  0.0051 -0.7284  0.9526
   54MOL0     H 7266   6.323   1.985   5.784 -3.1848 -0.3854  0.4684
   54MOL0     H 7267   6.357   2.142   5.743  1.1614  0.1056  1.0350
   54MOL0     H 7268   6.407   2.062   6.041 -0.2823  2.7408  0.6149
   54MOL0     H 7269   6.445   2.210   5.965 -0.0341 -0.1503  0.9080
   54MOL0     H 7270   6.594   2.095   5.812  0.3821 -0.6477 -0.7595
   54MOL0     H 7271   6.551   1.938   5.884 -3.1054  0.6127 -0.0909
   54MOL0     H 7272   5.873   2.333   6.454  2.2482  0.2977  3.3118
   54MOL0     H 7273   5.924   2.531   6.589  1.0141 -1.4873  0.2226
   54MOL0     H 7274   6.008   3.016   6.495 -0.5344 -1.7191  0.6269
   54MOL0     H 7275   6.044   3.227   6.618  1.7193  0.8410 -0.5345
   54MOL0     H 7276   8.032   3.008   7.088 -1.3685  2.3273 -1.6362
   54MOL0     H 7277   8.269   3.047   7.167 -1.3704 -0.1776 -1.6527
   54MOL0     H 7278   8.604   3.104   7.382 -0.1606  0.7933 -1.9587
   54MOL0     H 7279   8.842   3.136   7.404  0.9810  0.3945 -1.0845
   54MOL0     H 7280   9.011   3.545   7.446  2.2783  0.8482 -0.1270
   54MOL0     H 7281   8.957   3.507   7.616  0.8903 -2.8467  1.1335
   54MOL0     H 7282   9.138   3.354   7.648 -2.4268  2.2987  0.7377
   54MOL0     H 7283   9.205   3.506   7.622 -0.4604  1.2236  0.1994
   54MOL0     H 7284   9.214   3.454   7.372 -0.1477  1.2840  0.2293
   54MOL0     H 7285   9.186   3.285   7.412  0.6326 -0.7229  0.9559
   54MOL0     H 7286   9.407   3.464   7.495  3.6465 -0.9897 -0.0182
   54MOL0     H 7287   9.407   3.307   7.400 -1.8850 -1.4213  0.3188
   54MOL0     H 7288   9.459   3.158   7.784 -2.7783  2.2085  2.7233
   54MOL0     H 7289   8.774   3.538   7.516  1.5151  0.2201 -0.6304
   54MOL0     H 7290   8.521   3.509   7.478  1.4211 -0.1173  1.2897
   55MOL0     O 7291   9.901   5.142   5.328 -0.4586 -0.0397 -1.0368
   55MOL0     C 7292   9.975   5.079   5.408  0.2702  0.0923  0.4248
   55MOL0     O 7293   9.944   4.962   5.473 -0.3707  0.0734  0.4426
   55MOL0     C 7294   9.814   4.911   5.472  0.3114 -0.5190 -0.7345
   55MOL0     C 7295   9.704   4.996   5.487  0.7916 -0.0157  0.2778
   55MOL0     C 7296   9.576   4.945   5.513 -0.5616 -0.0512 -0.5505
   55MOL0     C 7297   9.560   4.808   5.547  0.0302  0.9996  0.1084
   55MOL0     O 7298   9.446   4.741   5.577  0.4161  0.2446 -0.0149
   55MOL0     C 7299   9.335   4.819   5.620 -0.5446  0.2315  0.8727
   55MOL0     C 7300   9.240   4.731   5.712  0.1957  1.3604  0.6757
   55MOL0     C 7301   9.158   4.625   5.648 -0.3004  0.1906  0.0094
   55MOL0     C 7302   9.096   4.523   5.753 -0.1035 -0.3628  0.8385
   55MOL0     C 7303   8.988   4.433   5.690 -0.4226  0.1836 -0.3612
   55MOL0     C 7304   8.917   4.365   5.811 -0.1352 -0.9482  0.3409
   55MOL0     C 7305   8.772   4.428   5.827  0.9908  0.4825  0.2995
   55MOL0     C 7306   8.714   4.347   5.942  0.2536 -0.0297 -0.2802
   55MOL0     N 7307   8.600   4.425   5.999  0.1689  0.3450  0.1549
   55MOL0     C 7308   8.478   4.422   5.937 -0.1873 -0.3061 -0.1983
   55MOL0     C 7309   8.415   4.530   5.983  0.3299  0.3826 -0.6165
   55MOL0     C 7310   8.274   4.563   5.930  0.2771 -0.7647 -0.3315
   55MOL0     C 7311   8.163   4.607   6.028  0.5802 -0.2501  0.3767
   55MOL0     C 7312   8.021   4.579   5.980 -0.1900  0.2241  0.4150
   55MOL0     C 7313   7.997   4.626   5.834  0.1404  0.8577  0.2551
   55MOL0     O 7314   7.987   4.773   5.832  0.0341  0.0305 -0.5708
   55MOL0     C 7315   7.866   4.829   5.850  0.3337  0.0247 -0.3307
   55MOL0     C 7316   7.841   4.953   5.792 -0.3923 -0.2661  0.5874
   55MOL0     C 7317   7.723   5.019   5.818  0.0359  0.3712 -0.0434
   55MOL0     C 7318   7.709   5.156   5.764  0.0599 -0.0901 -0.6286
   55MOL0     C 7319   7.615   4.950   5.895 -0.4900 -0.3398  0.2417
   55MOL0     C 7320   7.485   5.004   5.922  0.1035  0.4221 -0.4869
   55MOL0     O 7321   7.416   4.940   6.024 -0.3369 -0.1022  0.1453
   55MOL0     C 7322   7.288   4.972   6.037 -0.6292 -0.1472  1.0475
   55MOL0     C 7323   7.198   4.914   5.945 -0.0730 -0.7339 -0.2063
   55MOL0     C 7324   7.065   4.951   5.948 -0.2695 -0.1584  0.3485
   55MOL0     C 7325   7.019   5.043   6.040 -0.6640 -0.2049 -0.6577
   55MOL0     O 7326   6.884   5.059   6.038 -0.0504 -0.0401 -1.1025
   55MOL0     C 7327   6.822   5.147   6.134 -0.8145  0.4007 -0.1173
   55MOL0     C 7328   6.665   5.136   6.114  0.2610  0.2385 -0.5354
   55MOL0     C 7329   6.604   5.217   6.227  0.9952 -0.6285 -0.5754
   55MOL0     C 7330   6.453   5.206   6.209 -0.7273  0.7283 -0.6759
   55MOL0     C 7331   6.379   5.291   6.308  0.3922 -0.1890  0.6426
   55MOL0     C 7332   6.230   5.258   6.322 -0.3837  0.6299 -0.5027
   55MOL0     C 7333   6.161   5.349   6.424  0.0866 -0.4395 -0.0151
   55MOL0     C 7334   6.010   5.321   6.444  0.8641  0.5631 -0.5737
   55MOL0    Cl 7335   5.930   5.435   6.562  0.5387  0.4130 -0.1713
   55MOL0     C 7336   7.102   5.098   6.138 -0.1840  0.5153 -0.9777
   55MOL0     C 7337   7.247   5.071   6.120 -0.6653  0.2220 -0.3559
   55MOL0     O 7338   7.443   5.094   5.857 -1.2724  0.3067  0.2408
   55MOL0     C 7339   7.651   4.824   5.946  0.1273  0.0703  0.4560
   55MOL0     C 7340   7.770   4.757   5.917 -0.5209 -0.5575 -0.3216
   55MOL0     N 7341   8.491   4.586   6.081  0.7390  0.9163 -0.2863
   55MOL0     N 7342   8.602   4.528   6.093 -0.1476 -0.1828  0.5127
   55MOL0     C 7343   9.669   4.728   5.534  0.0547 -0.1018  0.2818
   55MOL0     C 7344   9.793   4.773   5.485  0.5168 -0.3034  0.2329
   55MOL0     C 7345  10.104   5.126   5.455 -0.7385 -0.1326 -0.9905
   55MOL0     C 7346  10.144   5.259   5.411 -0.2301 -0.0897 -0.2013
   55MOL0     C 7347  10.268   5.302   5.465  0.5439 -0.2291 -0.4368
   55MOL0     C 7348  10.349   5.227   5.551  0.5704 -0.4723  0.5725
   55MOL0     O 7349  10.458   5.295   5.592  0.7647 -0.3932 -0.2058
   55MOL0     C 7350  10.558   5.217   5.644  0.5418 -0.1758  1.1289
   55MOL0     C 7351  10.635   5.327   5.729  0.9947  0.3692 -0.2915
   55MOL0     C 7352  10.741   5.260   5.823 -0.0459  0.0439 -0.0403
   55MOL0     C 7353  10.871   5.267   5.740  0.3359  0.9029 -0.3518
   55MOL0     C 7354  10.959   5.381   5.748 -0.1739  0.4353 -0.2592
   55MOL0     C 7355  11.024   5.486   5.758  0.9666  0.6421  0.1427
   55MOL0     C 7356  10.308   5.102   5.585 -0.0858  0.0215  1.1265
   55MOL0     C 7357  10.189   5.049   5.539  0.1327 -0.2194  0.0784
   55MOL0     H 7358   9.703   5.104   5.477  2.0340  0.2409  2.2106
   55MOL0     H 7359   9.486   5.006   5.523 -0.7724 -0.4477 -0.0023
   55MOL0     H 7360   9.380   4.890   5.690  0.5842 -0.6509  1.0504
   55MOL0     H 7361   9.287   4.885   5.546  0.2433  0.5085  0.6009
   55MOL0     H 7362   9.304   4.683   5.787  0.3758 -0.4753 -0.5871
   55MOL0     H 7363   9.179   4.800   5.772 -1.8937  0.8238 -0.7363
   55MOL0     H 7364   9.078   4.667   5.586  1.2566  2.6168 -0.4950
   55MOL0     H 7365   9.220   4.584   5.567  0.7287 -1.1091  1.4102
   55MOL0     H 7366   9.184   4.464   5.781  2.0466  1.9050 -0.7563
   55MOL0     H 7367   9.059   4.577   5.840  1.3442  0.3003  1.0728
   55MOL0     H 7368   8.920   4.491   5.628 -0.3965 -2.2491 -2.8561
   55MOL0     H 7369   9.037   4.358   5.627 -2.1408  0.1252 -1.6963
   55MOL0     H 7370   8.911   4.258   5.791 -1.1950 -1.3433  2.4011
   55MOL0     H 7371   8.979   4.380   5.900 -4.4836 -0.4323  3.6316
   55MOL0     H 7372   8.789   4.534   5.846 -0.4847  0.9521 -0.7385
   55MOL0     H 7373   8.712   4.420   5.736 -0.1402  3.8196  0.6260
   55MOL0     H 7374   8.799   4.338   6.010  1.0664  2.5388 -0.8528
   55MOL0     H 7375   8.676   4.248   5.916  1.7924 -0.8501  0.4710
   55MOL0     H 7376   8.447   4.350   5.862 -1.6972 -1.5603  1.5259
   55MOL0     H 7377   8.289   4.637   5.851  1.8306  1.4209  1.8792
   55MOL0     H 7378   8.239   4.465   5.893 -0.2588 -0.9719  0.6877
   55MOL0     H 7379   8.181   4.715   6.032  1.9625 -0.4972  2.5390
   55MOL0     H 7380   8.177   4.565   6.128  0.8583  0.7777  0.7814
   55MOL0     H 7381   7.951   4.623   6.052 -0.2605 -2.2232  1.9341
   55MOL0     H 7382   8.013   4.470   5.986  2.7178  0.0037  1.9440
   55MOL0     H 7383   7.912   4.568   5.796  0.1822 -0.6449  2.2563
   55MOL0     H 7384   8.078   4.590   5.770 -2.2465 -2.5343 -1.1550
   55MOL0     H 7385   7.930   4.990   5.743  1.0912 -2.8234  1.1716
   55MOL0     H 7386   7.708   5.225   5.849  2.6760 -0.4056 -0.2789
   55MOL0     H 7387   7.792   5.180   5.696 -1.4648 -0.0328 -2.5706
   55MOL0     H 7388   7.616   5.176   5.709  0.0949  0.8191 -0.3840
   55MOL0     H 7389   7.237   4.857   5.861  1.1851  0.8192 -0.7299
   55MOL0     H 7390   6.987   4.922   5.878 -1.4928  1.5185  0.9663
   55MOL0     H 7391   6.848   5.101   6.230 -0.0383 -1.4290 -1.1615
   55MOL0     H 7392   6.858   5.249   6.122 -1.2301  0.3910 -1.6785
   55MOL0     H 7393   6.637   5.177   6.017  1.4340  1.3438 -0.4205
   55MOL0     H 7394   6.632   5.033   6.130  0.7979  0.1776  0.2650
   55MOL0     H 7395   6.635   5.318   6.198 -0.2957  1.1258  3.3851
   55MOL0     H 7396   6.647   5.197   6.326 -1.4179  1.7606  1.1147
   55MOL0     H 7397   6.424   5.236   6.108  0.9469  1.5725 -0.9286
   55MOL0     H 7398   6.418   5.104   6.226  1.9696 -0.1446  0.0857
   55MOL0     H 7399   6.388   5.388   6.257  0.8429 -1.6727 -2.2491
   55MOL0     H 7400   6.427   5.284   6.406  0.0731 -3.7839  0.6404
   55MOL0     H 7401   6.176   5.267   6.227 -1.2887  1.1924  0.0504
   55MOL0     H 7402   6.224   5.154   6.357  0.2197  0.4435 -0.9360
   55MOL0     H 7403   6.178   5.455   6.400  1.1298 -0.7381 -0.6626
   55MOL0     H 7404   6.214   5.340   6.520 -0.3869 -2.0161  0.1256
   55MOL0     H 7405   5.994   5.215   6.463  0.2395  0.2954 -2.4485
   55MOL0     H 7406   5.961   5.337   6.348  1.1801 -1.8808 -1.1930
   55MOL0     H 7407   7.059   5.181   6.192  1.8748  0.6402  0.5890
   55MOL0     H 7408   7.323   5.129   6.171 -1.0855  2.1564 -1.7691
   55MOL0     H 7409   7.589   4.775   6.020  1.3392 -2.0867  0.0976
   55MOL0     H 7410   7.778   4.653   5.946 -1.1395 -0.3707  0.5662
   55MOL0     H 7411   9.657   4.620   5.534  0.8402 -0.3501 -3.5403
   55MOL0     H 7412   9.880   4.711   5.469 -1.1131 -2.3710 -1.1439
   55MOL0     H 7413  10.088   5.316   5.337  0.6711 -0.6353 -1.3246
   55MOL0     H 7414  10.313   5.396   5.434 -1.1790  0.7680 -0.0805
   55MOL0     H 7415  10.532   5.135   5.712  0.3746  0.1032  1.4025
   55MOL0     H 7416  10.628   5.169   5.575  2.6057  0.0941  2.9222
   55MOL0     H 7417  10.561   5.376   5.792  0.6586  1.2434 -1.3216
   55MOL0     H 7418  10.668   5.408   5.663 -0.0332 -0.1135 -1.4397
   55MOL0     H 7419  10.713   5.160   5.859  0.8938 -0.5766 -0.9640
   55MOL0     H 7420  10.753   5.318   5.915 -2.3951  0.8314 -0.1632
   55MOL0     H 7421  10.841   5.240   5.638 -0.6360 -3.7480  0.9253
   55MOL0     H 7422  10.923   5.181   5.785 -1.1433  0.0478 -0.1982
   55MOL0     H 7423  11.082   5.575   5.765  3.1113 -0.8267  3.8329
   55MOL0     H 7424  10.376   5.036   5.636  3.3705  1.0001 -1.7969
   55MOL0     H 7425  10.161   4.949   5.571 -1.8195 -0.5315 -2.2553
   56MOL0     O 7426  10.976   3.733  11.096 -0.1086 -0.4067  1.0355
   56MOL0     C 7427  11.006   3.696  10.982  0.0697 -0.0885  0.7576
   56MOL0     O 7428  10.920   3.669  10.881 -0.0214  0.5366  0.3882
   56MOL0     C 7429  10.786   3.703  10.896  0.3846  0.6778  0.6366
   56MOL0     C 7430  10.742   3.827  10.937  0.4763  0.2793 -0.0562
   56MOL0     C 7431  10.608   3.857  10.950  0.3880  0.9566 -0.6718
   56MOL0     C 7432  10.510   3.754  10.938 -0.3279  0.0401 -0.9674
   56MOL0     O 7433  10.384   3.761  10.967  0.0234 -0.5346 -0.5447
   56MOL0     C 7434  10.318   3.877  10.929 -0.9665  0.0659 -0.2644
   56MOL0     C 7435  10.196   3.874  11.020 -0.0794  0.4286  0.7105
   56MOL0     C 7436  10.087   3.778  10.966 -0.8844  0.4289  0.4819
   56MOL0     C 7437  10.020   3.813  10.831 -0.4190 -1.1621  0.0189
   56MOL0     C 7438   9.922   3.702  10.806  1.0862  0.3085  0.4531
   56MOL0     C 7439   9.847   3.728  10.675  0.5451  0.5280 -0.2824
   56MOL0     C 7440   9.783   3.596  10.618 -0.0248 -0.5212 -0.6496
   56MOL0     C 7441   9.872   3.524  10.517 -0.0058  0.1289 -0.7941
   56MOL0     N 7442   9.906   3.600  10.399 -0.3877  0.0001 -0.5688
   56MOL0     C 7443  10.034   3.653  10.386 -0.3432 -0.5380 -0.9101
   56MOL0     C 7444  10.022   3.722  10.270 -0.5517  0.5853 -1.6086
   56MOL0     C 7445  10.137   3.806  10.216  0.6042 -0.3082 -0.0973
   56MOL0     C 7446  10.094   3.943  10.200 -0.5001 -0.5849  0.5937
   56MOL0     C 7447  10.052   4.021  10.329  0.0508 -1.0251  0.2477
   56MOL0     C 7448  10.167   4.038  10.428 -0.1396 -0.2700  0.1697
   56MOL0     O 7449  10.137   4.118  10.542  0.4791 -0.6481 -0.4080
   56MOL0     C 7450  10.240   4.146  10.630 -0.4683  0.2240 -0.5698
   56MOL0     C 7451  10.379   4.119  10.619 -0.3742 -0.1054 -0.1543
   56MOL0     C 7452  10.466   4.153  10.723  0.5254 -0.3882 -0.5237
   56MOL0     C 7453  10.615   4.113  10.701 -0.1846 -0.5429 -0.6206
   56MOL0     C 7454  10.418   4.223  10.841 -0.7191 -0.1529  0.4616
   56MOL0     C 7455  10.502   4.271  10.950  0.1890 -0.3637  0.0991
   56MOL0     O 7456  10.635   4.265  10.940  0.1648 -0.2223 -1.0271
   56MOL0     C 7457  10.716   4.310  11.048 -0.1282 -0.1981  1.1365
   56MOL0     C 7458  10.844   4.259  11.062  0.0105 -0.7690 -0.1773
   56MOL0     C 7459  10.933   4.306  11.152  0.5015  0.8221  0.7725
   56MOL0     C 7460  10.910   4.419  11.231  0.5624 -0.1479  0.0259
   56MOL0     O 7461  10.997   4.481  11.313 -0.4668 -0.1820  0.1415
   56MOL0     C 7462  11.104   4.391  11.354 -0.1667  0.5573 -0.1189
   56MOL0     C 7463  11.229   4.412  11.264  0.4387 -0.1955 -0.3766
   56MOL0     C 7464  11.291   4.555  11.276  0.2709 -0.2962 -0.2177
   56MOL0     C 7465  11.420   4.574  11.196  0.6145  1.0260 -1.0498
   56MOL0     C 7466  11.465   4.724  11.208 -0.2433 -0.5552  0.6248
   56MOL0     C 7467  11.600   4.754  11.138  0.1090 -0.8264 -0.4437
   56MOL0     C 7468  11.673   4.898  11.146  1.0965  0.7253  0.6103
   56MOL0     C 7469  11.608   4.998  11.057  0.0849 -0.2402  0.1676
   56MOL0    Cl 7470  11.640   4.974  10.887 -0.5588  0.0603 -0.0598
   56MOL0     C 7471  10.780   4.474  11.222  0.1296  0.3792  0.0055
   56MOL0     C 7472  10.686   4.417  11.136  0.3393 -0.3998  0.5977
   56MOL0     O 7473  10.442   4.301  11.056 -0.1386  0.2655 -0.0897
   56MOL0     C 7474  10.279   4.242  10.854  0.2414  0.5212  0.0365
   56MOL0     C 7475  10.197   4.199  10.754  0.1271 -0.9421  0.2949
   56MOL0     N 7476   9.885   3.715  10.232 -0.3077  0.2771  0.4949
   56MOL0     N 7477   9.813   3.644  10.316  0.3813  0.1404  0.2675
   56MOL0     C 7478  10.561   3.627  10.907 -0.4573 -0.1621 -0.4800
   56MOL0     C 7479  10.695   3.600  10.876 -0.6842 -0.1694  0.0097
   56MOL0     C 7480  11.143   3.649  10.968 -1.0491  0.8652 -0.3030
   56MOL0     C 7481  11.247   3.659  11.068 -0.3587  0.2639 -0.2292
   56MOL0     C 7482  11.383   3.622  11.054  0.0742  0.6472 -0.0275
   56MOL0     C 7483  11.413   3.577  10.921 -0.7414  0.4357 -0.7253
   56MOL0     O 7484  11.534   3.521  10.882  0.1968 -0.7598 -0.2594
   56MOL0     C 7485  11.638   3.530  10.986 -0.6410 -0.1152  0.4275
   56MOL0     C 7486  11.779   3.473  10.938 -0.2304  1.1910 -0.3986
   56MOL0     C 7487  11.772   3.324  10.907 -0.9030  0.4525 -0.9282
   56MOL0     C 7488  11.696   3.289  10.777 -0.1764 -0.0882 -0.0328
   56MOL0     C 7489  11.763   3.181  10.697 -0.6803 -0.3830 -0.5813
   56MOL0     C 7490  11.822   3.097  10.637  0.2452  0.8368 -0.6096
   56MOL0     C 7491  11.318   3.555  10.824 -0.0416 -0.1678  0.6017
   56MOL0     C 7492  11.184   3.584  10.847  0.2645  0.2606 -0.5165
   56MOL0     H 7493  10.804   3.915  10.955  0.9247  0.1395 -0.9163
   56MOL0     H 7494  10.592   3.960  10.982  2.7301  1.8882 -2.2410
   56MOL0     H 7495  10.368   3.971  10.954 -1.3852  0.3077 -0.3273
   56MOL0     H 7496  10.290   3.873  10.823 -0.1689  0.3787 -0.4987
   56MOL0     H 7497  10.219   3.834  11.119  1.3984 -2.1901 -0.5890
   56MOL0     H 7498  10.147   3.972  11.022 -3.3963 -0.9187 -2.4346
   56MOL0     H 7499  10.126   3.678  10.943 -3.4384 -0.3147 -0.9073
   56MOL0     H 7500  10.012   3.750  11.040 -0.5970 -3.8870 -0.5739
   56MOL0     H 7501   9.983   3.916  10.822 -0.5526 -1.4019 -3.1068
   56MOL0     H 7502  10.100   3.805  10.758 -1.4115  1.5717 -1.5215
   56MOL0     H 7503   9.983   3.612  10.795  1.5079  0.2125  2.9117
   56MOL0     H 7504   9.850   3.686  10.887  1.6611 -0.8344  0.7465
   56MOL0     H 7505   9.767   3.800  10.696 -1.1423 -1.9606  2.9010
   56MOL0     H 7506   9.907   3.775  10.597 -0.4736  0.3435 -1.1992
   56MOL0     H 7507   9.756   3.537  10.706  0.6721 -1.0736 -0.8034
   56MOL0     H 7508   9.692   3.635  10.571  0.4665  1.7515  0.1361
   56MOL0     H 7509   9.829   3.430  10.484 -2.8821  1.2018 -0.3529
   56MOL0     H 7510   9.962   3.503  10.576 -1.2785  1.3104  1.7176
   56MOL0     H 7511  10.117   3.630  10.453  0.7667 -0.4511 -2.2067
   56MOL0     H 7512  10.233   3.801  10.270  0.6893 -1.0700 -0.3079
   56MOL0     H 7513  10.157   3.748  10.126  0.9045 -2.8736  1.5245
   56MOL0     H 7514  10.012   3.945  10.128  1.0781 -1.2040 -1.2965
   56MOL0     H 7515  10.172   4.007  10.158 -1.5764 -0.1498 -0.8430
   56MOL0     H 7516   9.966   3.973  10.375  0.3763 -2.0831 -0.2199
   56MOL0     H 7517  10.034   4.125  10.301  0.6934 -0.4485  1.8777
   56MOL0     H 7518  10.258   4.070  10.377 -1.4839  2.0220 -0.9201
   56MOL0     H 7519  10.191   3.936  10.459 -2.9675 -1.8245 -2.2367
   56MOL0     H 7520  10.421   4.069  10.532 -2.8341 -2.8018  0.0379
   56MOL0     H 7521  10.627   4.024  10.639 -1.7362 -1.2869  0.1133
   56MOL0     H 7522  10.671   4.205  10.681  0.5413 -0.4701  1.5417
   56MOL0     H 7523  10.656   4.081  10.797 -1.9759 -2.5872 -0.4764
   56MOL0     H 7524  10.861   4.171  11.000  3.5525 -0.2012 -0.2538
   56MOL0     H 7525  11.026   4.250  11.146 -0.9998 -1.7336 -0.6188
   56MOL0     H 7526  11.145   4.416  11.452 -0.7536  3.5915 -0.5517
   56MOL0     H 7527  11.069   4.289  11.370 -0.5573  0.7989  0.5984
   56MOL0     H 7528  11.299   4.331  11.286 -0.3148 -1.3161 -1.9034
   56MOL0     H 7529  11.201   4.405  11.159  1.9962  3.3878 -1.2065
   56MOL0     H 7530  11.312   4.582  11.380  2.3227 -0.6058 -0.5163
   56MOL0     H 7531  11.210   4.616  11.235  0.3022 -1.1275 -1.5567
   56MOL0     H 7532  11.493   4.506  11.242  1.0298  0.8591 -1.9155
   56MOL0     H 7533  11.400   4.546  11.092  0.4114  1.8275 -1.2324
   56MOL0     H 7534  11.472   4.753  11.313 -0.7467  1.8319  0.0720
   56MOL0     H 7535  11.387   4.788  11.167 -0.9752 -2.4619 -1.1481
   56MOL0     H 7536  11.664   4.675  11.178 -0.0413 -1.6859 -1.8428
   56MOL0     H 7537  11.593   4.725  11.033  0.0122  1.0224 -0.9727
   56MOL0     H 7538  11.774   4.882  11.107  0.4015 -1.8862 -0.3313
   56MOL0     H 7539  11.672   4.932  11.250 -2.1697 -0.4226  1.0624
   56MOL0     H 7540  11.640   5.101  11.074  0.6437  0.3755 -3.7878
   56MOL0     H 7541  11.499   4.996  11.064  0.0923 -0.4307  0.2599
   56MOL0     H 7542  10.753   4.556  11.287 -2.7120 -0.7786  0.4184
   56MOL0     H 7543  10.587   4.462  11.132  0.5707  0.0446 -0.4123
   56MOL0     H 7544  10.235   4.288  10.942  0.5691 -1.1772  1.1339
   56MOL0     H 7545  10.095   4.221  10.782  0.6345 -0.2508  1.6639
   56MOL0     H 7546  10.487   3.548  10.898 -0.9741  0.3013 -0.3614
   56MOL0     H 7547  10.731   3.506  10.836  0.2732  0.4895 -0.7148
   56MOL0     H 7548  11.217   3.710  11.159  1.8832  0.7193  0.3108
   56MOL0     H 7549  11.455   3.627  11.135  0.7518  0.2890 -0.6011
   56MOL0     H 7550  11.646   3.633  11.023  2.7719 -0.1618  0.1003
   56MOL0     H 7551  11.621   3.472  11.077  2.2213  0.4629  1.4316
   56MOL0     H 7552  11.849   3.494  11.019 -2.4157 -0.3558  2.0178
   56MOL0     H 7553  11.822   3.518  10.848  0.0669  0.6318 -0.5422
   56MOL0     H 7554  11.720   3.279  10.992  1.6410  0.4376  0.7244
   56MOL0     H 7555  11.874   3.283  10.903 -1.1927 -0.2532 -1.2227
   56MOL0     H 7556  11.685   3.378  10.714  0.3947 -0.4370 -0.6244
   56MOL0     H 7557  11.593   3.256  10.797 -0.2958 -0.5032 -1.2752
   56MOL0     H 7558  11.880   3.017  10.594 -1.1804 -2.6308  3.2511
   56MOL0     H 7559  11.332   3.507  10.728 -1.7495  0.6935 -0.1218
   56MOL0     H 7560  11.119   3.578  10.760  0.2040  1.0036 -0.5337
   57MOL0     O 7561   4.264   4.177   2.064  0.5356  0.0070  0.1373
   57MOL0     C 7562   4.250   4.259   2.153 -0.3621  0.3758 -0.0153
   57MOL0     O 7563   4.154   4.255   2.250 -0.7479  0.4863  0.0433
   57MOL0     C 7564   4.076   4.141   2.275  0.1178 -0.0291 -0.7327
   57MOL0     C 7565   4.101   4.011   2.241 -0.7216  0.2866  0.1560
   57MOL0     C 7566   4.022   3.902   2.291  0.1913  0.4610 -0.0334
   57MOL0     C 7567   3.924   3.925   2.387  1.2207  0.4146  0.8892
   57MOL0     O 7568   3.849   3.822   2.431  0.7411  0.2933  0.0882
   57MOL0     C 7569   3.729   3.844   2.514 -0.7132 -0.2976 -0.0163
   57MOL0     C 7570   3.684   3.700   2.548  0.2544 -0.9468 -0.1566
   57MOL0     C 7571   3.553   3.703   2.631  0.0869  0.5518  0.6390
   57MOL0     C 7572   3.510   3.555   2.628 -0.1748 -0.4086 -0.4369
   57MOL0     C 7573   3.380   3.537   2.703  0.0635  0.0633 -0.5394
   57MOL0     C 7574   3.308   3.405   2.690 -0.4394 -0.3389 -0.5037
   57MOL0     C 7575   3.169   3.431   2.755 -1.0373  0.2011  0.3534
   57MOL0     C 7576   3.110   3.300   2.810  0.3676 -0.6906  0.0803
   57MOL0     N 7577   2.964   3.315   2.848  0.0113  0.7015 -0.7127
   57MOL0     C 7578   2.908   3.380   2.955 -0.0351 -0.5507  0.3675
   57MOL0     C 7579   2.776   3.362   2.933 -1.0996  0.4509 -0.2533
   57MOL0     C 7580   2.671   3.401   3.040  0.2838  0.1795  0.2186
   57MOL0     C 7581   2.623   3.541   3.023 -0.1930  0.1370 -0.2131
   57MOL0     C 7582   2.541   3.593   3.142  0.0156 -0.1181 -0.1636
   57MOL0     C 7583   2.513   3.745   3.113  0.0977 -0.1775  0.5165
   57MOL0     O 7584   2.429   3.795   3.213  0.2812 -0.3967  0.0207
   57MOL0     C 7585   2.296   3.756   3.224 -0.0879 -0.2397  0.4556
   57MOL0     C 7586   2.216   3.729   3.120  0.5279 -0.2745  0.5185
   57MOL0     C 7587   2.091   3.679   3.145 -0.3008 -1.2960  0.3124
   57MOL0     C 7588   1.994   3.672   3.018  0.1220  0.0500 -0.8946
   57MOL0     C 7589   2.043   3.638   3.272 -0.4628 -1.4168  0.4141
   57MOL0     C 7590   1.934   3.546   3.302 -0.4341 -0.7780  0.1521
   57MOL0     O 7591   1.891   3.540   3.426 -0.0902  0.0644  0.1507
   57MOL0     C 7592   1.809   3.430   3.450 -0.3394  0.2074  0.0185
   57MOL0     C 7593   1.685   3.433   3.516 -0.0868 -0.1267 -0.3225
   57MOL0     C 7594   1.617   3.317   3.557  0.5076  0.0185 -1.2762
   57MOL0     C 7595   1.658   3.190   3.517  0.1296 -1.3995  0.4626
   57MOL0     O 7596   1.577   3.089   3.542  0.5562  0.7759  0.5188
   57MOL0     C 7597   1.591   2.954   3.490 -0.6887  0.5015 -0.5686
   57MOL0     C 7598   1.504   2.928   3.369  0.3014 -0.3132  0.0786
   57MOL0     C 7599   1.360   2.951   3.388  0.2436  0.1455  0.5469
   57MOL0     C 7600   1.297   2.903   3.522  0.5582  0.7147 -0.0437
   57MOL0     C 7601   1.140   2.914   3.525 -0.4551  0.1071 -0.1309
   57MOL0     C 7602   1.094   2.807   3.627  0.1823 -0.3454  0.6156
   57MOL0     C 7603   0.942   2.817   3.661 -0.9517  1.1050 -0.2123
   57MOL0     C 7604   0.912   2.724   3.785 -0.1439 -0.2810  1.0110
   57MOL0    Cl 7605   0.912   2.556   3.721  0.0829  0.2457 -0.2264
   57MOL0     C 7606   1.784   3.184   3.441  0.7351 -0.1008 -0.6562
   57MOL0     C 7607   1.855   3.303   3.421  0.1695 -0.3700  0.5281
   57MOL0     O 7608   1.887   3.490   3.210  0.1116  0.1485  0.2176
   57MOL0     C 7609   2.128   3.674   3.377  0.4140 -0.1297  0.1809
   57MOL0     C 7610   2.251   3.739   3.356 -0.6293 -0.1862 -0.7634
   57MOL0     N 7611   2.749   3.303   2.821 -0.0886 -0.9037 -0.1158
   57MOL0     N 7612   2.872   3.270   2.773  0.4290  0.0412 -0.5524
   57MOL0     C 7613   3.907   4.060   2.421  0.4016  0.1603 -0.8002
   57MOL0     C 7614   3.977   4.164   2.364  0.2031  0.2904  0.0990
   57MOL0     C 7615   4.331   4.373   2.151  0.3699 -0.6716 -0.4376
   57MOL0     C 7616   4.444   4.376   2.071 -0.7645  0.1694 -0.4966
   57MOL0     C 7617   4.521   4.494   2.073 -0.5771  0.4565 -0.2124
   57MOL0     C 7618   4.510   4.600   2.165 -0.3857  0.2713 -0.4192
   57MOL0     O 7619   4.599   4.708   2.192  0.3467 -0.3282 -0.1674
   57MOL0     C 7620   4.665   4.753   2.074  0.0325  0.0599  0.0356
   57MOL0     C 7621   4.756   4.873   2.122  0.1692  0.3041  0.5168
   57MOL0     C 7622   4.885   4.878   2.039  0.3851 -0.8858  0.6951
   57MOL0     C 7623   4.873   4.836   1.889  0.4311 -0.2484  0.4355
   57MOL0     C 7624   4.767   4.904   1.813  0.2809  0.8433  0.0856
   57MOL0     C 7625   4.668   4.960   1.775  0.3639  0.1075 -0.8397
   57MOL0     C 7626   4.404   4.584   2.252  0.7994 -0.0131 -0.1728
   57MOL0     C 7627   4.308   4.474   2.245 -0.1305 -0.8171  1.8677
   57MOL0     H 7628   4.180   3.987   2.171 -1.2672  2.5201 -1.3313
   57MOL0     H 7629   4.039   3.799   2.263 -0.6613  0.0966  0.7519
   57MOL0     H 7630   3.754   3.901   2.604 -0.4133 -0.7303  0.1786
   57MOL0     H 7631   3.650   3.889   2.454 -1.2495  0.7484  1.4299
   57MOL0     H 7632   3.665   3.651   2.453 -0.3644  2.9119 -2.2501
   57MOL0     H 7633   3.760   3.645   2.604  1.5738 -0.3289 -1.2653
   57MOL0     H 7634   3.576   3.738   2.732 -0.5565  0.0539  0.9683
   57MOL0     H 7635   3.484   3.769   2.577 -0.4381 -0.5082 -0.0175
   57MOL0     H 7636   3.504   3.517   2.526  0.5516 -0.8168 -0.3337
   57MOL0     H 7637   3.581   3.489   2.679 -1.3966 -0.4827  1.2845
   57MOL0     H 7638   3.398   3.562   2.808  1.0853  0.2350 -0.7376
   57MOL0     H 7639   3.321   3.614   2.652 -0.5266  2.1274  2.9297
   57MOL0     H 7640   3.309   3.382   2.583  1.1660 -2.7740 -0.0622
   57MOL0     H 7641   3.366   3.324   2.736  0.6207 -0.6599 -2.2750
   57MOL0     H 7642   3.174   3.507   2.834 -2.0095 -0.0859  0.7130
   57MOL0     H 7643   3.104   3.462   2.673 -0.6039  1.8768  0.6098
   57MOL0     H 7644   3.154   3.271   2.906  0.7361 -0.2398  0.0507
   57MOL0     H 7645   3.119   3.219   2.737 -0.4155 -0.3219 -0.4368
   57MOL0     H 7646   2.954   3.428   3.041 -0.6368  1.2414 -0.2594
   57MOL0     H 7647   2.580   3.342   3.030 -1.7646  2.9123  1.2212
   57MOL0     H 7648   2.710   3.382   3.140  0.2950 -0.5951  0.0731
   57MOL0     H 7649   2.571   3.549   2.927  1.0132 -0.4534 -0.9405
   57MOL0     H 7650   2.712   3.604   3.009 -0.5907  0.1077 -3.9618
   57MOL0     H 7651   2.590   3.579   3.239  0.6990  1.2474 -0.2831
   57MOL0     H 7652   2.454   3.526   3.134  0.9745 -1.7612  2.0167
   57MOL0     H 7653   2.472   3.751   3.012 -0.3914 -0.3855  0.6962
   57MOL0     H 7654   2.605   3.803   3.120  0.4671 -0.9147  2.4503
   57MOL0     H 7655   2.249   3.754   3.020  1.2258 -0.1630  0.7716
   57MOL0     H 7656   1.892   3.682   3.057  0.2447 -0.8839 -0.2942
   57MOL0     H 7657   2.008   3.745   2.937 -0.7050 -0.0910 -1.1780
   57MOL0     H 7658   1.997   3.575   2.967 -0.3900 -0.3997 -0.0936
   57MOL0     H 7659   1.647   3.534   3.533 -3.7017 -1.0833 -1.8783
   57MOL0     H 7660   1.515   3.316   3.595  0.3312 -1.5195 -1.7065
   57MOL0     H 7661   1.693   2.930   3.457 -0.9479 -3.0765  0.7711
   57MOL0     H 7662   1.576   2.877   3.566 -2.0796 -0.4626 -1.7527
   57MOL0     H 7663   1.530   2.994   3.285 -1.0605 -1.7537 -1.5500
   57MOL0     H 7664   1.508   2.825   3.334 -0.8411 -0.1269 -0.6788
   57MOL0     H 7665   1.307   2.902   3.306  1.2123  0.2185 -0.1366
   57MOL0     H 7666   1.346   3.059   3.374 -0.7321 -0.1205 -0.7307
   57MOL0     H 7667   1.317   2.797   3.538 -0.0499  0.9318  2.6307
   57MOL0     H 7668   1.352   2.955   3.600  1.9735  1.4618 -1.4855
   57MOL0     H 7669   1.091   2.907   3.428 -2.7486  1.9818  0.7604
   57MOL0     H 7670   1.111   3.017   3.551  2.0364  1.3111 -1.7358
   57MOL0     H 7671   1.114   2.707   3.589 -2.6108 -0.6135 -0.3830
   57MOL0     H 7672   1.152   2.830   3.717 -1.6909  0.9300  1.5741
   57MOL0     H 7673   0.878   2.786   3.578 -1.2278  1.1596 -0.0222
   57MOL0     H 7674   0.923   2.924   3.678  0.2339  1.6132 -1.8085
   57MOL0     H 7675   0.812   2.740   3.827 -1.1560  1.0343 -1.6349
   57MOL0     H 7676   0.984   2.741   3.866  1.3250  0.8042 -0.4558
   57MOL0     H 7677   1.821   3.087   3.408 -0.0503 -0.5591 -0.2075
   57MOL0     H 7678   1.950   3.297   3.368 -0.5292  2.3137 -1.2014
   57MOL0     H 7679   2.107   3.638   3.477 -6.4906 -4.2213 -2.0233
   57MOL0     H 7680   2.319   3.760   3.438  2.8185  1.0018 -3.6469
   57MOL0     H 7681   3.829   4.087   2.492 -0.1066  0.3452 -1.4119
   57MOL0     H 7682   3.936   4.263   2.383 -1.6816 -0.8644  2.4410
   57MOL0     H 7683   4.476   4.286   2.021 -3.2023 -1.2211  0.2707
   57MOL0     H 7684   4.605   4.498   2.004 -0.3525 -1.7531 -0.1427
   57MOL0     H 7685   4.726   4.670   2.039  1.2343 -1.2656  4.5501
   57MOL0     H 7686   4.593   4.790   2.000 -1.2709  2.4400  2.3373
   57MOL0     H 7687   4.793   4.853   2.223  1.2691  0.8211  0.2331
   57MOL0     H 7688   4.709   4.972   2.125 -1.2245 -0.3457  2.9539
   57MOL0     H 7689   4.957   4.814   2.093  1.2159 -1.3169 -0.8616
   57MOL0     H 7690   4.921   4.981   2.039  0.1604 -0.7840 -0.7656
   57MOL0     H 7691   4.855   4.728   1.885 -0.2460 -0.2327  2.1383
   57MOL0     H 7692   4.969   4.849   1.839  2.1715  0.1758  3.6087
   57MOL0     H 7693   4.577   5.005   1.743  0.3454  2.0950  1.7127
   57MOL0     H 7694   4.402   4.652   2.336  0.1269 -1.2390  0.8281
   57MOL0     H 7695   4.224   4.466   2.314 -0.2232 -0.8412  1.7527
   58MOL0     O 7696   8.370   1.592   4.755  0.2764  0.2294  0.7499
   58MOL0     C 7697   8.470   1.612   4.681  0.1891 -0.0212 -0.6212
   58MOL0     O 7698   8.475   1.593   4.543  0.1170 -0.1219  0.4605
   58MOL0     C 7699   8.360   1.563   4.471  0.2701  0.5554  0.7882
   58MOL0     C 7700   8.345   1.429   4.419  0.0388  0.0246  0.3290
   58MOL0     C 7701   8.225   1.390   4.350 -0.1194  0.4895 -0.5374
   58MOL0     C 7702   8.125   1.485   4.327 -0.0922 -0.7684 -0.2649
   58MOL0     O 7703   8.016   1.441   4.260 -0.2313 -0.1339 -0.5255
   58MOL0     C 7704   7.907   1.526   4.226 -0.1528 -0.8516 -0.7546
   58MOL0     C 7705   7.800   1.429   4.184 -0.1168  0.0300 -0.3000
   58MOL0     C 7706   7.768   1.297   4.248 -0.5951  0.3200  0.1472
   58MOL0     C 7707   7.643   1.235   4.179 -0.0102  0.1634 -0.5176
   58MOL0     C 7708   7.612   1.102   4.254  0.6709  0.3009 -0.1934
   58MOL0     C 7709   7.519   1.005   4.172 -1.3241 -0.6720 -0.3296
   58MOL0     C 7710   7.482   0.880   4.261  0.0839 -0.3684  0.6170
   58MOL0     C 7711   7.387   0.789   4.185 -0.9065  0.0768 -0.1888
   58MOL0     N 7712   7.355   0.661   4.248 -0.1148  0.6387  0.0406
   58MOL0     C 7713   7.446   0.587   4.322 -0.4909  0.1458 -0.1984
   58MOL0     C 7714   7.392   0.468   4.333  0.1603 -0.3493  0.3598
   58MOL0     C 7715   7.452   0.358   4.415  0.1668 -0.5235 -0.3439
   58MOL0     C 7716   7.498   0.248   4.322  0.4435 -0.0240  0.3355
   58MOL0     C 7717   7.621   0.295   4.244 -0.2730 -0.3349 -0.4130
   58MOL0     C 7718   7.673   0.189   4.141 -0.2504 -0.0074  0.3230
   58MOL0     O 7719   7.728   0.077   4.214 -0.1055 -0.5297  0.0744
   58MOL0     C 7720   7.801  -0.027   4.161 -0.6382 -0.4948 -0.8221
   58MOL0     C 7721   7.841  -0.030   4.030  0.2788  0.4976  0.9462
   58MOL0     C 7722   7.919  -0.136   3.978  1.1769  0.2066 -0.1854
   58MOL0     C 7723   7.947  -0.123   3.825 -0.3086  0.2127 -0.1226
   58MOL0     C 7724   7.948  -0.250   4.049  0.2496  0.1232  0.4648
   58MOL0     C 7725   8.045  -0.355   4.000  0.0176 -0.6673  0.0450
   58MOL0     O 7726   8.082  -0.449   4.096  0.0391  0.1343  0.2751
   58MOL0     C 7727   8.199  -0.521   4.057  1.2165 -0.1817 -0.5753
   58MOL0     C 7728   8.324  -0.459   4.079  0.0251 -0.3010  0.4750
   58MOL0     C 7729   8.444  -0.521   4.059 -0.4854 -1.0779 -0.3353
   58MOL0     C 7730   8.446  -0.644   3.992 -0.8201  0.6266  0.2355
   58MOL0     O 7731   8.564  -0.708   3.948  0.5232  0.0487 -0.2999
   58MOL0     C 7732   8.683  -0.690   4.026 -0.6472 -1.0078 -0.0579
   58MOL0     C 7733   8.782  -0.796   3.994  0.2983  0.2481  0.1782
   58MOL0     C 7734   8.917  -0.765   4.063 -0.1646 -0.1456  0.3231
   58MOL0     C 7735   9.020  -0.872   4.027  0.0210 -0.1541  0.0491
   58MOL0     C 7736   9.155  -0.859   4.108  0.0358  0.7149 -0.6600
   58MOL0     C 7737   9.256  -0.977   4.084  1.4119 -1.3726  0.1796
   58MOL0     C 7738   9.358  -0.955   3.974  0.1517 -0.1843 -0.6839
   58MOL0     C 7739   9.468  -1.062   3.991  0.2101  0.0771 -0.1167
   58MOL0    Cl 7740   9.584  -1.006   4.112  0.1755 -0.1254 -0.3786
   58MOL0     C 7741   8.326  -0.705   3.954 -0.6934  0.7833 -0.1195
   58MOL0     C 7742   8.205  -0.649   3.989  0.1679 -0.3444 -0.3025
   58MOL0     O 7743   8.069  -0.358   3.884 -0.2084  0.2696 -0.2789
   58MOL0     C 7744   7.900  -0.246   4.183  0.0270 -0.1608  0.0389
   58MOL0     C 7745   7.828  -0.141   4.236  0.1454  0.6788  0.1298
   58MOL0     N 7746   7.262   0.473   4.284 -0.5469  0.7583  1.0957
   58MOL0     N 7747   7.241   0.593   4.237 -0.4605  0.0371  0.2861
   58MOL0     C 7748   8.142   1.620   4.379  0.3514  0.1596  0.3892
   58MOL0     C 7749   8.261   1.656   4.447 -0.0161 -0.2464 -0.5337
   58MOL0     C 7750   8.603   1.630   4.761  0.3894 -0.1269  0.6505
   58MOL0     C 7751   8.721   1.627   4.688 -0.0650  0.0554 -0.1603
   58MOL0     C 7752   8.847   1.634   4.756  0.4214 -0.5427  0.3317
   58MOL0     C 7753   8.860   1.648   4.896  0.3277  0.2766 -1.1185
   58MOL0     O 7754   8.987   1.645   4.952 -0.0579  0.1368  0.3207
   58MOL0     C 7755   9.003   1.653   5.092 -0.3434 -0.1456 -0.4108
   58MOL0     C 7756   9.147   1.683   5.137 -0.7030  0.1905 -0.0722
   58MOL0     C 7757   9.186   1.830   5.119 -0.0334  0.1381  0.4955
   58MOL0     C 7758   9.255   1.864   4.991  0.8287 -1.7604  0.7039
   58MOL0     C 7759   9.327   1.994   4.987 -0.0618 -0.5670 -0.1250
   58MOL0     C 7760   9.388   2.094   4.998  0.5128 -0.8992  0.6631
   58MOL0     C 7761   8.728   1.643   4.970 -0.3688  0.7708 -0.0813
   58MOL0     C 7762   8.608   1.643   4.902 -0.3466  0.0235 -0.0084
   58MOL0     H 7763   8.415   1.348   4.436 -3.0314 -3.1200 -0.8196
   58MOL0     H 7764   8.205   1.289   4.316 -1.4685  0.5569 -0.0187
   58MOL0     H 7765   7.874   1.584   4.313 -0.0719 -0.8632 -0.7161
   58MOL0     H 7766   7.944   1.589   4.145  2.8719 -1.2887  0.1473
   58MOL0     H 7767   7.712   1.494   4.181 -2.1647 -2.5964 -1.0765
   58MOL0     H 7768   7.829   1.411   4.080  2.0083 -0.9846  0.4055
   58MOL0     H 7769   7.857   1.235   4.231 -0.8923  0.4221 -2.0332
   58MOL0     H 7770   7.750   1.306   4.356 -2.5563 -0.4141 -0.0915
   58MOL0     H 7771   7.567   1.314   4.176  1.4197  1.5787 -3.4145
   58MOL0     H 7772   7.662   1.216   4.073  0.6287 -0.4645 -0.2983
   58MOL0     H 7773   7.707   1.048   4.261  0.3235 -0.1313  1.5687
   58MOL0     H 7774   7.568   1.114   4.353 -2.6549 -2.2473 -1.1812
   58MOL0     H 7775   7.433   1.062   4.139 -1.4310  0.0279  1.0730
   58MOL0     H 7776   7.575   0.978   4.082 -2.8590 -1.8288 -0.9856
   58MOL0     H 7777   7.575   0.828   4.285  1.4425  2.7801  2.8511
   58MOL0     H 7778   7.430   0.914   4.351  3.4300 -1.0968  2.9830
   58MOL0     H 7779   7.437   0.761   4.092  0.5920  0.8275  0.3590
   58MOL0     H 7780   7.301   0.854   4.170  0.7242  2.3849 -0.1707
   58MOL0     H 7781   7.543   0.623   4.355 -0.2659  1.4996 -2.1282
   58MOL0     H 7782   7.528   0.399   4.482 -1.9189  0.6961  1.4324
   58MOL0     H 7783   7.374   0.319   4.482 -0.0082  0.3516 -0.0292
   58MOL0     H 7784   7.414   0.224   4.255 -2.7863 -0.6054  4.2214
   58MOL0     H 7785   7.520   0.154   4.374 -1.9085 -1.5484 -1.2028
   58MOL0     H 7786   7.706   0.328   4.305  1.4291  0.0822 -2.8475
   58MOL0     H 7787   7.599   0.377   4.176  0.7064  0.0434 -0.2919
   58MOL0     H 7788   7.755   0.229   4.080 -0.2865  0.6087  0.6673
   58MOL0     H 7789   7.598   0.143   4.076  0.1841 -0.1177 -0.1124
   58MOL0     H 7790   7.800   0.050   3.969 -1.5026 -1.3759 -0.3967
   58MOL0     H 7791   7.888  -0.195   3.769  0.7358 -1.2716  0.5897
   58MOL0     H 7792   7.912  -0.023   3.798  0.4710 -0.0621 -2.3255
   58MOL0     H 7793   8.051  -0.130   3.790  1.3384 -1.0365  4.2580
   58MOL0     H 7794   8.328  -0.358   4.119 -1.6184  0.2449 -0.6239
   58MOL0     H 7795   8.541  -0.473   4.068 -1.1605 -0.0604  2.7566
   58MOL0     H 7796   8.729  -0.594   3.999  0.1641 -1.5793 -0.7884
   58MOL0     H 7797   8.659  -0.681   4.132  0.7238  2.9750  0.0831
   58MOL0     H 7798   8.737  -0.890   4.028 -5.0524  2.3810 -0.0072
   58MOL0     H 7799   8.790  -0.804   3.885 -0.6087 -2.4134  0.2450
   58MOL0     H 7800   8.894  -0.760   4.170 -1.3820 -2.7823  0.2574
   58MOL0     H 7801   8.955  -0.671   4.020 -3.0962  1.2495  0.5169
   58MOL0     H 7802   8.986  -0.975   4.041 -0.1930 -0.1033 -0.0957
   58MOL0     H 7803   9.031  -0.868   3.918 -0.0832  1.7453  0.0726
   58MOL0     H 7804   9.131  -0.846   4.213  1.0190 -3.1041  0.1972
   58MOL0     H 7805   9.207  -0.774   4.062  0.4058 -0.7853 -3.2663
   58MOL0     H 7806   9.308  -1.002   4.176 -0.8752 -1.6828  1.4629
   58MOL0     H 7807   9.182  -1.055   4.063  0.5582 -0.6791  0.5213
   58MOL0     H 7808   9.409  -0.860   3.992  0.0438 -0.1322 -0.6501
   58MOL0     H 7809   9.306  -0.963   3.878  1.4858 -2.4073 -1.3082
   58MOL0     H 7810   9.507  -1.086   3.892 -0.6615 -1.6114 -0.0843
   58MOL0     H 7811   9.432  -1.160   4.023  0.9588 -0.2301 -0.1763
   58MOL0     H 7812   8.347  -0.800   3.906 -0.8380  2.1271 -3.0736
   58MOL0     H 7813   8.114  -0.702   3.962 -0.6030  0.4799  0.5813
   58MOL0     H 7814   7.931  -0.329   4.246  1.0729  0.8544  0.8992
   58MOL0     H 7815   7.790  -0.147   4.337 -2.3731 -2.2694 -0.8075
   58MOL0     H 7816   8.057   1.687   4.365 -0.5319 -0.3513  2.8187
   58MOL0     H 7817   8.273   1.754   4.492 -0.6704 -0.6669  0.5993
   58MOL0     H 7818   8.721   1.603   4.582 -3.1482 -0.2116 -0.1961
   58MOL0     H 7819   8.942   1.633   4.704 -0.0922 -0.7821 -0.6308
   58MOL0     H 7820   8.925   1.722   5.123  0.0721  1.2729 -2.3505
   58MOL0     H 7821   8.983   1.557   5.142 -0.3776 -0.9399 -1.8900
   58MOL0     H 7822   9.219   1.623   5.081 -1.6641 -0.4462 -0.6442
   58MOL0     H 7823   9.155   1.662   5.245  0.4933 -1.0304 -0.3685
   58MOL0     H 7824   9.252   1.855   5.202 -0.0942  1.6225  0.1245
   58MOL0     H 7825   9.103   1.899   5.137  1.4173  1.4425  2.6719
   58MOL0     H 7826   9.177   1.867   4.915  3.1847 -1.2696 -1.8256
   58MOL0     H 7827   9.324   1.785   4.963 -0.5513 -3.1341  1.0199
   58MOL0     H 7828   9.437   2.185   5.024  2.2289 -1.5103 -0.2363
   58MOL0     H 7829   8.729   1.654   5.077  0.3432 -2.1705  0.3136
   58MOL0     H 7830   8.518   1.671   4.956  1.3882  0.7027  2.7235
   59MOL0     O 7831   0.173   2.126  10.629 -0.0322 -0.3493 -0.1324
   59MOL0     C 7832   0.210   2.031  10.696  0.0500  0.7772 -0.3217
   59MOL0     O 7833   0.134   1.915  10.727 -0.5384  0.7837  0.4795
   59MOL0     C 7834  -0.002   1.926  10.696  0.2403  0.2949 -0.2303
   59MOL0     C 7835  -0.055   1.851  10.599 -0.3990  0.3150  0.5467
   59MOL0     C 7836  -0.186   1.870  10.556  0.0079 -0.4815 -0.3229
   59MOL0     C 7837  -0.273   1.930  10.643 -0.8906  0.2908 -1.0881
   59MOL0     O 7838  -0.403   1.927  10.615 -0.0682 -0.2907  0.1934
   59MOL0     C 7839  -0.497   1.953  10.719  0.3153 -0.4386  0.3592
   59MOL0     C 7840  -0.620   1.877  10.672 -0.0232  0.1135 -0.2105
   59MOL0     C 7841  -0.736   1.908  10.770 -1.3666  0.5733 -0.2771
   59MOL0     C 7842  -0.845   1.801  10.778 -1.1688  0.3077  0.4104
   59MOL0     C 7843  -0.941   1.827  10.893  0.0465 -0.1605 -0.0626
   59MOL0     C 7844  -1.045   1.718  10.893  0.0420 -0.8409 -0.2765
   59MOL0     C 7845  -1.159   1.739  10.986 -0.7876 -0.5551 -0.8462
   59MOL0     C 7846  -1.120   1.762  11.133  0.6944 -0.3568 -1.0567
   59MOL0     N 7847  -1.228   1.703  11.219 -0.1711  0.6843 -0.4350
   59MOL0     C 7848  -1.341   1.762  11.268 -0.3361  0.0273  0.2744
   59MOL0     C 7849  -1.401   1.665  11.342  0.4004 -0.5745  1.0978
   59MOL0     C 7850  -1.539   1.686  11.392  1.1987 -0.6435  0.5191
   59MOL0     C 7851  -1.634   1.650  11.283  0.0634 -0.1846 -0.4601
   59MOL0     C 7852  -1.775   1.642  11.338 -0.8346  0.1907 -0.3031
   59MOL0     C 7853  -1.867   1.558  11.254  0.5953 -0.4071 -0.1999
   59MOL0     O 7854  -1.908   1.643  11.139 -0.3290 -0.5489 -0.7483
   59MOL0     C 7855  -2.038   1.694  11.137  0.5718 -0.8025 -0.4459
   59MOL0     C 7856  -2.082   1.747  11.013 -0.5147 -0.0849  0.7038
   59MOL0     C 7857  -2.208   1.801  10.992  0.3184  0.3457  0.2993
   59MOL0     C 7858  -2.239   1.831  10.847  0.0806  0.3821  0.1919
   59MOL0     C 7859  -2.298   1.814  11.106 -1.0610 -0.2096 -0.1281
   59MOL0     C 7860  -2.429   1.898  11.117 -0.1897  0.2960 -0.1165
   59MOL0     O 7861  -2.472   1.930  11.246 -0.7088 -0.1498  0.8621
   59MOL0     C 7862  -2.579   2.017  11.262  0.1075  0.0648 -0.2298
   59MOL0     C 7863  -2.554   2.114  11.348  0.3411 -1.2721 -0.0095
   59MOL0     C 7864  -2.649   2.215  11.367 -0.4263  0.0586 -0.0686
   59MOL0     C 7865  -2.770   2.216  11.305  0.9632  0.0673 -0.0723
   59MOL0     O 7866  -2.855   2.322  11.327  0.2879 -0.6949 -0.3677
   59MOL0     C 7867  -2.992   2.306  11.285  0.1664 -0.3412  0.3050
   59MOL0     C 7868  -3.063   2.431  11.334  0.4830 -0.3477 -0.8198
   59MOL0     C 7869  -3.211   2.413  11.367  0.3570  0.3635  0.2928
   59MOL0     C 7870  -3.272   2.540  11.431  0.2435 -0.8928  0.5365
   59MOL0     C 7871  -3.391   2.519  11.521 -0.6145  0.4448 -0.5575
   59MOL0     C 7872  -3.516   2.501  11.441 -0.1067  0.5182  1.4143
   59MOL0     C 7873  -3.595   2.636  11.451  0.3312 -0.9123 -0.0947
   59MOL0     C 7874  -3.731   2.611  11.377  1.4375 -0.1289 -0.3001
   59MOL0    Cl 7875  -3.842   2.739  11.430  0.0383  0.7034 -0.3730
   59MOL0     C 7876  -2.806   2.108  11.226 -0.2080 -0.4948 -0.6168
   59MOL0     C 7877  -2.706   2.012  11.203  0.2906 -0.6537  0.2824
   59MOL0     O 7878  -2.483   1.922  11.010  0.1437 -0.0317 -0.2183
   59MOL0     C 7879  -2.256   1.754  11.232  0.6232 -0.7552 -0.5851
   59MOL0     C 7880  -2.131   1.707  11.249 -0.9353  0.1931 -0.1575
   59MOL0     N 7881  -1.325   1.546  11.333 -0.5470 -0.1738 -0.0763
   59MOL0     N 7882  -1.222   1.572  11.263  0.0913 -0.5607  0.0039
   59MOL0     C 7883  -0.222   2.010  10.744  0.0283 -0.2846 -1.4518
   59MOL0     C 7884  -0.082   2.014  10.763  0.7736  0.8244 -0.7857
   59MOL0     C 7885   0.341   2.040  10.766 -0.3559 -0.3767 -0.5231
   59MOL0     C 7886   0.426   2.155  10.758  0.2988  0.1408 -0.3848
   59MOL0     C 7887   0.550   2.158  10.823  0.4364  0.0527 -0.6366
   59MOL0     C 7888   0.594   2.050  10.902 -0.0724  1.2748 -0.1860
   59MOL0     O 7889   0.727   2.059  10.943 -0.0779 -0.3250  0.0938
   59MOL0     C 7890   0.784   1.965  11.033  0.2949  0.0798  0.1222
   59MOL0     C 7891   0.719   1.966  11.174 -0.5358 -0.2055  0.3028
   59MOL0     C 7892   0.735   2.119  11.228  0.2114  0.1066 -0.5782
   59MOL0     C 7893   0.717   2.132  11.381 -0.9925  0.2773 -0.6055
   59MOL0     C 7894   0.572   2.124  11.417  0.0350 -0.0089 -0.7703
   59MOL0     C 7895   0.452   2.103  11.449 -0.0156  0.4538  1.4561
   59MOL0     C 7896   0.515   1.931  10.903  0.5946 -0.4147  0.7400
   59MOL0     C 7897   0.389   1.929  10.836 -0.1958  1.0849 -0.7248
   59MOL0     H 7898   0.008   1.795  10.531 -1.5378  2.0522 -2.0704
   59MOL0     H 7899  -0.230   1.817  10.473  0.0470  1.4538 -1.6343
   59MOL0     H 7900  -0.463   1.920  10.817 -1.7122  1.3268  1.7492
   59MOL0     H 7901  -0.525   2.058  10.732  0.7269 -0.2666 -0.1080
   59MOL0     H 7902  -0.645   1.928  10.579  2.9023  1.9232 -0.1313
   59MOL0     H 7903  -0.596   1.771  10.664 -1.6356 -0.4693  1.7213
   59MOL0     H 7904  -0.703   1.891  10.873 -4.5382 -0.9987  0.6189
   59MOL0     H 7905  -0.781   2.007  10.752 -0.2977  0.8480 -1.6101
   59MOL0     H 7906  -0.891   1.778  10.681 -0.7276 -1.4101  0.5839
   59MOL0     H 7907  -0.793   1.714  10.818 -2.3271  0.0947  1.5283
   59MOL0     H 7908  -0.881   1.809  10.982  1.7972  2.0178 -0.7103
   59MOL0     H 7909  -0.990   1.925  10.895 -0.8289 -0.5880 -0.0518
   59MOL0     H 7910  -1.099   1.718  10.798 -2.0273 -1.0250  0.8269
   59MOL0     H 7911  -1.000   1.624  10.925 -2.7467 -2.0021  0.4986
   59MOL0     H 7912  -1.203   1.834  10.954  1.1216  1.7571  2.6593
   59MOL0     H 7913  -1.228   1.654  10.986  0.4551 -1.7591  2.4999
   59MOL0     H 7914  -1.127   1.867  11.162 -4.0941 -0.2591 -1.8285
   59MOL0     H 7915  -1.021   1.718  11.150  1.3058  1.6584  1.3138
   59MOL0     H 7916  -1.382   1.859  11.242 -2.5729 -0.9337 -0.0777
   59MOL0     H 7917  -1.556   1.615  11.473 -2.0870  1.2507  1.6901
   59MOL0     H 7918  -1.567   1.788  11.419  1.0571 -0.6316  0.3294
   59MOL0     H 7919  -1.601   1.558  11.235  0.3522  1.4427 -3.6175
   59MOL0     H 7920  -1.636   1.735  11.213  0.5135 -0.3728 -0.7019
   59MOL0     H 7921  -1.817   1.743  11.350  0.9906  0.9580 -0.0993
   59MOL0     H 7922  -1.758   1.584  11.429  4.0143 -0.7158 -1.5160
   59MOL0     H 7923  -1.955   1.515  11.304 -1.2899  0.2311 -2.7306
   59MOL0     H 7924  -1.812   1.471  11.218 -0.9434 -0.8641 -1.5615
   59MOL0     H 7925  -2.014   1.752  10.928 -0.8839 -0.0223  0.4088
   59MOL0     H 7926  -2.343   1.805  10.823 -0.2656  3.2000 -1.8460
   59MOL0     H 7927  -2.229   1.939  10.832  2.2985  0.4824  1.8579
   59MOL0     H 7928  -2.182   1.772  10.774  0.6671  2.0731 -0.7787
   59MOL0     H 7929  -2.457   2.134  11.391  0.9110 -2.5061 -0.6854
   59MOL0     H 7930  -2.619   2.289  11.441 -1.8987 -0.4267  1.0637
   59MOL0     H 7931  -2.997   2.291  11.177 -2.6579 -1.7549  0.5566
   59MOL0     H 7932  -3.040   2.218  11.329  0.0724 -0.7281 -0.5611
   59MOL0     H 7933  -3.015   2.456  11.429 -0.6016 -0.5428 -0.1971
   59MOL0     H 7934  -3.050   2.520  11.272  2.9567 -1.2303 -1.6559
   59MOL0     H 7935  -3.229   2.329  11.434 -1.5769 -0.1295 -0.7344
   59MOL0     H 7936  -3.271   2.382  11.280 -0.5422 -1.0115  1.3624
   59MOL0     H 7937  -3.196   2.594  11.488  1.2133 -0.0848 -1.4091
   59MOL0     H 7938  -3.299   2.612  11.353 -3.7056 -2.0730  0.6084
   59MOL0     H 7939  -3.401   2.603  11.590 -2.3089 -0.9626  1.0287
   59MOL0     H 7940  -3.386   2.429  11.583  1.1987 -0.1245 -1.4441
   59MOL0     H 7941  -3.489   2.476  11.338  2.3376  1.7741  1.6776
   59MOL0     H 7942  -3.566   2.410  11.475  1.6504 -1.0797 -0.0439
   59MOL0     H 7943  -3.542   2.727  11.420 -0.0537 -0.8914 -0.6959
   59MOL0     H 7944  -3.617   2.647  11.558  1.9002  0.8443  0.1173
   59MOL0     H 7945  -3.777   2.517  11.410  0.5599  0.7687  1.1762
   59MOL0     H 7946  -3.719   2.634  11.271 -0.8290  1.1141 -0.3558
   59MOL0     H 7947  -2.898   2.106  11.167  0.3319 -0.3219 -1.4764
   59MOL0     H 7948  -2.726   1.924  11.143 -2.5986 -1.2084  1.9095
   59MOL0     H 7949  -2.322   1.758  11.317  0.4583  0.3213 -0.7484
   59MOL0     H 7950  -2.098   1.685  11.350 -0.8838 -1.2069 -0.4592
   59MOL0     H 7951  -0.280   2.073  10.811 -0.3555  0.9452 -2.8889
   59MOL0     H 7952  -0.037   2.061  10.849  1.0270 -0.8897  0.0670
   59MOL0     H 7953   0.385   2.240  10.706 -0.0482  0.8051  0.9337
   59MOL0     H 7954   0.614   2.246  10.810  1.7607 -1.1523 -3.1069
   59MOL0     H 7955   0.777   1.866  10.986 -2.2862 -0.0549  0.6159
   59MOL0     H 7956   0.891   1.973  11.052  0.5513 -2.1746 -0.0857
   59MOL0     H 7957   0.773   1.901  11.243  0.6126  0.1336 -0.2463
   59MOL0     H 7958   0.612   1.943  11.176 -1.3844  3.0442 -0.7366
   59MOL0     H 7959   0.657   2.179  11.180  0.8079  2.2559  1.0103
   59MOL0     H 7960   0.829   2.160  11.188 -0.6790  1.2372 -1.6086
   59MOL0     H 7961   0.766   2.222  11.420  0.3129 -1.1268  1.1768
   59MOL0     H 7962   0.771   2.054  11.435  0.0320 -0.9816 -3.2514
   59MOL0     H 7963   0.349   2.085  11.470 -0.7506  1.9713 -0.5301
   59MOL0     H 7964   0.565   1.844  10.942  2.6413  0.1696 -0.4588
   59MOL0     H 7965   0.333   1.836  10.834 -0.9239  1.5252 -1.4914
   60MOL0     O 7966   8.194   4.087   3.412  0.1830  0.1110  0.3929
   60MOL0     C 7967   8.230   4.167   3.492 -0.1602 -0.0751 -0.1000
   60MOL0     O 7968   8.171   4.285   3.517  1.4792  0.2873  0.6379
   60MOL0     C 7969   8.032   4.304   3.479  0.2020  0.3076 -0.0252
   60MOL0     C 7970   7.936   4.209   3.441  0.6359 -0.2481 -0.0603
   60MOL0     C 7971   7.798   4.242   3.419 -0.0548  0.2554  0.5403
   60MOL0     C 7972   7.749   4.371   3.431 -0.7190 -0.9833 -1.3646
   60MOL0     O 7973   7.617   4.383   3.417  0.5295 -0.0146 -0.0332
   60MOL0     C 7974   7.550   4.512   3.434  0.1630  0.0429  0.9022
   60MOL0     C 7975   7.403   4.507   3.411 -0.3239  0.6776 -0.5354
   60MOL0     C 7976   7.315   4.444   3.525  0.0667  0.6355  0.0595
   60MOL0     C 7977   7.167   4.449   3.475 -0.0106  0.7055 -0.2510
   60MOL0     C 7978   7.063   4.424   3.590  0.2455  0.3176 -0.8640
   60MOL0     C 7979   6.924   4.437   3.540 -0.5737  0.0863  1.0488
   60MOL0     C 7980   6.813   4.404   3.641 -0.3998  0.1643 -0.2041
   60MOL0     C 7981   6.830   4.473   3.774 -0.0723 -0.7463 -0.2548
   60MOL0     N 7982   6.701   4.494   3.836  0.8593 -0.0790 -1.0329
   60MOL0     C 7983   6.626   4.393   3.892  0.7218  0.6583 -0.0999
   60MOL0     C 7984   6.497   4.444   3.903  0.0598  0.3772 -0.1710
   60MOL0     C 7985   6.374   4.384   3.968  0.2194 -0.5195  0.7864
   60MOL0     C 7986   6.242   4.465   3.941 -0.1245  1.0787 -0.2688
   60MOL0     C 7987   6.115   4.391   4.003  0.2522  0.1277  0.3553
   60MOL0     C 7988   5.981   4.448   3.973  0.6239 -0.4330 -0.2091
   60MOL0     O 7989   5.973   4.584   4.020 -0.6621 -0.1475  0.4314
   60MOL0     C 7990   5.863   4.655   3.975  0.2405  0.4491  0.3027
   60MOL0     C 7991   5.849   4.784   4.025  0.1675 -1.0405  0.8167
   60MOL0     C 7992   5.731   4.865   3.979 -0.4183 -0.9837  0.1046
   60MOL0     C 7993   5.729   5.007   4.027  0.2754 -0.9669 -0.0618
   60MOL0     C 7994   5.620   4.813   3.910 -0.5776 -0.3494 -0.1701
   60MOL0     C 7995   5.514   4.905   3.864 -1.0447  0.0935 -0.1173
   60MOL0     O 7996   5.541   4.955   3.740  0.1040  0.3294 -0.5937
   60MOL0     C 7997   5.467   5.059   3.707  0.1601  0.0790 -0.9362
   60MOL0     C 7998   5.350   5.041   3.634  0.3800 -0.5303 -0.0352
   60MOL0     C 7999   5.267   5.145   3.599 -0.7033  1.3132  0.5924
   60MOL0     C 8000   5.290   5.268   3.645 -0.0090 -0.6222 -0.4574
   60MOL0     O 8001   5.203   5.370   3.637 -0.3096 -0.3558  0.3391
   60MOL0     C 8002   5.069   5.345   3.585 -0.5232  0.0969 -0.0099
   60MOL0     C 8003   4.975   5.452   3.640 -0.6664 -0.4635 -0.0123
   60MOL0     C 8004   4.838   5.439   3.589 -0.4070 -0.3018  0.3043
   60MOL0     C 8005   4.749   5.523   3.669  0.3535 -0.3087  0.6218
   60MOL0     C 8006   4.615   5.519   3.595  0.7081  0.8437  0.2576
   60MOL0     C 8007   4.513   5.627   3.650  0.1154  0.0099  0.8714
   60MOL0     C 8008   4.369   5.593   3.601  0.2048 -0.4273 -0.1296
   60MOL0     C 8009   4.264   5.701   3.637  0.4843  0.3908 -0.8305
   60MOL0    Cl 8010   4.317   5.864   3.589 -0.3456 -0.4021 -0.2090
   60MOL0     C 8011   5.407   5.295   3.708 -0.7808 -0.6135  0.2891
   60MOL0     C 8012   5.499   5.195   3.745  0.0250  0.9486 -0.2874
   60MOL0     O 8013   5.404   4.899   3.918  1.3544 -0.0353  0.0299
   60MOL0     C 8014   5.637   4.678   3.868  1.3465 -0.0590 -0.9354
   60MOL0     C 8015   5.752   4.602   3.899 -0.3357 -0.1192 -0.6681
   60MOL0     N 8016   6.512   4.580   3.870 -0.7145  0.4460  0.3539
   60MOL0     N 8017   6.626   4.603   3.824 -0.5478  0.3319 -0.4220
   60MOL0     C 8018   7.850   4.468   3.463  0.2016  1.6622  0.0446
   60MOL0     C 8019   7.986   4.439   3.471 -0.4889 -0.8912 -0.5982
   60MOL0     C 8020   8.358   4.145   3.573  0.3714 -0.0034 -0.5222
   60MOL0     C 8021   8.380   4.208   3.696 -0.3763 -0.1410  0.3649
   60MOL0     C 8022   8.505   4.197   3.756  0.2625  0.0817 -0.5217
   60MOL0     C 8023   8.606   4.123   3.695 -0.6252 -1.0502  0.1442
   60MOL0     O 8024   8.735   4.095   3.749  0.2454  0.3055 -0.2568
   60MOL0     C 8025   8.760   4.140   3.881  0.3211  0.3539  0.1250
   60MOL0     C 8026   8.903   4.127   3.919 -0.2700 -0.9781 -0.0536
   60MOL0     C 8027   8.946   3.979   3.939 -0.3081  0.3746 -0.4962
   60MOL0     C 8028   8.980   3.910   3.802  0.9586 -0.5329 -0.5048
   60MOL0     C 8029   9.114   3.949   3.761  0.3568 -0.2281  0.2791
   60MOL0     C 8030   9.215   3.963   3.693 -0.4180 -0.1015  0.0179
   60MOL0     C 8031   8.589   4.072   3.567 -0.1203 -0.1673 -0.5407
   60MOL0     C 8032   8.470   4.087   3.504  0.1357  0.2893  0.0405
   60MOL0     H 8033   7.967   4.105   3.439 -1.8720 -1.0400 -0.0401
   60MOL0     H 8034   7.722   4.168   3.399 -0.0647  0.3732  0.1340
   60MOL0     H 8035   7.570   4.547   3.536  1.0745 -0.3494  0.8765
   60MOL0     H 8036   7.599   4.571   3.356  0.0978 -1.0539  0.0011
   60MOL0     H 8037   7.369   4.610   3.401 -2.3039  0.2590  1.3490
   60MOL0     H 8038   7.383   4.456   3.316  0.5110  0.9505 -0.8701
   60MOL0     H 8039   7.343   4.339   3.539 -0.4496  0.3476 -0.9709
   60MOL0     H 8040   7.338   4.502   3.615 -0.7081  0.2242  0.5301
   60MOL0     H 8041   7.152   4.552   3.440 -3.2391  0.3029 -0.3567
   60MOL0     H 8042   7.147   4.375   3.397 -1.5190 -1.3135  1.9465
   60MOL0     H 8043   7.072   4.323   3.630  0.1211 -1.2719 -4.4937
   60MOL0     H 8044   7.082   4.500   3.666 -0.9688  0.7000 -0.9223
   60MOL0     H 8045   6.902   4.538   3.502 -1.0392  0.0174  1.1246
   60MOL0     H 8046   6.920   4.366   3.456 -0.4609 -0.3694  1.4276
   60MOL0     H 8047   6.714   4.410   3.594  0.2975  0.0073 -1.7579
   60MOL0     H 8048   6.810   4.297   3.662 -0.3316  0.7629  3.6444
   60MOL0     H 8049   6.872   4.573   3.759 -0.4661 -0.9305 -3.2374
   60MOL0     H 8050   6.893   4.413   3.840  0.8859 -0.5729 -0.9997
   60MOL0     H 8051   6.660   4.294   3.923  2.3419  1.2534  0.1315
   60MOL0     H 8052   6.356   4.283   3.931  0.1391 -0.7866  1.5353
   60MOL0     H 8053   6.376   4.387   4.077  2.0407  2.3505  0.7946
   60MOL0     H 8054   6.240   4.470   3.831  1.4861  2.0774 -0.2842
   60MOL0     H 8055   6.246   4.570   3.971 -1.0308  2.0942 -3.2622
   60MOL0     H 8056   6.138   4.379   4.109  3.1213  2.7491  0.1660
   60MOL0     H 8057   6.120   4.291   3.957 -2.1563  0.8140 -1.5915
   60MOL0     H 8058   5.903   4.392   4.025 -0.4937  0.9574 -0.3207
   60MOL0     H 8059   5.962   4.448   3.865  3.7797  0.9972 -0.8939
   60MOL0     H 8060   5.924   4.825   4.093  1.1293 -2.8016  0.8603
   60MOL0     H 8061   5.833   5.038   4.046  1.2373 -3.0090 -1.6543
   60MOL0     H 8062   5.680   5.073   3.955 -0.8736  2.2438  3.3028
   60MOL0     H 8063   5.682   5.017   4.125  3.5385  0.6130  1.5204
   60MOL0     H 8064   5.315   4.943   3.603  0.3350 -0.5105 -0.0467
   60MOL0     H 8065   5.183   5.107   3.542  0.2175 -0.9597  0.6619
   60MOL0     H 8066   5.053   5.342   3.477 -1.7072 -2.9367  0.1512
   60MOL0     H 8067   5.032   5.250   3.624  0.4936 -1.4412 -2.5461
   60MOL0     H 8068   4.973   5.463   3.749 -0.0835  1.0463 -0.1260
   60MOL0     H 8069   4.995   5.547   3.591 -2.0604 -1.1964 -2.1167
   60MOL0     H 8070   4.809   5.333   3.595  2.0955 -0.9869  2.2747
   60MOL0     H 8071   4.819   5.477   3.488  2.1730  2.1189  0.5988
   60MOL0     H 8072   4.732   5.486   3.771 -1.4994 -0.2731  0.3565
   60MOL0     H 8073   4.789   5.624   3.675  1.0754 -0.5783  0.3728
   60MOL0     H 8074   4.580   5.416   3.605  3.5500 -0.0284  3.2245
   60MOL0     H 8075   4.626   5.549   3.491  0.6421  1.5988  0.4624
   60MOL0     H 8076   4.511   5.626   3.760 -1.1486 -0.6137  0.8697
   60MOL0     H 8077   4.540   5.730   3.626  0.8435 -0.7176 -1.7518
   60MOL0     H 8078   4.335   5.500   3.647  0.0116 -0.5906 -0.6004
   60MOL0     H 8079   4.375   5.603   3.492  2.5358 -0.2744 -0.0486
   60MOL0     H 8080   4.248   5.699   3.745  4.2156 -2.8678 -0.0677
   60MOL0     H 8081   4.179   5.685   3.570  0.3529 -2.1158 -0.1754
   60MOL0     H 8082   5.409   5.394   3.751 -0.3078 -1.7101  2.9649
   60MOL0     H 8083   5.589   5.227   3.796  0.7847 -1.4716  0.0310
   60MOL0     H 8084   5.554   4.623   3.823  0.5167 -0.4969  1.0420
   60MOL0     H 8085   5.747   4.496   3.875 -0.3787 -0.8728  2.2886
   60MOL0     H 8086   7.822   4.573   3.465  2.3644  2.3613 -1.9183
   60MOL0     H 8087   8.060   4.515   3.492 -1.6981 -0.4590  2.6969
   60MOL0     H 8088   8.300   4.260   3.749 -0.7751 -1.3110  0.9409
   60MOL0     H 8089   8.512   4.235   3.858 -0.0317  1.3155 -0.9440
   60MOL0     H 8090   8.739   4.247   3.882 -2.2273 -0.0853  0.5365
   60MOL0     H 8091   8.689   4.090   3.948 -2.0195 -1.3132 -3.3037
   60MOL0     H 8092   8.914   4.172   4.019 -0.7227 -1.9191  0.4372
   60MOL0     H 8093   8.970   4.167   3.843 -2.8274  1.6419 -1.1016
   60MOL0     H 8094   8.871   3.912   3.982  0.4747 -0.0212  0.2704
   60MOL0     H 8095   9.034   3.969   4.002 -2.5280 -1.1833  2.6259
   60MOL0     H 8096   8.906   3.919   3.722 -0.2499 -0.4929  0.5808
   60MOL0     H 8097   8.983   3.804   3.826 -3.8094 -0.7705 -0.0590
   60MOL0     H 8098   9.301   3.971   3.629  0.3365  0.2925  1.0520
   60MOL0     H 8099   8.680   4.026   3.529  0.9695  1.6063 -0.1831
   60MOL0     H 8100   8.451   4.059   3.401 -0.2275  0.2903  0.1073
   61MOL0     O 8101   3.765   8.362   0.668 -0.8829  0.0475 -0.4331
   61MOL0     C 8102   3.776   8.362   0.790  0.2908 -0.0491 -0.0142
   61MOL0     O 8103   3.671   8.340   0.876 -0.1542  0.2733 -0.9183
   61MOL0     C 8104   3.550   8.310   0.824  0.1032  0.6106 -0.2439
   61MOL0     C 8105   3.519   8.202   0.749  0.2521  0.6009  0.5342
   61MOL0     C 8106   3.395   8.165   0.699  0.3542  0.2732  0.6409
   61MOL0     C 8107   3.285   8.245   0.736 -0.3016  0.2865 -0.2599
   61MOL0     O 8108   3.158   8.214   0.696  0.5737  0.0517 -0.0662
   61MOL0     C 8109   3.042   8.299   0.726  0.3263  0.2161  0.9936
   61MOL0     C 8110   2.991   8.286   0.870 -1.7030 -0.6409  0.0141
   61MOL0     C 8111   2.845   8.272   0.886  0.3553  0.5215  0.3441
   61MOL0     C 8112   2.802   8.236   1.030 -0.5443 -0.5944  0.0283
   61MOL0     C 8113   2.663   8.172   1.052 -0.4419 -1.0465 -0.4308
   61MOL0     C 8114   2.637   8.194   1.202 -0.1934 -0.7054 -1.2359
   61MOL0     C 8115   2.506   8.124   1.254  0.1605 -0.7379 -0.2877
   61MOL0     C 8116   2.379   8.201   1.241  0.1651 -0.3834  0.5858
   61MOL0     N 8117   2.261   8.152   1.300 -0.2556  0.3628  0.4232
   61MOL0     C 8118   2.207   8.200   1.418  0.3512  0.1916 -0.9371
   61MOL0     C 8119   2.102   8.112   1.437  0.6379  0.5741 -0.6614
   61MOL0     C 8120   2.002   8.111   1.557 -0.8474 -0.3732 -0.3374
   61MOL0     C 8121   1.858   8.147   1.517 -0.2637  0.1438  0.7998
   61MOL0     C 8122   1.783   8.020   1.473  0.1957  0.5684  0.3958
   61MOL0     C 8123   1.668   8.050   1.377 -0.5730 -0.3975 -0.0369
   61MOL0     O 8124   1.582   8.131   1.443  0.4527  0.2569 -0.2835
   61MOL0     C 8125   1.458   8.149   1.385  0.1338 -0.4741  1.3081
   61MOL0     C 8126   1.441   8.150   1.238  0.5895 -1.0739  0.6674
   61MOL0     C 8127   1.314   8.168   1.188  0.1488  0.4373 -0.5556
   61MOL0     C 8128   1.297   8.180   1.039 -0.4741  0.0738 -0.2005
   61MOL0     C 8129   1.205   8.203   1.273 -0.3371 -0.6196  0.8515
   61MOL0     C 8130   1.070   8.232   1.224  0.5025 -0.6265 -0.3859
   61MOL0     O 8131   0.987   8.130   1.249 -0.1046  0.4058 -0.2396
   61MOL0     C 8132   0.851   8.144   1.237  0.2389  0.1768 -0.4322
   61MOL0     C 8133   0.771   8.177   1.343 -0.3875  0.7489  0.2522
   61MOL0     C 8134   0.632   8.198   1.324  0.1485  0.7512  0.7746
   61MOL0     C 8135   0.571   8.178   1.197 -0.9845  0.4731 -0.3338
   61MOL0     O 8136   0.436   8.199   1.162 -0.5113  0.2838  0.0117
   61MOL0     C 8137   0.345   8.271   1.242  0.4820 -0.6924  0.9598
   61MOL0     C 8138   0.206   8.278   1.170 -0.0364  0.2042  0.3056
   61MOL0     C 8139   0.102   8.353   1.254  0.0169 -0.3559 -0.5623
   61MOL0     C 8140  -0.026   8.371   1.170 -0.1481  0.3292  0.4751
   61MOL0     C 8141  -0.139   8.411   1.255  0.3290 -0.1191 -0.6122
   61MOL0     C 8142  -0.265   8.477   1.179  0.5898 -0.3078  1.0171
   61MOL0     C 8143  -0.369   8.528   1.285 -0.2058 -0.5204  0.3338
   61MOL0     C 8144  -0.494   8.555   1.212  0.1222 -0.2740 -0.2833
   61MOL0    Cl 8145  -0.635   8.596   1.320 -0.2705  0.1333  0.8188
   61MOL0     C 8146   0.654   8.128   1.096  0.5510  0.3122 -0.1596
   61MOL0     C 8147   0.789   8.108   1.121  0.5352 -0.2076  0.4726
   61MOL0     O 8148   1.039   8.354   1.204 -0.5246 -0.4449  0.0890
   61MOL0     C 8149   1.222   8.208   1.414 -0.6507  0.2472 -0.1316
   61MOL0     C 8150   1.344   8.172   1.469 -0.3491 -0.8363  0.7933
   61MOL0     N 8151   2.088   8.026   1.328  0.9798 -0.4865  0.3108
   61MOL0     N 8152   2.183   8.059   1.244 -0.7209 -0.4034 -0.2427
   61MOL0     C 8153   3.306   8.353   0.828  0.0987  0.6494 -0.0773
   61MOL0     C 8154   3.439   8.380   0.879  0.4904  0.9932 -0.6420
   61MOL0     C 8155   3.913   8.374   0.851  0.1828 -0.3492  0.5765
   61MOL0     C 8156   4.027   8.381   0.774  0.7531 -0.2339  0.2002
   61MOL0     C 8157   4.148   8.365   0.831  0.0273 -0.2691  1.5602
   61MOL0     C 8158   4.162   8.361   0.967  0.4834  0.1180 -0.6605
   61MOL0     O 8159   4.279   8.326   1.030 -0.0239  0.4768  0.0953
   61MOL0     C 8160   4.398   8.389   0.971  0.0695  0.4414  0.2683
   61MOL0     C 8161   4.527   8.379   1.050  0.0888 -0.1555  0.7465
   61MOL0     C 8162   4.582   8.239   1.052 -0.1967  0.5909 -0.4259
   61MOL0     C 8163   4.706   8.216   1.140 -0.3207 -0.1701  0.3331
   61MOL0     C 8164   4.774   8.089   1.110 -0.8726 -0.1029  0.5206
   61MOL0     C 8165   4.834   7.985   1.090  1.0758  0.1196  0.5433
   61MOL0     C 8166   4.049   8.376   1.057  0.3389  0.2218 -0.0097
   61MOL0     C 8167   3.922   8.373   0.993  0.0156  0.1211  0.4161
   61MOL0     H 8168   3.601   8.143   0.708 -1.3624 -1.0354 -0.4882
   61MOL0     H 8169   3.400   8.076   0.638  0.1798  1.6249 -1.4304
   61MOL0     H 8170   3.062   8.396   0.679 -0.4394 -0.2526 -0.3524
   61MOL0     H 8171   2.975   8.240   0.663  3.0104 -1.4374 -0.5458
   61MOL0     H 8172   3.044   8.202   0.916  2.7668  2.4049  1.0352
   61MOL0     H 8173   3.016   8.376   0.926 -7.2968  0.4244  1.3508
   61MOL0     H 8174   2.807   8.372   0.863  0.1889  0.1988 -0.8788
   61MOL0     H 8175   2.813   8.184   0.829 -0.1654 -0.7247  2.4529
   61MOL0     H 8176   2.875   8.163   1.069 -1.7450 -0.9505  1.6991
   61MOL0     H 8177   2.816   8.331   1.082  2.2130 -0.5162 -0.6775
   61MOL0     H 8178   2.590   8.225   0.991  0.7816 -0.2348 -1.2384
   61MOL0     H 8179   2.655   8.065   1.029 -2.6852 -1.2407  0.9568
   61MOL0     H 8180   2.719   8.149   1.259 -0.4645 -0.0711 -0.3132
   61MOL0     H 8181   2.632   8.299   1.233  1.0663 -0.5605 -1.4715
   61MOL0     H 8182   2.489   8.025   1.210 -2.1151 -0.7627  0.5004
   61MOL0     H 8183   2.525   8.109   1.360  3.9761  2.3233 -0.3375
   61MOL0     H 8184   2.365   8.222   1.134 -0.5736 -1.2314  0.5115
   61MOL0     H 8185   2.404   8.293   1.294 -1.8769  0.8669 -0.5101
   61MOL0     H 8186   2.239   8.276   1.489 -0.7588 -0.8958  0.7972
   61MOL0     H 8187   2.006   8.010   1.598 -1.2093 -0.4851 -0.5733
   61MOL0     H 8188   2.039   8.186   1.628 -0.7706 -0.1058 -0.6559
   61MOL0     H 8189   1.870   8.215   1.432  0.1433 -4.0578 -2.8977
   61MOL0     H 8190   1.814   8.191   1.607  1.3106 -0.5069  1.9262
   61MOL0     H 8191   1.735   7.975   1.561 -1.3767 -0.3811 -0.8967
   61MOL0     H 8192   1.852   7.946   1.431  1.2563  1.3503  0.7121
   61MOL0     H 8193   1.619   7.956   1.350 -2.3981  0.0160  1.6375
   61MOL0     H 8194   1.710   8.097   1.288 -1.5844  1.7496  0.5586
   61MOL0     H 8195   1.521   8.145   1.165 -0.4107 -0.7504 -0.4873
   61MOL0     H 8196   1.194   8.181   1.003 -0.0124  0.9540 -1.5404
   61MOL0     H 8197   1.350   8.270   1.007  3.0509 -2.0918 -0.9087
   61MOL0     H 8198   1.347   8.092   0.999  0.9692 -0.3524  2.3228
   61MOL0     H 8199   0.813   8.184   1.443  5.1011 -0.3140 -1.6552
   61MOL0     H 8200   0.559   8.220   1.401 -0.9350 -2.5630  0.8313
   61MOL0     H 8201   0.330   8.212   1.333 -1.7733  1.2161  1.9498
   61MOL0     H 8202   0.376   8.369   1.278 -2.8717 -0.5652  4.1249
   61MOL0     H 8203   0.215   8.328   1.073  4.5035 -0.4291  0.1607
   61MOL0     H 8204   0.181   8.176   1.140  0.4410  1.0169 -3.2297
   61MOL0     H 8205   0.135   8.452   1.286 -0.2723 -0.5367  0.3223
   61MOL0     H 8206   0.077   8.296   1.344  0.9203  0.5151  0.2730
   61MOL0     H 8207  -0.002   8.444   1.092  0.9681  1.9755  2.2628
   61MOL0     H 8208  -0.044   8.270   1.131  1.3367 -1.3227  3.7027
   61MOL0     H 8209  -0.097   8.492   1.315 -0.8369  1.7699 -2.2424
   61MOL0     H 8210  -0.159   8.331   1.327 -1.4601  0.6526 -0.1931
   61MOL0     H 8211  -0.228   8.562   1.120  2.2596 -1.2779  0.6154
   61MOL0     H 8212  -0.313   8.409   1.109 -1.6387  1.7173  0.4338
   61MOL0     H 8213  -0.323   8.618   1.325 -0.1915 -1.1200  1.7171
   61MOL0     H 8214  -0.378   8.449   1.360  1.0697 -1.1251 -0.1131
   61MOL0     H 8215  -0.534   8.470   1.157  1.9503 -0.9178 -0.6837
   61MOL0     H 8216  -0.473   8.634   1.140  1.4065 -1.2298 -1.0125
   61MOL0     H 8217   0.604   8.100   1.004  0.0642 -0.6924  0.3981
   61MOL0     H 8218   0.852   8.060   1.047  0.1148  0.9817 -0.7072
   61MOL0     H 8219   1.147   8.243   1.485 -0.7210  0.1672 -0.1659
   61MOL0     H 8220   1.364   8.164   1.575 -2.8179 -0.7831  1.3118
   61MOL0     H 8221   3.225   8.418   0.857  1.1128  0.4139  3.9606
   61MOL0     H 8222   3.465   8.454   0.955  2.5943  0.6995 -1.0131
   61MOL0     H 8223   4.018   8.392   0.666  2.2894 -3.4618 -0.3834
   61MOL0     H 8224   4.235   8.356   0.767 -1.1916  1.5380 -0.4815
   61MOL0     H 8225   4.423   8.336   0.878  4.1568 -1.1325  2.0206
   61MOL0     H 8226   4.388   8.491   0.935  0.9068 -0.1885 -1.9136
   61MOL0     H 8227   4.523   8.423   1.150  0.4130 -2.6275  1.9363
   61MOL0     H 8228   4.596   8.441   0.993 -1.6483  1.1515 -0.0065
   61MOL0     H 8229   4.609   8.234   0.946  0.6130  4.8752 -0.6349
   61MOL0     H 8230   4.500   8.168   1.062 -0.6693  0.9037 -1.8630
   61MOL0     H 8231   4.685   8.193   1.245  1.2094 -0.0368  0.6852
   61MOL0     H 8232   4.776   8.300   1.140 -0.0607 -0.3833  0.5454
   61MOL0     H 8233   4.878   7.889   1.071 -1.2070 -0.5270 -2.2518
   61MOL0     H 8234   4.075   8.378   1.162  1.3397  1.5502 -0.2681
   61MOL0     H 8235   3.831   8.375   1.052 -0.5155  2.5686 -0.3374
   62MOL0     O 8236   4.650   5.789   9.187  0.0418  0.3248  0.6349
   62MOL0     C 8237   4.550   5.732   9.234  0.4430 -0.2096 -0.1983
   62MOL0     O 8238   4.529   5.600   9.234  0.0468  0.7835  0.1047
   62MOL0     C 8239   4.626   5.534   9.158 -0.3782  0.2948 -0.5618
   62MOL0     C 8240   4.582   5.454   9.051 -0.4513 -1.0566  0.1368
   62MOL0     C 8241   4.675   5.374   8.979 -0.3377 -0.2641  0.2400
   62MOL0     C 8242   4.807   5.370   9.010  0.0913  0.3170  1.0525
   62MOL0     O 8243   4.890   5.298   8.931 -0.3235 -0.3024 -0.4268
   62MOL0     C 8244   5.018   5.247   8.984 -1.0327 -0.8449  0.8236
   62MOL0     C 8245   5.076   5.158   8.866 -0.1580  0.1308 -0.4421
   62MOL0     C 8246   5.210   5.095   8.914  0.5593 -0.6237 -0.3505
   62MOL0     C 8247   5.277   5.021   8.803 -0.2872  0.0332  0.3430
   62MOL0     C 8248   5.420   4.970   8.839  0.9001 -0.3171  0.1227
   62MOL0     C 8249   5.500   4.929   8.710  0.0014 -0.2758 -0.5949
   62MOL0     C 8250   5.638   4.855   8.742 -0.0266  0.1791  0.1845
   62MOL0     C 8251   5.750   4.951   8.783  0.2569 -0.0566 -0.9380
   62MOL0     N 8252   5.867   4.875   8.827 -0.1862 -0.7442 -0.7342
   62MOL0     C 8253   5.953   4.807   8.741  0.5644  0.1397 -0.5972
   62MOL0     C 8254   6.057   4.752   8.809 -0.3703 -0.2149  0.5272
   62MOL0     C 8255   6.179   4.680   8.749  0.2245 -0.3508 -0.4106
   62MOL0     C 8256   6.231   4.714   8.609 -0.3144  0.8564 -0.8612
   62MOL0     C 8257   6.353   4.634   8.580 -1.1569  0.3275  0.0068
   62MOL0     C 8258   6.386   4.627   8.432 -0.8422 -1.2417 -0.8086
   62MOL0     O 8259   6.470   4.747   8.411  0.1175 -0.0066  0.6141
   62MOL0     C 8260   6.535   4.759   8.293 -0.4108  0.6936 -0.6925
   62MOL0     C 8261   6.638   4.855   8.302 -0.0679 -0.8226  0.4253
   62MOL0     C 8262   6.727   4.866   8.195  0.5231 -0.0710 -0.0691
   62MOL0     C 8263   6.840   4.957   8.221 -0.4403  0.5293 -0.0941
   62MOL0     C 8264   6.706   4.798   8.069 -0.8115 -0.3170 -0.0861
   62MOL0     C 8265   6.787   4.827   7.940  0.1715  0.6290 -0.4769
   62MOL0     O 8266   6.742   4.758   7.833 -0.3739 -0.1200 -1.0541
   62MOL0     C 8267   6.822   4.767   7.728 -0.7187  0.2237 -0.7049
   62MOL0     C 8268   6.782   4.862   7.632  0.4323  0.5389  0.7013
   62MOL0     C 8269   6.861   4.874   7.509  0.0812  0.2251  0.0209
   62MOL0     C 8270   6.982   4.811   7.493 -0.5423  0.4071 -0.0042
   62MOL0     O 8271   7.033   4.814   7.368 -0.1925 -0.2154 -0.2302
   62MOL0     C 8272   7.045   4.690   7.303 -0.1417 -0.1976 -0.2087
   62MOL0     C 8273   7.174   4.686   7.227 -0.9878  0.0880 -0.4559
   62MOL0     C 8274   7.293   4.679   7.330 -0.8809 -0.1435  0.2058
   62MOL0     C 8275   7.423   4.639   7.246 -1.0464  0.0671  0.2070
   62MOL0     C 8276   7.553   4.669   7.324 -0.6035 -0.0805  1.8055
   62MOL0     C 8277   7.675   4.670   7.240  0.1576  0.3535 -0.2520
   62MOL0     C 8278   7.798   4.667   7.328 -0.4938  0.1407 -0.0534
   62MOL0     C 8279   7.916   4.649   7.242 -0.3677  0.1430  0.0226
   62MOL0    Cl 8280   8.073   4.697   7.323 -0.3267  0.1127  0.5018
   62MOL0     C 8281   7.025   4.722   7.605  0.1409 -0.8049  0.9693
   62MOL0     C 8282   6.942   4.698   7.719 -0.2238 -0.8273  0.1682
   62MOL0     O 8283   6.879   4.906   7.937 -0.1603  0.9227 -0.5872
   62MOL0     C 8284   6.603   4.706   8.064 -1.0379  0.3095 -0.8004
   62MOL0     C 8285   6.523   4.685   8.175  0.2041  0.5007 -0.1330
   62MOL0     N 8286   6.032   4.783   8.940 -0.3129  0.3184 -0.2165
   62MOL0     N 8287   5.919   4.846   8.948  0.2342  0.5837 -0.2970
   62MOL0     C 8288   4.851   5.446   9.119 -0.9203 -0.0540  0.1532
   62MOL0     C 8289   4.764   5.528   9.185 -0.4967  0.0418  0.0436
   62MOL0     C 8290   4.452   5.811   9.305 -0.1535 -0.6695 -0.2480
   62MOL0     C 8291   4.332   5.757   9.347 -0.5093  0.3770 -0.1768
   62MOL0     C 8292   4.242   5.830   9.429  0.2510 -0.4706  0.4646
   62MOL0     C 8293   4.264   5.961   9.462 -0.4468  0.5623 -0.7056
   62MOL0     O 8294   4.166   6.024   9.541  0.2670 -0.6513  0.0769
   62MOL0     C 8295   4.195   6.161   9.577  0.3836  0.1158  0.2022
   62MOL0     C 8296   4.108   6.215   9.690 -0.2896  0.5692  0.2868
   62MOL0     C 8297   3.955   6.197   9.651 -0.0808  0.8684 -0.0992
   62MOL0     C 8298   3.862   6.264   9.750  0.0466 -0.2028 -0.0294
   62MOL0     C 8299   3.724   6.205   9.741 -0.6833 -0.3200  0.2715
   62MOL0     C 8300   3.610   6.173   9.730 -0.4090 -0.1778 -0.3567
   62MOL0     C 8301   4.389   6.017   9.426  0.6684 -0.0812 -0.0246
   62MOL0     C 8302   4.482   5.944   9.351 -0.2600  0.0346  0.8990
   62MOL0     H 8303   4.477   5.450   9.023 -0.7608 -1.3653  1.3156
   62MOL0     H 8304   4.647   5.315   8.892 -0.4868  2.3769 -1.6053
   62MOL0     H 8305   5.095   5.318   9.014 -1.2502 -0.9275  1.5956
   62MOL0     H 8306   5.000   5.182   9.070 -0.8037 -2.8446 -0.5703
   62MOL0     H 8307   5.000   5.082   8.843  0.5872 -0.5028 -0.8604
   62MOL0     H 8308   5.072   5.207   8.768 -2.8169  1.5408  0.2655
   62MOL0     H 8309   5.280   5.172   8.948 -1.2944  0.7516  0.4972
   62MOL0     H 8310   5.185   5.019   8.989 -2.6331 -0.4688 -1.1206
   62MOL0     H 8311   5.212   4.937   8.777 -0.4292  0.0130  0.7548
   62MOL0     H 8312   5.281   5.081   8.711  0.1146  0.4577  0.6349
   62MOL0     H 8313   5.463   5.062   8.881 -1.0045  0.6879 -0.0579
   62MOL0     H 8314   5.424   4.887   8.911  3.6564 -0.4445 -0.0475
   62MOL0     H 8315   5.434   4.862   8.654 -0.3475  2.0113 -3.1416
   62MOL0     H 8316   5.512   5.025   8.660  0.3579  1.9469  3.3541
   62MOL0     H 8317   5.627   4.775   8.816 -0.0215  1.0790  1.1921
   62MOL0     H 8318   5.672   4.805   8.651 -0.5233 -2.1889  1.2045
   62MOL0     H 8319   5.731   5.017   8.869 -1.8404 -0.8157 -0.7601
   62MOL0     H 8320   5.767   5.027   8.706 -0.5176 -0.8049 -1.8689
   62MOL0     H 8321   5.931   4.810   8.635 -1.0907 -2.1203 -0.3924
   62MOL0     H 8322   6.257   4.703   8.821 -1.0222  0.4967  0.7229
   62MOL0     H 8323   6.164   4.573   8.761 -0.2407 -0.4126 -1.3927
   62MOL0     H 8324   6.255   4.821   8.611 -0.2570  0.8618  1.7872
   62MOL0     H 8325   6.154   4.691   8.535 -3.1748  3.5967  0.9920
   62MOL0     H 8326   6.335   4.531   8.610 -1.2312 -0.1237 -1.5072
   62MOL0     H 8327   6.440   4.674   8.633 -0.5450 -1.1873  0.1929
   62MOL0     H 8328   6.291   4.638   8.379 -2.6561  1.7327  2.6409
   62MOL0     H 8329   6.445   4.542   8.396  2.5159  0.9177 -0.8204
   62MOL0     H 8330   6.632   4.923   8.386 -1.2030  0.2888 -0.5021
   62MOL0     H 8331   6.849   4.971   8.329  0.1949  0.1354 -0.0883
   62MOL0     H 8332   6.937   4.915   8.192  0.2254  1.4798  0.6722
   62MOL0     H 8333   6.821   5.053   8.171  1.5046  1.1338  0.2160
   62MOL0     H 8334   6.679   4.898   7.632 -0.6595 -2.3193 -0.2862
   62MOL0     H 8335   6.833   4.941   7.429  2.1196  4.0284  2.1986
   62MOL0     H 8336   7.033   4.597   7.359  0.3365 -1.1929 -1.7222
   62MOL0     H 8337   6.966   4.689   7.227  0.1032  0.0587 -0.4718
   62MOL0     H 8338   7.186   4.605   7.155 -0.6451  2.9566 -3.8816
   62MOL0     H 8339   7.180   4.773   7.161 -1.4334  1.8136  1.6643
   62MOL0     H 8340   7.277   4.600   7.404 -0.3914 -2.3717 -1.9167
   62MOL0     H 8341   7.303   4.774   7.382  1.7049 -0.7427  0.9437
   62MOL0     H 8342   7.413   4.531   7.231  2.1145 -0.1171 -1.4615
   62MOL0     H 8343   7.427   4.685   7.147  0.3484  3.7603  1.8052
   62MOL0     H 8344   7.560   4.589   7.398  1.1854 -0.3078  1.4336
   62MOL0     H 8345   7.556   4.769   7.369 -1.9199  0.5911  0.5083
   62MOL0     H 8346   7.670   4.579   7.180 -2.7085 -0.6995  1.4000
   62MOL0     H 8347   7.670   4.754   7.170 -0.9095 -0.9722 -1.8433
   62MOL0     H 8348   7.794   4.583   7.399  2.9820  1.8899  2.5318
   62MOL0     H 8349   7.816   4.761   7.381  0.2464 -0.4512  0.7839
   62MOL0     H 8350   7.910   4.727   7.166  2.1561  0.7897  0.4063
   62MOL0     H 8351   7.903   4.550   7.197 -2.3279  0.6752 -0.6869
   62MOL0     H 8352   7.123   4.678   7.595 -0.1965 -1.2537 -0.8349
   62MOL0     H 8353   6.977   4.640   7.804  0.5681 -0.6237 -0.0180
   62MOL0     H 8354   6.594   4.637   7.981  0.9189  0.1968 -0.9680
   62MOL0     H 8355   6.441   4.614   8.168  0.1157  0.6088 -0.1980
   62MOL0     H 8356   4.957   5.460   9.139 -1.4421  0.8374  2.6715
   62MOL0     H 8357   4.801   5.582   9.271  1.3200 -1.9549  0.6033
   62MOL0     H 8358   4.298   5.656   9.328 -1.2389  0.1957  1.8201
   62MOL0     H 8359   4.142   5.793   9.446  0.1573 -1.1605 -1.3589
   62MOL0     H 8360   4.290   6.166   9.631  0.0864  2.2357  0.6456
   62MOL0     H 8361   4.198   6.235   9.496  1.9268  3.0864  2.7586
   62MOL0     H 8362   4.137   6.316   9.722 -0.8702  0.8618 -0.0990
   62MOL0     H 8363   4.120   6.163   9.786  0.3391 -2.9291 -1.5021
   62MOL0     H 8364   3.927   6.091   9.648  1.1089  0.5465 -2.5838
   62MOL0     H 8365   3.935   6.230   9.549  1.6717 -3.5316 -2.1350
   62MOL0     H 8366   3.864   6.371   9.728 -0.7282 -0.2949 -0.5994
   62MOL0     H 8367   3.887   6.257   9.856  0.5589  1.3741 -0.0178
   62MOL0     H 8368   3.512   6.129   9.730  0.4733 -2.6744  3.5634
   62MOL0     H 8369   4.416   6.113   9.469 -1.0760  0.2479  0.4178
   62MOL0     H 8370   4.585   5.974   9.332  0.1195 -0.4492  2.0964
   63MOL0     O 8371  11.195   4.011   9.744 -0.2960  0.0780  0.6942
   63MOL0     C 8372  11.147   3.939   9.833 -0.1421 -0.3246 -0.1622
   63MOL0     O 8373  11.027   3.896   9.843 -0.1281  0.4314 -0.2864
   63MOL0     C 8374  10.922   3.957   9.773 -0.2658 -0.4279 -0.2269
   63MOL0     C 8375  10.817   3.877   9.734 -0.4479  0.9406 -0.3699
   63MOL0     C 8376  10.717   3.923   9.656  0.0138  0.7708 -0.1188
   63MOL0     C 8377  10.710   4.053   9.606 -0.5777  0.2386 -0.1110
   63MOL0     O 8378  10.619   4.102   9.517 -0.3793  0.1855  0.5234
   63MOL0     C 8379  10.518   4.015   9.458  0.2220 -0.5556 -0.8453
   63MOL0     C 8380  10.390   4.090   9.444 -0.5160 -0.5568 -0.5789
   63MOL0     C 8381  10.292   4.019   9.347 -0.0605  0.2319 -0.6674
   63MOL0     C 8382  10.156   4.094   9.328 -0.5170 -0.3811 -0.8426
   63MOL0     C 8383  10.063   4.025   9.225 -0.6987  0.2511  0.1520
   63MOL0     C 8384   9.988   3.909   9.288 -0.0170  0.2369 -0.2410
   63MOL0     C 8385   9.877   3.837   9.204  0.8471  0.0728  0.2755
   63MOL0     C 8386   9.758   3.936   9.185 -0.9524  0.4056 -0.4835
   63MOL0     N 8387   9.704   3.978   9.317 -1.0530  0.5134  0.0970
   63MOL0     C 8388   9.724   4.088   9.394 -1.0942 -0.1140 -0.9227
   63MOL0     C 8389   9.611   4.089   9.467 -0.5263 -0.1166  0.2053
   63MOL0     C 8390   9.594   4.197   9.578 -0.0978 -0.4865  0.2438
   63MOL0     C 8391   9.530   4.314   9.496 -0.3254 -0.0067  0.1992
   63MOL0     C 8392   9.525   4.435   9.585  0.2923 -0.3800 -1.5234
   63MOL0     C 8393   9.442   4.417   9.714  0.1884 -0.0907  0.3868
   63MOL0     O 8394   9.405   4.543   9.777  0.2003 -0.8628  1.0506
   63MOL0     C 8395   9.496   4.616   9.848  0.5542 -0.7646 -0.3103
   63MOL0     C 8396   9.452   4.738   9.907 -0.3371 -0.5668 -0.2637
   63MOL0     C 8397   9.536   4.811   9.989 -0.4367  0.6028  0.5730
   63MOL0     C 8398   9.474   4.935  10.049 -0.8456  0.3435 -0.4275
   63MOL0     C 8399   9.671   4.772  10.012 -0.5414  0.5398  0.0545
   63MOL0     C 8400   9.782   4.843  10.072 -0.0875 -0.9700 -0.0766
   63MOL0     O 8401   9.906   4.830  10.013  0.3774 -0.3078  0.0160
   63MOL0     C 8402  10.011   4.895  10.071 -0.0426  0.2242 -0.6691
   63MOL0     C 8403  10.112   4.806  10.114 -1.1001  0.4141 -0.3432
   63MOL0     C 8404  10.223   4.850  10.176  0.1702  0.4432 -0.3051
   63MOL0     C 8405  10.243   4.988  10.198 -0.2614 -0.3052 -1.0775
   63MOL0     O 8406  10.342   5.049  10.263 -0.0385  0.5641  0.4184
   63MOL0     C 8407  10.433   4.964  10.328 -0.4846  0.2250 -1.0285
   63MOL0     C 8408  10.509   5.035  10.438 -0.6346 -0.0506  0.4407
   63MOL0     C 8409  10.640   4.954  10.479 -0.4399 -0.8768 -0.0054
   63MOL0     C 8410  10.731   5.025  10.586  0.5836 -0.3909 -0.1419
   63MOL0     C 8411  10.860   4.944  10.591 -0.7968 -0.6452  1.2225
   63MOL0     C 8412  10.955   5.014  10.698 -0.4439  1.0880  0.4889
   63MOL0     C 8413  11.078   4.909  10.743  0.0719  0.2390  0.0048
   63MOL0     C 8414  11.152   4.956  10.867 -0.4163 -0.3256  0.4492
   63MOL0    Cl 8415  11.292   4.851  10.895 -0.1304 -0.1120  0.2344
   63MOL0     C 8416  10.147   5.081  10.148  0.0580  0.9137  0.7974
   63MOL0     C 8417  10.027   5.034  10.084 -0.0799  0.6870 -0.2202
   63MOL0     O 8418   9.757   4.926  10.159 -0.2774  0.6803  0.3093
   63MOL0     C 8419   9.710   4.653   9.949  0.4673  0.9190 -0.3361
   63MOL0     C 8420   9.621   4.569   9.876 -0.0446  0.3381  0.7899
   63MOL0     N 8421   9.540   3.975   9.448 -0.0061 -1.0795 -0.0526
   63MOL0     N 8422   9.593   3.913   9.356 -0.1145  1.5759 -0.1169
   63MOL0     C 8423  10.815   4.138   9.647  0.4576  1.0510 -0.0812
   63MOL0     C 8424  10.919   4.095   9.742 -0.0862 -0.0336 -0.6327
   63MOL0     C 8425  11.235   3.875   9.930 -0.1979 -0.3544  0.1756
   63MOL0     C 8426  11.199   3.750   9.986  0.1252  0.4777 -0.5340
   63MOL0     C 8427  11.286   3.681  10.067  0.2157 -0.1655 -0.4194
   63MOL0     C 8428  11.412   3.729  10.087 -0.4939 -0.0749 -0.0320
   63MOL0     O 8429  11.492   3.652  10.168 -0.4341  0.4073  0.0040
   63MOL0     C 8430  11.609   3.695  10.229  0.4070  0.0880 -0.2358
   63MOL0     C 8431  11.671   3.599  10.328  0.0976  0.1672 -0.0024
   63MOL0     C 8432  11.793   3.666  10.391  0.1557  0.2985 -0.7498
   63MOL0     C 8433  11.873   3.564  10.473 -0.5594  0.1869  0.0307
   63MOL0     C 8434  11.978   3.621  10.563 -0.0888 -0.2557 -0.1934
   63MOL0     C 8435  12.072   3.653  10.628  0.5752  0.3947 -0.4637
   63MOL0     C 8436  11.450   3.853  10.032  1.4654  0.2472 -0.6213
   63MOL0     C 8437  11.363   3.935   9.964  0.0216  0.1379  1.0004
   63MOL0     H 8438  10.818   3.771   9.755 -1.5874  1.0374  0.2559
   63MOL0     H 8439  10.648   3.842   9.631  2.2773 -1.5153  0.5800
   63MOL0     H 8440  10.544   3.965   9.364 -0.0455 -3.2694  0.4326
   63MOL0     H 8441  10.486   3.941   9.532 -3.0171  0.0078 -1.5375
   63MOL0     H 8442  10.343   4.091   9.542 -1.8214  1.1527 -1.1845
   63MOL0     H 8443  10.416   4.191   9.413 -2.6043  0.1047 -0.3010
   63MOL0     H 8444  10.341   4.003   9.250 -0.3617 -0.2376 -0.7443
   63MOL0     H 8445  10.255   3.922   9.379 -2.4782  0.9261 -1.1333
   63MOL0     H 8446  10.096   4.090   9.419 -0.5702 -5.1099 -0.8489
   63MOL0     H 8447  10.176   4.199   9.305 -0.5314  0.0697  1.0602
   63MOL0     H 8448   9.999   4.104   9.183 -2.1817 -0.4343  1.0463
   63MOL0     H 8449  10.125   3.986   9.143  0.4487  2.5042 -0.1252
   63MOL0     H 8450  10.049   3.820   9.305 -1.7106 -0.8420  0.4823
   63MOL0     H 8451   9.951   3.943   9.386  0.9366 -1.6154  0.8008
   63MOL0     H 8452   9.915   3.814   9.104 -1.7492  2.4472 -1.4425
   63MOL0     H 8453   9.847   3.743   9.252  0.4323 -0.0081 -0.1326
   63MOL0     H 8454   9.686   3.890   9.116 -3.9368  2.8451  0.7493
   63MOL0     H 8455   9.795   4.027   9.136 -0.7629 -0.1329 -1.3651
   63MOL0     H 8456   9.805   4.160   9.397 -0.2014 -1.0900 -0.6656
   63MOL0     H 8457   9.539   4.158   9.664 -1.2823  2.4427  0.9251
   63MOL0     H 8458   9.689   4.232   9.618 -0.2263  1.1944 -0.8370
   63MOL0     H 8459   9.432   4.291   9.453 -0.0681 -0.9006  0.0595
   63MOL0     H 8460   9.600   4.328   9.413 -0.5615 -4.1524 -0.9030
   63MOL0     H 8461   9.479   4.519   9.531 -0.7034  0.4445  0.4805
   63MOL0     H 8462   9.624   4.448   9.628 -1.0388 -0.7218  1.9826
   63MOL0     H 8463   9.503   4.354   9.780  6.4634  1.9661 -2.6562
   63MOL0     H 8464   9.345   4.375   9.685  0.6834 -1.6993  0.9473
   63MOL0     H 8465   9.355   4.779   9.881 -1.0395 -2.3501 -0.5278
   63MOL0     H 8466   9.366   4.923  10.039 -1.1677 -0.9658  3.1271
   63MOL0     H 8467   9.486   4.930  10.158 -2.8223 -3.1536 -0.2396
   63MOL0     H 8468   9.516   5.026  10.004  0.3357  0.3777  0.6825
   63MOL0     H 8469  10.090   4.700  10.109 -1.2204  0.3542  1.1521
   63MOL0     H 8470  10.290   4.772  10.210  0.0922  1.2619  1.9122
   63MOL0     H 8471  10.401   4.874  10.382 -0.1410  1.1234  0.7318
   63MOL0     H 8472  10.510   4.930  10.258 -0.3135 -1.1649 -0.2025
   63MOL0     H 8473  10.542   5.127  10.388 -0.4655 -0.4880 -0.2750
   63MOL0     H 8474  10.444   5.047  10.525 -0.6621  0.5519  0.3440
   63MOL0     H 8475  10.686   4.944  10.380  0.7794 -3.8756  0.7489
   63MOL0     H 8476  10.599   4.859  10.513 -4.4112  0.9350  0.7980
   63MOL0     H 8477  10.752   5.130  10.565  0.8575  0.4104  3.3972
   63MOL0     H 8478  10.682   5.030  10.684 -2.2156  0.3357 -1.4865
   63MOL0     H 8479  10.912   4.948  10.495 -1.5022  0.1195  0.8682
   63MOL0     H 8480  10.838   4.840  10.620 -2.9736  0.1360  2.5798
   63MOL0     H 8481  10.990   5.114  10.671 -1.1115  1.5072  1.1494
   63MOL0     H 8482  10.890   5.026  10.785 -0.2960 -0.9675  0.9415
   63MOL0     H 8483  11.145   4.891  10.658 -1.4064 -1.7487 -0.8149
   63MOL0     H 8484  11.041   4.809  10.765  1.5679 -0.2966  0.1641
   63MOL0     H 8485  11.090   4.958  10.957 -0.1883  0.6375  0.5910
   63MOL0     H 8486  11.185   5.059  10.853  1.4362 -0.8207  0.9697
   63MOL0     H 8487  10.167   5.185  10.171  2.3288  1.0201 -1.1884
   63MOL0     H 8488   9.945   5.096  10.049 -0.9613 -0.3948 -0.1155
   63MOL0     H 8489   9.814   4.621   9.952  0.7049  1.6623 -0.5724
   63MOL0     H 8490   9.666   4.473   9.853  3.8212  1.8095  1.4826
   63MOL0     H 8491  10.799   4.235   9.603  0.1225  1.2377  0.4417
   63MOL0     H 8492  10.999   4.165   9.765  0.3159 -0.4899 -0.6388
   63MOL0     H 8493  11.102   3.704   9.976 -0.1598  0.9908 -0.1918
   63MOL0     H 8494  11.263   3.589  10.120  0.2418  0.8833  1.5048
   63MOL0     H 8495  11.683   3.702  10.148  0.0426 -1.8234 -0.7770
   63MOL0     H 8496  11.585   3.794  10.268  1.7544  0.5934 -0.6089
   63MOL0     H 8497  11.703   3.509  10.274 -0.0719  0.2536 -0.2511
   63MOL0     H 8498  11.603   3.576  10.411  0.1747 -0.2020 -0.0394
   63MOL0     H 8499  11.755   3.749  10.452 -0.4318  1.2171 -2.3183
   63MOL0     H 8500  11.859   3.702  10.312 -2.2847 -0.3753 -3.2612
   63MOL0     H 8501  11.914   3.486  10.409 -2.4791 -0.3249 -0.6375
   63MOL0     H 8502  11.803   3.512  10.539 -1.1900  1.3126  0.2745
   63MOL0     H 8503  12.160   3.685  10.680  1.0793  0.9573 -1.6371
   63MOL0     H 8504  11.554   3.878  10.046  2.0064 -2.6452  1.3766
   63MOL0     H 8505  11.403   4.028   9.925  0.4945 -1.4643 -2.7807
   64MOL0     O 8506   3.255   6.771   5.440  0.5685  0.5963  0.1976
   64MOL0     C 8507   3.348   6.699   5.473  0.4614  0.4045  0.2240
   64MOL0     O 8508   3.359   6.644   5.594 -0.5712  0.6882 -0.4800
   64MOL0     C 8509   3.241   6.639   5.664 -0.4767 -0.1309 -0.2484
   64MOL0     C 8510   3.215   6.735   5.762 -0.1110  0.1610  0.5358
   64MOL0     C 8511   3.089   6.746   5.829 -0.5166  0.4198  0.5431
   64MOL0     C 8512   2.985   6.654   5.798  0.7064  0.3198  0.3512
   64MOL0     O 8513   2.859   6.678   5.854 -0.1736  0.1175 -0.0048
   64MOL0     C 8514   2.860   6.676   5.997 -0.9831 -0.0316  0.2824
   64MOL0     C 8515   2.717   6.665   6.048 -0.9217  0.1555 -0.8359
   64MOL0     C 8516   2.701   6.695   6.193 -0.7259 -0.3180  0.0492
   64MOL0     C 8517   2.555   6.727   6.222  0.3128  0.4504 -0.1561
   64MOL0     C 8518   2.543   6.767   6.370 -0.6340  0.2936 -0.7865
   64MOL0     C 8519   2.594   6.904   6.412  0.7295 -0.2321 -0.0133
   64MOL0     C 8520   2.543   7.031   6.327  0.5301 -0.5141 -0.3653
   64MOL0     C 8521   2.389   7.027   6.293  0.0687  0.4109 -0.2766
   64MOL0     N 8522   2.349   6.985   6.152  0.3287 -0.1714  0.1098
   64MOL0     C 8523   2.226   6.933   6.128 -0.4784  0.4400  0.4266
   64MOL0     C 8524   2.220   6.922   5.992 -0.3473 -0.4908  0.5845
   64MOL0     C 8525   2.110   6.851   5.915 -0.2192 -0.4326  0.0031
   64MOL0     C 8526   1.965   6.907   5.943  0.4275 -0.8781 -0.1497
   64MOL0     C 8527   1.857   6.819   5.885  0.4348 -0.3238 -0.3893
   64MOL0     C 8528   1.718   6.880   5.905  0.0752  0.0167 -0.3319
   64MOL0     O 8529   1.625   6.803   5.817  0.1964 -0.5084 -0.1063
   64MOL0     C 8530   1.565   6.879   5.719 -0.1366  0.0743 -0.0754
   64MOL0     C 8531   1.544   6.828   5.588 -0.7073  0.7007 -0.8831
   64MOL0     C 8532   1.486   6.904   5.481 -0.0731  0.3366  0.1529
   64MOL0     C 8533   1.456   6.825   5.349 -0.3956 -0.0635 -0.2333
   64MOL0     C 8534   1.445   7.041   5.511 -0.0067  0.9202  0.4878
   64MOL0     C 8535   1.377   7.124   5.413  0.2581 -1.0031 -0.5835
   64MOL0     O 8536   1.383   7.260   5.441  0.2846  0.3325 -0.1188
   64MOL0     C 8537   1.371   7.343   5.329 -0.1236 -0.4551 -0.5755
   64MOL0     C 8538   1.246   7.354   5.256 -0.9821  0.3013  0.3184
   64MOL0     C 8539   1.243   7.434   5.146 -0.0632  0.2823  0.0904
   64MOL0     C 8540   1.353   7.509   5.103  0.4655 -0.1130 -0.2198
   64MOL0     O 8541   1.353   7.586   4.988  0.2135  0.0864 -0.2624
   64MOL0     C 8542   1.232   7.607   4.919 -0.7358 -0.5181  0.7636
   64MOL0     C 8543   1.256   7.602   4.772  0.2233  0.1740  0.9750
   64MOL0     C 8544   1.142   7.617   4.672  0.5688 -0.2778  0.8066
   64MOL0     C 8545   1.205   7.636   4.532 -0.1129 -0.0757 -0.4320
   64MOL0     C 8546   1.086   7.636   4.429  0.0012 -0.5954 -0.8678
   64MOL0     C 8547   1.139   7.658   4.290  0.2348 -0.2988  0.3279
   64MOL0     C 8548   1.196   7.528   4.228  0.3855 -0.1009  0.2261
   64MOL0     C 8549   1.293   7.564   4.113  0.3806  0.7302 -0.3174
   64MOL0    Cl 8550   1.226   7.654   3.975 -0.2495 -0.1616 -0.7291
   64MOL0     C 8551   1.470   7.514   5.178 -0.4372  0.6472  0.9620
   64MOL0     C 8552   1.490   7.422   5.288  0.2822 -0.2018  0.5151
   64MOL0     O 8553   1.332   7.077   5.311  0.3104 -0.5412 -0.1478
   64MOL0     C 8554   1.456   7.084   5.642 -0.7874  0.1934 -0.8624
   64MOL0     C 8555   1.515   7.002   5.746 -0.1921  0.7050  0.4398
   64MOL0     N 8556   2.340   6.983   5.948 -0.0218 -0.6327 -0.6708
   64MOL0     N 8557   2.410   7.030   6.044  0.0215  0.1410 -0.1722
   64MOL0     C 8558   3.011   6.549   5.711 -0.9198  0.1153  0.4545
   64MOL0     C 8559   3.135   6.545   5.644 -0.0183  0.2768 -0.0847
   64MOL0     C 8560   3.470   6.699   5.387  0.0283  0.4764  0.0071
   64MOL0     C 8561   3.462   6.749   5.252  0.0215  0.2302  0.9530
   64MOL0     C 8562   3.581   6.758   5.179 -0.2768 -0.5366 -0.2810
   64MOL0     C 8563   3.702   6.718   5.237  0.0160 -0.8819 -0.3535
   64MOL0     O 8564   3.821   6.752   5.183  0.3981 -0.2104  0.0399
   64MOL0     C 8565   3.840   6.809   5.045 -0.1294  0.5314 -1.2707
   64MOL0     C 8566   3.992   6.794   5.006  0.9572  0.1838  0.7594
   64MOL0     C 8567   4.034   6.849   4.869  0.1715  0.4332  0.4152
   64MOL0     C 8568   4.055   7.001   4.862  0.5537 -0.3803 -0.0494
   64MOL0     C 8569   3.928   7.069   4.868 -0.5881  0.1651 -0.5090
   64MOL0     C 8570   3.812   7.112   4.867 -0.3781  0.1726 -0.2679
   64MOL0     C 8571   3.711   6.661   5.362  0.1715 -0.0605 -0.2557
   64MOL0     C 8572   3.593   6.659   5.441 -0.0531 -0.4788  0.0096
   64MOL0     H 8573   3.296   6.802   5.789  3.0535 -2.1663 -2.4000
   64MOL0     H 8574   3.077   6.816   5.911 -1.2674 -1.7309  2.3407
   64MOL0     H 8575   2.918   6.594   6.040  1.2710  1.5660  0.4713
   64MOL0     H 8576   2.913   6.764   6.035  3.6406 -2.6355  0.6414
   64MOL0     H 8577   2.653   6.735   5.993 -0.7684 -0.6199 -2.0181
   64MOL0     H 8578   2.675   6.565   6.038 -1.1588 -0.1201  2.0025
   64MOL0     H 8579   2.733   6.615   6.261 -2.2102 -0.3623  0.7169
   64MOL0     H 8580   2.755   6.786   6.222 -1.1687  0.3701 -1.2433
   64MOL0     H 8581   2.513   6.812   6.166 -2.4802 -2.8097 -3.6223
   64MOL0     H 8582   2.500   6.633   6.211 -1.3456  1.3678 -0.0784
   64MOL0     H 8583   2.436   6.759   6.393 -0.4858  0.3105 -0.0899
   64MOL0     H 8584   2.580   6.685   6.433 -2.9256 -0.1031  0.1594
   64MOL0     H 8585   2.580   6.913   6.520 -0.8706  0.1148 -0.2268
   64MOL0     H 8586   2.703   6.911   6.408  0.8052 -0.4257  1.3197
   64MOL0     H 8587   2.563   7.113   6.396 -0.0551 -2.3399  2.1214
   64MOL0     H 8588   2.599   7.044   6.235  0.9642  0.0874 -0.0224
   64MOL0     H 8589   2.353   7.130   6.305 -1.8489 -0.4019  1.6476
   64MOL0     H 8590   2.345   6.945   6.350  0.9693  0.7437  0.9469
   64MOL0     H 8591   2.143   6.909   6.194 -1.3299  1.1569 -0.3579
   64MOL0     H 8592   2.133   6.859   5.808 -0.9919 -0.1478 -0.1544
   64MOL0     H 8593   2.122   6.748   5.949  2.0765 -0.7539 -1.5425
   64MOL0     H 8594   1.959   7.007   5.901  0.2448 -1.9159 -2.7836
   64MOL0     H 8595   1.942   6.911   6.049  1.4743 -0.7904  0.0883
   64MOL0     H 8596   1.858   6.719   5.929  1.5291 -0.1484  0.0062
   64MOL0     H 8597   1.873   6.809   5.777 -0.4115 -0.4131 -0.5163
   64MOL0     H 8598   1.723   6.988   5.888 -0.0359 -0.1723 -1.6504
   64MOL0     H 8599   1.679   6.850   6.003  0.6895  0.1823 -0.0308
   64MOL0     H 8600   1.581   6.730   5.561  0.6235  1.1648 -0.8376
   64MOL0     H 8601   1.489   6.878   5.259  0.4900 -0.2717 -0.0387
   64MOL0     H 8602   1.506   6.728   5.339 -0.9313 -0.2776 -1.0050
   64MOL0     H 8603   1.350   6.798   5.344 -0.4828  0.3880 -1.0621
   64MOL0     H 8604   1.159   7.295   5.282  0.0220 -1.8062 -0.8372
   64MOL0     H 8605   1.148   7.429   5.094  0.6495  1.4332 -1.3767
   64MOL0     H 8606   1.152   7.535   4.940 -0.0606 -1.1388  1.2684
   64MOL0     H 8607   1.198   7.709   4.943  1.5178  0.1443  1.3565
   64MOL0     H 8608   1.336   7.674   4.748  0.6475 -0.0706  1.6386
   64MOL0     H 8609   1.294   7.502   4.749  0.2554  0.4859 -0.4549
   64MOL0     H 8610   1.084   7.701   4.711  1.1081 -0.6498  2.5471
   64MOL0     H 8611   1.080   7.528   4.659  0.2830  0.1696 -1.1791
   64MOL0     H 8612   1.271   7.723   4.529 -0.4917  0.2101 -3.5496
   64MOL0     H 8613   1.278   7.556   4.518 -0.0254  0.1683 -1.4646
   64MOL0     H 8614   1.018   7.714   4.463 -0.8730 -2.1535  1.1572
   64MOL0     H 8615   1.038   7.537   4.428  1.1715 -1.2433  1.3337
   64MOL0     H 8616   1.059   7.700   4.229 -0.3244  1.5376  2.2147
   64MOL0     H 8617   1.226   7.725   4.297  2.0624 -2.5812  0.8300
   64MOL0     H 8618   1.121   7.461   4.187 -0.2893  0.0452  1.2041
   64MOL0     H 8619   1.260   7.465   4.290  0.8356 -1.3940 -1.4576
   64MOL0     H 8620   1.316   7.466   4.071 -0.5027 -0.6156  2.1312
   64MOL0     H 8621   1.385   7.613   4.146  1.0161 -0.2976 -0.5369
   64MOL0     H 8622   1.549   7.586   5.158  1.5815 -1.8887 -0.9118
   64MOL0     H 8623   1.575   7.431   5.354 -0.1935 -2.0320  1.4456
   64MOL0     H 8624   1.406   7.176   5.672  1.0947  0.0827  3.3498
   64MOL0     H 8625   1.511   7.044   5.846 -4.5239  3.5882 -0.6960
   64MOL0     H 8626   2.941   6.472   5.682 -0.2365  0.4168 -2.2613
   64MOL0     H 8627   3.148   6.467   5.570  0.3060  0.8106 -0.5968
   64MOL0     H 8628   3.363   6.772   5.212  1.2797  1.1893 -1.7973
   64MOL0     H 8629   3.563   6.792   5.078 -2.8555 -1.1861 -0.0988
   64MOL0     H 8630   3.772   6.760   4.974  1.2992 -1.5053 -1.3081
   64MOL0     H 8631   3.819   6.916   5.048  2.9408  1.2285  1.6392
   64MOL0     H 8632   4.010   6.687   4.995  0.5071  0.2113 -0.5677
   64MOL0     H 8633   4.058   6.834   5.082  0.4312 -1.9067  2.4107
   64MOL0     H 8634   3.950   6.820   4.804  0.1425 -0.4953  0.8445
   64MOL0     H 8635   4.124   6.797   4.834 -0.7500 -2.2531  1.7027
   64MOL0     H 8636   4.110   7.031   4.773  1.7949  0.0508  0.8303
   64MOL0     H 8637   4.120   7.038   4.942 -0.8502  1.4103  0.3448
   64MOL0     H 8638   3.715   7.153   4.849  1.0053  2.7637 -2.6837
   64MOL0     H 8639   3.805   6.625   5.401 -0.8743 -1.7016  0.8721
   64MOL0     H 8640   3.602   6.605   5.534 -0.6561 -0.6109 -0.0093
   65MOL0     O 8641   5.508   8.055   1.257  0.3948  0.2490 -0.3105
   65MOL0     C 8642   5.621   8.104   1.273  0.1448  0.4431  0.4321
   65MOL0     O 8643   5.738   8.040   1.248 -0.2602  0.1177  0.1441
   65MOL0     C 8644   5.741   7.909   1.210  0.5332 -0.3586  0.0668
   65MOL0     C 8645   5.835   7.855   1.111 -0.4158  0.3591  0.2047
   65MOL0     C 8646   5.851   7.713   1.102 -1.4638 -0.1600  0.2009
   65MOL0     C 8647   5.763   7.621   1.166 -0.6153  0.5438  0.2556
   65MOL0     O 8648   5.758   7.484   1.150  0.0343 -0.4475  0.4147
   65MOL0     C 8649   5.836   7.424   1.042  0.4058 -0.5052 -0.0091
   65MOL0     C 8650   5.756   7.310   0.967 -0.1305  0.1943 -0.5061
   65MOL0     C 8651   5.751   7.180   1.049  0.3399  0.2505 -0.4521
   65MOL0     C 8652   5.652   7.085   0.984  0.3720 -0.1505 -0.5515
   65MOL0     C 8653   5.650   6.953   1.061  0.8982 -0.2635 -0.3507
   65MOL0     C 8654   5.561   6.843   1.018 -0.2734  0.4652 -0.6029
   65MOL0     C 8655   5.414   6.886   1.035 -1.1274  0.1123 -0.0143
   65MOL0     C 8656   5.314   6.782   0.996  0.1261 -0.6452 -0.3330
   65MOL0     N 8657   5.324   6.656   1.060  0.4006  1.1715  0.4319
   65MOL0     C 8658   5.283   6.538   1.001  0.6962 -1.0973  0.2357
   65MOL0     C 8659   5.327   6.444   1.082  0.4869  0.0604  0.2441
   65MOL0     C 8660   5.310   6.301   1.035 -0.3415  0.6529  0.0053
   65MOL0     C 8661   5.173   6.260   1.076  0.9480  0.4632  0.3421
   65MOL0     C 8662   5.123   6.136   1.015  0.2125  0.1061 -0.1103
   65MOL0     C 8663   5.189   6.008   1.066 -0.6100 -0.6974 -0.3403
   65MOL0     O 8664   5.142   5.983   1.202  0.0050  0.1880 -0.6556
   65MOL0     C 8665   5.045   5.890   1.227  1.3845 -0.4662  0.9705
   65MOL0     C 8666   5.041   5.754   1.189 -0.8575  0.4948  0.1668
   65MOL0     C 8667   4.944   5.670   1.228  0.2559 -0.2974  0.0611
   65MOL0     C 8668   4.962   5.522   1.206 -0.2498  0.0444 -0.0498
   65MOL0     C 8669   4.825   5.722   1.293 -0.2562 -0.2946 -0.1637
   65MOL0     C 8670   4.717   5.632   1.338 -0.0987 -1.1549  0.2995
   65MOL0     O 8671   4.613   5.637   1.254  0.1716  0.2999  0.1545
   65MOL0     C 8672   4.511   5.548   1.260  0.5911  1.3535  0.6559
   65MOL0     C 8673   4.409   5.568   1.353 -0.3237  0.6207 -0.3564
   65MOL0     C 8674   4.288   5.504   1.340 -0.4563 -0.3272 -0.1878
   65MOL0     C 8675   4.277   5.396   1.247 -0.4013 -0.4185 -0.2477
   65MOL0     O 8676   4.155   5.336   1.252 -0.7193  0.1982  0.2063
   65MOL0     C 8677   4.118   5.252   1.137  0.0548  0.4686 -1.1563
   65MOL0     C 8678   3.962   5.258   1.131 -0.0629  0.6204 -0.7471
   65MOL0     C 8679   3.899   5.162   1.031  1.2414  0.5012 -0.7197
   65MOL0     C 8680   3.743   5.164   1.057 -0.4283  0.2129 -0.9031
   65MOL0     C 8681   3.686   5.094   0.933 -0.2367 -0.4142  0.1880
   65MOL0     C 8682   3.536   5.048   0.948 -0.4018  0.0065  0.2368
   65MOL0     C 8683   3.440   5.175   0.966 -0.0074 -0.1335  0.6332
   65MOL0     C 8684   3.293   5.129   0.962  0.2196  0.2299 -0.0958
   65MOL0    Cl 8685   3.235   5.137   0.797 -0.1639 -0.1732  0.8522
   65MOL0     C 8686   4.388   5.364   1.169  0.6455  0.2322 -0.0635
   65MOL0     C 8687   4.505   5.432   1.177 -0.9394 -0.0818 -0.4133
   65MOL0     O 8688   4.737   5.546   1.417 -0.0261  0.1419  0.0093
   65MOL0     C 8689   4.814   5.861   1.321  1.3662 -0.5475 -0.1275
   65MOL0     C 8690   4.927   5.938   1.300  0.5200 -0.1529  1.0945
   65MOL0     N 8691   5.385   6.505   1.192  0.3750 -0.4924 -0.1794
   65MOL0     N 8692   5.383   6.630   1.174  0.1293 -0.1647  0.1104
   65MOL0     C 8693   5.675   7.671   1.263  0.4515  0.0262  0.1090
   65MOL0     C 8694   5.660   7.812   1.280 -0.8354 -0.1022  0.5142
   65MOL0     C 8695   5.628   8.243   1.328  0.1751  0.1590 -0.9001
   65MOL0     C 8696   5.517   8.324   1.364 -0.6989  0.0328 -0.3683
   65MOL0     C 8697   5.531   8.451   1.426  0.3064  0.7486  0.0797
   65MOL0     C 8698   5.654   8.507   1.453  1.3816 -0.7816  0.1980
   65MOL0     O 8699   5.655   8.639   1.485  0.0312 -0.0666  0.7385
   65MOL0     C 8700   5.761   8.677   1.574  0.3741  0.4862 -0.1866
   65MOL0     C 8701   5.735   8.812   1.631  0.1575  0.3604  0.6979
   65MOL0     C 8702   5.672   8.913   1.527  0.6227  0.5448  0.6911
   65MOL0     C 8703   5.780   8.971   1.432 -0.9603 -0.0953 -0.0957
   65MOL0     C 8704   5.850   9.086   1.497 -0.1298 -1.0599  0.1269
   65MOL0     C 8705   5.889   9.186   1.557  0.0144  0.3137  0.3087
   65MOL0     C 8706   5.763   8.430   1.410  0.0532  0.7166 -0.7249
   65MOL0     C 8707   5.754   8.296   1.356  0.3711 -0.3844 -1.0082
   65MOL0     H 8708   5.898   7.921   1.052 -2.5817 -1.2424 -4.3759
   65MOL0     H 8709   5.932   7.690   1.033 -1.7332 -0.0629 -0.1530
   65MOL0     H 8710   5.840   7.512   0.976  0.7627  0.0491  0.7416
   65MOL0     H 8711   5.940   7.395   1.063  0.0625 -1.7706 -0.0022
   65MOL0     H 8712   5.660   7.357   0.945  0.7354  1.8201 -0.9495
   65MOL0     H 8713   5.799   7.291   0.869 -2.7555 -1.5592 -1.4289
   65MOL0     H 8714   5.850   7.136   1.034  0.4602  1.3318 -3.3719
   65MOL0     H 8715   5.716   7.196   1.151  1.5159 -1.5904  0.2846
   65MOL0     H 8716   5.559   7.143   0.989  1.6412  2.0199 -0.8321
   65MOL0     H 8717   5.692   7.062   0.885  2.7881  0.4419  0.2203
   65MOL0     H 8718   5.747   6.903   1.063 -0.3121 -3.3868 -4.7978
   65MOL0     H 8719   5.622   6.970   1.165 -1.9962 -0.8865 -0.9222
   65MOL0     H 8720   5.593   6.822   0.915  0.3592  1.5637 -0.6477
   65MOL0     H 8721   5.582   6.748   1.067  3.7960  0.1580 -2.4882
   65MOL0     H 8722   5.399   6.927   1.136 -1.5127  0.8857 -0.3774
   65MOL0     H 8723   5.392   6.964   0.962 -0.8517  0.8962  0.7201
   65MOL0     H 8724   5.332   6.786   0.888  4.5419  3.3201  0.2724
   65MOL0     H 8725   5.218   6.826   1.025 -0.2253 -1.1682 -0.6605
   65MOL0     H 8726   5.250   6.535   0.898  0.0117  1.4001  0.3281
   65MOL0     H 8727   5.321   6.285   0.927 -4.8005 -2.8392 -0.2424
   65MOL0     H 8728   5.385   6.238   1.083 -3.0165 -1.5346  1.6578
   65MOL0     H 8729   5.105   6.339   1.042 -0.7360 -0.0903  2.2595
   65MOL0     H 8730   5.156   6.247   1.183  2.4897  0.3680  0.5947
   65MOL0     H 8731   5.135   6.149   0.907  1.2680  1.4602  0.1367
   65MOL0     H 8732   5.018   6.143   1.044  0.8813  3.2960  2.1119
   65MOL0     H 8733   5.298   6.003   1.060 -0.6681 -1.1168 -1.3625
   65MOL0     H 8734   5.155   5.930   0.997 -2.8007 -1.5591  1.6182
   65MOL0     H 8735   5.128   5.719   1.134  0.0614  2.6165  0.2155
   65MOL0     H 8736   4.874   5.472   1.164  0.4888  0.8293 -2.7308
   65MOL0     H 8737   5.047   5.506   1.138 -0.0213  2.7424 -0.5134
   65MOL0     H 8738   4.986   5.473   1.301  0.2637  0.5327  0.0806
   65MOL0     H 8739   4.415   5.655   1.418 -2.6728 -0.2675  1.2038
   65MOL0     H 8740   4.211   5.533   1.411  2.2997 -0.1603  2.9540
   65MOL0     H 8741   4.173   5.286   1.049 -0.5055 -1.8823 -2.4987
   65MOL0     H 8742   4.150   5.149   1.153 -0.2425  0.0346 -3.0582
   65MOL0     H 8743   3.926   5.232   1.231 -1.3374 -0.2725 -1.4091
   65MOL0     H 8744   3.931   5.357   1.099 -0.0584  1.9557  2.8675
   65MOL0     H 8745   3.932   5.059   1.049  1.3604  0.7251  0.4750
   65MOL0     H 8746   3.906   5.187   0.925 -1.7411  0.7012 -0.9626
   65MOL0     H 8747   3.715   5.108   1.146  3.1312 -1.2848 -0.5341
   65MOL0     H 8748   3.714   5.265   1.087 -1.9846 -1.2533  3.2179
   65MOL0     H 8749   3.749   5.007   0.911  2.2293  1.9075 -2.8628
   65MOL0     H 8750   3.695   5.160   0.846  0.4915 -0.7040  0.0286
   65MOL0     H 8751   3.503   4.995   0.858  0.2486  2.7677 -1.7484
   65MOL0     H 8752   3.527   4.983   1.035 -1.4637 -0.7914 -0.4382
   65MOL0     H 8753   3.450   5.250   0.887  1.0894  0.3900  1.2487
   65MOL0     H 8754   3.462   5.211   1.067 -1.9895  1.1218  0.6668
   65MOL0     H 8755   3.225   5.200   1.009 -0.0011  0.6947 -1.0844
   65MOL0     H 8756   3.276   5.030   1.004  0.2201 -0.4890 -1.7010
   65MOL0     H 8757   4.390   5.274   1.107  0.6473  0.6667 -0.6984
   65MOL0     H 8758   4.592   5.415   1.114  0.0381  0.8596  0.6424
   65MOL0     H 8759   4.721   5.898   1.364  1.3743 -1.5682  0.8268
   65MOL0     H 8760   4.931   6.033   1.354  0.7207 -0.6581  1.9770
   65MOL0     H 8761   5.615   7.603   1.322  2.8004 -2.7625 -0.5229
   65MOL0     H 8762   5.599   7.855   1.359 -0.8655  1.5411 -0.3482
   65MOL0     H 8763   5.420   8.276   1.356 -1.1961  1.1755 -1.5908
   65MOL0     H 8764   5.449   8.519   1.450  0.8781  1.9188 -1.1491
   65MOL0     H 8765   5.777   8.601   1.651  0.4792 -0.3567 -1.0346
   65MOL0     H 8766   5.843   8.673   1.502 -2.1998  0.4307 -3.3473
   65MOL0     H 8767   5.817   8.866   1.680 -0.8032  1.5544  1.0257
   65MOL0     H 8768   5.655   8.795   1.703 -1.7665  2.2144 -0.8940
   65MOL0     H 8769   5.627   8.996   1.581  1.2695  1.8959 -0.7900
   65MOL0     H 8770   5.596   8.865   1.465  0.5532  1.7499 -0.1845
   65MOL0     H 8771   5.732   9.007   1.341 -0.9415 -2.4626 -1.1123
   65MOL0     H 8772   5.847   8.896   1.389 -1.3115 -0.6492  0.3005
   65MOL0     H 8773   5.912   9.274   1.613  0.5884  1.8903 -2.2578
   65MOL0     H 8774   5.868   8.457   1.426  1.5795 -4.1142 -1.0909
   65MOL0     H 8775   5.841   8.237   1.328 -1.2063 -2.3372 -2.0717
   66MOL0     O 8776  10.971   5.246   3.547  0.0452  0.3619  0.3792
   66MOL0     C 8777  11.065   5.266   3.627 -0.1326  0.0075  0.5097
   66MOL0     O 8778  11.082   5.199   3.744 -0.4656 -0.2603  0.2125
   66MOL0     C 8779  10.989   5.105   3.763 -0.1665 -0.1373  0.5766
   66MOL0     C 8780  10.866   5.134   3.833  0.3864  0.0652  0.9382
   66MOL0     C 8781  10.795   5.020   3.866  0.4218  0.4133 -0.0901
   66MOL0     C 8782  10.827   4.889   3.840  0.5704 -0.0699  0.8761
   66MOL0     O 8783  10.746   4.776   3.871  0.0900 -0.0188  0.3796
   66MOL0     C 8784  10.659   4.787   3.986 -0.1606 -0.3411 -0.0129
   66MOL0     C 8785  10.626   4.663   4.060 -0.3888 -0.3878  0.3266
   66MOL0     C 8786  10.499   4.679   4.146  0.5657 -0.2905 -0.4639
   66MOL0     C 8787  10.511   4.775   4.273 -0.6831  0.5099  0.7711
   66MOL0     C 8788  10.382   4.792   4.348 -0.5631  0.2405  0.3933
   66MOL0     C 8789  10.392   4.866   4.482  0.4435 -0.4738 -0.1818
   66MOL0     C 8790  10.249   4.880   4.555  0.4234  0.0317  0.5390
   66MOL0     C 8791  10.141   4.959   4.479 -0.5857 -0.3615  0.1864
   66MOL0     N 8792  10.035   4.994   4.566  0.8652  0.3619  0.5479
   66MOL0     C 8793   9.911   4.930   4.573 -1.2980  0.7583  1.0420
   66MOL0     C 8794   9.837   5.010   4.656  0.3805 -0.1307  0.0200
   66MOL0     C 8795   9.694   4.986   4.681 -0.7445  0.8813  0.0163
   66MOL0     C 8796   9.640   5.045   4.803  0.8139  0.4125 -0.1928
   66MOL0     C 8797   9.488   5.029   4.820  0.4187 -0.6780 -0.0371
   66MOL0     C 8798   9.408   5.098   4.714  0.5613  0.4759  0.0397
   66MOL0     O 8799   9.273   5.091   4.758  0.3385  0.0662 -0.5568
   66MOL0     C 8800   9.166   5.100   4.674 -0.2951 -0.0040 -0.3952
   66MOL0     C 8801   9.038   5.054   4.710 -0.2118  0.2501  0.1391
   66MOL0     C 8802   8.929   5.058   4.624 -0.3356  0.2250 -0.1555
   66MOL0     C 8803   8.808   4.992   4.679 -0.2909 -0.2339 -0.1875
   66MOL0     C 8804   8.944   5.123   4.502  0.0798  0.6195  0.1207
   66MOL0     C 8805   8.840   5.129   4.408  0.0871 -0.7207  0.4345
   66MOL0     O 8806   8.865   5.174   4.276  0.3298  0.5176  0.6391
   66MOL0     C 8807   8.778   5.157   4.171  0.5566  0.1681 -0.1810
   66MOL0     C 8808   8.701   5.265   4.138 -0.4972  0.5660  0.6944
   66MOL0     C 8809   8.628   5.261   4.021  0.5573  0.1599 -0.4947
   66MOL0     C 8810   8.624   5.154   3.941 -0.2348  0.1059 -0.5694
   66MOL0     O 8811   8.556   5.164   3.827 -0.5988 -0.7254  0.7676
   66MOL0     C 8812   8.566   5.069   3.720  0.2007  0.3331 -0.2800
   66MOL0     C 8813   8.464   4.952   3.733  0.1820  0.2109 -0.0574
   66MOL0     C 8814   8.479   4.840   3.630 -0.7499 -0.1551  0.5044
   66MOL0     C 8815   8.365   4.736   3.656 -0.4248 -0.1863 -0.3132
   66MOL0     C 8816   8.425   4.599   3.620 -0.0006 -0.8063  0.7812
   66MOL0     C 8817   8.437   4.603   3.465  0.8474 -0.0684  0.1720
   66MOL0     C 8818   8.466   4.463   3.398  0.6390  0.2508 -0.8845
   66MOL0     C 8819   8.559   4.471   3.285 -0.0031  0.2871  0.6024
   66MOL0    Cl 8820   8.495   4.584   3.157  0.0266 -0.3632  0.1236
   66MOL0     C 8821   8.693   5.035   3.980  0.6000 -0.1044 -0.5096
   66MOL0     C 8822   8.783   5.043   4.089 -0.2214  0.3552 -0.1259
   66MOL0     O 8823   8.726   5.091   4.432  0.8167  0.0113 -0.7723
   66MOL0     C 8824   9.067   5.180   4.464  0.3767 -0.1928  0.0703
   66MOL0     C 8825   9.178   5.164   4.550  0.4914  0.5056  0.0357
   66MOL0     N 8826   9.919   5.114   4.708 -0.4953 -0.0907  0.5097
   66MOL0     N 8827  10.031   5.100   4.647 -0.5769  0.4721 -0.5214
   66MOL0     C 8828  10.950   4.865   3.773  0.5036 -0.5031  0.0849
   66MOL0     C 8829  11.025   4.970   3.731 -0.4665 -0.7253  0.4330
   66MOL0     C 8830  11.159   5.375   3.601 -0.2374 -0.1092  1.1240
   66MOL0     C 8831  11.281   5.386   3.681 -0.0300 -1.0756  0.3707
   66MOL0     C 8832  11.362   5.499   3.674  0.5590 -1.1544 -1.1649
   66MOL0     C 8833  11.328   5.608   3.584 -0.6844  0.2957 -0.0779
   66MOL0     O 8834  11.407   5.723   3.595  0.5794  0.2376  0.1279
   66MOL0     C 8835  11.347   5.825   3.682 -0.3077 -0.2480 -0.5714
   66MOL0     C 8836  11.246   5.914   3.622 -0.0497  0.2033 -0.3840
   66MOL0     C 8837  11.287   5.967   3.481  0.6188  0.2599 -0.0355
   66MOL0     C 8838  11.176   6.043   3.406  0.0390  0.0721  0.3596
   66MOL0     C 8839  11.138   6.168   3.462 -1.2162  0.7736 -0.5139
   66MOL0     C 8840  11.111   6.278   3.498  0.3702 -0.2872 -0.1237
   66MOL0     C 8841  11.220   5.590   3.501  0.1461  0.0114 -0.1190
   66MOL0     C 8842  11.133   5.482   3.510 -0.3030 -0.0987 -0.1040
   66MOL0     H 8843  10.839   5.234   3.865  0.4230  0.2803  0.3191
   66MOL0     H 8844  10.702   5.038   3.918  1.0731 -2.4312  2.3026
   66MOL0     H 8845  10.705   4.856   4.057 -0.2362 -0.9235  0.6058
   66MOL0     H 8846  10.566   4.839   3.960 -0.0564 -1.7005 -3.6933
   66MOL0     H 8847  10.596   4.584   3.991  0.0113  0.1069 -0.4266
   66MOL0     H 8848  10.712   4.617   4.111 -1.2698  0.7305  3.0215
   66MOL0     H 8849  10.420   4.718   4.082  1.2337  2.3138  0.1652
   66MOL0     H 8850  10.466   4.582   4.185  0.4496 -0.3323 -0.6684
   66MOL0     H 8851  10.588   4.740   4.342 -0.0636  1.5615  0.6347
   66MOL0     H 8852  10.539   4.873   4.235  1.9933  0.1018  1.5286
   66MOL0     H 8853  10.308   4.844   4.286 -0.0646  1.2669  0.6312
   66MOL0     H 8854  10.333   4.697   4.369 -0.6424 -0.0822 -1.1498
   66MOL0     H 8855  10.457   4.807   4.548 -2.4733 -2.2406  1.3582
   66MOL0     H 8856  10.433   4.965   4.461 -0.9565  0.0743 -0.3766
   66MOL0     H 8857  10.222   4.776   4.569 -0.1126  0.1480  0.3764
   66MOL0     H 8858  10.266   4.920   4.656  0.2570 -2.3674  1.5663
   66MOL0     H 8859  10.099   4.896   4.399 -0.7714 -0.3884  0.3054
   66MOL0     H 8860  10.187   5.046   4.431  2.6444 -2.1019 -0.1721
   66MOL0     H 8861   9.881   4.837   4.526  1.9227  1.4265 -2.9091
   66MOL0     H 8862   9.637   5.009   4.591 -0.7490  0.5515 -0.0667
   66MOL0     H 8863   9.684   4.877   4.685  0.5768  0.7445 -0.0170
   66MOL0     H 8864   9.665   5.151   4.794  2.8346 -0.1496 -1.9354
   66MOL0     H 8865   9.682   5.002   4.894 -0.5802 -0.4117  0.0922
   66MOL0     H 8866   9.466   5.082   4.913 -1.5234 -0.4699 -0.5766
   66MOL0     H 8867   9.464   4.923   4.838 -0.9983 -0.5093 -0.8213
   66MOL0     H 8868   9.423   5.045   4.620  1.4070 -1.8610  1.3997
   66MOL0     H 8869   9.426   5.205   4.705 -0.5864  0.6880  0.0852
   66MOL0     H 8870   9.017   5.018   4.810 -1.1529  1.1679  0.2894
   66MOL0     H 8871   8.724   5.060   4.659 -1.8983 -2.3698 -1.0315
   66MOL0     H 8872   8.784   4.900   4.625 -1.2819 -0.7165  1.0532
   66MOL0     H 8873   8.805   4.959   4.783  0.5815 -0.5077 -0.2398
   66MOL0     H 8874   8.709   5.361   4.187  2.8664  0.0726  1.3210
   66MOL0     H 8875   8.574   5.351   3.994  0.2349  0.2497  0.4011
   66MOL0     H 8876   8.565   5.114   3.621  4.4227 -1.0377 -1.1638
   66MOL0     H 8877   8.663   5.017   3.722 -1.5345 -3.2759 -0.9427
   66MOL0     H 8878   8.469   4.900   3.829  1.7644 -0.8223 -0.6651
   66MOL0     H 8879   8.363   4.992   3.720 -0.1130 -0.3500  0.4659
   66MOL0     H 8880   8.582   4.803   3.631 -0.6663 -0.6456 -4.2679
   66MOL0     H 8881   8.469   4.878   3.528  2.2963 -0.6917 -0.1033
   66MOL0     H 8882   8.341   4.727   3.763  0.3003 -1.8076 -0.2607
   66MOL0     H 8883   8.277   4.770   3.601 -0.1595  1.9511  0.4757
   66MOL0     H 8884   8.353   4.519   3.640 -0.2912 -0.8556 -0.3780
   66MOL0     H 8885   8.526   4.585   3.659 -0.6112  0.6451  3.0416
   66MOL0     H 8886   8.344   4.643   3.422 -2.1028 -2.5120  3.6551
   66MOL0     H 8887   8.525   4.663   3.440  1.2398 -1.0808 -0.9466
   66MOL0     H 8888   8.372   4.411   3.378 -0.3743  1.0925  1.3915
   66MOL0     H 8889   8.518   4.397   3.468 -1.1026 -2.2798 -1.8064
   66MOL0     H 8890   8.578   4.370   3.248  3.3576  0.6061  1.1913
   66MOL0     H 8891   8.654   4.511   3.323  2.1484 -3.1713 -0.6796
   66MOL0     H 8892   8.688   4.940   3.927 -1.3971  0.1938 -0.9459
   66MOL0     H 8893   8.849   4.957   4.098  2.9531  2.7425  1.2371
   66MOL0     H 8894   9.080   5.228   4.367  1.9777 -2.2009 -0.7784
   66MOL0     H 8895   9.273   5.206   4.519  0.0274  0.3696 -1.6886
   66MOL0     H 8896  10.987   4.763   3.768  1.5984 -0.0837 -1.2774
   66MOL0     H 8897  11.112   4.943   3.672 -0.3998 -1.9484  1.0412
   66MOL0     H 8898  11.291   5.315   3.763 -1.9611  0.1956  1.8180
   66MOL0     H 8899  11.448   5.500   3.739 -2.3275  0.1840  3.0658
   66MOL0     H 8900  11.304   5.782   3.773 -3.1840  0.4849 -1.4637
   66MOL0     H 8901  11.423   5.897   3.712 -0.8282  0.3117 -0.5618
   66MOL0     H 8902  11.227   5.994   3.695 -0.3899 -0.4004  0.1987
   66MOL0     H 8903  11.150   5.866   3.604  0.1419  0.0413 -1.0093
   66MOL0     H 8904  11.305   5.874   3.426 -0.6836  0.1020 -0.2061
   66MOL0     H 8905  11.380   6.023   3.498 -0.4094  1.3402  2.5789
   66MOL0     H 8906  11.084   5.986   3.395 -0.2341 -0.5971  4.6625
   66MOL0     H 8907  11.222   6.064   3.309 -0.5085  1.0612  0.2984
   66MOL0     H 8908  11.083   6.373   3.538  0.8915 -1.0439  2.1774
   66MOL0     H 8909  11.190   5.671   3.436  1.8209 -1.5674 -3.0687
   66MOL0     H 8910  11.062   5.488   3.429 -0.2673  1.1145 -0.0588
   67MOL0     O 8911   6.135   6.104   1.435  0.0330  0.1715  0.1401
   67MOL0     C 8912   6.122   6.191   1.349  0.0022 -0.7232  0.4131
   67MOL0     O 8913   6.053   6.174   1.234 -0.0785 -0.1005 -0.5510
   67MOL0     C 8914   5.942   6.097   1.238  0.4075  0.0919  0.4854
   67MOL0     C 8915   5.821   6.114   1.315  0.0296  0.1558 -0.0009
   67MOL0     C 8916   5.714   6.029   1.296  0.7646  1.0897  0.0319
   67MOL0     C 8917   5.729   5.919   1.216 -0.0432  0.1065 -0.0439
   67MOL0     O 8918   5.631   5.825   1.195  0.4342 -0.0215  0.4853
   67MOL0     C 8919   5.508   5.823   1.273  1.0102 -0.4612 -0.2708
   67MOL0     C 8920   5.414   5.703   1.246  0.1923 -0.9468 -0.3184
   67MOL0     C 8921   5.473   5.566   1.279  0.1181  0.3279  0.6156
   67MOL0     C 8922   5.419   5.464   1.174 -0.7638 -0.1312  0.5130
   67MOL0     C 8923   5.492   5.336   1.202 -0.6932  0.3795 -0.0423
   67MOL0     C 8924   5.460   5.278   1.337  0.6060  0.1412  0.1227
   67MOL0     C 8925   5.516   5.132   1.349  0.3558  0.5557  0.3095
   67MOL0     C 8926   5.509   5.090   1.495 -0.6799  0.2577 -0.3856
   67MOL0     N 8927   5.561   4.958   1.503 -0.2062  0.6009 -0.5993
   67MOL0     C 8928   5.514   4.845   1.448 -0.4350  0.2982  0.2598
   67MOL0     C 8929   5.608   4.747   1.472  0.3657 -0.0512  0.0872
   67MOL0     C 8930   5.621   4.605   1.410 -0.3816  0.2573 -0.3524
   67MOL0     C 8931   5.570   4.484   1.491 -0.1582 -0.6465  0.4024
   67MOL0     C 8932   5.430   4.510   1.535  0.2929  0.6388 -0.1110
   67MOL0     C 8933   5.365   4.393   1.606 -0.2580  0.2124  0.1332
   67MOL0     O 8934   5.230   4.366   1.556  0.1722  0.0860  0.1934
   67MOL0     C 8935   5.156   4.259   1.598 -0.0917  0.4240 -0.8440
   67MOL0     C 8936   5.191   4.186   1.714  0.4313  0.4701  0.1661
   67MOL0     C 8937   5.091   4.101   1.769  0.6887  0.0507 -0.4572
   67MOL0     C 8938   5.126   4.045   1.906  0.3525 -0.1180 -0.9442
   67MOL0     C 8939   4.968   4.083   1.705 -0.3666 -0.0425 -0.4053
   67MOL0     C 8940   4.861   3.995   1.757  0.1098  0.0632  0.3362
   67MOL0     O 8941   4.731   4.027   1.717 -0.7849  0.8372 -0.0350
   67MOL0     C 8942   4.631   3.947   1.761 -0.3318  0.8174  0.1546
   67MOL0     C 8943   4.546   3.992   1.867  0.8606 -0.2524  0.7713
   67MOL0     C 8944   4.443   3.908   1.907  0.3584  0.2728 -0.6067
   67MOL0     C 8945   4.433   3.778   1.855 -0.6431  0.1899 -0.2348
   67MOL0     O 8946   4.335   3.698   1.904  0.0125  0.3723  0.6099
   67MOL0     C 8947   4.328   3.563   1.859 -0.0240  0.1680 -0.3239
   67MOL0     C 8948   4.204   3.489   1.918 -0.2295 -0.1863 -0.1081
   67MOL0     C 8949   4.071   3.562   1.903  0.9641 -0.0104  0.2579
   67MOL0     C 8950   3.955   3.473   1.939  0.2769 -0.1437 -0.0267
   67MOL0     C 8951   3.826   3.522   1.877 -0.8005 -0.3342 -0.0419
   67MOL0     C 8952   3.708   3.420   1.904  0.1769 -0.1090 -0.0237
   67MOL0     C 8953   3.576   3.495   1.879 -0.4089  0.6169 -0.3356
   67MOL0     C 8954   3.453   3.403   1.908  0.3076 -0.2134 -0.0113
   67MOL0    Cl 8955   3.288   3.453   1.854 -0.3197  0.2365  0.2246
   67MOL0     C 8956   4.522   3.731   1.753  0.1641  0.3589 -0.4093
   67MOL0     C 8957   4.613   3.820   1.714  0.2109  0.0329 -0.2223
   67MOL0     O 8958   4.889   3.905   1.839  0.1589  0.0259  0.0766
   67MOL0     C 8959   4.951   4.143   1.586 -0.5270 -0.9955  0.4627
   67MOL0     C 8960   5.039   4.239   1.538 -0.5544 -0.6170  0.7357
   67MOL0     N 8961   5.713   4.808   1.539  0.7858 -0.4388 -0.2569
   67MOL0     N 8962   5.678   4.929   1.559 -0.3814  0.0475  0.6982
   67MOL0     C 8963   5.851   5.896   1.156 -0.1930 -0.0799  0.2014
   67MOL0     C 8964   5.954   5.984   1.160 -0.4224 -0.8276  0.3940
   67MOL0     C 8965   6.210   6.316   1.349 -0.0703  0.2872 -0.3420
   67MOL0     C 8966   6.218   6.395   1.239 -0.9649  0.2682  0.2493
   67MOL0     C 8967   6.285   6.508   1.227  0.2335 -0.6465 -0.3208
   67MOL0     C 8968   6.368   6.551   1.326  0.7840  0.1436 -0.3418
   67MOL0     O 8969   6.433   6.673   1.303  0.6003 -0.3833 -0.1098
   67MOL0     C 8970   6.528   6.724   1.396  1.0881 -0.3807 -0.2439
   67MOL0     C 8971   6.482   6.799   1.523  0.2633 -0.1877  0.0879
   67MOL0     C 8972   6.420   6.935   1.475 -0.0466 -0.4494  0.0946
   67MOL0     C 8973   6.420   7.038   1.593  0.5236 -0.2123  1.3078
   67MOL0     C 8974   6.550   7.066   1.649 -1.4216  0.5063 -0.9698
   67MOL0     C 8975   6.650   7.102   1.715 -0.1052  0.3027  0.0692
   67MOL0     C 8976   6.365   6.474   1.443 -0.5253 -0.7087  0.4661
   67MOL0     C 8977   6.292   6.355   1.453 -0.6649  0.2250 -0.5107
   67MOL0     H 8978   5.812   6.202   1.378  2.0443 -0.9082  1.9023
   67MOL0     H 8979   5.615   6.034   1.341 -0.0964 -1.2523 -1.3783
   67MOL0     H 8980   5.532   5.839   1.379  2.9669  3.0459 -1.0702
   67MOL0     H 8981   5.455   5.910   1.234  1.8868 -0.7534 -2.2728
   67MOL0     H 8982   5.321   5.718   1.302 -1.1154  0.1801 -2.6293
   67MOL0     H 8983   5.388   5.701   1.140  1.1837 -0.8714 -0.5650
   67MOL0     H 8984   5.580   5.580   1.263 -0.1252  0.0895 -1.6928
   67MOL0     H 8985   5.446   5.548   1.383  0.1853 -0.7435  0.4631
   67MOL0     H 8986   5.310   5.456   1.176 -0.6421 -4.0776 -0.2845
   67MOL0     H 8987   5.447   5.498   1.074 -1.2852  1.0959  0.7642
   67MOL0     H 8988   5.465   5.271   1.118 -0.0238  0.7694 -0.5764
   67MOL0     H 8989   5.601   5.350   1.198 -0.1601 -3.0421 -0.1642
   67MOL0     H 8990   5.514   5.343   1.407 -1.8373  1.0500  1.3095
   67MOL0     H 8991   5.353   5.289   1.359  0.7038 -0.8355  1.1815
   67MOL0     H 8992   5.460   5.060   1.289  2.3179 -0.4610 -0.3927
   67MOL0     H 8993   5.618   5.143   1.310  0.7570  0.6958  1.3791
   67MOL0     H 8994   5.410   5.097   1.540 -0.1007  1.3441  0.7802
   67MOL0     H 8995   5.586   5.151   1.543  0.3182  0.5561 -2.2659
   67MOL0     H 8996   5.430   4.831   1.380  1.0226  0.1890 -1.6013
   67MOL0     H 8997   5.563   4.607   1.317 -1.1947  0.0256  0.1417
   67MOL0     H 8998   5.727   4.597   1.386  0.0942 -2.0847  2.0324
   67MOL0     H 8999   5.640   4.462   1.572 -1.6880  0.0816  1.9878
   67MOL0     H 9000   5.564   4.399   1.422 -1.7317  1.2752 -2.0116
   67MOL0     H 9001   5.370   4.546   1.452 -0.1408  4.0656  1.5073
   67MOL0     H 9002   5.423   4.588   1.611 -1.7598 -2.4814  3.2736
   67MOL0     H 9003   5.367   4.401   1.715 -0.0565 -2.8805  0.4565
   67MOL0     H 9004   5.426   4.305   1.581  1.1943  1.3280 -0.4369
   67MOL0     H 9005   5.280   4.200   1.774  0.2183  3.3276 -0.0801
   67MOL0     H 9006   5.142   3.937   1.897  3.5212  0.0129  1.4572
   67MOL0     H 9007   5.220   4.082   1.948 -0.0099 -0.7966  0.5525
   67MOL0     H 9008   5.049   4.063   1.981 -0.6560 -1.4180 -1.6059
   67MOL0     H 9009   4.549   4.092   1.909  2.1205  0.0058  0.1161
   67MOL0     H 9010   4.375   3.939   1.986  2.7743 -0.9318  2.1425
   67MOL0     H 9011   4.324   3.564   1.750  0.0805  0.7367 -0.3282
   67MOL0     H 9012   4.421   3.515   1.893 -0.1550  1.8937  2.9174
   67MOL0     H 9013   4.198   3.384   1.887  0.4372 -0.2488 -0.0465
   67MOL0     H 9014   4.219   3.488   2.027  0.0600  0.4882 -0.1390
   67MOL0     H 9015   4.074   3.606   1.803  1.7710  1.0975  0.7403
   67MOL0     H 9016   4.071   3.654   1.963 -1.1080 -0.4371  0.9947
   67MOL0     H 9017   3.977   3.376   1.893 -0.6624  0.1373 -1.1075
   67MOL0     H 9018   3.951   3.447   2.045 -5.9234 -0.7395 -0.0431
   67MOL0     H 9019   3.853   3.527   1.771  1.4832 -4.2684  0.1759
   67MOL0     H 9020   3.818   3.626   1.911  1.0973 -0.4549  0.9037
   67MOL0     H 9021   3.721   3.330   1.844  3.7873 -0.9992  1.8090
   67MOL0     H 9022   3.718   3.389   2.009  0.9018  1.6486  0.4734
   67MOL0     H 9023   3.571   3.533   1.777  1.0948 -0.8766 -1.0123
   67MOL0     H 9024   3.565   3.582   1.945  0.5615 -0.6170  1.5554
   67MOL0     H 9025   3.446   3.376   2.014 -0.7069 -0.1680 -0.0620
   67MOL0     H 9026   3.470   3.307   1.857  0.3190 -0.7623  0.9953
   67MOL0     H 9027   4.518   3.635   1.702  3.7728 -0.0309 -0.1690
   67MOL0     H 9028   4.688   3.791   1.641 -2.3811 -0.7500 -2.7513
   67MOL0     H 9029   4.862   4.137   1.524  0.0202  1.2879 -0.6542
   67MOL0     H 9030   5.008   4.304   1.456 -1.0535 -0.2530  1.2061
   67MOL0     H 9031   5.866   5.807   1.096 -0.6955  0.3104 -0.5078
   67MOL0     H 9032   6.050   5.967   1.113  0.2821  3.2508  0.0243
   67MOL0     H 9033   6.162   6.363   1.151  2.1781 -3.1405 -0.8019
   67MOL0     H 9034   6.289   6.575   1.141  0.7177 -0.4389 -0.1422
   67MOL0     H 9035   6.607   6.652   1.418  1.0563 -1.4581 -3.1976
   67MOL0     H 9036   6.578   6.802   1.338 -0.2689  0.2097 -0.6546
   67MOL0     H 9037   6.568   6.808   1.591  1.0612  0.6425 -0.9862
   67MOL0     H 9038   6.405   6.735   1.566 -0.1865  1.5660  2.0726
   67MOL0     H 9039   6.315   6.922   1.447 -0.0753  0.5398 -0.2810
   67MOL0     H 9040   6.482   6.978   1.396 -1.3684  1.7965  0.2057
   67MOL0     H 9041   6.352   6.987   1.662  0.5129 -1.9456  0.0988
   67MOL0     H 9042   6.369   7.132   1.570  1.3246 -0.2355 -0.8761
   67MOL0     H 9043   6.723   7.145   1.780  2.5513 -2.6895 -0.6277
   67MOL0     H 9044   6.423   6.498   1.531 -0.4440  0.3467  0.1433
   67MOL0     H 9045   6.311   6.307   1.549  2.5610  1.0438 -0.6178
   68MOL0     O 9046   6.203   8.213   0.382 -0.5871 -0.2706  0.1977
   68MOL0     C 9047   6.306   8.271   0.423  0.8600  0.6032  0.5048
   68MOL0     O 9048   6.311   8.396   0.465  0.1747 -1.2837  0.3031
   68MOL0     C 9049   6.198   8.477   0.474 -0.5494  0.1285  0.7205
   68MOL0     C 9050   6.094   8.470   0.383 -0.6216 -0.2776  0.5709
   68MOL0     C 9051   5.975   8.534   0.410 -0.3221  0.4222  0.4183
   68MOL0     C 9052   5.967   8.615   0.523 -0.1137 -0.4280  0.3619
   68MOL0     O 9053   5.858   8.683   0.566  0.9501  0.3550 -0.2745
   68MOL0     C 9054   5.744   8.684   0.473 -0.1407  0.0610  0.4522
   68MOL0     C 9055   5.642   8.798   0.515  0.6293 -0.1744  0.0640
   68MOL0     C 9056   5.544   8.744   0.626  0.8286 -0.0731  0.7332
   68MOL0     C 9057   5.444   8.847   0.664  0.7157  0.7352  0.7718
   68MOL0     C 9058   5.340   8.785   0.760 -0.2066 -0.4466  0.2739
   68MOL0     C 9059   5.248   8.683   0.691  0.7622 -0.1326  0.4472
   68MOL0     C 9060   5.107   8.665   0.759  0.7277  0.6491  0.2246
   68MOL0     C 9061   5.118   8.644   0.905 -0.5066  0.2100 -1.1319
   68MOL0     N 9062   4.982   8.636   0.959  0.1862  0.0879 -0.4388
   68MOL0     C 9063   4.895   8.744   0.964  0.9972  0.1720  0.7093
   68MOL0     C 9064   4.799   8.692   1.043  0.2045  0.6295  0.3884
   68MOL0     C 9065   4.669   8.750   1.085 -0.9168  0.5853 -0.2303
   68MOL0     C 9066   4.677   8.840   1.210  0.4768  0.6538  0.2119
   68MOL0     C 9067   4.702   8.775   1.350 -0.5602  0.2932  0.3220
   68MOL0     C 9068   4.588   8.688   1.394 -0.6667  0.4823  0.0239
   68MOL0     O 9069   4.483   8.768   1.449  0.1224  0.0353 -0.4135
   68MOL0     C 9070   4.351   8.752   1.411  0.0106  0.3706 -0.5576
   68MOL0     C 9071   4.257   8.774   1.512 -0.3411  0.1662  0.2607
   68MOL0     C 9072   4.125   8.765   1.476 -0.0366  0.6367 -0.6373
   68MOL0     C 9073   4.027   8.789   1.583 -0.2212  0.0173 -0.4862
   68MOL0     C 9074   4.089   8.732   1.344  0.3754  0.5131  0.5453
   68MOL0     C 9075   3.948   8.733   1.296  0.1465 -0.3581 -0.3757
   68MOL0     O 9076   3.919   8.652   1.182  0.2436 -0.3612 -0.4429
   68MOL0     C 9077   3.789   8.618   1.183 -1.1485 -0.3719 -1.1705
   68MOL0     C 9078   3.695   8.710   1.124 -0.2986  0.5157  0.4285
   68MOL0     C 9079   3.563   8.670   1.130 -0.1531  0.1033  0.0196
   68MOL0     C 9080   3.515   8.559   1.194  0.4526  0.6877  0.5373
   68MOL0     O 9081   3.378   8.532   1.196  0.1312 -0.8051 -0.3222
   68MOL0     C 9082   3.323   8.445   1.295  0.2110  0.5535  0.1889
   68MOL0     C 9083   3.178   8.454   1.303  0.1933  0.5725  0.5541
   68MOL0     C 9084   3.121   8.591   1.341 -0.4112 -0.4795 -0.2179
   68MOL0     C 9085   2.966   8.576   1.329  0.3138  0.9801  0.1981
   68MOL0     C 9086   2.903   8.488   1.428  0.6687 -0.6851 -0.2220
   68MOL0     C 9087   2.750   8.518   1.438 -0.2744 -0.1142 -0.6787
   68MOL0     C 9088   2.703   8.387   1.514 -0.4899 -0.2658  0.1047
   68MOL0     C 9089   2.559   8.406   1.538 -0.0504 -0.0008  0.0399
   68MOL0    Cl 9090   2.497   8.254   1.609  0.3450 -0.5084  0.2542
   68MOL0     C 9091   3.612   8.463   1.251 -0.2268 -0.1059 -0.0239
   68MOL0     C 9092   3.751   8.496   1.241 -0.0711 -0.5599  0.3321
   68MOL0     O 9093   3.864   8.810   1.352 -0.0382 -0.0733  0.4490
   68MOL0     C 9094   4.182   8.716   1.240 -0.7587  0.1639 -0.4388
   68MOL0     C 9095   4.314   8.735   1.272  0.5227  0.2011 -0.0970
   68MOL0     N 9096   4.827   8.559   1.080  1.0015 -0.3805  0.0647
   68MOL0     N 9097   4.936   8.523   1.028  1.3830 -0.2455 -0.2695
   68MOL0     C 9098   6.071   8.621   0.611 -0.6380 -0.1784  0.0305
   68MOL0     C 9099   6.183   8.550   0.592 -0.0061  1.1657 -0.3284
   68MOL0     C 9100   6.421   8.193   0.424 -0.0645  0.2621  0.5628
   68MOL0     C 9101   6.518   8.210   0.534  0.3709  0.7674 -0.0321
   68MOL0     C 9102   6.638   8.145   0.537  0.6864 -0.9443 -0.6488
   68MOL0     C 9103   6.663   8.058   0.439  0.2053  1.0696  0.6561
   68MOL0     O 9104   6.787   7.999   0.444  0.6898  0.8896 -0.4463
   68MOL0     C 9105   6.862   7.962   0.320  0.2443  0.3991  0.1793
   68MOL0     C 9106   7.003   8.008   0.346 -1.1064  0.7321 -0.1580
   68MOL0     C 9107   7.076   7.893   0.415  0.4485  0.3856 -0.3428
   68MOL0     C 9108   7.206   7.941   0.473 -0.0739 -0.7990  0.4349
   68MOL0     C 9109   7.283   7.833   0.538 -0.4816  0.1930 -0.5103
   68MOL0     C 9110   7.333   7.724   0.565  0.5593  0.2431  0.2297
   68MOL0     C 9111   6.577   8.041   0.326  0.2575 -0.0226  0.7720
   68MOL0     C 9112   6.460   8.109   0.323 -0.1097  0.3778  0.3022
   68MOL0     H 9113   6.104   8.423   0.285  1.3918 -1.1133  1.1190
   68MOL0     H 9114   5.894   8.517   0.339  0.0699 -1.7973  0.4447
   68MOL0     H 9115   5.781   8.700   0.371 -1.3818 -1.4097 -0.2657
   68MOL0     H 9116   5.696   8.587   0.486  1.5598 -0.9592 -0.4765
   68MOL0     H 9117   5.693   8.888   0.550  0.2464  1.2455 -2.7357
   68MOL0     H 9118   5.582   8.819   0.426 -1.5922 -2.3718  0.9253
   68MOL0     H 9119   5.491   8.656   0.588  1.7134 -0.1082 -0.5000
   68MOL0     H 9120   5.602   8.722   0.716 -0.5483 -1.5076  1.3097
   68MOL0     H 9121   5.506   8.922   0.713  0.2492  1.5881  0.0836
   68MOL0     H 9122   5.389   8.895   0.583 -1.5169 -1.3175  0.9554
   68MOL0     H 9123   5.392   8.744   0.847 -1.4547 -1.4010  0.5951
   68MOL0     H 9124   5.280   8.869   0.797 -0.3951  0.5027 -2.0344
   68MOL0     H 9125   5.241   8.719   0.587  6.4005 -1.4375 -0.7272
   68MOL0     H 9126   5.289   8.582   0.680 -1.2069 -0.7778 -2.1124
   68MOL0     H 9127   5.047   8.753   0.735 -1.0829 -0.4603  0.4886
   68MOL0     H 9128   5.049   8.580   0.722  0.1749  1.0665  0.1294
   68MOL0     H 9129   5.170   8.727   0.954 -0.2114  0.0460 -1.1627
   68MOL0     H 9130   5.176   8.554   0.926  0.8652  1.7039  2.0716
   68MOL0     H 9131   4.907   8.839   0.913  0.7486 -0.0601  0.2090
   68MOL0     H 9132   4.625   8.813   1.007  0.0204 -0.2707 -1.4881
   68MOL0     H 9133   4.607   8.661   1.098 -0.9229  0.5067 -0.7821
   68MOL0     H 9134   4.585   8.898   1.222  1.5578  2.4727 -0.0054
   68MOL0     H 9135   4.758   8.912   1.196  0.5907  0.7514  1.2790
   68MOL0     H 9136   4.696   8.857   1.422  1.4915  0.8766 -0.1021
   68MOL0     H 9137   4.796   8.718   1.350 -1.5448 -1.5302 -2.1848
   68MOL0     H 9138   4.617   8.623   1.477 -1.8700 -0.0486  0.0565
   68MOL0     H 9139   4.548   8.635   1.307 -3.3288  2.6780 -0.2610
   68MOL0     H 9140   4.300   8.790   1.610  0.5926 -0.4627 -0.0375
   68MOL0     H 9141   4.077   8.782   1.680 -1.5675  1.1131  0.3316
   68MOL0     H 9142   3.968   8.882   1.581 -0.0379  0.2112  1.3022
   68MOL0     H 9143   3.957   8.706   1.575  1.2434 -1.4951  1.4213
   68MOL0     H 9144   3.729   8.796   1.066  1.8774 -0.2946  0.4176
   68MOL0     H 9145   3.494   8.740   1.084  1.5460  0.5461 -2.0011
   68MOL0     H 9146   3.360   8.345   1.270 -0.1984  0.0447  1.5417
   68MOL0     H 9147   3.356   8.463   1.398 -0.4320 -1.7220  0.8431
   68MOL0     H 9148   3.134   8.433   1.205 -2.3408  3.5260  0.9183
   68MOL0     H 9149   3.137   8.380   1.373 -1.5053  1.3674  0.4389
   68MOL0     H 9150   3.157   8.677   1.284 -0.7810  0.4440  0.8887
   68MOL0     H 9151   3.158   8.614   1.442 -2.8894 -1.5802  1.0304
   68MOL0     H 9152   2.922   8.676   1.337 -0.8531  0.5418 -0.4786
   68MOL0     H 9153   2.939   8.540   1.230 -2.8238 -1.0337  1.6457
   68MOL0     H 9154   2.955   8.501   1.524  1.9229 -1.7642 -0.7225
   68MOL0     H 9155   2.924   8.387   1.391  0.2961 -0.8891  0.1182
   68MOL0     H 9156   2.735   8.614   1.489  1.2346  1.9169 -3.7840
   68MOL0     H 9157   2.696   8.521   1.344 -1.8713  0.4611  0.2173
   68MOL0     H 9158   2.757   8.377   1.608  4.3759  3.0211 -1.9388
   68MOL0     H 9159   2.718   8.294   1.459 -1.3161 -0.2965 -0.0768
   68MOL0     H 9160   2.497   8.434   1.452 -2.1104 -0.8488  1.1535
   68MOL0     H 9161   2.549   8.482   1.617 -0.3234 -0.9928  0.9967
   68MOL0     H 9162   3.574   8.376   1.305 -2.3568  0.1637 -0.9891
   68MOL0     H 9163   3.820   8.417   1.271 -1.2728 -2.2218 -1.1172
   68MOL0     H 9164   4.166   8.697   1.134 -1.2372 -1.7447 -0.0641
   68MOL0     H 9165   4.400   8.738   1.206  1.1330  0.0184  0.6734
   68MOL0     H 9166   6.062   8.683   0.699 -1.9567 -0.0384 -0.1810
   68MOL0     H 9167   6.265   8.546   0.662 -0.1429  1.4563 -0.1511
   68MOL0     H 9168   6.493   8.272   0.619 -1.3084 -1.0488  0.8801
   68MOL0     H 9169   6.718   8.174   0.604 -1.2711  1.4697  0.8120
   68MOL0     H 9170   6.855   7.856   0.292  3.8567 -0.2611  1.3397
   68MOL0     H 9171   6.821   8.020   0.237  0.3498 -0.5277 -0.5423
   68MOL0     H 9172   7.016   8.099   0.405 -1.4482  0.1501  0.8477
   68MOL0     H 9173   7.052   8.022   0.249  1.9546  2.8973  1.5405
   68MOL0     H 9174   7.099   7.823   0.334 -0.7847  1.7133 -1.9017
   68MOL0     H 9175   7.017   7.853   0.498  0.6216  2.8522  1.0488
   68MOL0     H 9176   7.195   8.029   0.538 -2.2699 -1.0678  0.4849
   68MOL0     H 9177   7.273   7.982   0.397 -2.5201  0.0404 -1.3839
   68MOL0     H 9178   7.379   7.629   0.584 -2.3517 -1.7620 -1.7894
   68MOL0     H 9179   6.597   7.975   0.243 -0.2876 -1.5849  1.8397
   68MOL0     H 9180   6.407   8.107   0.228  1.1125  0.7563 -0.4034
   69MOL0     O 9181   7.058   3.657   2.760  0.3638 -0.2721  0.3924
   69MOL0     C 9182   7.067   3.676   2.639  0.0052 -0.2500 -0.5140
   69MOL0     O 9183   6.969   3.641   2.549  0.2007 -0.6415  0.0823
   69MOL0     C 9184   6.841   3.627   2.603  0.5751  0.4997 -0.5163
   69MOL0     C 9185   6.779   3.715   2.692  0.7574  0.2303  0.1359
   69MOL0     C 9186   6.649   3.684   2.747  0.8634 -0.2794 -0.2090
   69MOL0     C 9187   6.579   3.562   2.712 -0.3088 -0.3151 -0.0872
   69MOL0     O 9188   6.464   3.525   2.768  0.4047 -0.0716  0.0819
   69MOL0     C 9189   6.361   3.617   2.811 -0.1285 -1.0790  0.0055
   69MOL0     C 9190   6.222   3.559   2.787 -0.1580 -0.1080 -0.7634
   69MOL0     C 9191   6.191   3.432   2.879  0.4307 -0.1287  0.1469
   69MOL0     C 9192   6.056   3.368   2.873 -0.1094 -0.4433  0.4423
   69MOL0     C 9193   6.052   3.301   2.740 -1.1425 -0.2162  0.6221
   69MOL0     C 9194   5.917   3.229   2.734  0.5478  0.0024  0.1834
   69MOL0     C 9195   5.908   3.109   2.825  0.2089 -0.3135 -0.0368
   69MOL0     C 9196   5.768   3.057   2.802 -0.0921  0.5592 -0.6243
   69MOL0     N 9197   5.764   2.924   2.867  0.2696  0.3157  0.1390
   69MOL0     C 9198   5.728   2.801   2.813 -0.4670 -0.5654 -0.2172
   69MOL0     C 9199   5.730   2.710   2.910 -0.2831  0.9174 -0.4015
   69MOL0     C 9200   5.676   2.568   2.917  0.7157  0.0206 -0.3329
   69MOL0     C 9201   5.568   2.541   2.811 -0.6907  0.7530  0.0168
   69MOL0     C 9202   5.522   2.399   2.814 -0.9872  0.0957  0.3328
   69MOL0     C 9203   5.391   2.390   2.727  0.4741  0.2087  0.6840
   69MOL0     O 9204   5.282   2.429   2.799  0.0416  0.7965 -0.5804
   69MOL0     C 9205   5.161   2.381   2.769 -0.1963 -0.3048  0.0931
   69MOL0     C 9206   5.070   2.371   2.878  0.7254 -0.3148 -0.3226
   69MOL0     C 9207   4.941   2.336   2.853 -0.0483 -1.0342  0.2914
   69MOL0     C 9208   4.835   2.351   2.961  1.0261  1.0267 -0.4603
   69MOL0     C 9209   4.908   2.280   2.724 -0.0672  0.3212  0.4392
   69MOL0     C 9210   4.779   2.220   2.687 -0.2555 -0.4478 -0.1507
   69MOL0     O 9211   4.708   2.159   2.791 -0.3639 -0.2310 -0.1068
   69MOL0     C 9212   4.579   2.129   2.772 -0.2220  0.4478  1.0405
   69MOL0     C 9213   4.489   2.202   2.856 -0.4344  0.8513 -0.1654
   69MOL0     C 9214   4.347   2.174   2.858 -0.1500 -0.2943  0.8258
   69MOL0     C 9215   4.307   2.084   2.773  0.1210 -0.9886  0.5468
   69MOL0     O 9216   4.170   2.074   2.773  0.7485 -0.0817  0.6061
   69MOL0     C 9217   4.114   1.953   2.741  0.3476  0.4131  0.0185
   69MOL0     C 9218   3.964   1.940   2.758 -0.2640 -0.1372 -0.4742
   69MOL0     C 9219   3.912   1.966   2.904 -0.6206 -0.1110  0.1822
   69MOL0     C 9220   3.767   1.925   2.935 -0.0644 -0.4485  0.0471
   69MOL0     C 9221   3.668   2.030   2.879  0.9376  0.5798  0.4698
   69MOL0     C 9222   3.516   1.982   2.913 -0.3244  0.0486 -0.0384
   69MOL0     C 9223   3.408   2.057   2.833  0.5074 -0.5679  0.2120
   69MOL0     C 9224   3.262   2.019   2.859 -0.2002  0.2419  0.4425
   69MOL0    Cl 9225   3.228   1.856   2.803  0.3983 -0.1782  0.2043
   69MOL0     C 9226   4.398   2.010   2.685 -0.2107  0.1728 -0.0565
   69MOL0     C 9227   4.536   2.027   2.691  0.1070  0.1559 -0.0641
   69MOL0     O 9228   4.748   2.223   2.572  0.1764  0.1170 -0.1978
   69MOL0     C 9229   4.998   2.286   2.619  0.0852 -0.0740  0.0190
   69MOL0     C 9230   5.121   2.345   2.638  0.3756 -0.1941  0.3331
   69MOL0     N 9231   5.780   2.780   3.025  0.0868  0.0880  0.4286
   69MOL0     N 9232   5.800   2.907   2.999 -0.0009  0.5772 -0.3661
   69MOL0     C 9233   6.645   3.476   2.622 -0.3975  0.3960 -0.6636
   69MOL0     C 9234   6.774   3.503   2.572 -0.1758  0.1378 -0.4686
   69MOL0     C 9235   7.172   3.776   2.597  0.7072 -0.6129  0.3977
   69MOL0     C 9236   7.220   3.776   2.463  0.2639  0.5697  0.0642
   69MOL0     C 9237   7.325   3.857   2.425 -0.7655  0.0914 -0.2759
   69MOL0     C 9238   7.400   3.926   2.523  0.0585 -0.1714  0.3441
   69MOL0     O 9239   7.501   3.998   2.469 -0.4375 -0.2554  0.6891
   69MOL0     C 9240   7.541   4.100   2.555  0.0601 -0.3359  0.4652
   69MOL0     C 9241   7.648   4.189   2.487  0.0125  0.2594  0.3212
   69MOL0     C 9242   7.589   4.305   2.399  0.1010  0.0901  0.7225
   69MOL0     C 9243   7.705   4.386   2.328  0.1813  0.0111 -0.9490
   69MOL0     C 9244   7.764   4.321   2.216  0.1347 -0.4448  0.4266
   69MOL0     C 9245   7.814   4.280   2.111 -0.9893 -1.3918 -0.3933
   69MOL0     C 9246   7.353   3.930   2.657  0.8098 -0.3967  1.2966
   69MOL0     C 9247   7.243   3.849   2.692 -0.3623 -0.7953 -1.1928
   69MOL0     H 9248   6.828   3.807   2.724 -2.2195  0.9792  3.0099
   69MOL0     H 9249   6.600   3.750   2.817 -1.4932  0.0550 -2.0565
   69MOL0     H 9250   6.376   3.659   2.911 -0.1992 -2.2253  0.5182
   69MOL0     H 9251   6.378   3.705   2.748  0.1687  1.3922  3.2495
   69MOL0     H 9252   6.145   3.636   2.796  0.8240  0.8643 -0.4396
   69MOL0     H 9253   6.223   3.534   2.681 -3.3941  1.4676 -1.3043
   69MOL0     H 9254   6.270   3.358   2.866 -0.3022 -0.6357 -1.7357
   69MOL0     H 9255   6.196   3.471   2.981  2.3250 -1.5927  0.6692
   69MOL0     H 9256   6.050   3.296   2.956  1.2011 -0.1048  0.8452
   69MOL0     H 9257   5.981   3.445   2.890  1.4691  0.6874  2.8075
   69MOL0     H 9258   6.072   3.373   2.661 -0.1801 -0.5145  0.5885
   69MOL0     H 9259   6.134   3.231   2.721 -1.4374 -0.4758  0.2907
   69MOL0     H 9260   5.834   3.296   2.759 -0.1443 -1.2913  1.5344
   69MOL0     H 9261   5.900   3.201   2.630  0.7232 -1.1212  0.4430
   69MOL0     H 9262   5.982   3.038   2.787 -1.1129 -0.7500 -1.9738
   69MOL0     H 9263   5.914   3.122   2.933  0.4171  0.1129 -0.0969
   69MOL0     H 9264   5.736   3.058   2.697 -0.8525  1.8228 -0.4065
   69MOL0     H 9265   5.692   3.122   2.847  0.6449  0.8113  0.2880
   69MOL0     H 9266   5.703   2.779   2.710 -1.5262  0.2133 -0.1561
   69MOL0     H 9267   5.756   2.498   2.895  1.2679 -0.7419  3.4283
   69MOL0     H 9268   5.638   2.545   3.017  2.3443 -0.9920  0.0902
   69MOL0     H 9269   5.614   2.571   2.717 -1.9918 -1.2591 -1.3340
   69MOL0     H 9270   5.486   2.611   2.829  0.0172  1.8077 -0.7329
   69MOL0     H 9271   5.504   2.365   2.916 -2.1791  1.4688  0.6108
   69MOL0     H 9272   5.596   2.336   2.763  0.1876  1.2540  0.5445
   69MOL0     H 9273   5.382   2.293   2.677 -0.2446  0.2870  0.6467
   69MOL0     H 9274   5.401   2.460   2.644  3.1779  0.5980  1.2444
   69MOL0     H 9275   5.103   2.395   2.978  1.3154 -0.1173 -0.5612
   69MOL0     H 9276   4.871   2.412   3.044  0.7617 -0.3543  0.6992
   69MOL0     H 9277   4.740   2.398   2.932  0.3320  1.5376  2.3627
   69MOL0     H 9278   4.811   2.250   2.995 -0.2400  2.0640  1.9416
   69MOL0     H 9279   4.539   2.275   2.918  2.9084  0.7509 -2.4915
   69MOL0     H 9280   4.283   2.227   2.928  1.1125  2.2412  0.1565
   69MOL0     H 9281   4.134   1.928   2.636  2.8662 -0.3150  0.6034
   69MOL0     H 9282   4.171   1.886   2.807 -0.9556  0.4302  1.1927
   69MOL0     H 9283   3.923   2.016   2.690 -2.8574  2.0186  3.1615
   69MOL0     H 9284   3.932   1.838   2.735 -4.3305  0.2852  2.3926
   69MOL0     H 9285   3.926   2.072   2.927 -0.9423 -0.1651  0.6509
   69MOL0     H 9286   3.979   1.908   2.969  1.0018  0.9631 -0.4436
   69MOL0     H 9287   3.746   1.826   2.893  3.6165 -1.2145 -0.3411
   69MOL0     H 9288   3.745   1.928   3.042 -2.5343  4.1851 -0.3376
   69MOL0     H 9289   3.653   2.034   2.771  0.1518 -1.1178  0.4808
   69MOL0     H 9290   3.686   2.133   2.913 -0.4805  0.7212  0.8656
   69MOL0     H 9291   3.493   1.875   2.904  0.3464 -0.4553  3.0856
   69MOL0     H 9292   3.493   2.017   3.014 -2.4159 -2.2729  0.3752
   69MOL0     H 9293   3.429   2.035   2.728  1.2411 -0.8253  0.4024
   69MOL0     H 9294   3.420   2.164   2.853  0.0066 -0.4267 -0.2287
   69MOL0     H 9295   3.204   2.090   2.800 -0.2022 -1.5505 -1.8327
   69MOL0     H 9296   3.239   2.035   2.965 -1.5515  4.1069 -0.2717
   69MOL0     H 9297   4.369   1.963   2.591 -0.7289  4.1304 -2.1046
   69MOL0     H 9298   4.612   1.974   2.633 -0.8820  0.3561 -1.6098
   69MOL0     H 9299   4.980   2.243   2.521  0.2483 -4.4272  1.6897
   69MOL0     H 9300   5.196   2.350   2.560  0.4698 -0.1854  0.4227
   69MOL0     H 9301   6.600   3.378   2.609 -1.6018  0.8941 -0.3315
   69MOL0     H 9302   6.819   3.438   2.497 -1.8155 -2.0706  0.3709
   69MOL0     H 9303   7.164   3.724   2.386  1.1555  2.2656 -1.8107
   69MOL0     H 9304   7.356   3.854   2.321 -3.2409  1.4655 -1.1292
   69MOL0     H 9305   7.458   4.169   2.576  1.7363  1.7372  0.6621
   69MOL0     H 9306   7.571   4.069   2.656 -0.4010 -1.8255  0.1625
   69MOL0     H 9307   7.711   4.126   2.423  1.1946 -0.6629  2.3070
   69MOL0     H 9308   7.707   4.238   2.565  0.6070  0.2739 -0.1305
   69MOL0     H 9309   7.533   4.379   2.457 -0.7513  0.5862 -0.6842
   69MOL0     H 9310   7.529   4.268   2.316 -0.2562 -0.9203  1.4192
   69MOL0     H 9311   7.787   4.388   2.401 -1.0379 -0.7415  0.4985
   69MOL0     H 9312   7.663   4.485   2.308 -0.9021  0.0719  1.3254
   69MOL0     H 9313   7.868   4.251   2.023  2.3070 -2.0206  1.6629
   69MOL0     H 9314   7.397   3.993   2.734 -0.7237  0.7631  1.2842
   69MOL0     H 9315   7.229   3.839   2.799  2.1499 -3.6658 -0.9953
   70MOL0     O 9316   7.732   5.416   0.439 -0.1052 -0.7232 -0.5290
   70MOL0     C 9317   7.636   5.346   0.451  0.9691  0.1413  0.2433
   70MOL0     O 9318   7.633   5.212   0.425 -0.2220 -0.5672 -0.2834
   70MOL0     C 9319   7.745   5.131   0.444 -0.0520 -1.2104 -0.3147
   70MOL0     C 9320   7.756   5.021   0.360 -0.5852 -0.2419  0.1441
   70MOL0     C 9321   7.875   4.940   0.360 -0.3419 -0.2656 -0.0559
   70MOL0     C 9322   7.985   4.981   0.438 -0.2323 -0.3919 -0.4019
   70MOL0     O 9323   8.104   4.909   0.418 -0.4664  0.3690  0.0668
   70MOL0     C 9324   8.210   4.916   0.516  0.7306 -0.1406  0.5623
   70MOL0     C 9325   8.302   4.802   0.483 -0.0927  1.0035 -0.9374
   70MOL0     C 9326   8.407   4.777   0.596  0.2664  0.0921 -0.5977
   70MOL0     C 9327   8.467   4.635   0.553 -0.2303 -0.3077  0.5183
   70MOL0     C 9328   8.601   4.596   0.623  0.5762  0.3910  0.0116
   70MOL0     C 9329   8.723   4.684   0.600 -0.0531  0.2364 -0.4956
   70MOL0     C 9330   8.784   4.658   0.463  0.8265  0.0360 -0.6011
   70MOL0     C 9331   8.863   4.788   0.411  1.6813  0.4618  0.3095
   70MOL0     N 9332   8.759   4.875   0.349  0.1989 -0.5089  0.0457
   70MOL0     C 9333   8.686   4.838   0.236  0.0170 -0.2053 -0.1371
   70MOL0     C 9334   8.602   4.945   0.221  0.3674 -0.6632  0.1981
   70MOL0     C 9335   8.503   4.975   0.111  0.5425  0.4746  0.3692
   70MOL0     C 9336   8.427   5.116   0.119  1.3679  1.3964 -0.4525
   70MOL0     C 9337   8.290   5.081   0.182 -0.1841  0.5211 -0.1256
   70MOL0     C 9338   8.196   5.198   0.168 -1.8281  0.7080  0.1889
   70MOL0     O 9339   8.063   5.143   0.180 -0.7612 -0.4967  0.7787
   70MOL0     C 9340   7.964   5.218   0.122 -0.6485  0.6964  0.9804
   70MOL0     C 9341   7.891   5.164   0.016 -0.3572  0.0717 -0.2485
   70MOL0     C 9342   7.797   5.238  -0.055  0.3961 -0.4442 -0.1656
   70MOL0     C 9343   7.744   5.161  -0.184  0.0740  0.3140 -0.6465
   70MOL0     C 9344   7.764   5.371  -0.009  0.0163  0.4940  0.9806
   70MOL0     C 9345   7.665   5.464  -0.067 -0.8825  0.3669  0.2745
   70MOL0     O 9346   7.622   5.565   0.013  0.0161  0.0343 -0.5957
   70MOL0     C 9347   7.561   5.673  -0.051  0.8462 -0.3552  0.3989
   70MOL0     C 9348   7.431   5.676  -0.102  0.0547  0.0033 -0.3331
   70MOL0     C 9349   7.389   5.787  -0.170 -0.6213 -0.3413  0.6854
   70MOL0     C 9350   7.466   5.905  -0.195 -0.5406  0.3352  0.5310
   70MOL0     O 9351   7.418   6.013  -0.255  0.8831 -0.0440  0.3512
   70MOL0     C 9352   7.372   5.996  -0.390  0.2072  0.3943 -1.5721
   70MOL0     C 9353   7.372   6.142  -0.456 -0.2107 -0.5303  0.3946
   70MOL0     C 9354   7.520   6.195  -0.460  0.6487  0.3760 -0.0878
   70MOL0     C 9355   7.610   6.116  -0.560  0.2348 -0.0185  0.3154
   70MOL0     C 9356   7.731   6.041  -0.489  0.7462  0.3574 -0.2215
   70MOL0     C 9357   7.818   6.149  -0.424  0.2682 -0.2223  0.2508
   70MOL0     C 9358   7.942   6.095  -0.372 -0.8843 -0.9301 -0.8067
   70MOL0     C 9359   8.060   6.079  -0.477  0.5529  0.6545  0.0825
   70MOL0    Cl 9360   8.195   6.006  -0.396  0.5714  0.0157 -0.5063
   70MOL0     C 9361   7.595   5.893  -0.149 -0.6041 -0.5555  0.3502
   70MOL0     C 9362   7.646   5.778  -0.080 -0.6868  0.1019 -0.1340
   70MOL0     O 9363   7.632   5.451  -0.185  0.0790  0.6685 -0.3174
   70MOL0     C 9364   7.831   5.415   0.115 -0.3571  0.2922  0.0063
   70MOL0     C 9365   7.930   5.341   0.174 -0.1963  0.1199  0.3224
   70MOL0     N 9366   8.624   5.030   0.324 -0.2807  0.1620 -0.3318
   70MOL0     N 9367   8.726   4.992   0.401 -0.1966 -0.4129 -0.1872
   70MOL0     C 9368   7.977   5.086   0.522 -0.0940  0.5861 -0.2469
   70MOL0     C 9369   7.852   5.156   0.533 -0.2468 -0.1303 -0.0331
   70MOL0     C 9370   7.508   5.417   0.484 -0.3393  0.5627  0.1465
   70MOL0     C 9371   7.419   5.349   0.565 -0.8282 -0.4413 -0.6053
   70MOL0     C 9372   7.309   5.412   0.616  0.5693 -0.1180 -0.4550
   70MOL0     C 9373   7.282   5.545   0.578  1.2821  0.2254  0.1109
   70MOL0     O 9374   7.181   5.627   0.625  0.5823  0.0419 -0.3375
   70MOL0     C 9375   7.091   5.567   0.724 -0.1933  0.0594  0.3548
   70MOL0     C 9376   7.129   5.615   0.867 -1.0204  0.4631 -0.3499
   70MOL0     C 9377   7.241   5.525   0.931  0.6326 -0.3482 -0.2686
   70MOL0     C 9378   7.287   5.556   1.075  0.3081 -1.1326 -0.0208
   70MOL0     C 9379   7.175   5.540   1.169 -0.0533  0.5791  0.3270
   70MOL0     C 9380   7.097   5.510   1.259  0.1961 -0.3887 -0.4377
   70MOL0     C 9381   7.380   5.613   0.506  0.2245  0.2563 -0.0668
   70MOL0     C 9382   7.485   5.545   0.450 -0.6305  1.0853 -0.1372
   70MOL0     H 9383   7.662   4.995   0.313 -1.1246 -1.6139  1.8749
   70MOL0     H 9384   7.897   4.857   0.294 -1.0570  0.5230 -1.3484
   70MOL0     H 9385   8.274   5.002   0.497  2.2111 -1.8859 -3.7111
   70MOL0     H 9386   8.182   4.911   0.621 -0.6281  2.0133  0.3604
   70MOL0     H 9387   8.228   4.722   0.477 -1.6495  2.4766 -2.2109
   70MOL0     H 9388   8.360   4.819   0.391  3.6388  3.2308  1.5376
   70MOL0     H 9389   8.478   4.860   0.591 -1.8157  1.8709 -3.4835
   70MOL0     H 9390   8.347   4.766   0.687  1.7068 -3.0102  0.1240
   70MOL0     H 9391   8.387   4.562   0.568  3.1008 -4.6801 -0.7091
   70MOL0     H 9392   8.486   4.632   0.445 -0.8493 -2.3121  0.4114
   70MOL0     H 9393   8.569   4.600   0.728 -1.7741 -0.7718 -0.6000
   70MOL0     H 9394   8.604   4.488   0.610 -3.6418  0.1871 -0.8076
   70MOL0     H 9395   8.706   4.792   0.608  0.3369  0.4074 -1.7692
   70MOL0     H 9396   8.799   4.669   0.678 -1.7775 -3.4787  0.6696
   70MOL0     H 9397   8.858   4.578   0.472 -1.2731 -1.7650  2.3739
   70MOL0     H 9398   8.709   4.615   0.396  0.5147 -0.1907 -0.1076
   70MOL0     H 9399   8.945   4.771   0.340  1.9728  2.6925  0.0253
   70MOL0     H 9400   8.916   4.830   0.497  2.8877 -1.4130  0.5486
   70MOL0     H 9401   8.699   4.745   0.182 -1.2676  0.0847 -0.9763
   70MOL0     H 9402   8.554   4.976   0.015  0.1310 -0.5065  0.1267
   70MOL0     H 9403   8.431   4.893   0.101 -0.3489  0.9140  2.4925
   70MOL0     H 9404   8.405   5.162   0.022 -1.8984 -1.7214 -1.4348
   70MOL0     H 9405   8.483   5.181   0.186  1.6605 -2.1202  3.0663
   70MOL0     H 9406   8.302   5.053   0.287 -2.0002  0.9367  0.2293
   70MOL0     H 9407   8.242   4.991   0.142 -0.4338 -0.6517  2.5774
   70MOL0     H 9408   8.214   5.254   0.077 -1.4954 -1.4978 -1.1870
   70MOL0     H 9409   8.214   5.264   0.254 -1.6691  1.4911 -0.4383
   70MOL0     H 9410   7.917   5.066  -0.023  2.5829  0.6658 -0.0475
   70MOL0     H 9411   7.803   5.190  -0.272 -1.7564 -1.4832 -2.6120
   70MOL0     H 9412   7.755   5.053  -0.173  0.2633  0.2903 -1.0443
   70MOL0     H 9413   7.638   5.182  -0.198  0.3557  0.3853 -3.3505
   70MOL0     H 9414   7.391   5.578  -0.075  1.1031 -0.7792 -1.5528
   70MOL0     H 9415   7.285   5.788  -0.202 -0.1280 -2.1071 -1.1856
   70MOL0     H 9416   7.419   5.912  -0.442 -0.4730 -2.1109  1.5631
   70MOL0     H 9417   7.268   5.967  -0.375  0.4494  0.0542 -0.4557
   70MOL0     H 9418   7.319   6.138  -0.552 -0.2591 -0.0244  0.3957
   70MOL0     H 9419   7.315   6.208  -0.389 -0.6574 -0.9775  0.4592
   70MOL0     H 9420   7.560   6.194  -0.358 -1.0034  2.0047  0.6476
   70MOL0     H 9421   7.502   6.298  -0.492  1.3548  0.9559  1.2824
   70MOL0     H 9422   7.553   6.039  -0.614  0.6937 -0.4434  0.4284
   70MOL0     H 9423   7.646   6.188  -0.634  0.0435  2.2177  2.2842
   70MOL0     H 9424   7.794   5.987  -0.560  0.5071  2.1188 -1.8639
   70MOL0     H 9425   7.684   5.973  -0.418 -1.4467  1.5760 -0.4248
   70MOL0     H 9426   7.840   6.222  -0.503 -0.8313 -2.4879 -2.3249
   70MOL0     H 9427   7.763   6.206  -0.349 -1.1634  2.1198 -2.3806
   70MOL0     H 9428   7.913   6.000  -0.325  0.9891 -1.1718 -0.0366
   70MOL0     H 9429   7.976   6.155  -0.287 -2.0170 -1.1576 -0.1719
   70MOL0     H 9430   8.089   6.173  -0.525 -0.3695  0.3939 -1.0185
   70MOL0     H 9431   8.022   6.019  -0.560  2.3193 -1.0369  0.4074
   70MOL0     H 9432   7.661   5.978  -0.161 -0.5657 -0.2358  2.5455
   70MOL0     H 9433   7.751   5.756  -0.063 -0.1829  1.4005 -1.3614
   70MOL0     H 9434   7.805   5.508   0.165  2.6359  1.3462 -0.1708
   70MOL0     H 9435   7.968   5.377   0.269  0.0412  2.0711 -0.4642
   70MOL0     H 9436   8.057   5.124   0.586 -1.4659  0.5113  1.5874
   70MOL0     H 9437   7.842   5.240   0.601  0.0390  0.4626 -0.7021
   70MOL0     H 9438   7.445   5.247   0.590 -2.6721 -0.8058  0.0575
   70MOL0     H 9439   7.257   5.358   0.695  2.9137  0.3944  1.5722
   70MOL0     H 9440   6.993   5.614   0.713  0.0494  1.3162  2.7231
   70MOL0     H 9441   7.086   5.459   0.710  0.4551 -0.4573  3.3950
   70MOL0     H 9442   7.040   5.613   0.930 -0.5060 -1.9328  0.3710
   70MOL0     H 9443   7.172   5.714   0.851  0.7685 -0.3198 -0.6573
   70MOL0     H 9444   7.331   5.529   0.869 -1.4228 -0.1221 -3.4921
   70MOL0     H 9445   7.203   5.423   0.915  0.8546 -0.3456 -0.8464
   70MOL0     H 9446   7.327   5.656   1.089 -0.8586 -0.6277 -0.1417
   70MOL0     H 9447   7.373   5.499   1.112  1.1016 -0.6034 -1.0080
   70MOL0     H 9448   7.030   5.505   1.342 -0.8629  2.9470 -0.9524
   70MOL0     H 9449   7.371   5.721   0.499  0.2584  0.3727  1.3921
   70MOL0     H 9450   7.557   5.608   0.398  0.1656 -0.2839 -0.7600
   71MOL0     O 9451   0.770   0.478   5.623  0.2812 -0.1257 -0.4785
   71MOL0     C 9452   0.671   0.410   5.622  0.1144 -0.1038  0.8633
   71MOL0     O 9453   0.662   0.276   5.614 -0.5849  0.1629 -1.0331
   71MOL0     C 9454   0.778   0.213   5.573  0.3236 -0.0991 -0.7141
   71MOL0     C 9455   0.843   0.230   5.454 -0.3213 -0.3796 -0.1648
   71MOL0     C 9456   0.958   0.167   5.425 -0.7848 -0.2446 -0.3377
   71MOL0     C 9457   1.017   0.084   5.515  0.5263  0.5522 -0.1880
   71MOL0     O 9458   1.142   0.028   5.476  0.1359  0.0121  0.1075
   71MOL0     C 9459   1.244   0.083   5.561  0.6408  0.1851  0.2665
   71MOL0     C 9460   1.376   0.052   5.505  0.2122  0.0214  0.6152
   71MOL0     C 9461   1.506   0.076   5.575 -0.3174  0.0931 -0.7442
   71MOL0     C 9462   1.510   0.207   5.656  0.0643 -0.1609  0.1436
   71MOL0     C 9463   1.622   0.191   5.764 -0.4639 -0.3545  0.0157
   71MOL0     C 9464   1.613   0.294   5.880 -1.0246  0.3845  0.9355
   71MOL0     C 9465   1.705   0.267   5.992 -0.7353 -0.4708 -0.1656
   71MOL0     C 9466   1.650   0.149   6.070 -0.1474 -0.1558  0.4662
   71MOL0     N 9467   1.716   0.117   6.191 -0.1846  0.1777  0.2134
   71MOL0     C 9468   1.665   0.116   6.315  0.9637 -0.0709  0.0982
   71MOL0     C 9469   1.753   0.072   6.403 -0.6118  0.7490 -0.0854
   71MOL0     C 9470   1.739   0.059   6.556 -0.0796 -0.1223 -1.0447
   71MOL0     C 9471   1.621  -0.024   6.617 -0.6125  1.1061  0.4696
   71MOL0     C 9472   1.480   0.003   6.562 -0.5490 -1.1881 -0.2882
   71MOL0     C 9473   1.422   0.138   6.617 -0.7661  0.5336  0.8108
   71MOL0     O 9474   1.282   0.133   6.597 -0.1743  0.4763 -0.1411
   71MOL0     C 9475   1.204   0.069   6.695 -0.0244 -0.2420  0.4885
   71MOL0     C 9476   1.242  -0.030   6.791  0.5176 -0.6799 -0.2736
   71MOL0     C 9477   1.144  -0.087   6.884 -1.0224  0.4454 -0.5683
   71MOL0     C 9478   1.203  -0.184   6.987 -0.7602 -0.2352 -0.6578
   71MOL0     C 9479   1.009  -0.059   6.871 -0.5072  0.0149  0.8936
   71MOL0     C 9480   0.912  -0.134   6.943  0.1646 -0.6856 -0.1799
   71MOL0     O 9481   0.793  -0.058   6.957  0.1797  0.5869  0.1924
   71MOL0     C 9482   0.674  -0.116   6.923 -0.7333 -0.6295 -0.3755
   71MOL0     C 9483   0.560  -0.028   6.932  0.3440  0.0311 -0.3709
   71MOL0     C 9484   0.431  -0.081   6.898 -0.9978  0.1889 -0.6088
   71MOL0     C 9485   0.423  -0.207   6.837  0.0319 -0.4442  0.5282
   71MOL0     O 9486   0.299  -0.249   6.798 -0.1362  0.1035 -0.0709
   71MOL0     C 9487   0.180  -0.210   6.863  0.9956 -0.0712  0.6771
   71MOL0     C 9488   0.068  -0.285   6.790 -0.1482  0.6726  0.8223
   71MOL0     C 9489  -0.069  -0.257   6.864 -0.2058 -0.2479 -0.0526
   71MOL0     C 9490  -0.174  -0.353   6.799 -0.3073 -0.1089  0.4976
   71MOL0     C 9491  -0.317  -0.342   6.855 -0.0685  0.5562 -0.2425
   71MOL0     C 9492  -0.331  -0.340   7.008 -0.0431  0.1012  0.1843
   71MOL0     C 9493  -0.269  -0.446   7.087 -0.4849 -0.5292 -0.6149
   71MOL0     C 9494  -0.319  -0.581   7.053  0.5084  0.3877 -0.6257
   71MOL0    Cl 9495  -0.488  -0.613   7.092  0.2435  0.2580 -0.0450
   71MOL0     C 9496   0.534  -0.285   6.820  0.1168  0.0053  0.1434
   71MOL0     C 9497   0.660  -0.247   6.874 -0.2857 -0.6573  0.0025
   71MOL0     O 9498   0.932  -0.239   7.012 -0.4248  0.0261  0.2647
   71MOL0     C 9499   0.973   0.029   6.770  0.4949 -0.3464  0.2245
   71MOL0     C 9500   1.062   0.093   6.689  0.5681  0.5867  0.5902
   71MOL0     N 9501   1.870   0.039   6.331  0.6698  0.0508  0.3150
   71MOL0     N 9502   1.836   0.049   6.198 -0.5359 -0.0903 -1.2214
   71MOL0     C 9503   0.952   0.059   5.644  0.8150 -0.2366 -0.3032
   71MOL0     C 9504   0.837   0.135   5.670  0.3333  0.7651  0.2480
   71MOL0     C 9505   0.540   0.481   5.640 -0.9313 -0.0333 -0.6512
   71MOL0     C 9506   0.528   0.621   5.650 -0.5280  0.3938 -1.0417
   71MOL0     C 9507   0.399   0.675   5.665  0.4261  0.4256 -0.4172
   71MOL0     C 9508   0.280   0.597   5.673  0.2342  0.8569  0.2124
   71MOL0     O 9509   0.151   0.629   5.709  1.0893  0.5485  0.2496
   71MOL0     C 9510   0.129   0.761   5.757  1.2422 -0.6881 -0.3989
   71MOL0     C 9511  -0.010   0.783   5.830 -1.0196  0.8403  0.0553
   71MOL0     C 9512  -0.137   0.716   5.770 -0.1618 -0.4867 -0.7805
   71MOL0     C 9513  -0.256   0.765   5.847  0.5252  0.4708 -0.0459
   71MOL0     C 9514  -0.374   0.769   5.757 -0.9885  0.0341 -0.7486
   71MOL0     C 9515  -0.466   0.793   5.682  0.1422 -0.0831  0.7325
   71MOL0     C 9516   0.304   0.459   5.651  0.2421  0.1077  0.0091
   71MOL0     C 9517   0.424   0.400   5.637 -0.2984 -0.8309 -0.2271
   71MOL0     H 9518   0.792   0.301   5.389 -1.0417 -0.4681  0.3002
   71MOL0     H 9519   1.011   0.194   5.334 -0.7825  2.4163  0.3751
   71MOL0     H 9520   1.243   0.193   5.560 -0.5956  0.1855 -0.2334
   71MOL0     H 9521   1.233   0.058   5.667  0.4109 -1.7265 -0.1813
   71MOL0     H 9522   1.367  -0.053   5.476 -1.3182  0.2562  0.1466
   71MOL0     H 9523   1.379   0.104   5.409  1.5541 -3.3506 -1.3548
   71MOL0     H 9524   1.531  -0.015   5.631  2.0185  0.0415 -1.7504
   71MOL0     H 9525   1.586   0.093   5.503  1.7949  0.5396  1.5877
   71MOL0     H 9526   1.524   0.292   5.589  0.1374 -0.3983 -0.1432
   71MOL0     H 9527   1.418   0.216   5.714 -1.0065 -1.2564 -1.3049
   71MOL0     H 9528   1.613   0.093   5.811 -1.8220  0.5561  1.7841
   71MOL0     H 9529   1.721   0.191   5.717 -0.2872 -1.4273  0.3816
   71MOL0     H 9530   1.633   0.391   5.834  0.4565  0.5287  1.8252
   71MOL0     H 9531   1.506   0.307   5.899 -1.6061  1.8946 -2.6600
   71MOL0     H 9532   1.806   0.256   5.950  0.3735  1.9354  1.6435
   71MOL0     H 9533   1.706   0.350   6.063 -1.4011 -2.7979  2.7470
   71MOL0     H 9534   1.642   0.056   6.013 -0.9891  0.7107 -0.9033
   71MOL0     H 9535   1.549   0.172   6.104  0.6905  2.2905  1.5143
   71MOL0     H 9536   1.569   0.155   6.348  0.3640  0.5938 -2.2284
   71MOL0     H 9537   1.830   0.011   6.592  0.7129  0.9732 -1.5214
   71MOL0     H 9538   1.734   0.160   6.597 -1.1822 -0.0197 -1.3884
   71MOL0     H 9539   1.602  -0.022   6.724 -3.0774 -1.6529  0.2276
   71MOL0     H 9540   1.649  -0.126   6.589 -0.0717  1.7578 -1.5604
   71MOL0     H 9541   1.414  -0.078   6.593 -3.2001  1.5350  1.8989
   71MOL0     H 9542   1.484   0.006   6.453 -0.0346  0.4178 -0.2596
   71MOL0     H 9543   1.461   0.225   6.564 -3.2309  1.9232  1.1389
   71MOL0     H 9544   1.444   0.143   6.725 -1.8202 -4.7526  1.5189
   71MOL0     H 9545   1.346  -0.060   6.799  0.1061 -2.7909 -2.1072
   71MOL0     H 9546   1.306  -0.153   7.010 -1.3098  1.9594 -0.8683
   71MOL0     H 9547   1.141  -0.162   7.074 -2.6572 -0.5751 -1.8548
   71MOL0     H 9548   1.191  -0.287   6.954  0.0787  0.2975 -2.8220
   71MOL0     H 9549   0.566   0.073   6.970 -0.2871  1.1512 -2.9942
   71MOL0     H 9550   0.350  -0.013   6.920 -0.3621  1.0841 -0.9386
   71MOL0     H 9551   0.174  -0.243   6.967 -1.8526 -0.5721  0.4468
   71MOL0     H 9552   0.156  -0.104   6.851 -3.8826 -1.1159 -1.4201
   71MOL0     H 9553   0.055  -0.242   6.690  1.1985 -0.2618  0.2164
   71MOL0     H 9554   0.081  -0.392   6.772  0.6921  1.1789 -2.1418
   71MOL0     H 9555  -0.093  -0.151   6.852  3.0892  0.7458  0.8978
   71MOL0     H 9556  -0.049  -0.276   6.970 -1.6770  1.0222  0.4806
   71MOL0     H 9557  -0.182  -0.330   6.692  1.6244 -1.1812  0.0904
   71MOL0     H 9558  -0.140  -0.456   6.808 -2.8442 -1.0151  0.4703
   71MOL0     H 9559  -0.379  -0.423   6.815  1.0915 -0.8879  0.7889
   71MOL0     H 9560  -0.353  -0.242   6.828 -0.2423  0.3852 -0.6611
   71MOL0     H 9561  -0.285  -0.252   7.052  1.0014 -0.4625  0.2451
   71MOL0     H 9562  -0.438  -0.330   7.028 -0.1770  1.4704 -1.0612
   71MOL0     H 9563  -0.307  -0.429   7.188 -0.8820  1.3907 -1.0370
   71MOL0     H 9564  -0.160  -0.438   7.080 -0.5461  0.1595 -0.9660
   71MOL0     H 9565  -0.254  -0.643   7.116 -1.9962 -2.4790 -0.6036
   71MOL0     H 9566  -0.304  -0.604   6.947  0.4790  0.4572 -0.6449
   71MOL0     H 9567   0.526  -0.388   6.787  0.8716 -0.2994  0.8618
   71MOL0     H 9568   0.742  -0.317   6.857  0.1485  0.0471 -0.8595
   71MOL0     H 9569   0.869   0.045   6.745  0.3364 -1.0619  0.4132
   71MOL0     H 9570   1.025   0.174   6.627 -0.7360 -1.1769 -1.0346
   71MOL0     H 9571   0.978  -0.030   5.700 -5.6433 -0.8401  2.6866
   71MOL0     H 9572   0.775   0.094   5.750 -1.0991  2.4524  0.0533
   71MOL0     H 9573   0.619   0.680   5.642 -1.3411  1.5995 -1.5839
   71MOL0     H 9574   0.402   0.782   5.682 -1.5899  0.3233  0.8047
   71MOL0     H 9575   0.215   0.786   5.819  0.0638 -0.3444  1.1652
   71MOL0     H 9576   0.131   0.829   5.671 -0.7828  1.2561  1.0008
   71MOL0     H 9577  -0.014   0.892   5.838  0.1480  0.7679  2.4690
   71MOL0     H 9578   0.003   0.749   5.933  0.4772 -0.5136 -0.5325
   71MOL0     H 9579  -0.134   0.607   5.781 -3.8518 -0.4894  2.4089
   71MOL0     H 9580  -0.139   0.756   5.668  0.0707 -0.2268 -0.6831
   71MOL0     H 9581  -0.245   0.868   5.885  0.3845  0.5288 -0.1605
   71MOL0     H 9582  -0.277   0.705   5.936  1.4626 -0.4694 -0.4463
   71MOL0     H 9583  -0.553   0.813   5.622  1.7399  4.0211 -0.6047
   71MOL0     H 9584   0.214   0.399   5.648 -0.0711  0.5959 -0.7576
   71MOL0     H 9585   0.423   0.292   5.632 -1.3642 -0.9747  2.0713
   72MOL0     O 9586   2.731   9.375   3.823 -0.1183  0.1357  0.0917
   72MOL0     C 9587   2.817   9.292   3.813  0.1031 -0.3539  0.1755
   72MOL0     O 9588   2.796   9.167   3.765 -0.7261 -0.5172  0.0752
   72MOL0     C 9589   2.668   9.125   3.727  0.1199 -0.4283  0.7957
   72MOL0     C 9590   2.566   9.110   3.823  0.2844  0.1600  1.5515
   72MOL0     C 9591   2.437   9.063   3.780 -0.1156  0.4709 -0.7039
   72MOL0     C 9592   2.406   9.025   3.647  0.5033 -0.6995 -0.3474
   72MOL0     O 9593   2.291   8.973   3.598 -0.3184 -0.0875  0.5456
   72MOL0     C 9594   2.174   9.035   3.644 -0.2590  0.1028 -0.2249
   72MOL0     C 9595   2.049   8.965   3.588 -0.4404 -0.2301  0.9919
   72MOL0     C 9596   1.918   9.045   3.631  0.2347  0.0427 -0.0770
   72MOL0     C 9597   1.798   8.966   3.578 -0.3481  0.3887 -0.2051
   72MOL0     C 9598   1.658   9.040   3.584 -0.5050 -0.3323  0.1267
   72MOL0     C 9599   1.553   8.968   3.497  0.3611  0.2834 -0.0342
   72MOL0     C 9600   1.440   9.076   3.466 -0.5708  0.0843  0.0330
   72MOL0     C 9601   1.340   9.085   3.576 -0.4982 -0.4139 -0.1895
   72MOL0     N 9602   1.226   9.163   3.537  1.6477 -0.3949  0.2384
   72MOL0     C 9603   1.108   9.114   3.485  0.0529  0.8795  0.3691
   72MOL0     C 9604   1.040   9.223   3.444  0.0764  0.5641  0.5131
   72MOL0     C 9605   0.916   9.221   3.362 -1.1977  0.3015  0.5392
   72MOL0     C 9606   0.833   9.350   3.391 -0.6064  0.3181  0.8835
   72MOL0     C 9607   0.713   9.385   3.309  0.5216 -0.2832  0.7763
   72MOL0     C 9608   0.633   9.484   3.379  0.8618 -0.5490  0.1915
   72MOL0     O 9609   0.499   9.499   3.321 -0.6517  0.2206 -0.0446
   72MOL0     C 9610   0.403   9.598   3.357  0.3712 -0.0958  0.2133
   72MOL0     C 9611   0.412   9.661   3.478 -0.2464 -0.4896  0.4243
   72MOL0     C 9612   0.331   9.775   3.504  0.2484 -0.1496 -0.0309
   72MOL0     C 9613   0.333   9.833   3.649  0.4108 -0.0944 -0.9041
   72MOL0     C 9614   0.246   9.826   3.396 -0.4964  0.7462  0.1994
   72MOL0     C 9615   0.160   9.943   3.388 -0.4165  0.0208  0.8165
   72MOL0     O 9616   0.112   9.983   3.269 -0.0486  0.6740  0.1703
   72MOL0     C 9617   0.058  10.105   3.244 -0.0395  0.5247  0.3053
   72MOL0     C 9618  -0.037  10.115   3.140  0.5852 -0.6249 -0.5668
   72MOL0     C 9619  -0.085  10.245   3.084  0.3503  0.6947  0.6011
   72MOL0     C 9620  -0.034  10.367   3.140  1.0325  0.1649  0.3477
   72MOL0     O 9621  -0.072  10.493   3.098  0.0902  0.2515 -0.9104
   72MOL0     C 9622  -0.098  10.506   2.961  0.1760  0.2282  0.3615
   72MOL0     C 9623  -0.131  10.658   2.930 -0.4163 -0.2891  0.0597
   72MOL0     C 9624  -0.188  10.684   2.791 -0.2148  0.1427 -0.3206
   72MOL0     C 9625  -0.230  10.827   2.779  0.0513  0.0924 -0.5883
   72MOL0     C 9626  -0.282  10.872   2.643  1.1859 -0.2976 -0.1013
   72MOL0     C 9627  -0.422  10.813   2.601  0.1787 -0.6493  0.3126
   72MOL0     C 9628  -0.532  10.876   2.678  0.5540 -1.0251  0.0211
   72MOL0     C 9629  -0.662  10.808   2.680 -0.1519  0.2461 -0.0860
   72MOL0    Cl 9630  -0.745  10.824   2.529 -0.1425  0.1386  0.1352
   72MOL0     C 9631   0.053  10.349   3.245  0.1471  0.5445  0.0694
   72MOL0     C 9632   0.101  10.228   3.294  0.3817  0.5500  1.3259
   72MOL0     O 9633   0.145  10.003   3.491 -0.5455 -0.3486 -0.3940
   72MOL0     C 9634   0.243   9.755   3.268 -0.1070  0.7496  0.5279
   72MOL0     C 9635   0.319   9.642   3.257  0.0688  0.5167 -0.6606
   72MOL0     N 9636   1.113   9.338   3.465  0.1422  0.4753 -0.2760
   72MOL0     N 9637   1.221   9.302   3.525  0.2023 -0.1517 -0.3188
   72MOL0     C 9638   2.507   9.044   3.552 -0.0071  0.2803 -0.1531
   72MOL0     C 9639   2.637   9.089   3.592  0.3285  0.2293 -0.9970
   72MOL0     C 9640   2.956   9.320   3.856  0.2002 -0.7873  0.0608
   72MOL0     C 9641   2.993   9.445   3.914  0.1907  0.0681  0.2005
   72MOL0     C 9642   3.117   9.461   3.978  0.1409 -1.5690 -0.3854
   72MOL0     C 9643   3.210   9.352   3.974 -0.7600 -0.0293 -0.5354
   72MOL0     O 9644   3.325   9.376   4.055  0.2176 -0.1305 -0.3745
   72MOL0     C 9645   3.442   9.305   4.028  0.1918 -0.1242  0.2799
   72MOL0     C 9646   3.555   9.381   4.113  0.4538  0.8880  0.0522
   72MOL0     C 9647   3.585   9.525   4.068  0.9442 -0.3507  0.9726
   72MOL0     C 9648   3.618   9.536   3.920 -0.1925  0.0641 -0.4286
   72MOL0     C 9649   3.756   9.497   3.888  0.4342 -0.0556 -1.3096
   72MOL0     C 9650   3.874   9.464   3.869 -0.7162 -0.4776 -1.1356
   72MOL0     C 9651   3.184   9.237   3.902 -0.1426  0.6706 -0.1992
   72MOL0     C 9652   3.051   9.218   3.863 -0.0221  0.0683 -0.0282
   72MOL0     H 9653   2.586   9.130   3.928  0.7994  1.6984  1.1840
   72MOL0     H 9654   2.370   9.042   3.863 -0.4446 -2.0652 -1.5309
   72MOL0     H 9655   2.179   9.049   3.753  0.9832  1.5838 -0.4333
   72MOL0     H 9656   2.166   9.135   3.602 -0.0478  0.1021 -0.2702
   72MOL0     H 9657   2.057   8.967   3.479 -0.6226 -0.9659  0.9639
   72MOL0     H 9658   2.038   8.859   3.612  0.1279 -0.6201 -0.3808
   72MOL0     H 9659   1.909   9.049   3.740  0.5859 -3.3666  0.1623
   72MOL0     H 9660   1.910   9.149   3.598 -1.2786 -0.3168 -0.9508
   72MOL0     H 9661   1.829   8.944   3.475  2.4992  0.5442  0.5443
   72MOL0     H 9662   1.792   8.866   3.622  2.0722  0.1422 -0.3041
   72MOL0     H 9663   1.631   9.041   3.690  0.2906 -1.7390  0.3728
   72MOL0     H 9664   1.674   9.144   3.555  0.5160 -0.7871 -1.0387
   72MOL0     H 9665   1.597   8.932   3.403  0.8154  0.5099  0.0846
   72MOL0     H 9666   1.517   8.877   3.544 -3.1710  1.1001 -0.8959
   72MOL0     H 9667   1.481   9.176   3.451  0.0327  0.4939  3.5239
   72MOL0     H 9668   1.395   9.045   3.371  0.1320  1.6078 -0.8358
   72MOL0     H 9669   1.389   9.117   3.668 -0.0571  0.8468 -0.8460
   72MOL0     H 9670   1.311   8.980   3.589 -0.7372 -0.3362 -0.0914
   72MOL0     H 9671   1.074   9.013   3.466 -0.0205  0.8508  0.6508
   72MOL0     H 9672   0.923   9.215   3.253 -1.9456  4.0255  0.1289
   72MOL0     H 9673   0.858   9.131   3.386 -0.7908  0.5528  2.6228
   72MOL0     H 9674   0.910   9.424   3.368  0.7840 -1.1625  0.5609
   72MOL0     H 9675   0.802   9.341   3.496 -2.6888 -0.7704  0.2400
   72MOL0     H 9676   0.651   9.294   3.299 -0.0090  0.1535  0.0183
   72MOL0     H 9677   0.751   9.416   3.211  0.0538  1.1979  1.0405
   72MOL0     H 9678   0.671   9.586   3.387 -3.0039  1.1232 -0.4686
   72MOL0     H 9679   0.626   9.449   3.483  1.0798 -1.1750 -0.0024
   72MOL0     H 9680   0.474   9.626   3.560 -0.7469  1.1255  1.5444
   72MOL0     H 9681   0.434   9.821   3.690  2.1659  3.3836 -3.5641
   72MOL0     H 9682   0.300   9.937   3.642 -0.2277 -0.2351 -0.0452
   72MOL0     H 9683   0.256   9.786   3.710  1.9356  1.0556  2.1493
   72MOL0     H 9684  -0.070  10.020   3.099 -1.5663 -0.2673  0.1924
   72MOL0     H 9685  -0.142  10.246   2.991  1.2128 -0.8926  0.0357
   72MOL0     H 9686  -0.012  10.474   2.901 -1.6418 -2.8220 -0.8373
   72MOL0     H 9687  -0.186  10.450   2.929  1.1037  1.1578 -4.4867
   72MOL0     H 9688  -0.198  10.690   3.010 -0.0057 -1.3739  0.8493
   72MOL0     H 9689  -0.044  10.724   2.935  0.0142 -0.4982 -2.8433
   72MOL0     H 9690  -0.273  10.620   2.762 -0.3770  0.2206 -0.0172
   72MOL0     H 9691  -0.114  10.652   2.717  2.0325 -2.2975  2.7405
   72MOL0     H 9692  -0.306  10.843   2.856  0.6092 -4.4992  1.2720
   72MOL0     H 9693  -0.143  10.891   2.799 -0.4793  0.0604  2.1952
   72MOL0     H 9694  -0.200  10.852   2.573 -0.4355 -0.3638 -2.0916
   72MOL0     H 9695  -0.301  10.980   2.644  3.1256  0.0867 -0.2835
   72MOL0     H 9696  -0.440  10.820   2.494 -3.4666  3.9328  0.9138
   72MOL0     H 9697  -0.415  10.707   2.628 -0.0248 -0.7423 -0.0064
   72MOL0     H 9698  -0.554  10.975   2.637 -0.0358 -1.1844 -0.0486
   72MOL0     H 9699  -0.499  10.891   2.782 -0.2609 -0.7404  0.2448
   72MOL0     H 9700  -0.718  10.859   2.759 -0.5649 -0.0253 -0.2000
   72MOL0     H 9701  -0.648  10.702   2.704 -0.7716  0.0936 -0.3715
   72MOL0     H 9702   0.094  10.438   3.292  0.6023 -0.8471  2.4956
   72MOL0     H 9703   0.189  10.221   3.357  2.5553 -1.2143 -1.6707
   72MOL0     H 9704   0.189   9.776   3.176  2.1215 -0.7859 -1.2309
   72MOL0     H 9705   0.317   9.588   3.163  0.4785  0.8173 -0.8423
   72MOL0     H 9706   2.478   9.020   3.450 -2.3031 -0.0104  0.5306
   72MOL0     H 9707   2.710   9.085   3.512  1.0845  0.9013 -0.3627
   72MOL0     H 9708   2.913   9.518   3.928 -0.3138 -0.6884  1.5057
   72MOL0     H 9709   3.140   9.553   4.030  0.2587 -1.2200 -1.0445
   72MOL0     H 9710   3.451   9.199   4.057  2.0766  0.1669  0.9225
   72MOL0     H 9711   3.455   9.291   3.921 -2.6236 -0.2366 -0.1094
   72MOL0     H 9712   3.647   9.323   4.123 -1.1697 -1.4382  3.4457
   72MOL0     H 9713   3.512   9.383   4.213  1.4777 -0.1169  0.5352
   72MOL0     H 9714   3.661   9.562   4.137 -1.4847  0.9876  3.1414
   72MOL0     H 9715   3.504   9.591   4.100 -1.5405 -2.3939 -0.6145
   72MOL0     H 9716   3.603   9.643   3.901  1.6894  0.5588  0.6800
   72MOL0     H 9717   3.553   9.492   3.844  0.6161 -0.3997 -0.8580
   72MOL0     H 9718   3.968   9.416   3.851  0.0649 -0.8130  3.0196
   72MOL0     H 9719   3.257   9.158   3.887 -1.8527 -0.8204 -1.1025
   72MOL0     H 9720   3.024   9.123   3.818 -0.6987 -0.0369  0.5695
   73MOL0     O 9721   1.414   8.794   2.222  0.3375 -0.5464  0.5810
   73MOL0     C 9722   1.460   8.684   2.192 -0.8207 -0.6648  1.0158
   73MOL0     O 9723   1.395   8.581   2.141  0.2940  0.4334 -0.5749
   73MOL0     C 9724   1.259   8.601   2.135  0.6392  1.3482 -0.2967
   73MOL0     C 9725   1.186   8.540   2.239  0.0611  0.4352  0.5074
   73MOL0     C 9726   1.050   8.563   2.248 -0.6531 -0.7738 -0.3347
   73MOL0     C 9727   0.982   8.646   2.160 -0.1535 -0.7099  1.1467
   73MOL0     O 9728   0.844   8.669   2.163  0.6979  0.0880  0.5764
   73MOL0     C 9729   0.762   8.565   2.226  0.2887 -1.2662 -0.4383
   73MOL0     C 9730   0.619   8.594   2.168 -0.6521 -0.4672 -0.3868
   73MOL0     C 9731   0.512   8.496   2.206  0.5908 -0.5679  0.2184
   73MOL0     C 9732   0.373   8.551   2.173  1.0739 -0.3970 -0.2102
   73MOL0     C 9733   0.245   8.477   2.187  0.1971 -0.4395 -0.4867
   73MOL0     C 9734   0.208   8.368   2.092 -0.3724  0.1028  0.4516
   73MOL0     C 9735   0.110   8.276   2.173 -0.6498  0.4414  0.2496
   73MOL0     C 9736   0.075   8.165   2.080  0.0544 -0.4070  0.0174
   73MOL0     N 9737  -0.008   8.061   2.136  0.2893 -0.3830 -0.4492
   73MOL0     C 9738   0.039   7.969   2.233  0.3770 -0.1183 -0.4457
   73MOL0     C 9739  -0.048   7.878   2.227  0.4703  0.6576 -1.0119
   73MOL0     C 9740  -0.044   7.752   2.315  0.5402 -0.2276 -0.0994
   73MOL0     C 9741  -0.162   7.717   2.400  0.9015  0.0217 -0.7263
   73MOL0     C 9742  -0.219   7.829   2.473 -0.2491  0.7264  0.3258
   73MOL0     C 9743  -0.319   7.774   2.575  0.7852 -0.1287  0.5288
   73MOL0     O 9744  -0.437   7.734   2.500 -0.2893 -0.5086 -0.8832
   73MOL0     C 9745  -0.543   7.686   2.567 -0.5816 -0.3280 -0.6052
   73MOL0     C 9746  -0.637   7.618   2.490 -0.5593 -0.4923  0.6675
   73MOL0     C 9747  -0.760   7.571   2.542 -0.3159 -0.4035 -0.7030
   73MOL0     C 9748  -0.865   7.520   2.453 -0.2792  0.8102  0.1612
   73MOL0     C 9749  -0.772   7.577   2.685 -0.3908 -1.0939 -0.2256
   73MOL0     C 9750  -0.895   7.529   2.759 -1.0245  0.6399 -0.9296
   73MOL0     O 9751  -0.876   7.491   2.891 -0.3652 -0.2097 -0.4011
   73MOL0     C 9752  -0.980   7.441   2.963 -0.5127  0.9750  0.3732
   73MOL0     C 9753  -1.005   7.487   3.089  0.2309 -0.1073 -1.0840
   73MOL0     C 9754  -1.099   7.431   3.175 -0.4564 -0.3896  0.5337
   73MOL0     C 9755  -1.171   7.317   3.131 -0.7492 -0.1585  0.2432
   73MOL0     O 9756  -1.277   7.267   3.207 -1.0184 -0.1071 -0.4084
   73MOL0     C 9757  -1.370   7.168   3.157 -0.1863  0.0804  0.3807
   73MOL0     C 9758  -1.486   7.148   3.244 -0.6876  0.3894  0.4082
   73MOL0     C 9759  -1.576   7.279   3.244 -0.1266  0.5295  0.0646
   73MOL0     C 9760  -1.692   7.246   3.336  0.6735  0.4341 -0.5227
   73MOL0     C 9761  -1.806   7.353   3.322  0.2216  0.6113  0.3825
   73MOL0     C 9762  -1.936   7.318   3.390  0.2063  0.4207 -0.6636
   73MOL0     C 9763  -1.938   7.352   3.545  1.3020 -0.0713  0.1706
   73MOL0     C 9764  -1.982   7.490   3.580  0.0840  0.3398  0.2055
   73MOL0    Cl 9765  -1.940   7.512   3.749 -0.4285  0.3005  0.3231
   73MOL0     C 9766  -1.141   7.271   2.998 -0.3506  0.2336 -0.5846
   73MOL0     C 9767  -1.052   7.334   2.913  0.0498  0.1227 -0.3309
   73MOL0     O 9768  -1.000   7.517   2.699 -0.0631 -0.4905 -0.2154
   73MOL0     C 9769  -0.667   7.623   2.766  1.0175  0.3620 -0.3301
   73MOL0     C 9770  -0.553   7.684   2.706  0.4620  0.1679 -1.2219
   73MOL0     N 9771  -0.147   7.899   2.133 -0.2855  0.6539 -1.0529
   73MOL0     N 9772  -0.113   8.007   2.075  0.3439  0.4049 -0.0754
   73MOL0     C 9773   1.062   8.707   2.063 -0.1608 -0.4931 -0.0830
   73MOL0     C 9774   1.199   8.692   2.055 -0.1554 -0.6751  0.2782
   73MOL0     C 9775   1.597   8.651   2.220 -0.4443  0.4761  0.5878
   73MOL0     C 9776   1.666   8.713   2.327  0.7068 -0.2282  0.3110
   73MOL0     C 9777   1.800   8.669   2.358  0.3063  0.8650  0.4679
   73MOL0     C 9778   1.865   8.563   2.300  0.1800 -0.4072  0.0172
   73MOL0     O 9779   1.986   8.529   2.350  1.2423  0.5409  1.1724
   73MOL0     C 9780   2.047   8.409   2.303 -1.2853  0.9087 -0.4435
   73MOL0     C 9781   2.159   8.371   2.403  0.4560  0.4283 -0.5750
   73MOL0     C 9782   2.277   8.448   2.397  0.5864 -0.9046 -0.3496
   73MOL0     C 9783   2.391   8.377   2.324  0.3664 -0.1159  0.6167
   73MOL0     C 9784   2.335   8.325   2.193  0.6323 -0.3154 -0.0695
   73MOL0     C 9785   2.294   8.265   2.088  0.7208  0.0652 -0.0468
   73MOL0     C 9786   1.801   8.511   2.188  0.5787 -0.0956  0.4085
   73MOL0     C 9787   1.665   8.544   2.154  1.3532 -0.5170 -0.2073
   73MOL0     H 9788   1.238   8.478   2.311  0.5431 -1.7024 -1.5342
   73MOL0     H 9789   0.991   8.511   2.323 -1.1711 -2.6055 -1.9084
   73MOL0     H 9790   0.803   8.467   2.202  2.8127 -1.1191  2.5327
   73MOL0     H 9791   0.751   8.577   2.335 -2.8470  1.2064 -0.8989
   73MOL0     H 9792   0.591   8.690   2.211 -0.3285 -0.6777  0.3267
   73MOL0     H 9793   0.631   8.601   2.060  0.0037 -0.0826 -0.2934
   73MOL0     H 9794   0.539   8.406   2.150 -0.1226 -1.0188  0.5917
   73MOL0     H 9795   0.513   8.479   2.314 -3.9566  0.3195  0.5730
   73MOL0     H 9796   0.374   8.629   2.250 -0.7424 -0.4431 -0.0846
   73MOL0     H 9797   0.373   8.607   2.079 -2.9474  0.9205  0.3966
   73MOL0     H 9798   0.259   8.436   2.288 -0.1221 -1.5519 -0.8820
   73MOL0     H 9799   0.164   8.551   2.195  0.7724  0.0561  0.9824
   73MOL0     H 9800   0.155   8.405   2.003  0.6056  3.0996  0.9981
   73MOL0     H 9801   0.293   8.304   2.070 -1.4405 -0.9014 -0.9139
   73MOL0     H 9802   0.155   8.238   2.264 -0.8701 -2.3557 -0.7163
   73MOL0     H 9803   0.030   8.344   2.203  1.0600  1.8059  1.9200
   73MOL0     H 9804   0.170   8.128   2.042  0.1667  0.3396 -0.4470
   73MOL0     H 9805   0.020   8.211   1.997 -2.4784  1.8771  2.7120
   73MOL0     H 9806   0.129   7.972   2.295  2.5630  1.4973 -3.4219
   73MOL0     H 9807  -0.040   7.662   2.253 -0.6676 -0.3154 -0.0743
   73MOL0     H 9808   0.042   7.760   2.382  2.2033  1.7113 -2.2956
   73MOL0     H 9809  -0.133   7.636   2.468  0.2479  1.4163  1.3228
   73MOL0     H 9810  -0.240   7.687   2.329  0.4213  1.5257 -0.8641
   73MOL0     H 9811  -0.267   7.904   2.410 -0.7650  0.1801  0.0494
   73MOL0     H 9812  -0.145   7.880   2.535 -2.3571  1.6137  2.2597
   73MOL0     H 9813  -0.338   7.857   2.643  1.1205  0.7970 -0.4937
   73MOL0     H 9814  -0.268   7.694   2.630  2.9258 -0.0709 -1.1987
   73MOL0     H 9815  -0.602   7.593   2.390  1.2056  0.6165  0.9689
   73MOL0     H 9816  -0.885   7.415   2.478  2.0443  0.1768 -0.3575
   73MOL0     H 9817  -0.953   7.583   2.467 -0.9590  0.0491 -0.5483
   73MOL0     H 9818  -0.827   7.511   2.350 -0.7078  0.2537  0.0458
   73MOL0     H 9819  -0.947   7.574   3.117  3.4508 -3.4122  4.7617
   73MOL0     H 9820  -1.126   7.481   3.268 -0.1940  3.4555 -1.2803
   73MOL0     H 9821  -1.415   7.198   3.062  1.5922  1.6364 -0.0400
   73MOL0     H 9822  -1.313   7.076   3.139 -0.0611  0.5036 -1.7103
   73MOL0     H 9823  -1.548   7.068   3.204 -0.3347  0.1479  0.3410
   73MOL0     H 9824  -1.450   7.122   3.344  3.2573  0.2380 -0.8642
   73MOL0     H 9825  -1.619   7.299   3.145 -2.3423 -1.6801  0.4831
   73MOL0     H 9826  -1.516   7.359   3.288 -0.2966 -0.8006  2.9007
   73MOL0     H 9827  -1.738   7.149   3.314  1.5094 -0.0318 -0.2483
   73MOL0     H 9828  -1.649   7.256   3.436 -0.0991  4.2736 -0.4603
   73MOL0     H 9829  -1.836   7.365   3.217 -4.0295 -0.3187  1.3108
   73MOL0     H 9830  -1.775   7.453   3.355 -1.1506  1.2074 -0.0857
   73MOL0     H 9831  -2.016   7.378   3.344 -1.3140 -0.2599  0.9490
   73MOL0     H 9832  -1.952   7.210   3.386  3.0269 -0.2811  2.3874
   73MOL0     H 9833  -1.838   7.333   3.585  1.8226 -0.7865 -1.3837
   73MOL0     H 9834  -2.009   7.287   3.596 -3.3399  3.4429 -1.0751
   73MOL0     H 9835  -2.091   7.504   3.578  0.2084  1.7334 -2.9147
   73MOL0     H 9836  -1.932   7.568   3.523  1.1304  0.3064  1.0585
   73MOL0     H 9837  -1.184   7.179   2.959 -1.2188  1.0742 -1.6937
   73MOL0     H 9838  -1.036   7.293   2.814 -0.4674 -1.7610  0.3245
   73MOL0     H 9839  -0.684   7.615   2.873  2.9501 -2.9680 -0.1046
   73MOL0     H 9840  -0.480   7.723   2.775 -3.2124  0.6507  2.8278
   73MOL0     H 9841   1.007   8.776   2.000  0.7728  0.6115  0.2801
   73MOL0     H 9842   1.268   8.736   1.983  1.4298 -2.0726  0.8529
   73MOL0     H 9843   1.615   8.790   2.385 -1.5143 -1.5545  0.2074
   73MOL0     H 9844   1.843   8.703   2.451  1.2209 -0.3372  0.4963
   73MOL0     H 9845   1.983   8.322   2.284 -1.0560 -0.2408  3.1867
   73MOL0     H 9846   2.094   8.413   2.204 -0.6944  0.1423 -0.2054
   73MOL0     H 9847   2.178   8.264   2.400 -0.0558  0.1934  2.0864
   73MOL0     H 9848   2.125   8.384   2.507  1.3008 -0.0569 -0.2317
   73MOL0     H 9849   2.315   8.479   2.495  0.4375  1.7943 -1.0794
   73MOL0     H 9850   2.249   8.531   2.332 -2.9113  0.1172  2.2141
   73MOL0     H 9851   2.424   8.289   2.379 -1.2982  0.1458  2.1271
   73MOL0     H 9852   2.474   8.443   2.299  2.0418 -2.6236 -0.9721
   73MOL0     H 9853   2.255   8.225   1.997 -0.8066  1.9041 -0.2666
   73MOL0     H 9854   1.839   8.428   2.130  1.9950  1.4547 -0.9822
   73MOL0     H 9855   1.623   8.485   2.074  0.3667  0.4860 -0.4589
   74MOL0     O 9856   8.708  11.160   0.511  0.1126 -0.1429 -0.1836
   74MOL0     C 9857   8.760  11.259   0.551 -1.1808  0.5306 -0.0252
   74MOL0     O 9858   8.711  11.350   0.644  0.7619  0.2986  0.2054
   74MOL0     C 9859   8.587  11.337   0.710 -0.6708 -0.0095  0.1829
   74MOL0     C 9860   8.577  11.380   0.844  0.8663  0.4863  1.1824
   74MOL0     C 9861   8.455  11.367   0.908 -0.2080 -0.2695  0.1883
   74MOL0     C 9862   8.345  11.297   0.855  1.0574  1.2030 -0.5980
   74MOL0     O 9863   8.233  11.266   0.928 -0.6690  0.0677 -0.3660
   74MOL0     C 9864   8.232  11.139   0.977 -0.4543  0.3548  0.3439
   74MOL0     C 9865   8.091  11.078   0.988 -0.0361 -1.2217  0.1046
   74MOL0     C 9866   8.040  11.049   0.841 -0.4001 -0.0395  0.9789
   74MOL0     C 9867   7.913  10.964   0.858 -0.2537  0.2565 -0.5135
   74MOL0     C 9868   7.827  10.965   0.734 -0.0119  0.6251 -0.2014
   74MOL0     C 9869   7.686  10.896   0.757  0.0590 -1.2289  0.0058
   74MOL0     C 9870   7.601  10.929   0.635 -0.2175  0.1101 -0.1037
   74MOL0     C 9871   7.549  11.075   0.644  0.1908 -0.2592 -0.0240
   74MOL0     N 9872   7.432  11.093   0.554  0.3656 -0.7415 -0.5383
   74MOL0     C 9873   7.428  11.074   0.422 -0.2169 -0.6979 -0.1897
   74MOL0     C 9874   7.304  11.121   0.387 -0.0029  0.4591  0.6235
   74MOL0     C 9875   7.252  11.100   0.245 -0.0057  0.3451 -0.0401
   74MOL0     C 9876   7.105  11.064   0.234 -0.3122  0.4047  0.5014
   74MOL0     C 9877   7.040  11.179   0.148  0.0737  0.3270  0.1655
   74MOL0     C 9878   6.895  11.143   0.137 -0.0253 -0.1470 -0.0178
   74MOL0     O 9879   6.821  11.257   0.098 -0.3144 -0.3394  0.3228
   74MOL0     C 9880   6.689  11.248   0.056  0.8716  0.2466  0.1013
   74MOL0     C 9881   6.616  11.133   0.061  0.2253 -0.3258 -0.2277
   74MOL0     C 9882   6.492  11.118  -0.006  1.3632 -0.0808  0.1394
   74MOL0     C 9883   6.434  10.987  -0.016  0.6577  0.3529  0.5134
   74MOL0     C 9884   6.421  11.236  -0.046  1.0881  0.2567  1.0431
   74MOL0     C 9885   6.273  11.229  -0.095 -0.7636 -0.7053 -0.1979
   74MOL0     O 9886   6.235  11.327  -0.183  0.4440 -0.2023  0.7142
   74MOL0     C 9887   6.118  11.301  -0.257 -0.5567 -1.0039 -0.4035
   74MOL0     C 9888   6.133  11.231  -0.381  0.6411  0.1262  0.1056
   74MOL0     C 9889   6.013  11.224  -0.462  0.2225 -0.2419 -0.0664
   74MOL0     C 9890   5.889  11.278  -0.419 -0.9667  0.4181  0.9478
   74MOL0     O 9891   5.770  11.263  -0.490 -0.0220  0.0934 -0.0557
   74MOL0     C 9892   5.717  11.360  -0.587 -0.1915 -0.4453 -0.4356
   74MOL0     C 9893   5.762  11.331  -0.724  0.6124 -0.5401  0.7141
   74MOL0     C 9894   5.896  11.380  -0.782  0.2614 -0.4122  0.0483
   74MOL0     C 9895   5.901  11.532  -0.797  0.7878  0.5842  0.3136
   74MOL0     C 9896   6.048  11.575  -0.817 -1.1306  0.0371  0.7834
   74MOL0     C 9897   6.065  11.724  -0.851 -0.0955  0.1861  1.1536
   74MOL0     C 9898   6.209  11.743  -0.876  0.5087 -0.9290 -0.0766
   74MOL0     C 9899   6.240  11.880  -0.938  0.2471  0.3468  0.0146
   74MOL0    Cl 9900   6.411  11.898  -0.958 -0.1382 -0.3177 -0.0213
   74MOL0     C 9901   5.888  11.335  -0.294 -0.1845 -0.6924 -0.5841
   74MOL0     C 9902   5.999  11.350  -0.213 -0.7411 -0.7240 -0.4630
   74MOL0     O 9903   6.200  11.150  -0.038  1.0426  1.1082 -0.7375
   74MOL0     C 9904   6.495  11.357  -0.059 -0.3772 -0.0095 -1.1889
   74MOL0     C 9905   6.626  11.361  -0.000  0.1437  0.4562  0.3627
   74MOL0     N 9906   7.241  11.164   0.500  0.3599  0.6187  0.6887
   74MOL0     N 9907   7.318  11.144   0.603 -0.2063 -0.2294  0.0700
   74MOL0     C 9908   8.356  11.242   0.725 -0.0471 -0.4686  0.2006
   74MOL0     C 9909   8.473  11.265   0.658  0.4073 -0.4034 -0.8082
   74MOL0     C 9910   8.894  11.295   0.491 -0.1439 -0.6698  0.1472
   74MOL0     C 9911   8.966  11.406   0.546  0.2488  0.0981  0.3429
   74MOL0     C 9912   9.088  11.440   0.491  0.3531 -0.2639 -0.4443
   74MOL0     C 9913   9.151  11.367   0.391  0.4600  0.7351  0.5749
   74MOL0     O 9914   9.275  11.409   0.362 -0.5844 -0.0519 -0.0197
   74MOL0     C 9915   9.351  11.319   0.271 -0.6368 -0.3535  0.6372
   74MOL0     C 9916   9.478  11.393   0.230 -0.0128 -1.2975 -0.3871
   74MOL0     C 9917   9.585  11.302   0.158  0.3513 -0.2398 -0.1155
   74MOL0     C 9918   9.518  11.228   0.045 -0.8147 -0.4249  0.7629
   74MOL0     C 9919   9.603  11.173  -0.062  0.4862 -0.1213 -0.5972
   74MOL0     C 9920   9.681  11.124  -0.139 -0.4818  0.4582 -0.5641
   74MOL0     C 9921   9.080  11.255   0.339  0.0651  0.2300  0.0425
   74MOL0     C 9922   8.955  11.221   0.387 -0.7836  0.2956  0.3262
   74MOL0     H 9923   8.667  11.421   0.889  1.1970 -0.6647  1.6074
   74MOL0     H 9924   8.429  11.416   1.002 -0.8537  0.0699 -0.1661
   74MOL0     H 9925   8.275  11.058   0.916 -1.9916 -0.6117  0.4814
   74MOL0     H 9926   8.283  11.136   1.073  1.4164 -4.2139 -0.5024
   74MOL0     H 9927   8.090  10.979   1.035 -0.3168 -0.1547  2.4618
   74MOL0     H 9928   8.028  11.147   1.044 -0.1889  1.3130 -2.9328
   74MOL0     H 9929   8.029  11.148   0.796 -3.1936 -1.4494 -1.8830
   74MOL0     H 9930   8.111  11.001   0.773  3.1347  3.8606  1.5292
   74MOL0     H 9931   7.934  10.862   0.891 -2.0538  0.2694  0.8796
   74MOL0     H 9932   7.854  10.996   0.945  0.7292 -3.0134  1.5176
   74MOL0     H 9933   7.805  11.067   0.703 -1.0670 -0.4474 -3.3286
   74MOL0     H 9934   7.880  10.910   0.656  0.8093  0.5267  0.4010
   74MOL0     H 9935   7.680  10.790   0.783  0.2088 -0.9088  1.4327
   74MOL0     H 9936   7.640  10.935   0.848 -1.6319 -0.6416 -1.0515
   74MOL0     H 9937   7.657  10.905   0.544  0.1537 -0.9865  0.3860
   74MOL0     H 9938   7.513  10.864   0.644 -0.0951 -0.0536 -0.0811
   74MOL0     H 9939   7.626  11.151   0.629  0.4134 -0.0350  2.0367
   74MOL0     H 9940   7.510  11.084   0.746  0.1201  1.3683 -0.1584
   74MOL0     H 9941   7.486  11.023   0.346 -3.0646 -1.2123 -2.1909
   74MOL0     H 9942   7.259  11.197   0.194  0.9108  0.2614 -0.0938
   74MOL0     H 9943   7.314  11.025   0.195  0.2169  1.7920 -2.0574
   74MOL0     H 9944   7.073  11.054   0.338  3.0457  0.9844  1.7134
   74MOL0     H 9945   7.095  10.964   0.190 -0.7626  0.4129  0.5852
   74MOL0     H 9946   7.085  11.191   0.049  0.0199 -6.0094 -1.0429
   74MOL0     H 9947   7.049  11.269   0.210 -0.8433  0.0443  0.7350
   74MOL0     H 9948   6.867  11.102   0.235  2.7284  1.5256  1.6123
   74MOL0     H 9949   6.888  11.064   0.062 -1.7682 -0.2107  0.1732
   74MOL0     H 9950   6.661  11.039   0.090  0.1862 -0.1983  0.2450
   74MOL0     H 9951   6.358  10.985  -0.094 -0.4676  1.2402  1.5551
   74MOL0     H 9952   6.508  10.913  -0.048 -1.0765 -2.4197  2.4982
   74MOL0     H 9953   6.392  10.950   0.078  0.4047  0.1180  0.3063
   74MOL0     H 9954   6.224  11.193  -0.425 -0.0716 -1.9444  0.2939
   74MOL0     H 9955   6.027  11.170  -0.555  0.5651 -3.4699  1.6937
   74MOL0     H 9956   5.608  11.357  -0.582 -0.2017  0.5700  0.3414
   74MOL0     H 9957   5.749  11.461  -0.559 -1.4500 -0.3855  0.9528
   74MOL0     H 9958   5.767  11.223  -0.745  0.4991 -0.5949  0.9679
   74MOL0     H 9959   5.687  11.382  -0.786  1.1874 -0.0079  0.4511
   74MOL0     H 9960   5.914  11.328  -0.876  0.5385 -1.6124  0.7369
   74MOL0     H 9961   5.968  11.344  -0.708 -2.2956  0.4809  3.2478
   74MOL0     H 9962   5.839  11.574  -0.877  0.6858  1.6242  0.9141
   74MOL0     H 9963   5.865  11.579  -0.705  1.2680 -0.0481  0.8280
   74MOL0     H 9964   6.108  11.506  -0.877 -1.7035  0.7608 -0.6805
   74MOL0     H 9965   6.091  11.569  -0.717 -0.3730 -0.5073  0.4313
   74MOL0     H 9966   6.021  11.741  -0.950  3.9508  2.0761 -0.5240
   74MOL0     H 9967   6.022  11.777  -0.765  1.3262  0.7811  1.5323
   74MOL0     H 9968   6.231  11.681  -0.964 -2.7820  0.3207 -1.9752
   74MOL0     H 9969   6.267  11.734  -0.784  1.3003 -2.8121 -0.6968
   74MOL0     H 9970   6.194  11.971  -0.900 -3.6540 -0.7736 -1.4692
   74MOL0     H 9971   6.194  11.887  -1.037 -0.9607 -0.9022  0.4411
   74MOL0     H 9972   5.795  11.379  -0.258  1.0430  0.4789  1.3975
   74MOL0     H 9973   5.984  11.405  -0.120 -1.0459 -2.8424  0.7985
   74MOL0     H 9974   6.447  11.440  -0.110 -0.6460  0.8080  0.3310
   74MOL0     H 9975   6.684  11.452   0.006 -0.1606  0.6904 -0.0968
   74MOL0     H 9976   8.279  11.186   0.673 -0.1087  1.8181 -2.3893
   74MOL0     H 9977   8.472  11.236   0.553 -1.2940  1.1536 -1.2550
   74MOL0     H 9978   8.925  11.465   0.627 -1.1836  2.0776 -1.7022
   74MOL0     H 9979   9.140  11.529   0.527 -3.1872  2.4703 -1.5243
   74MOL0     H 9980   9.393  11.234   0.325 -3.1649 -2.1472 -0.0421
   74MOL0     H 9981   9.291  11.294   0.183  1.9652 -1.5871 -0.9281
   74MOL0     H 9982   9.523  11.436   0.320 -0.5853 -1.0155 -0.2318
   74MOL0     H 9983   9.454  11.475   0.162 -1.6619 -0.7377  0.7990
   74MOL0     H 9984   9.627  11.239   0.237  0.7042  1.9408  1.5407
   74MOL0     H 9985   9.665  11.360   0.111 -0.2664  2.3779  1.7965
   74MOL0     H 9986   9.440  11.292   0.002 -0.5543 -0.9620 -0.5777
   74MOL0     H 9987   9.464  11.142   0.086  0.4090 -1.8821 -0.5423
   74MOL0     H 9988   9.737  11.078  -0.217 -2.6158 -2.1392 -0.7185
   74MOL0     H 9989   9.122  11.185   0.268 -0.0539 -1.0858  1.2325
   74MOL0     H 9990   8.907  11.134   0.344  2.4673 -1.0348 -0.9390
   75MOL0     O 9991   0.006   4.404   0.211 -0.0143 -0.1191  0.2630
   75MOL0     C 9992   0.070   4.382   0.315  1.4459  0.3245  0.3318
   75MOL0     O 9993   0.012   4.342   0.429  0.5118  0.2634  0.2864
   75MOL0     C 9994  -0.124   4.328   0.433 -0.0497  0.1815  0.1051
   75MOL0     C 9995  -0.185   4.202   0.420  0.7201 -0.9927 -0.3259
   75MOL0     C 9996  -0.322   4.185   0.424  0.4915  0.6427  0.3455
   75MOL0     C 9997  -0.406   4.295   0.441  0.7810 -1.0269 -0.5751
   75MOL0     O 9998  -0.539   4.277   0.457 -0.7581 -0.4280 -0.3457
   75MOL0     C 9999  -0.643   4.372   0.403 -0.0669  0.0326  0.9197
   75MOL0     C10000  -0.762   4.298   0.350  0.6588 -0.1986  0.1759
   75MOL0     C10001  -0.867   4.273   0.462 -0.3218 -0.4528  0.4092
   75MOL0     C10002  -0.983   4.199   0.398 -0.3689  0.1803 -0.5818
   75MOL0     C10003  -1.069   4.123   0.513 -0.5520 -0.2366 -0.8284
   75MOL0     C10004  -1.213   4.102   0.463 -0.5569 -0.2545  0.9121
   75MOL0     C10005  -1.304   4.033   0.559  0.3633  0.2902  0.4205
   75MOL0     C10006  -1.438   3.992   0.485 -0.3995 -0.0207  0.2833
   75MOL0     N10007  -1.557   4.000   0.575  0.5336 -0.5657 -0.4682
   75MOL0     C10008  -1.577   3.911   0.680  0.0078 -1.2401  0.6509
   75MOL0     C10009  -1.700   3.943   0.726  0.0219 -0.2926  0.7608
   75MOL0     C10010  -1.768   3.861   0.825 -0.0407  0.1226  0.3797
   75MOL0     C10011  -1.851   3.764   0.745  0.2560 -0.0138 -0.0520
   75MOL0     C10012  -1.788   3.634   0.702  0.7023  0.2572  0.3205
   75MOL0     C10013  -1.754   3.533   0.814  0.5881  0.4009  0.8529
   75MOL0     O10014  -1.842   3.546   0.929  0.2451  0.0375  0.5063
   75MOL0     C10015  -1.961   3.476   0.943 -0.5885  0.3084  0.6622
   75MOL0     C10016  -2.018   3.491   1.062 -0.1966 -0.4370  0.5548
   75MOL0     C10017  -2.153   3.445   1.084 -0.5773 -0.0734 -0.1045
   75MOL0     C10018  -2.208   3.465   1.218  0.5673  0.0241 -0.6859
   75MOL0     C10019  -2.224   3.382   0.976  0.2804 -0.1904  0.9532
   75MOL0     C10020  -2.360   3.328   0.990  0.6022  0.8629  1.1030
   75MOL0     O10021  -2.429   3.340   1.107 -0.0388  0.1059  0.4276
   75MOL0     C10022  -2.564   3.320   1.116  0.9930 -0.3733 -0.6991
   75MOL0     C10023  -2.664   3.379   1.047 -0.2032 -0.0564 -0.7258
   75MOL0     C10024  -2.796   3.343   1.074 -0.0798  0.2752  0.4430
   75MOL0     C10025  -2.832   3.249   1.166 -0.0767  1.1506  0.0813
   75MOL0     O10026  -2.967   3.205   1.195  0.5642  0.3111  0.1194
   75MOL0     C10027  -3.076   3.245   1.115  0.0328 -0.2798  1.5585
   75MOL0     C10028  -3.203   3.164   1.154 -0.3302 -0.6557 -0.1821
   75MOL0     C10029  -3.327   3.229   1.080 -0.4607  0.4077 -0.2679
   75MOL0     C10030  -3.445   3.151   1.133 -0.3308 -0.4419  0.8168
   75MOL0     C10031  -3.574   3.170   1.052  1.0177  0.6376 -0.1819
   75MOL0     C10032  -3.552   3.155   0.898 -0.6953 -0.7334 -0.1441
   75MOL0     C10033  -3.681   3.100   0.838 -0.0913  0.6419 -0.3981
   75MOL0     C10034  -3.793   3.191   0.819 -0.9036 -0.0783  0.3175
   75MOL0    Cl10035  -3.742   3.332   0.742 -0.1625 -0.1024 -0.0771
   75MOL0     C10036  -2.728   3.198   1.243  0.5719  0.4006 -0.4935
   75MOL0     C10037  -2.592   3.233   1.217  0.7908 -0.1580 -0.4444
   75MOL0     O10038  -2.414   3.273   0.887 -1.0222 -0.3317 -0.2448
   75MOL0     C10039  -2.156   3.371   0.845 -0.6906  0.7314 -0.1193
   75MOL0     C10040  -2.031   3.417   0.837 -1.2714  0.4699  0.7823
   75MOL0     N10041  -1.736   4.062   0.662  0.2969 -0.7136 -0.4586
   75MOL0     N10042  -1.664   4.083   0.560 -0.4988 -0.5487 -0.7537
   75MOL0     C10043  -0.347   4.419   0.442 -0.5143  0.3116 -0.8643
   75MOL0     C10044  -0.206   4.437   0.449  0.7717  0.0762 -0.5291
   75MOL0     C10045   0.213   4.420   0.326  0.4067 -0.0689 -0.5401
   75MOL0     C10046   0.285   4.421   0.447  0.0817  2.2574  0.5661
   75MOL0     C10047   0.424   4.424   0.449 -0.7467  0.3729 -0.5869
   75MOL0     C10048   0.496   4.426   0.327  0.4793 -0.4089  0.0628
   75MOL0     O10049   0.626   4.440   0.313 -0.4082  0.0042  0.1169
   75MOL0     C10050   0.702   4.502   0.425 -0.5683 -0.3958 -0.0630
   75MOL0     C10051   0.829   4.574   0.364  1.2094 -0.5747  0.9365
   75MOL0     C10052   0.842   4.716   0.403 -0.6714 -0.4331  0.2666
   75MOL0     C10053   0.856   4.727   0.554  0.0668 -0.0624 -0.3598
   75MOL0     C10054   0.997   4.694   0.594 -0.1010 -0.7809  0.4675
   75MOL0     C10055   1.116   4.680   0.618 -0.4100  0.5212 -0.3322
   75MOL0     C10056   0.422   4.432   0.206  0.2704  1.0350 -0.2632
   75MOL0     C10057   0.288   4.433   0.201  1.0934 -0.5230 -0.4403
   75MOL0     H10058  -0.120   4.116   0.409 -0.1124 -1.9687  1.7709
   75MOL0     H10059  -0.346   4.081   0.406  0.8745  1.1315 -4.2034
   75MOL0     H10060  -0.676   4.448   0.474 -1.9144  2.9113 -2.6758
   75MOL0     H10061  -0.598   4.428   0.321  0.5009  1.0260  1.8822
   75MOL0     H10062  -0.808   4.360   0.273 -2.7191 -2.6557 -0.0323
   75MOL0     H10063  -0.753   4.203   0.297 -0.8716 -0.4241  0.2866
   75MOL0     H10064  -0.823   4.216   0.545  3.2871  1.9709  0.3923
   75MOL0     H10065  -0.898   4.364   0.514 -0.5599  0.2022 -0.8515
   75MOL0     H10066  -1.042   4.277   0.350 -0.6119  1.2758  1.3770
   75MOL0     H10067  -0.961   4.133   0.314 -1.2979 -1.4720  0.4015
   75MOL0     H10068  -1.016   4.035   0.550 -0.5669  0.3315  0.6226
   75MOL0     H10069  -1.068   4.184   0.605 -2.0788  1.6078 -1.9581
   75MOL0     H10070  -1.249   4.199   0.428 -1.0479 -0.4070  0.9876
   75MOL0     H10071  -1.220   4.039   0.374 -1.2490  1.8163 -0.6024
   75MOL0     H10072  -1.263   3.948   0.614 -0.1532 -0.2242  0.0260
   75MOL0     H10073  -1.328   4.113   0.630 -4.1818  0.0659 -0.5138
   75MOL0     H10074  -1.424   3.895   0.437  0.4283  0.3743 -0.2843
   75MOL0     H10075  -1.461   4.069   0.411  2.1691 -0.4159 -1.0391
   75MOL0     H10076  -1.517   3.828   0.716 -0.4837 -0.9282  2.2939
   75MOL0     H10077  -1.696   3.792   0.871 -0.2434 -0.2555  0.1420
   75MOL0     H10078  -1.833   3.912   0.896 -1.9142  0.1810 -1.2870
   75MOL0     H10079  -1.895   3.817   0.659  0.4145 -0.8487 -0.6578
   75MOL0     H10080  -1.932   3.737   0.813  0.5947  0.9347  0.7449
   75MOL0     H10081  -1.699   3.656   0.642 -0.2470  2.6179 -0.3632
   75MOL0     H10082  -1.854   3.586   0.629  2.1470  2.2916 -2.5138
   75MOL0     H10083  -1.654   3.533   0.858 -0.2379 -2.3754  3.0449
   75MOL0     H10084  -1.758   3.431   0.774 -0.4105  0.6652  0.2396
   75MOL0     H10085  -1.964   3.528   1.148  4.0531 -1.3883 -1.4324
   75MOL0     H10086  -2.145   3.520   1.289  0.6211 -1.0445  0.1255
   75MOL0     H10087  -2.293   3.533   1.211  1.1762  1.0022  0.8611
   75MOL0     H10088  -2.243   3.370   1.260  0.3633  0.1248 -0.6236
   75MOL0     H10089  -2.627   3.443   0.968  1.2376  0.1340  0.0689
   75MOL0     H10090  -2.865   3.407   1.021 -0.3137 -0.5978 -0.3320
   75MOL0     H10091  -3.098   3.349   1.140  2.6746  0.1893  2.2137
   75MOL0     H10092  -3.061   3.230   1.008 -1.7977  0.3470  1.1743
   75MOL0     H10093  -3.187   3.057   1.136  2.2402 -0.1273 -1.4297
   75MOL0     H10094  -3.222   3.182   1.260  2.0326 -0.2937  0.2238
   75MOL0     H10095  -3.309   3.225   0.972 -0.8230  1.2445 -0.3708
   75MOL0     H10096  -3.342   3.334   1.110 -0.7033  0.3270 -0.1044
   75MOL0     H10097  -3.414   3.047   1.120 -0.3155 -0.2150 -1.3641
   75MOL0     H10098  -3.468   3.179   1.237  0.1394  0.0152  0.8003
   75MOL0     H10099  -3.610   3.267   1.085  0.0147  0.1106  0.2925
   75MOL0     H10100  -3.649   3.103   1.094 -0.4396  3.0870  1.3763
   75MOL0     H10101  -3.509   3.248   0.860  0.9062 -0.3611  2.3648
   75MOL0     H10102  -3.471   3.083   0.884  0.3432 -0.3704  3.1029
   75MOL0     H10103  -3.701   3.015   0.904 -1.7361  1.5196  0.2791
   75MOL0     H10104  -3.654   3.052   0.744  0.8620 -0.8282  0.5735
   75MOL0     H10105  -3.836   3.223   0.914  0.1443  1.6479  0.2592
   75MOL0     H10106  -3.871   3.132   0.770 -0.8869  0.4677 -0.3863
   75MOL0     H10107  -2.754   3.131   1.324 -1.4221  2.5626  0.7732
   75MOL0     H10108  -2.508   3.195   1.275  1.1006  2.0387  0.6715
   75MOL0     H10109  -2.214   3.330   0.764 -3.1124 -1.2930  2.4203
   75MOL0     H10110  -2.005   3.426   0.732  1.1988 -0.3416  1.2434
   75MOL0     H10111  -0.412   4.506   0.446 -2.3849 -1.0697  2.0482
   75MOL0     H10112  -0.160   4.535   0.461 -2.4379  1.9799 -2.4843
   75MOL0     H10113   0.235   4.416   0.543  1.7441  0.5667  1.4108
   75MOL0     H10114   0.477   4.420   0.544  0.2800 -0.8248 -1.1775
   75MOL0     H10115   0.638   4.575   0.475  2.0921  2.0220  0.0545
   75MOL0     H10116   0.720   4.422   0.497 -1.2209 -0.6731 -0.2002
   75MOL0     H10117   0.819   4.569   0.255  0.6386  0.3246  0.9387
   75MOL0     H10118   0.918   4.518   0.393  0.6870 -1.3729  1.0435
   75MOL0     H10119   0.756   4.781   0.385  2.5570  3.7151 -1.9869
   75MOL0     H10120   0.930   4.763   0.360 -0.7700 -1.6578 -1.3776
   75MOL0     H10121   0.776   4.670   0.602 -1.9056  0.3239 -2.9826
   75MOL0     H10122   0.846   4.830   0.590 -2.3668 -0.7149  1.0178
   75MOL0     H10123   1.220   4.660   0.634 -0.4287 -0.8948 -1.7218
   75MOL0     H10124   0.482   4.426   0.116 -0.7630  0.7823 -0.9573
   75MOL0     H10125   0.242   4.424   0.103 -0.9566  1.4209  0.2627
   76MOL0     O10126   9.339   9.398   4.553  0.5556  0.8046 -0.0314
   76MOL0     C10127   9.419   9.462   4.478  0.3832  1.0683 -0.4186
   76MOL0     O10128   9.391   9.521   4.355  0.3998 -0.3776  0.3224
   76MOL0     C10129   9.258   9.528   4.315  0.1041  0.9440  0.3112
   76MOL0     C10130   9.187   9.646   4.294  1.0182 -0.1321 -0.0721
   76MOL0     C10131   9.053   9.655   4.277  0.8521  0.1625  0.3684
   76MOL0     C10132   8.971   9.535   4.271  0.5432 -0.0004 -0.0477
   76MOL0     O10133   8.836   9.560   4.281 -0.3151  0.0421  0.6948
   76MOL0     C10134   8.787   9.575   4.418 -0.9062 -0.1166 -0.4113
   76MOL0     C10135   8.638   9.575   4.422  0.2927  0.8881 -0.7034
   76MOL0     C10136   8.579   9.623   4.553  0.4707 -0.5935  0.0816
   76MOL0     C10137   8.446   9.698   4.529 -0.1205  0.3457  0.1678
   76MOL0     C10138   8.384   9.743   4.660  0.6917  0.0295  0.5264
   76MOL0     C10139   8.252   9.826   4.619  0.2310  0.2431 -0.2677
   76MOL0     C10140   8.188   9.879   4.745  0.1942  0.1451  0.3072
   76MOL0     C10141   8.052   9.944   4.718 -0.0854  0.2672 -0.5227
   76MOL0     N10142   7.989   9.985   4.841 -0.1076  0.2415 -0.0851
   76MOL0     C10143   8.032  10.075   4.929  0.3371 -0.7417  0.3178
   76MOL0     C10144   7.967  10.037   5.045 -0.1570 -0.7407 -0.2815
   76MOL0     C10145   7.964  10.118   5.174 -0.3130 -0.0159 -0.9755
   76MOL0     C10146   7.842  10.213   5.177 -0.2440 -0.6803  0.1776
   76MOL0     C10147   7.874  10.316   5.284  0.8373 -0.5380  0.7486
   76MOL0     C10148   7.757  10.375   5.373  0.2995  0.4889  0.1339
   76MOL0     O10149   7.648  10.432   5.287 -0.4911  0.5412 -0.0379
   76MOL0     C10150   7.531  10.477   5.342 -0.3261 -0.6522  0.0075
   76MOL0     C10151   7.528  10.526   5.475 -0.0747  0.4117  0.7406
   76MOL0     C10152   7.412  10.583   5.530  1.4486  0.1230  1.0963
   76MOL0     C10153   7.422  10.631   5.674 -0.8424 -0.3896  0.4258
   76MOL0     C10154   7.295  10.594   5.444  0.0563  1.1551 -0.1206
   76MOL0     C10155   7.169  10.667   5.478  0.0779  0.0713 -0.2007
   76MOL0     O10156   7.052  10.622   5.409  0.3162 -0.3913 -0.7322
   76MOL0     C10157   6.944  10.701   5.372 -0.8384 -0.0670  0.0305
   76MOL0     C10158   6.823  10.636   5.358  0.0323  0.0662  0.5597
   76MOL0     C10159   6.712  10.709   5.319 -0.1387  0.0451 -0.8084
   76MOL0     C10160   6.723  10.848   5.294 -1.0015 -0.1506  0.1703
   76MOL0     O10161   6.616  10.913   5.245  0.1156  0.2207  0.0749
   76MOL0     C10162   6.515  10.941   5.341 -0.0772 -1.3169  0.5675
   76MOL0     C10163   6.382  10.992   5.288  0.3094  0.1388 -0.6198
   76MOL0     C10164   6.330  10.927   5.156  0.6062 -0.4801 -0.1034
   76MOL0     C10165   6.275  10.785   5.180  0.5556  0.1298 -0.1018
   76MOL0     C10166   6.219  10.714   5.064  0.0495 -0.5812 -0.4211
   76MOL0     C10167   6.330  10.673   4.966 -0.6756  0.4009  0.2597
   76MOL0     C10168   6.293  10.585   4.847  1.2495  0.5631  0.9194
   76MOL0     C10169   6.151  10.607   4.791 -0.5125 -0.5728 -0.2567
   76MOL0    Cl10170   6.124  10.773   4.730  0.6600 -0.0182 -0.1654
   76MOL0     C10171   6.844  10.912   5.306  0.0058  0.0186  0.1583
   76MOL0     C10172   6.957  10.839   5.339  0.6282  0.5498 -0.5527
   76MOL0     O10173   7.176  10.769   5.550  0.1995  0.5388 -0.0023
   76MOL0     C10174   7.300  10.535   5.315  0.0257  0.5525  0.0329
   76MOL0     C10175   7.417  10.483   5.263  0.3273  0.4743  0.1946
   76MOL0     N10176   7.905   9.915   5.031  0.9361  0.0228  0.5438
   76MOL0     N10177   7.914   9.886   4.901 -0.2724 -0.2360 -0.8194
   76MOL0     C10178   9.032   9.413   4.294  0.1451 -0.9379  0.2981
   76MOL0     C10179   9.174   9.412   4.309 -0.0602 -0.5234 -0.0836
   76MOL0     C10180   9.555   9.466   4.538 -0.1468 -0.5715 -0.1379
   76MOL0     C10181   9.643   9.554   4.489 -0.3110  0.5194  0.4434
   76MOL0     C10182   9.776   9.561   4.533  0.5355  0.3869  0.7574
   76MOL0     C10183   9.811   9.503   4.653 -0.1297  0.5369  1.1637
   76MOL0     O10184   9.928   9.530   4.716  0.0789  0.2446  0.8472
   76MOL0     C10185  10.037   9.540   4.617  0.0972 -0.2553  0.3162
   76MOL0     C10186  10.165   9.508   4.699 -0.2667 -0.0655  0.4062
   76MOL0     C10187  10.201   9.622   4.794  0.4359  0.9078 -0.0389
   76MOL0     C10188  10.252   9.756   4.729  0.6760 -1.5000  0.4256
   76MOL0     C10189  10.377   9.738   4.653  0.6485  0.6020 -0.1773
   76MOL0     C10190  10.481   9.710   4.599  0.4961  0.2251  0.5639
   76MOL0     C10191   9.726   9.409   4.704  0.8402 -0.5564  1.1138
   76MOL0     C10192   9.600   9.387   4.644 -0.0871  0.3438 -0.1328
   76MOL0     H10193   9.235   9.740   4.319 -1.6420  0.7032  2.3958
   76MOL0     H10194   8.996   9.747   4.271 -2.1068 -1.3629  2.5045
   76MOL0     H10195   8.832   9.494   4.475 -3.4787 -1.8149 -0.6483
   76MOL0     H10196   8.829   9.666   4.462 -3.0368  1.3261 -1.2064
   76MOL0     H10197   8.608   9.641   4.340  0.0490  2.4147  0.5825
   76MOL0     H10198   8.592   9.478   4.399 -0.1208  1.2375 -1.3694
   76MOL0     H10199   8.555   9.538   4.618 -3.5469 -0.8397 -1.4508
   76MOL0     H10200   8.644   9.694   4.607  2.4309 -2.7694  0.7895
   76MOL0     H10201   8.457   9.785   4.463  0.4068  0.0474 -0.1476
   76MOL0     H10202   8.375   9.635   4.476 -0.6361  0.8255  0.2831
   76MOL0     H10203   8.364   9.647   4.708 -1.3008 -0.4625 -1.1258
   76MOL0     H10204   8.452   9.805   4.719 -0.0894  0.5282  0.9046
   76MOL0     H10205   8.283   9.907   4.551  2.1357 -0.8512 -0.7626
   76MOL0     H10206   8.183   9.756   4.571 -0.6985  0.7436  0.3051
   76MOL0     H10207   8.178   9.796   4.815  0.1009 -0.3990 -0.3401
   76MOL0     H10208   8.245   9.954   4.800 -1.6507  1.9285 -0.1165
   76MOL0     H10209   7.991   9.878   4.655 -1.4354  2.0525 -1.1774
   76MOL0     H10210   8.075  10.032   4.657  0.0454  0.3464 -0.3602
   76MOL0     H10211   8.097  10.160   4.911  0.1969 -1.0460 -1.9330
   76MOL0     H10212   7.955  10.042   5.253  3.4325  0.4962  0.1278
   76MOL0     H10213   8.062  10.164   5.188  0.7615 -2.1746 -0.8849
   76MOL0     H10214   7.762  10.145   5.207  0.2175 -0.7781  1.2333
   76MOL0     H10215   7.823  10.264   5.082  0.3611 -0.9332 -0.0799
   76MOL0     H10216   7.933  10.398   5.243 -0.3651  0.5298  1.1095
   76MOL0     H10217   7.940  10.265   5.355  1.9413 -1.6153 -0.9721
   76MOL0     H10218   7.799  10.450   5.441 -3.9888 -0.3086  4.2389
   76MOL0     H10219   7.718  10.294   5.435  0.5303  0.3593  0.1078
   76MOL0     H10220   7.622  10.528   5.530  0.4979  4.0298 -0.0758
   76MOL0     H10221   7.398  10.737   5.686 -0.2414 -0.4976  3.3394
   76MOL0     H10222   7.343  10.581   5.730 -1.1569 -0.8986 -0.4546
   76MOL0     H10223   7.528  10.626   5.700  0.2506 -0.1296 -3.3701
   76MOL0     H10224   6.827  10.529   5.373 -0.5409 -0.1538 -0.7195
   76MOL0     H10225   6.621  10.660   5.287 -0.3621  1.8143 -3.1330
   76MOL0     H10226   6.502  10.846   5.395  0.0367 -1.3675  0.5067
   76MOL0     H10227   6.548  11.018   5.412 -0.3035 -1.7550  1.1604
   76MOL0     H10228   6.309  10.990   5.369 -0.7666  5.4262 -1.0364
   76MOL0     H10229   6.393  11.101   5.281  2.4291 -0.1514 -3.4092
   76MOL0     H10230   6.414  10.923   5.085 -0.3984  2.0797 -1.5405
   76MOL0     H10231   6.247  10.992   5.130  1.2395  0.7219  0.7784
   76MOL0     H10232   6.360  10.732   5.224 -1.1306  0.3712  3.8447
   76MOL0     H10233   6.206  10.799   5.263  1.5276  2.4695  0.3892
   76MOL0     H10234   6.145  10.772   5.010 -0.3385 -0.6016  0.0832
   76MOL0     H10235   6.177  10.622   5.106 -2.0775  0.7952  0.6087
   76MOL0     H10236   6.387  10.759   4.929 -1.2015 -0.2631 -2.2578
   76MOL0     H10237   6.411  10.624   5.020 -2.3021 -1.4428  1.1396
   76MOL0     H10238   6.283  10.485   4.889 -2.0672  0.9223  1.2228
   76MOL0     H10239   6.381  10.596   4.782 -0.4784  0.1592 -1.6458
   76MOL0     H10240   6.074  10.588   4.866 -0.4493  0.7172  0.1754
   76MOL0     H10241   6.150  10.536   4.709  0.1827 -0.0561 -0.7286
   76MOL0     H10242   6.841  11.021   5.305  0.3975  0.2822  4.9059
   76MOL0     H10243   7.050  10.895   5.345  1.7973 -1.3306 -0.2839
   76MOL0     H10244   7.212  10.542   5.251  0.0405 -0.5887 -0.1313
   76MOL0     H10245   7.405  10.445   5.162 -3.2456  0.7615  0.3546
   76MOL0     H10246   8.982   9.317   4.294 -2.2267  0.1995  1.9239
   76MOL0     H10247   9.217   9.315   4.331 -0.1507 -0.1258  2.0849
   76MOL0     H10248   9.608   9.609   4.403 -1.6237  0.9518  1.2179
   76MOL0     H10249   9.839   9.643   4.497 -0.1226  1.6326  2.3356
   76MOL0     H10250  10.037   9.476   4.528  3.1628  1.2973 -0.9743
   76MOL0     H10251  10.026   9.641   4.576 -3.5833 -1.1679 -1.3690
   76MOL0     H10252  10.246   9.490   4.628 -0.0052  0.2577  0.6227
   76MOL0     H10253  10.151   9.410   4.745 -2.7540 -0.5226 -1.1128
   76MOL0     H10254  10.281   9.590   4.862 -1.1121 -1.8030  0.6588
   76MOL0     H10255  10.112   9.649   4.851 -0.4223  1.1429 -1.4497
   76MOL0     H10256  10.272   9.822   4.814 -0.9605  0.0773 -0.3770
   76MOL0     H10257  10.185   9.806   4.660  1.5221  2.6344  2.3093
   76MOL0     H10258  10.565   9.685   4.538 -0.7596  0.2616 -1.2556
   76MOL0     H10259   9.758   9.358   4.794  0.3177 -2.7062  0.1367
   76MOL0     H10260   9.537   9.314   4.695 -1.7481  2.6115  1.2240
   77MOL0     O10261   8.737  10.793   6.651 -0.0315  0.3954  0.2306
   77MOL0     C10262   8.773  10.901   6.620  0.3463  0.2838 -0.8099
   77MOL0     O10263   8.897  10.931   6.565 -0.5995  0.0583 -0.1361
   77MOL0     C10264   9.003  10.849   6.591  1.0602  0.5756 -0.4094
   77MOL0     C10265   9.074  10.799   6.484 -0.0862  0.5846  0.1618
   77MOL0     C10266   9.183  10.709   6.505  0.1819  0.3095  0.8814
   77MOL0     C10267   9.222  10.673   6.635  0.3718 -0.3932  0.7813
   77MOL0     O10268   9.321  10.582   6.659  0.0562 -0.5452  0.0917
   77MOL0     C10269   9.435  10.633   6.741 -0.0469 -0.1520 -0.5600
   77MOL0     C10270   9.534  10.512   6.759  0.2727 -0.5968  0.5007
   77MOL0     C10271   9.473  10.382   6.814 -0.1929 -0.5623  0.0384
   77MOL0     C10272   9.396  10.419   6.940 -0.2769  0.3170 -0.0921
   77MOL0     C10273   9.302  10.312   6.992 -0.6749  0.3766 -0.9376
   77MOL0     C10274   9.375  10.195   7.049  0.1052 -0.8702  1.0353
   77MOL0     C10275   9.394  10.211   7.197  0.1762 -0.2708 -0.6637
   77MOL0     C10276   9.508  10.127   7.254  0.7299  0.6315 -0.0813
   77MOL0     N10277   9.633  10.159   7.203 -0.4402 -0.4807  0.3307
   77MOL0     C10278   9.743  10.074   7.222  0.0337 -0.3111  0.2316
   77MOL0     C10279   9.843  10.140   7.157  0.1202  0.0903  0.9423
   77MOL0     C10280   9.982  10.084   7.143  0.6515  0.3296 -0.2172
   77MOL0     C10281  10.064  10.101   7.273  0.4535 -0.2052  0.3835
   77MOL0     C10282  10.099  10.245   7.297  0.1527  0.0547  0.1070
   77MOL0     C10283  10.187  10.252   7.422 -0.1291  1.4164 -0.1279
   77MOL0     O10284  10.106  10.203   7.529 -0.3931 -0.0261 -0.6093
   77MOL0     C10285  10.029  10.305   7.589 -0.6833  0.3576  0.7776
   77MOL0     C10286  10.072  10.405   7.673 -0.3351 -0.3767 -0.2854
   77MOL0     C10287   9.994  10.493   7.743  0.2660 -0.3598 -0.6996
   77MOL0     C10288  10.062  10.593   7.834 -0.6036 -0.1759  0.3481
   77MOL0     C10289   9.850  10.473   7.734 -0.9853 -0.4716 -0.3751
   77MOL0     C10290   9.755  10.558   7.799  0.3191 -0.3767 -0.2566
   77MOL0     O10291   9.633  10.547   7.759 -0.0012 -0.2117  0.7160
   77MOL0     C10292   9.531  10.628   7.816  0.6912 -0.3935  0.5748
   77MOL0     C10293   9.477  10.735   7.747 -1.1885  0.7819  0.0224
   77MOL0     C10294   9.362  10.802   7.791 -0.5542 -0.1711  0.4948
   77MOL0     C10295   9.313  10.774   7.919  0.2534  1.5683  0.2629
   77MOL0     O10296   9.210  10.848   7.967  0.3099  0.1247 -0.3374
   77MOL0     C10297   9.237  10.909   8.097 -0.4495 -0.4291 -0.0573
   77MOL0     C10298   9.370  10.986   8.082  0.1496  0.8669  0.9750
   77MOL0     C10299   9.408  11.093   8.185 -1.1784 -0.5997  0.3725
   77MOL0     C10300   9.529  11.168   8.128  0.0763 -0.2619  0.4498
   77MOL0     C10301   9.595  11.279   8.224  0.0749  0.2326  0.4010
   77MOL0     C10302   9.721  11.334   8.154  0.0109 -0.8174  0.9083
   77MOL0     C10303   9.764  11.478   8.207  0.1837 -0.6314 -0.0953
   77MOL0     C10304   9.649  11.582   8.215  0.3741 -0.2977  0.0332
   77MOL0    Cl10305   9.745  11.711   8.279  0.0888 -0.2795  0.2348
   77MOL0     C10306   9.354  10.662   7.993  0.4643 -0.5294  0.3547
   77MOL0     C10307   9.463  10.597   7.939 -0.2829 -0.3389 -0.1986
   77MOL0     O10308   9.791  10.627   7.892  0.1595 -0.0812 -0.1095
   77MOL0     C10309   9.806  10.372   7.647  0.2388 -0.1208 -0.0173
   77MOL0     C10310   9.890  10.290   7.573 -0.1573  0.4545  0.5531
   77MOL0     N10311   9.796  10.272   7.121 -0.9757  0.0370  0.0893
   77MOL0     N10312   9.672  10.274   7.145  1.0122 -0.4971  0.8212
   77MOL0     C10313   9.152  10.733   6.747 -0.8925  0.1246 -0.0005
   77MOL0     C10314   9.044  10.811   6.729 -0.3410  0.8661 -0.7392
   77MOL0     C10315   8.694  11.019   6.656 -0.1875  0.0186  0.2074
   77MOL0     C10316   8.597  11.011   6.756 -0.0836 -0.6527 -0.1261
   77MOL0     C10317   8.532  11.120   6.798 -0.1514 -0.1215  0.3479
   77MOL0     C10318   8.553  11.250   6.755  0.1184  0.3186  0.7434
   77MOL0     O10319   8.482  11.342   6.818  0.2707 -0.2493  0.1428
   77MOL0     C10320   8.484  11.483   6.764 -0.1269  0.6278 -0.1306
   77MOL0     C10321   8.369  11.552   6.837  0.8816 -0.1299 -0.1371
   77MOL0     C10322   8.230  11.508   6.800 -0.2723  0.8103  0.7148
   77MOL0     C10323   8.180  11.572   6.670  0.7071  0.0566 -0.2097
   77MOL0     C10324   8.152  11.716   6.680 -0.2519  0.9984  0.3529
   77MOL0     C10325   8.110  11.829   6.676  0.2305 -0.2542  0.2662
   77MOL0     C10326   8.644  11.262   6.648 -0.5629  0.2605  0.2707
   77MOL0     C10327   8.714  11.150   6.606 -0.4951  0.3811  0.8790
   77MOL0     H10328   9.044  10.835   6.386  2.6182  3.0224  0.0838
   77MOL0     H10329   9.244  10.682   6.419  0.2314 -0.0453  1.0293
   77MOL0     H10330   9.484  10.718   6.691  3.6009 -0.7014  1.7712
   77MOL0     H10331   9.401  10.677   6.835 -2.6316 -1.6975 -0.6653
   77MOL0     H10332   9.582  10.488   6.664 -1.6423  1.2387 -1.0384
   77MOL0     H10333   9.614  10.546   6.826  3.6353 -3.7557 -1.5247
   77MOL0     H10334   9.410  10.327   6.743  0.4148 -0.2414 -0.7663
   77MOL0     H10335   9.552  10.316   6.851 -1.2381 -0.5102  2.5727
   77MOL0     H10336   9.467  10.437   7.021 -0.1919 -0.4378  0.0096
   77MOL0     H10337   9.333  10.509   6.937  0.1529  0.6554  0.6937
   77MOL0     H10338   9.248  10.363   7.072  1.2403  2.2250 -0.7328
   77MOL0     H10339   9.236  10.272   6.914 -4.5019  2.6587  0.8005
   77MOL0     H10340   9.324  10.100   7.030 -2.2602  0.2549  1.5037
   77MOL0     H10341   9.468  10.182   6.992 -0.9120 -2.4957 -0.3508
   77MOL0     H10342   9.415  10.316   7.220 -1.2493  0.0328 -0.6427
   77MOL0     H10343   9.298  10.185   7.243  0.5223 -0.1738  0.1294
   77MOL0     H10344   9.483  10.024   7.230  1.2130  0.0970  1.5526
   77MOL0     H10345   9.493  10.131   7.362 -0.0362 -0.6230 -0.1190
   77MOL0     H10346   9.754   9.981   7.277  2.1329  0.4224  1.1463
   77MOL0     H10347   9.970   9.979   7.114 -0.2432  0.7928 -1.6210
   77MOL0     H10348  10.036  10.133   7.062 -0.9054 -1.2615 -2.3182
   77MOL0     H10349  10.153  10.038   7.273  1.9704  1.8237  1.0755
   77MOL0     H10350  10.006  10.064   7.358  2.5162 -4.4464  0.1880
   77MOL0     H10351  10.009  10.306   7.310 -1.3630 -1.9302 -0.5435
   77MOL0     H10352  10.150  10.285   7.209 -3.4085  2.3069 -1.1921
   77MOL0     H10353  10.224  10.353   7.441  0.1426  1.5569 -1.2781
   77MOL0     H10354  10.278  10.193   7.411 -2.4117 -1.9932 -3.0456
   77MOL0     H10355  10.179  10.421   7.673 -0.2464 -0.8245  0.9009
   77MOL0     H10356  10.160  10.620   7.792 -0.6682 -2.2489 -1.3421
   77MOL0     H10357  10.007  10.686   7.819  0.5658  0.4450 -0.2240
   77MOL0     H10358  10.077  10.558   7.936  4.3305  0.0092 -0.0642
   77MOL0     H10359   9.507  10.760   7.645 -1.2597 -0.8315 -0.4236
   77MOL0     H10360   9.318  10.879   7.728  0.4692 -1.3415 -1.7920
   77MOL0     H10361   9.161  10.979   8.132  0.4070  0.7970 -0.5915
   77MOL0     H10362   9.256  10.836   8.176  4.3872  1.0107  0.4482
   77MOL0     H10363   9.452  10.914   8.092 -0.7374  0.0835  3.3227
   77MOL0     H10364   9.363  11.029   7.982  0.3374 -1.0101  0.1102
   77MOL0     H10365   9.424  11.047   8.283  0.5213 -1.4352 -0.2580
   77MOL0     H10366   9.325  11.162   8.206  0.4885  1.1015  1.7199
   77MOL0     H10367   9.598  11.088   8.100 -0.0470 -0.4365  0.6420
   77MOL0     H10368   9.498  11.219   8.036  0.7814  1.2364  1.0188
   77MOL0     H10369   9.625  11.240   8.322  1.5508  2.2922  0.8320
   77MOL0     H10370   9.517  11.355   8.230 -1.2201 -0.9157 -1.0309
   77MOL0     H10371   9.806  11.265   8.154  0.8914  0.2290 -0.3489
   77MOL0     H10372   9.695  11.334   8.048 -0.3921  2.6241  0.8929
   77MOL0     H10373   9.849  11.516   8.149  0.1550 -1.4403 -0.6818
   77MOL0     H10374   9.807  11.465   8.307  0.7847 -2.5251 -0.5380
   77MOL0     H10375   9.572  11.546   8.283  1.2796 -1.2321  0.5932
   77MOL0     H10376   9.603  11.609   8.119  1.6005 -0.3680 -0.5926
   77MOL0     H10377   9.305  10.648   8.089 -2.4028  2.3542 -0.5060
   77MOL0     H10378   9.511  10.510   7.984 -1.0099 -0.5761  0.1283
   77MOL0     H10379   9.703  10.342   7.632  0.3112 -0.1996 -0.3641
   77MOL0     H10380   9.859  10.205   7.514 -0.8918  2.8203 -2.7653
   77MOL0     H10381   9.180  10.705   6.848  0.0219  2.0920  0.3337
   77MOL0     H10382   8.991  10.857   6.811 -0.8651  1.7715 -1.5623
   77MOL0     H10383   8.573  10.915   6.800  0.9624 -0.7294  0.3185
   77MOL0     H10384   8.445  11.114   6.864  0.9767 -1.3917  1.8002
   77MOL0     H10385   8.581  11.530   6.782  0.1158 -0.3771  1.3246
   77MOL0     H10386   8.472  11.492   6.655  2.0517  1.5023 -0.3525
   77MOL0     H10387   8.386  11.660   6.831  0.4644 -0.0097  0.6459
   77MOL0     H10388   8.382  11.532   6.944 -2.3339 -0.6456  0.2599
   77MOL0     H10389   8.166  11.529   6.886  0.3213  1.8853  0.9228
   77MOL0     H10390   8.222  11.401   6.780 -2.4750  1.3168 -1.5987
   77MOL0     H10391   8.088  11.524   6.636 -0.4141  1.9995 -0.0492
   77MOL0     H10392   8.259  11.560   6.595  1.1382  2.0905 -0.1520
   77MOL0     H10393   8.101  11.936   6.670  0.1213 -0.3394 -1.4174
   77MOL0     H10394   8.653  11.365   6.614 -1.4022  1.0160  2.1766
   77MOL0     H10395   8.789  11.166   6.529  0.5708 -1.8145  1.3886
   78MOL0     O10396   8.745   9.048   1.533 -0.2171  0.1910  0.1934
   78MOL0     C10397   8.715   9.134   1.620 -0.2345 -0.7342 -0.1344
   78MOL0     O10398   8.785   9.172   1.730  0.2051 -0.2249  0.0790
   78MOL0     C10399   8.908   9.118   1.760  0.5164  0.5606  0.5079
   78MOL0     C10400   9.012   9.134   1.664 -0.1778 -0.1270  0.2185
   78MOL0     C10401   9.141   9.088   1.693  0.1078 -0.1914  0.2841
   78MOL0     C10402   9.171   9.034   1.819 -0.5500 -0.4199 -0.5877
   78MOL0     O10403   9.298   8.991   1.849  0.2022 -0.1218 -0.0775
   78MOL0     C10404   9.340   8.883   1.765 -1.1910  0.8994  0.2752
   78MOL0     C10405   9.465   8.810   1.808  1.0240 -0.5062 -0.6249
   78MOL0     C10406   9.581   8.902   1.833 -0.3903  0.0088 -0.1971
   78MOL0     C10407   9.716   8.812   1.840  0.1218 -0.2097  0.0819
   78MOL0     C10408   9.751   8.772   1.981 -0.5443 -0.8735 -0.4181
   78MOL0     C10409   9.843   8.646   1.993 -0.3530  0.2028 -0.9325
   78MOL0     C10410   9.988   8.677   1.949  0.0596  0.5258  1.0876
   78MOL0     C10411  10.091   8.574   2.014  0.5104 -0.6240  0.6917
   78MOL0     N10412  10.228   8.597   1.974  0.3250 -0.3642  0.8554
   78MOL0     C10413  10.295   8.706   2.013 -0.1229  0.1195  0.7367
   78MOL0     C10414  10.425   8.696   1.956 -0.3785 -0.0165  0.1616
   78MOL0     C10415  10.545   8.787   1.975  0.4122 -0.3504 -0.5458
   78MOL0     C10416  10.561   8.818   2.125 -0.3313 -0.1278 -0.2723
   78MOL0     C10417  10.563   8.966   2.168  0.0965 -0.9260  0.3073
   78MOL0     C10418  10.425   9.039   2.160 -0.2691  0.0863  0.0869
   78MOL0     O10419  10.377   9.012   2.024 -0.1104 -0.4424 -0.0716
   78MOL0     C10420  10.273   9.082   1.967 -0.8103 -0.2400  0.2983
   78MOL0     C10421  10.240   9.047   1.838  0.6130 -0.4291 -0.3937
   78MOL0     C10422  10.127   9.113   1.768 -0.4771 -0.9256 -0.0737
   78MOL0     C10423  10.102   9.068   1.627  0.0943 -0.1304 -0.4829
   78MOL0     C10424  10.049   9.211   1.846 -0.0507  0.7507  0.1614
   78MOL0     C10425   9.926   9.281   1.791 -0.0573  0.3608  0.5150
   78MOL0     O10426   9.859   9.221   1.686 -0.1580  0.2665 -0.6294
   78MOL0     C10427   9.755   9.295   1.638 -0.1087  0.8379 -0.3356
   78MOL0     C10428   9.621   9.275   1.691  0.6497  0.1054 -0.2121
   78MOL0     C10429   9.516   9.355   1.647  0.4620 -0.3251  0.4626
   78MOL0     C10430   9.531   9.458   1.556 -0.0900 -0.0093  0.2366
   78MOL0     O10431   9.425   9.530   1.505  0.1516  0.3506  0.0988
   78MOL0     C10432   9.453   9.638   1.407  0.8861  0.6356  0.6932
   78MOL0     C10433   9.323   9.709   1.360 -0.3367  0.6544 -0.2484
   78MOL0     C10434   9.256   9.789   1.475 -0.0975  0.0258  0.0778
   78MOL0     C10435   9.101   9.797   1.435 -0.3530  0.7103 -0.0887
   78MOL0     C10436   9.023   9.902   1.513  0.2750 -0.6133 -0.3230
   78MOL0     C10437   8.866   9.894   1.503 -0.2434 -0.0026  0.9291
   78MOL0     C10438   8.802  10.019   1.563 -0.6851  0.7757 -0.0335
   78MOL0     C10439   8.651  10.033   1.513 -0.5985 -0.4030 -0.9881
   78MOL0    Cl10440   8.550  10.145   1.618 -0.5590  0.0742  0.3859
   78MOL0     C10441   9.664   9.480   1.512 -0.0243  1.0883  0.2682
   78MOL0     C10442   9.775   9.395   1.544  0.6575 -0.1445  0.2580
   78MOL0     O10443   9.891   9.380   1.851  0.3012 -0.3755  0.1318
   78MOL0     C10444  10.092   9.236   1.983 -0.0382  0.2597  0.7858
   78MOL0     C10445  10.202   9.170   2.037  0.8200 -0.2901  0.9133
   78MOL0     N10446  10.420   8.591   1.871  0.2082  0.1161 -0.1446
   78MOL0     N10447  10.298   8.530   1.888  0.5512  0.4248  0.5558
   78MOL0     C10448   9.073   9.042   1.925  0.0117  0.2299  0.3198
   78MOL0     C10449   8.935   9.068   1.890  0.7812  0.2599  0.3031
   78MOL0     C10450   8.583   9.204   1.597 -0.2160 -0.6157 -1.1420
   78MOL0     C10451   8.550   9.295   1.697 -0.6733  0.1609  0.6219
   78MOL0     C10452   8.429   9.368   1.678  0.3271  0.4088  0.1241
   78MOL0     C10453   8.340   9.346   1.566  1.6849  0.5165  0.1869
   78MOL0     O10454   8.219   9.412   1.543  0.6943 -0.3655 -0.7154
   78MOL0     C10455   8.189   9.523   1.631 -0.6014  0.4209 -0.0996
   78MOL0     C10456   8.041   9.556   1.592 -0.8237  0.2520  0.7281
   78MOL0     C10457   7.948   9.439   1.580  0.3031 -0.5060  0.0239
   78MOL0     C10458   7.810   9.482   1.536  0.8282 -0.1836 -0.3248
   78MOL0     C10459   7.716   9.367   1.555 -0.0679  0.4532 -0.4230
   78MOL0     C10460   7.624   9.280   1.553 -0.1879  0.5901  0.4034
   78MOL0     C10461   8.382   9.253   1.474 -0.2053 -0.1862  0.4378
   78MOL0     C10462   8.495   9.180   1.487  0.9343 -0.2818 -0.0696
   78MOL0     H10463   8.998   9.184   1.569 -1.2283  0.1419  0.4985
   78MOL0     H10464   9.211   9.079   1.609 -2.5882  0.0660 -2.1470
   78MOL0     H10465   9.261   8.807   1.765 -0.0326 -0.3767  1.1846
   78MOL0     H10466   9.349   8.918   1.662 -1.6593 -1.4345 -0.6362
   78MOL0     H10467   9.440   8.761   1.902 -4.4649 -0.0449 -1.5372
   78MOL0     H10468   9.494   8.727   1.744  0.2069 -2.4924  1.4651
   78MOL0     H10469   9.603   8.973   1.753  2.9127 -0.4277  0.1704
   78MOL0     H10470   9.584   8.966   1.921  0.9664  0.7168 -0.7221
   78MOL0     H10471   9.713   8.721   1.780 -2.6412 -0.1108 -0.0380
   78MOL0     H10472   9.793   8.881   1.804 -1.5745  1.3678 -0.7311
   78MOL0     H10473   9.799   8.856   2.030 -0.0771 -2.2369  1.5854
   78MOL0     H10474   9.655   8.760   2.032 -2.2313 -1.0976 -3.3962
   78MOL0     H10475   9.834   8.614   2.098 -2.1034  1.3449 -0.6819
   78MOL0     H10476   9.804   8.557   1.942 -1.1077  0.1517 -0.2940
   78MOL0     H10477  10.009   8.674   1.841  1.1089 -1.1385  1.2910
   78MOL0     H10478  10.009   8.779   1.983 -1.9332  1.0074  0.9668
   78MOL0     H10479  10.048   8.475   2.002 -0.1482 -0.1035 -1.9068
   78MOL0     H10480  10.097   8.601   2.120 -1.6218  0.2709  0.6467
   78MOL0     H10481  10.271   8.780   2.089  1.7254  0.1230  1.3774
   78MOL0     H10482  10.634   8.730   1.949  1.2648 -0.0138  1.4671
   78MOL0     H10483  10.534   8.876   1.913 -1.6592 -0.3765 -0.2854
   78MOL0     H10484  10.646   8.758   2.157  0.7060  0.3820 -1.9581
   78MOL0     H10485  10.477   8.777   2.182  0.4383 -1.0757  0.2121
   78MOL0     H10486  10.638   9.021   2.110 -1.2355  1.8016  0.9910
   78MOL0     H10487  10.592   8.967   2.273  3.0310 -0.2119 -0.4224
   78MOL0     H10488  10.445   9.143   2.189 -2.4023  0.6065 -0.1667
   78MOL0     H10489  10.358   9.002   2.238 -1.7876  0.9450 -0.7686
   78MOL0     H10490  10.301   8.975   1.784  2.0836 -0.2085  0.9310
   78MOL0     H10491  10.014   9.004   1.633  1.9594 -2.8913 -0.6162
   78MOL0     H10492  10.093   9.160   1.567  3.8067 -0.0088 -1.1088
   78MOL0     H10493  10.181   9.019   1.568  0.3349 -0.0215 -0.2531
   78MOL0     H10494   9.610   9.188   1.755 -0.0784 -0.4051 -1.0025
   78MOL0     H10495   9.421   9.354   1.700  1.6474 -0.4413  2.7010
   78MOL0     H10496   9.522   9.712   1.448 -1.0437  1.3951  2.8685
   78MOL0     H10497   9.486   9.592   1.314 -0.3165 -0.4706  0.7797
   78MOL0     H10498   9.354   9.783   1.286  0.0969  1.6387  0.8887
   78MOL0     H10499   9.259   9.631   1.318  1.4053 -1.2812  0.5017
   78MOL0     H10500   9.301   9.889   1.479 -0.2499  0.0713  1.1878
   78MOL0     H10501   9.268   9.735   1.569  1.0092 -1.4012 -0.8431
   78MOL0     H10502   9.102   9.821   1.328  0.6458 -0.0108 -0.2548
   78MOL0     H10503   9.052   9.701   1.452  0.2360  0.5312  0.6585
   78MOL0     H10504   9.049  10.002   1.479  2.5313 -0.3623  1.9029
   78MOL0     H10505   9.044   9.890   1.620  1.0497 -0.2090 -0.4238
   78MOL0     H10506   8.842   9.892   1.396  1.5013 -1.3342  0.5228
   78MOL0     H10507   8.829   9.800   1.545 -0.1924  0.0063  0.9934
   78MOL0     H10508   8.858  10.111   1.543 -2.5157  2.0601  0.4261
   78MOL0     H10509   8.795  10.001   1.671 -2.6578 -0.7349 -0.3519
   78MOL0     H10510   8.604   9.934   1.504 -0.3254 -0.5579 -0.7431
   78MOL0     H10511   8.658  10.074   1.412 -3.0744  3.9809  0.3789
   78MOL0     H10512   9.684   9.545   1.428  0.1480  0.2904 -0.3200
   78MOL0     H10513   9.871   9.410   1.494 -0.1040  1.6054 -0.7713
   78MOL0     H10514  10.035   9.306   2.043 -2.4925 -2.6993  2.2223
   78MOL0     H10515  10.227   9.197   2.139  1.4221 -0.8345  0.9144
   78MOL0     H10516   9.105   9.018   2.026  0.1999 -2.9666 -0.4108
   78MOL0     H10517   8.864   9.079   1.971  1.1964  0.7619  0.6023
   78MOL0     H10518   8.617   9.321   1.778  0.5162  1.6143 -0.7950
   78MOL0     H10519   8.422   9.456   1.742  1.4078  1.9391 -1.7602
   78MOL0     H10520   8.211   9.481   1.730  0.6154 -0.9628 -0.9180
   78MOL0     H10521   8.241   9.617   1.613 -0.6339  0.6044  0.7267
   78MOL0     H10522   8.048   9.612   1.499  0.1641 -1.2519 -0.1541
   78MOL0     H10523   7.995   9.621   1.667 -0.0009  2.5336 -0.6590
   78MOL0     H10524   7.938   9.405   1.684 -0.2856 -2.7801 -0.7078
   78MOL0     H10525   7.981   9.365   1.506  1.8899  0.8134 -0.6206
   78MOL0     H10526   7.808   9.491   1.427 -1.9055 -3.5148 -0.7192
   78MOL0     H10527   7.766   9.570   1.584 -0.1725 -1.1093  0.4811
   78MOL0     H10528   7.549   9.204   1.543  1.3754 -0.7078 -2.6763
   78MOL0     H10529   8.320   9.235   1.386 -1.7216  1.6281  1.0608
   78MOL0     H10530   8.533   9.119   1.405  0.1492  0.1072 -0.7386
   79MOL0     O10531   8.411   0.928   1.199  0.6487  0.1838  0.1854
   79MOL0     C10532   8.323   0.926   1.112  0.1110  0.1334  1.1048
   79MOL0     O10533   8.345   0.876   0.986  0.1374 -0.0932 -0.3002
   79MOL0     C10534   8.476   0.876   0.948 -0.1457  0.0048  0.7608
   79MOL0     C10535   8.554   0.762   0.984  0.6243  0.3001 -0.4649
   79MOL0     C10536   8.689   0.756   0.955  0.0733 -1.0291  0.0918
   79MOL0     C10537   8.745   0.850   0.862  0.4893  0.5885  0.5923
   79MOL0     O10538   8.872   0.818   0.820 -0.0890 -0.3337 -0.1185
   79MOL0     C10539   8.934   0.917   0.732 -0.1314 -0.0542 -0.1858
   79MOL0     C10540   9.076   0.895   0.693 -0.1012  1.0337  0.6009
   79MOL0     C10541   9.102   0.762   0.618 -1.2755 -1.1680  0.1806
   79MOL0     C10542   9.020   0.738   0.485 -0.5574 -0.1658 -0.7186
   79MOL0     C10543   9.063   0.624   0.414  0.2385  0.7892  0.4996
   79MOL0     C10544   9.036   0.496   0.484  0.1853  0.3664  0.0044
   79MOL0     C10545   8.890   0.436   0.488 -0.4594 -0.0602  0.1779
   79MOL0     C10546   8.846   0.413   0.352  0.7708  0.2549 -0.5361
   79MOL0     N10547   8.721   0.343   0.344  0.4615  0.2372  0.3674
   79MOL0     C10548   8.596   0.397   0.367 -0.1957 -0.7323  0.2946
   79MOL0     C10549   8.515   0.287   0.367 -0.2732 -0.3000  0.3596
   79MOL0     C10550   8.362   0.288   0.397 -0.2520  0.1899  0.4964
   79MOL0     C10551   8.335   0.278   0.547 -1.0905  1.6342  0.6926
   79MOL0     C10552   8.187   0.272   0.577  0.9555  0.1476  0.2000
   79MOL0     C10553   8.124   0.128   0.584 -0.1023  0.7050  0.0876
   79MOL0     O10554   7.986   0.113   0.617 -0.0550 -0.2082  0.1522
   79MOL0     C10555   7.886   0.135   0.528  0.6173  0.4941 -0.0911
   79MOL0     C10556   7.766   0.090   0.563 -0.5474 -0.6803  0.1458
   79MOL0     C10557   7.646   0.110   0.488 -0.4280  0.2168 -0.0053
   79MOL0     C10558   7.516   0.077   0.544  0.5450 -0.3690  0.2308
   79MOL0     C10559   7.650   0.173   0.361 -0.2863 -0.0330 -1.0235
   79MOL0     C10560   7.535   0.202   0.268  0.3325 -0.1916  0.2078
   79MOL0     O10561   7.411   0.143   0.282  0.2701 -0.1940 -0.0872
   79MOL0     C10562   7.312   0.153   0.187  0.4455  0.4195  1.3425
   79MOL0     C10563   7.342   0.158   0.048  0.1884 -0.3911 -0.0458
   79MOL0     C10564   7.246   0.144  -0.047  1.2113  0.0445 -0.6495
   79MOL0     C10565   7.108   0.145  -0.002  0.3943 -0.6008 -0.0979
   79MOL0     O10566   6.991   0.144  -0.074 -0.0023  0.4466 -0.3115
   79MOL0     C10567   7.006   0.068  -0.196  0.0997 -0.3919 -0.2084
   79MOL0     C10568   6.894  -0.017  -0.242 -1.2444  0.8303 -0.1799
   79MOL0     C10569   6.793   0.053  -0.327  0.9583 -0.9466  0.7828
   79MOL0     C10570   6.704  -0.054  -0.379  0.7104  0.0944  0.1877
   79MOL0     C10571   6.582   0.001  -0.461 -1.0205 -0.5137 -0.1239
   79MOL0     C10572   6.614   0.068  -0.601  0.2341  0.2548  0.3358
   79MOL0     C10573   6.501   0.071  -0.694 -0.5434 -0.7548  0.0642
   79MOL0     C10574   6.526   0.184  -0.787  0.4382  0.6470 -1.0296
   79MOL0    Cl10575   6.664   0.151  -0.889 -0.0112 -0.6028  0.0036
   79MOL0     C10576   7.079   0.153   0.135  0.2645  0.1717 -0.3205
   79MOL0     C10577   7.180   0.147   0.232  1.4159 -0.3481  1.1502
   79MOL0     O10578   7.553   0.287   0.182  0.2661 -1.1836  0.5531
   79MOL0     C10579   7.779   0.210   0.323 -0.7325  0.3540  0.1619
   79MOL0     C10580   7.899   0.186   0.399  0.1619  0.2546  0.0616
   79MOL0     N10581   8.592   0.172   0.325  0.5462  0.4158 -0.4760
   79MOL0     N10582   8.709   0.213   0.329  0.0540  0.3934  0.4088
   79MOL0     C10583   8.669   0.963   0.824  0.3026  0.6286  0.2193
   79MOL0     C10584   8.535   0.969   0.862  0.4895 -0.5606  1.6780
   79MOL0     C10585   8.195   0.983   1.154  0.6736 -0.3727 -0.1974
   79MOL0     C10586   8.089   0.978   1.066  0.0932 -0.1834  0.4692
   79MOL0     C10587   7.960   1.014   1.110 -0.0604 -0.3182  0.7527
   79MOL0     C10588   7.930   1.060   1.239  0.0106 -0.3730 -0.0879
   79MOL0     O10589   7.813   1.089   1.302 -0.4751 -0.4505  0.5418
   79MOL0     C10590   7.691   1.053   1.235 -0.8884 -0.2203 -0.1066
   79MOL0     C10591   7.579   1.112   1.320 -0.6351  0.5267 -0.1024
   79MOL0     C10592   7.566   1.039   1.457  0.4277 -0.1786 -0.7078
   79MOL0     C10593   7.438   1.085   1.513 -0.1257  0.3887  0.5661
   79MOL0     C10594   7.421   1.031   1.646  0.0124  0.3670 -1.0237
   79MOL0     C10595   7.419   0.983   1.761 -1.4955 -0.4909  0.4554
   79MOL0     C10596   8.042   1.082   1.320 -0.3820 -0.0192  0.5732
   79MOL0     C10597   8.171   1.043   1.280  0.8071  0.1832  0.1461
   79MOL0     H10598   8.500   0.684   1.036 -0.0764  1.6996  1.0049
   79MOL0     H10599   8.759   0.676   0.978  5.4561  2.5055 -1.9998
   79MOL0     H10600   8.874   0.945   0.645  0.6569  0.1770 -0.6656
   79MOL0     H10601   8.941   1.011   0.788 -3.5046  0.4052 -0.3627
   79MOL0     H10602   9.103   0.981   0.631  1.4705 -0.4662 -0.9251
   79MOL0     H10603   9.137   0.901   0.784 -0.0971  1.0803  0.5955
   79MOL0     H10604   9.208   0.770   0.594 -1.1295 -1.0763  0.8345
   79MOL0     H10605   9.098   0.677   0.687 -0.3052  1.1049  3.2872
   79MOL0     H10606   8.911   0.739   0.498 -0.2390  0.6841  3.1166
   79MOL0     H10607   9.047   0.821   0.419 -0.1862  0.5055  0.2549
   79MOL0     H10608   9.016   0.614   0.315 -0.0642 -4.7949  0.8807
   79MOL0     H10609   9.171   0.643   0.412 -0.1589  3.3560  0.7517
   79MOL0     H10610   9.095   0.419   0.434  1.2680  1.0177  0.2502
   79MOL0     H10611   9.069   0.504   0.588 -1.1227  0.5993  0.4221
   79MOL0     H10612   8.883   0.344   0.547 -0.1025 -1.6456 -2.0805
   79MOL0     H10613   8.828   0.511   0.538 -0.8413  0.0482 -0.4388
   79MOL0     H10614   8.921   0.365   0.289 -1.1845 -2.0465 -1.2954
   79MOL0     H10615   8.835   0.515   0.315  0.3174  0.4447  0.1007
   79MOL0     H10616   8.572   0.500   0.391  2.2595 -0.3890  1.5430
   79MOL0     H10617   8.325   0.385   0.361 -0.8098  0.4905  1.8174
   79MOL0     H10618   8.324   0.206   0.336  4.5675 -3.6084  2.0347
   79MOL0     H10619   8.387   0.360   0.598  2.1398 -2.1370  4.1384
   79MOL0     H10620   8.387   0.193   0.592  1.0630  1.8299 -1.2332
   79MOL0     H10621   8.136   0.310   0.489  2.0019  0.8767 -0.1154
   79MOL0     H10622   8.164   0.333   0.666 -0.1563 -0.7998  0.5862
   79MOL0     H10623   8.179   0.073   0.660  0.6899 -1.2470 -1.7851
   79MOL0     H10624   8.136   0.081   0.486  2.3577  1.2606  0.0639
   79MOL0     H10625   7.754   0.047   0.662 -1.9336 -0.7698 -0.0403
   79MOL0     H10626   7.484  -0.017   0.498 -0.6053  0.3033 -0.3851
   79MOL0     H10627   7.546   0.054   0.646  0.1802  0.8689  0.6351
   79MOL0     H10628   7.444   0.159   0.542  2.0657  1.0211  0.6110
   79MOL0     H10629   7.446   0.164   0.018  0.8420 -2.4240  1.6258
   79MOL0     H10630   7.275   0.153  -0.152 -2.8688  0.8628 -1.8929
   79MOL0     H10631   7.010   0.150  -0.268 -2.0311 -0.1738 -0.1437
   79MOL0     H10632   7.098   0.009  -0.202 -0.3854 -1.7004  3.2226
   79MOL0     H10633   6.940  -0.101  -0.293 -0.1335 -0.3812  2.6202
   79MOL0     H10634   6.834  -0.053  -0.157 -4.1830  1.6038 -1.7762
   79MOL0     H10635   6.837   0.105  -0.412 -0.1075  0.1966  0.9064
   79MOL0     H10636   6.739   0.123  -0.262  0.8653 -2.3681  2.3188
   79MOL0     H10637   6.759  -0.123  -0.444  0.2853  0.9536 -1.1366
   79MOL0     H10638   6.664  -0.107  -0.292 -1.9082  1.6487  0.0319
   79MOL0     H10639   6.533   0.073  -0.395  0.3994  0.0718  0.3281
   79MOL0     H10640   6.506  -0.073  -0.485 -0.2901 -0.7963 -1.6497
   79MOL0     H10641   6.654   0.169  -0.593 -0.1808  0.9191 -3.7659
   79MOL0     H10642   6.694   0.010  -0.648  1.1616 -1.4060  3.5951
   79MOL0     H10643   6.409   0.102  -0.645  1.1508 -0.6566  3.5253
   79MOL0     H10644   6.482  -0.022  -0.748  0.9959 -0.1131 -1.6999
   79MOL0     H10645   6.551   0.267  -0.719  3.0018 -0.5573 -0.3991
   79MOL0     H10646   6.437   0.193  -0.850  0.1124 -0.7306 -0.7881
   79MOL0     H10647   6.974   0.147   0.160 -0.0605  1.0958 -1.3579
   79MOL0     H10648   7.148   0.132   0.335  0.0311  0.4356  0.8578
   79MOL0     H10649   7.785   0.244   0.220  1.3177 -1.7418 -0.4889
   79MOL0     H10650   8.000   0.206   0.365  1.6896 -0.2693  3.8436
   79MOL0     H10651   8.710   1.047   0.768 -0.8172  0.5293 -0.8044
   79MOL0     H10652   8.468   1.046   0.826 -1.7073 -3.0728 -0.0837
   79MOL0     H10653   8.106   0.938   0.966  2.5431  2.2706 -0.2389
   79MOL0     H10654   7.880   0.999   1.038  0.5951 -0.9311  0.1484
   79MOL0     H10655   7.699   1.102   1.137  1.5663 -1.4739 -0.6133
   79MOL0     H10656   7.677   0.945   1.233  0.6052 -0.4993  1.5529
   79MOL0     H10657   7.485   1.107   1.264  0.1347  0.4075 -1.4022
   79MOL0     H10658   7.591   1.220   1.335  1.3948  0.3995 -0.6136
   79MOL0     H10659   7.647   1.079   1.517 -1.3414  3.2309 -0.3562
   79MOL0     H10660   7.568   0.930   1.460 -1.3094 -0.2183  1.3647
   79MOL0     H10661   7.351   1.053   1.455 -0.1014 -2.2472  1.8362
   79MOL0     H10662   7.449   1.193   1.524 -0.7324  0.4083  1.0707
   79MOL0     H10663   7.448   0.930   1.849  2.4344 -2.4886 -1.8153
   79MOL0     H10664   8.027   1.128   1.418 -1.9279 -0.7978  0.7210
   79MOL0     H10665   8.243   1.058   1.360  1.2568 -0.9595 -0.0261
   80MOL0     O10666   9.425   2.593   7.919 -0.7617  0.1436  0.3694
   80MOL0     C10667   9.418   2.533   7.812 -0.4983 -0.4612 -0.4491
   80MOL0     O10668   9.305   2.526   7.737  0.0993  0.0599 -0.1567
   80MOL0     C10669   9.183   2.574   7.784 -0.6373  0.2264  0.4683
   80MOL0     C10670   9.152   2.692   7.851 -0.4203 -0.1416  1.0425
   80MOL0     C10671   9.022   2.712   7.908 -0.0238 -0.5860  0.1716
   80MOL0     C10672   8.924   2.615   7.895  0.6199 -0.3818 -0.2786
   80MOL0     O10673   8.802   2.662   7.937  0.0357 -0.0840 -0.3182
   80MOL0     C10674   8.681   2.575   7.916  0.4946 -1.2846 -0.4659
   80MOL0     C10675   8.557   2.648   7.954  0.7986 -0.0194 -0.2539
   80MOL0     C10676   8.436   2.556   7.942 -0.0532 -0.0755 -0.0139
   80MOL0     C10677   8.314   2.645   7.972 -0.7642  0.2100 -0.5811
   80MOL0     C10678   8.179   2.584   7.932 -0.0293  0.4619 -0.0651
   80MOL0     C10679   8.171   2.514   7.794 -0.3687 -0.3790  0.8074
   80MOL0     C10680   8.026   2.500   7.755 -0.0152  0.5766 -0.0090
   80MOL0     C10681   7.954   2.627   7.718  0.0823  0.5476 -1.0248
   80MOL0     N10682   7.811   2.604   7.665  0.1456 -0.4355 -0.7076
   80MOL0     C10683   7.692   2.663   7.714 -0.1767  0.2424  0.1982
   80MOL0     C10684   7.594   2.586   7.662 -0.2752  0.0456 -0.5934
   80MOL0     C10685   7.447   2.594   7.666  0.3484 -1.2752  0.1312
   80MOL0     C10686   7.394   2.561   7.807 -0.5729 -0.3031  0.6985
   80MOL0     C10687   7.251   2.514   7.807 -0.1145  0.8915 -0.8611
   80MOL0     C10688   7.159   2.581   7.711 -0.4141  0.6049  0.3299
   80MOL0     O10689   7.021   2.533   7.745 -0.2964 -0.4556 -0.0284
   80MOL0     C10690   6.920   2.554   7.657  0.3205 -0.5765  0.9827
   80MOL0     C10691   6.801   2.482   7.673 -0.3253  0.2242  0.6048
   80MOL0     C10692   6.691   2.490   7.582  0.4093  0.4779  0.6194
   80MOL0     C10693   6.575   2.404   7.629 -0.3541  0.7905  0.3408
   80MOL0     C10694   6.704   2.579   7.468  0.5569  0.6033  0.2562
   80MOL0     C10695   6.587   2.608   7.368 -1.0951  0.1150  0.1880
   80MOL0     O10696   6.490   2.512   7.348  0.0804  1.1226  0.0711
   80MOL0     C10697   6.380   2.531   7.266  0.0835 -0.2203 -0.8458
   80MOL0     C10698   6.402   2.529   7.123  1.0784 -0.4456  0.8009
   80MOL0     C10699   6.291   2.551   7.034  0.9628 -0.0962  0.3915
   80MOL0     C10700   6.164   2.567   7.090  0.6479  0.2116  0.3365
   80MOL0     O10701   6.053   2.554   7.003 -0.0342  0.0830 -0.1155
   80MOL0     C10702   5.954   2.657   7.023  0.8049  0.3207  0.5613
   80MOL0     C10703   5.859   2.662   6.896 -0.6622 -0.1654  0.4705
   80MOL0     C10704   5.764   2.546   6.899 -0.6991 -0.8097  0.9825
   80MOL0     C10705   5.651   2.572   6.807 -0.2219  0.0438 -0.8865
   80MOL0     C10706   5.553   2.453   6.826 -0.2259  1.0227  0.2375
   80MOL0     C10707   5.418   2.474   6.753  0.4642 -1.0594  0.0023
   80MOL0     C10708   5.333   2.361   6.799  0.4685 -0.5776 -0.1076
   80MOL0     C10709   5.221   2.349   6.709  0.9899  0.1285  0.8612
   80MOL0    Cl10710   5.099   2.491   6.715 -0.1482 -0.0662 -0.1238
   80MOL0     C10711   6.149   2.585   7.233  0.0517  1.4375  1.0800
   80MOL0     C10712   6.259   2.581   7.316 -0.1221 -0.1186 -0.3346
   80MOL0     O10713   6.590   2.718   7.312 -0.3351 -0.2071  0.5866
   80MOL0     C10714   6.819   2.646   7.450 -0.0688 -0.2703  0.2744
   80MOL0     C10715   6.925   2.632   7.535  0.1812  0.0775 -0.4581
   80MOL0     N10716   7.646   2.487   7.572  0.7133 -0.4943 -0.1932
   80MOL0     N10717   7.771   2.513   7.571  0.4449 -0.1891 -0.6562
   80MOL0     C10718   8.951   2.499   7.826 -1.4447 -0.4367 -0.0392
   80MOL0     C10719   9.081   2.480   7.769 -0.6598  0.1881  0.5587
   80MOL0     C10720   9.538   2.463   7.762  1.1677  0.1024  0.0180
   80MOL0     C10721   9.539   2.412   7.637  0.0980  0.7059  0.1115
   80MOL0     C10722   9.654   2.357   7.580  0.0409 -0.4140  0.6074
   80MOL0     C10723   9.769   2.355   7.646  0.0698  0.8174  0.6063
   80MOL0     O10724   9.872   2.305   7.574  0.3455 -0.2540 -0.1394
   80MOL0     C10725   9.995   2.284   7.641  0.0484 -0.0751  0.1796
   80MOL0     C10726  10.099   2.265   7.542 -0.0088  0.4582  0.1096
   80MOL0     C10727  10.234   2.207   7.609  0.8434 -0.3924 -0.3003
   80MOL0     C10728  10.345   2.198   7.509 -0.2961 -0.0579  0.3974
   80MOL0     C10729  10.472   2.179   7.587 -0.2653 -1.3719  0.4646
   80MOL0     C10730  10.576   2.152   7.638 -0.3925 -0.5125  0.2395
   80MOL0     C10731   9.776   2.401   7.779  0.1664 -0.3546 -0.0766
   80MOL0     C10732   9.658   2.461   7.831 -0.8188 -0.2181  0.1010
   80MOL0     H10733   9.235   2.759   7.872  1.8950 -2.2300 -0.7305
   80MOL0     H10734   8.996   2.805   7.958  2.1628 -0.7863  1.8696
   80MOL0     H10735   8.672   2.556   7.809  1.1644  4.5741 -1.9056
   80MOL0     H10736   8.691   2.487   7.980  2.8862 -1.8757 -1.5390
   80MOL0     H10737   8.580   2.677   8.057  0.3738 -2.4514  0.5883
   80MOL0     H10738   8.552   2.739   7.894 -2.7638  3.1384  4.1206
   80MOL0     H10739   8.441   2.494   7.852  0.7857 -0.4325  0.2710
   80MOL0     H10740   8.438   2.486   8.026 -2.0067  0.2528  0.3595
   80MOL0     H10741   8.310   2.662   8.080  2.1977 -0.9700 -0.1791
   80MOL0     H10742   8.326   2.739   7.918  0.0819  1.0760  1.0440
   80MOL0     H10743   8.163   2.506   8.007 -2.7900  2.1047  1.2559
   80MOL0     H10744   8.098   2.656   7.951  1.8832  2.3260  1.4767
   80MOL0     H10745   8.216   2.588   7.727 -1.6183  0.9171  1.3461
   80MOL0     H10746   8.226   2.420   7.791 -2.0234 -1.4933  2.8340
   80MOL0     H10747   8.023   2.444   7.662  1.0482 -0.8068  0.7529
   80MOL0     H10748   7.972   2.450   7.836 -2.0344  3.3012  0.5098
   80MOL0     H10749   8.012   2.669   7.634  1.5464 -2.4965 -1.6530
   80MOL0     H10750   7.962   2.698   7.801  2.4541 -1.7172  0.8659
   80MOL0     H10751   7.673   2.748   7.780 -1.7356 -0.7511  1.0950
   80MOL0     H10752   7.434   2.699   7.638  1.1449 -2.1209 -4.2569
   80MOL0     H10753   7.395   2.534   7.591 -0.4368 -0.4638  0.0043
   80MOL0     H10754   7.408   2.644   7.877 -1.3723  0.0441  0.4602
   80MOL0     H10755   7.461   2.487   7.850  2.3335  1.6310 -0.1882
   80MOL0     H10756   7.228   2.522   7.913 -1.8482  0.5000 -1.1761
   80MOL0     H10757   7.245   2.406   7.791 -2.7003  1.0586 -1.5081
   80MOL0     H10758   7.186   2.554   7.609  0.8410 -1.6415  1.1696
   80MOL0     H10759   7.177   2.686   7.734 -0.0228  0.6786 -0.2999
   80MOL0     H10760   6.788   2.419   7.761  2.3828 -0.6909  0.4315
   80MOL0     H10761   6.480   2.443   7.592  0.1111  1.7495  0.1329
   80MOL0     H10762   6.593   2.303   7.590  1.6530  1.3665 -0.3549
   80MOL0     H10763   6.572   2.402   7.738 -1.8107 -1.0569  0.3198
   80MOL0     H10764   6.502   2.524   7.081  0.3738 -0.8032 -0.9307
   80MOL0     H10765   6.293   2.542   6.926 -1.3529  1.2683  0.1768
   80MOL0     H10766   5.892   2.648   7.113  0.2054 -0.2297  0.1021
   80MOL0     H10767   6.011   2.750   7.019 -3.7204  3.3622  0.1285
   80MOL0     H10768   5.803   2.755   6.905  0.3650  0.8023 -2.2172
   80MOL0     H10769   5.929   2.651   6.813 -2.0231  1.8126 -1.0259
   80MOL0     H10770   5.731   2.525   7.001 -0.5074  2.5198  1.8587
   80MOL0     H10771   5.822   2.459   6.866  0.6974  0.3404  0.3072
   80MOL0     H10772   5.589   2.657   6.835  0.6880 -0.5438  3.6609
   80MOL0     H10773   5.693   2.575   6.706 -0.6787  2.2552 -1.0428
   80MOL0     H10774   5.538   2.441   6.934 -1.1226  2.7849  0.3526
   80MOL0     H10775   5.605   2.359   6.803  0.5406 -0.2482  5.7345
   80MOL0     H10776   5.376   2.565   6.796  0.4358  0.3903 -2.8114
   80MOL0     H10777   5.422   2.482   6.644  2.4625  0.1255  0.1125
   80MOL0     H10778   5.303   2.379   6.903  3.4012  2.6682  0.3682
   80MOL0     H10779   5.382   2.265   6.815 -1.1362 -1.3590  0.3350
   80MOL0     H10780   5.157   2.264   6.733  1.3460  0.1569  1.9522
   80MOL0     H10781   5.268   2.338   6.610  4.3187  1.1409  2.1643
   80MOL0     H10782   6.049   2.611   7.267 -1.0579 -0.5375 -0.5035
   80MOL0     H10783   6.244   2.600   7.422  0.3317  0.9266 -0.4547
   80MOL0     H10784   6.836   2.710   7.364  0.7723 -0.3047  0.4063
   80MOL0     H10785   7.006   2.701   7.512 -0.1451 -0.2459 -2.8661
   80MOL0     H10786   8.884   2.415   7.816 -0.7342 -0.6760 -5.0572
   80MOL0     H10787   9.102   2.389   7.714  0.0737  0.6315  0.0848
   80MOL0     H10788   9.450   2.408   7.574 -0.8428 -2.5798  1.4662
   80MOL0     H10789   9.663   2.318   7.479 -0.7752  0.3774  0.2178
   80MOL0     H10790  10.028   2.375   7.691  1.0689 -0.5143  0.3294
   80MOL0     H10791   9.980   2.197   7.706 -0.0143  0.1489  0.4669
   80MOL0     H10792  10.109   2.359   7.487  0.7046  1.5371  1.9833
   80MOL0     H10793  10.072   2.192   7.466  2.8588  0.5315 -1.1059
   80MOL0     H10794  10.212   2.112   7.659  2.4922  0.0800  1.4216
   80MOL0     H10795  10.270   2.270   7.691  2.0378 -2.6666  0.9985
   80MOL0     H10796  10.343   2.283   7.440 -3.9425 -0.7869 -0.6294
   80MOL0     H10797  10.334   2.116   7.437 -3.9596  0.4326  0.2036
   80MOL0     H10798  10.674   2.141   7.681  1.4582  1.2412 -3.1385
   80MOL0     H10799   9.861   2.406   7.846  0.1413 -1.0741  0.0061
   80MOL0     H10800   9.672   2.508   7.928  0.4246 -1.3391  0.4897
   81MOL0     O10801   0.414   6.265   3.599  0.2231 -1.1113  0.3369
   81MOL0     C10802   0.369   6.154   3.634 -0.4829 -0.1686 -0.5116
   81MOL0     O10803   0.294   6.126   3.741  0.0751 -0.3772  0.6376
   81MOL0     C10804   0.208   6.226   3.780 -0.4488 -0.6026  0.8127
   81MOL0     C10805   0.069   6.218   3.754 -0.2618 -0.3850 -1.1469
   81MOL0     C10806  -0.011   6.330   3.778 -0.2448 -1.0865 -0.5985
   81MOL0     C10807   0.040   6.447   3.839  0.4418  0.3907 -0.6495
   81MOL0     O10808  -0.046   6.554   3.859 -0.4568  0.2369 -0.5231
   81MOL0     C10809   0.003   6.687   3.833  0.0776 -0.2208 -0.0133
   81MOL0     C10810  -0.114   6.780   3.826  0.0922 -0.4299 -0.4511
   81MOL0     C10811  -0.179   6.768   3.964 -1.4859  0.2025  0.0439
   81MOL0     C10812  -0.284   6.883   3.983 -0.1934 -0.2334  0.6291
   81MOL0     C10813  -0.232   7.012   4.059 -0.0662  0.7926 -0.4998
   81MOL0     C10814  -0.340   7.113   4.090 -0.2949 -0.8846  0.4601
   81MOL0     C10815  -0.457   7.056   4.173  0.0323 -0.0410  0.7967
   81MOL0     C10816  -0.548   7.163   4.236 -0.5189 -0.2682  0.3959
   81MOL0     N10817  -0.647   7.091   4.312 -0.0677 -0.1945  0.1285
   81MOL0     C10818  -0.753   7.027   4.255  0.0176 -0.5871 -0.2863
   81MOL0     C10819  -0.818   6.970   4.363 -0.4810 -0.5983  0.9851
   81MOL0     C10820  -0.934   6.879   4.359  0.0373  0.5520  0.5828
   81MOL0     C10821  -0.927   6.780   4.240 -0.5231  0.4538  0.1278
   81MOL0     C10822  -1.050   6.680   4.259 -0.6373  0.2869  0.4657
   81MOL0     C10823  -1.037   6.565   4.158  0.0688 -0.4488  1.2181
   81MOL0     O10824  -1.070   6.612   4.026  0.2442  0.0210 -0.2668
   81MOL0     C10825  -1.207   6.636   4.016  0.2029 -0.9057 -0.3654
   81MOL0     C10826  -1.302   6.534   4.019  0.8819 -0.1931  0.2581
   81MOL0     C10827  -1.440   6.565   3.991 -0.3592 -0.2982  0.0087
   81MOL0     C10828  -1.537   6.448   4.003  0.2720 -0.0826  0.1130
   81MOL0     C10829  -1.476   6.698   3.970  0.9165 -0.7321  0.4590
   81MOL0     C10830  -1.618   6.736   3.957 -0.5001 -0.3479  0.0926
   81MOL0     O10831  -1.677   6.734   4.075  0.5755 -0.4154  0.4667
   81MOL0     C10832  -1.803   6.774   4.087  0.5465  0.4839 -0.5525
   81MOL0     C10833  -1.904   6.681   4.129 -0.1046 -0.3668 -0.8343
   81MOL0     C10834  -2.034   6.714   4.143  0.4518  0.3079  0.3632
   81MOL0     C10835  -2.075   6.843   4.105 -0.2146  0.5716 -0.5999
   81MOL0     O10836  -2.213   6.872   4.120 -0.3913  0.1105  0.5511
   81MOL0     C10837  -2.265   7.003   4.102  0.5630 -0.6547  0.3605
   81MOL0     C10838  -2.424   7.004   4.136 -0.4881  0.8542  0.0262
   81MOL0     C10839  -2.505   6.898   4.054  0.9587 -0.4529  0.2026
   81MOL0     C10840  -2.554   6.945   3.910 -0.5620  0.7738 -0.1262
   81MOL0     C10841  -2.667   7.045   3.914  0.2348 -0.6252 -0.0503
   81MOL0     C10842  -2.802   6.977   3.948 -0.1951 -0.3189 -0.0952
   81MOL0     C10843  -2.915   7.065   3.895 -1.4003 -0.6408 -0.2295
   81MOL0     C10844  -3.042   7.030   3.964 -0.9228 -0.5049  0.3288
   81MOL0    Cl10845  -3.184   7.152   3.946 -0.2502  0.2418 -0.2502
   81MOL0     C10846  -1.976   6.932   4.062  0.3436 -0.1394 -0.2991
   81MOL0     C10847  -1.839   6.898   4.054  0.3642 -0.4330  0.4009
   81MOL0     O10848  -1.673   6.759   3.849 -0.4773  0.0583  0.2515
   81MOL0     C10849  -1.383   6.798   3.973  0.5048 -0.5511 -0.2244
   81MOL0     C10850  -1.248   6.773   4.001 -0.5051  0.4844 -0.2449
   81MOL0     N10851  -0.758   7.011   4.480 -0.5415  0.3715 -0.6924
   81MOL0     N10852  -0.658   7.075   4.447 -0.2672  0.1068  0.4569
   81MOL0     C10853   0.173   6.443   3.883  0.3458  0.6907  0.1916
   81MOL0     C10854   0.254   6.332   3.853  0.0244 -1.1094  0.3023
   81MOL0     C10855   0.409   6.049   3.542 -0.3727 -0.0997  0.0155
   81MOL0     C10856   0.324   5.930   3.539  0.0061  0.1949 -0.9825
   81MOL0     C10857   0.333   5.842   3.434  0.3985 -0.3674  0.5317
   81MOL0     C10858   0.432   5.862   3.330 -0.3929 -0.1715  0.2766
   81MOL0     O10859   0.422   5.772   3.231  0.2604  0.4014 -0.1064
   81MOL0     C10860   0.527   5.763   3.138 -0.6885  0.0885  0.2733
   81MOL0     C10861   0.497   5.631   3.071 -0.2380 -0.2988  0.3324
   81MOL0     C10862   0.526   5.515   3.168  0.0157  0.2820  0.1938
   81MOL0     C10863   0.508   5.366   3.116 -0.4378 -0.2660 -0.3627
   81MOL0     C10864   0.570   5.342   2.985  0.7258 -1.4572  0.3115
   81MOL0     C10865   0.615   5.343   2.870  0.0620 -0.1161 -0.2562
   81MOL0     C10866   0.514   5.976   3.332  0.4347 -0.3010  0.0516
   81MOL0     C10867   0.498   6.080   3.430  0.3194 -0.5530 -0.2910
   81MOL0     H10868   0.024   6.125   3.719  0.0186 -1.2473  0.6430
   81MOL0     H10869  -0.117   6.327   3.755 -0.4230  3.1913 -1.0523
   81MOL0     H10870   0.076   6.724   3.905 -0.6990 -0.1652  0.7724
   81MOL0     H10871   0.042   6.690   3.731  0.8900  2.0032  0.3107
   81MOL0     H10872  -0.086   6.884   3.807 -0.0623  0.3039  2.7899
   81MOL0     H10873  -0.178   6.741   3.746 -0.5362 -2.0984  0.8126
   81MOL0     H10874  -0.228   6.671   3.973 -0.2093 -0.7101 -1.8705
   81MOL0     H10875  -0.107   6.777   4.045 -0.9692  1.3426 -0.5179
   81MOL0     H10876  -0.334   6.905   3.888  2.3569  0.0181 -0.7232
   81MOL0     H10877  -0.365   6.849   4.048 -1.9357  0.9338 -0.8383
   81MOL0     H10878  -0.179   6.970   4.145 -0.0307 -1.3892 -1.5003
   81MOL0     H10879  -0.168   7.057   3.982 -0.7811  1.6732 -0.5860
   81MOL0     H10880  -0.295   7.195   4.146  0.3024  0.8879 -2.4222
   81MOL0     H10881  -0.367   7.158   3.994  0.7853  0.9697  0.9760
   81MOL0     H10882  -0.516   7.008   4.094 -0.8791  0.1381  1.3472
   81MOL0     H10883  -0.416   6.981   4.242 -0.4770 -0.6543  0.4435
   81MOL0     H10884  -0.584   7.224   4.153  1.0428 -1.4061 -1.1708
   81MOL0     H10885  -0.484   7.226   4.299 -0.0396  2.4615 -2.5393
   81MOL0     H10886  -0.774   7.016   4.149  2.7283 -1.1583 -0.8220
   81MOL0     H10887  -0.931   6.823   4.453  2.0066 -0.7261 -0.1892
   81MOL0     H10888  -1.027   6.938   4.359  0.8531  1.8837  1.4522
   81MOL0     H10889  -0.826   6.738   4.238  1.5106  4.7644 -1.9451
   81MOL0     H10890  -0.951   6.837   4.150 -2.1496 -2.1609 -1.2287
   81MOL0     H10891  -1.148   6.727   4.247 -0.0431  1.0967 -1.5489
   81MOL0     H10892  -1.043   6.623   4.352 -0.9668 -3.6130 -1.6990
   81MOL0     H10893  -1.105   6.488   4.196 -1.9600  1.1975  1.1448
   81MOL0     H10894  -0.943   6.510   4.154 -1.3650 -3.0531  1.1400
   81MOL0     H10895  -1.264   6.435   4.040  2.7524  0.3905 -0.1313
   81MOL0     H10896  -1.630   6.477   3.954  0.2635 -0.9734 -0.4214
   81MOL0     H10897  -1.502   6.349   3.971  4.1527  1.2535 -0.3709
   81MOL0     H10898  -1.559   6.441   4.110 -2.0250  0.1508 -0.3047
   81MOL0     H10899  -1.875   6.580   4.155  0.7443  0.6333  2.5531
   81MOL0     H10900  -2.104   6.636   4.172 -0.6463  0.6899 -1.1400
   81MOL0     H10901  -2.205   7.073   4.160  2.1159 -2.5679  1.1643
   81MOL0     H10902  -2.254   7.027   3.996 -0.1154  2.3509  0.8783
   81MOL0     H10903  -2.435   6.982   4.243  2.2683 -3.8026 -0.3743
   81MOL0     H10904  -2.473   7.102   4.127 -0.4162  0.9329  0.4450
   81MOL0     H10905  -2.594   6.879   4.114  0.9407 -0.0901  0.2909
   81MOL0     H10906  -2.448   6.804   4.052 -0.4009 -1.3015 -0.6129
   81MOL0     H10907  -2.476   7.003   3.860 -1.7655  2.2810 -0.3516
   81MOL0     H10908  -2.581   6.863   3.844  1.1072 -0.6268  0.8529
   81MOL0     H10909  -2.676   7.095   3.818 -2.3190 -0.7711  0.0322
   81MOL0     H10910  -2.657   7.122   3.990 -1.5970 -2.3187  2.0477
   81MOL0     H10911  -2.811   6.873   3.917 -0.2326 -1.2065  2.6587
   81MOL0     H10912  -2.803   6.979   4.057  1.8299 -0.6322 -0.0344
   81MOL0     H10913  -2.916   7.052   3.787  1.3908  0.8470 -0.5512
   81MOL0     H10914  -2.889   7.171   3.903  2.0085 -1.2554 -1.2657
   81MOL0     H10915  -3.024   7.019   4.071  2.3783  1.7038  0.1548
   81MOL0     H10916  -3.077   6.937   3.919  0.5566 -0.5409 -0.8184
   81MOL0     H10917  -2.004   7.033   4.033 -0.4812 -0.5062 -0.8228
   81MOL0     H10918  -1.763   6.965   4.016  0.6915 -1.0227 -0.0004
   81MOL0     H10919  -1.409   6.903   3.979 -0.6439 -0.7618 -1.0544
   81MOL0     H10920  -1.172   6.850   3.995 -2.2935  2.2490 -1.2347
   81MOL0     H10921   0.217   6.523   3.943 -1.7137  1.5188  0.6904
   81MOL0     H10922   0.361   6.334   3.867  0.1034  0.6440 -0.3107
   81MOL0     H10923   0.248   5.912   3.613  1.6074  1.0501  0.9517
   81MOL0     H10924   0.274   5.752   3.420  1.1577 -0.6182 -1.2962
   81MOL0     H10925   0.523   5.838   3.058  0.0225  0.0840  0.2301
   81MOL0     H10926   0.622   5.759   3.191 -0.9693 -0.8106  0.7324
   81MOL0     H10927   0.562   5.620   2.984 -0.2390 -1.1104  0.4246
   81MOL0     H10928   0.396   5.618   3.031  0.7463  0.6170 -2.7912
   81MOL0     H10929   0.455   5.526   3.251 -0.2146  1.4537 -0.1403
   81MOL0     H10930   0.632   5.518   3.195 -0.4152  0.5054  1.9539
   81MOL0     H10931   0.401   5.341   3.114 -1.2435  2.8784 -1.4911
   81MOL0     H10932   0.560   5.299   3.186 -0.1839  0.4160  0.1085
   81MOL0     H10933   0.665   5.342   2.776  1.7551  1.9570  0.5591
   81MOL0     H10934   0.585   5.983   3.250  2.5090 -3.1123  1.4100
   81MOL0     H10935   0.557   6.171   3.426 -1.7576  0.8485 -2.3052
   82MOL0     O10936   8.559   1.732   7.700  1.0159 -0.4479  0.7651
   82MOL0     C10937   8.590   1.853   7.672  0.1641 -0.2819 -0.1079
   82MOL0     O10938   8.521   1.941   7.591 -0.1362  0.1506 -0.3604
   82MOL0     C10939   8.400   1.899   7.552  0.3611 -0.2511  0.5620
   82MOL0     C10940   8.400   1.812   7.440  0.2367  0.3312 -0.3865
   82MOL0     C10941   8.278   1.763   7.379 -0.3525 -0.3438 -0.9277
   82MOL0     C10942   8.156   1.801   7.439 -0.3540  0.3719 -0.4315
   82MOL0     O10943   8.032   1.758   7.395 -0.1599  0.8099  0.1375
   82MOL0     C10944   8.022   1.655   7.290  0.0775  0.3698 -0.2315
   82MOL0     C10945   7.883   1.641   7.230  0.5343  0.1214  0.4725
   82MOL0     C10946   7.874   1.561   7.103 -0.3775 -0.4104 -0.1454
   82MOL0     C10947   7.726   1.524   7.060  0.1829 -0.2080  0.7987
   82MOL0     C10948   7.727   1.466   6.914 -0.5788  0.2615  0.0257
   82MOL0     C10949   7.588   1.405   6.891 -0.1575  0.0409 -0.1141
   82MOL0     C10950   7.581   1.362   6.737  0.2104 -0.3181 -0.2820
   82MOL0     C10951   7.443   1.294   6.720 -0.3811  0.2304  0.7481
   82MOL0     N10952   7.336   1.395   6.719 -0.4148  0.1830  0.2416
   82MOL0     C10953   7.312   1.475   6.621 -0.6161 -1.1145 -0.1495
   82MOL0     C10954   7.191   1.523   6.647 -0.0121  0.1259 -1.2726
   82MOL0     C10955   7.112   1.602   6.542 -0.4189 -0.0971 -0.7904
   82MOL0     C10956   7.027   1.509   6.452  0.1670  0.2727  0.2098
   82MOL0     C10957   6.887   1.508   6.519 -0.1322 -0.1143  0.2495
   82MOL0     C10958   6.793   1.398   6.466 -1.0551 -0.1931 -0.3006
   82MOL0     O10959   6.658   1.431   6.501 -0.0707 -0.1749  0.5107
   82MOL0     C10960   6.562   1.331   6.481 -0.2212  0.8335 -0.5338
   82MOL0     C10961   6.434   1.370   6.494  0.8549  0.0801  0.0554
   82MOL0     C10962   6.320   1.287   6.478  0.2413  0.0658  0.7210
   82MOL0     C10963   6.188   1.342   6.507  0.4399 -0.3844 -0.3656
   82MOL0     C10964   6.339   1.160   6.426  0.1125  0.3967 -0.4902
   82MOL0     C10965   6.228   1.071   6.408 -0.1720  1.1425 -0.6093
   82MOL0     O10966   6.142   1.116   6.325 -0.3898 -0.2148 -0.2536
   82MOL0     C10967   6.019   1.050   6.320  0.2953  0.2259  0.4117
   82MOL0     C10968   5.904   1.106   6.374  0.6443  0.1028  0.7415
   82MOL0     C10969   5.773   1.050   6.369 -0.4937  0.0282 -0.1002
   82MOL0     C10970   5.766   0.928   6.305 -0.2098 -0.3349  1.1761
   82MOL0     O10971   5.645   0.874   6.301  0.0518 -0.4741 -0.2314
   82MOL0     C10972   5.646   0.729   6.286 -0.5878 -0.5450 -0.1564
   82MOL0     C10973   5.510   0.676   6.325  1.0049  0.2838  0.3052
   82MOL0     C10974   5.489   0.541   6.270 -0.0674  0.4660  0.4094
   82MOL0     C10975   5.346   0.485   6.312 -0.8720  0.1440  0.9808
   82MOL0     C10976   5.351   0.332   6.313  1.2036 -0.4562  0.6902
   82MOL0     C10977   5.387   0.274   6.175  0.1976 -0.0213  0.7589
   82MOL0     C10978   5.373   0.126   6.169 -0.6931 -0.4649 -0.0974
   82MOL0     C10979   5.379   0.069   6.025  0.8467 -0.3925  0.0315
   82MOL0    Cl10980   5.541   0.071   5.961 -0.2918 -0.3935  0.0586
   82MOL0     C10981   5.892   0.866   6.254 -0.0397  0.4636 -0.2952
   82MOL0     C10982   6.016   0.927   6.259 -0.2954  0.4307 -0.9481
   82MOL0     O10983   6.225   0.964   6.471 -0.3303 -0.1082  0.2343
   82MOL0     C10984   6.475   1.111   6.423  0.0570 -0.2228 -0.2822
   82MOL0     C10985   6.583   1.202   6.442 -0.0989  1.0802 -0.3361
   82MOL0     N10986   7.155   1.490   6.778  0.4752 -0.0788  0.6342
   82MOL0     N10987   7.239   1.402   6.813  0.5884 -0.0047  0.5123
   82MOL0     C10988   8.160   1.890   7.551  1.0591 -0.4840  0.0434
   82MOL0     C10989   8.280   1.937   7.608  0.9136 -0.2469  0.3404
   82MOL0     C10990   8.728   1.895   7.695  0.3111 -0.6015 -0.2710
   82MOL0     C10991   8.757   2.033   7.673  0.2347  0.4390 -0.7930
   82MOL0     C10992   8.890   2.067   7.699 -0.1125 -0.8056  0.9633
   82MOL0     C10993   8.992   1.979   7.738 -0.2320  0.0558 -0.1205
   82MOL0     O10994   9.111   2.046   7.746 -0.1263  0.1796  0.5885
   82MOL0     C10995   9.220   1.971   7.709 -0.0909 -0.0678  0.8259
   82MOL0     C10996   9.341   2.071   7.702  0.7910  0.6022 -0.0358
   82MOL0     C10997   9.390   2.105   7.846  0.9276 -0.5869  0.1565
   82MOL0     C10998   9.282   2.180   7.937  0.0258 -0.5050 -0.4871
   82MOL0     C10999   9.343   2.249   8.051 -0.2455  0.3670 -0.0648
   82MOL0     C11000   9.394   2.287   8.155 -1.0708  0.1178 -0.7789
   82MOL0     C11001   8.961   1.841   7.752 -0.5832 -0.2345 -1.2694
   82MOL0     C11002   8.830   1.802   7.728 -0.5837 -0.7055  0.5997
   82MOL0     H11003   8.500   1.784   7.409 -0.6396 -1.8756 -1.4386
   82MOL0     H11004   8.274   1.695   7.295 -4.5288  2.1457 -3.0906
   82MOL0     H11005   8.078   1.709   7.213 -0.8870  2.5397  0.5370
   82MOL0     H11006   8.051   1.551   7.313 -5.8111 -1.8013 -1.0181
   82MOL0     H11007   7.814   1.610   7.309  0.5446  0.0335  0.4469
   82MOL0     H11008   7.856   1.744   7.204 -0.0822  0.0845  0.9675
   82MOL0     H11009   7.931   1.618   7.029  1.3672 -1.1944  0.5489
   82MOL0     H11010   7.935   1.471   7.101 -0.1915 -0.3417  1.3201
   82MOL0     H11011   7.675   1.459   7.132 -2.6066  1.7503  0.7620
   82MOL0     H11012   7.663   1.613   7.065 -0.2087 -0.5545  2.8491
   82MOL0     H11013   7.760   1.540   6.841  0.0702 -0.7276 -0.6978
   82MOL0     H11014   7.808   1.394   6.905 -1.1216 -0.1929 -1.4647
   82MOL0     H11015   7.569   1.325   6.963 -2.0525  2.6590  2.5142
   82MOL0     H11016   7.513   1.477   6.924  2.3991  2.6888  0.3446
   82MOL0     H11017   7.576   1.450   6.672 -2.7348 -1.0491 -1.2384
   82MOL0     H11018   7.666   1.298   6.713  1.3218  0.8110  0.4993
   82MOL0     H11019   7.420   1.233   6.808 -2.4484  1.8757  1.4353
   82MOL0     H11020   7.449   1.229   6.633  1.6242  0.8575  0.3783
   82MOL0     H11021   7.362   1.473   6.525 -0.2925 -2.4816  0.0246
   82MOL0     H11022   7.065   1.677   6.608  1.2075 -1.0734  1.6286
   82MOL0     H11023   7.183   1.646   6.472  1.5350 -1.4178  0.2778
   82MOL0     H11024   7.066   1.407   6.461 -1.4635 -0.6156 -1.9567
   82MOL0     H11025   7.024   1.547   6.350  3.5116 -0.2748 -0.2014
   82MOL0     H11026   6.845   1.607   6.498 -0.4997 -1.1542 -5.2831
   82MOL0     H11027   6.915   1.490   6.623  1.3233  1.5641  0.1903
   82MOL0     H11028   6.838   1.303   6.495 -1.6522 -0.0268  1.2712
   82MOL0     H11029   6.800   1.411   6.358  1.9318  1.2903 -0.0251
   82MOL0     H11030   6.418   1.475   6.517 -2.7600  0.0826 -1.8427
   82MOL0     H11031   6.207   1.400   6.599 -2.2274 -0.0457  0.0574
   82MOL0     H11032   6.150   1.404   6.425 -3.1683 -0.9268  0.7105
   82MOL0     H11033   6.118   1.263   6.533  1.5384 -1.3465 -0.2729
   82MOL0     H11034   5.911   1.206   6.416  1.5412 -0.3100  1.6085
   82MOL0     H11035   5.693   1.100   6.423 -0.7780  0.1791 -0.6579
   82MOL0     H11036   5.662   0.696   6.183 -0.2645 -1.3640  0.1446
   82MOL0     H11037   5.725   0.688   6.350 -1.3060  0.0992  1.1708
   82MOL0     H11038   5.508   0.679   6.434 -0.9279  1.8446  0.2639
   82MOL0     H11039   5.428   0.740   6.293  0.0963 -0.5263  0.9611
   82MOL0     H11040   5.568   0.473   6.303  1.7293  0.5304 -3.2658
   82MOL0     H11041   5.488   0.559   6.162  0.2530 -1.7018  0.0120
   82MOL0     H11042   5.304   0.526   6.405 -0.3939  2.9537  0.0458
   82MOL0     H11043   5.271   0.506   6.235  2.5283  2.1626 -2.0897
   82MOL0     H11044   5.258   0.294   6.358  0.5389 -0.6838 -0.8090
   82MOL0     H11045   5.428   0.298   6.383  0.4772 -2.5716  0.5574
   82MOL0     H11046   5.312   0.314   6.106  0.7166  0.1663  0.2949
   82MOL0     H11047   5.489   0.302   6.145 -0.5000  2.5521  0.5722
   82MOL0     H11048   5.279   0.092   6.214 -0.8139  2.8490  2.5285
   82MOL0     H11049   5.454   0.083   6.229 -1.2719  0.4877  1.4296
   82MOL0     H11050   5.310   0.128   5.966  1.4773  0.8776  0.5266
   82MOL0     H11051   5.354  -0.037   6.019  0.7784 -0.3116 -1.2813
   82MOL0     H11052   5.894   0.777   6.193 -0.1655  1.5161 -1.9091
   82MOL0     H11053   6.102   0.876   6.218  1.2915  0.4403  2.1123
   82MOL0     H11054   6.498   1.015   6.378 -3.0570 -1.7818  1.1235
   82MOL0     H11055   6.684   1.163   6.443 -0.8173 -0.8736  0.7135
   82MOL0     H11056   8.076   1.921   7.611  1.2896 -1.0357  0.6600
   82MOL0     H11057   8.288   2.004   7.694  2.1989  1.2972 -0.9278
   82MOL0     H11058   8.685   2.114   7.662  3.0057  3.4202  1.2175
   82MOL0     H11059   8.923   2.170   7.690 -2.9369  0.0818 -0.6147
   82MOL0     H11060   9.251   1.890   7.775  2.3869 -1.3787 -1.7288
   82MOL0     H11061   9.210   1.941   7.604 -1.7898 -2.6372  1.6254
   82MOL0     H11062   9.304   2.161   7.652 -3.5461 -0.2556  1.2322
   82MOL0     H11063   9.417   2.035   7.632 -0.9378  0.1113 -1.7740
   82MOL0     H11064   9.483   2.163   7.837  0.7817 -0.4148 -0.2789
   82MOL0     H11065   9.417   2.016   7.903  2.5896  0.7991  1.6585
   82MOL0     H11066   9.215   2.105   7.980 -0.1293 -0.0610  0.0476
   82MOL0     H11067   9.234   2.262   7.883  2.8962  0.6164 -1.5288
   82MOL0     H11068   9.444   2.294   8.250  0.1355  0.9329 -1.4371
   82MOL0     H11069   9.037   1.768   7.779 -2.6379 -1.0217  3.3532
   82MOL0     H11070   8.814   1.695   7.736 -0.8953 -0.7471 -0.4466
   83MOL0     O11071  10.464   2.371  10.162  0.0311  0.6107  0.2091
   83MOL0     C11072  10.572   2.340  10.218  0.4137 -0.1472 -0.0684
   83MOL0     O11073  10.588   2.250  10.308  0.3783  0.5104  0.2293
   83MOL0     C11074  10.478   2.190  10.371 -0.5076  0.0945  0.2263
   83MOL0     C11075  10.373   2.130  10.308 -0.3565  0.8413 -0.9041
   83MOL0     C11076  10.274   2.063  10.388 -0.5905 -0.1568 -0.1073
   83MOL0     C11077  10.277   2.070  10.532 -0.3052 -0.4709  0.0834
   83MOL0     O11078  10.185   2.026  10.620 -0.1512  0.0009 -0.4353
   83MOL0     C11079  10.086   1.935  10.559 -0.1088 -0.1593  0.1187
   83MOL0     C11080   9.986   1.896  10.665  0.0355 -0.4886  0.3154
   83MOL0     C11081   9.864   1.836  10.595 -1.8668 -0.1707  0.5550
   83MOL0     C11082   9.761   1.816  10.695 -0.4396 -0.8345 -0.4842
   83MOL0     C11083   9.640   1.748  10.622 -0.3536 -0.3041 -0.4595
   83MOL0     C11084   9.529   1.701  10.719  0.4052  0.4533  0.1655
   83MOL0     C11085   9.403   1.639  10.653 -0.3157 -0.1708  1.1501
   83MOL0     C11086   9.331   1.526  10.729  0.1318 -0.0516  0.4872
   83MOL0     N11087   9.186   1.524  10.715  0.0108 -0.1749 -0.0313
   83MOL0     C11088   9.104   1.482  10.815 -0.2621 -0.9849  0.1686
   83MOL0     C11089   8.988   1.500  10.768  0.8805  0.1862  0.0046
   83MOL0     C11090   8.856   1.501  10.850 -0.8171  0.1157 -1.5799
   83MOL0     C11091   8.795   1.363  10.832 -0.5914  0.4286  0.1171
   83MOL0     C11092   8.723   1.343  10.697  0.0890 -0.7795  0.1618
   83MOL0     C11093   8.589   1.263  10.717  0.0332 -0.5461  0.4193
   83MOL0     O11094   8.499   1.343  10.781  0.2600  0.0182 -0.3610
   83MOL0     C11095   8.377   1.289  10.812 -0.8513  0.5948  0.0674
   83MOL0     C11096   8.350   1.238  10.942  0.1099 -0.7251  0.1107
   83MOL0     C11097   8.217   1.211  10.976 -0.0196  0.2072 -0.0104
   83MOL0     C11098   8.187   1.213  11.129  0.1509  0.3932 -0.8859
   83MOL0     C11099   8.118   1.219  10.879 -0.3411  0.4816  0.4526
   83MOL0     C11100   7.978   1.177  10.904 -0.1319 -0.5966 -0.3298
   83MOL0     O11101   7.884   1.215  10.801  0.5050 -0.1479  0.8669
   83MOL0     C11102   7.758   1.156  10.812 -0.9152  0.3097  0.5493
   83MOL0     C11103   7.660   1.236  10.875 -0.5013  0.1250  0.6787
   83MOL0     C11104   7.532   1.177  10.905 -0.1209  0.0956 -0.0647
   83MOL0     C11105   7.516   1.036  10.890  0.2896  0.0358  0.6322
   83MOL0     O11106   7.385   0.990  10.907 -0.5799 -0.4723 -0.0333
   83MOL0     C11107   7.347   0.853  10.868 -0.1368  0.7858 -0.4749
   83MOL0     C11108   7.195   0.839  10.885  0.0047  1.0745 -0.4213
   83MOL0     C11109   7.116   0.937  10.796 -0.3677 -1.2080  0.7837
   83MOL0     C11110   6.969   0.902  10.765  0.4372  0.4716 -1.1781
   83MOL0     C11111   6.902   1.004  10.663  0.2305  0.4332  0.7863
   83MOL0     C11112   6.791   0.944  10.575 -0.4071  0.1293  0.1418
   83MOL0     C11113   6.713   1.060  10.516  0.3464 -0.1565  0.6869
   83MOL0     C11114   6.586   1.010  10.446  0.2038 -0.3045 -0.5068
   83MOL0    Cl11115   6.472   1.147  10.393  0.3358 -0.1456 -0.3032
   83MOL0     C11116   7.615   0.962  10.823  0.1442 -0.7791 -0.3492
   83MOL0     C11117   7.739   1.024  10.793 -0.9208  0.3469  0.3570
   83MOL0     O11118   7.948   1.112  10.999  0.2926 -0.3032 -0.0992
   83MOL0     C11119   8.148   1.259  10.745 -0.9151 -0.2066  0.3130
   83MOL0     C11120   8.274   1.302  10.717 -1.2642  0.1383 -0.6859
   83MOL0     N11121   8.991   1.549  10.640 -0.6237  0.2497 -0.1920
   83MOL0     N11122   9.113   1.548  10.604  0.7583  0.6775  0.1224
   83MOL0     C11123  10.383   2.129  10.590  0.1494 -0.2130  0.4091
   83MOL0     C11124  10.482   2.198  10.511 -1.0096 -0.3683  0.5293
   83MOL0     C11125  10.690   2.435  10.190 -0.2939  0.1876 -0.1282
   83MOL0     C11126  10.798   2.429  10.274 -0.1268  0.3618 -0.3065
   83MOL0     C11127  10.907   2.518  10.267  0.0966 -0.2616  0.3323
   83MOL0     C11128  10.920   2.606  10.165 -0.4120  0.1984 -0.2639
   83MOL0     O11129  11.030   2.684  10.162 -0.4677  0.0445 -0.0075
   83MOL0     C11130  11.083   2.708  10.033 -0.4322 -0.5600  0.5963
   83MOL0     C11131  11.231   2.705  10.065  0.2685  0.2517  1.1298
   83MOL0     C11132  11.275   2.841  10.120  0.2384  1.0131  0.1867
   83MOL0     C11133  11.379   2.805  10.225 -0.1918 -0.9292  0.7770
   83MOL0     C11134  11.498   2.733  10.177 -0.2073 -0.5461 -0.2922
   83MOL0     C11135  11.598   2.682  10.145  0.3778 -0.5128  1.2694
   83MOL0     C11136  10.818   2.615  10.072  0.0368 -0.0734  0.2021
   83MOL0     C11137  10.704   2.533  10.084  0.2394  0.3877 -1.1284
   83MOL0     H11138  10.380   2.129  10.200 -1.4585 -1.5383 -1.0079
   83MOL0     H11139  10.189   2.024  10.332 -0.9936  2.1498 -1.2115
   83MOL0     H11140  10.039   1.983  10.473  1.7454  0.0860 -0.8142
   83MOL0     H11141  10.142   1.847  10.526  0.4172  0.5013 -0.8242
   83MOL0     H11142  10.026   1.821  10.733  2.4640  1.4851  1.2120
   83MOL0     H11143   9.951   1.992  10.705 -0.4620  0.1523 -1.5558
   83MOL0     H11144   9.823   1.893  10.511 -1.7905 -1.6348 -0.5168
   83MOL0     H11145   9.887   1.739  10.551 -1.3498  0.4179 -0.5236
   83MOL0     H11146   9.797   1.749  10.774  1.8616  0.1343 -0.6203
   83MOL0     H11147   9.732   1.917  10.723  2.8105 -0.3392  1.6866
   83MOL0     H11148   9.604   1.823  10.551 -0.5504 -2.1252 -2.3520
   83MOL0     H11149   9.668   1.656  10.570 -1.7162 -0.9364 -0.1070
   83MOL0     H11150   9.572   1.633  10.793  0.7531 -0.7958 -1.1587
   83MOL0     H11151   9.502   1.789  10.778  0.7309  0.0403  0.9464
   83MOL0     H11152   9.324   1.711  10.629  0.2582  0.3319  0.7253
   83MOL0     H11153   9.440   1.598  10.559  2.2197 -0.4132  2.1688
   83MOL0     H11154   9.366   1.533  10.832 -3.6597 -0.3547  1.9747
   83MOL0     H11155   9.386   1.436  10.703 -0.3539 -0.1282 -0.3089
   83MOL0     H11156   9.136   1.456  10.916  1.4213 -0.0835 -0.0909
   83MOL0     H11157   8.883   1.519  10.955 -0.6539 -0.9736 -1.4215
   83MOL0     H11158   8.803   1.589  10.811 -1.5943  1.7231  2.5616
   83MOL0     H11159   8.735   1.332  10.917  0.6401  1.7530  1.5260
   83MOL0     H11160   8.884   1.299  10.826  0.5824  2.0230 -0.1133
   83MOL0     H11161   8.789   1.293  10.625  0.8044  1.6311 -0.9694
   83MOL0     H11162   8.707   1.440  10.648 -0.1605 -0.9321 -0.0621
   83MOL0     H11163   8.608   1.182  10.789  2.2951  0.2440  0.8092
   83MOL0     H11164   8.557   1.217  10.623  1.6674 -0.2167 -0.3355
   83MOL0     H11165   8.424   1.245  11.021  0.4528 -1.8192 -0.0998
   83MOL0     H11166   8.079   1.216  11.149  0.0074 -1.9033 -1.0428
   83MOL0     H11167   8.216   1.116  11.171 -0.6977  0.2199 -0.6701
   83MOL0     H11168   8.234   1.300  11.176  1.9889 -0.1524 -1.6324
   83MOL0     H11169   7.658   1.343  10.895  1.6827  0.3263  0.0081
   83MOL0     H11170   7.456   1.245  10.942 -0.9199  0.1934 -1.7866
   83MOL0     H11171   7.375   0.846  10.762  2.6536  2.5178  0.0232
   83MOL0     H11172   7.393   0.780  10.935  0.0282 -0.3749 -1.8159
   83MOL0     H11173   7.166   0.738  10.855  0.7631  1.5151 -2.8573
   83MOL0     H11174   7.164   0.855  10.989 -0.1963 -0.3535 -0.2467
   83MOL0     H11175   7.159   0.954  10.697  1.5937 -1.2084  1.5973
   83MOL0     H11176   7.114   1.034  10.846  3.9697 -0.4934 -0.0301
   83MOL0     H11177   6.952   0.811  10.707 -2.2529 -0.6457  1.1409
   83MOL0     H11178   6.920   0.881  10.860  2.8516 -2.4405 -0.4107
   83MOL0     H11179   6.978   1.055  10.604  1.0684  0.7308  2.0937
   83MOL0     H11180   6.858   1.086  10.722  0.4700  0.8187  0.4373
   83MOL0     H11181   6.826   0.883  10.491 -2.9598 -2.0673  0.5402
   83MOL0     H11182   6.724   0.873  10.624 -0.2756 -1.9826 -2.4663
   83MOL0     H11183   6.771   1.109  10.437  0.7176 -1.6747 -0.0165
   83MOL0     H11184   6.682   1.131  10.594  0.2210  1.5396 -0.8165
   83MOL0     H11185   6.533   0.937  10.508  2.5175 -1.2476  0.4677
   83MOL0     H11186   6.614   0.966  10.350 -1.6744 -1.5010 -0.5621
   83MOL0     H11187   7.606   0.860  10.788 -1.2325 -0.1641 -1.9081
   83MOL0     H11188   7.810   0.967  10.734 -3.2302  0.1515 -2.4719
   83MOL0     H11189   8.070   1.259  10.670 -1.6586  0.4085  1.0714
   83MOL0     H11190   8.290   1.328  10.613 -0.2363  0.6065 -0.4218
   83MOL0     H11191  10.388   2.126  10.698 -0.4819  2.2266  0.5691
   83MOL0     H11192  10.568   2.247  10.555 -0.4239 -1.3414  0.4960
   83MOL0     H11193  10.792   2.358  10.356 -0.1060 -1.5465 -1.8781
   83MOL0     H11194  10.975   2.515  10.352 -0.7031 -0.6944  0.9707
   83MOL0     H11195  11.072   2.621   9.967 -0.2038 -0.2149  0.0964
   83MOL0     H11196  11.045   2.796   9.980 -2.1789 -0.6868  1.5691
   83MOL0     H11197  11.286   2.676   9.975 -3.8881  1.0999 -2.0222
   83MOL0     H11198  11.247   2.625  10.137 -0.0526  0.5747  1.5614
   83MOL0     H11199  11.191   2.900  10.157  0.0923  1.2882 -0.5623
   83MOL0     H11200  11.322   2.906  10.045 -0.4033  2.4348  0.9760
   83MOL0     H11201  11.332   2.743  10.302 -0.3411  1.2832  2.5555
   83MOL0     H11202  11.403   2.898  10.276 -2.1784  0.9400 -1.4017
   83MOL0     H11203  11.695   2.651  10.112 -0.2350 -2.4428  1.1640
   83MOL0     H11204  10.809   2.688   9.992 -2.8641 -1.8050 -1.2304
   83MOL0     H11205  10.621   2.546  10.015 -2.4168 -3.6852  0.8735
   84MOL0     O11206   5.669   1.369   9.815 -0.2412 -0.1096 -0.7462
   84MOL0     C11207   5.570   1.398   9.884  0.1543 -0.5717 -0.9862
   84MOL0     O11208   5.567   1.414  10.022 -0.3379 -0.7401  0.5500
   84MOL0     C11209   5.691   1.436  10.080  0.5542  0.8865  0.6509
   84MOL0     C11210   5.792   1.513  10.030 -0.1885 -0.4967  0.0851
   84MOL0     C11211   5.914   1.522  10.103 -1.0257  1.1459  0.9103
   84MOL0     C11212   5.939   1.437  10.213  0.4003  0.5543  0.0455
   84MOL0     O11213   6.060   1.422  10.270 -0.0296  0.4975 -0.9359
   84MOL0     C11214   6.141   1.323  10.214  0.1979  0.2089 -0.5212
   84MOL0     C11215   6.265   1.382  10.160  0.0404  0.2844  0.4823
   84MOL0     C11216   6.338   1.475  10.246 -0.5177 -0.0612 -0.0183
   84MOL0     C11217   6.489   1.474  10.215  0.0430  0.0796  0.2562
   84MOL0     C11218   6.571   1.569  10.303 -0.0678  0.0378 -0.2701
   84MOL0     C11219   6.583   1.518  10.450  0.2340 -0.0788 -0.0016
   84MOL0     C11220   6.701   1.588  10.522 -0.3624 -0.2179  0.3300
   84MOL0     C11221   6.667   1.609  10.676  0.4147  0.7157  0.2404
   84MOL0     N11222   6.584   1.719  10.696 -0.7213 -0.5133  0.1244
   84MOL0     C11223   6.625   1.850  10.688  0.4137 -0.4454 -0.7314
   84MOL0     C11224   6.508   1.914  10.712  0.3616  0.6855  1.2238
   84MOL0     C11225   6.496   2.065  10.702 -0.2633 -0.5596 -0.3591
   84MOL0     C11226   6.345   2.103  10.712  1.1712  0.3354 -0.0143
   84MOL0     C11227   6.266   2.080  10.580 -1.0090 -0.0839 -0.2752
   84MOL0     C11228   6.113   2.098  10.603 -0.3178 -0.1749 -1.1420
   84MOL0     O11229   6.059   2.101  10.470 -0.0218  0.4442 -0.1998
   84MOL0     C11230   5.919   2.109  10.461  0.4981 -0.2150  0.3752
   84MOL0     C11231   5.822   2.087  10.558 -0.3546 -0.2869  1.2657
   84MOL0     C11232   5.686   2.118  10.527 -0.0437 -0.3591  0.6739
   84MOL0     C11233   5.592   2.082  10.644  0.4701 -0.0580  0.3467
   84MOL0     C11234   5.651   2.177  10.405  0.2390 -0.1191  0.6475
   84MOL0     C11235   5.516   2.194  10.350  0.1410  0.3582 -0.0615
   84MOL0     O11236   5.513   2.257  10.232  0.2547  0.6696 -0.2718
   84MOL0     C11237   5.403   2.253  10.146 -0.7630  0.1772  1.0049
   84MOL0     C11238   5.411   2.192  10.016  0.2380  0.0369 -0.1538
   84MOL0     C11239   5.298   2.186   9.946 -0.7548 -0.0394  0.3132
   84MOL0     C11240   5.185   2.264   9.967  0.0798 -0.5671  0.7901
   84MOL0     O11241   5.078   2.274   9.884 -0.6179 -0.0516  0.2722
   84MOL0     C11242   5.013   2.392   9.868 -0.0779  0.0034  0.2471
   84MOL0     C11243   4.877   2.367   9.799 -0.5001  0.4721 -0.0885
   84MOL0     C11244   4.881   2.352   9.647 -0.8069  1.2345 -0.0545
   84MOL0     C11245   4.922   2.480   9.572  0.6619  0.7316 -0.7221
   84MOL0     C11246   4.914   2.467   9.421 -0.2760 -1.1516  0.2769
   84MOL0     C11247   4.786   2.522   9.343 -0.9962  0.9367  0.3942
   84MOL0     C11248   4.798   2.497   9.196  0.5037 -0.2094  0.5060
   84MOL0     C11249   4.673   2.552   9.115  0.5077  1.4917 -0.2310
   84MOL0    Cl11250   4.526   2.453   9.167 -0.1104  0.3583 -0.2593
   84MOL0     C11251   5.183   2.327  10.091 -1.1895 -0.0614 -0.0707
   84MOL0     C11252   5.286   2.320  10.174  0.6986  0.6050  0.0438
   84MOL0     O11253   5.421   2.145  10.406  0.5337 -0.5329  0.1944
   84MOL0     C11254   5.761   2.191  10.315 -0.0302 -0.4637  1.2801
   84MOL0     C11255   5.890   2.165  10.343  0.4584  0.3631 -0.6150
   84MOL0     N11256   6.404   1.827  10.736  0.2123 -0.6601  0.5074
   84MOL0     N11257   6.457   1.706  10.729  0.5509  0.2453  0.5087
   84MOL0     C11258   5.829   1.363  10.264 -0.6830  0.2712 -0.2901
   84MOL0     C11259   5.704   1.362  10.197  0.8158  0.0082  0.0580
   84MOL0     C11260   5.438   1.402   9.816 -0.3449 -0.0311  0.1946
   84MOL0     C11261   5.428   1.385   9.678  0.1802 -0.1402  0.7993
   84MOL0     C11262   5.308   1.363   9.615 -0.0516 -0.3751 -0.0002
   84MOL0     C11263   5.189   1.368   9.686 -0.2479  0.3497 -0.4183
   84MOL0     O11264   5.068   1.352   9.618  0.1464 -0.0439 -0.0168
   84MOL0     C11265   4.944   1.391   9.689  0.2376  0.0015 -0.3680
   84MOL0     C11266   4.831   1.430   9.594 -0.3176  0.5362  0.1689
   84MOL0     C11267   4.866   1.553   9.514  0.1198  0.5724 -0.4643
   84MOL0     C11268   4.733   1.627   9.484 -0.1178 -0.0883 -0.3082
   84MOL0     C11269   4.676   1.555   9.361  0.0910  0.5409  0.7157
   84MOL0     C11270   4.618   1.490   9.278  0.3882  1.7618 -0.1026
   84MOL0     C11271   5.197   1.396   9.828  0.1896  0.4389  0.3541
   84MOL0     C11272   5.318   1.402   9.893 -0.3919  0.0073  0.7330
   84MOL0     H11273   5.775   1.581   9.947  0.9079 -1.1599 -0.7054
   84MOL0     H11274   5.991   1.587  10.064 -1.8260 -0.0379 -3.1639
   84MOL0     H11275   6.166   1.260  10.300 -2.6468 -0.6136 -0.2029
   84MOL0     H11276   6.087   1.260  10.143  0.7421 -1.3597  0.4078
   84MOL0     H11277   6.317   1.293  10.123 -1.0259  0.4440 -1.5801
   84MOL0     H11278   6.233   1.442  10.074 -0.5731 -2.6872 -1.5336
   84MOL0     H11279   6.289   1.573  10.245 -1.0785 -0.3204  1.0233
   84MOL0     H11280   6.317   1.448  10.350 -0.6160 -0.5541 -0.1624
   84MOL0     H11281   6.527   1.373  10.231 -0.0751  0.4703  3.7052
   84MOL0     H11282   6.506   1.493  10.108 -1.0759 -0.4952 -0.0403
   84MOL0     H11283   6.672   1.567  10.263  0.1338 -0.2478  0.2403
   84MOL0     H11284   6.524   1.667  10.319 -3.0395 -1.4270  0.8133
   84MOL0     H11285   6.486   1.531  10.501  0.7812  1.6223  0.6950
   84MOL0     H11286   6.612   1.413  10.441  2.5509  0.7029 -3.2049
   84MOL0     H11287   6.792   1.528  10.509 -0.6088 -0.8204  1.2781
   84MOL0     H11288   6.730   1.689  10.494  4.6460 -0.8843  2.1163
   84MOL0     H11289   6.760   1.639  10.725  1.6066 -0.8273 -0.9763
   84MOL0     H11290   6.634   1.515  10.722  0.4625  0.9536  0.7649
   84MOL0     H11291   6.718   1.901  10.666  0.4899  1.1514  2.6238
   84MOL0     H11292   6.546   2.099  10.793 -1.2131  2.8713 -0.9691
   84MOL0     H11293   6.552   2.105  10.617  2.2231  0.5246  1.6646
   84MOL0     H11294   6.351   2.208  10.742  0.5355 -0.5645  3.7654
   84MOL0     H11295   6.308   2.060  10.805 -1.1025 -0.1773 -1.0671
   84MOL0     H11296   6.292   1.983  10.535 -0.1365  1.6645 -3.8774
   84MOL0     H11297   6.298   2.154  10.506  3.3808  0.3803  1.7725
   84MOL0     H11298   6.100   2.188  10.664 -0.8243 -0.5805 -0.6413
   84MOL0     H11299   6.068   2.022  10.667  0.9324  1.0195  1.2848
   84MOL0     H11300   5.856   2.033  10.646  0.3333 -0.1898  1.0643
   84MOL0     H11301   5.628   2.010  10.717  0.4360  1.3066  1.7662
   84MOL0     H11302   5.549   2.170  10.692 -1.0845 -1.5103  1.7441
   84MOL0     H11303   5.510   2.026  10.597 -0.8804  2.5202 -0.5752
   84MOL0     H11304   5.495   2.130   9.988 -1.3558 -1.9449 -0.8036
   84MOL0     H11305   5.316   2.129   9.856  1.4143 -0.3592  0.8850
   84MOL0     H11306   4.991   2.444   9.962  2.9632  0.4872  0.7999
   84MOL0     H11307   5.082   2.463   9.821  0.7506 -0.3958  0.8328
   84MOL0     H11308   4.833   2.277   9.843  1.0179  0.0973  0.7677
   84MOL0     H11309   4.817   2.454   9.826 -0.8396 -0.1113  1.1140
   84MOL0     H11310   4.785   2.313   9.609 -0.8092  1.0335  0.1539
   84MOL0     H11311   4.955   2.276   9.619 -0.8581  0.6853  1.2333
   84MOL0     H11312   4.859   2.565   9.600  0.3918  0.6032 -0.9322
   84MOL0     H11313   5.027   2.497   9.597  0.8485 -2.4813  1.3294
   84MOL0     H11314   4.933   2.362   9.398  3.2204 -0.6159  0.1754
   84MOL0     H11315   4.989   2.533   9.376 -0.8767 -1.4409 -1.1832
   84MOL0     H11316   4.704   2.466   9.389 -2.4564  1.3660 -1.5642
   84MOL0     H11317   4.777   2.629   9.361 -0.2107  1.0617  0.0900
   84MOL0     H11318   4.816   2.391   9.175  0.0201 -0.3100  0.5971
   84MOL0     H11319   4.888   2.553   9.168  0.2965  1.9148  3.5868
   84MOL0     H11320   4.697   2.536   9.010  1.8976 -0.0869  0.2754
   84MOL0     H11321   4.656   2.656   9.146  1.0306  1.4064  0.3704
   84MOL0     H11322   5.103   2.390  10.128 -0.1032 -1.3793  5.4180
   84MOL0     H11323   5.282   2.380  10.264 -1.1900  4.1721 -2.1604
   84MOL0     H11324   5.748   2.204  10.208  1.7760 -1.4556  0.8955
   84MOL0     H11325   5.977   2.182  10.281  1.2070 -3.4023 -0.8691
   84MOL0     H11326   5.849   1.308  10.355  2.0850  0.8033 -0.5101
   84MOL0     H11327   5.622   1.300  10.234 -0.9364  2.3038  0.2605
   84MOL0     H11328   5.519   1.381   9.618 -0.6757 -1.0394 -0.4923
   84MOL0     H11329   5.296   1.351   9.508  0.0632  0.3012 -0.0905
   84MOL0     H11330   4.910   1.301   9.740  1.5708 -0.0090  0.5747
   84MOL0     H11331   4.973   1.473   9.755  1.1251 -0.8603  0.3581
   84MOL0     H11332   4.746   1.455   9.658 -0.4545  1.5840 -0.4001
   84MOL0     H11333   4.808   1.343   9.531 -0.1964  0.4206  0.2837
   84MOL0     H11334   4.933   1.521   9.434  1.0554  0.9223  0.1701
   84MOL0     H11335   4.925   1.619   9.578  0.6344 -0.7443  0.4720
   84MOL0     H11336   4.761   1.730   9.459  0.4997  0.4388  2.2246
   84MOL0     H11337   4.676   1.637   9.576  0.3135 -1.7323  0.1717
   84MOL0     H11338   4.560   1.430   9.210  2.9812  0.3855 -1.2358
   84MOL0     H11339   5.107   1.395   9.888  0.0609 -1.1605  0.1887
   84MOL0     H11340   5.318   1.407  10.001 -0.0842 -0.5431  0.7627
   85MOL0     O11341   5.361   1.661   1.615  0.3746  0.3351 -0.2015
   85MOL0     C11342   5.437   1.692   1.524 -0.6780  0.2769  0.5828
   85MOL0     O11343   5.403   1.698   1.387 -0.4379 -0.2807 -0.0350
   85MOL0     C11344   5.292   1.634   1.340  0.3600  0.6392  1.2555
   85MOL0     C11345   5.205   1.545   1.408 -0.0395  0.3086 -0.0684
   85MOL0     C11346   5.084   1.517   1.331 -0.6817  0.1966 -0.2053
   85MOL0     C11347   5.058   1.554   1.201  0.3266 -0.2399 -0.2715
   85MOL0     O11348   4.942   1.533   1.141  0.1692  0.1381  0.4042
   85MOL0     C11349   4.837   1.451   1.204 -0.2359  0.6425 -0.4496
   85MOL0     C11350   4.708   1.433   1.115  0.1086 -0.3514 -0.1650
   85MOL0     C11351   4.597   1.369   1.187  0.6945  0.3036 -0.1043
   85MOL0     C11352   4.458   1.347   1.127 -0.8508 -0.5540 -0.1968
   85MOL0     C11353   4.371   1.257   1.206 -0.1090  0.4678  0.3492
   85MOL0     C11354   4.234   1.256   1.147  0.5145 -0.5201  1.2748
   85MOL0     C11355   4.131   1.184   1.227  0.0300  0.8450  0.5989
   85MOL0     C11356   4.166   1.043   1.278 -0.6349 -0.4273 -0.1788
   85MOL0     N11357   4.047   0.968   1.302  0.6591  0.8476 -0.1175
   85MOL0     C11358   3.996   0.937   1.430 -0.3064  0.5136 -0.4167
   85MOL0     C11359   3.875   0.894   1.407 -0.5609 -0.1398 -0.3465
   85MOL0     C11360   3.774   0.875   1.508  0.9834  0.9940  0.0669
   85MOL0     C11361   3.636   0.931   1.466 -0.3187 -0.8962  0.1834
   85MOL0     C11362   3.556   0.933   1.595  0.3212 -0.1685 -0.3133
   85MOL0     C11363   3.426   1.003   1.572  0.3106  0.1853  0.8799
   85MOL0     O11364   3.442   1.136   1.525 -0.4341  0.2851 -0.8685
   85MOL0     C11365   3.336   1.216   1.503 -0.5240 -0.4467 -0.3428
   85MOL0     C11366   3.360   1.330   1.437 -0.1151  0.3157  0.4746
   85MOL0     C11367   3.263   1.425   1.404  0.2236  0.3896 -0.3417
   85MOL0     C11368   3.307   1.538   1.317 -0.3607  1.2992 -0.7256
   85MOL0     C11369   3.123   1.396   1.432 -0.5055 -0.4739  0.1466
   85MOL0     C11370   2.999   1.471   1.384 -1.3682  0.7792  0.3792
   85MOL0     O11371   2.902   1.467   1.477  0.2235 -0.1603 -0.3389
   85MOL0     C11372   2.773   1.455   1.429  0.3057 -0.3683  0.0820
   85MOL0     C11373   2.707   1.537   1.332 -0.3103  0.1777  0.3556
   85MOL0     C11374   2.568   1.517   1.307  0.2418  0.0424  0.5842
   85MOL0     C11375   2.493   1.417   1.374  0.6800  0.1430 -0.8682
   85MOL0     O11376   2.369   1.394   1.332  0.0525  0.0463 -0.5511
   85MOL0     C11377   2.352   1.296   1.238  0.2865  0.0418  0.5344
   85MOL0     C11378   2.204   1.260   1.225  0.0474 -0.2705 -0.1174
   85MOL0     C11379   2.160   1.175   1.340 -0.6597 -0.0498 -0.5437
   85MOL0     C11380   2.017   1.125   1.330 -0.3651  0.3914 -0.1557
   85MOL0     C11381   1.950   1.077   1.469  0.3239 -0.5107 -0.4943
   85MOL0     C11382   1.810   1.030   1.436 -0.1135  0.2939 -0.6078
   85MOL0     C11383   1.707   1.014   1.553  0.1968  0.7355  1.0184
   85MOL0     C11384   1.750   0.934   1.670 -0.4461 -1.3978 -0.2572
   85MOL0    Cl11385   1.635   0.936   1.801 -0.3514  0.1228 -0.1088
   85MOL0     C11386   2.565   1.328   1.453  0.5795  0.2805 -0.5762
   85MOL0     C11387   2.699   1.343   1.487 -0.5337 -0.2529  0.5610
   85MOL0     O11388   2.997   1.523   1.271  1.1779  0.6549  0.2697
   85MOL0     C11389   3.108   1.277   1.513 -0.1243 -0.0711 -0.5591
   85MOL0     C11390   3.208   1.191   1.552 -0.4762  0.7794  0.1945
   85MOL0     N11391   3.858   0.893   1.272  0.3403  0.2776  0.7407
   85MOL0     N11392   3.959   0.925   1.206 -0.1033  0.2638 -0.5525
   85MOL0     C11393   5.145   1.641   1.138 -0.5568 -0.6780 -0.1094
   85MOL0     C11394   5.258   1.676   1.212 -1.1376 -0.3251  0.0722
   85MOL0     C11395   5.571   1.743   1.566 -1.1241 -0.3277 -0.1261
   85MOL0     C11396   5.656   1.787   1.465 -0.0180 -0.4089  0.4914
   85MOL0     C11397   5.781   1.838   1.498 -0.3583 -0.7415  0.5370
   85MOL0     C11398   5.825   1.842   1.629  0.1306  0.5508 -0.2154
   85MOL0     O11399   5.960   1.877   1.642 -0.4644 -0.2253 -0.2666
   85MOL0     C11400   5.987   1.964   1.747  0.5804 -0.3413  0.2967
   85MOL0     C11401   6.129   2.024   1.723  0.1694  0.6228 -0.0676
   85MOL0     C11402   6.252   1.938   1.758  0.7074 -0.1491 -0.9732
   85MOL0     C11403   6.289   1.836   1.654  0.6775  0.1601 -0.3840
   85MOL0     C11404   6.394   1.743   1.690 -0.4238 -0.1106 -0.5901
   85MOL0     C11405   6.478   1.666   1.714  0.0147  0.6059  0.0137
   85MOL0     C11406   5.735   1.788   1.734  0.2093  0.0827  0.4496
   85MOL0     C11407   5.606   1.750   1.699  0.2081  0.3247 -0.1150
   85MOL0     H11408   5.217   1.501   1.506 -0.8407 -0.3869 -0.2693
   85MOL0     H11409   5.016   1.451   1.382 -0.4924 -0.0264 -0.2385
   85MOL0     H11410   4.873   1.351   1.230  1.4260  0.1776 -4.0234
   85MOL0     H11411   4.798   1.507   1.290 -3.3506 -2.5327  0.4980
   85MOL0     H11412   4.681   1.527   1.065  2.5957  1.8596  2.2963
   85MOL0     H11413   4.730   1.359   1.038  0.3794  0.8321 -1.2627
   85MOL0     H11414   4.640   1.272   1.212  0.6901  0.0633 -1.0072
   85MOL0     H11415   4.577   1.439   1.270 -2.3099 -1.0645  0.4477
   85MOL0     H11416   4.408   1.444   1.126 -0.0850 -0.0705  2.3115
   85MOL0     H11417   4.468   1.313   1.023 -1.3495  1.3946 -0.9234
   85MOL0     H11418   4.400   1.151   1.207 -1.3819  0.1065  0.9268
   85MOL0     H11419   4.362   1.297   1.307 -0.0392  0.5343  0.3289
   85MOL0     H11420   4.198   1.357   1.126  0.5214 -0.6342  0.6718
   85MOL0     H11421   4.240   1.219   1.044  0.7073  2.9109 -0.0842
   85MOL0     H11422   4.091   1.252   1.304 -0.0599  0.3607  0.9899
   85MOL0     H11423   4.056   1.171   1.149  4.2247 -0.6127 -3.6258
   85MOL0     H11424   4.231   1.049   1.366 -1.7638  3.1083  0.6121
   85MOL0     H11425   4.226   0.981   1.211  1.2750  2.6994 -1.6143
   85MOL0     H11426   4.042   0.950   1.528  0.7392 -2.2085 -0.4596
   85MOL0     H11427   3.747   0.771   1.528 -0.3770  1.8489  3.5826
   85MOL0     H11428   3.816   0.915   1.602  1.8733  0.4989 -0.1063
   85MOL0     H11429   3.600   0.858   1.393  2.4489 -0.3009 -1.9746
   85MOL0     H11430   3.647   1.030   1.420 -1.0742 -0.2020  1.4510
   85MOL0     H11431   3.623   0.991   1.658  0.0459  0.7628 -0.8610
   85MOL0     H11432   3.544   0.834   1.641  0.9383  0.2310  0.7274
   85MOL0     H11433   3.378   1.004   1.671 -0.4306  0.9418  0.5226
   85MOL0     H11434   3.356   0.949   1.507  1.8296  0.5833 -1.1770
   85MOL0     H11435   3.460   1.353   1.403  0.1327  0.9447  1.5957
   85MOL0     H11436   3.311   1.506   1.213  2.8074 -0.3152 -0.2147
   85MOL0     H11437   3.247   1.629   1.327 -0.0780  1.3170  1.2191
   85MOL0     H11438   3.413   1.549   1.338 -0.0307 -0.3639 -1.3110
   85MOL0     H11439   2.766   1.613   1.282 -1.6897  1.0929  0.0351
   85MOL0     H11440   2.534   1.587   1.231  2.9497  1.8601  0.9106
   85MOL0     H11441   2.382   1.327   1.137 -0.9370 -1.9284 -0.5077
   85MOL0     H11442   2.400   1.202   1.267 -0.2449  0.2248  2.0597
   85MOL0     H11443   2.153   1.357   1.218  0.3561  0.3452  3.8266
   85MOL0     H11444   2.204   1.200   1.133 -0.1270 -1.0219  0.3579
   85MOL0     H11445   2.159   1.234   1.433 -3.3194 -1.0527  0.1564
   85MOL0     H11446   2.230   1.093   1.356  0.8181  1.7328  3.7445
   85MOL0     H11447   1.962   1.208   1.284 -1.1710  0.8075  1.4941
   85MOL0     H11448   2.016   1.044   1.257 -3.0627 -1.4522  1.7228
   85MOL0     H11449   1.964   1.163   1.535  1.1247  0.5111 -1.9193
   85MOL0     H11450   2.009   0.995   1.511  1.2641  1.2686  1.8725
   85MOL0     H11451   1.762   1.089   1.358 -0.7086  0.8437  0.1575
   85MOL0     H11452   1.828   0.932   1.391  4.3876  0.4083  0.4714
   85MOL0     H11453   1.622   0.959   1.513 -1.4151  1.7581  2.8797
   85MOL0     H11454   1.684   1.107   1.605  0.1660  1.9415 -1.0419
   85MOL0     H11455   1.851   0.967   1.698 -0.3994  0.8356 -2.6166
   85MOL0     H11456   1.770   0.830   1.645  0.0291 -1.7520  1.4957
   85MOL0     H11457   2.515   1.240   1.490  2.2550 -0.6195 -0.3828
   85MOL0     H11458   2.751   1.281   1.559 -1.1860 -1.4088  0.0748
   85MOL0     H11459   3.009   1.253   1.549 -1.2922  0.6760 -3.0433
   85MOL0     H11460   3.191   1.107   1.618  1.2607 -1.3638 -1.9304
   85MOL0     H11461   5.123   1.687   1.042  2.2260  0.1387 -0.4278
   85MOL0     H11462   5.322   1.749   1.164 -3.4172  2.5538  1.1564
   85MOL0     H11463   5.626   1.782   1.360  1.9122  1.0948 -0.1969
   85MOL0     H11464   5.846   1.856   1.413  0.1248 -4.8928 -0.1857
   85MOL0     H11465   5.913   2.044   1.740 -0.8918 -1.6415  0.5867
   85MOL0     H11466   5.985   1.911   1.843  0.4024 -3.2498 -1.1996
   85MOL0     H11467   6.126   2.113   1.787 -0.6524 -0.3791  1.3204
   85MOL0     H11468   6.138   2.056   1.618  1.0446  1.0735  0.1332
   85MOL0     H11469   6.244   1.874   1.847  4.3301 -1.9110 -1.7240
   85MOL0     H11470   6.346   1.995   1.765  1.2300 -0.8271 -2.2026
   85MOL0     H11471   6.315   1.898   1.567 -1.6498  3.2240  0.9059
   85MOL0     H11472   6.202   1.775   1.629  0.0188  0.9313  0.0014
   85MOL0     H11473   6.566   1.610   1.734 -0.0735  0.5887  0.3668
   85MOL0     H11474   5.783   1.782   1.831  0.7982 -0.4970  0.1333
   85MOL0     H11475   5.550   1.722   1.788 -0.0638  4.0250  1.0421
   86MOL0     O11476   8.592  10.305   8.939  0.5189  0.6252  0.0920
   86MOL0     C11477   8.543  10.206   8.892 -0.4518  0.4857  0.4497
   86MOL0     O11478   8.404  10.174   8.893  0.4504  0.2265 -0.1510
   86MOL0     C11479   8.313  10.254   8.956 -0.5602 -0.9375  0.1933
   86MOL0     C11480   8.336  10.345   9.058  0.5999 -0.7723  0.2133
   86MOL0     C11481   8.233  10.422   9.108  0.1694  0.9855 -0.7407
   86MOL0     C11482   8.101  10.408   9.068  0.8798 -0.1014 -0.1152
   86MOL0     O11483   8.004  10.479   9.120 -0.2218 -0.1025  0.1462
   86MOL0     C11484   7.997  10.619   9.080 -0.1593  0.1320  0.0801
   86MOL0     C11485   7.853  10.657   9.083  1.1080 -0.4446 -0.7387
   86MOL0     C11486   7.827  10.803   9.026  0.0208  0.1538  0.5631
   86MOL0     C11487   7.723  10.787   8.904  0.3834 -0.8892 -0.4112
   86MOL0     C11488   7.690  10.916   8.835 -0.3814 -0.2455 -1.1743
   86MOL0     C11489   7.599  10.905   8.713 -0.0676  0.1951  0.6147
   86MOL0     C11490   7.530  11.038   8.668 -0.3507 -0.0405 -0.5414
   86MOL0     C11491   7.639  11.144   8.640 -0.6039 -0.1400 -0.2881
   86MOL0     N11492   7.711  11.122   8.511 -0.0338 -0.1376  0.0029
   86MOL0     C11493   7.835  11.062   8.496  0.4980  0.8240  0.1074
   86MOL0     C11494   7.867  11.087   8.364  0.6000  0.4036  0.2467
   86MOL0     C11495   7.997  11.036   8.302  0.0197  0.1851 -0.2375
   86MOL0     C11496   8.113  11.121   8.351  0.1278  0.6445 -0.1799
   86MOL0     C11497   8.234  11.086   8.276 -0.1483 -0.1839  1.0061
   86MOL0     C11498   8.313  10.963   8.341 -0.4163 -0.0217 -0.4206
   86MOL0     O11499   8.437  10.934   8.282  0.4430  0.4311  0.1277
   86MOL0     C11500   8.534  10.908   8.380 -0.0731  0.3211 -0.6823
   86MOL0     C11501   8.604  10.782   8.380 -0.5985  0.5775 -1.3645
   86MOL0     C11502   8.699  10.752   8.480 -0.3067  0.5672 -0.2554
   86MOL0     C11503   8.753  10.611   8.486  0.1811  0.1390  0.0237
   86MOL0     C11504   8.749  10.858   8.562 -0.6539 -0.7205 -0.8855
   86MOL0     C11505   8.859  10.843   8.657  0.1098 -0.5186  0.5025
   86MOL0     O11506   8.867  10.947   8.752  0.6269 -0.4319  0.2455
   86MOL0     C11507   8.974  10.938   8.841 -0.3261  0.1188 -0.7026
   86MOL0     C11508   9.045  11.059   8.867 -0.7978 -0.0756  0.3500
   86MOL0     C11509   9.148  11.058   8.969 -0.2833  0.1498  0.3328
   86MOL0     C11510   9.176  10.949   9.044  0.5148  0.0630 -1.0234
   86MOL0     O11511   9.281  10.944   9.137  0.8137  0.0034 -0.1498
   86MOL0     C11512   9.405  11.014   9.106  0.1438 -0.1204  0.4342
   86MOL0     C11513   9.533  10.936   9.143  0.4267 -0.6380  1.0297
   86MOL0     C11514   9.554  10.816   9.047 -0.3019  0.4126  0.1873
   86MOL0     C11515   9.687  10.751   9.082  0.0016  0.5669 -0.5558
   86MOL0     C11516   9.679  10.602   9.049 -0.6401  0.6793 -0.4925
   86MOL0     C11517   9.796  10.528   9.127  0.2443  0.2261 -0.0530
   86MOL0     C11518   9.798  10.378   9.126  0.2403 -0.1161  0.2285
   86MOL0     C11519   9.894  10.330   9.246  0.7353 -0.4426  0.3446
   86MOL0    Cl11520   9.986  10.191   9.190  0.0757  0.0854  0.0700
   86MOL0     C11521   9.112  10.831   9.013 -0.0833 -0.6013  0.1291
   86MOL0     C11522   9.010  10.827   8.921 -0.5435  0.4940  0.1096
   86MOL0     O11523   8.943  10.758   8.640 -0.2212 -0.3359 -0.9191
   86MOL0     C11524   8.685  10.982   8.561 -0.1096  0.1121  0.4454
   86MOL0     C11525   8.580  11.002   8.475  0.4632  0.1370  0.5410
   86MOL0     N11526   7.759  11.149   8.304  0.2276 -0.0888 -0.4650
   86MOL0     N11527   7.660  11.170   8.393 -1.1443  0.4612 -0.6086
   86MOL0     C11528   8.074  10.311   8.970  0.4705  0.8765 -0.2841
   86MOL0     C11529   8.181  10.241   8.912 -0.7176  0.4027  0.7956
   86MOL0     C11530   8.622  10.110   8.807 -0.1509 -0.2300 -0.1070
   86MOL0     C11531   8.760  10.121   8.802  0.1268 -0.7954 -0.1183
   86MOL0     C11532   8.836  10.032   8.722  0.3202  0.0084 -0.6511
   86MOL0     C11533   8.776   9.935   8.645 -0.3286 -0.3179 -0.1591
   86MOL0     O11534   8.837   9.833   8.572  0.3211 -0.0281  1.0410
   86MOL0     C11535   8.970   9.837   8.544  0.1400  0.9625  0.2955
   86MOL0     C11536   9.004   9.722   8.453 -0.5158 -0.8771 -0.4529
   86MOL0     C11537   9.152   9.711   8.396  0.2388  0.2085  0.2317
   86MOL0     C11538   9.164   9.600   8.294 -0.2257 -1.1808  0.0745
   86MOL0     C11539   9.192   9.474   8.359 -0.9046  0.9976 -0.3938
   86MOL0     C11540   9.218   9.364   8.402 -0.7235  0.3003 -0.4425
   86MOL0     C11541   8.642   9.923   8.644  0.3476  0.5543 -0.2108
   86MOL0     C11542   8.560  10.011   8.729 -0.9278  0.5041  0.4448
   86MOL0     H11543   8.436  10.366   9.094  0.8601  1.0209 -1.3969
   86MOL0     H11544   8.257  10.492   9.187 -4.2600  0.1827  1.6395
   86MOL0     H11545   8.045  10.682   9.156  0.1898 -1.3868  1.1650
   86MOL0     H11546   8.048  10.641   8.986  1.2655  0.4334  0.8766
   86MOL0     H11547   7.797  10.586   9.022 -1.1686  1.2776 -0.7747
   86MOL0     H11548   7.816  10.657   9.186  2.6343 -0.0479 -0.1626
   86MOL0     H11549   7.796  10.869   9.107 -0.1767 -0.7753  1.2640
   86MOL0     H11550   7.925  10.842   8.997  0.5768  0.1456  2.3075
   86MOL0     H11551   7.765  10.715   8.834 -0.0041  1.9423 -3.8547
   86MOL0     H11552   7.629  10.749   8.945  0.2285 -1.7316 -1.5213
   86MOL0     H11553   7.657  10.982   8.916  2.6714  0.3683 -0.2945
   86MOL0     H11554   7.787  10.957   8.805 -0.3670  0.9540  0.3443
   86MOL0     H11555   7.650  10.858   8.628 -2.8238  0.9517 -1.6068
   86MOL0     H11556   7.515  10.838   8.735 -0.9635  1.6681  1.8197
   86MOL0     H11557   7.467  11.023   8.579 -3.2241 -0.2915  1.4073
   86MOL0     H11558   7.467  11.076   8.749  2.6032  1.0336  1.4096
   86MOL0     H11559   7.703  11.148   8.728 -2.0161 -2.3516  0.9294
   86MOL0     H11560   7.585  11.236   8.621  1.7695  1.1096 -1.5090
   86MOL0     H11561   7.898  11.010   8.568 -2.0385 -0.7729  1.3313
   86MOL0     H11562   8.001  10.929   8.325 -1.7963 -0.0301 -0.7214
   86MOL0     H11563   7.984  11.051   8.194  1.2663  3.6265 -0.0134
   86MOL0     H11564   8.130  11.110   8.459  2.8534  2.1621 -0.3717
   86MOL0     H11565   8.099  11.230   8.352  1.9773  0.9566  2.3611
   86MOL0     H11566   8.300  11.174   8.272 -0.2789 -0.0992  0.6770
   86MOL0     H11567   8.198  11.075   8.173  0.1786 -0.6343  0.9357
   86MOL0     H11568   8.254  10.873   8.320 -1.1573 -0.8349  4.1253
   86MOL0     H11569   8.315  10.977   8.449  1.6362 -2.8261 -0.0057
   86MOL0     H11570   8.579  10.703   8.309 -1.5070  0.2732 -0.7230
   86MOL0     H11571   8.704  10.551   8.563 -0.1450 -2.5556 -2.1209
   86MOL0     H11572   8.744  10.564   8.387  2.1164  0.3873 -0.3174
   86MOL0     H11573   8.860  10.605   8.507  0.3697  2.9898  0.2406
   86MOL0     H11574   9.024  11.155   8.822  0.2436  0.2260  0.4794
   86MOL0     H11575   9.202  11.151   8.986 -1.0130  0.7716 -0.6523
   86MOL0     H11576   9.406  11.046   9.002 -2.3342 -2.0093 -0.2631
   86MOL0     H11577   9.408  11.109   9.160 -0.9423 -0.7883  1.7241
   86MOL0     H11578   9.619  11.001   9.128  0.2925 -0.7090 -0.0910
   86MOL0     H11579   9.539  10.908   9.249 -1.1925  3.8451  2.5433
   86MOL0     H11580   9.563  10.845   8.942  0.0570  1.0026  0.3731
   86MOL0     H11581   9.471  10.745   9.052  0.2391 -0.3533 -1.1912
   86MOL0     H11582   9.779  10.785   9.033  0.7538 -0.6956 -0.0721
   86MOL0     H11583   9.703  10.763   9.189 -2.0587  0.0824 -0.1383
   86MOL0     H11584   9.685  10.581   8.942 -3.0231 -1.0825 -0.3522
   86MOL0     H11585   9.585  10.563   9.091 -0.5931  2.4373  1.4344
   86MOL0     H11586   9.892  10.570   9.095  1.2385  0.4227  2.9027
   86MOL0     H11587   9.780  10.558   9.231 -0.0982  0.5840 -0.2067
   86MOL0     H11588   9.843  10.357   9.028  2.3788  1.4064  0.7966
   86MOL0     H11589   9.696  10.339   9.130 -0.2684  0.8471 -1.8719
   86MOL0     H11590   9.830  10.308   9.332 -1.4037  1.4725 -0.6436
   86MOL0     H11591   9.967  10.407   9.275  0.9458 -0.0579 -1.1131
   86MOL0     H11592   9.164  10.749   9.061 -0.4762 -1.0538 -0.2105
   86MOL0     H11593   8.953  10.736   8.903 -0.0946  0.1012  0.6764
   86MOL0     H11594   8.712  11.065   8.625  1.5843  1.0958 -1.4429
   86MOL0     H11595   8.534  11.097   8.453  0.8994 -0.1017 -1.6119
   86MOL0     H11596   7.979  10.296   8.920  1.3697  0.1558 -1.8191
   86MOL0     H11597   8.164  10.161   8.840  0.4692 -0.0882  1.0255
   86MOL0     H11598   8.818  10.189   8.865 -0.5320 -0.5299  0.2143
   86MOL0     H11599   8.945  10.030   8.719  0.4672  0.9986  1.8244
   86MOL0     H11600   9.000   9.924   8.485 -1.7840  1.1674 -0.4715
   86MOL0     H11601   9.012   9.843   8.645 -0.2675  1.7937  0.4317
   86MOL0     H11602   8.934   9.708   8.370 -0.3639 -0.1166 -0.7112
   86MOL0     H11603   8.994   9.633   8.516 -1.5221 -0.4713 -0.0271
   86MOL0     H11604   9.229   9.701   8.473  0.2709  1.1447  0.3376
   86MOL0     H11605   9.172   9.808   8.349 -1.1442  0.1674 -0.4849
   86MOL0     H11606   9.243   9.625   8.223 -1.5526 -1.3071 -1.5010
   86MOL0     H11607   9.069   9.587   8.242 -1.2218 -0.2849  1.5908
   86MOL0     H11608   9.247   9.271   8.447 -0.6171  0.6051  0.1261
   86MOL0     H11609   8.584   9.848   8.592 -3.0422  1.5863  1.7534
   86MOL0     H11610   8.452  10.008   8.734 -0.8707  0.3438  2.1849
   87MOL0     O11611  10.072   8.607   6.167 -0.4051 -1.0646 -0.1919
   87MOL0     C11612  10.147   8.674   6.093  0.3878 -0.4539  0.5048
   87MOL0     O11613  10.104   8.742   5.982 -0.3578 -0.5372  0.9869
   87MOL0     C11614   9.974   8.763   5.957 -0.9855  0.4611  0.5502
   87MOL0     C11615   9.915   8.678   5.866  0.1840  0.6369 -0.1245
   87MOL0     C11616   9.786   8.710   5.823 -0.0537  0.5414  0.2613
   87MOL0     C11617   9.713   8.803   5.875  0.0883 -0.4740 -0.8303
   87MOL0     O11618   9.584   8.836   5.847  0.5999 -0.0355  0.0367
   87MOL0     C11619   9.503   8.735   5.807 -0.0741  0.4513  0.5136
   87MOL0     C11620   9.381   8.785   5.732 -0.0741  0.6878  0.3354
   87MOL0     C11621   9.279   8.879   5.816 -0.0851 -0.2600  0.2380
   87MOL0     C11622   9.137   8.854   5.778  0.5795  0.2993  0.3579
   87MOL0     C11623   9.047   8.924   5.873  0.0432 -1.1673 -0.1215
   87MOL0     C11624   8.904   8.900   5.838 -0.3296  0.4931  1.5311
   87MOL0     C11625   8.810   8.874   5.949 -0.2062 -0.0599 -0.5349
   87MOL0     C11626   8.802   8.996   6.053  0.2367  1.0372  0.8760
   87MOL0     N11627   8.681   9.070   6.062  0.3371 -0.0296  0.3104
   87MOL0     C11628   8.554   9.012   6.085  0.6627 -0.7317 -0.4414
   87MOL0     C11629   8.460   9.089   6.045 -0.1907 -1.0223  0.6167
   87MOL0     C11630   8.308   9.047   6.041  0.3995 -1.3931  0.2811
   87MOL0     C11631   8.266   9.009   6.177 -0.2289  0.2217 -0.0360
   87MOL0     C11632   8.120   8.997   6.176 -0.5225  0.0651  0.3835
   87MOL0     C11633   8.057   8.942   6.300 -0.1533 -0.1799  0.7552
   87MOL0     O11634   8.099   9.001   6.418 -0.1156 -0.0628  0.2177
   87MOL0     C11635   8.033   8.966   6.532 -0.4364 -0.9546 -0.3536
   87MOL0     C11636   7.903   8.919   6.548  0.0372 -0.2955 -0.0753
   87MOL0     C11637   7.851   8.889   6.674 -0.3962  0.0127  0.5581
   87MOL0     C11638   7.709   8.819   6.674  0.0052  0.3681  0.6111
   87MOL0     C11639   7.922   8.918   6.790  0.0929  0.1375  0.4640
   87MOL0     C11640   7.868   8.886   6.933 -0.4634  0.2601  0.2091
   87MOL0     O11641   7.744   8.828   6.944  0.5736 -0.2212 -0.1729
   87MOL0     C11642   7.696   8.807   7.075 -0.8502  1.1803 -0.8775
   87MOL0     C11643   7.759   8.722   7.173  0.6780  0.6041  0.9300
   87MOL0     C11644   7.721   8.727   7.306 -1.0473  0.9705  0.0738
   87MOL0     C11645   7.623   8.824   7.345  0.1246  0.3692  0.2058
   87MOL0     O11646   7.572   8.829   7.478 -0.0053  0.5258  0.0709
   87MOL0     C11647   7.563   8.707   7.555  0.9224 -0.7671 -0.5446
   87MOL0     C11648   7.470   8.724   7.679  0.1076 -0.4369 -0.1448
   87MOL0     C11649   7.418   8.587   7.721 -0.4788 -0.2551  0.3896
   87MOL0     C11650   7.351   8.578   7.864  0.5238 -0.2474  0.1987
   87MOL0     C11651   7.230   8.664   7.867  0.4531 -0.3368  0.0568
   87MOL0     C11652   7.181   8.688   8.015  0.7306  0.3281  1.2612
   87MOL0     C11653   7.267   8.778   8.103 -0.5704  1.3738 -0.2407
   87MOL0     C11654   7.223   8.779   8.251  0.0644 -0.6874  0.7284
   87MOL0    Cl11655   7.185   8.630   8.335 -0.0633  0.1076  0.4614
   87MOL0     C11656   7.563   8.907   7.252  0.7697 -0.7104 -0.7120
   87MOL0     C11657   7.597   8.896   7.124  0.3161  0.4824  0.2256
   87MOL0     O11658   7.948   8.900   7.030  0.0470  0.2415  0.4992
   87MOL0     C11659   8.051   8.971   6.777 -0.9290  0.0472  1.6923
   87MOL0     C11660   8.105   8.987   6.650 -0.7110  0.0721 -0.7164
   87MOL0     N11661   8.525   9.198   5.984 -0.0129  0.2724 -0.3129
   87MOL0     N11662   8.648   9.181   5.984 -0.8515  0.6774 -0.3876
   87MOL0     C11663   9.765   8.878   5.975  0.6194  0.7228  1.0314
   87MOL0     C11664   9.895   8.861   6.020 -0.7705  0.6438 -0.0419
   87MOL0     C11665  10.286   8.685   6.121 -0.7181 -0.9006  0.3117
   87MOL0     C11666  10.376   8.754   6.035 -0.2924  1.2694 -0.6013
   87MOL0     C11667  10.505   8.777   6.068 -0.2827 -0.5303 -0.1803
   87MOL0     C11668  10.553   8.747   6.194  0.3219 -0.0637  0.2104
   87MOL0     O11669  10.684   8.776   6.230  0.4638 -0.2835  0.7831
   87MOL0     C11670  10.783   8.792   6.122  0.0819  1.0378 -0.2668
   87MOL0     C11671  10.928   8.759   6.183 -0.5190 -0.0278  0.5246
   87MOL0     C11672  10.980   8.864   6.279  0.8410  0.4450  0.7609
   87MOL0     C11673  11.101   8.949   6.215 -0.1407 -0.0921 -0.2575
   87MOL0     C11674  11.141   9.053   6.317 -0.1051  0.0389 -0.6979
   87MOL0     C11675  11.168   9.138   6.404  0.3897  0.1345  0.2085
   87MOL0     C11676  10.471   8.666   6.278  0.9149  1.0844  0.3091
   87MOL0     C11677  10.336   8.635   6.241 -0.5599 -0.2330 -0.2604
   87MOL0     H11678   9.962   8.586   5.834 -1.0116 -1.3694  3.4132
   87MOL0     H11679   9.753   8.646   5.741  1.1544  0.0277  0.1536
   87MOL0     H11680   9.550   8.656   5.747 -2.4453 -1.1231  0.5841
   87MOL0     H11681   9.463   8.682   5.894 -0.5159 -3.8400 -1.9923
   87MOL0     H11682   9.394   8.846   5.642 -2.6941 -0.1968 -0.7547
   87MOL0     H11683   9.326   8.697   5.699  0.8362 -0.3432  1.4788
   87MOL0     H11684   9.300   8.862   5.922 -0.6997  2.6415  0.9295
   87MOL0     H11685   9.304   8.982   5.789  1.5802 -0.5692  0.4629
   87MOL0     H11686   9.118   8.897   5.679 -2.6851 -1.4909  0.0953
   87MOL0     H11687   9.134   8.745   5.771  3.4226  0.1605  0.1531
   87MOL0     H11688   9.064   8.887   5.974 -5.9443 -3.2162  0.5275
   87MOL0     H11689   9.070   9.031   5.872  0.6117 -1.2642 -1.8822
   87MOL0     H11690   8.858   8.974   5.773  0.6555 -1.2497 -1.3318
   87MOL0     H11691   8.906   8.807   5.781  1.7916  0.6421  1.2850
   87MOL0     H11692   8.707   8.853   5.918  0.0986  0.5536 -2.0847
   87MOL0     H11693   8.840   8.795   6.019  0.7825 -1.6366 -2.6172
   87MOL0     H11694   8.873   9.071   6.019  3.1191 -2.8484 -2.7723
   87MOL0     H11695   8.830   8.965   6.155  3.5781  0.0852 -0.1906
   87MOL0     H11696   8.529   8.915   6.127 -4.8127  0.9348  0.9889
   87MOL0     H11697   8.244   9.127   6.003  0.1402 -1.2241  1.0469
   87MOL0     H11698   8.295   8.960   5.976  2.3329 -1.9216  0.5229
   87MOL0     H11699   8.291   9.087   6.249 -4.0386  0.0475  1.7067
   87MOL0     H11700   8.314   8.916   6.211 -1.5907 -1.4981 -2.4955
   87MOL0     H11701   8.095   8.926   6.096 -0.2364  2.0835 -1.5635
   87MOL0     H11702   8.073   9.095   6.168 -0.4992 -0.0037 -0.7271
   87MOL0     H11703   8.096   8.841   6.291  1.6522  0.4123  1.4462
   87MOL0     H11704   7.947   8.940   6.297 -0.1924 -2.0103  2.1419
   87MOL0     H11705   7.836   8.903   6.465 -2.0554 -1.8132  1.7984
   87MOL0     H11706   7.705   8.721   6.722  0.4972  0.2674  0.4606
   87MOL0     H11707   7.635   8.884   6.722 -0.8260 -1.7573  2.3525
   87MOL0     H11708   7.676   8.802   6.571  1.0316 -0.8654  0.4573
   87MOL0     H11709   7.838   8.658   7.134  0.9457 -0.4986  3.1359
   87MOL0     H11710   7.760   8.652   7.373 -0.5064 -0.1275 -1.4084
   87MOL0     H11711   7.520   8.634   7.485 -1.7087  1.0140 -0.9640
   87MOL0     H11712   7.662   8.675   7.586  0.8389 -1.3325 -0.8522
   87MOL0     H11713   7.512   8.792   7.753  0.3220  0.0460 -0.7039
   87MOL0     H11714   7.379   8.781   7.660 -0.7491 -1.2471  1.2883
   87MOL0     H11715   7.500   8.517   7.738  0.9067  0.5729 -2.3055
   87MOL0     H11716   7.353   8.551   7.640 -2.5981  2.6683  0.6372
   87MOL0     H11717   7.330   8.472   7.877 -1.6875  0.4618  3.3844
   87MOL0     H11718   7.421   8.618   7.939  1.0496 -0.9792  0.1094
   87MOL0     H11719   7.143   8.624   7.813 -3.1730  0.2100  4.7627
   87MOL0     H11720   7.240   8.761   7.818 -0.7650 -0.6555 -0.8849
   87MOL0     H11721   7.081   8.732   8.009  0.1117 -1.2115 -1.6304
   87MOL0     H11722   7.166   8.588   8.058  1.7230 -0.7085 -0.6498
   87MOL0     H11723   7.276   8.881   8.067 -0.1528  0.4771 -2.9004
   87MOL0     H11724   7.368   8.737   8.111 -1.2415 -0.5247 -0.9172
   87MOL0     H11725   7.138   8.848   8.251  0.4618 -0.1893  0.0231
   87MOL0     H11726   7.307   8.825   8.305  0.2114  1.6403 -1.3377
   87MOL0     H11727   7.482   8.974   7.281  1.5371  0.6378 -1.5665
   87MOL0     H11728   7.543   8.969   7.065  1.5105  1.0530 -0.1783
   87MOL0     H11729   8.133   8.987   6.846  0.3212  0.9462  0.0655
   87MOL0     H11730   8.210   9.013   6.639 -1.1083  1.0579 -2.5105
   87MOL0     H11731   9.701   8.951   6.024 -0.2091 -0.9482  2.5623
   87MOL0     H11732   9.932   8.924   6.101 -2.2498  1.3189  0.1489
   87MOL0     H11733  10.337   8.798   5.944  1.2837 -1.1548 -2.5597
   87MOL0     H11734  10.549   8.831   5.984 -1.4178  1.7049  0.5764
   87MOL0     H11735  10.762   8.725   6.037  2.8640  1.5321 -1.4529
   87MOL0     H11736  10.788   8.897   6.094 -1.9170  2.1650  3.0826
   87MOL0     H11737  11.002   8.737   6.105 -2.5962 -1.3817 -1.1556
   87MOL0     H11738  10.916   8.668   6.243  0.6696 -1.0372 -0.6960
   87MOL0     H11739  11.018   8.804   6.362  0.8975  0.2373  0.5863
   87MOL0     H11740  10.901   8.929   6.317 -0.3395  0.1213 -1.0207
   87MOL0     H11741  11.053   8.982   6.123  0.0797  0.9462 -0.0050
   87MOL0     H11742  11.189   8.884   6.212  0.6642  0.9866 -0.7104
   87MOL0     H11743  11.191   9.209   6.481 -2.1026 -0.4675  1.6444
   87MOL0     H11744  10.520   8.635   6.370 -0.8230  1.1375  1.2922
   87MOL0     H11745  10.274   8.564   6.295  3.6421 -2.8739  1.6464
   88MOL0     O11746   2.990  10.622   7.339  0.5329  0.4439  0.6070
   88MOL0     C11747   3.042  10.511   7.329 -0.0211  0.0294  0.0931
   88MOL0     O11748   2.970  10.396   7.306 -0.2886  0.5397 -0.2043
   88MOL0     C11749   2.833  10.390   7.330 -1.2428  0.4293 -0.1766
   88MOL0     C11750   2.745  10.430   7.234 -0.1744  0.0317 -0.2336
   88MOL0     C11751   2.613  10.457   7.274  0.7281  0.5423 -0.0059
   88MOL0     C11752   2.564  10.418   7.404  0.0314 -0.4223 -0.5488
   88MOL0     O11753   2.439  10.434   7.438  0.2355 -0.2688 -0.1949
   88MOL0     C11754   2.325  10.467   7.350  1.0859 -0.2370 -0.5278
   88MOL0     C11755   2.204  10.431   7.427  0.1074 -0.4908  0.0293
   88MOL0     C11756   2.190  10.519   7.560 -0.6431  0.4780  0.9460
   88MOL0     C11757   2.113  10.639   7.527 -0.0039  0.6418  0.2109
   88MOL0     C11758   2.099  10.717   7.653  0.5365  0.2100 -0.6498
   88MOL0     C11759   2.029  10.855   7.644  0.6987  0.0866 -0.6397
   88MOL0     C11760   1.886  10.838   7.585  0.1443  0.1238 -0.2703
   88MOL0     C11761   1.796  10.962   7.614 -0.5019  0.2203  0.7229
   88MOL0     N11762   1.871  11.078   7.564 -0.3415 -0.1293 -0.4068
   88MOL0     C11763   1.874  11.113   7.431 -0.2432 -0.6484 -0.3270
   88MOL0     C11764   1.946  11.232   7.422  0.5049 -0.1490 -0.1944
   88MOL0     C11765   1.986  11.303   7.291  0.4152  0.1359  0.1028
   88MOL0     C11766   2.112  11.379   7.301 -0.3887 -0.2894 -0.6706
   88MOL0     C11767   2.238  11.295   7.311 -0.0478 -0.5661 -0.3118
   88MOL0     C11768   2.303  11.257   7.173  0.9469 -0.7084 -1.2581
   88MOL0     O11769   2.370  11.374   7.118  0.7496 -0.3465 -0.2507
   88MOL0     C11770   2.459  11.370   7.020  0.0125 -0.6696 -0.3784
   88MOL0     C11771   2.530  11.492   6.991  0.0217  0.4848 -0.1203
   88MOL0     C11772   2.631  11.493   6.903 -0.1499  1.1247  0.9559
   88MOL0     C11773   2.698  11.627   6.887  0.3227 -0.2554 -0.2608
   88MOL0     C11774   2.667  11.375   6.833  0.4513 -1.2101 -0.6234
   88MOL0     C11775   2.790  11.367   6.745 -0.7064 -0.1374 -1.1836
   88MOL0     O11776   2.882  11.470   6.735  0.3700  0.0132 -0.1999
   88MOL0     C11777   2.994  11.461   6.648  0.0019 -0.3106  0.8544
   88MOL0     C11778   3.050  11.586   6.625 -0.5050  0.7958  0.2919
   88MOL0     C11779   3.159  11.607   6.545 -0.0162  0.6838  0.4127
   88MOL0     C11780   3.206  11.503   6.465  0.8250  0.3159 -0.5830
   88MOL0     O11781   3.301  11.520   6.367 -0.3155 -1.0576  0.2546
   88MOL0     C11782   3.381  11.641   6.371  0.0424 -0.0074 -0.0934
   88MOL0     C11783   3.485  11.645   6.485  0.0304 -0.3641  0.0489
   88MOL0     C11784   3.606  11.731   6.448 -0.2360 -0.5998 -0.7397
   88MOL0     C11785   3.678  11.664   6.333  0.7901 -0.5681  0.3606
   88MOL0     C11786   3.824  11.688   6.338  0.0210  0.7058 -0.1803
   88MOL0     C11787   3.899  11.616   6.224  0.0460 -0.0804  0.9774
   88MOL0     C11788   3.897  11.676   6.083 -0.5773 -0.1074 -1.0149
   88MOL0     C11789   3.795  11.612   5.999  0.1310 -0.0942  0.0285
   88MOL0    Cl11790   3.787  11.708   5.839  0.1934  0.0372 -0.1290
   88MOL0     C11791   3.151  11.374   6.489 -0.2851  0.7413 -0.4711
   88MOL0     C11792   3.049  11.353   6.585 -0.9241  0.6905  0.2689
   88MOL0     O11793   2.798  11.263   6.673 -0.1701 -0.1628 -0.1783
   88MOL0     C11794   2.586  11.256   6.859 -0.9543 -0.2195 -0.6550
   88MOL0     C11795   2.490  11.254   6.953  0.3039  0.5976 -0.8702
   88MOL0     N11796   1.981  11.264   7.561 -0.1084 -0.3425  0.3001
   88MOL0     N11797   1.944  11.170   7.637  1.0565  0.1462  0.6245
   88MOL0     C11798   2.657  10.374   7.498 -0.0591  1.2087  0.3181
   88MOL0     C11799   2.792  10.367   7.463  0.0830  0.2486 -0.0333
   88MOL0     C11800   3.184  10.497   7.353 -0.3300  1.2674  0.6306
   88MOL0     C11801   3.272  10.604   7.387  1.0664  0.8592 -0.2798
   88MOL0     C11802   3.403  10.594   7.422  0.4200 -0.2500  0.3467
   88MOL0     C11803   3.461  10.469   7.404 -0.4613  0.1685  0.4451
   88MOL0     O11804   3.596  10.455   7.418  0.2020 -1.0131  0.7375
   88MOL0     C11805   3.664  10.332   7.393 -0.2114  0.0802 -0.8796
   88MOL0     C11806   3.810  10.364   7.433 -1.0121 -0.0436 -0.7490
   88MOL0     C11807   3.889  10.239   7.467  0.3635  0.0084  0.3086
   88MOL0     C11808   4.017  10.255   7.555  1.3345  0.2652 -0.3033
   88MOL0     C11809   4.099  10.359   7.498 -0.5122 -0.0764 -0.7134
   88MOL0     C11810   4.152  10.460   7.468 -0.2358 -0.3471 -0.1078
   88MOL0     C11811   3.380  10.358   7.371 -0.4256 -0.6659  0.6995
   88MOL0     C11812   3.244  10.365   7.346  0.2303 -0.4734  1.1634
   88MOL0     H11813   2.774  10.432   7.129  0.0087 -3.1202 -0.3436
   88MOL0     H11814   2.531  10.493   7.213 -3.1403 -2.1803  3.0765
   88MOL0     H11815   2.334  10.574   7.330 -1.3175  1.6572  5.8784
   88MOL0     H11816   2.324  10.410   7.257 -2.2195  1.6569 -1.8633
   88MOL0     H11817   2.109  10.438   7.373 -0.3008 -0.7557  0.7022
   88MOL0     H11818   2.207  10.326   7.455  0.3953 -0.6682 -0.6377
   88MOL0     H11819   2.128  10.462   7.630 -0.9534  1.0197  1.1223
   88MOL0     H11820   2.283  10.545   7.612 -0.5763 -2.8752  2.7571
   88MOL0     H11821   2.152  10.698   7.444 -3.1762 -0.3590 -2.1891
   88MOL0     H11822   2.012  10.614   7.494 -0.2490  0.9523  0.7077
   88MOL0     H11823   2.056  10.662   7.737  0.1615  1.0717 -0.2644
   88MOL0     H11824   2.201  10.740   7.683  0.0066  0.0519  1.4011
   88MOL0     H11825   2.023  10.890   7.748 -1.1966 -3.2864  0.5313
   88MOL0     H11826   2.089  10.925   7.586  1.3116 -1.9878 -2.6465
   88MOL0     H11827   1.877  10.813   7.479 -1.7143  0.0690 -0.1330
   88MOL0     H11828   1.826  10.760   7.632  0.2660  1.8647  3.1413
   88MOL0     H11829   1.780  10.972   7.722  1.8519 -0.0085  1.1400
   88MOL0     H11830   1.704  10.953   7.555 -0.4521  0.4969  0.6019
   88MOL0     H11831   1.825  11.063   7.348 -1.8943  1.2600 -0.5780
   88MOL0     H11832   2.015  11.225   7.219 -1.9280 -2.6734  1.9525
   88MOL0     H11833   1.896  11.360   7.268 -0.7231 -1.3230  0.7128
   88MOL0     H11834   2.103  11.439   7.392 -0.2878  1.4010 -1.7360
   88MOL0     H11835   2.128  11.440   7.211 -0.6665  1.2350  0.2701
   88MOL0     H11836   2.209  11.201   7.359  0.3665 -1.9477 -2.6246
   88MOL0     H11837   2.317  11.346   7.367  0.0372  0.1321 -1.0457
   88MOL0     H11838   2.231  11.214   7.103 -2.2459  2.7526 -0.4360
   88MOL0     H11839   2.392  11.197   7.194  1.0030  0.3509  2.1846
   88MOL0     H11840   2.509  11.582   7.048 -1.5841  1.2726 -1.8394
   88MOL0     H11841   2.804  11.616   6.914  0.6153 -0.4381 -1.4288
   88MOL0     H11842   2.703  11.669   6.787 -0.7733 -0.5327 -0.4451
   88MOL0     H11843   2.654  11.701   6.954  1.3641 -1.6457  2.1138
   88MOL0     H11844   3.007  11.670   6.678  0.0949  0.1594  1.8425
   88MOL0     H11845   3.196  11.707   6.526 -0.0389  0.9767  1.8081
   88MOL0     H11846   3.434  11.629   6.277  0.6228 -1.6181  0.4119
   88MOL0     H11847   3.325  11.735   6.361 -1.2192 -0.3243  2.8522
   88MOL0     H11848   3.430  11.662   6.578 -2.0600 -4.0318 -0.3354
   88MOL0     H11849   3.530  11.549   6.514 -0.4821 -0.1667  1.5958
   88MOL0     H11850   3.661  11.734   6.542  0.0130  0.8778 -0.9143
   88MOL0     H11851   3.589  11.838   6.434 -1.7286 -0.5404  1.1413
   88MOL0     H11852   3.650  11.559   6.333 -1.2410 -0.1404  2.7756
   88MOL0     H11853   3.635  11.710   6.244 -1.7471 -0.4582  1.5444
   88MOL0     H11854   3.868  11.636   6.423 -2.0529  0.2675  0.6861
   88MOL0     H11855   3.837  11.797   6.338 -4.4551  1.4553 -2.0680
   88MOL0     H11856   4.001  11.618   6.263 -0.1160  4.4256  1.6451
   88MOL0     H11857   3.864  11.512   6.222  0.2424 -0.1499 -1.1371
   88MOL0     H11858   3.998  11.677   6.041  0.3114  2.4336  0.9548
   88MOL0     H11859   3.883  11.783   6.096  2.4942  0.2469  0.2544
   88MOL0     H11860   3.702  11.608   6.056  0.5799  0.8250  0.8683
   88MOL0     H11861   3.824  11.508   5.981  2.3321  0.1710  1.6322
   88MOL0     H11862   3.186  11.285   6.436  2.2657  2.5965 -2.1644
   88MOL0     H11863   3.023  11.251   6.611  0.5995  0.0329 -0.5915
   88MOL0     H11864   2.614  11.164   6.809 -1.6355 -1.1000  0.5292
   88MOL0     H11865   2.439  11.162   6.981  0.7788  0.9861  1.4987
   88MOL0     H11866   2.615  10.339   7.591  0.4224 -1.2312 -0.3091
   88MOL0     H11867   2.853  10.329   7.544  0.1611 -1.5576 -0.8884
   88MOL0     H11868   3.225  10.702   7.387  1.6317  1.1329 -0.5616
   88MOL0     H11869   3.463  10.682   7.443  1.3197 -0.9481  0.7647
   88MOL0     H11870   3.632  10.249   7.455 -1.3423  1.4261  0.4108
   88MOL0     H11871   3.656  10.294   7.291  0.0337 -1.9055 -0.1974
   88MOL0     H11872   3.819  10.431   7.519  1.2424  0.0162 -0.9812
   88MOL0     H11873   3.853  10.423   7.352 -2.6683  1.5635 -0.5017
   88MOL0     H11874   3.924  10.202   7.370 -2.0493 -2.4478  0.2761
   88MOL0     H11875   3.825  10.165   7.514  0.9269  0.1709  1.3735
   88MOL0     H11876   4.065  10.157   7.558 -1.0302 -1.0180 -1.7841
   88MOL0     H11877   3.979  10.291   7.652 -1.9998 -2.1582 -0.5315
   88MOL0     H11878   4.178  10.556   7.429 -3.8708  0.2082 -1.6326
   88MOL0     H11879   3.429  10.262   7.361 -1.0435 -0.7593 -2.3100
   88MOL0     H11880   3.186  10.276   7.327 -1.3746  0.1798  2.7555
   89MOL0     O11881   5.899   4.149   4.710  0.3168 -0.1521  0.8349
   89MOL0     C11882   5.970   4.053   4.699 -0.2294 -0.7613 -0.3343
   89MOL0     O11883   5.924   3.930   4.655 -1.0423 -0.4845 -0.8699
   89MOL0     C11884   5.798   3.899   4.645 -0.5024  0.5160  0.2325
   89MOL0     C11885   5.693   3.959   4.700  1.2830 -0.7556 -0.5667
   89MOL0     C11886   5.558   3.931   4.667  0.5121  0.2649  0.1145
   89MOL0     C11887   5.529   3.831   4.574 -0.4050  0.5251  0.1706
   89MOL0     O11888   5.400   3.793   4.540  0.0183  0.1996  0.1136
   89MOL0     C11889   5.300   3.790   4.638 -0.2578 -0.3367 -0.9437
   89MOL0     C11890   5.152   3.771   4.584 -1.4510  0.2868  0.3328
   89MOL0     C11891   5.048   3.729   4.683  0.0763 -1.1519 -0.5791
   89MOL0     C11892   4.908   3.770   4.635 -0.1257 -0.7899  0.0802
   89MOL0     C11893   4.792   3.690   4.693 -0.0078 -1.0492 -0.4118
   89MOL0     C11894   4.806   3.589   4.819 -1.3184  0.2209 -0.5282
   89MOL0     C11895   4.681   3.513   4.855  0.6513 -0.0451  0.0907
   89MOL0     C11896   4.592   3.589   4.948  0.8480 -0.2038 -0.4824
   89MOL0     N11897   4.490   3.500   5.008  0.4254 -0.0017 -0.5105
   89MOL0     C11898   4.377   3.443   4.945 -0.8536 -0.6712  0.0022
   89MOL0     C11899   4.331   3.351   5.033  0.0700 -0.0616 -0.1381
   89MOL0     C11900   4.216   3.260   5.028 -0.1467  0.3539 -0.0448
   89MOL0     C11901   4.109   3.276   5.133 -0.9433  0.4810  0.4592
   89MOL0     C11902   4.129   3.176   5.249  0.0654  0.2256  0.1171
   89MOL0     C11903   4.038   3.194   5.372 -0.0537  0.2889  0.2235
   89MOL0     O11904   3.901   3.196   5.327 -0.0564 -0.1005 -0.7962
   89MOL0     C11905   3.804   3.225   5.428  0.4698  0.3131 -0.1731
   89MOL0     C11906   3.824   3.235   5.564 -0.0997 -0.6035  0.1645
   89MOL0     C11907   3.733   3.296   5.649  0.6275  0.9003  0.2655
   89MOL0     C11908   3.788   3.308   5.797  0.4889 -0.6968 -0.2090
   89MOL0     C11909   3.601   3.322   5.597  0.0609 -0.0626  0.6623
   89MOL0     C11910   3.481   3.345   5.678 -0.2798  0.1362  0.2382
   89MOL0     O11911   3.374   3.405   5.623  0.2922  0.5300  0.1526
   89MOL0     C11912   3.258   3.457   5.691 -0.5363  0.0517  1.2235
   89MOL0     C11913   3.139   3.455   5.615 -0.2023  0.3722  0.7723
   89MOL0     C11914   3.025   3.519   5.665  0.0624 -0.5804 -0.7766
   89MOL0     C11915   3.019   3.569   5.798  0.2656 -0.2685  0.7141
   89MOL0     O11916   2.891   3.629   5.841  0.1732  0.7337  0.4631
   89MOL0     C11917   2.896   3.732   5.938 -1.2708  0.2646  0.2456
   89MOL0     C11918   2.774   3.816   5.933  0.4756  0.1221  0.9217
   89MOL0     C11919   2.644   3.744   5.960  0.4130  0.8577 -0.3803
   89MOL0     C11920   2.637   3.681   6.098 -0.3349 -0.0790  0.1140
   89MOL0     C11921   2.494   3.663   6.148 -0.3291  0.0618  0.3210
   89MOL0     C11922   2.476   3.546   6.247  0.9662  0.2743  1.0229
   89MOL0     C11923   2.576   3.556   6.363  0.2604 -0.2440 -0.6767
   89MOL0     C11924   2.517   3.494   6.492 -0.0006 -0.3707 -0.5351
   89MOL0    Cl11925   2.406   3.611   6.576  0.0333  0.3370  0.2237
   89MOL0     C11926   3.142   3.570   5.871 -0.0216  0.1035  0.5224
   89MOL0     C11927   3.256   3.511   5.822  0.4620  0.0821  0.5703
   89MOL0     O11928   3.476   3.279   5.782  0.1349  0.3354 -0.0178
   89MOL0     C11929   3.571   3.297   5.462  0.0019 -0.1032  0.2050
   89MOL0     C11930   3.672   3.248   5.379  0.0388 -0.6706  0.1429
   89MOL0     N11931   4.420   3.345   5.136 -0.1170 -0.1819  0.3886
   89MOL0     N11932   4.528   3.416   5.116 -0.2900 -0.1744  0.8227
   89MOL0     C11933   5.638   3.769   4.507 -0.2116 -0.1691  0.1205
   89MOL0     C11934   5.775   3.803   4.543 -0.8425 -0.6328 -0.2790
   89MOL0     C11935   6.113   4.081   4.673  0.2087 -0.2267  0.1896
   89MOL0     C11936   6.175   4.202   4.709 -0.8018 -0.1622 -0.6009
   89MOL0     C11937   6.316   4.213   4.703 -0.1516 -0.0461  0.8334
   89MOL0     C11938   6.395   4.109   4.647  0.4990  0.0665 -1.1046
   89MOL0     O11939   6.533   4.108   4.655  0.8225  0.4490 -0.0593
   89MOL0     C11940   6.602   4.213   4.595  0.0938  0.6317  0.0864
   89MOL0     C11941   6.737   4.230   4.655  0.0572  0.1618 -0.1456
   89MOL0     C11942   6.843   4.130   4.608  0.5183  0.0973 -0.1559
   89MOL0     C11943   6.979   4.184   4.651 -0.4665  0.1707  0.3726
   89MOL0     C11944   7.087   4.103   4.599  0.0295  0.1634  0.4490
   89MOL0     C11945   7.185   4.037   4.570 -0.5886 -0.5754 -0.3205
   89MOL0     C11946   6.331   3.988   4.611  0.0988 -0.6736  0.3161
   89MOL0     C11947   6.193   3.973   4.632  0.3578 -0.5012  0.0139
   89MOL0     H11948   5.703   4.043   4.769  0.3702  0.4081 -1.7999
   89MOL0     H11949   5.475   3.969   4.725  1.2754  1.7288  0.3075
   89MOL0     H11950   5.322   3.707   4.706  0.0326 -0.2923 -0.9824
   89MOL0     H11951   5.307   3.883   4.695  4.1661  1.4113 -3.8355
   89MOL0     H11952   5.131   3.867   4.535 -0.8882  0.2703  0.0532
   89MOL0     H11953   5.157   3.698   4.503  2.3236  2.9384 -2.1286
   89MOL0     H11954   5.054   3.621   4.698 -3.2872 -1.2137  1.1611
   89MOL0     H11955   5.071   3.769   4.782 -0.5836 -1.3126 -0.3547
   89MOL0     H11956   4.894   3.877   4.652 -0.2446 -1.1887  2.9420
   89MOL0     H11957   4.894   3.761   4.527 -2.5009  0.4490  0.2124
   89MOL0     H11958   4.710   3.754   4.725 -2.5716 -5.0664  1.8908
   89MOL0     H11959   4.743   3.633   4.614 -0.8614 -1.4561  0.3905
   89MOL0     H11960   4.889   3.520   4.800 -0.6144  0.0760  2.4901
   89MOL0     H11961   4.834   3.656   4.901  1.4267 -0.6025 -0.6900
   89MOL0     H11962   4.626   3.483   4.765 -0.9517  0.0925  0.9811
   89MOL0     H11963   4.704   3.419   4.907 -1.1727  0.0535  1.1882
   89MOL0     H11964   4.542   3.669   4.894  1.6857  2.9679  3.0457
   89MOL0     H11965   4.649   3.635   5.029 -2.4345  1.7355  0.9433
   89MOL0     H11966   4.328   3.483   4.857 -0.0856 -0.2451 -0.2369
   89MOL0     H11967   4.164   3.273   4.933 -0.0590 -0.2265 -0.1765
   89MOL0     H11968   4.249   3.156   5.031  2.3516  1.0890  0.3458
   89MOL0     H11969   4.010   3.264   5.089 -0.0654  2.1835 -2.2016
   89MOL0     H11970   4.124   3.373   5.182 -1.5469  1.8180 -1.8449
   89MOL0     H11971   4.230   3.166   5.288 -0.5527 -1.1412  1.4594
   89MOL0     H11972   4.105   3.078   5.209 -1.0706  0.5767 -0.1097
   89MOL0     H11973   4.067   3.294   5.405 -1.4320  1.0404 -0.7760
   89MOL0     H11974   4.060   3.112   5.441  2.0250  0.9703  0.4510
   89MOL0     H11975   3.919   3.212   5.611 -0.5831  1.5339  2.3795
   89MOL0     H11976   3.854   3.228   5.833  0.0366 -0.4295  1.3003
   89MOL0     H11977   3.853   3.396   5.808  0.5777  0.1144 -5.0771
   89MOL0     H11978   3.703   3.313   5.866 -0.1162  1.4442 -1.0326
   89MOL0     H11979   3.139   3.437   5.508 -0.0323 -0.4019  0.9002
   89MOL0     H11980   2.944   3.546   5.598  0.5556  1.8191 -0.5275
   89MOL0     H11981   2.903   3.685   6.037 -0.0182 -0.9044 -0.3708
   89MOL0     H11982   2.988   3.791   5.931 -0.3171 -1.3183 -1.0931
   89MOL0     H11983   2.780   3.892   6.011  0.0343 -1.4396  2.5316
   89MOL0     H11984   2.757   3.857   5.833  1.7660 -5.5621 -2.0287
   89MOL0     H11985   2.629   3.674   5.878 -3.2809  1.9911 -0.8396
   89MOL0     H11986   2.559   3.812   5.948  0.4320  1.0166  0.3604
   89MOL0     H11987   2.687   3.584   6.095  0.0930  0.0792  1.7183
   89MOL0     H11988   2.699   3.748   6.158  0.2995  0.1242 -0.7404
   89MOL0     H11989   2.434   3.673   6.058  0.8909  1.6854 -0.3639
   89MOL0     H11990   2.459   3.755   6.196 -0.6358 -0.1015  0.4141
   89MOL0     H11991   2.370   3.543   6.272  1.1776  2.5176  2.4219
   89MOL0     H11992   2.496   3.450   6.197 -2.2683 -2.1117  3.8273
   89MOL0     H11993   2.587   3.660   6.397  1.6510  1.0838 -4.5712
   89MOL0     H11994   2.681   3.528   6.349  1.4796  2.7236  1.4476
   89MOL0     H11995   2.595   3.481   6.567  1.0973  2.9974 -0.9199
   89MOL0     H11996   2.453   3.409   6.464 -2.0991  1.6795 -2.4506
   89MOL0     H11997   3.150   3.613   5.971  2.6364  0.0972  0.3884
   89MOL0     H11998   3.348   3.513   5.881 -0.3177 -3.3035  2.1894
   89MOL0     H11999   3.472   3.317   5.422  1.0037 -1.4058 -3.3096
   89MOL0     H12000   3.655   3.224   5.275 -0.0013 -2.1501  0.4650
   89MOL0     H12001   5.608   3.693   4.435  1.2741 -0.3572 -0.3383
   89MOL0     H12002   5.849   3.751   4.483 -2.8401  1.1438 -4.6885
   89MOL0     H12003   6.121   4.285   4.754  0.4078 -0.8829  2.4743
   89MOL0     H12004   6.373   4.303   4.724  0.1966  0.0951 -0.6384
   89MOL0     H12005   6.603   4.180   4.490  2.3316 -3.0216  1.0722
   89MOL0     H12006   6.546   4.305   4.610  0.2716  0.6228  0.8406
   89MOL0     H12007   6.726   4.230   4.764  0.4292 -1.3804 -0.0880
   89MOL0     H12008   6.783   4.328   4.635  2.0678 -0.8029 -0.4551
   89MOL0     H12009   6.846   4.108   4.501  0.8945 -0.5325 -0.0206
   89MOL0     H12010   6.828   4.036   4.662 -0.6040  0.7152  0.6689
   89MOL0     H12011   6.988   4.185   4.760  0.3325 -0.0212  0.3093
   89MOL0     H12012   6.984   4.283   4.605  0.9741  0.4570  1.0940
   89MOL0     H12013   7.275   3.994   4.529  1.7679  2.7929  0.8917
   89MOL0     H12014   6.388   3.904   4.572 -2.1681 -1.9211 -0.5016
   89MOL0     H12015   6.160   3.870   4.623  0.6239 -0.9482  3.0917
   90MOL0     O12016   2.751   9.414  10.155  0.2489  0.1414  0.4364
   90MOL0     C12017   2.759   9.445  10.269 -0.1629  0.7719 -0.1622
   90MOL0     O12018   2.876   9.457  10.340 -0.0521  0.0539 -0.0263
   90MOL0     C12019   2.995   9.471  10.270 -0.1562  0.0939  0.4599
   90MOL0     C12020   3.011   9.554  10.157  0.1389  0.1556  0.3949
   90MOL0     C12021   3.134   9.569  10.087 -0.1494 -0.4864  0.5249
   90MOL0     C12022   3.245   9.494  10.135 -0.8677  0.0019  0.0218
   90MOL0     O12023   3.374   9.495  10.083 -0.6591 -0.9466 -1.3644
   90MOL0     C12024   3.405   9.608  10.004 -0.8330  0.4628  0.7340
   90MOL0     C12025   3.466   9.713  10.091  0.1059  1.2429  0.2809
   90MOL0     C12026   3.507   9.825   9.991 -0.6555 -0.6070 -1.3785
   90MOL0     C12027   3.498   9.964  10.056 -0.1711  0.3342 -0.8197
   90MOL0     C12028   3.582  10.064   9.980 -0.0157 -0.0783  0.2673
   90MOL0     C12029   3.521  10.125   9.867 -0.3585  0.2728 -0.1228
   90MOL0     C12030   3.620  10.151   9.743  0.3280  0.4500  0.3328
   90MOL0     C12031   3.564  10.260   9.637  0.7205 -0.5001 -0.2266
   90MOL0     N12032   3.506  10.390   9.682  0.5324 -0.3855 -0.1242
   90MOL0     C12033   3.589  10.492   9.733  1.2716 -0.4091  0.0046
   90MOL0     C12034   3.505  10.587   9.786 -1.2823  0.0404  0.7428
   90MOL0     C12035   3.555  10.703   9.857 -0.4569  0.3750 -0.1795
   90MOL0     C12036   3.618  10.806   9.761  0.4442  0.2588 -0.3375
   90MOL0     C12037   3.509  10.881   9.689  0.1590  0.1192  0.4141
   90MOL0     C12038   3.427  10.975   9.778  0.0521  0.3428 -0.1970
   90MOL0     O12039   3.312  10.924   9.842 -0.5047  0.0906 -0.7902
   90MOL0     C12040   3.203  10.907   9.777  0.5829 -0.2338  0.4476
   90MOL0     C12041   3.145  11.011   9.703  0.5027  0.2787 -0.1832
   90MOL0     C12042   3.024  10.989   9.628  0.2904  1.0321  0.4858
   90MOL0     C12043   2.968  11.112   9.555  0.1430 -0.3109  0.7910
   90MOL0     C12044   2.964  10.860   9.619 -0.8850 -0.7930  0.2170
   90MOL0     C12045   2.842  10.820   9.542 -0.2368  0.7706 -0.0581
   90MOL0     O12046   2.761  10.921   9.522  0.2110  0.3038  0.5194
   90MOL0     C12047   2.630  10.881   9.503 -0.0089  0.0856  0.6699
   90MOL0     C12048   2.585  10.878   9.375  0.7516 -0.3804 -0.2424
   90MOL0     C12049   2.453  10.839   9.353 -1.1354  0.3361  0.4137
   90MOL0     C12050   2.358  10.835   9.460 -0.6532  0.2226  0.3428
   90MOL0     O12051   2.230  10.816   9.446 -0.1428 -1.1645  0.1736
   90MOL0     C12052   2.167  10.772   9.325 -0.6076  0.3614  0.7900
   90MOL0     C12053   2.007  10.772   9.335 -0.5168 -0.1351  0.5757
   90MOL0     C12054   1.983  10.668   9.450 -0.3909 -0.0780  0.0483
   90MOL0     C12055   1.836  10.634   9.462 -0.1148 -0.9777 -0.4160
   90MOL0     C12056   1.786  10.534   9.365  0.9431  0.5844 -0.7085
   90MOL0     C12057   1.633  10.521   9.384 -0.1913  0.7299 -0.8454
   90MOL0     C12058   1.588  10.428   9.269 -0.3339  0.1305  0.9225
   90MOL0     C12059   1.457  10.365   9.287 -0.2728 -0.0629  0.5281
   90MOL0    Cl12060   1.324  10.481   9.340 -0.0701  0.0292  0.4244
   90MOL0     C12061   2.407  10.845   9.587  1.0408 -0.4928  0.4285
   90MOL0     C12062   2.539  10.865   9.612 -1.3342 -0.6803 -0.3814
   90MOL0     O12063   2.830  10.697   9.504  0.5998 -0.2360  0.3846
   90MOL0     C12064   3.027  10.757   9.692  0.5028  0.0597  0.1212
   90MOL0     C12065   3.138  10.782   9.777  0.1498 -0.0679  1.3972
   90MOL0     N12066   3.376  10.538   9.777 -0.8139 -0.1075  1.2411
   90MOL0     N12067   3.373  10.425   9.713  0.0355 -0.2685  0.0201
   90MOL0     C12068   3.223   9.407  10.242 -0.1253 -0.6270  0.0831
   90MOL0     C12069   3.107   9.403  10.316 -0.2115  0.9213  0.8108
   90MOL0     C12070   2.633   9.463  10.355  0.5798 -0.1065  0.7804
   90MOL0     C12071   2.643   9.498  10.493 -0.2975 -0.2150  0.2367
   90MOL0     C12072   2.524   9.510  10.568  0.1074 -0.3659  0.3311
   90MOL0     C12073   2.394   9.482  10.520 -0.3543 -1.1016 -0.0984
   90MOL0     O12074   2.289   9.513  10.601  0.0167  0.1858 -0.2521
   90MOL0     C12075   2.160   9.497  10.556  0.0389 -0.2060 -0.3907
   90MOL0     C12076   2.098   9.358  10.588  0.1202 -0.3592  0.0733
   90MOL0     C12077   2.124   9.303  10.740  0.6659 -0.3200  0.2252
   90MOL0     C12078   2.011   9.331  10.832  0.3331 -0.3615 -0.6711
   90MOL0     C12079   1.883   9.285  10.790 -0.4596  0.4216  0.1638
   90MOL0     C12080   1.783   9.243  10.742  1.4135 -0.3356  0.3579
   90MOL0     C12081   2.390   9.430  10.394 -0.1799  0.8306  0.5855
   90MOL0     C12082   2.498   9.422  10.310 -0.4721 -0.0873 -0.2957
   90MOL0     H12083   2.924   9.606  10.117  0.0874  0.6595  1.1572
   90MOL0     H12084   3.126   9.629   9.997 -2.9850 -0.5650  0.6454
   90MOL0     H12085   3.484   9.576   9.935 -1.2952 -1.8602  1.1686
   90MOL0     H12086   3.320   9.643   9.944  0.4905 -1.1207 -2.3214
   90MOL0     H12087   3.388   9.755  10.155  0.3000  3.3531 -0.7697
   90MOL0     H12088   3.551   9.678  10.151 -0.4194 -2.6816 -1.0101
   90MOL0     H12089   3.613   9.816   9.968  0.1845  2.2765  0.7094
   90MOL0     H12090   3.442   9.825   9.903 -2.2176 -1.2340 -0.2720
   90MOL0     H12091   3.392   9.992  10.051  0.0723  1.8044  1.1370
   90MOL0     H12092   3.518   9.957  10.163 -3.2173 -2.9848 -0.2627
   90MOL0     H12093   3.616  10.139  10.051  3.4914 -1.3621  0.1109
   90MOL0     H12094   3.679  10.027   9.946  1.8843  1.2823  3.7627
   90MOL0     H12095   3.451  10.050   9.827 -0.3093  0.3866 -0.4240
   90MOL0     H12096   3.474  10.220   9.894  3.2084  1.8209  1.1617
   90MOL0     H12097   3.720  10.175   9.779  1.0054  1.8292 -2.2669
   90MOL0     H12098   3.627  10.053   9.695  0.0397 -0.0216  1.2187
   90MOL0     H12099   3.495  10.189   9.591  0.7573 -0.1399 -0.8513
   90MOL0     H12100   3.643  10.284   9.565 -0.0014 -1.6601 -1.4415
   90MOL0     H12101   3.696  10.496   9.751  0.9274  2.5320  2.1314
   90MOL0     H12102   3.472  10.745   9.915  0.4893  2.7132 -0.4263
   90MOL0     H12103   3.635  10.677   9.927 -2.3942  2.2062  2.9620
   90MOL0     H12104   3.671  10.750   9.682  2.8277 -0.2640  1.5178
   90MOL0     H12105   3.701  10.859   9.808  2.4975  1.0258 -4.3202
   90MOL0     H12106   3.437  10.810   9.645 -0.4892  0.7361  0.4738
   90MOL0     H12107   3.556  10.938   9.608  0.2027 -2.8508 -1.8773
   90MOL0     H12108   3.403  11.054   9.707 -1.9121 -1.6415 -1.8518
   90MOL0     H12109   3.490  11.013   9.859 -1.2570 -1.1736  1.6482
   90MOL0     H12110   3.182  11.110   9.729 -0.3049  0.0766  1.9637
   90MOL0     H12111   2.920  11.093   9.458  1.9223  0.1851 -0.2361
   90MOL0     H12112   2.902  11.159   9.629  1.2728  1.9512  0.4406
   90MOL0     H12113   3.041  11.193   9.541 -0.1090  0.1256  1.8617
   90MOL0     H12114   2.643  10.892   9.283 -2.1232 -2.2016 -2.5079
   90MOL0     H12115   2.418  10.830   9.251  0.7576 -2.2235 -0.1180
   90MOL0     H12116   2.198  10.832   9.240  2.2800  1.8272  2.7233
   90MOL0     H12117   2.193  10.669   9.298 -1.2478 -0.0705  1.7439
   90MOL0     H12118   1.985  10.875   9.367  1.6094  0.8102 -0.7799
   90MOL0     H12119   1.954  10.735   9.247 -0.6229 -2.1251  1.4259
   90MOL0     H12120   2.023  10.710   9.543  0.4977  1.2611 -0.9008
   90MOL0     H12121   2.040  10.576   9.433  2.5822  1.6789 -0.0577
   90MOL0     H12122   1.813  10.601   9.563 -3.3241 -4.3320 -2.0134
   90MOL0     H12123   1.778  10.727   9.455 -0.3907 -1.1760 -0.7862
   90MOL0     H12124   1.829  10.435   9.387  0.5016  0.2752 -1.2064
   90MOL0     H12125   1.801  10.560   9.259 -3.1989 -1.0442 -1.8911
   90MOL0     H12126   1.611  10.476   9.481  0.0509  3.2671  0.4576
   90MOL0     H12127   1.578  10.615   9.380 -2.5234 -0.4632  0.7547
   90MOL0     H12128   1.654  10.344   9.247  0.2924  0.0520  2.8780
   90MOL0     H12129   1.587  10.492   9.180 -1.0134 -1.0738  0.0350
   90MOL0     H12130   1.460  10.282   9.359 -1.5171 -0.2933  0.3295
   90MOL0     H12131   1.430  10.319   9.192 -1.9308 -0.0844  0.9756
   90MOL0     H12132   2.344  10.843   9.675  0.4424 -1.3993 -0.0102
   90MOL0     H12133   2.594  10.884   9.704  0.6972  0.3260 -1.7286
   90MOL0     H12134   2.981  10.659   9.686 -0.6392  0.5038  1.1094
   90MOL0     H12135   3.167  10.693   9.831 -0.6283 -2.4483 -1.8072
   90MOL0     H12136   3.306   9.354  10.286  1.5873  1.7334 -0.1033
   90MOL0     H12137   3.105   9.338  10.402 -2.7330 -2.1485 -1.3220
   90MOL0     H12138   2.740   9.517  10.537  0.1383 -3.7768  1.1309
   90MOL0     H12139   2.543   9.552  10.666  2.7987 -0.8751  0.0981
   90MOL0     H12140   2.113   9.581  10.608  2.1437  0.3640  0.7137
   90MOL0     H12141   2.157   9.523  10.450  0.5405 -1.4270 -0.7220
   90MOL0     H12142   2.143   9.288  10.516  0.4975  1.9921 -2.0986
   90MOL0     H12143   1.992   9.360  10.563  0.1917 -1.6192 -0.4138
   90MOL0     H12144   2.209   9.357  10.785 -0.5100  1.5306  0.3459
   90MOL0     H12145   2.138   9.195  10.738  3.4220 -0.0479  0.3286
   90MOL0     H12146   2.012   9.438  10.852 -3.5083 -0.3280  0.0963
   90MOL0     H12147   2.031   9.283  10.928  0.2137  1.2002  0.1674
   90MOL0     H12148   1.692   9.201  10.704  0.3975  1.6609  0.4728
   90MOL0     H12149   2.303   9.391  10.341  1.1468 -0.5720 -0.6408
   90MOL0     H12150   2.472   9.380  10.213  2.3340  0.0650 -1.1939
   91MOL0     O12151   8.216   6.928   2.236  0.2770  0.7416 -0.2149
   91MOL0     C12152   8.153   7.019   2.289 -0.3077 -0.5208  0.4315
   91MOL0     O12153   8.015   7.034   2.291  0.1995 -0.1775  0.8579
   91MOL0     C12154   7.922   6.980   2.202 -0.7054  0.4987  0.9905
   91MOL0     C12155   7.951   6.910   2.078  0.2072 -0.6946 -0.2668
   91MOL0     C12156   7.840   6.872   2.003 -0.1641 -0.8261  0.5101
   91MOL0     C12157   7.710   6.899   2.038  0.2817  0.3781 -0.0092
   91MOL0     O12158   7.607   6.862   1.951  0.5795  0.1659 -0.1674
   91MOL0     C12159   7.474   6.865   2.008 -0.1407  0.3293  0.1395
   91MOL0     C12160   7.363   6.811   1.911 -0.7140 -0.5763 -0.1829
   91MOL0     C12161   7.226   6.801   1.966 -0.2520 -0.6145 -0.1691
   91MOL0     C12162   7.135   6.729   1.863 -0.0302  0.1059  0.1089
   91MOL0     C12163   7.131   6.582   1.879  0.0450 -0.1540 -0.1798
   91MOL0     C12164   7.049   6.545   2.007 -0.2416  0.7961  0.0305
   91MOL0     C12165   6.989   6.407   1.990 -0.2513  0.4755 -0.2627
   91MOL0     C12166   6.914   6.365   2.124  0.1220  0.5549 -0.0031
   91MOL0     N12167   6.789   6.436   2.161 -0.4005  0.4655  0.3297
   91MOL0     C12168   6.676   6.450   2.089 -0.5708 -0.3446  0.1997
   91MOL0     C12169   6.624   6.561   2.127 -0.4486 -0.6432 -0.2207
   91MOL0     C12170   6.511   6.634   2.062 -0.4566  0.0616 -0.6781
   91MOL0     C12171   6.560   6.769   2.015 -1.1397  0.0399 -0.0089
   91MOL0     C12172   6.506   6.885   2.095  0.0775  0.7647 -0.4057
   91MOL0     C12173   6.554   7.016   2.028 -0.5391 -0.5534  0.1136
   91MOL0     O12174   6.526   7.145   2.099 -0.2725  0.1499  0.3016
   91MOL0     C12175   6.397   7.185   2.077  0.8628 -0.1435 -0.8308
   91MOL0     C12176   6.297   7.119   2.003  0.7924  0.3188  0.5016
   91MOL0     C12177   6.170   7.184   1.981 -0.0554 -0.6193 -0.3379
   91MOL0     C12178   6.076   7.093   1.912 -0.4340 -0.0959 -0.2062
   91MOL0     C12179   6.151   7.306   2.040  0.3391 -0.3239  0.2217
   91MOL0     C12180   6.020   7.395   2.026  1.0417 -0.1810 -0.7580
   91MOL0     O12181   5.987   7.473   2.130  0.0963  0.7071 -0.4773
   91MOL0     C12182   5.869   7.542   2.138  0.4202  0.5342 -0.5147
   91MOL0     C12183   5.816   7.559   2.269  0.8218  0.3590 -0.0087
   91MOL0     C12184   5.695   7.627   2.284  0.7765  0.8529 -0.5604
   91MOL0     C12185   5.620   7.672   2.175  0.2095 -0.0061 -0.2020
   91MOL0     O12186   5.490   7.718   2.195 -0.6295 -0.6443  0.5947
   91MOL0     C12187   5.394   7.612   2.215  0.3065  0.8587  0.1995
   91MOL0     C12188   5.296   7.607   2.095 -0.2979 -0.6379 -0.1078
   91MOL0     C12189   5.211   7.735   2.069 -0.0225 -0.0969  0.0208
   91MOL0     C12190   5.071   7.724   2.145  0.4196 -0.1735 -0.0740
   91MOL0     C12191   4.956   7.816   2.087  0.1166  0.3015  0.4313
   91MOL0     C12192   4.830   7.803   2.176  0.0315 -0.1575 -0.1364
   91MOL0     C12193   4.729   7.917   2.138 -0.9113  0.2953  0.1207
   91MOL0     C12194   4.599   7.899   2.222 -0.8603 -0.6775 -0.0673
   91MOL0    Cl12195   4.478   8.020   2.177 -0.5589 -0.1725  0.1656
   91MOL0     C12196   5.680   7.662   2.050  0.1112 -0.4397  0.5185
   91MOL0     C12197   5.804   7.601   2.027  0.7553  0.4721 -0.3882
   91MOL0     O12198   5.957   7.388   1.920  0.1087 -0.3323  0.3871
   91MOL0     C12199   6.247   7.369   2.120 -0.3090 -0.0081 -0.6680
   91MOL0     C12200   6.373   7.308   2.142  0.6766 -0.0839 -1.3222
   91MOL0     N12201   6.697   6.618   2.236  0.3597  0.5329 -0.7095
   91MOL0     N12202   6.790   6.532   2.261  0.1332 -0.6330 -0.5815
   91MOL0     C12203   7.682   6.966   2.161  0.1398 -0.4851  0.0273
   91MOL0     C12204   7.793   6.989   2.244  0.2385  0.0469  0.0414
   91MOL0     C12205   8.234   7.112   2.372 -0.0071 -0.5856 -1.1974
   91MOL0     C12206   8.177   7.223   2.435 -0.1059 -0.7050 -0.3345
   91MOL0     C12207   8.257   7.310   2.511 -0.3987 -0.2115 -0.4483
   91MOL0     C12208   8.389   7.285   2.528 -0.4432  0.2886 -0.4767
   91MOL0     O12209   8.454   7.384   2.589  0.1680 -0.0661  0.2285
   91MOL0     C12210   8.580   7.360   2.647 -1.6378 -0.3240  0.8763
   91MOL0     C12211   8.562   7.350   2.802 -0.0598 -0.0376 -0.3074
   91MOL0     C12212   8.692   7.316   2.874  0.2239  0.0596  0.3065
   91MOL0     C12213   8.665   7.300   3.029 -0.7527 -0.3804 -0.1992
   91MOL0     C12214   8.685   7.435   3.089  0.5064  1.2406  0.1012
   91MOL0     C12215   8.724   7.539   3.135  0.1295 -0.3899 -0.1997
   91MOL0     C12216   8.450   7.174   2.455  0.4860 -0.6954  0.0042
   91MOL0     C12217   8.371   7.089   2.378 -0.6030  0.1360  0.2900
   91MOL0     H12218   8.054   6.888   2.051  2.4598 -0.4986  6.2982
   91MOL0     H12219   7.857   6.834   1.903  0.7926  0.5836  0.0983
   91MOL0     H12220   7.474   6.807   2.101 -3.7987  1.5286  1.0781
   91MOL0     H12221   7.456   6.969   2.035 -1.4891 -0.2482  1.6367
   91MOL0     H12222   7.366   6.864   1.816 -0.4256 -1.8176 -0.8920
   91MOL0     H12223   7.394   6.709   1.885  1.8132 -0.6999  2.6949
   91MOL0     H12224   7.232   6.748   2.062  3.8277 -2.1368 -1.0812
   91MOL0     H12225   7.182   6.898   1.993  1.7981  0.4168 -0.3330
   91MOL0     H12226   7.033   6.765   1.881  0.7861  1.1709  3.3499
   91MOL0     H12227   7.166   6.754   1.761 -0.3422 -2.5674 -0.7092
   91MOL0     H12228   7.077   6.543   1.792 -0.8244 -0.2635  0.3992
   91MOL0     H12229   7.232   6.541   1.872  0.0055 -0.3009  0.0915
   91MOL0     H12230   7.103   6.557   2.101 -1.4626 -3.3422  1.5028
   91MOL0     H12231   6.963   6.612   2.020 -0.7790  0.6240 -2.2390
   91MOL0     H12232   6.926   6.411   1.901  0.3510  0.3561 -0.7013
   91MOL0     H12233   7.074   6.341   1.969  0.7038  1.4615  0.4056
   91MOL0     H12234   6.984   6.366   2.209 -0.5606  0.0849  0.5777
   91MOL0     H12235   6.890   6.260   2.107  0.7229  0.3511  0.3777
   91MOL0     H12236   6.648   6.394   2.000  2.8132 -1.5450 -0.2943
   91MOL0     H12237   6.463   6.567   1.989 -0.0902  0.0384 -0.8973
   91MOL0     H12238   6.431   6.646   2.136  0.8841 -2.1798  1.3017
   91MOL0     H12239   6.540   6.779   1.908  2.6727 -0.3817 -0.8934
   91MOL0     H12240   6.669   6.770   2.018 -1.0943 -0.9184 -0.8503
   91MOL0     H12241   6.550   6.878   2.195 -0.6497  0.3863 -0.1018
   91MOL0     H12242   6.397   6.888   2.099 -0.2491 -0.0404 -4.7583
   91MOL0     H12243   6.525   7.019   1.922  0.2810 -2.2214 -0.1754
   91MOL0     H12244   6.662   7.018   2.011 -0.6514  0.9805 -0.6611
   91MOL0     H12245   6.318   7.021   1.963 -0.4852 -0.6557  2.1067
   91MOL0     H12246   6.129   7.041   1.831 -2.2460 -2.8979  0.2845
   91MOL0     H12247   6.030   7.018   1.978 -0.6774  1.3123  1.2770
   91MOL0     H12248   5.990   7.146   1.871 -0.5144  0.5679  0.7793
   91MOL0     H12249   5.880   7.533   2.353  0.0991  0.3987  0.5611
   91MOL0     H12250   5.662   7.654   2.384 -1.7949 -2.3296 -0.3904
   91MOL0     H12251   5.446   7.517   2.223 -0.2808  0.3741 -1.2719
   91MOL0     H12252   5.343   7.640   2.307  0.8278  2.3243  0.0662
   91MOL0     H12253   5.353   7.578   2.007 -4.3046 -5.9726 -1.4869
   91MOL0     H12254   5.233   7.518   2.104 -0.3955 -0.4369  1.5005
   91MOL0     H12255   5.202   7.754   1.961 -1.2746  1.4375  0.3567
   91MOL0     H12256   5.267   7.818   2.110 -0.6494 -0.8620  2.6020
   91MOL0     H12257   5.037   7.621   2.155 -0.1993 -0.1085 -1.2599
   91MOL0     H12258   5.086   7.749   2.250  2.8234  0.6714 -0.5596
   91MOL0     H12259   4.933   7.794   1.982  0.6184 -1.5806  0.6784
   91MOL0     H12260   5.001   7.916   2.089  2.7539 -0.6651 -2.4190
   91MOL0     H12261   4.783   7.709   2.146 -0.2525  0.0450 -0.3347
   91MOL0     H12262   4.847   7.805   2.284 -1.7085 -1.2523  0.1970
   91MOL0     H12263   4.721   7.924   2.030  0.1716  1.3379  0.0955
   91MOL0     H12264   4.760   8.018   2.165  0.5188 -0.5968  2.0611
   91MOL0     H12265   4.612   7.899   2.330 -0.8796 -2.5229 -0.0386
   91MOL0     H12266   4.564   7.797   2.205 -1.2813 -0.6134  0.4069
   91MOL0     H12267   5.633   7.720   1.971 -0.5659 -0.7916  0.6535
   91MOL0     H12268   5.855   7.603   1.931 -1.0078 -0.7036 -1.4025
   91MOL0     H12269   6.234   7.466   2.166  1.3919  0.1492 -0.4449
   91MOL0     H12270   6.453   7.344   2.206 -1.2621  1.9217  0.1472
   91MOL0     H12271   7.586   7.004   2.196 -0.5390  0.4456 -2.6202
   91MOL0     H12272   7.773   7.044   2.335 -0.8198  0.6112 -0.5028
   91MOL0     H12273   8.071   7.248   2.433 -0.4355 -1.7761  1.3815
   91MOL0     H12274   8.226   7.402   2.561  2.6981  0.6568  0.0999
   91MOL0     H12275   8.623   7.264   2.616 -2.0601 -0.3190  0.2631
   91MOL0     H12276   8.642   7.440   2.605 -3.1877  0.8811  0.8070
   91MOL0     H12277   8.488   7.273   2.822 -2.3344  2.3763  1.2900
   91MOL0     H12278   8.529   7.447   2.840  2.7616  1.6543 -1.8513
   91MOL0     H12279   8.770   7.388   2.850  0.7569 -0.6942 -0.2786
   91MOL0     H12280   8.729   7.221   2.834 -0.0743  0.3408 -0.6589
   91MOL0     H12281   8.734   7.224   3.067  0.2259 -0.7689 -2.5428
   91MOL0     H12282   8.560   7.275   3.038 -0.7872 -0.3044 -0.3744
   91MOL0     H12283   8.769   7.628   3.172  1.0240 -0.0205 -2.0608
   91MOL0     H12284   8.558   7.167   2.442  1.2564  4.0045  1.9448
   91MOL0     H12285   8.416   7.013   2.314  3.3434  0.3905  2.4301
   92MOL0     O12286   6.891   3.873  10.715  0.9892 -0.4846  0.0781
   92MOL0     C12287   6.825   3.959  10.653  0.0116 -0.5478  0.8629
   92MOL0     O12288   6.847   4.096  10.652  0.1379  0.1023  0.1451
   92MOL0     C12289   6.946   4.143  10.736 -0.5470  0.4874 -0.2325
   92MOL0     C12290   7.080   4.085  10.739 -0.9130  0.2312 -0.0504
   92MOL0     C12291   7.180   4.146  10.825 -0.2202 -0.3185  0.5452
   92MOL0     C12292   7.150   4.261  10.896 -0.0605 -0.0907  0.4458
   92MOL0     O12293   7.239   4.334  10.976 -0.4511 -0.2538 -0.8253
   92MOL0     C12294   7.379   4.292  10.974 -0.4442  0.4442 -0.4773
   92MOL0     C12295   7.470   4.402  11.021 -0.3354 -0.8297  1.0132
   92MOL0     C12296   7.618   4.360  11.026  0.3776 -0.2923  0.0831
   92MOL0     C12297   7.714   4.483  11.034  0.2192 -0.6763 -0.0770
   92MOL0     C12298   7.757   4.543  10.899  0.3882  0.1947  0.5721
   92MOL0     C12299   7.899   4.517  10.862  0.4173 -0.4386 -0.6489
   92MOL0     C12300   7.931   4.612  10.743  0.1544 -0.3135 -0.2276
   92MOL0     C12301   7.866   4.564  10.618  0.4388 -0.6328 -0.0944
   92MOL0     N12302   7.924   4.648  10.512  0.7222  0.4363  0.5323
   92MOL0     C12303   7.868   4.762  10.459  0.0693 -0.5612 -0.3645
   92MOL0     C12304   7.941   4.796  10.351 -0.6381  0.1222  0.3219
   92MOL0     C12305   7.928   4.922  10.268  0.4605 -0.5618  0.4771
   92MOL0     C12306   7.817   4.888  10.165  0.8806  0.6587  0.0466
   92MOL0     C12307   7.895   4.824  10.041  0.1451  0.3488 -0.0254
   92MOL0     C12308   7.793   4.797   9.931 -0.2117 -0.0102 -0.3070
   92MOL0     O12309   7.847   4.713   9.825  0.4811 -0.3698  0.3965
   92MOL0     C12310   7.960   4.758   9.760 -0.9246 -0.2080 -0.1035
   92MOL0     C12311   8.049   4.662   9.713  0.0614 -0.6266  0.5402
   92MOL0     C12312   8.158   4.698   9.630  0.9180 -0.2019 -0.2358
   92MOL0     C12313   8.242   4.583   9.586 -0.8526  1.7440  0.1222
   92MOL0     C12314   8.187   4.832   9.601 -0.5433  1.2560 -0.5015
   92MOL0     C12315   8.306   4.870   9.517  0.3858 -0.4971 -0.2113
   92MOL0     O12316   8.407   4.781   9.494 -0.0509  0.1267  0.2830
   92MOL0     C12317   8.529   4.820   9.439  0.6670 -0.3905 -0.5384
   92MOL0     C12318   8.532   4.893   9.327  0.1449  0.5234 -0.6587
   92MOL0     C12319   8.660   4.947   9.287  0.9284  0.2118 -0.6132
   92MOL0     C12320   8.775   4.936   9.358 -0.4964 -0.8069 -0.2723
   92MOL0     O12321   8.900   4.980   9.313 -0.1866  0.4679 -0.0781
   92MOL0     C12322   8.901   5.102   9.233  0.1226  0.5020  0.3318
   92MOL0     C12323   9.029   5.183   9.224  0.2159  0.3727 -0.0515
   92MOL0     C12324   9.133   5.103   9.146 -0.2365 -0.2392  0.7036
   92MOL0     C12325   9.259   5.180   9.163 -0.2739  0.8779  0.2414
   92MOL0     C12326   9.354   5.141   9.065  0.5181 -0.3979  0.4938
   92MOL0     C12327   9.490   5.189   9.099  0.2776  0.8359  0.5644
   92MOL0     C12328   9.576   5.182   8.971  0.2380 -0.3182 -1.5079
   92MOL0     C12329   9.714   5.222   9.003 -0.5228  0.7051 -0.6473
   92MOL0    Cl12330   9.758   5.391   9.013  0.2320 -0.1735  0.0070
   92MOL0     C12331   8.776   4.859   9.474  0.4406 -0.4675 -0.8458
   92MOL0     C12332   8.650   4.808   9.517  0.5020  0.3427  0.1681
   92MOL0     O12333   8.309   4.990   9.481  0.2112 -0.6189 -0.1753
   92MOL0     C12334   8.092   4.932   9.637  1.1308 -0.1525  0.4798
   92MOL0     C12335   7.980   4.890   9.704 -0.2063 -0.1107  0.2464
   92MOL0     N12336   8.039   4.702  10.343 -0.7710  0.4052 -0.1784
   92MOL0     N12337   8.032   4.615  10.441  0.1787  0.1372  1.0485
   92MOL0     C12338   7.018   4.314  10.902  0.0566 -0.7589  0.1906
   92MOL0     C12339   6.921   4.253  10.820  0.1066 -0.2819  0.0682
   92MOL0     C12340   6.720   3.910  10.567 -0.2706  0.1175 -0.9100
   92MOL0     C12341   6.647   3.991  10.481 -0.4635 -0.4825 -0.0951
   92MOL0     C12342   6.537   3.946  10.402 -0.0923 -0.4806 -0.3343
   92MOL0     C12343   6.509   3.810  10.391  0.2941  0.2847  0.2301
   92MOL0     O12344   6.413   3.773  10.302 -0.7527  0.6076 -0.9921
   92MOL0     C12345   6.341   3.655  10.322 -0.2562 -0.2076 -0.3559
   92MOL0     C12346   6.245   3.668  10.440 -0.3930 -0.3792  0.9039
   92MOL0     C12347   6.162   3.542  10.464 -0.7689 -0.9658 -0.4355
   92MOL0     C12348   6.040   3.511  10.365  0.4864  0.0342  0.1018
   92MOL0     C12349   6.083   3.453  10.242 -0.7470  0.0934  0.3563
   92MOL0     C12350   6.139   3.407  10.141 -0.4556  0.2277  0.1377
   92MOL0     C12351   6.598   3.722  10.455  0.3225 -0.0327 -0.3667
   92MOL0     C12352   6.688   3.776  10.547  0.0175  0.1713  0.0401
   92MOL0     H12353   7.111   3.999  10.681 -0.2151  0.7627 -0.4848
   92MOL0     H12354   7.284   4.114  10.819 -0.3361 -0.5080 -0.8023
   92MOL0     H12355   7.393   4.213  11.048  0.2006  1.3639  0.4034
   92MOL0     H12356   7.411   4.251  10.878  0.0502  1.3506 -0.7140
   92MOL0     H12357   7.462   4.488  10.954  3.6348 -1.3541 -0.3745
   92MOL0     H12358   7.437   4.420  11.124  0.0327 -1.9493  1.3421
   92MOL0     H12359   7.625   4.299  11.117  0.3465  0.4132  0.5675
   92MOL0     H12360   7.647   4.299  10.940  0.3542  0.1922 -0.2729
   92MOL0     H12361   7.669   4.558  11.099  2.5602  0.8992 -0.1699
   92MOL0     H12362   7.802   4.453  11.091  0.2391  2.1299  1.5208
   92MOL0     H12363   7.693   4.500  10.822  1.2387  0.0949 -0.0880
   92MOL0     H12364   7.743   4.651  10.910  1.0427  0.2328  1.1830
   92MOL0     H12365   7.954   4.546  10.952  0.1900 -2.1637  0.0875
   92MOL0     H12366   7.908   4.411  10.837  1.9407 -0.2950 -0.8280
   92MOL0     H12367   7.909   4.716  10.770  2.3310 -0.2455  1.6665
   92MOL0     H12368   8.041   4.616  10.741  0.1962  0.8181  1.4472
   92MOL0     H12369   7.758   4.575  10.619  0.5490  0.6131 -0.4740
   92MOL0     H12370   7.869   4.459  10.588 -0.1328 -0.1696 -1.9270
   92MOL0     H12371   7.776   4.808  10.493 -0.3929 -1.2662 -0.6324
   92MOL0     H12372   7.900   5.000  10.339 -1.5546  0.5478 -1.4147
   92MOL0     H12373   8.018   4.958  10.218  1.2256 -0.3182  1.9617
   92MOL0     H12374   7.778   4.985  10.133 -0.2994  1.2394  2.8872
   92MOL0     H12375   7.735   4.824  10.200  0.3500  1.3715  0.1417
   92MOL0     H12376   7.937   4.734  10.089  2.5204  2.0163  1.2518
   92MOL0     H12377   7.975   4.892  10.010  2.2043 -1.3909  1.1727
   92MOL0     H12378   7.761   4.889   9.881  0.2961  0.8647  0.9266
   92MOL0     H12379   7.702   4.752   9.972 -0.8120  1.5665  0.1485
   92MOL0     H12380   8.032   4.562   9.753 -4.8733  0.7713  2.7491
   92MOL0     H12381   8.338   4.599   9.636 -0.7361  1.9101 -0.1524
   92MOL0     H12382   8.196   4.487   9.614  0.4550  1.0246 -0.1216
   92MOL0     H12383   8.259   4.586   9.478  1.5490  1.2008  0.4337
   92MOL0     H12384   8.440   4.909   9.272 -0.1176 -0.2772 -0.4678
   92MOL0     H12385   8.668   5.002   9.194  3.6570 -2.4058 -2.1106
   92MOL0     H12386   8.874   5.065   9.133  2.9785  0.1542 -0.4053
   92MOL0     H12387   8.816   5.168   9.253  0.9168  2.1965 -1.4788
   92MOL0     H12388   9.007   5.273   9.167 -3.0648 -0.1672  0.1422
   92MOL0     H12389   9.061   5.220   9.322 -2.3038  1.7898  0.3256
   92MOL0     H12390   9.101   5.094   9.041 -0.0371 -1.7251  0.7364
   92MOL0     H12391   9.161   5.007   9.191  2.4551  0.5289  0.8670
   92MOL0     H12392   9.228   5.283   9.142 -1.5306  0.2383 -1.2221
   92MOL0     H12393   9.297   5.168   9.265  1.4478  0.6563 -0.3924
   92MOL0     H12394   9.330   5.184   8.967 -2.0989 -1.5010  0.5660
   92MOL0     H12395   9.357   5.033   9.048 -0.5560 -0.3819  0.1679
   92MOL0     H12396   9.496   5.290   9.139 -0.0347  0.5164  1.4464
   92MOL0     H12397   9.537   5.121   9.172  0.1850 -0.1172 -0.2432
   92MOL0     H12398   9.525   5.251   8.904  0.1852  1.3354  0.1809
   92MOL0     H12399   9.575   5.080   8.931  0.2277 -1.3077  0.8861
   92MOL0     H12400   9.775   5.191   8.918  1.3478  1.0485  0.5110
   92MOL0     H12401   9.742   5.162   9.091 -2.1751 -0.4159 -0.8259
   92MOL0     H12402   8.858   4.833   9.541  1.1734 -1.3256 -2.0218
   92MOL0     H12403   8.642   4.750   9.608  2.0648 -0.3018 -0.0717
   92MOL0     H12404   8.101   5.038   9.612  2.2022  0.3454  2.6848
   92MOL0     H12405   7.911   4.972   9.722 -1.7871 -1.0442 -1.3097
   92MOL0     H12406   7.004   4.402  10.964  1.9945  0.9553 -1.6659
   92MOL0     H12407   6.821   4.296  10.814 -0.4503 -1.7024 -1.7695
   92MOL0     H12408   6.673   4.096  10.489 -0.3688 -0.3899 -1.4056
   92MOL0     H12409   6.477   4.018  10.349  1.9099  0.7018 -1.0988
   92MOL0     H12410   6.293   3.653  10.224  3.0551 -1.6488 -2.0743
   92MOL0     H12411   6.404   3.566  10.329  0.2027 -0.1789 -3.1719
   92MOL0     H12412   6.177   3.749  10.412  3.0725  2.0603 -1.1980
   92MOL0     H12413   6.303   3.703  10.526 -0.5513  3.4565 -0.3891
   92MOL0     H12414   6.136   3.529  10.569 -1.6644 -2.0655 -0.7673
   92MOL0     H12415   6.225   3.453  10.455 -2.1218 -2.0322  0.2250
   92MOL0     H12416   5.979   3.599  10.347  0.8332  0.6089  1.5845
   92MOL0     H12417   5.969   3.444  10.415 -0.7579  1.6616  0.5908
   92MOL0     H12418   6.176   3.389  10.042 -0.2521  0.9110  0.0841
   92MOL0     H12419   6.589   3.616  10.431 -1.1342  0.3899 -1.8327
   92MOL0     H12420   6.749   3.707  10.604 -1.0899 -0.6995  0.2049
   93MOL0     O12421  10.569  10.546   0.462 -0.4398 -0.1223  1.0675
   93MOL0     C12422  10.548  10.475   0.366 -0.4999  0.8409  0.1486
   93MOL0     O12423  10.428  10.430   0.326 -0.7497  0.2075 -0.3234
   93MOL0     C12424  10.315  10.448   0.404 -0.3370 -0.3158 -0.3636
   93MOL0     C12425  10.258  10.579   0.415 -0.4446  0.4133 -0.1988
   93MOL0     C12426  10.160  10.601   0.513 -0.0531  0.6265 -0.3978
   93MOL0     C12427  10.104  10.488   0.576  0.2600 -0.0165 -0.2538
   93MOL0     O12428  10.003  10.503   0.667 -0.6836 -0.1790 -0.1362
   93MOL0     C12429  10.042  10.573   0.786  0.1134  0.1770 -0.3453
   93MOL0     C12430   9.939  10.520   0.892  0.0441  0.5555  0.5933
   93MOL0     C12431   9.787  10.554   0.844 -0.1661 -0.8138  0.1996
   93MOL0     C12432   9.734  10.702   0.854  0.8631  0.5782 -0.3163
   93MOL0     C12433   9.574  10.702   0.838 -0.2984 -0.1249  0.2074
   93MOL0     C12434   9.539  10.850   0.838 -0.3250  0.1989 -0.0667
   93MOL0     C12435   9.394  10.870   0.825 -0.1322  0.1652 -0.1581
   93MOL0     C12436   9.340  10.841   0.685 -0.0757  0.3141 -0.4955
   93MOL0     N12437   9.197  10.825   0.679  0.2187  0.7834  0.3669
   93MOL0     C12438   9.115  10.901   0.603 -0.7239 -0.6080  0.7495
   93MOL0     C12439   9.001  10.832   0.577  0.0353  0.4733  0.9990
   93MOL0     C12440   8.881  10.851   0.500  0.0374 -0.0382 -0.1395
   93MOL0     C12441   8.806  10.722   0.466  0.5919  0.0898  0.0225
   93MOL0     C12442   8.716  10.761   0.348 -0.5566 -0.3973  0.0555
   93MOL0     C12443   8.603  10.665   0.337  0.1635 -0.0155 -0.1929
   93MOL0     O12444   8.502  10.733   0.270  0.5015 -0.1483  0.2654
   93MOL0     C12445   8.388  10.678   0.233  0.1495  0.0771 -0.7401
   93MOL0     C12446   8.318  10.758   0.142 -0.1070  0.2552 -0.0719
   93MOL0     C12447   8.189  10.725   0.091  0.9572  0.1906 -0.6540
   93MOL0     C12448   8.139  10.821  -0.004  0.0917 -0.4292  0.9109
   93MOL0     C12449   8.126  10.606   0.135  0.7055 -0.6629  0.1421
   93MOL0     C12450   7.981  10.569   0.104  0.0277 -0.0134  0.1906
   93MOL0     O12451   7.942  10.445   0.148  0.5062  0.6526 -0.8012
   93MOL0     C12452   7.828  10.380   0.100 -0.4628 -0.4813  0.3479
   93MOL0     C12453   7.780  10.399  -0.030  0.2636 -0.5513 -1.3412
   93MOL0     C12454   7.658  10.335  -0.070  0.6799  0.0507 -0.5368
   93MOL0     C12455   7.576  10.269   0.025 -0.8978  0.5178  0.0292
   93MOL0     O12456   7.450  10.239  -0.024 -0.0472  0.5701 -0.4748
   93MOL0     C12457   7.344  10.267   0.065  0.4319  0.0187 -0.4747
   93MOL0     C12458   7.216  10.279  -0.006  0.8929 -0.8440  0.1871
   93MOL0     C12459   7.105  10.363   0.053  0.7533 -0.6466 -0.1078
   93MOL0     C12460   6.965  10.294   0.028 -0.0371  0.0242  0.5483
   93MOL0     C12461   6.862  10.360   0.107  0.1157 -1.0492 -0.2603
   93MOL0     C12462   6.721  10.309   0.070  0.6512 -0.6021 -0.1635
   93MOL0     C12463   6.691  10.172   0.132 -0.5251 -0.7615 -0.7405
   93MOL0     C12464   6.544  10.129   0.095  1.5247  0.3433 -0.1971
   93MOL0    Cl12465   6.422  10.266   0.110 -0.0071  0.2249 -0.2000
   93MOL0     C12466   7.619  10.252   0.158  0.4860  0.2396  0.2310
   93MOL0     C12467   7.742  10.304   0.189 -0.7340 -0.0147  0.3729
   93MOL0     O12468   7.910  10.642   0.035  0.4568 -0.1130  0.9312
   93MOL0     C12469   8.195  10.522   0.226  0.4945 -0.2267  0.2338
   93MOL0     C12470   8.324  10.560   0.277  0.4061  0.5257  0.0985
   93MOL0     N12471   9.009  10.724   0.666 -0.5628 -0.0757  0.0960
   93MOL0     N12472   9.135  10.713   0.711  0.2604  0.0107 -0.1877
   93MOL0     C12473  10.162  10.358   0.566  0.3504 -0.4036 -0.4327
   93MOL0     C12474  10.279  10.346   0.487  0.4255  0.6526  0.0470
   93MOL0     C12475  10.664  10.443   0.271  0.0492 -0.5471 -0.0668
   93MOL0     C12476  10.774  10.533   0.268 -0.1526  0.9279  0.4654
   93MOL0     C12477  10.884  10.510   0.179 -0.2721 -0.0005 -0.0983
   93MOL0     C12478  10.886  10.409   0.091 -0.2650 -0.4339  0.2444
   93MOL0     O12479  10.994  10.387   0.003  0.5882  0.4863 -0.7748
   93MOL0     C12480  11.114  10.458   0.021 -0.0771 -0.3389 -0.6026
   93MOL0     C12481  11.178  10.412   0.153  0.0509 -0.3328 -0.0777
   93MOL0     C12482  11.330  10.382   0.153  0.6163 -0.5190  0.2401
   93MOL0     C12483  11.404  10.507   0.099 -0.0118  0.5448  0.2099
   93MOL0     C12484  11.550  10.491   0.076  0.2963  0.1075  0.2205
   93MOL0     C12485  11.668  10.468   0.066  0.1337  1.0749  0.4623
   93MOL0     C12486  10.777  10.335   0.081  0.4807  0.5218  0.3122
   93MOL0     C12487  10.668  10.348   0.171  0.4813  0.3328 -0.0573
   93MOL0     H12488  10.301  10.656   0.352  1.3614  2.1965  2.9751
   93MOL0     H12489  10.123  10.696   0.552 -1.1743 -0.3341  0.9717
   93MOL0     H12490  10.139  10.530   0.810 -0.1310 -0.5289 -0.5838
   93MOL0     H12491  10.049  10.682   0.780  1.8355  0.4489  3.7550
   93MOL0     H12492   9.950  10.412   0.903  0.2166  0.3169 -1.5708
   93MOL0     H12493   9.957  10.559   0.993 -1.1738  2.2222  0.2034
   93MOL0     H12494   9.771  10.530   0.738  0.2144  0.0872 -0.0713
   93MOL0     H12495   9.720  10.493   0.904  0.8841 -1.5505  0.6624
   93MOL0     H12496   9.764  10.747   0.949  1.3864 -1.2030  0.4079
   93MOL0     H12497   9.773  10.763   0.773 -1.9194  3.0488  0.0238
   93MOL0     H12498   9.544  10.644   0.751  0.9309  0.3988 -0.5911
   93MOL0     H12499   9.542  10.654   0.931  2.2721 -3.0657 -0.2485
   93MOL0     H12500   9.583  10.914   0.916 -0.1656 -2.0824  1.8402
   93MOL0     H12501   9.593  10.877   0.747 -1.5988 -3.4131 -2.0843
   93MOL0     H12502   9.343  10.806   0.899 -0.0628  2.9126  2.4651
   93MOL0     H12503   9.364  10.973   0.849 -2.1484 -1.1051  3.7376
   93MOL0     H12504   9.383  10.747   0.649 -1.2248 -0.9152  1.2265
   93MOL0     H12505   9.376  10.923   0.622  2.2003  1.1648  1.6927
   93MOL0     H12506   9.142  10.997   0.561 -0.3062 -2.3726 -3.5896
   93MOL0     H12507   8.821  10.924   0.555 -1.7570  1.5747 -3.8468
   93MOL0     H12508   8.918  10.894   0.407  0.6879 -1.8486 -0.7632
   93MOL0     H12509   8.743  10.693   0.551 -0.0558  1.9762  0.2466
   93MOL0     H12510   8.868  10.633   0.460  0.0152 -0.3060 -0.1561
   93MOL0     H12511   8.763  10.756   0.249  1.1215 -2.6476  0.8939
   93MOL0     H12512   8.677  10.861   0.368 -1.8012 -1.3689  2.8486
   93MOL0     H12513   8.581  10.629   0.438  0.2467 -0.1937 -0.2387
   93MOL0     H12514   8.629  10.581   0.272  1.0516 -0.6136  0.9007
   93MOL0     H12515   8.366  10.849   0.107 -0.4401 -0.6486 -3.1460
   93MOL0     H12516   8.136  10.764  -0.097  0.3180 -2.5269  2.1339
   93MOL0     H12517   8.040  10.855   0.028  1.1017  1.6683  2.0078
   93MOL0     H12518   8.207  10.907  -0.014  2.0993 -2.0530 -0.1816
   93MOL0     H12519   7.841  10.436  -0.112 -1.1216  3.3170 -0.8375
   93MOL0     H12520   7.628  10.330  -0.174 -0.1417 -0.5105 -0.2857
   93MOL0     H12521   7.330  10.190   0.143  1.1509  0.8201  0.4746
   93MOL0     H12522   7.361  10.366   0.107 -1.0344 -0.0526  0.3541
   93MOL0     H12523   7.232  10.321  -0.106  1.0714 -1.3326  0.0045
   93MOL0     H12524   7.168  10.181  -0.017  0.3391 -0.4886 -0.6835
   93MOL0     H12525   7.110  10.453  -0.010  1.7142 -1.4708 -1.2405
   93MOL0     H12526   7.115  10.375   0.161 -0.7589 -1.9115  0.2141
   93MOL0     H12527   6.946  10.278  -0.078  3.3798  0.9375 -0.3144
   93MOL0     H12528   6.971  10.191   0.065  1.2910 -0.2781 -0.4515
   93MOL0     H12529   6.869  10.468   0.089  1.3495 -1.3944 -2.1193
   93MOL0     H12530   6.883  10.342   0.213  0.1610  0.3281 -0.0117
   93MOL0     H12531   6.642  10.377   0.102 -2.4304 -3.2090 -1.5306
   93MOL0     H12532   6.710  10.295  -0.038 -0.3972 -1.8634  0.0737
   93MOL0     H12533   6.697  10.172   0.242 -1.1805 -1.5324 -0.6926
   93MOL0     H12534   6.756  10.096   0.088 -1.2750 -2.6211  1.1884
   93MOL0     H12535   6.507  10.042   0.149 -1.4627  2.7169  1.9288
   93MOL0     H12536   6.536  10.093  -0.008  0.0520 -1.9433  0.6422
   93MOL0     H12537   7.568  10.195   0.235 -0.8115  0.8911 -0.1048
   93MOL0     H12538   7.789  10.302   0.287  2.3807  0.8572 -0.9967
   93MOL0     H12539   8.152  10.433   0.273  0.0953  0.6401  1.5781
   93MOL0     H12540   8.354  10.480   0.345 -1.3507 -1.4609 -1.3174
   93MOL0     H12541  10.132  10.271   0.623  3.4261 -1.7661 -0.6978
   93MOL0     H12542  10.330  10.250   0.489 -0.9201 -0.2072 -2.5073
   93MOL0     H12543  10.786  10.610   0.343 -0.3233  0.5992  0.8340
   93MOL0     H12544  10.976  10.567   0.191 -0.2592 -0.2253  0.9154
   93MOL0     H12545  11.186  10.435  -0.058  2.1741 -2.0624  1.7706
   93MOL0     H12546  11.087  10.564   0.021 -1.8827 -0.6969  1.9889
   93MOL0     H12547  11.129  10.321   0.188 -2.1524  0.5131 -0.8165
   93MOL0     H12548  11.164  10.481   0.237 -1.7437  0.9705 -1.3873
   93MOL0     H12549  11.347  10.303   0.079  2.3534  1.7935 -2.0509
   93MOL0     H12550  11.369  10.359   0.252  1.0743 -0.0362  0.1782
   93MOL0     H12551  11.383  10.591   0.165 -2.9167 -0.2520  0.4315
   93MOL0     H12552  11.351  10.530   0.006  0.7054  0.6897 -0.1726
   93MOL0     H12553  11.772  10.447   0.062 -0.0943  0.0164 -2.3540
   93MOL0     H12554  10.765  10.280  -0.012  0.3446  0.7001  0.2222
   93MOL0     H12555  10.586  10.278   0.155  1.2363 -0.4036 -0.8403
   94MOL0     O12556   0.020   6.105   6.785 -0.0148 -0.0352  0.2485
   94MOL0     C12557   0.044   6.213   6.825  0.0482 -0.8266  0.4454
   94MOL0     O12558  -0.046   6.323   6.823  0.3192  0.4576 -0.3600
   94MOL0     C12559  -0.183   6.310   6.815  0.2137 -0.0211 -0.3577
   94MOL0     C12560  -0.258   6.421   6.764 -0.3463  0.3118 -0.9705
   94MOL0     C12561  -0.396   6.427   6.752  0.8487 -0.0190  0.0068
   94MOL0     C12562  -0.469   6.315   6.796 -0.0617  0.3333 -0.8070
   94MOL0     O12563  -0.609   6.324   6.783  0.6304  0.3909  0.1411
   94MOL0     C12564  -0.690   6.236   6.864  0.1076 -0.7695 -0.3495
   94MOL0     C12565  -0.731   6.117   6.790 -0.0374  0.0660  0.8910
   94MOL0     C12566  -0.807   6.162   6.658 -0.0761 -0.2014  0.0031
   94MOL0     C12567  -0.895   6.283   6.664 -0.0486 -0.4180 -0.4804
   94MOL0     C12568  -0.975   6.301   6.530  0.5249 -0.0794  0.0585
   94MOL0     C12569  -1.086   6.406   6.544  0.4126  0.0800 -0.5664
   94MOL0     C12570  -1.148   6.415   6.403  0.5550  0.2437 -0.2425
   94MOL0     C12571  -1.257   6.516   6.395  0.5549 -0.1031 -0.3922
   94MOL0     N12572  -1.373   6.493   6.479  0.6056  0.0265  0.0934
   94MOL0     C12573  -1.463   6.386   6.448 -0.2768  0.4210  0.8415
   94MOL0     C12574  -1.560   6.406   6.545 -0.7438 -0.5064  0.1143
   94MOL0     C12575  -1.664   6.303   6.564 -0.5052  0.7626 -0.3812
   94MOL0     C12576  -1.809   6.354   6.564 -0.3673 -0.5468  0.3982
   94MOL0     C12577  -1.852   6.401   6.705  0.9036 -0.1861 -0.0480
   94MOL0     C12578  -2.004   6.442   6.702  0.2104  0.4955 -1.0203
   94MOL0     O12579  -2.035   6.561   6.625 -0.0447  0.0525  0.8340
   94MOL0     C12580  -2.163   6.583   6.590 -0.6455  0.2867  0.3013
   94MOL0     C12581  -2.193   6.641   6.464 -0.8370 -0.5145 -0.1785
   94MOL0     C12582  -2.321   6.673   6.416 -0.2272 -0.2731  0.6462
   94MOL0     C12583  -2.344   6.699   6.271  0.5686  0.6082 -0.8446
   94MOL0     C12584  -2.417   6.663   6.517  0.1396 -0.6444 -0.3695
   94MOL0     C12585  -2.560   6.686   6.486 -0.0155 -0.2881 -0.1826
   94MOL0     O12586  -2.606   6.635   6.360 -0.5443  0.4127  0.4768
   94MOL0     C12587  -2.739   6.646   6.345  0.3519 -0.3647 -0.5569
   94MOL0     C12588  -2.803   6.772   6.327 -1.0427  0.0024 -1.7569
   94MOL0     C12589  -2.943   6.777   6.320  1.0998 -0.1683  0.9275
   94MOL0     C12590  -3.022   6.657   6.318 -0.2769 -0.4128 -0.2104
   94MOL0     O12591  -3.155   6.658   6.289 -0.4659  0.4315 -0.5130
   94MOL0     C12592  -3.237   6.757   6.347  0.3512 -0.0131 -0.9113
   94MOL0     C12593  -3.380   6.707   6.346  0.6536 -0.2029  0.1386
   94MOL0     C12594  -3.406   6.585   6.431 -0.2291  0.0829 -1.2219
   94MOL0     C12595  -3.320   6.584   6.562  0.8573 -0.7391  0.8656
   94MOL0     C12596  -3.353   6.471   6.658 -0.7666  0.4129 -0.4955
   94MOL0     C12597  -3.297   6.330   6.623  0.2468  0.3046 -0.9032
   94MOL0     C12598  -3.352   6.221   6.713 -0.5334 -0.1374  0.3735
   94MOL0     C12599  -3.493   6.168   6.686  0.3020  0.1258  0.4584
   94MOL0    Cl12600  -3.522   6.126   6.515  0.0943 -0.0568  0.1501
   94MOL0     C12601  -2.947   6.537   6.328 -0.1627 -0.0366 -0.1908
   94MOL0     C12602  -2.814   6.537   6.345  0.3473  0.1482 -0.3497
   94MOL0     O12603  -2.626   6.737   6.573 -0.5334 -0.3815  0.4253
   94MOL0     C12604  -2.391   6.626   6.651  0.0543 -0.7390  1.1483
   94MOL0     C12605  -2.265   6.583   6.685 -0.4118  0.0379  0.0373
   94MOL0     N12606  -1.535   6.511   6.627  0.4111 -0.6142 -0.6842
   94MOL0     N12607  -1.423   6.559   6.588 -0.2220 -0.2171 -0.3098
   94MOL0     C12608  -0.400   6.204   6.860 -0.1762 -0.2568  0.5472
   94MOL0     C12609  -0.260   6.199   6.865 -0.7785 -0.3220 -0.4650
   94MOL0     C12610   0.175   6.230   6.887 -0.6075 -0.2032 -0.6602
   94MOL0     C12611   0.180   6.325   6.990 -0.3117 -0.2216 -0.2010
   94MOL0     C12612   0.303   6.345   7.052 -0.0136  0.6648 -0.3332
   94MOL0     C12613   0.413   6.268   7.017  0.4739  0.3127  0.2159
   94MOL0     O12614   0.532   6.279   7.075  0.8167 -0.3116  0.3350
   94MOL0     C12615   0.564   6.392   7.151  0.3119 -0.0755  0.6423
   94MOL0     C12616   0.713   6.365   7.193 -0.4427 -0.1845  0.8554
   94MOL0     C12617   0.816   6.432   7.104 -0.3106 -0.7213  1.2353
   94MOL0     C12618   0.966   6.395   7.131  0.9884  0.0595 -0.7402
   94MOL0     C12619   1.057   6.493   7.068  0.2743 -0.0062 -0.2036
   94MOL0     C12620   1.139   6.575   7.026 -0.0002 -0.2258  0.5337
   94MOL0     C12621   0.403   6.169   6.926  0.2489 -0.0629  0.9793
   94MOL0     C12622   0.287   6.159   6.848 -0.0636  0.0111  0.1502
   94MOL0     H12623  -0.205   6.499   6.710  0.8859  1.4644  1.7511
   94MOL0     H12624  -0.440   6.513   6.702 -2.4316 -0.9463  1.0318
   94MOL0     H12625  -0.642   6.219   6.961  1.5142  3.2092 -0.1795
   94MOL0     H12626  -0.776   6.295   6.897  2.8750  1.5419  3.7337
   94MOL0     H12627  -0.648   6.048   6.772  0.2176  0.8063 -0.9590
   94MOL0     H12628  -0.801   6.057   6.849  1.3214 -2.8516 -0.2577
   94MOL0     H12629  -0.737   6.184   6.576 -3.2186  1.5267 -2.4408
   94MOL0     H12630  -0.865   6.075   6.625  0.6804 -1.4749  1.8785
   94MOL0     H12631  -0.958   6.268   6.752  1.7019 -0.7799  0.7736
   94MOL0     H12632  -0.837   6.374   6.677  0.6555 -0.8938 -0.2369
   94MOL0     H12633  -0.899   6.338   6.460  1.7819 -0.9176  0.9297
   94MOL0     H12634  -1.025   6.214   6.486  3.6179 -2.1514  0.3282
   94MOL0     H12635  -1.154   6.373   6.623  1.5606 -0.9877  0.0106
   94MOL0     H12636  -1.046   6.503   6.574 -0.0244 -0.4637  1.9877
   94MOL0     H12637  -1.082   6.456   6.326 -1.3607  3.4919 -0.3356
   94MOL0     H12638  -1.182   6.318   6.365 -1.3297  0.2054  1.3911
   94MOL0     H12639  -1.283   6.522   6.288  1.7721 -2.5183 -0.9004
   94MOL0     H12640  -1.216   6.613   6.425 -1.1741  0.7465 -0.6893
   94MOL0     H12641  -1.456   6.309   6.372  1.6866  1.4265 -0.0755
   94MOL0     H12642  -1.659   6.220   6.494 -0.6737  0.8977 -0.5548
   94MOL0     H12643  -1.639   6.257   6.661 -0.7771 -0.8018 -1.0210
   94MOL0     H12644  -1.879   6.280   6.524 -0.4419  0.3654 -1.2369
   94MOL0     H12645  -1.813   6.439   6.495  1.3827  0.5112  1.5302
   94MOL0     H12646  -1.811   6.499   6.734 -2.7300  1.2092  0.9361
   94MOL0     H12647  -1.841   6.318   6.775  1.6036  1.0651  1.3760
   94MOL0     H12648  -2.032   6.456   6.806  2.8497 -0.0836 -0.1531
   94MOL0     H12649  -2.064   6.353   6.679 -0.1068  0.3569  0.2637
   94MOL0     H12650  -2.114   6.646   6.390 -1.4783  1.3753 -0.8084
   94MOL0     H12651  -2.258   6.749   6.227 -0.0057  4.5269  1.9058
   94MOL0     H12652  -2.383   6.607   6.225  1.9089 -0.0851 -0.6278
   94MOL0     H12653  -2.427   6.770   6.258  0.7854  1.3657  1.4302
   94MOL0     H12654  -2.749   6.865   6.344 -1.0938 -0.3857  1.1163
   94MOL0     H12655  -2.998   6.871   6.318  2.9821  1.0503 -2.8576
   94MOL0     H12656  -3.200   6.786   6.446  1.8414 -3.5948 -0.2748
   94MOL0     H12657  -3.225   6.847   6.287 -0.2517  0.3286 -0.5272
   94MOL0     H12658  -3.449   6.787   6.375  1.0878 -0.0220  0.6798
   94MOL0     H12659  -3.402   6.683   6.241  0.2936  0.4684  0.0537
   94MOL0     H12660  -3.392   6.495   6.371 -2.6168 -0.8125 -0.5353
   94MOL0     H12661  -3.512   6.588   6.457  0.0173  2.4777 -0.1844
   94MOL0     H12662  -3.213   6.585   6.539  0.2809 -0.4624 -2.3959
   94MOL0     H12663  -3.334   6.676   6.620  3.8653  0.4789 -0.1211
   94MOL0     H12664  -3.458   6.470   6.688 -0.4166  3.0044  1.1254
   94MOL0     H12665  -3.311   6.499   6.755  0.9412  1.6516 -1.5356
   94MOL0     H12666  -3.316   6.302   6.519  1.2166  0.7581 -1.2104
   94MOL0     H12667  -3.190   6.332   6.641  0.6445  2.0855 -3.0125
   94MOL0     H12668  -3.356   6.258   6.816  0.3239 -2.1577  1.1938
   94MOL0     H12669  -3.286   6.134   6.704 -0.9057 -0.3844  0.0057
   94MOL0     H12670  -3.569   6.235   6.728  1.7340  1.3811  1.1418
   94MOL0     H12671  -3.497   6.078   6.748  0.8649  1.1176  1.9795
   94MOL0     H12672  -2.996   6.442   6.306  1.1205 -0.3536 -1.8837
   94MOL0     H12673  -2.775   6.436   6.356 -0.1274 -0.6124 -4.0792
   94MOL0     H12674  -2.467   6.633   6.728 -1.1159 -2.1552  0.1937
   94MOL0     H12675  -2.252   6.558   6.790  0.3423 -4.1279 -0.8818
   94MOL0     H12676  -0.449   6.118   6.903  2.2527 -2.3303 -0.5575
   94MOL0     H12677  -0.214   6.112   6.911 -2.1137 -0.7229  0.1507
   94MOL0     H12678   0.081   6.351   7.026 -1.4441 -0.1874 -3.0786
   94MOL0     H12679   0.309   6.399   7.146 -0.7139  0.4779 -0.1764
   94MOL0     H12680   0.551   6.488   7.100 -0.7404  0.5510  2.0271
   94MOL0     H12681   0.507   6.395   7.244 -0.3973 -0.4029  0.2310
   94MOL0     H12682   0.739   6.259   7.184  2.5764  0.6684 -2.6950
   94MOL0     H12683   0.719   6.403   7.296  1.3324  2.0517  0.0064
   94MOL0     H12684   0.802   6.539   7.089  1.1568 -0.7559 -0.8293
   94MOL0     H12685   0.790   6.406   7.001  2.6504 -0.8102  0.4177
   94MOL0     H12686   0.988   6.291   7.104 -0.5948 -0.6678  0.6152
   94MOL0     H12687   0.978   6.391   7.239 -1.2416 -0.5757 -0.4600
   94MOL0     H12688   1.206   6.651   6.994 -0.2952 -0.3974 -0.5244
   94MOL0     H12689   0.490   6.115   6.890 -1.1581 -1.9357  0.2369
   94MOL0     H12690   0.277   6.089   6.766  0.7377 -1.1076  0.9780
   95MOL0     O12691   3.400   0.208   3.320  0.0371  0.2426  0.1870
   95MOL0     C12692   3.344   0.121   3.388 -0.0740  0.0123 -0.2317
   95MOL0     O12693   3.221   0.125   3.445  0.1944 -0.7208 -0.1427
   95MOL0     C12694   3.153   0.245   3.438  0.0337 -0.2690 -0.9998
   95MOL0     C12695   3.016   0.241   3.426 -0.0874  0.5474  0.5988
   95MOL0     C12696   2.933   0.352   3.438  0.6200 -0.0029 -1.1859
   95MOL0     C12697   2.989   0.476   3.455 -0.1559 -0.6359 -0.2694
   95MOL0     O12698   2.904   0.585   3.462  0.1926  0.2531  0.6420
   95MOL0     C12699   2.948   0.714   3.494  0.1640  0.4255  1.2571
   95MOL0     C12700   2.977   0.750   3.643 -0.0011  0.7234  0.0665
   95MOL0     C12701   2.849   0.751   3.726 -0.8552  0.8032  0.3008
   95MOL0     C12702   2.886   0.788   3.865 -0.9406  0.8020  0.0105
   95MOL0     C12703   2.772   0.810   3.963 -0.0332 -0.6342 -0.1939
   95MOL0     C12704   2.705   0.949   3.949  0.2617  0.6787  0.5063
   95MOL0     C12705   2.607   0.995   4.059  0.1255 -0.7957 -0.2432
   95MOL0     C12706   2.482   0.917   4.066  0.5642  0.3839  0.1513
   95MOL0     N12707   2.405   0.953   4.179 -0.2643 -0.9248 -0.0769
   95MOL0     C12708   2.384   0.879   4.292  0.2611  0.2879  0.3011
   95MOL0     C12709   2.323   0.957   4.380  0.1993  0.8430 -0.7376
   95MOL0     C12710   2.260   0.914   4.516 -0.0635  0.5976  0.3121
   95MOL0     C12711   2.116   0.967   4.534  0.3805  0.1936  1.0594
   95MOL0     C12712   2.032   0.880   4.441  0.8474  0.8656  0.1578
   95MOL0     C12713   1.878   0.899   4.479 -0.3823 -0.2330 -0.5835
   95MOL0     O12714   1.788   0.784   4.463  0.0160 -0.1987  0.4461
   95MOL0     C12715   1.658   0.802   4.502 -0.4909 -0.4123 -0.1592
   95MOL0     C12716   1.607   0.928   4.548  0.2544  0.3171  0.1608
   95MOL0     C12717   1.463   0.944   4.573 -0.0131  0.1043 -0.0753
   95MOL0     C12718   1.414   1.087   4.608  0.3445  0.2236 -0.0726
   95MOL0     C12719   1.375   0.835   4.571 -0.7110 -0.0625  0.3011
   95MOL0     C12720   1.230   0.848   4.595  1.2266 -0.9941  0.1581
   95MOL0     O12721   1.190   0.866   4.725 -0.2976 -0.1038  0.4908
   95MOL0     C12722   1.061   0.910   4.758 -0.4947  0.3570  0.0419
   95MOL0     C12723   1.015   1.034   4.710  0.7244 -0.3463  0.4903
   95MOL0     C12724   0.878   1.070   4.731 -0.6202  0.1516  0.0834
   95MOL0     C12725   0.788   0.990   4.800 -0.3978  0.4583  1.1661
   95MOL0     O12726   0.660   1.031   4.783  0.0896 -0.2444 -0.0988
   95MOL0     C12727   0.561   0.986   4.871 -0.2119  0.2654  0.9656
   95MOL0     C12728   0.446   1.088   4.876  1.3817 -0.0378  0.0583
   95MOL0     C12729   0.327   1.048   4.963  1.0621  0.2631 -0.0199
   95MOL0     C12730   0.202   1.126   4.935 -0.0506  0.4223 -0.4181
   95MOL0     C12731   0.089   1.091   5.024  0.0130  0.2273  0.5615
   95MOL0     C12732  -0.044   1.117   4.955 -0.2594 -1.0867  0.0432
   95MOL0     C12733  -0.137   0.992   4.962 -0.2256 -1.3193  0.2318
   95MOL0     C12734  -0.266   1.013   4.900  0.5680 -0.3803  0.3443
   95MOL0    Cl12735  -0.388   1.106   4.997 -0.2485  0.5510  0.5230
   95MOL0     C12736   0.839   0.867   4.852 -0.6804 -0.0034  0.3378
   95MOL0     C12737   0.974   0.819   4.826  0.8152 -0.1052 -0.0452
   95MOL0     O12738   1.150   0.843   4.501 -0.1308 -0.2060  0.2190
   95MOL0     C12739   1.434   0.715   4.541 -0.7400 -0.4781 -0.0451
   95MOL0     C12740   1.575   0.691   4.507 -0.6036 -0.0417  0.3886
   95MOL0     N12741   2.311   1.081   4.325 -0.4360  0.0566  0.6560
   95MOL0     N12742   2.358   1.084   4.210 -0.1173 -0.0351  0.5917
   95MOL0     C12743   3.125   0.492   3.458 -0.3048  0.2550 -0.0453
   95MOL0     C12744   3.205   0.373   3.449 -0.9869 -0.4748 -0.3205
   95MOL0     C12745   3.419  -0.005   3.418  1.0168 -0.9353  0.7722
   95MOL0     C12746   3.520  -0.053   3.328  0.1826 -0.0229  0.5682
   95MOL0     C12747   3.610  -0.162   3.352 -0.5847 -0.1622 -0.6005
   95MOL0     C12748   3.573  -0.234   3.467  0.9064  0.8207 -0.1952
   95MOL0     O12749   3.646  -0.350   3.505  0.6471 -0.4270  0.3412
   95MOL0     C12750   3.757  -0.405   3.428 -0.3780 -0.2625  0.4348
   95MOL0     C12751   3.704  -0.485   3.305 -0.2644 -0.3625 -0.6232
   95MOL0     C12752   3.821  -0.531   3.214 -0.4719 -0.1151  0.5014
   95MOL0     C12753   3.772  -0.635   3.122  0.9832 -0.6647 -0.1944
   95MOL0     C12754   3.866  -0.671   3.020 -0.1400  0.3749  0.9337
   95MOL0     C12755   3.947  -0.698   2.931 -0.0440  0.1588 -0.5933
   95MOL0     C12756   3.472  -0.196   3.557 -0.5747  0.0313  0.2843
   95MOL0     C12757   3.399  -0.074   3.530 -0.0153  1.0132 -1.0496
   95MOL0     H12758   2.963   0.148   3.407  0.5899  0.4174 -0.8222
   95MOL0     H12759   2.828   0.339   3.414 -0.4983  0.1211  2.9157
   95MOL0     H12760   3.033   0.740   3.432  0.5875 -3.2769  0.0035
   95MOL0     H12761   2.862   0.773   3.461  0.4558  0.7225  1.0290
   95MOL0     H12762   3.060   0.694   3.686  1.0118  1.2260 -1.1494
   95MOL0     H12763   3.014   0.853   3.646 -0.6813  0.9404  1.4473
   95MOL0     H12764   2.788   0.835   3.691 -0.4193  2.2020  2.6454
   95MOL0     H12765   2.795   0.657   3.717  0.7677 -0.0461 -0.8853
   95MOL0     H12766   2.957   0.710   3.895 -0.5120  1.3698  0.4962
   95MOL0     H12767   2.942   0.881   3.856  1.1650 -0.5607 -2.4018
   95MOL0     H12768   2.700   0.728   3.950  1.2139 -1.3898 -3.2300
   95MOL0     H12769   2.806   0.808   4.067  1.8032 -0.4166 -0.7608
   95MOL0     H12770   2.791   1.016   3.941  1.2142 -0.5424  0.2117
   95MOL0     H12771   2.650   0.949   3.855  1.2708  3.1696 -0.1610
   95MOL0     H12772   2.649   0.980   4.159 -3.1735  0.1116  1.4557
   95MOL0     H12773   2.585   1.098   4.029 -1.9021 -1.2295 -0.4220
   95MOL0     H12774   2.509   0.811   4.063 -1.2053 -0.0897 -1.7268
   95MOL0     H12775   2.419   0.938   3.978 -0.3539  1.3824  1.0154
   95MOL0     H12776   2.419   0.778   4.311  0.7713  0.9291  3.2488
   95MOL0     H12777   2.262   0.805   4.517 -0.1856  0.5674 -1.1313
   95MOL0     H12778   2.319   0.954   4.599 -1.4941 -0.1926  1.7577
   95MOL0     H12779   2.093   1.074   4.531  3.2233  0.8912  0.9996
   95MOL0     H12780   2.101   0.935   4.637  4.0126 -0.8509  1.3961
   95MOL0     H12781   2.062   0.775   4.451 -3.1269 -0.2287  3.8804
   95MOL0     H12782   2.050   0.902   4.335 -1.2398  2.4531  0.0732
   95MOL0     H12783   1.848   0.988   4.423  0.1999  0.4324  0.1437
   95MOL0     H12784   1.884   0.924   4.585  2.0000  0.5737 -0.8520
   95MOL0     H12785   1.679   1.009   4.543  0.0717  0.4774  0.1516
   95MOL0     H12786   1.373   1.093   4.709 -0.2464 -1.3816 -0.1945
   95MOL0     H12787   1.490   1.166   4.606  0.0152  0.5991 -2.9392
   95MOL0     H12788   1.340   1.125   4.537 -0.1842  0.7740  0.7467
   95MOL0     H12789   1.081   1.096   4.649  0.3474 -0.9655 -0.5710
   95MOL0     H12790   0.840   1.163   4.688 -0.6707  0.7373  1.3453
   95MOL0     H12791   0.532   0.890   4.828  2.3523  1.5236 -4.5726
   95MOL0     H12792   0.602   0.980   4.972 -0.6998  2.3912  1.3519
   95MOL0     H12793   0.488   1.180   4.918  2.3733 -2.3195  4.6414
   95MOL0     H12794   0.413   1.095   4.772  0.9114 -1.3508  0.0988
   95MOL0     H12795   0.362   1.070   5.064  0.2381  3.7936 -0.3643
   95MOL0     H12796   0.309   0.942   4.945  0.4902  0.6009 -1.5802
   95MOL0     H12797   0.225   1.233   4.937  1.7772  0.1340 -2.5238
   95MOL0     H12798   0.185   1.109   4.828  2.9163  1.9003 -1.2406
   95MOL0     H12799   0.093   1.154   5.114  4.0990  0.5340  0.3272
   95MOL0     H12800   0.093   0.989   5.062 -2.9098  0.0642  0.6711
   95MOL0     H12801  -0.091   1.205   5.000 -1.1223  0.2892 -3.1756
   95MOL0     H12802  -0.029   1.138   4.848  0.7530 -1.6593  0.0601
   95MOL0     H12803  -0.163   0.962   5.063  2.4691 -3.9568  0.2961
   95MOL0     H12804  -0.087   0.907   4.914  0.3316  0.0818 -1.8335
   95MOL0     H12805  -0.310   0.913   4.896  1.2915 -0.7584  1.3782
   95MOL0     H12806  -0.264   1.046   4.796 -2.3962  0.7468  0.5517
   95MOL0     H12807   0.782   0.799   4.915 -2.6110  2.7143  1.7020
   95MOL0     H12808   1.020   0.723   4.845  2.0816  0.7257  1.3446
   95MOL0     H12809   1.372   0.626   4.540  0.1114 -1.0821 -0.0979
   95MOL0     H12810   1.601   0.590   4.481  3.4582  0.4451  1.7942
   95MOL0     H12811   3.178   0.586   3.449  1.2352 -0.6269 -0.7251
   95MOL0     H12812   3.312   0.393   3.446 -1.0002 -0.4451 -0.6334
   95MOL0     H12813   3.521  -0.006   3.230 -1.4702  5.5157  2.8705
   95MOL0     H12814   3.692  -0.195   3.289 -0.7840  0.4642 -1.1935
   95MOL0     H12815   3.819  -0.325   3.386  0.4031 -0.2680  1.5346
   95MOL0     H12816   3.826  -0.469   3.484 -0.1695 -1.2088 -0.8525
   95MOL0     H12817   3.638  -0.415   3.253 -0.5151  0.1224  0.3206
   95MOL0     H12818   3.649  -0.575   3.332  1.9931 -1.8807 -0.8731
   95MOL0     H12819   3.893  -0.589   3.273 -1.0193 -2.5591 -1.1029
   95MOL0     H12820   3.874  -0.448   3.165 -0.5989  2.1869  3.8815
   95MOL0     H12821   3.686  -0.585   3.077 -1.4221 -2.2929  2.2452
   95MOL0     H12822   3.726  -0.721   3.173 -2.0740  1.3954  0.8227
   95MOL0     H12823   4.017  -0.710   2.851  1.3614  2.1711  0.2497
   95MOL0     H12824   3.437  -0.262   3.635  0.9064  0.1284  1.0611
   95MOL0     H12825   3.321  -0.045   3.601 -0.4977  2.3351 -2.0956
   96MOL0     O12826   7.477   0.119   9.398 -0.9145  0.4044 -0.2532
   96MOL0     C12827   7.526   0.119   9.510 -1.2006 -0.1692  0.4281
   96MOL0     O12828   7.462   0.119   9.632 -0.3597  0.1051  0.6735
   96MOL0     C12829   7.333   0.154   9.653  0.2544  0.6509 -0.0670
   96MOL0     C12830   7.295   0.207   9.776  0.6943 -0.4226 -0.2977
   96MOL0     C12831   7.174   0.258   9.806 -0.8080  0.5489  0.2651
   96MOL0     C12832   7.070   0.248   9.706  0.5383 -0.2005  0.1304
   96MOL0     O12833   6.937   0.283   9.730  0.0837 -0.0513 -0.2129
   96MOL0     C12834   6.911   0.421   9.772 -0.2037  0.2890  0.2529
   96MOL0     C12835   6.755   0.446   9.770  0.0481 -0.0724 -0.3204
   96MOL0     C12836   6.690   0.442   9.619  0.0754  0.0520 -0.3892
   96MOL0     C12837   6.541   0.466   9.648 -0.2754  0.8249 -0.2226
   96MOL0     C12838   6.448   0.475   9.523  0.3430 -0.1446  0.7423
   96MOL0     C12839   6.319   0.563   9.545  0.2694  0.2391  0.0900
   96MOL0     C12840   6.237   0.534   9.668 -0.7653 -0.0444  0.5404
   96MOL0     C12841   6.122   0.637   9.689  0.6374  0.4553 -0.1866
   96MOL0     N12842   6.037   0.593   9.795  0.5334 -0.4695  1.1215
   96MOL0     C12843   6.060   0.505   9.890 -0.0248 -0.6527  0.4238
   96MOL0     C12844   5.974   0.547   9.982  0.3659  1.4862  0.2165
   96MOL0     C12845   5.981   0.484  10.118  0.0008  0.0937  0.2249
   96MOL0     C12846   5.856   0.403  10.157  0.2014  0.3746  0.3820
   96MOL0     C12847   5.856   0.260  10.089 -0.8001 -0.2378 -1.1984
   96MOL0     C12848   5.779   0.270   9.960 -0.6663  0.6773 -0.5078
   96MOL0     O12849   5.751   0.137   9.921 -0.3312  0.0856 -0.1218
   96MOL0     C12850   5.638   0.120   9.845 -1.1304  0.7862  0.4510
   96MOL0     C12851   5.531   0.047   9.904  0.0288 -0.6435 -0.4702
   96MOL0     C12852   5.415   0.032   9.829 -0.1434  0.2276  0.3202
   96MOL0     C12853   5.300  -0.023   9.910  0.4581  0.2102  0.6552
   96MOL0     C12854   5.422   0.069   9.689  0.0724  0.1775 -0.2138
   96MOL0     C12855   5.292   0.056   9.612  0.8573 -0.0853 -0.2749
   96MOL0     O12856   5.268   0.147   9.512 -0.0476  0.0828 -0.9707
   96MOL0     C12857   5.171   0.129   9.414 -0.3043 -0.4927 -0.3330
   96MOL0     C12858   5.036   0.134   9.450 -0.1754  0.1344 -0.4865
   96MOL0     C12859   4.936   0.102   9.355 -0.8760  0.1185 -0.6726
   96MOL0     C12860   4.974   0.078   9.220 -0.6681  0.9507 -0.5781
   96MOL0     O12861   4.889   0.047   9.119  0.2764 -0.8412  0.3985
   96MOL0     C12862   4.769  -0.014   9.158  0.1707  0.1533 -0.3572
   96MOL0     C12863   4.689  -0.034   9.032 -0.3744  0.8370 -0.3960
   96MOL0     C12864   4.569  -0.133   9.027 -1.0069  0.1338  0.3298
   96MOL0     C12865   4.475  -0.102   8.900 -0.3444 -0.0981 -0.5146
   96MOL0     C12866   4.382  -0.226   8.904  0.8269  0.0954  0.3967
   96MOL0     C12867   4.306  -0.234   8.775  0.4879 -0.0138  0.3619
   96MOL0     C12868   4.393  -0.258   8.651  0.2728 -0.6478  0.1671
   96MOL0     C12869   4.326  -0.266   8.516  0.0714 -0.6703  0.1984
   96MOL0    Cl12870   4.206  -0.401   8.495 -0.2676  0.0451  0.2720
   96MOL0     C12871   5.109   0.091   9.183 -0.1048 -1.2037 -0.7100
   96MOL0     C12872   5.210   0.114   9.276  0.2642  0.1244  0.4057
   96MOL0     O12873   5.216  -0.038   9.647 -0.0087 -0.2599 -0.0676
   96MOL0     C12874   5.527   0.136   9.634 -0.5347 -0.1579  1.1295
   96MOL0     C12875   5.635   0.164   9.713 -1.0323  0.2756  0.1772
   96MOL0     N12876   5.890   0.644   9.939  0.0125 -0.5663  0.0504
   96MOL0     N12877   5.930   0.673   9.818 -0.1526 -0.0109 -1.1213
   96MOL0     C12878   7.099   0.181   9.580 -0.0244  0.8627 -0.5986
   96MOL0     C12879   7.230   0.135   9.554 -0.0130 -0.1692 -0.2254
   96MOL0     C12880   7.673   0.133   9.507 -0.5024  0.1981  0.6416
   96MOL0     C12881   7.757   0.087   9.614  0.6193  0.0516  0.5421
   96MOL0     C12882   7.896   0.098   9.611 -0.2426 -0.0848  0.1276
   96MOL0     C12883   7.958   0.167   9.511  0.4221 -0.5225  0.4495
   96MOL0     O12884   8.091   0.178   9.520 -0.3510  0.4952  0.5387
   96MOL0     C12885   8.167   0.239   9.410 -0.3885  0.3030 -0.1787
   96MOL0     C12886   8.318   0.248   9.451  0.0319 -1.0868  0.3359
   96MOL0     C12887   8.390   0.110   9.478  0.5806  0.7401  0.5618
   96MOL0     C12888   8.539   0.119   9.481  0.7277 -0.2607  0.1723
   96MOL0     C12889   8.601   0.169   9.360 -0.0291 -0.2428  0.1262
   96MOL0     C12890   8.673   0.194   9.263 -0.1681  2.0780  0.3289
   96MOL0     C12891   7.878   0.225   9.408  0.8428  0.6495 -0.1446
   96MOL0     C12892   7.740   0.211   9.406  0.0292 -0.6117 -0.7171
   96MOL0     H12893   7.358   0.212   9.864  0.1964  1.4393 -0.0036
   96MOL0     H12894   7.157   0.294   9.907 -1.2894  1.5189 -0.1460
   96MOL0     H12895   6.946   0.433   9.875  0.7408  0.4520 -0.0732
   96MOL0     H12896   6.974   0.485   9.709  2.0801 -2.7425 -0.8149
   96MOL0     H12897   6.703   0.379   9.839  1.1931 -1.4044 -0.7109
   96MOL0     H12898   6.742   0.545   9.813  1.8232 -0.3730  1.0292
   96MOL0     H12899   6.728   0.519   9.552 -0.0021  1.4991  1.1687
   96MOL0     H12900   6.708   0.343   9.575 -1.0930 -0.6815  0.6924
   96MOL0     H12901   6.499   0.392   9.715 -0.8955  2.7856  1.6610
   96MOL0     H12902   6.536   0.565   9.695 -2.7731 -0.5983  2.8493
   96MOL0     H12903   6.502   0.506   9.433 -4.3937 -1.5974 -3.0401
   96MOL0     H12904   6.415   0.373   9.502  0.7494 -0.1807  0.2690
   96MOL0     H12905   6.338   0.670   9.541 -0.7992  0.5312  1.7194
   96MOL0     H12906   6.252   0.554   9.459  0.3802  2.6234 -0.3070
   96MOL0     H12907   6.190   0.435   9.655  0.2193 -0.3773 -0.6549
   96MOL0     H12908   6.305   0.535   9.754  1.1998 -1.2299 -0.8966
   96MOL0     H12909   6.071   0.640   9.592 -1.5005 -0.6516  0.8377
   96MOL0     H12910   6.157   0.738   9.712 -0.1807  1.0484 -1.3878
   96MOL0     H12911   6.144   0.437   9.897 -1.5289 -2.6816 -0.3433
   96MOL0     H12912   6.077   0.435  10.134 -0.1920 -0.1143  0.7407
   96MOL0     H12913   5.983   0.571  10.184 -0.1045 -0.0923  0.4725
   96MOL0     H12914   5.768   0.458  10.121 -1.3678 -1.3449  1.4562
   96MOL0     H12915   5.840   0.397  10.265  1.8228  4.0919  1.0060
   96MOL0     H12916   5.807   0.188  10.155 -0.5373 -0.1999 -0.9610
   96MOL0     H12917   5.958   0.222  10.076  0.6270  1.2000  3.6224
   96MOL0     H12918   5.844   0.326   9.891  0.6718  1.2405  1.1490
   96MOL0     H12919   5.688   0.328   9.979  0.2948  2.4999 -1.2124
   96MOL0     H12920   5.535   0.025  10.010 -1.9579  0.4814 -0.1114
   96MOL0     H12921   5.336  -0.082   9.994 -1.2052 -2.3337 -0.3103
   96MOL0     H12922   5.234   0.052   9.955 -0.4318 -0.9212  1.2864
   96MOL0     H12923   5.245  -0.102   9.857  0.7075  0.9550 -0.7637
   96MOL0     H12924   5.017   0.150   9.556  2.6050 -0.8987  0.2435
   96MOL0     H12925   4.835   0.097   9.394 -0.4349  1.9222  0.7889
   96MOL0     H12926   4.782  -0.104   9.218  0.9721  0.7566  0.3886
   96MOL0     H12927   4.722   0.057   9.226  0.5199  0.0568 -0.0117
   96MOL0     H12928   4.654   0.063   8.995  1.8345  2.2823  1.0838
   96MOL0     H12929   4.757  -0.065   8.952 -0.6463 -1.8275  0.3056
   96MOL0     H12930   4.498  -0.134   9.110  0.6904 -2.2433  1.8733
   96MOL0     H12931   4.615  -0.231   9.014  0.5839  0.7468  1.0886
   96MOL0     H12932   4.421  -0.007   8.908 -0.3187 -0.0487 -0.8929
   96MOL0     H12933   4.545  -0.090   8.817  2.0171 -1.8041  1.0966
   96MOL0     H12934   4.316  -0.218   8.991 -1.0161 -3.2570 -0.5157
   96MOL0     H12935   4.437  -0.320   8.911  2.0730  0.4913 -2.6296
   96MOL0     H12936   4.232  -0.315   8.780  2.2795 -1.6394  2.2110
   96MOL0     H12937   4.252  -0.140   8.761 -0.7944 -0.8948 -0.9721
   96MOL0     H12938   4.448  -0.351   8.664 -0.7553 -1.2369  0.4016
   96MOL0     H12939   4.470  -0.181   8.640  1.3459 -1.8489 -1.2324
   96MOL0     H12940   4.399  -0.266   8.435  0.2934  0.5228  0.3774
   96MOL0     H12941   4.265  -0.176   8.506  1.3043  0.1161 -0.4459
   96MOL0     H12942   5.144   0.067   9.082  1.6480 -1.5828 -0.0620
   96MOL0     H12943   5.317   0.104   9.260  0.2026 -0.8302  0.5387
   96MOL0     H12944   5.523   0.176   9.533  1.8184 -2.1596  0.1452
   96MOL0     H12945   5.719   0.227   9.685  0.8355 -1.1229  2.2721
   96MOL0     H12946   7.026   0.161   9.501 -1.2505  1.4015  0.3583
   96MOL0     H12947   7.262   0.099   9.457  1.8355  1.2191 -0.1908
   96MOL0     H12948   7.701   0.039   9.694 -0.3446  0.7478  0.2951
   96MOL0     H12949   7.956   0.051   9.688  0.4126  0.8282  0.1924
   96MOL0     H12950   8.155   0.189   9.314 -1.4499  1.1450 -0.5128
   96MOL0     H12951   8.125   0.338   9.388  0.3338  0.6443 -0.0497
   96MOL0     H12952   8.327   0.298   9.548  3.4408  0.1954 -0.5049
   96MOL0     H12953   8.357   0.311   9.370 -1.9402  0.2937  0.3933
   96MOL0     H12954   8.367   0.031   9.406  0.5275  0.8812  0.4235
   96MOL0     H12955   8.357   0.081   9.578  0.2365  0.7012  0.4379
   96MOL0     H12956   8.576   0.017   9.497 -1.0893 -1.0721 -0.5376
   96MOL0     H12957   8.567   0.186   9.563 -0.2127 -0.8829  1.0246
   96MOL0     H12958   8.758   0.204   9.199  1.1550  0.3854  1.7257
   96MOL0     H12959   7.924   0.271   9.321 -0.5723 -1.5430 -2.1996
   96MOL0     H12960   7.688   0.271   9.331  1.7417  1.7709 -0.1233
   97MOL0     O12961   7.995   2.687   6.925 -0.1605  0.5622 -0.2711
   97MOL0     C12962   8.096   2.728   6.871 -0.5111  0.2326  0.2489
   97MOL0     O12963   8.104   2.828   6.779  0.7640  0.2985  1.0519
   97MOL0     C12964   7.997   2.890   6.722 -0.1866 -0.2099  0.9424
   97MOL0     C12965   7.863   2.890   6.753  0.1962 -0.5755  0.2930
   97MOL0     C12966   7.760   2.953   6.669  0.2339  0.6314 -0.3513
   97MOL0     C12967   7.804   3.001   6.541 -0.3712 -0.1334 -0.8611
   97MOL0     O12968   7.727   3.057   6.444  0.0698  0.5970  0.1898
   97MOL0     C12969   7.621   3.144   6.479  0.9826  0.4295  1.4156
   97MOL0     C12970   7.598   3.267   6.390 -0.7936 -0.4169 -0.8622
   97MOL0     C12971   7.474   3.343   6.429 -0.2304 -0.1905 -0.3891
   97MOL0     C12972   7.503   3.437   6.542  0.0403  0.9071  0.6346
   97MOL0     C12973   7.384   3.506   6.606  0.2469  0.5517  0.4099
   97MOL0     C12974   7.385   3.478   6.761 -0.6669  0.6118 -0.4334
   97MOL0     C12975   7.277   3.541   6.849  0.2888  0.0881 -0.6282
   97MOL0     C12976   7.156   3.448   6.867 -0.1916  0.3946  0.2128
   97MOL0     N12977   7.092   3.403   6.742  0.3421  0.0587  0.2630
   97MOL0     C12978   7.044   3.493   6.653  0.2526 -0.5004 -0.4875
   97MOL0     C12979   6.933   3.434   6.598 -0.0827  0.5167  0.3946
   97MOL0     C12980   6.855   3.482   6.483  0.8061  0.1984 -0.8359
   97MOL0     C12981   6.725   3.402   6.489  0.7087  0.1213 -1.1713
   97MOL0     C12982   6.627   3.464   6.379  0.0770 -0.2360  1.1286
   97MOL0     C12983   6.493   3.506   6.441  0.2840 -0.2788  0.1064
   97MOL0     O12984   6.414   3.392   6.478  0.9974 -0.1484  0.5424
   97MOL0     C12985   6.337   3.343   6.375  0.4841 -0.1690 -0.2646
   97MOL0     C12986   6.243   3.432   6.310  0.0064  0.4980  0.1295
   97MOL0     C12987   6.166   3.389   6.201  0.2969  0.0730  0.2430
   97MOL0     C12988   6.061   3.490   6.140 -0.4252 -0.7086  0.3506
   97MOL0     C12989   6.176   3.249   6.160  1.9888  0.4568 -0.4885
   97MOL0     C12990   6.086   3.191   6.059 -0.6141  0.2465 -0.1652
   97MOL0     O12991   6.024   3.273   5.977 -0.3542  0.2574  0.2557
   97MOL0     C12992   5.931   3.218   5.888  0.1238 -0.1594 -0.5384
   97MOL0     C12993   5.795   3.258   5.906  0.2578  0.0105 -0.9230
   97MOL0     C12994   5.700   3.217   5.816  0.9322  0.6619 -0.8852
   97MOL0     C12995   5.737   3.145   5.703 -0.3688  0.4738 -0.1280
   97MOL0     O12996   5.649   3.102   5.612 -0.6123  0.1915 -0.1771
   97MOL0     C12997   5.509   3.146   5.625  0.8101 -0.6806 -0.1922
   97MOL0     C12998   5.424   3.060   5.524  0.0992 -0.0203  0.3622
   97MOL0     C12999   5.271   3.083   5.559  0.9369 -0.6459 -0.4608
   97MOL0     C13000   5.228   2.982   5.670 -0.2416  0.1625  0.1700
   97MOL0     C13001   5.083   3.008   5.706 -0.0591  0.9163 -0.4710
   97MOL0     C13002   5.039   2.921   5.823 -0.2508  0.4994 -0.0726
   97MOL0     C13003   4.905   2.962   5.877  0.8117  0.4529 -0.3433
   97MOL0     C13004   4.835   2.865   5.974  1.0954  0.4757 -0.0114
   97MOL0    Cl13005   4.959   2.845   6.104 -0.1328  0.4824  0.2305
   97MOL0     C13006   5.874   3.124   5.672 -0.5699  0.9851 -0.1238
   97MOL0     C13007   5.964   3.156   5.768  0.1966 -0.7622  0.5186
   97MOL0     O13008   6.074   3.065   6.056  0.2621  0.3983 -0.1543
   97MOL0     C13009   6.273   3.163   6.224  0.5445  0.2838 -0.4819
   97MOL0     C13010   6.346   3.213   6.328 -1.1186 -0.7494 -0.0894
   97MOL0     N13011   6.924   3.304   6.636 -0.6019 -0.0122 -0.2570
   97MOL0     N13012   7.017   3.293   6.727 -0.2922 -0.2796 -0.4246
   97MOL0     C13013   7.938   3.000   6.502  0.7252  0.2575 -0.3869
   97MOL0     C13014   8.026   2.939   6.593 -0.1802 -1.1174 -0.7999
   97MOL0     C13015   8.223   2.669   6.920  0.0355 -0.0944  0.3428
   97MOL0     C13016   8.223   2.562   7.017  0.1042  0.0101 -0.4730
   97MOL0     C13017   8.339   2.502   7.057  0.0126 -0.7162 -0.4612
   97MOL0     C13018   8.468   2.542   7.004  1.0284  0.7877 -0.4883
   97MOL0     O13019   8.572   2.462   7.047 -0.0423  0.1696  0.4053
   97MOL0     C13020   8.694   2.533   7.029 -0.4883 -0.6347  0.1229
   97MOL0     C13021   8.784   2.484   7.135 -0.2592  0.6824 -0.4383
   97MOL0     C13022   8.930   2.533   7.148  1.0677  1.1494 -0.3342
   97MOL0     C13023   8.991   2.541   7.012 -0.5870  0.5089 -1.0842
   97MOL0     C13024   9.123   2.616   7.025  0.5217  0.7422  0.7901
   97MOL0     C13025   9.231   2.665   7.048 -0.2668  0.7019 -0.3767
   97MOL0     C13026   8.465   2.646   6.909  0.3405 -0.0401 -0.5242
   97MOL0     C13027   8.347   2.707   6.874 -0.3875 -0.6298 -0.6977
   97MOL0     H13028   7.830   2.844   6.845  0.4104 -1.8805 -0.2686
   97MOL0     H13029   7.658   2.953   6.707 -0.2261 -0.0895 -1.5254
   97MOL0     H13030   7.537   3.075   6.464  1.8233 -0.0647 -1.7066
   97MOL0     H13031   7.618   3.176   6.584 -0.0189  0.0029  1.5381
   97MOL0     H13032   7.685   3.334   6.395 -1.3279  0.1917  1.7689
   97MOL0     H13033   7.587   3.227   6.289 -1.5559 -1.2820 -0.4497
   97MOL0     H13034   7.458   3.412   6.345 -1.2461  0.7647  0.5469
   97MOL0     H13035   7.385   3.279   6.433  0.0180 -0.4898  0.6508
   97MOL0     H13036   7.553   3.379   6.620 -4.5128 -2.1188  1.6773
   97MOL0     H13037   7.575   3.515   6.515  0.6906  0.2288  0.3944
   97MOL0     H13038   7.376   3.613   6.583  2.1438  0.5322 -0.5654
   97MOL0     H13039   7.294   3.460   6.564  0.4496 -0.3460  0.9390
   97MOL0     H13040   7.391   3.370   6.776 -0.0976  1.0184  3.0785
   97MOL0     H13041   7.483   3.510   6.797  0.3156 -1.0123 -1.5767
   97MOL0     H13042   7.318   3.564   6.948  0.1257 -2.7592  0.1712
   97MOL0     H13043   7.255   3.642   6.811 -0.2019  0.6442  1.0525
   97MOL0     H13044   7.086   3.509   6.925 -1.8421 -0.1172 -1.1566
   97MOL0     H13045   7.184   3.362   6.929 -0.6857  1.0495  1.3654
   97MOL0     H13046   7.087   3.590   6.632 -0.0234 -0.1171  0.6342
   97MOL0     H13047   6.825   3.586   6.500 -0.2197 -0.1990 -0.1285
   97MOL0     H13048   6.917   3.458   6.396 -1.1985  0.3545 -2.3829
   97MOL0     H13049   6.675   3.422   6.585 -1.8239 -0.0274 -2.3751
   97MOL0     H13050   6.731   3.295   6.467 -2.7849 -0.2349 -1.0439
   97MOL0     H13051   6.606   3.387   6.304 -0.0256  1.1636 -0.3372
   97MOL0     H13052   6.670   3.553   6.332 -3.8924  3.0142  2.9585
   97MOL0     H13053   6.436   3.574   6.377  0.8840  0.7616  0.6453
   97MOL0     H13054   6.503   3.564   6.534 -0.5925  0.8416 -0.4685
   97MOL0     H13055   6.221   3.531   6.347  3.7028  1.4911 -0.0157
   97MOL0     H13056   6.054   3.573   6.212  1.0306 -2.2443  2.3740
   97MOL0     H13057   6.087   3.523   6.039 -0.6461  0.8166  0.7624
   97MOL0     H13058   5.959   3.455   6.122 -0.8159  1.1369 -1.4560
   97MOL0     H13059   5.768   3.316   5.994  1.8743  1.5839 -1.4053
   97MOL0     H13060   5.596   3.242   5.833 -0.0082 -3.0549 -0.1533
   97MOL0     H13061   5.480   3.125   5.728  2.1523 -0.9931  0.1394
   97MOL0     H13062   5.499   3.253   5.603  1.6068 -0.5370  0.1234
   97MOL0     H13063   5.445   3.103   5.425  1.6508 -0.6968  0.3648
   97MOL0     H13064   5.447   2.953   5.522  0.4617  0.0373  1.0452
   97MOL0     H13065   5.204   3.072   5.474 -0.7513  5.5934 -0.4145
   97MOL0     H13066   5.251   3.185   5.590 -1.3295 -1.2968  0.4603
   97MOL0     H13067   5.254   2.883   5.632  2.2461  1.0670 -0.6989
   97MOL0     H13068   5.299   2.990   5.752 -0.4040 -0.0713  0.3364
   97MOL0     H13069   5.022   2.967   5.626 -2.1773 -0.0923  1.5390
   97MOL0     H13070   5.058   3.112   5.731 -0.0182  0.4957  1.5506
   97MOL0     H13071   5.042   2.815   5.797  0.3125  1.2787 -3.8617
   97MOL0     H13072   5.117   2.933   5.899  1.2545 -2.3200 -1.0094
   97MOL0     H13073   4.841   2.957   5.788  0.2604  0.2512  0.0570
   97MOL0     H13074   4.891   3.059   5.925  0.2310  0.8014 -1.1951
   97MOL0     H13075   4.804   2.769   5.932 -0.0266  0.3264  1.0928
   97MOL0     H13076   4.740   2.900   6.014  1.1428  0.3481  0.2171
   97MOL0     H13077   5.909   3.061   5.591  1.3431  0.0928  1.3241
   97MOL0     H13078   6.070   3.134   5.753  0.7508  1.1087  1.3575
   97MOL0     H13079   6.289   3.062   6.189  0.0438 -0.6479  1.7981
   97MOL0     H13080   6.413   3.148   6.384 -1.4827 -0.4058  0.7718
   97MOL0     H13081   7.959   3.040   6.404  0.9466  0.5239 -0.2326
   97MOL0     H13082   8.126   2.925   6.554 -0.6550  0.6990 -2.9159
   97MOL0     H13083   8.133   2.528   7.067  0.8302 -0.8638  0.2773
   97MOL0     H13084   8.335   2.436   7.143  1.9439 -0.2793  0.0214
   97MOL0     H13085   8.731   2.502   6.931 -1.8932 -4.7071  0.6536
   97MOL0     H13086   8.684   2.641   7.037 -0.2482 -0.5286 -0.9402
   97MOL0     H13087   8.788   2.375   7.144  2.1829  0.8624  1.9901
   97MOL0     H13088   8.726   2.499   7.227  0.9853  0.2297  0.4482
   97MOL0     H13089   8.996   2.483   7.219 -0.4231 -0.5534 -0.0934
   97MOL0     H13090   8.917   2.635   7.187 -0.2282  2.0937 -3.0369
   97MOL0     H13091   8.928   2.586   6.935 -3.5583 -2.8972 -0.9114
   97MOL0     H13092   9.008   2.437   6.983  0.8084 -1.2330  4.7686
   97MOL0     H13093   9.320   2.719   7.071 -0.0750  1.7450 -3.1732
   97MOL0     H13094   8.558   2.689   6.874  0.5257 -0.9470 -1.1644
   97MOL0     H13095   8.351   2.792   6.805  0.7122 -1.2898 -1.4917
   98MOL0     O13096   9.075   3.767   8.461  0.4799  0.0196 -0.1003
   98MOL0     C13097   9.174   3.732   8.526  0.7606 -0.1519 -0.6343
   98MOL0     O13098   9.166   3.685   8.654  0.5801  0.0193 -0.0816
   98MOL0     C13099   9.054   3.682   8.729 -0.3282 -0.7751 -0.6237
   98MOL0     C13100   8.962   3.788   8.735 -0.3666  0.0881  0.3660
   98MOL0     C13101   8.846   3.785   8.811 -0.3196 -0.2320  0.6803
   98MOL0     C13102   8.823   3.688   8.909  0.4185 -0.9733  0.8599
   98MOL0     O13103   8.710   3.706   8.983  0.6084 -0.4401  0.1933
   98MOL0     C13104   8.705   3.623   9.101  0.8933  0.5371  0.6982
   98MOL0     C13105   8.564   3.650   9.160  0.6897  0.8040 -0.1095
   98MOL0     C13106   8.539   3.544   9.271 -0.1278 -0.9768  0.0452
   98MOL0     C13107   8.395   3.557   9.330 -0.2306  0.7098 -0.8109
   98MOL0     C13108   8.389   3.472   9.460 -0.3059 -0.6046  0.4581
   98MOL0     C13109   8.418   3.321   9.442 -0.2006  0.5457  0.0864
   98MOL0     C13110   8.333   3.241   9.337 -0.3001 -0.3137 -0.0522
   98MOL0     C13111   8.188   3.280   9.347  0.0798 -0.4023  0.2164
   98MOL0     N13112   8.109   3.189   9.265  0.6204 -0.6730 -0.2998
   98MOL0     C13113   8.087   3.196   9.128 -0.5305  0.1792  0.3184
   98MOL0     C13114   7.965   3.152   9.110  0.2341 -0.7786  0.7238
   98MOL0     C13115   7.913   3.145   8.973 -0.6877  0.4245 -0.0381
   98MOL0     C13116   7.765   3.091   8.970  0.7939 -0.4885 -0.6391
   98MOL0     C13117   7.725   3.088   8.829 -0.0218 -0.8509  0.3319
   98MOL0     C13118   7.593   3.014   8.817 -0.3865  0.6888 -0.4999
   98MOL0     O13119   7.570   3.005   8.677 -0.0796  0.4065  0.0458
   98MOL0     C13120   7.448   3.052   8.636  0.9969 -0.5004 -0.4115
   98MOL0     C13121   7.442   3.184   8.582 -0.4531  0.7800 -0.1879
   98MOL0     C13122   7.314   3.231   8.544 -0.1190 -0.0254 -0.0154
   98MOL0     C13123   7.290   3.371   8.498 -0.2483  0.4106 -0.0358
   98MOL0     C13124   7.193   3.145   8.556 -1.1045  0.2432  0.1461
   98MOL0     C13125   7.052   3.187   8.527  0.4885  0.0351 -0.1696
   98MOL0     O13126   6.951   3.087   8.552  0.1983 -0.1793  1.1121
   98MOL0     C13127   6.828   3.114   8.506  0.5659  0.5085  0.0894
   98MOL0     C13128   6.727   3.141   8.606  1.4987  0.1200  1.3613
   98MOL0     C13129   6.593   3.131   8.556 -0.4094 -0.0092 -0.0909
   98MOL0     C13130   6.567   3.118   8.422  0.6408  0.8901  0.1625
   98MOL0     O13131   6.432   3.107   8.395  0.4375  0.1503  0.0324
   98MOL0     C13132   6.384   3.074   8.261  0.7021  0.0628  0.1125
   98MOL0     C13133   6.227   3.083   8.266  0.4794  0.4840  1.0828
   98MOL0     C13134   6.173   2.951   8.208  0.0811 -0.0520 -1.0149
   98MOL0     C13135   6.116   2.984   8.071  0.2095  0.4254 -0.2407
   98MOL0     C13136   6.033   2.858   8.016  0.7728  0.2564 -0.0723
   98MOL0     C13137   5.959   2.912   7.888  0.0501  0.5421 -0.0697
   98MOL0     C13138   5.858   2.811   7.837 -0.2892  0.1187  0.4975
   98MOL0     C13139   5.732   2.794   7.923 -0.5403 -0.2367 -0.4656
   98MOL0    Cl13140   5.620   2.680   7.844  0.0216  0.1785  0.3805
   98MOL0     C13141   6.670   3.108   8.321  0.1426 -0.2493  0.2883
   98MOL0     C13142   6.803   3.109   8.366 -0.0732 -0.9920 -0.3373
   98MOL0     O13143   7.021   3.292   8.472 -0.4219 -0.1374  0.1409
   98MOL0     C13144   7.210   3.005   8.600  0.0545 -0.1825  0.0763
   98MOL0     C13145   7.337   2.963   8.640 -0.2177 -0.3379 -0.1660
   98MOL0     N13146   7.913   3.113   9.228  0.1518 -0.4720 -0.2191
   98MOL0     N13147   7.998   3.138   9.324 -0.6807  0.1465 -0.1756
   98MOL0     C13148   8.920   3.586   8.925  0.3541 -0.7819  0.4704
   98MOL0     C13149   9.034   3.585   8.829  0.6001  0.3409  0.2967
   98MOL0     C13150   9.303   3.733   8.460  0.6335  0.0815 -0.3656
   98MOL0     C13151   9.407   3.748   8.553 -1.0921  0.2814 -0.1158
   98MOL0     C13152   9.539   3.761   8.507  0.2696 -0.9117 -0.9279
   98MOL0     C13153   9.569   3.757   8.371  0.6775  0.6722  1.1028
   98MOL0     O13154   9.693   3.730   8.314 -0.4381 -0.0559 -0.5999
   98MOL0     C13155   9.805   3.730   8.407 -0.4611 -0.1537  1.7422
   98MOL0     C13156   9.930   3.694   8.335 -0.2917 -0.0617 -0.0083
   98MOL0     C13157   9.914   3.555   8.268  0.2271 -1.5274 -0.4969
   98MOL0     C13158  10.051   3.512   8.220 -0.7126  0.3593 -0.0737
   98MOL0     C13159  10.038   3.385   8.141  0.2714  0.5197 -0.7639
   98MOL0     C13160  10.036   3.281   8.085 -0.1556 -0.0367  0.2183
   98MOL0     C13161   9.466   3.744   8.280  0.7450 -0.8051 -0.1904
   98MOL0     C13162   9.328   3.736   8.319 -0.1693  0.1365  0.1753
   98MOL0     H13163   8.966   3.874   8.670  1.5465  0.1535  0.4975
   98MOL0     H13164   8.781   3.871   8.799  1.5469  1.0137 -1.1391
   98MOL0     H13165   8.714   3.518   9.071  1.7798  0.6467  0.5468
   98MOL0     H13166   8.779   3.640   9.180  2.4846 -1.6135 -0.2133
   98MOL0     H13167   8.567   3.749   9.206 -0.7213  0.9009 -0.2057
   98MOL0     H13168   8.483   3.652   9.087  2.1343  1.0450 -1.7631
   98MOL0     H13169   8.559   3.446   9.226 -1.6932 -2.0263  1.4875
   98MOL0     H13170   8.616   3.559   9.347  0.7868  1.8459 -1.3057
   98MOL0     H13171   8.370   3.661   9.350  1.2541  0.8065  0.7065
   98MOL0     H13172   8.326   3.519   9.255 -1.0264 -0.7789  0.6043
   98MOL0     H13173   8.450   3.524   9.534 -2.2340  0.9456  1.0628
   98MOL0     H13174   8.286   3.482   9.495 -0.1368 -0.5637  0.9472
   98MOL0     H13175   8.523   3.305   9.415  0.0904 -2.1561  2.3826
   98MOL0     H13176   8.396   3.277   9.540  1.9997 -1.1413 -0.0876
   98MOL0     H13177   8.379   3.251   9.238  2.9067 -0.9001  1.2203
   98MOL0     H13178   8.354   3.135   9.355 -0.6500 -0.4003 -0.1416
   98MOL0     H13179   8.160   3.376   9.303 -0.8356  0.1137  1.8457
   98MOL0     H13180   8.161   3.286   9.453  0.5257  0.1208  0.3047
   98MOL0     H13181   8.148   3.228   9.045 -3.4877  0.2419 -1.9900
   98MOL0     H13182   7.909   3.248   8.934  0.2295  0.4455 -0.0983
   98MOL0     H13183   7.989   3.090   8.917 -2.4256 -0.2090 -1.8946
   98MOL0     H13184   7.704   3.167   9.020 -0.1285 -1.3343 -0.4413
   98MOL0     H13185   7.769   2.992   9.016  0.9797  0.4430  1.4540
   98MOL0     H13186   7.800   3.037   8.768 -0.4780 -2.8399  1.3637
   98MOL0     H13187   7.733   3.189   8.788 -0.2488  0.6224  3.6189
   98MOL0     H13188   7.512   3.057   8.875  0.2765  0.8829  0.3007
   98MOL0     H13189   7.610   2.919   8.868  0.0912  1.2434  0.3870
   98MOL0     H13190   7.531   3.245   8.574 -1.2335  2.0736  0.6744
   98MOL0     H13191   7.213   3.414   8.563 -0.3710  0.7328 -0.3958
   98MOL0     H13192   7.383   3.429   8.501  1.2894 -1.9415  1.1394
   98MOL0     H13193   7.257   3.361   8.394  5.1477 -0.2643 -2.0158
   98MOL0     H13194   6.749   3.158   8.711  1.0010  1.2923  1.2856
   98MOL0     H13195   6.513   3.152   8.625  0.4295  1.6769  0.4257
   98MOL0     H13196   6.425   3.155   8.200  0.7071  1.0176  1.3358
   98MOL0     H13197   6.418   2.977   8.224 -0.1237  0.3785 -1.5751
   98MOL0     H13198   6.189   3.088   8.369 -5.3724  1.2971 -0.7409
   98MOL0     H13199   6.195   3.175   8.216  3.9545  2.4860  2.2183
   98MOL0     H13200   6.087   2.918   8.267  0.6794 -0.6712 -0.4807
   98MOL0     H13201   6.242   2.866   8.214  1.4132  1.1161  1.9053
   98MOL0     H13202   6.049   3.070   8.080 -0.9671 -0.2896 -1.6718
   98MOL0     H13203   6.199   3.011   8.006  2.0273 -3.8523 -0.0298
   98MOL0     H13204   5.965   2.827   8.096 -0.5953 -0.2872 -1.4058
   98MOL0     H13205   6.098   2.775   7.988  1.6582  0.6223  0.8386
   98MOL0     H13206   5.911   3.008   7.910 -0.2390  0.4069 -0.1020
   98MOL0     H13207   6.031   2.929   7.807 -0.8919 -0.2447 -1.1193
   98MOL0     H13208   5.911   2.716   7.827  2.1049  1.2876  1.3492
   98MOL0     H13209   5.822   2.845   7.739 -0.7025 -1.7335 -0.0319
   98MOL0     H13210   5.696   2.896   7.935  3.0277  0.9343  1.9132
   98MOL0     H13211   5.753   2.757   8.024 -0.3698 -2.3289 -1.2076
   98MOL0     H13212   6.646   3.103   8.215  1.5419  3.8031 -0.4225
   98MOL0     H13213   6.886   3.114   8.296 -1.8166  0.6890 -2.4260
   98MOL0     H13214   7.123   2.943   8.620  0.2402  0.1364  2.0854
   98MOL0     H13215   7.355   2.864   8.680  1.0098 -0.2139 -0.3805
   98MOL0     H13216   8.905   3.501   8.992 -1.5843 -1.1004 -0.3113
   98MOL0     H13217   9.101   3.500   8.825  2.5164  1.6507  2.1362
   98MOL0     H13218   9.396   3.726   8.659 -0.7025 -1.5812 -0.4241
   98MOL0     H13219   9.616   3.766   8.583 -3.3442  1.3085  2.9261
   98MOL0     H13220   9.803   3.832   8.446  1.0769  0.2603  0.8119
   98MOL0     H13221   9.784   3.653   8.482  0.2305 -2.2609 -0.1110
   98MOL0     H13222  10.016   3.689   8.403  0.1308 -0.7366 -0.5746
   98MOL0     H13223   9.942   3.770   8.257  0.0490 -0.8058 -0.6964
   98MOL0     H13224   9.842   3.559   8.186  1.1081 -3.0944 -1.3764
   98MOL0     H13225   9.874   3.490   8.346  0.7316 -1.6686 -0.3578
   98MOL0     H13226  10.125   3.496   8.300  0.8069 -1.6753 -1.7652
   98MOL0     H13227  10.109   3.585   8.163  0.9345 -1.8535 -1.4150
   98MOL0     H13228  10.038   3.183   8.040 -1.4751 -2.0432  4.0536
   98MOL0     H13229   9.495   3.732   8.176 -0.0761  1.4069 -0.7354
   98MOL0     H13230   9.254   3.719   8.241 -0.2049 -0.9063  0.4270
   99MOL0     O13231   7.429   7.114  10.765 -0.7187 -0.1794 -0.2058
   99MOL0     C13232   7.479   7.176  10.681 -0.2801 -0.7984  0.0369
   99MOL0     O13233   7.446   7.170  10.546  0.5970 -0.2392  0.4498
   99MOL0     C13234   7.326   7.115  10.521  0.3773  0.0096  0.2224
   99MOL0     C13235   7.298   6.980  10.502  0.4130  0.0477  0.3255
   99MOL0     C13236   7.168   6.932  10.485  0.3119  0.1132  0.2871
   99MOL0     C13237   7.058   7.021  10.481 -1.0300 -0.4222 -1.4221
   99MOL0     O13238   6.922   6.995  10.474 -0.2185  0.0585 -0.0685
   99MOL0     C13239   6.881   6.857  10.493  1.4110 -0.1733  0.3654
   99MOL0     C13240   6.737   6.838  10.436  0.2563 -0.9476 -0.2554
   99MOL0     C13241   6.637   6.933  10.504 -0.2282 -0.7667  0.7022
   99MOL0     C13242   6.503   6.955  10.427 -0.1297  0.3311 -0.4669
   99MOL0     C13243   6.407   7.023  10.513  0.1287 -0.7044  0.7881
   99MOL0     C13244   6.293   7.075  10.433  0.7358  0.1215  0.6242
   99MOL0     C13245   6.217   7.170  10.529 -0.4571  0.3835  0.1280
   99MOL0     C13246   6.141   7.107  10.645 -0.3491  0.5394 -0.2439
   99MOL0     N13247   6.039   7.209  10.685  0.3433 -0.4687 -0.2158
   99MOL0     C13248   6.052   7.348  10.700 -0.2862  0.6080  0.6997
   99MOL0     C13249   5.927   7.398  10.741  0.0213 -0.4751  0.4181
   99MOL0     C13250   5.893   7.546  10.746  0.8703 -0.1324 -0.3174
   99MOL0     C13251   5.792   7.589  10.855 -0.7053  0.1601 -0.0539
   99MOL0     C13252   5.773   7.742  10.863 -0.3733 -0.9022  0.1175
   99MOL0     C13253   5.679   7.787  10.971 -0.8034  0.9372 -0.7354
   99MOL0     O13254   5.548   7.730  10.941 -0.3736 -0.0101 -0.3434
   99MOL0     C13255   5.442   7.782  11.009  1.1394  0.2549 -0.1817
   99MOL0     C13256   5.449   7.808  11.145 -0.7676  0.1049  0.4693
   99MOL0     C13257   5.350   7.870  11.219 -1.3701  0.0254  0.7449
   99MOL0     C13258   5.390   7.896  11.361  0.1038 -0.0456  0.1108
   99MOL0     C13259   5.228   7.903  11.146  0.3706 -0.0344 -0.0445
   99MOL0     C13260   5.093   7.917  11.217 -0.6060 -0.6289  0.9483
   99MOL0     O13261   5.100   7.932  11.351  0.5468  0.1733 -0.3146
   99MOL0     C13262   4.989   7.958  11.429 -1.0488  0.2086 -0.3900
   99MOL0     C13263   4.865   7.899  11.410  0.2493 -0.6676 -0.1887
   99MOL0     C13264   4.744   7.934  11.489  1.0424 -0.5191  1.2460
   99MOL0     C13265   4.761   8.020  11.594  0.3520  0.2117 -0.3861
   99MOL0     O13266   4.663   8.050  11.689 -0.0987 -0.9368  0.5439
   99MOL0     C13267   4.525   8.045  11.635  0.2118 -0.1233 -0.2987
   99MOL0     C13268   4.430   8.102  11.745  0.2759 -0.3489  0.7818
   99MOL0     C13269   4.415   8.008  11.867  0.1196  0.1636 -0.3651
   99MOL0     C13270   4.327   8.071  11.983  0.5305  0.0789 -0.0940
   99MOL0     C13271   4.301   7.973  12.095  0.0347 -0.6434  0.3577
   99MOL0     C13272   4.178   8.007  12.180  0.1130 -0.3423 -0.3549
   99MOL0     C13273   4.113   7.897  12.275 -1.1377 -0.6218  0.0927
   99MOL0     C13274   3.984   7.947  12.351  0.1044 -0.9598  0.8125
   99MOL0    Cl13275   3.862   8.012  12.241 -0.5505 -0.0272 -0.2523
   99MOL0     C13276   4.888   8.067  11.625 -0.9844  0.0955  0.8589
   99MOL0     C13277   4.999   8.039  11.544  0.3709 -0.3550 -0.0434
   99MOL0     O13278   4.986   7.924  11.154  0.2553  0.9435 -0.1570
   99MOL0     C13279   5.223   7.883  11.007  0.2199 -0.3054 -0.2221
   99MOL0     C13280   5.329   7.817  10.933 -0.7403  0.2518 -0.8443
   99MOL0     N13281   5.837   7.292  10.729  0.0167 -0.4759 -0.1617
   99MOL0     N13282   5.904   7.178  10.700 -0.2038 -0.3906  0.3473
   99MOL0     C13283   7.085   7.158  10.516 -0.2897  0.3160  0.9084
   99MOL0     C13284   7.219   7.207  10.537  0.6209  0.6056  0.7229
   99MOL0     C13285   7.591   7.270  10.713 -0.1939  0.6937 -0.0990
   99MOL0     C13286   7.637   7.264  10.850  0.5911  0.9123 -0.0611
   99MOL0     C13287   7.756   7.324  10.891 -0.1403 -0.5805 -0.0965
   99MOL0     C13288   7.831   7.396  10.798  0.5636  0.2987  0.0877
   99MOL0     O13289   7.955   7.450  10.818  0.3204  0.2391  0.3638
   99MOL0     C13290   8.040   7.374  10.909 -0.1713  0.4200  0.9049
   99MOL0     C13291   8.147   7.460  10.959  0.5665 -0.8886 -0.6042
   99MOL0     C13292   8.265   7.491  10.873 -1.0184 -0.1454  0.6905
   99MOL0     C13293   8.389   7.559  10.930 -0.4815  0.3452 -0.7388
   99MOL0     C13294   8.506   7.532  10.852  1.2831  0.0690 -0.6233
   99MOL0     C13295   8.604   7.491  10.796  0.0172 -0.4618  0.1476
   99MOL0     C13296   7.775   7.422  10.671 -0.3778  0.0952 -0.2685
   99MOL0     C13297   7.662   7.361  10.624  0.0651 -0.6717  0.0034
   99MOL0     H13298   7.380   6.909  10.501  0.2237 -0.2107  1.5382
   99MOL0     H13299   7.160   6.825  10.471  1.1169  0.1812 -0.8640
   99MOL0     H13300   6.955   6.800  10.436  1.5742  0.8914 -0.5430
   99MOL0     H13301   6.878   6.829  10.598  2.1538 -4.0088 -0.5109
   99MOL0     H13302   6.739   6.868  10.331  1.2464  2.6788  0.6537
   99MOL0     H13303   6.705   6.734  10.440  0.0599 -0.8720  3.0698
   99MOL0     H13304   6.605   6.880  10.594  1.6673 -1.2966  1.1211
   99MOL0     H13305   6.675   7.031  10.537 -1.8910  1.6546 -3.7040
   99MOL0     H13306   6.518   7.014  10.336  0.6781  0.8468 -0.0094
   99MOL0     H13307   6.457   6.863  10.390  1.7102 -0.5121 -0.8186
   99MOL0     H13308   6.376   6.965  10.600 -0.1801  0.7104  1.6431
   99MOL0     H13309   6.471   7.102  10.552  0.2565 -0.6820  0.5340
   99MOL0     H13310   6.317   7.140  10.349 -0.4284  1.3792  1.2290
   99MOL0     H13311   6.224   6.995  10.402  2.8577 -0.7781 -2.2419
   99MOL0     H13312   6.289   7.243  10.567  1.7734 -2.3632  1.6429
   99MOL0     H13313   6.140   7.207  10.462  0.2210 -0.1089 -0.9635
   99MOL0     H13314   6.207   7.080  10.728 -0.8514 -1.0108 -0.3195
   99MOL0     H13315   6.101   7.012  10.608 -0.4890  1.3852 -2.4423
   99MOL0     H13316   6.152   7.390  10.692 -0.8219  1.6780 -1.2437
   99MOL0     H13317   5.987   7.598  10.766  0.3672  1.0870 -1.0505
   99MOL0     H13318   5.858   7.577  10.647  0.0137  1.7714  0.5527
   99MOL0     H13319   5.826   7.564  10.956 -1.8565  0.3194  0.3976
   99MOL0     H13320   5.694   7.542  10.846 -0.4821 -0.5383  0.9792
   99MOL0     H13321   5.726   7.773  10.769 -3.4773 -1.8053  1.2466
   99MOL0     H13322   5.864   7.796  10.889 -0.4358 -0.5684 -0.3395
   99MOL0     H13323   5.678   7.895  10.952 -0.2889  0.8592 -1.2346
   99MOL0     H13324   5.720   7.761  11.069  0.7273  0.4575 -1.4752
   99MOL0     H13325   5.539   7.778  11.197  1.0600 -1.7581 -3.3730
   99MOL0     H13326   5.370   7.996  11.401  3.5636  0.6347  0.4545
   99MOL0     H13327   5.343   7.827  11.431 -1.1295 -1.9660 -2.4671
   99MOL0     H13328   5.496   7.881  11.383  0.1535 -1.7302 -1.0807
   99MOL0     H13329   4.848   7.823  11.334 -3.6529 -0.6231  0.3986
   99MOL0     H13330   4.647   7.896  11.461  1.3239 -0.3770  0.0424
   99MOL0     H13331   4.506   8.104  11.545 -2.7301 -2.5299 -1.4224
   99MOL0     H13332   4.494   7.943  11.610 -0.0068 -0.6646  1.9017
   99MOL0     H13333   4.472   8.189  11.796  2.1552  0.0999 -1.3578
   99MOL0     H13334   4.336   8.134  11.700  1.0882 -0.2208 -0.9344
   99MOL0     H13335   4.512   7.977  11.906  0.8195 -0.9704 -2.7840
   99MOL0     H13336   4.367   7.920  11.824  1.3338 -0.8922  0.3948
   99MOL0     H13337   4.387   8.152  12.024 -0.4900  0.1321  1.3510
   99MOL0     H13338   4.240   8.114  11.933  0.7850 -1.3823 -1.9398
   99MOL0     H13339   4.394   7.972  12.152 -0.7562  1.0313  1.7759
   99MOL0     H13340   4.289   7.874  12.049  0.3932  0.2663 -1.8146
   99MOL0     H13341   4.183   8.098  12.240 -2.9734  0.1462 -0.6591
   99MOL0     H13342   4.107   8.051  12.109  1.8274  1.3995 -1.0939
   99MOL0     H13343   4.180   7.855  12.351 -0.4852  0.8896  0.3741
   99MOL0     H13344   4.079   7.811  12.216 -2.2051 -0.3976  0.3600
   99MOL0     H13345   4.015   8.024  12.422  2.4243  0.3718 -1.4792
   99MOL0     H13346   3.945   7.869  12.417 -1.9862 -0.4774  0.2478
   99MOL0     H13347   4.905   8.128  11.713 -0.4684 -0.8220  1.4094
   99MOL0     H13348   5.089   8.092  11.576 -0.6039  0.7262  0.9801
   99MOL0     H13349   5.132   7.904  10.953  1.2158  1.3746 -1.3314
   99MOL0     H13350   5.317   7.807  10.825 -2.2671 -1.4614 -0.5762
   99MOL0     H13351   7.008   7.234  10.507  0.0069  0.6358  1.0677
   99MOL0     H13352   7.232   7.313  10.556 -0.1196  0.5517  1.6210
   99MOL0     H13353   7.595   7.194  10.922 -1.6895  1.4890 -0.7554
   99MOL0     H13354   7.802   7.316  10.989 -0.4431 -0.3628  0.0640
   99MOL0     H13355   7.995   7.329  10.997  0.0354 -1.8635 -0.0980
   99MOL0     H13356   8.080   7.286  10.858  0.7487  2.2100 -1.6592
   99MOL0     H13357   8.183   7.416  11.053  2.0441 -1.2845 -1.3375
   99MOL0     H13358   8.098   7.556  10.978 -0.1300 -1.2860 -0.3793
   99MOL0     H13359   8.229   7.544  10.784 -2.1347  0.9272  1.7497
   99MOL0     H13360   8.299   7.394  10.834  3.9180  1.5712  0.0247
   99MOL0     H13361   8.418   7.527  11.030  2.5815 -2.6115 -2.3579
   99MOL0     H13362   8.358   7.663  10.943 -1.2458  0.0804 -0.3621
   99MOL0     H13363   8.699   7.467  10.754  0.0386  0.0057 -0.0843
   99MOL0     H13364   7.824   7.493  10.605 -1.8412  1.3577 -0.0455
   99MOL0     H13365   7.625   7.375  10.523 -0.5423  0.8528  0.4123
  100MOL0     O13366   4.485   3.001  11.093  0.2096  0.0248  0.7308
  100MOL0     C13367   4.546   2.954  10.998  0.2445 -0.4684 -0.0290
  100MOL0     O13368   4.491   2.918  10.874 -0.2820 -0.7781 -0.9800
  100MOL0     C13369   4.355   2.917  10.850 -0.3133  1.0032 -0.0804
  100MOL0     C13370   4.306   2.956  10.725 -0.7492  0.6710 -0.4511
  100MOL0     C13371   4.169   2.971  10.699 -0.2412 -0.1973 -0.4587
  100MOL0     C13372   4.079   2.935  10.797  1.0224 -0.5845  0.3302
  100MOL0     O13373   3.948   2.954  10.754 -0.4322  0.3711 -0.0135
  100MOL0     C13374   3.838   2.964  10.852 -0.2782  0.7863 -0.2348
  100MOL0     C13375   3.711   3.019  10.795 -0.2615  0.1249 -0.5017
  100MOL0     C13376   3.675   2.918  10.685  1.6099 -1.1960 -0.4494
  100MOL0     C13377   3.523   2.942  10.669 -0.6377  0.1809  0.7869
  100MOL0     C13378   3.465   2.877  10.536 -0.4248 -0.9331 -0.1362
  100MOL0     C13379   3.476   2.721  10.544 -0.0995 -0.6544  0.1762
  100MOL0     C13380   3.418   2.657  10.663  1.5166 -0.0239 -0.2430
  100MOL0     C13381   3.267   2.679  10.676  0.7696 -0.4879 -0.2681
  100MOL0     N13382   3.199   2.631  10.805 -0.1470  0.0037  0.2361
  100MOL0     C13383   3.188   2.497  10.835 -0.6361 -0.2563 -0.3679
  100MOL0     C13384   3.132   2.487  10.954  0.0964 -0.3846 -0.1459
  100MOL0     C13385   3.071   2.367  10.988 -0.4258  0.8596  0.5715
  100MOL0     C13386   2.924   2.341  10.944  0.1155 -0.4928 -0.4487
  100MOL0     C13387   2.832   2.455  11.008  0.5052  0.1259 -0.0009
  100MOL0     C13388   2.684   2.418  10.979 -0.0061 -0.7613 -0.5336
  100MOL0     O13389   2.593   2.500  11.058 -0.1326  0.0999 -0.7329
  100MOL0     C13390   2.454   2.479  11.057 -0.2045  0.0667  0.2121
  100MOL0     C13391   2.386   2.538  11.162 -0.2861  0.1402  0.3386
  100MOL0     C13392   2.242   2.528  11.177  0.1157  1.4380 -0.8591
  100MOL0     C13393   2.184   2.577  11.306 -0.7347 -0.7884  0.1137
  100MOL0     C13394   2.171   2.451  11.074 -0.3674  0.0724  0.0829
  100MOL0     C13395   2.026   2.436  11.064 -0.9773 -0.1039 -0.1714
  100MOL0     O13396   1.989   2.331  10.987  0.3466 -0.4529  0.3599
  100MOL0     C13397   1.856   2.296  10.978  0.5871  0.6590 -0.3927
  100MOL0     C13398   1.744   2.388  10.977  0.3624  0.5720 -0.3093
  100MOL0     C13399   1.610   2.344  10.960 -0.2525 -0.6467  0.4605
  100MOL0     C13400   1.588   2.206  10.952 -0.1173  0.2925 -0.7395
  100MOL0     O13401   1.468   2.145  10.923 -0.6941 -0.0554 -0.5376
  100MOL0     C13402   1.355   2.197  11.004  0.1871  0.1947  0.4209
  100MOL0     C13403   1.227   2.140  10.948 -0.0977 -0.1535 -0.3136
  100MOL0     C13404   1.183   2.225  10.828  0.1203 -0.4774 -0.1457
  100MOL0     C13405   1.046   2.174  10.775  1.1214 -0.0822 -0.1226
  100MOL0     C13406   1.001   2.242  10.645 -0.8771  0.1667 -0.1431
  100MOL0     C13407   0.872   2.179  10.592  0.2797  0.7430 -0.4571
  100MOL0     C13408   0.833   2.250  10.466  1.0428  0.4407  0.5718
  100MOL0     C13409   0.720   2.171  10.395  0.3561 -1.0317  1.6775
  100MOL0    Cl13410   0.554   2.237  10.444 -0.0983  0.1957  0.1192
  100MOL0     C13411   1.697   2.114  10.957  0.4989 -0.2528  0.0256
  100MOL0     C13412   1.825   2.163  10.964  0.1365 -0.3071 -0.2431
  100MOL0     O13413   1.958   2.506  11.137  0.6303 -0.0286  0.0122
  100MOL0     C13414   2.246   2.403  10.966  0.4630 -0.4236  0.3622
  100MOL0     C13415   2.388   2.409  10.957 -0.1408 -0.1263  0.5514
  100MOL0     N13416   3.116   2.616  10.998  0.6061  0.2669  0.7328
  100MOL0     N13417   3.148   2.701  10.903 -0.6494  0.4837 -0.3685
  100MOL0     C13418   4.120   2.884  10.915 -0.6527 -0.6363  0.0086
  100MOL0     C13419   4.257   2.887  10.946 -0.5731  0.1039  0.6847
  100MOL0     C13420   4.683   2.916  11.031  0.1298  0.4020  0.9976
  100MOL0     C13421   4.732   2.919  11.158 -0.1199 -0.8291 -0.9778
  100MOL0     C13422   4.862   2.894  11.190  0.5624  0.3144  0.3708
  100MOL0     C13423   4.955   2.857  11.096 -0.6717 -1.0396 -0.0416
  100MOL0     O13424   5.088   2.837  11.124  0.6115 -0.8097 -0.0550
  100MOL0     C13425   5.140   2.718  11.076 -0.1602  0.1359 -0.0196
  100MOL0     C13426   5.275   2.687  11.143  0.5897  0.9381  0.5067
  100MOL0     C13427   5.377   2.802  11.131 -1.2200 -0.2757  0.1995
  100MOL0     C13428   5.491   2.783  11.223 -0.2794  0.3498 -0.7670
  100MOL0     C13429   5.547   2.648  11.206 -0.4006 -0.4073 -0.6768
  100MOL0     C13430   5.596   2.542  11.172 -0.6030  0.5563  0.7033
  100MOL0     C13431   4.902   2.849  10.966  0.1904 -0.4459  1.1170
  100MOL0     C13432   4.774   2.876  10.929 -0.2223 -0.3513 -0.8210
  100MOL0     H13433   4.383   2.994  10.658 -0.7786  0.1035 -0.8071
  100MOL0     H13434   4.127   3.017  10.610 -4.3408  1.1763  1.8908
  100MOL0     H13435   3.813   2.868  10.899 -0.9491  0.2928 -1.5372
  100MOL0     H13436   3.872   3.029  10.932  0.5607  0.9053 -0.6749
  100MOL0     H13437   3.643   3.019  10.881  2.3409 -3.3724  1.8403
  100MOL0     H13438   3.719   3.113  10.740 -1.5142  0.7286  0.2898
  100MOL0     H13439   3.735   2.956  10.601  2.3308  3.5686  1.8749
  100MOL0     H13440   3.684   2.817  10.726 -3.1030 -1.2775  0.9267
  100MOL0     H13441   3.462   2.920  10.756 -0.3786 -2.1121  0.4298
  100MOL0     H13442   3.510   3.051  10.660 -0.3728  0.2666  1.3769
  100MOL0     H13443   3.362   2.909  10.522  0.0679 -0.1844 -2.4802
  100MOL0     H13444   3.522   2.911  10.449  1.6480  2.4212  2.3115
  100MOL0     H13445   3.425   2.683  10.455 -0.3735  0.0399  0.0291
  100MOL0     H13446   3.580   2.689  10.537  0.9112  1.8453  2.2076
  100MOL0     H13447   3.443   2.550  10.659 -0.4889 -0.6161  1.4706
  100MOL0     H13448   3.448   2.695  10.761 -0.6670 -2.5133  1.5433
  100MOL0     H13449   3.221   2.631  10.589 -0.2378  2.8264 -1.7418
  100MOL0     H13450   3.247   2.787  10.684  0.7557 -0.4964 -0.1901
  100MOL0     H13451   3.208   2.407  10.777 -0.1248 -0.0762 -0.4759
  100MOL0     H13452   3.141   2.291  10.951  0.4924  2.1643 -0.4393
  100MOL0     H13453   3.084   2.364  11.097  2.0844 -2.1321  0.3273
  100MOL0     H13454   2.891   2.240  10.973 -2.5345 -0.5333 -3.1526
  100MOL0     H13455   2.923   2.350  10.835 -1.4633 -1.2860 -0.5378
  100MOL0     H13456   2.850   2.555  10.966 -3.3720  0.2169 -1.8665
  100MOL0     H13457   2.847   2.458  11.116  0.9592  2.8954 -0.0758
  100MOL0     H13458   2.667   2.312  11.000 -1.7799 -0.3212  0.4373
  100MOL0     H13459   2.667   2.437  10.873  1.0322  3.2990 -0.1313
  100MOL0     H13460   2.443   2.611  11.218 -3.4906  1.5369  2.0493
  100MOL0     H13461   2.248   2.573  11.394 -1.7012 -1.0766  0.8142
  100MOL0     H13462   2.168   2.684  11.289 -0.8381 -0.6736  0.9074
  100MOL0     H13463   2.091   2.526  11.331 -1.1036 -1.7912 -2.8295
  100MOL0     H13464   1.767   2.492  10.998  0.0198  0.1399  2.6618
  100MOL0     H13465   1.530   2.417  10.956  1.3024  1.2181  1.6104
  100MOL0     H13466   1.375   2.164  11.107  1.0662  1.3256  0.6287
  100MOL0     H13467   1.350   2.307  11.000 -1.1690  0.2644  2.3947
  100MOL0     H13468   1.237   2.034  10.924  1.0470 -0.9462  3.1399
  100MOL0     H13469   1.150   2.141  11.025 -0.3366 -0.8409 -0.5325
  100MOL0     H13470   1.263   2.219  10.754  0.4186 -6.3838  0.2098
  100MOL0     H13471   1.175   2.329  10.861 -0.4628 -0.7775  0.7036
  100MOL0     H13472   1.044   2.066  10.757  0.1589  0.2869 -2.6059
  100MOL0     H13473   0.968   2.193  10.849  0.3284 -0.8511 -0.7454
  100MOL0     H13474   1.086   2.238  10.576 -1.6612  0.8491 -1.1874
  100MOL0     H13475   0.997   2.349  10.667  4.6778  0.8474 -0.9596
  100MOL0     H13476   0.884   2.072  10.570 -1.2700 -0.1705  2.6013
  100MOL0     H13477   0.794   2.183  10.669  1.0472  1.6388  0.2919
  100MOL0     H13478   0.918   2.263  10.398  0.4235 -1.0709 -0.5569
  100MOL0     H13479   0.806   2.351  10.499  4.2074  0.8596  2.3019
  100MOL0     H13480   0.727   2.062  10.404  0.4172 -0.9146  3.2220
  100MOL0     H13481   0.726   2.190  10.287  1.0100  1.4680  2.0873
  100MOL0     H13482   1.669   2.010  10.951 -1.7268  0.2901 -0.0920
  100MOL0     H13483   1.905   2.091  10.953  1.5576  1.5529 -3.6216
  100MOL0     H13484   2.192   2.359  10.883  0.2510 -1.5054  1.0553
  100MOL0     H13485   2.432   2.360  10.870 -0.4005  3.1708 -1.6035
  100MOL0     H13486   4.047   2.848  10.986 -2.1628 -0.2180 -1.2709
  100MOL0     H13487   4.269   2.862  11.051  0.4349 -1.8285  0.1481
  100MOL0     H13488   4.661   2.941  11.237 -2.1623 -2.4580 -2.2602
  100MOL0     H13489   4.884   2.900  11.297 -0.7247 -0.3159  0.6925
  100MOL0     H13490   5.064   2.642  11.094 -1.2308  0.6156 -2.1311
  100MOL0     H13491   5.167   2.732  10.971  2.3792 -1.4128  0.3281
  100MOL0     H13492   5.311   2.589  11.110  1.8558  1.5621  0.0006
  100MOL0     H13493   5.251   2.673  11.249 -0.0903 -3.5941 -0.0449
  100MOL0     H13494   5.322   2.895  11.146 -3.1939 -0.8648 -2.4683
  100MOL0     H13495   5.414   2.793  11.028  0.1070 -1.5436  0.7542
  100MOL0     H13496   5.462   2.792  11.328 -1.2800 -2.3173 -0.7323
  100MOL0     H13497   5.566   2.852  11.183 -0.7308  0.5676 -1.2401
  100MOL0     H13498   5.644   2.453  11.136 -0.4141  0.6273  0.7804
  100MOL0     H13499   4.969   2.818  10.886  1.8998 -0.1533  2.3756
  100MOL0     H13500   4.750   2.861  10.824 -1.6631 -1.5162 -0.3575
  101MOL0     O13501   5.004   2.652  10.364 -0.2998 -0.1204  0.2167
  101MOL0     C13502   5.027   2.714  10.466 -0.3309  0.2595 -0.0672
  101MOL0     O13503   4.949   2.804  10.528  0.7500 -0.3136  0.0582
  101MOL0     C13504   4.819   2.828  10.474  0.0178  1.2438 -0.6286
  101MOL0     C13505   4.771   2.958  10.473 -0.8585 -0.4914  0.2279
  101MOL0     C13506   4.640   2.991  10.430  0.1597  0.7350 -0.3268
  101MOL0     C13507   4.561   2.894  10.375  0.3506 -0.2563 -0.0790
  101MOL0     O13508   4.440   2.936  10.319 -0.0472  0.6714 -0.7736
  101MOL0     C13509   4.330   2.844  10.310 -0.7654 -0.5786 -0.6602
  101MOL0     C13510   4.201   2.908  10.372 -0.4377 -0.0725 -0.7385
  101MOL0     C13511   4.077   2.829  10.327 -0.1067  0.0311  0.3371
  101MOL0     C13512   3.953   2.854  10.422  0.4498  0.2329 -0.1562
  101MOL0     C13513   3.822   2.793  10.376  0.3746 -0.8640  0.4074
  101MOL0     C13514   3.752   2.886  10.274 -0.2730 -0.2725 -0.3178
  101MOL0     C13515   3.656   2.809  10.182 -0.3616  0.6391 -0.1629
  101MOL0     C13516   3.574   2.911  10.096  0.3509  0.7416  0.2755
  101MOL0     N13517   3.479   2.843  10.007 -0.3013  0.1868  0.1751
  101MOL0     C13518   3.345   2.864  10.021  0.6266 -0.1675  0.3192
  101MOL0     C13519   3.292   2.787   9.927 -0.6954  0.7723  0.2642
  101MOL0     C13520   3.150   2.774   9.871  0.3793  0.3865  0.3862
  101MOL0     C13521   3.033   2.804   9.972  0.1463 -0.4409  0.6145
  101MOL0     C13522   2.905   2.788   9.904 -1.1790  0.0359  0.6857
  101MOL0     C13523   2.788   2.816  10.002 -0.2626  0.2712 -0.7543
  101MOL0     O13524   2.688   2.712  10.014  0.0641 -0.5616 -0.3445
  101MOL0     C13525   2.561   2.755  10.040  0.0796  0.0729 -0.5303
  101MOL0     C13526   2.528   2.868  10.122 -0.1363  0.1276 -0.6598
  101MOL0     C13527   2.393   2.909  10.128 -0.2775 -0.6518 -0.9858
  101MOL0     C13528   2.376   3.042  10.187  0.7600 -0.2562  0.2161
  101MOL0     C13529   2.287   2.846  10.065 -0.1616 -0.2726  0.2010
  101MOL0     C13530   2.144   2.884  10.062 -0.0793  0.5898  1.0015
  101MOL0     O13531   2.066   2.811   9.972  0.7854  0.0127  0.3338
  101MOL0     C13532   1.931   2.830   9.966 -0.6906  0.3944 -0.0727
  101MOL0     C13533   1.843   2.719   9.960 -0.6950 -0.1898  1.2938
  101MOL0     C13534   1.707   2.740   9.946  0.0681 -0.5306 -1.1691
  101MOL0     C13535   1.652   2.865   9.929 -0.0126 -0.1267 -0.0756
  101MOL0     O13536   1.512   2.870   9.909  0.6077 -0.0720  0.2607
  101MOL0     C13537   1.432   2.970   9.970 -0.1577  0.4634  0.1720
  101MOL0     C13538   1.425   3.085   9.866 -0.5977 -0.2533  0.1542
  101MOL0     C13539   1.316   3.185   9.905 -1.0806  0.1560 -0.6516
  101MOL0     C13540   1.345   3.239  10.044 -0.2245  0.0250 -0.1827
  101MOL0     C13541   1.247   3.342  10.092  0.3427 -0.1605 -0.2133
  101MOL0     C13542   1.107   3.279  10.112 -0.0280 -1.0724 -0.5268
  101MOL0     C13543   1.014   3.373  10.192  0.4649 -0.1716  0.0413
  101MOL0     C13544   0.902   3.422  10.100  1.1829 -1.8567  0.4841
  101MOL0    Cl13545   0.821   3.567  10.166 -0.4758 -0.0734 -0.0924
  101MOL0     C13546   1.727   2.976   9.935 -0.4373  0.2032 -0.2584
  101MOL0     C13547   1.868   2.953   9.955  0.4219  0.6127  0.2413
  101MOL0     O13548   2.106   2.981  10.130  0.3932 -0.6255 -0.2191
  101MOL0     C13549   2.335   2.738   9.986  0.1803 -0.5411 -0.1601
  101MOL0     C13550   2.464   2.696   9.974  0.7781  0.2844 -0.9968
  101MOL0     N13551   3.396   2.727   9.855 -0.4102  0.1546  0.0754
  101MOL0     N13552   3.512   2.760   9.906  0.6445  0.5918 -0.1974
  101MOL0     C13553   4.610   2.761  10.363 -0.4930 -0.1826 -0.0568
  101MOL0     C13554   4.737   2.727  10.423 -0.0067 -0.7727  0.0115
  101MOL0     C13555   5.141   2.660  10.547  0.7263  0.5096  1.8131
  101MOL0     C13556   5.197   2.538  10.519  0.1190  0.3015  0.8845
  101MOL0     C13557   5.308   2.486  10.594  0.3573  0.2415  0.4837
  101MOL0     C13558   5.373   2.560  10.697  0.0995  0.0328 -0.0161
  101MOL0     O13559   5.481   2.510  10.758 -0.3339  0.3451  0.3878
  101MOL0     C13560   5.600   2.588  10.775 -0.3088  0.2739  0.0547
  101MOL0     C13561   5.696   2.581  10.660  0.0412  1.0194 -0.6763
  101MOL0     C13562   5.745   2.436  10.635 -0.2274  0.0794 -0.9839
  101MOL0     C13563   5.844   2.378  10.746  0.0009 -0.0537  0.3547
  101MOL0     C13564   5.982   2.434  10.721  0.4182  0.3140  0.1058
  101MOL0     C13565   6.087   2.492  10.716  0.2831  0.4533 -0.4022
  101MOL0     C13566   5.307   2.682  10.725  0.4704  0.0599 -0.7785
  101MOL0     C13567   5.190   2.727  10.656 -0.8186 -0.2704  0.0892
  101MOL0     H13568   4.837   3.031  10.518 -1.7310  0.7132 -0.3814
  101MOL0     H13569   4.609   3.095  10.439  4.2660  2.0694  1.0636
  101MOL0     H13570   4.308   2.816  10.206 -2.0469  0.1412 -0.6100
  101MOL0     H13571   4.356   2.754  10.366  2.4958  0.3991 -0.4182
  101MOL0     H13572   4.213   2.902  10.481  0.7094  0.1021 -0.8442
  101MOL0     H13573   4.197   3.013  10.343  0.0470 -0.8652 -4.0250
  101MOL0     H13574   4.038   2.870  10.234 -0.7669  0.1848  0.6737
  101MOL0     H13575   4.084   2.720  10.318  0.1511 -0.0110  0.9329
  101MOL0     H13576   3.974   2.813  10.521 -2.0037 -3.9090 -1.1232
  101MOL0     H13577   3.947   2.963  10.435  0.3746  0.2200 -0.0771
  101MOL0     H13578   3.847   2.695  10.334 -1.7636 -1.3694  0.1996
  101MOL0     H13579   3.753   2.786  10.461 -1.1685  0.7603 -0.6469
  101MOL0     H13580   3.691   2.963  10.323 -1.9394 -1.3497 -0.6180
  101MOL0     H13581   3.820   2.939  10.206  0.1309 -0.4782 -0.0727
  101MOL0     H13582   3.712   2.743  10.114 -0.7414  1.0400 -0.8766
  101MOL0     H13583   3.592   2.740  10.239  1.2027 -2.2216 -1.6232
  101MOL0     H13584   3.644   2.970  10.036  0.7431  0.8750  0.8498
  101MOL0     H13585   3.518   2.976  10.164  0.9216 -1.4480  3.0415
  101MOL0     H13586   3.289   2.936  10.080  1.1669  0.5703 -0.0511
  101MOL0     H13587   3.129   2.841   9.788 -2.0856 -3.3059 -2.2728
  101MOL0     H13588   3.142   2.673   9.831  2.3594  1.3816 -2.9135
  101MOL0     H13589   3.045   2.907  10.005 -0.4169  0.5021 -1.8797
  101MOL0     H13590   3.037   2.730  10.052  1.7843  0.2430  1.2084
  101MOL0     H13591   2.891   2.690   9.856 -4.6187  0.5598  0.3548
  101MOL0     H13592   2.895   2.868   9.830 -0.2876  0.6646  1.2386
  101MOL0     H13593   2.744   2.906   9.956  0.5106  0.2943 -1.4826
  101MOL0     H13594   2.821   2.842  10.103 -1.0421 -1.5922  0.0124
  101MOL0     H13595   2.601   2.928  10.176 -0.8555  0.0782  0.3912
  101MOL0     H13596   2.361   3.101  10.096  0.9112 -3.2017 -1.8516
  101MOL0     H13597   2.286   3.038  10.249  0.4144  1.1573 -0.1467
  101MOL0     H13598   2.452   3.080  10.256 -2.4830  1.0322  3.4245
  101MOL0     H13599   1.889   2.622   9.974 -0.5048 -0.0158  1.8889
  101MOL0     H13600   1.643   2.652   9.946  2.2719 -2.4138  2.9270
  101MOL0     H13601   1.330   2.932   9.983  1.5068 -5.3777 -0.9577
  101MOL0     H13602   1.469   2.995  10.070  1.3904 -1.6301  0.1957
  101MOL0     H13603   1.518   3.141   9.852 -1.7616  2.0461  1.1174
  101MOL0     H13604   1.413   3.042   9.766  0.9947 -0.2511 -0.0571
  101MOL0     H13605   1.221   3.135   9.888 -0.3681 -0.8477 -1.7991
  101MOL0     H13606   1.322   3.267   9.833  0.3163  1.1808  0.5540
  101MOL0     H13607   1.354   3.163  10.122 -0.5548 -1.2123 -1.3142
  101MOL0     H13608   1.448   3.273  10.039 -0.2487  0.1566  0.2083
  101MOL0     H13609   1.234   3.426  10.023 -1.8497  0.9212  1.4075
  101MOL0     H13610   1.283   3.392  10.182 -0.6981  1.8761 -0.8696
  101MOL0     H13611   1.066   3.251  10.014  1.1665 -2.3984 -0.6717
  101MOL0     H13612   1.121   3.187  10.169  2.2803  1.3553  3.3038
  101MOL0     H13613   1.074   3.453  10.235  1.8650  0.5885 -3.0315
  101MOL0     H13614   0.972   3.323  10.280  3.8001 -0.4040  1.6641
  101MOL0     H13615   0.833   3.338  10.085  3.1352 -3.3676 -0.5608
  101MOL0     H13616   0.938   3.437   9.998  0.8312 -1.3778  0.4274
  101MOL0     H13617   1.696   3.079   9.917  0.9053  0.5096 -1.0346
  101MOL0     H13618   1.926   3.044   9.946 -1.6880  2.0114  0.1770
  101MOL0     H13619   2.263   2.686   9.924 -0.4947 -0.6957  0.7416
  101MOL0     H13620   2.480   2.600   9.926 -1.1399 -1.8490  2.2343
  101MOL0     H13621   4.550   2.683  10.316  0.0823 -1.9212  1.9060
  101MOL0     H13622   4.761   2.622  10.433 -1.9592 -1.2023  0.6470
  101MOL0     H13623   5.154   2.480  10.438 -1.4034  3.7017 -0.9596
  101MOL0     H13624   5.342   2.386  10.571  1.7972  0.8518 -0.2004
  101MOL0     H13625   5.574   2.693  10.787  1.5052  0.6337  1.2269
  101MOL0     H13626   5.654   2.561  10.866 -0.2239  1.9802  0.5356
  101MOL0     H13627   5.779   2.640  10.702 -0.0860 -0.6327  2.1764
  101MOL0     H13628   5.658   2.625  10.568 -0.8404 -0.8431 -1.2432
  101MOL0     H13629   5.797   2.430  10.539  0.6517  0.0152 -0.5120
  101MOL0     H13630   5.671   2.356  10.626  0.4828 -0.4454 -2.5274
  101MOL0     H13631   5.847   2.270  10.758  0.0509  0.1929  3.1733
  101MOL0     H13632   5.805   2.404  10.845 -0.4211 -0.9632  0.4322
  101MOL0     H13633   6.177   2.551  10.708  1.9134 -1.4577  2.2455
  101MOL0     H13634   5.347   2.736  10.810  0.0755  1.3919 -1.4094
  101MOL0     H13635   5.149   2.817  10.702  1.0430  0.0780  1.2043
  102MOL0     O13636   5.624   8.626   4.011 -0.6085  0.0342 -0.4252
  102MOL0     C13637   5.579   8.600   4.126  0.0132 -0.8034  0.3224
  102MOL0     O13638   5.454   8.549   4.159 -0.2534 -0.0613  0.5276
  102MOL0     C13639   5.359   8.577   4.058  0.4026  0.3604  0.0486
  102MOL0     C13640   5.282   8.695   4.077 -0.5973 -0.1858  0.5566
  102MOL0     C13641   5.169   8.725   3.998 -0.2341 -0.0537  1.2244
  102MOL0     C13642   5.122   8.630   3.897  0.8657  0.5433 -0.3695
  102MOL0     O13643   5.021   8.666   3.811  1.0651 -0.0208  0.2161
  102MOL0     C13644   4.912   8.577   3.793  0.6563  0.2412 -0.0497
  102MOL0     C13645   4.821   8.640   3.683  0.2145 -0.1038 -0.1152
  102MOL0     C13646   4.755   8.769   3.739  0.5530 -0.6722 -0.0204
  102MOL0     C13647   4.664   8.815   3.626  0.5401 -0.3107 -0.3821
  102MOL0     C13648   4.604   8.950   3.652 -0.1371  0.2140 -0.3817
  102MOL0     C13649   4.503   8.964   3.764 -0.2181 -0.1944 -0.5019
  102MOL0     C13650   4.444   9.099   3.783 -0.4730 -0.6990 -0.0740
  102MOL0     C13651   4.378   9.151   3.654  0.0494 -0.0861 -1.4333
  102MOL0     N13652   4.310   9.279   3.677  0.5909  0.8965  0.4131
  102MOL0     C13653   4.348   9.397   3.617 -0.0645 -0.1104  1.0016
  102MOL0     C13654   4.272   9.495   3.677 -0.1368 -0.5310  0.5148
  102MOL0     C13655   4.282   9.640   3.641  0.1001 -0.2393  0.5430
  102MOL0     C13656   4.416   9.694   3.641 -0.0131 -0.2806  1.1486
  102MOL0     C13657   4.498   9.688   3.774 -0.9771  0.4117  0.0011
  102MOL0     C13658   4.646   9.729   3.759  0.7797  0.0101  0.2444
  102MOL0     O13659   4.708   9.635   3.673  0.2954 -0.1073  0.4722
  102MOL0     C13660   4.840   9.662   3.638  0.1989  0.7360 -1.1892
  102MOL0     C13661   4.921   9.765   3.700  0.3028 -0.3123 -0.7586
  102MOL0     C13662   5.054   9.789   3.650  0.3402  0.4691 -0.9718
  102MOL0     C13663   5.131   9.875   3.747 -0.2946 -0.2963 -0.0386
  102MOL0     C13664   5.114   9.705   3.553 -0.3086 -0.9130 -0.0490
  102MOL0     C13665   5.257   9.710   3.512 -0.0415  0.1360 -0.0973
  102MOL0     O13666   5.345   9.759   3.604 -0.3231 -0.6486 -0.2271
  102MOL0     C13667   5.483   9.760   3.589  0.2621 -0.4126  0.1802
  102MOL0     C13668   5.553   9.664   3.509  0.0835 -0.5688 -0.4709
  102MOL0     C13669   5.691   9.645   3.524 -0.2216  0.5333  0.8332
  102MOL0     C13670   5.765   9.726   3.610 -0.2763  0.0984  0.2267
  102MOL0     O13671   5.899   9.713   3.651  0.2813 -0.2665 -0.9364
  102MOL0     C13672   5.987   9.611   3.598 -0.8928 -0.0709  0.2225
  102MOL0     C13673   6.135   9.620   3.657 -0.1117 -0.7626 -0.0873
  102MOL0     C13674   6.218   9.708   3.566 -0.2913 -0.9224 -0.0856
  102MOL0     C13675   6.331   9.769   3.653  0.8228 -0.2911  0.0533
  102MOL0     C13676   6.465   9.693   3.663  0.7577  0.5023  0.2915
  102MOL0     C13677   6.556   9.754   3.765  0.0217 -0.4686  0.6531
  102MOL0     C13678   6.636   9.877   3.711 -0.6645  0.0290  0.0512
  102MOL0     C13679   6.594  10.014   3.765 -0.0062  0.3229  0.0017
  102MOL0    Cl13680   6.709  10.130   3.689  0.3915 -0.2856  0.4373
  102MOL0     C13681   5.695   9.827   3.684  0.4833 -0.7435  0.0610
  102MOL0     C13682   5.554   9.844   3.679  1.0139 -0.1287 -0.0849
  102MOL0     O13683   5.283   9.670   3.400  0.0968 -0.1585 -0.6601
  102MOL0     C13684   5.028   9.601   3.501 -0.2097 -0.4962  0.0403
  102MOL0     C13685   4.893   9.581   3.539  0.2570 -0.4354  0.2936
  102MOL0     N13686   4.197   9.427   3.772  0.3768  0.2723  0.3481
  102MOL0     N13687   4.213   9.297   3.761 -0.1364 -0.2906  0.4836
  102MOL0     C13688   5.197   8.513   3.878 -0.0050  0.3238 -0.4238
  102MOL0     C13689   5.305   8.485   3.965 -0.4284  0.4729 -0.5509
  102MOL0     C13690   5.657   8.624   4.246 -0.5685 -0.1427  0.1743
  102MOL0     C13691   5.799   8.613   4.233 -0.5016 -0.7377  0.0393
  102MOL0     C13692   5.873   8.627   4.345 -1.0033  0.7666 -0.0029
  102MOL0     C13693   5.815   8.650   4.476  0.6266  0.1149  0.2617
  102MOL0     O13694   5.891   8.663   4.592  0.0054 -0.5801  0.6679
  102MOL0     C13695   5.978   8.773   4.578  0.5108 -0.0305  0.5440
  102MOL0     C13696   6.090   8.748   4.674 -0.8608 -0.1411 -0.8957
  102MOL0     C13697   6.206   8.686   4.602  0.0265  0.1901  0.1109
  102MOL0     C13698   6.327   8.674   4.704  0.1562  0.6702 -0.8137
  102MOL0     C13699   6.306   8.565   4.799  0.2203  0.7879  0.0466
  102MOL0     C13700   6.284   8.481   4.894  1.0861  0.0521  0.1495
  102MOL0     C13701   5.674   8.648   4.488  0.7262  0.5492  0.4583
  102MOL0     C13702   5.596   8.642   4.370 -0.4975 -0.6910  0.5136
  102MOL0     H13703   5.326   8.767   4.145  0.8166  1.0734 -1.5892
  102MOL0     H13704   5.127   8.824   4.015  0.8379  0.1350  3.1452
  102MOL0     H13705   4.932   8.474   3.761 -2.6457 -0.8957  1.1101
  102MOL0     H13706   4.860   8.567   3.888 -1.5959 -0.3907 -1.2686
  102MOL0     H13707   4.867   8.652   3.584 -0.6226 -4.3221 -1.2395
  102MOL0     H13708   4.738   8.571   3.663  1.6009 -1.6268 -0.8937
  102MOL0     H13709   4.692   8.742   3.825 -0.6019 -2.9143 -1.4822
  102MOL0     H13710   4.830   8.842   3.771  3.1603 -3.1396 -0.1358
  102MOL0     H13711   4.719   8.816   3.532 -1.1011 -1.7399 -1.4225
  102MOL0     H13712   4.581   8.743   3.625  0.8855 -0.7379  0.3363
  102MOL0     H13713   4.683   9.026   3.654  0.2499 -0.1521 -1.0489
  102MOL0     H13714   4.547   8.967   3.560 -2.3506  2.9129  1.3237
  102MOL0     H13715   4.434   8.879   3.760  0.2547 -1.0428  3.9247
  102MOL0     H13716   4.557   8.947   3.858  0.9706 -1.1103 -1.3257
  102MOL0     H13717   4.373   9.095   3.866 -1.3467  0.4075 -0.7407
  102MOL0     H13718   4.518   9.177   3.807 -1.1756  0.4557 -1.4890
  102MOL0     H13719   4.310   9.071   3.623 -1.6780 -0.2367  2.1625
  102MOL0     H13720   4.461   9.162   3.584  0.1210  3.0883 -0.9904
  102MOL0     H13721   4.419   9.414   3.537  0.0685  0.5679  1.2625
  102MOL0     H13722   4.234   9.659   3.544 -0.7314 -1.2316  0.7403
  102MOL0     H13723   4.216   9.692   3.711 -1.7893  1.7100 -2.4128
  102MOL0     H13724   4.394   9.799   3.618 -3.7432 -1.3521 -0.9611
  102MOL0     H13725   4.474   9.667   3.552 -0.6364  0.9089  0.3568
  102MOL0     H13726   4.496   9.593   3.827 -0.9556 -0.0414 -0.7925
  102MOL0     H13727   4.444   9.760   3.836 -5.0611 -2.7449  0.4849
  102MOL0     H13728   4.693   9.718   3.857  2.3097  1.6282 -0.2528
  102MOL0     H13729   4.647   9.834   3.728 -0.6109 -0.3737 -1.2913
  102MOL0     H13730   4.885   9.827   3.781  1.9281 -0.8753  0.4491
  102MOL0     H13731   5.197   9.809   3.805 -1.0005  0.1980  1.3623
  102MOL0     H13732   5.191   9.939   3.682  0.4302 -0.1281  0.7693
  102MOL0     H13733   5.072   9.932   3.819 -1.4902 -3.1352  1.3992
  102MOL0     H13734   5.491   9.603   3.444 -1.2329  0.6039 -0.3786
  102MOL0     H13735   5.751   9.569   3.476  1.0928  1.2170  1.3429
  102MOL0     H13736   5.937   9.520   3.633 -1.5256  1.1117  2.5892
  102MOL0     H13737   5.990   9.610   3.489 -0.1001 -2.3085  0.2014
  102MOL0     H13738   6.130   9.662   3.758  2.3228  3.5067 -1.5128
  102MOL0     H13739   6.171   9.517   3.666  2.3983  0.1853  1.8884
  102MOL0     H13740   6.152   9.788   3.532 -2.5522 -1.8269  1.8706
  102MOL0     H13741   6.260   9.648   3.485  4.1748  0.2097  1.1142
  102MOL0     H13742   6.354   9.869   3.613 -0.2913 -0.3800 -0.8739
  102MOL0     H13743   6.281   9.789   3.748 -1.1127  0.8581 -1.1274
  102MOL0     H13744   6.523   9.683   3.572  1.1170  2.0545  0.3194
  102MOL0     H13745   6.437   9.591   3.694 -1.6822  0.8879 -0.3766
  102MOL0     H13746   6.486   9.790   3.842 -2.0362  1.0996 -1.7933
  102MOL0     H13747   6.624   9.680   3.808  1.6461 -0.3838 -1.6415
  102MOL0     H13748   6.631   9.881   3.602 -1.8585  1.3617  0.1235
  102MOL0     H13749   6.738   9.864   3.748 -0.5150 -1.5164 -0.8167
  102MOL0     H13750   6.606  10.023   3.873  0.9861  1.2119 -0.1612
  102MOL0     H13751   6.493  10.037   3.731 -0.2742  0.0575  0.6180
  102MOL0     H13752   5.741   9.877   3.768 -2.7238 -1.3467  2.3466
  102MOL0     H13753   5.496   9.907   3.746  1.5159  1.6647 -1.3042
  102MOL0     H13754   5.071   9.543   3.419 -1.1842 -0.4361 -0.5327
  102MOL0     H13755   4.810   9.531   3.491 -3.6211  2.7122  3.0628
  102MOL0     H13756   5.172   8.438   3.804 -0.6523 -0.1421  0.2606
  102MOL0     H13757   5.360   8.392   3.951  0.4721  1.2228 -2.2159
  102MOL0     H13758   5.846   8.600   4.136 -2.7838  1.3959 -1.4958
  102MOL0     H13759   5.981   8.619   4.334 -0.8475  0.4768  1.5249
  102MOL0     H13760   6.005   8.793   4.474  0.1557  1.3581  0.6984
  102MOL0     H13761   5.929   8.867   4.607 -1.3902 -0.7544 -0.1667
  102MOL0     H13762   6.056   8.678   4.751 -0.5589  0.7096  0.0269
  102MOL0     H13763   6.123   8.840   4.723  0.2886 -2.3132  2.7938
  102MOL0     H13764   6.247   8.745   4.520  1.8133  0.1518  0.9226
  102MOL0     H13765   6.184   8.587   4.562  0.2757 -1.0224  2.7421
  102MOL0     H13766   6.334   8.763   4.767 -1.1414  1.6481 -1.9702
  102MOL0     H13767   6.415   8.652   4.643  0.5183 -5.1093  1.1545
  102MOL0     H13768   6.260   8.403   4.963  0.3660  0.8644  0.8492
  102MOL0     H13769   5.628   8.649   4.586  0.6722 -3.2927  0.5927
  102MOL0     H13770   5.488   8.655   4.365 -0.1398  2.3391 -1.2421
  103MOL0     O13771  10.266   7.943   5.630 -0.7591  0.0703  0.5565
  103MOL0     C13772  10.249   7.822   5.599  0.4975 -0.2166 -0.2864
  103MOL0     O13773  10.133   7.765   5.583 -0.2549  0.1509  0.7548
  103MOL0     C13774  10.019   7.856   5.580  0.8337  0.2695  0.1931
  103MOL0     C13775   9.964   7.911   5.696  0.0522  0.1783 -0.5705
  103MOL0     C13776   9.841   7.973   5.698  0.7628  0.5931  0.8441
  103MOL0     C13777   9.768   7.979   5.577  0.4243 -0.3195 -0.2718
  103MOL0     O13778   9.642   8.033   5.585  0.3188 -0.3317  0.1711
  103MOL0     C13779   9.549   7.960   5.665  0.0455 -0.5676 -0.4507
  103MOL0     C13780   9.414   8.026   5.637  0.7778  0.0955  0.3679
  103MOL0     C13781   9.298   7.959   5.708  0.5330 -0.3754  0.4159
  103MOL0     C13782   9.175   8.027   5.649 -0.4603  0.8268  0.1633
  103MOL0     C13783   9.053   7.980   5.723 -0.4370 -0.2685  0.6031
  103MOL0     C13784   8.935   8.053   5.676  0.4698 -0.0179 -0.0511
  103MOL0     C13785   8.817   8.050   5.771  0.2762  0.5443  0.2168
  103MOL0     C13786   8.693   8.107   5.699 -0.0950 -0.8796  0.0340
  103MOL0     N13787   8.588   8.136   5.790  0.1033  1.0341  0.9422
  103MOL0     C13788   8.551   8.061   5.895  0.1586 -0.5869 -0.1647
  103MOL0     C13789   8.450   8.130   5.953  0.0189  0.4251  0.2836
  103MOL0     C13790   8.358   8.088   6.068 -0.1831  0.5775 -0.5163
  103MOL0     C13791   8.394   8.130   6.214  0.1789  0.0528  0.2911
  103MOL0     C13792   8.276   8.113   6.315 -0.9577  0.0956  0.3908
  103MOL0     C13793   8.195   7.986   6.315  0.3947  0.0477  0.4020
  103MOL0     O13794   8.133   7.979   6.443  0.6877  0.4921  0.0808
  103MOL0     C13795   8.020   8.062   6.470 -0.8764 -0.2407  0.7493
  103MOL0     C13796   7.993   8.077   6.601  0.3273 -0.0465  0.3184
  103MOL0     C13797   7.875   8.139   6.642  0.0331 -0.0681 -0.4458
  103MOL0     C13798   7.844   8.163   6.788  0.1993  0.3826  0.3875
  103MOL0     C13799   7.794   8.188   6.552 -0.2544 -0.4928  0.4211
  103MOL0     C13800   7.673   8.257   6.581 -0.8279  0.1223  0.3698
  103MOL0     O13801   7.675   8.392   6.563  0.0273  0.4165 -0.1757
  103MOL0     C13802   7.561   8.462   6.577 -0.6974  0.0612  0.3841
  103MOL0     C13803   7.532   8.555   6.478  0.2315  0.5869  0.4379
  103MOL0     C13804   7.439   8.660   6.509 -0.2167  0.3379  0.3343
  103MOL0     C13805   7.362   8.643   6.619 -0.3168  0.7277  0.5899
  103MOL0     O13806   7.266   8.734   6.656 -1.1156 -0.2887  0.2914
  103MOL0     C13807   7.326   8.859   6.692  0.5804 -0.3700  1.2886
  103MOL0     C13808   7.229   8.969   6.735 -0.2763  0.1866  0.5096
  103MOL0     C13809   7.138   8.931   6.850  1.1148  0.1459 -0.3127
  103MOL0     C13810   7.203   8.922   6.986 -0.5932 -0.4054  0.4761
  103MOL0     C13811   7.104   8.877   7.095 -0.3608 -0.2432 -0.2950
  103MOL0     C13812   7.178   8.911   7.227 -0.2412  0.3060  0.1573
  103MOL0     C13813   7.110   8.879   7.356  0.2637 -0.6849 -0.0538
  103MOL0     C13814   7.065   8.737   7.369  0.0782  0.0560  0.5847
  103MOL0    Cl13815   7.094   8.658   7.532 -0.0438  0.2958 -0.5200
  103MOL0     C13816   7.376   8.539   6.709 -0.1406 -0.2401  0.3695
  103MOL0     C13817   7.486   8.460   6.693  0.1788  0.4133  0.5411
  103MOL0     O13818   7.579   8.190   6.622 -0.5088  0.2999  0.1333
  103MOL0     C13819   7.819   8.182   6.416 -0.5863  0.7287  0.0275
  103MOL0     C13820   7.935   8.119   6.367 -0.7970 -0.2234 -0.8949
  103MOL0     N13821   8.437   8.247   5.885  0.2220 -0.0468 -0.1192
  103MOL0     N13822   8.530   8.256   5.791 -0.5485 -0.3250  0.6433
  103MOL0     C13823   9.819   7.927   5.460  0.0477 -1.0612  0.1213
  103MOL0     C13824   9.936   7.855   5.465 -0.8134  0.1122 -0.6304
  103MOL0     C13825  10.369   7.743   5.603  0.3306 -0.1103  0.3048
  103MOL0     C13826  10.366   7.614   5.541 -0.0854 -0.7015 -0.2080
  103MOL0     C13827  10.477   7.544   5.540 -0.6804  0.0382 -0.4969
  103MOL0     C13828  10.601   7.588   5.600 -0.0565  0.3210  0.3650
  103MOL0     O13829  10.724   7.523   5.594 -0.0564  0.1668 -0.5917
  103MOL0     C13830  10.729   7.379   5.580 -0.2790  0.6673 -0.1273
  103MOL0     C13831  10.867   7.316   5.609  1.0769 -0.4167 -0.1532
  103MOL0     C13832  10.992   7.386   5.536  0.7058  0.5688 -0.1833
  103MOL0     C13833  11.129   7.369   5.603  0.5238 -0.3967  0.4039
  103MOL0     C13834  11.166   7.231   5.633 -0.2200 -0.0423 -1.0748
  103MOL0     C13835  11.211   7.127   5.679  0.4499  0.4789 -0.4078
  103MOL0     C13836  10.600   7.706   5.674 -0.1515 -0.2258 -0.4062
  103MOL0     C13837  10.480   7.786   5.668 -0.5623 -0.7343 -0.0348
  103MOL0     H13838  10.015   7.901   5.791 -0.7016 -0.2079 -0.1936
  103MOL0     H13839   9.800   8.012   5.790 -0.3089  1.8299 -0.1266
  103MOL0     H13840   9.542   7.855   5.637 -1.7407 -0.5275 -0.2811
  103MOL0     H13841   9.574   7.973   5.771  2.4530  2.4534 -1.2448
  103MOL0     H13842   9.427   8.130   5.665  1.7616 -0.5991  2.7112
  103MOL0     H13843   9.401   8.016   5.529 -0.7800  0.2477  0.5278
  103MOL0     H13844   9.294   7.852   5.689 -1.1260  0.0425 -2.0662
  103MOL0     H13845   9.307   7.984   5.815  0.3382 -2.4311  0.9529
  103MOL0     H13846   9.192   8.135   5.661  3.0281  0.3898  0.3720
  103MOL0     H13847   9.167   8.000   5.544 -1.6673 -0.0053  0.4499
  103MOL0     H13848   9.044   7.871   5.713 -1.0244  0.0043 -3.1273
  103MOL0     H13849   9.067   8.005   5.829  0.4506 -0.2717  0.4899
  103MOL0     H13850   8.964   8.159   5.678  1.1313 -0.2032  0.7643
  103MOL0     H13851   8.900   8.016   5.579 -3.0464 -3.9440  2.3463
  103MOL0     H13852   8.800   7.946   5.799  2.1394  0.0407 -0.3774
  103MOL0     H13853   8.844   8.106   5.861 -1.1746  3.9253 -1.2663
  103MOL0     H13854   8.663   8.032   5.624 -0.2938 -2.4628  1.6392
  103MOL0     H13855   8.715   8.205   5.656 -0.5260 -1.1585 -0.8658
  103MOL0     H13856   8.597   7.967   5.924  1.5114  0.4481  1.2454
  103MOL0     H13857   8.261   8.136   6.049  0.1383  0.9140 -1.3773
  103MOL0     H13858   8.344   7.980   6.056  1.0785  0.3869 -0.3429
  103MOL0     H13859   8.424   8.235   6.214 -3.1007  1.0941 -0.7857
  103MOL0     H13860   8.474   8.070   6.259 -3.0257 -4.0744  1.0942
  103MOL0     H13861   8.205   8.191   6.286 -0.8991 -1.2697 -4.1904
  103MOL0     H13862   8.320   8.132   6.413 -2.1763 -1.3380  1.2353
  103MOL0     H13863   8.277   7.914   6.311 -0.1385 -0.9430  3.6512
  103MOL0     H13864   8.133   7.972   6.226  1.5666 -1.4602 -0.2213
  103MOL0     H13865   8.064   8.027   6.666  1.3412 -0.6365 -1.1754
  103MOL0     H13866   7.803   8.070   6.828  2.2757 -0.9353 -0.3829
  103MOL0     H13867   7.944   8.178   6.832  1.4913 -1.5929 -1.6655
  103MOL0     H13868   7.780   8.251   6.805 -0.7605  0.0193 -1.1555
  103MOL0     H13869   7.598   8.561   6.392 -0.4945 -2.2707 -0.4198
  103MOL0     H13870   7.441   8.737   6.433  1.6388  0.1509  0.1572
  103MOL0     H13871   7.402   8.859   6.771  2.2720  3.6808 -0.0888
  103MOL0     H13872   7.381   8.897   6.606 -0.8790 -1.1719 -0.0515
  103MOL0     H13873   7.287   9.060   6.752  1.9454 -1.1090  0.2896
  103MOL0     H13874   7.174   8.992   6.643 -0.2360 -3.1530 -0.4891
  103MOL0     H13875   7.089   8.836   6.826  0.4137 -0.9384  4.4260
  103MOL0     H13876   7.062   9.009   6.863  0.8712 -0.1547  0.1068
  103MOL0     H13877   7.292   8.858   6.985 -1.3098 -1.5638  3.0235
  103MOL0     H13878   7.240   9.023   7.007 -1.6147  0.1535 -0.3293
  103MOL0     H13879   7.081   8.770   7.098 -3.2715  0.2801 -0.8288
  103MOL0     H13880   7.017   8.942   7.089  0.1085  0.4675  0.3443
  103MOL0     H13881   7.279   8.870   7.237 -0.3062  0.1814  0.3079
  103MOL0     H13882   7.193   9.020   7.225 -0.9475  0.3946 -0.5964
  103MOL0     H13883   7.019   8.941   7.356 -0.2360 -1.4000 -0.8523
  103MOL0     H13884   7.170   8.905   7.443  1.2927  0.7912 -1.1640
  103MOL0     H13885   7.117   8.687   7.287 -0.2617 -0.5427  0.7252
  103MOL0     H13886   6.959   8.717   7.349 -0.4279  0.8289  2.2887
  103MOL0     H13887   7.313   8.519   6.795 -4.6150  1.4615 -2.2167
  103MOL0     H13888   7.516   8.395   6.774 -0.2841  1.9873  2.0406
  103MOL0     H13889   7.759   8.230   6.339 -0.7816 -1.3859 -1.2305
  103MOL0     H13890   7.960   8.114   6.262  2.6762 -2.3961 -0.1297
  103MOL0     H13891   9.760   7.931   5.368 -0.8476  0.7909  0.7198
  103MOL0     H13892   9.969   7.799   5.378  2.8034 -0.7190  1.1008
  103MOL0     H13893  10.277   7.577   5.490 -0.8940  1.8876 -0.8409
  103MOL0     H13894  10.491   7.469   5.463  2.1778  0.5209 -0.5631
  103MOL0     H13895  10.658   7.325   5.643  0.4577 -0.7356 -0.4484
  103MOL0     H13896  10.706   7.351   5.477 -0.8114  2.1595 -0.4357
  103MOL0     H13897  10.868   7.209   5.584  2.2046 -0.2132 -1.1122
  103MOL0     H13898  10.875   7.320   5.718  1.4008 -0.9039 -0.1532
  103MOL0     H13899  10.970   7.492   5.516  0.6502  0.8978  1.4731
  103MOL0     H13900  10.997   7.331   5.442 -1.6667 -2.5127  1.3498
  103MOL0     H13901  11.122   7.427   5.695 -0.8913  0.5037 -0.2456
  103MOL0     H13902  11.209   7.412   5.541  0.3996  0.7206  0.9785
  103MOL0     H13903  11.266   7.046   5.722 -0.5754  0.9922  2.0033
  103MOL0     H13904  10.692   7.738   5.721 -0.9507  0.0922  0.9892
  103MOL0     H13905  10.470   7.872   5.733  1.3423 -1.3263  1.1363
  104MOL0     O13906   5.241   2.898   9.945 -0.1289  0.7741 -0.5720
  104MOL0     C13907   5.232   2.814  10.045 -1.2324 -0.2626  0.3968
  104MOL0     O13908   5.116   2.747  10.082 -0.3413 -1.1007  0.1188
  104MOL0     C13909   5.005   2.747  10.009  0.2446  0.1442  0.7792
  104MOL0     C13910   4.999   2.757   9.865 -0.2228 -0.0536  0.1295
  104MOL0     C13911   4.875   2.767   9.798 -0.5073  0.9957  0.6242
  104MOL0     C13912   4.756   2.778   9.874 -1.0310 -1.2397 -0.1767
  104MOL0     O13913   4.636   2.806   9.819 -0.4099  0.1959 -0.1338
  104MOL0     C13914   4.622   2.775   9.677 -0.1165 -0.1874 -0.7672
  104MOL0     C13915   4.478   2.774   9.650  0.1721 -0.3464  0.1467
  104MOL0     C13916   4.455   2.762   9.501  0.3109 -0.1314 -0.7022
  104MOL0     C13917   4.305   2.744   9.467 -0.5969  0.1351 -0.1290
  104MOL0     C13918   4.282   2.594   9.498  0.1280  0.4858 -0.7298
  104MOL0     C13919   4.241   2.513   9.366 -0.4095  0.5371 -0.2819
  104MOL0     C13920   4.233   2.364   9.388  0.3825  0.2780  1.1058
  104MOL0     C13921   4.201   2.298   9.253 -0.2958  0.4199  0.7473
  104MOL0     N13922   4.063   2.320   9.208 -0.2828  0.7113  0.3048
  104MOL0     C13923   4.031   2.414   9.119  0.1403 -0.3380  0.4248
  104MOL0     C13924   3.904   2.403   9.084 -0.6390  0.0338  0.2563
  104MOL0     C13925   3.829   2.488   8.982  1.3035  0.1872 -0.0612
  104MOL0     C13926   3.700   2.550   9.033  0.0320  0.1979 -1.0314
  104MOL0     C13927   3.593   2.441   9.044 -0.4168  0.2102 -0.2800
  104MOL0     C13928   3.461   2.516   9.085 -0.4011  0.7055  0.0277
  104MOL0     O13929   3.351   2.440   9.035 -0.4366 -0.0004 -0.9512
  104MOL0     C13930   3.237   2.509   9.005  0.3805  0.2654  0.0576
  104MOL0     C13931   3.205   2.513   8.870  0.0473 -0.6170 -0.9297
  104MOL0     C13932   3.088   2.573   8.831 -0.6531 -0.6765  0.0259
  104MOL0     C13933   3.066   2.564   8.682  0.2999 -0.3037 -0.0494
  104MOL0     C13934   2.995   2.624   8.922 -0.0834  0.0012  0.2844
  104MOL0     C13935   2.872   2.692   8.891  0.5026 -0.4381  0.7441
  104MOL0     O13936   2.779   2.710   8.988 -0.0396 -0.9886  0.3346
  104MOL0     C13937   2.654   2.754   8.957 -0.6188  0.9317 -0.6393
  104MOL0     C13938   2.633   2.882   8.932 -0.0819  0.0905  0.1876
  104MOL0     C13939   2.497   2.927   8.919 -0.3410  0.9953 -0.1565
  104MOL0     C13940   2.390   2.848   8.957 -0.4142  0.2112 -0.3022
  104MOL0     O13941   2.261   2.897   8.969 -0.0539 -0.0573 -0.2357
  104MOL0     C13942   2.177   2.860   8.851  0.1963  0.2097 -0.0477
  104MOL0     C13943   2.221   2.949   8.734 -0.1741  0.5240 -0.4436
  104MOL0     C13944   2.169   3.087   8.730  0.1695 -0.4215 -0.3031
  104MOL0     C13945   2.268   3.190   8.804 -0.2719  0.4505  0.7495
  104MOL0     C13946   2.223   3.330   8.788  0.3421 -0.4539 -0.8196
  104MOL0     C13947   2.108   3.371   8.894 -0.1058  0.1336  0.4281
  104MOL0     C13948   2.164   3.415   9.027 -0.4718 -0.6322 -0.3629
  104MOL0     C13949   2.069   3.515   9.105 -0.4623 -0.8470  0.5118
  104MOL0    Cl13950   1.909   3.434   9.128  0.0913 -0.1045  0.5921
  104MOL0     C13951   2.419   2.713   8.980 -0.4256 -0.2089  0.6856
  104MOL0     C13952   2.554   2.664   8.974  1.0478  0.0426  0.3369
  104MOL0     O13953   2.850   2.726   8.772 -0.5203  0.4398 -0.1542
  104MOL0     C13954   3.031   2.614   9.056 -0.1886  0.2087  0.7991
  104MOL0     C13955   3.148   2.555   9.101 -0.6893  0.1400 -0.2340
  104MOL0     N13956   3.860   2.294   9.155  0.3272 -0.1230  0.1630
  104MOL0     N13957   3.957   2.238   9.216  0.0960  0.4666  0.2985
  104MOL0     C13958   4.758   2.767  10.014 -0.1198  0.7692 -0.6277
  104MOL0     C13959   4.884   2.752  10.078  0.7401  0.3510 -0.3945
  104MOL0     C13960   5.357   2.790  10.119 -0.6996 -0.3885  0.5553
  104MOL0     C13961   5.481   2.861  10.084  0.1794  0.0493 -0.0099
  104MOL0     C13962   5.584   2.846  10.177 -0.8114 -0.4687  0.5757
  104MOL0     C13963   5.580   2.787  10.302  0.4798  0.3482  0.3697
  104MOL0     O13964   5.672   2.795  10.400 -0.1367  0.1962 -0.6544
  104MOL0     C13965   5.708   2.926  10.444 -1.0730 -0.9884 -0.2809
  104MOL0     C13966   5.640   2.973  10.582 -1.1032  0.4518  1.5509
  104MOL0     C13967   5.490   2.989  10.585  0.2564 -0.0563  0.2634
  104MOL0     C13968   5.419   3.072  10.468 -0.0884  0.2324 -0.1922
  104MOL0     C13969   5.268   3.059  10.464 -0.0873 -0.2086 -0.8572
  104MOL0     C13970   5.154   3.040  10.435 -0.3282 -0.0445 -0.0284
  104MOL0     C13971   5.462   2.715  10.330  0.0729  0.5585  0.3698
  104MOL0     C13972   5.359   2.710  10.239  0.2700 -0.7571  1.1591
  104MOL0     H13973   5.092   2.757   9.809 -0.5865  0.0413 -0.4885
  104MOL0     H13974   4.873   2.789   9.692  1.2114 -0.4445  0.2516
  104MOL0     H13975   4.684   2.846   9.621  2.0705  2.0277  3.9090
  104MOL0     H13976   4.649   2.676   9.639 -1.7674 -0.8781 -0.2292
  104MOL0     H13977   4.426   2.692   9.701  2.1072 -1.6156  0.1764
  104MOL0     H13978   4.433   2.870   9.676 -2.2578 -0.6728 -2.3178
  104MOL0     H13979   4.499   2.851   9.454 -0.6100  0.5686 -0.2806
  104MOL0     H13980   4.517   2.679   9.467  0.4550  0.8550 -3.0748
  104MOL0     H13981   4.246   2.816   9.524 -2.9779 -1.8157  0.0238
  104MOL0     H13982   4.282   2.758   9.360 -0.8417 -1.3810 -0.2933
  104MOL0     H13983   4.363   2.543   9.551  0.1456 -0.5287 -1.7054
  104MOL0     H13984   4.195   2.578   9.563  0.0499 -3.6271 -1.5584
  104MOL0     H13985   4.143   2.547   9.331 -1.2598  0.4395  1.8058
  104MOL0     H13986   4.321   2.541   9.297 -1.6418  1.2288 -1.4729
  104MOL0     H13987   4.332   2.328   9.415 -0.2657 -2.7173 -0.1741
  104MOL0     H13988   4.165   2.341   9.471  1.8642  0.7999  2.5147
  104MOL0     H13989   4.214   2.190   9.262  3.6926  0.8910  2.9709
  104MOL0     H13990   4.270   2.335   9.177  0.1879 -0.1615  0.9008
  104MOL0     H13991   4.096   2.489   9.075  2.3044 -2.5550 -0.3637
  104MOL0     H13992   3.895   2.568   8.946  3.6628 -2.5870 -2.3163
  104MOL0     H13993   3.813   2.421   8.897  0.7311 -0.4780  0.5622
  104MOL0     H13994   3.674   2.620   8.953  0.5473 -2.3487 -3.5957
  104MOL0     H13995   3.723   2.598   9.129 -0.0247  0.1484 -0.9941
  104MOL0     H13996   3.619   2.357   9.109  1.0470  0.3111 -0.7051
  104MOL0     H13997   3.586   2.386   8.949 -0.3913 -3.0933  1.4580
  104MOL0     H13998   3.467   2.609   9.028  1.0962 -0.6460 -2.1991
  104MOL0     H13999   3.458   2.529   9.194 -2.6737  0.8082 -0.0026
  104MOL0     H14000   3.279   2.472   8.801 -1.2454 -0.3534 -2.5339
  104MOL0     H14001   3.071   2.666   8.642  0.7283  0.7077  2.4182
  104MOL0     H14002   3.138   2.499   8.634  0.6125  0.2041 -0.2747
  104MOL0     H14003   2.965   2.527   8.661  0.3400 -0.4431  0.0039
  104MOL0     H14004   2.709   2.957   8.915  1.1935 -1.2025 -0.0171
  104MOL0     H14005   2.487   3.027   8.878 -0.9882  0.6228 -0.9195
  104MOL0     H14006   2.195   2.754   8.834 -1.5692 -0.5375  2.2560
  104MOL0     H14007   2.069   2.870   8.865  0.5647  1.0339  2.7967
  104MOL0     H14008   2.329   2.934   8.725 -0.4778 -3.4097  0.7303
  104MOL0     H14009   2.179   2.904   8.644 -0.1364 -1.4876  0.4899
  104MOL0     H14010   2.066   3.087   8.766 -0.1107  1.8099 -0.9826
  104MOL0     H14011   2.179   3.110   8.623  2.3317  2.4443  0.3893
  104MOL0     H14012   2.275   3.162   8.910 -2.0684 -1.2917  0.4695
  104MOL0     H14013   2.363   3.171   8.754 -0.0086 -0.2043  1.4810
  104MOL0     H14014   2.182   3.345   8.688 -3.0339  0.7672  0.5702
  104MOL0     H14015   2.313   3.392   8.799  0.4510 -0.8148  0.5772
  104MOL0     H14016   2.058   3.459   8.853 -0.1268  0.0588  0.2900
  104MOL0     H14017   2.032   3.294   8.908 -1.6905  1.3294 -1.0869
  104MOL0     H14018   2.262   3.460   9.015 -0.0872 -1.2054  0.5136
  104MOL0     H14019   2.179   3.332   9.097 -1.7377 -0.0497  0.6543
  104MOL0     H14020   2.059   3.603   9.040 -1.3577 -0.6691  0.8719
  104MOL0     H14021   2.117   3.553   9.196  2.9478 -1.8964 -0.7252
  104MOL0     H14022   2.333   2.653   9.007  0.0688 -0.4466  1.7966
  104MOL0     H14023   2.586   2.566   9.010 -1.7515 -0.5437  1.5730
  104MOL0     H14024   2.964   2.643   9.138 -0.4516 -0.2740  0.7569
  104MOL0     H14025   3.166   2.537   9.207 -2.1521  0.5399  0.1059
  104MOL0     H14026   4.662   2.772  10.063 -0.5954 -2.7141 -1.0093
  104MOL0     H14027   4.884   2.747  10.186 -3.3553  1.9116 -0.1660
  104MOL0     H14028   5.487   2.909   9.987 -1.9825  0.6131  0.0731
  104MOL0     H14029   5.679   2.893  10.153 -0.7073 -0.4184  1.0596
  104MOL0     H14030   5.817   2.930  10.438 -0.9404  1.4459  2.1214
  104MOL0     H14031   5.688   3.010  10.376  0.8462  0.3153  0.6816
  104MOL0     H14032   5.686   3.071  10.600 -2.5523  1.4712  0.0316
  104MOL0     H14033   5.669   2.913  10.668  1.2788 -0.2691  0.3415
  104MOL0     H14034   5.456   3.024  10.683 -0.4559 -2.9202  1.1313
  104MOL0     H14035   5.445   2.890  10.591  0.9942 -0.3090  2.2191
  104MOL0     H14036   5.459   3.046  10.370  1.3476 -0.1915  0.4774
  104MOL0     H14037   5.455   3.175  10.471  1.0122 -0.0711 -1.8001
  104MOL0     H14038   5.049   3.026  10.416 -0.4276 -3.1911  2.1229
  104MOL0     H14039   5.456   2.666  10.427 -0.5183 -2.7455 -1.1967
  104MOL0     H14040   5.264   2.666  10.270  0.3059 -0.8259  1.1712
  105MOL0     O14041   8.554   0.747   9.368  0.0124 -0.3931  0.5092
  105MOL0     C14042   8.508   0.686   9.272  0.0357  0.2128  0.1809
  105MOL0     O14043   8.381   0.649   9.265 -0.3974  0.6235 -0.0689
  105MOL0     C14044   8.298   0.623   9.372  0.3215 -0.5079  1.7192
  105MOL0     C14045   8.336   0.613   9.504 -0.6827 -0.5669  0.6611
  105MOL0     C14046   8.241   0.602   9.601 -0.2252  1.0901 -0.2422
  105MOL0     C14047   8.097   0.605   9.575  0.5707 -1.2416 -0.6342
  105MOL0     O14048   8.012   0.579   9.677 -0.0330  0.4853  0.4381
  105MOL0     C14049   7.900   0.659   9.700 -0.0035  0.1843 -1.2673
  105MOL0     C14050   7.783   0.561   9.727 -0.4966 -0.2282 -0.4468
  105MOL0     C14051   7.642   0.621   9.723  0.4693 -0.6979  0.5123
  105MOL0     C14052   7.539   0.511   9.706 -0.4749  0.5972 -1.0145
  105MOL0     C14053   7.395   0.563   9.724 -0.6165 -0.4044  0.1614
  105MOL0     C14054   7.358   0.572   9.873  0.2377  0.2501  0.6647
  105MOL0     C14055   7.228   0.646   9.898  0.4445  0.3368 -0.3174
  105MOL0     C14056   7.243   0.793   9.876 -0.3797 -0.1343  0.2223
  105MOL0     N14057   7.119   0.858   9.835 -0.1272  0.2592 -0.6382
  105MOL0     C14058   7.033   0.814   9.742  0.6639  0.4886 -0.4562
  105MOL0     C14059   6.957   0.926   9.708 -0.1902  0.3462  0.4365
  105MOL0     C14060   6.850   0.924   9.597 -0.0377 -0.2412 -0.0115
  105MOL0     C14061   6.714   0.905   9.654 -0.3471  0.7725  0.0069
  105MOL0     C14062   6.596   0.870   9.565  0.1135 -0.3022  0.5132
  105MOL0     C14063   6.595   0.936   9.429  0.5302 -0.6906  0.6109
  105MOL0     O14064   6.500   0.881   9.334 -0.4023 -0.0302 -0.5468
  105MOL0     C14065   6.363   0.910   9.339 -0.3217  0.2228  0.4518
  105MOL0     C14066   6.282   0.815   9.280 -0.4256 -0.5645 -0.3085
  105MOL0     C14067   6.143   0.831   9.276  0.6917 -0.2028  0.1091
  105MOL0     C14068   6.051   0.726   9.212  1.0020  0.0310 -0.4732
  105MOL0     C14069   6.085   0.945   9.343  0.4477 -1.1147 -0.2380
  105MOL0     C14070   5.940   0.975   9.343 -0.3612 -0.4150 -0.6061
  105MOL0     O14071   5.878   0.934   9.450  0.4558 -0.8122 -1.0377
  105MOL0     C14072   5.738   0.939   9.460  0.2617 -0.6895  0.5348
  105MOL0     C14073   5.646   0.895   9.359  0.9306  0.1272 -0.2577
  105MOL0     C14074   5.512   0.901   9.390 -0.0187  0.3933 -0.2236
  105MOL0     C14075   5.465   0.948   9.513 -0.0818 -0.7834  0.0046
  105MOL0     O14076   5.331   0.965   9.546  0.0770  0.1745  0.0428
  105MOL0     C14077   5.232   0.943   9.444  0.1743  0.7050 -0.1190
  105MOL0     C14078   5.106   1.000   9.513  1.2286 -0.7440  0.2053
  105MOL0     C14079   4.985   0.983   9.425  0.6008  0.2389 -0.2378
  105MOL0     C14080   4.856   0.993   9.518 -0.0681  0.2736 -1.0435
  105MOL0     C14081   4.722   0.991   9.445 -0.0706 -0.0936  0.3823
  105MOL0     C14082   4.626   1.060   9.547  0.1783 -0.1053  0.2571
  105MOL0     C14083   4.482   1.051   9.501  0.3660  0.0192  0.2442
  105MOL0     C14084   4.391   1.074   9.617  0.4275  0.1494 -0.2357
  105MOL0    Cl14085   4.224   1.068   9.549 -0.0003 -0.1559 -0.4818
  105MOL0     C14086   5.555   0.991   9.610  0.3486 -0.1833  0.1594
  105MOL0     C14087   5.689   0.984   9.584 -0.7306  0.0520 -0.1559
  105MOL0     O14088   5.889   1.049   9.258 -0.4510  0.1789 -0.3293
  105MOL0     C14089   6.168   1.031   9.404 -0.0497  0.8609 -0.9504
  105MOL0     C14090   6.302   1.019   9.394 -0.0500  0.2556  0.3172
  105MOL0     N14091   7.004   1.035   9.786 -0.1947  1.1962  0.3669
  105MOL0     N14092   7.099   0.990   9.859  0.7698 -0.3694  0.3093
  105MOL0     C14093   8.052   0.611   9.439 -1.1471  0.4272 -0.2058
  105MOL0     C14094   8.157   0.611   9.343 -0.2511  0.0095  0.3127
  105MOL0     C14095   8.589   0.679   9.149 -0.2589  0.1166  0.6412
  105MOL0     C14096   8.528   0.626   9.026 -0.5026 -0.6293  0.5316
  105MOL0     C14097   8.603   0.606   8.907  0.4563  0.5597  0.3381
  105MOL0     C14098   8.729   0.654   8.904 -0.6227  0.2119 -0.1394
  105MOL0     O14099   8.794   0.618   8.787 -0.2322  0.4935 -1.3447
  105MOL0     C14100   8.940   0.586   8.782  0.4068  0.1324  0.2867
  105MOL0     C14101   8.996   0.674   8.674 -0.6095  0.4925 -0.0821
  105MOL0     C14102   9.129   0.623   8.620  0.1382 -0.5764  1.0190
  105MOL0     C14103   9.193   0.725   8.521 -0.2539 -0.3680  0.1016
  105MOL0     C14104   9.124   0.704   8.394  0.2008  0.1021 -0.2087
  105MOL0     C14105   9.058   0.688   8.293  0.1356 -0.6406 -0.1532
  105MOL0     C14106   8.796   0.710   9.009  0.0591 -0.8306 -0.2967
  105MOL0     C14107   8.722   0.723   9.133 -0.1308  0.1283 -0.4467
  105MOL0     H14108   8.441   0.599   9.530  0.2685 -1.0342 -2.8930
  105MOL0     H14109   8.278   0.571   9.698  0.7513 -1.1208 -1.2573
  105MOL0     H14110   7.917   0.733   9.779  4.4021  0.2759 -2.0589
  105MOL0     H14111   7.883   0.717   9.609  1.2247  2.3146 -0.2187
  105MOL0     H14112   7.792   0.471   9.666  4.5379 -1.4639  1.5592
  105MOL0     H14113   7.798   0.519   9.828  1.2412  1.9589  0.2952
  105MOL0     H14114   7.627   0.669   9.821  2.6343 -0.5008  0.7882
  105MOL0     H14115   7.624   0.688   9.638 -0.4802 -2.3621 -0.6476
  105MOL0     H14116   7.552   0.469   9.606 -1.4451 -2.4927  0.0513
  105MOL0     H14117   7.568   0.437   9.781  1.1691  1.7759 -0.4152
  105MOL0     H14118   7.381   0.652   9.661  0.2199 -0.8853 -0.7316
  105MOL0     H14119   7.330   0.485   9.684 -0.2025 -0.5520 -0.2379
  105MOL0     H14120   7.356   0.469   9.909 -0.9779  0.5363  1.4882
  105MOL0     H14121   7.434   0.631   9.927  0.4703 -1.6145  2.4906
  105MOL0     H14122   7.153   0.607   9.829  1.6334 -0.3645 -1.2555
  105MOL0     H14123   7.207   0.640  10.005  1.6597 -0.9717 -0.1123
  105MOL0     H14124   7.313   0.811   9.795 -3.5868  2.3678 -2.2627
  105MOL0     H14125   7.282   0.841   9.966  1.7577 -5.3885  2.5228
  105MOL0     H14126   7.034   0.720   9.688  0.3208  1.7075 -2.6633
  105MOL0     H14127   6.862   1.015   9.537 -0.7674 -0.3316 -0.2969
  105MOL0     H14128   6.868   0.846   9.523 -5.2102  0.6833 -2.7062
  105MOL0     H14129   6.677   0.992   9.708 -0.4475  0.4647  0.4475
  105MOL0     H14130   6.723   0.821   9.724  1.0150  0.2438 -0.7648
  105MOL0     H14131   6.500   0.887   9.615 -2.0996  1.0168 -3.6796
  105MOL0     H14132   6.605   0.762   9.556 -1.0313 -0.2799 -1.4137
  105MOL0     H14133   6.695   0.933   9.384  1.9997 -0.7481  3.6438
  105MOL0     H14134   6.576   1.043   9.441 -0.8381 -1.2266  4.4512
  105MOL0     H14135   6.322   0.723   9.240 -0.5547 -0.6292 -0.2883
  105MOL0     H14136   5.976   0.766   9.143 -0.3849 -0.6092  0.5984
  105MOL0     H14137   6.108   0.647   9.162 -1.1609 -2.2411  0.4488
  105MOL0     H14138   5.995   0.674   9.291  1.8473 -2.4297 -1.3744
  105MOL0     H14139   5.674   0.864   9.259  0.6463 -0.0086 -0.2988
  105MOL0     H14140   5.442   0.848   9.326  0.8631 -1.7467  0.4791
  105MOL0     H14141   5.262   0.993   9.352 -1.8164  4.6733  1.1206
  105MOL0     H14142   5.216   0.836   9.432  0.0532  0.5396  1.2827
  105MOL0     H14143   5.090   0.949   9.608 -1.0012 -0.8808 -0.1694
  105MOL0     H14144   5.126   1.107   9.519 -1.5371 -0.2144  1.7046
  105MOL0     H14145   4.989   0.882   9.381 -0.5132  1.5520 -3.7453
  105MOL0     H14146   4.986   1.055   9.342 -0.0543  1.4918  0.7999
  105MOL0     H14147   4.866   0.906   9.582  3.1830  1.2683  0.0200
  105MOL0     H14148   4.859   1.079   9.586 -4.1245  0.6482 -1.0782
  105MOL0     H14149   4.685   0.890   9.426 -0.4948  0.0422  0.4745
  105MOL0     H14150   4.721   1.037   9.345  2.6326 -2.6581 -0.9967
  105MOL0     H14151   4.640   1.017   9.646 -4.5068  1.2855  1.7527
  105MOL0     H14152   4.656   1.164   9.564  0.5935  0.4253 -3.0392
  105MOL0     H14153   4.456   0.955   9.456 -0.4615 -0.1978  1.1482
  105MOL0     H14154   4.465   1.136   9.433  2.2519 -1.6839 -2.5643
  105MOL0     H14155   4.412   1.175   9.654 -0.7160  0.3140  0.0123
  105MOL0     H14156   4.398   0.999   9.696  2.5418 -3.0008 -3.1509
  105MOL0     H14157   5.524   1.041   9.701  2.5300 -2.8726  2.5644
  105MOL0     H14158   5.764   1.018   9.654  0.5290 -0.9468 -0.9750
  105MOL0     H14159   6.120   1.111   9.460 -2.9060 -0.8097 -0.7961
  105MOL0     H14160   6.367   1.095   9.438 -1.0536  1.5556 -0.3662
  105MOL0     H14161   7.946   0.607   9.418 -1.2867 -1.0427  0.6316
  105MOL0     H14162   8.137   0.616   9.236 -0.2512  2.3825  0.3837
  105MOL0     H14163   8.425   0.594   9.033 -0.5323 -0.4469  0.9342
  105MOL0     H14164   8.565   0.555   8.819  2.1491 -0.6633  0.2568
  105MOL0     H14165   8.996   0.615   8.871 -1.3677  1.6219  0.9583
  105MOL0     H14166   8.947   0.477   8.769 -1.6957 -0.1634  1.1975
  105MOL0     H14167   9.009   0.779   8.700 -0.0479  0.7971 -1.5062
  105MOL0     H14168   8.925   0.676   8.591 -0.7204  1.1390  0.0281
  105MOL0     H14169   9.107   0.536   8.558  1.3083  0.0780 -0.4086
  105MOL0     H14170   9.205   0.604   8.697  1.2369 -1.1195 -0.1530
  105MOL0     H14171   9.297   0.698   8.501 -0.5003  0.8639 -3.6188
  105MOL0     H14172   9.181   0.824   8.567  0.5787 -0.6773  1.0209
  105MOL0     H14173   9.002   0.693   8.201  1.0877  1.3447 -0.6881
  105MOL0     H14174   8.901   0.735   8.998  0.0752 -1.0076 -0.5487
  105MOL0     H14175   8.772   0.768   9.218  0.0214  0.5171 -0.7395
  106MOL0     O14176   5.150   9.191   0.477  0.5975  0.0515 -0.1511
  106MOL0     C14177   5.200   9.100   0.414 -0.4644 -0.3835  0.5837
  106MOL0     O14178   5.137   8.983   0.375  0.3041 -0.6282  0.6547
  106MOL0     C14179   5.003   8.973   0.392 -0.1326  0.4167 -0.2418
  106MOL0     C14180   4.924   9.061   0.316  0.3850 -0.0812 -0.0058
  106MOL0     C14181   4.783   9.072   0.332  0.6864 -0.3504  0.4627
  106MOL0     C14182   4.720   8.985   0.426  0.3817 -0.2181 -0.1318
  106MOL0     O14183   4.586   8.998   0.438 -0.3564 -0.2418  0.6115
  106MOL0     C14184   4.500   8.906   0.370 -0.1138 -0.7876  0.3079
  106MOL0     C14185   4.361   8.959   0.376  0.3649  0.1472 -0.0041
  106MOL0     C14186   4.246   8.862   0.323 -0.0540 -0.5964  0.0597
  106MOL0     C14187   4.259   8.839   0.174  0.5316 -0.4436 -0.0722
  106MOL0     C14188   4.120   8.778   0.129 -0.1538  1.3925  0.8233
  106MOL0     C14189   4.113   8.761  -0.026 -0.3303  0.2483 -0.1602
  106MOL0     C14190   3.968   8.727  -0.055 -0.3306 -1.2747 -0.3237
  106MOL0     C14191   3.945   8.672  -0.190 -0.2635  0.0173 -0.6311
  106MOL0     N14192   3.814   8.703  -0.238 -1.2442  0.2584 -0.5103
  106MOL0     C14193   3.772   8.674  -0.367 -0.6960 -0.8497 -0.4165
  106MOL0     C14194   3.643   8.690  -0.366  0.0807  0.1439  0.0321
  106MOL0     C14195   3.547   8.667  -0.482 -0.0495  0.5518  0.2988
  106MOL0     C14196   3.398   8.619  -0.448 -0.1163  0.4106 -0.4663
  106MOL0     C14197   3.322   8.564  -0.579 -0.0521  0.1994 -0.4060
  106MOL0     C14198   3.186   8.507  -0.533  0.0935  0.0204  0.2388
  106MOL0     O14199   3.105   8.627  -0.519 -0.8355  0.5529 -0.7500
  106MOL0     C14200   2.973   8.611  -0.496 -0.0052  0.4721  0.1044
  106MOL0     C14201   2.908   8.489  -0.490 -0.1928 -0.3365  0.3007
  106MOL0     C14202   2.770   8.475  -0.476 -0.0291  0.3109  1.0146
  106MOL0     C14203   2.718   8.332  -0.475  0.2317 -0.1515  0.0491
  106MOL0     C14204   2.686   8.590  -0.442 -0.3016 -0.0982  0.5624
  106MOL0     C14205   2.541   8.596  -0.408 -0.1198  0.2040  0.1805
  106MOL0     O14206   2.472   8.711  -0.419  0.1210  0.3609 -0.1863
  106MOL0     C14207   2.341   8.721  -0.434  0.2349  0.3529 -0.3717
  106MOL0     C14208   2.256   8.628  -0.488  0.5547 -0.3288 -0.1600
  106MOL0     C14209   2.118   8.656  -0.509  0.4746  0.1664 -0.3602
  106MOL0     C14210   2.068   8.781  -0.470 -0.6121  0.1105 -0.1319
  106MOL0     O14211   1.931   8.799  -0.498  0.0968  0.2789 -0.5256
  106MOL0     C14212   1.871   8.928  -0.469  0.2211 -0.2330  0.5560
  106MOL0     C14213   1.721   8.940  -0.504 -0.5211 -0.6884  0.0226
  106MOL0     C14214   1.652   8.815  -0.471 -0.1418  0.5978 -0.2230
  106MOL0     C14215   1.504   8.834  -0.466  0.1149 -0.2949  0.4576
  106MOL0     C14216   1.425   8.712  -0.422 -0.9797  0.0881  0.0079
  106MOL0     C14217   1.292   8.697  -0.497 -0.4244  0.3847  0.2661
  106MOL0     C14218   1.210   8.572  -0.453  0.1373 -1.2541  0.1578
  106MOL0     C14219   1.086   8.548  -0.545 -0.5283  0.7182 -0.0964
  106MOL0    Cl14220   0.997   8.414  -0.477  0.0905  0.2965 -0.7080
  106MOL0     C14221   2.158   8.877  -0.422  0.4356 -0.0205  0.2954
  106MOL0     C14222   2.297   8.851  -0.412  0.4345 -1.0112  0.8552
  106MOL0     O14223   2.490   8.486  -0.366  0.2181 -0.1913 -0.1514
  106MOL0     C14224   2.757   8.717  -0.448  0.0721 -0.4493  1.0738
  106MOL0     C14225   2.896   8.721  -0.472  0.1101 -0.9048  0.5570
  106MOL0     N14226   3.603   8.717  -0.238 -0.0368  0.3399  0.7903
  106MOL0     N14227   3.707   8.748  -0.164 -0.6996  0.5542 -0.4056
  106MOL0     C14228   4.802   8.899   0.504 -0.0509 -0.2613  0.2717
  106MOL0     C14229   4.935   8.882   0.477  0.2580  0.0480  0.4629
  106MOL0     C14230   5.344   9.113   0.379  0.3244 -0.4179 -0.0936
  106MOL0     C14231   5.428   9.198   0.456  0.6276  0.0071  0.3682
  106MOL0     C14232   5.566   9.202   0.424 -0.6354 -0.3703  0.5015
  106MOL0     C14233   5.621   9.126   0.325 -1.2334  0.4428  0.1968
  106MOL0     O14234   5.761   9.122   0.298  0.4550 -0.1930  0.7529
  106MOL0     C14235   5.852   9.155   0.402  0.2619  0.0116  0.1470
  106MOL0     C14236   5.989   9.104   0.388 -0.3519  0.1396 -0.4008
  106MOL0     C14237   5.993   8.954   0.373  0.2001 -1.4473  0.5205
  106MOL0     C14238   6.130   8.886   0.370 -0.3861 -0.1646  0.3894
  106MOL0     C14239   6.206   8.929   0.483  0.2279 -0.4138 -0.3418
  106MOL0     C14240   6.272   8.965   0.577 -0.7980  0.7176 -0.0699
  106MOL0     C14241   5.534   9.048   0.245 -0.0540  0.5830 -0.5907
  106MOL0     C14242   5.397   9.036   0.279  0.2342 -0.6480 -0.6225
  106MOL0     H14243   4.975   9.128   0.248  2.8153 -1.2749  0.5304
  106MOL0     H14244   4.725   9.150   0.285 -2.3958 -1.5125  2.0804
  106MOL0     H14245   4.536   8.892   0.267 -1.6410 -0.9785 -0.2211
  106MOL0     H14246   4.493   8.812   0.426 -1.6534 -0.0530  1.4248
  106MOL0     H14247   4.331   8.989   0.477  0.2761 -0.8881  0.2887
  106MOL0     H14248   4.359   9.046   0.309 -1.2080 -1.3033 -1.9791
  106MOL0     H14249   4.237   8.767   0.377 -3.2927  0.0101  0.8052
  106MOL0     H14250   4.150   8.911   0.339  0.4486  0.9250 -1.3020
  106MOL0     H14251   4.274   8.933   0.119  0.7726 -1.8947 -2.6366
  106MOL0     H14252   4.341   8.771   0.149  3.1166  2.2438  0.5207
  106MOL0     H14253   4.104   8.677   0.167  2.3839  0.8189  0.5496
  106MOL0     H14254   4.044   8.846   0.169 -0.6519 -0.0222  2.3787
  106MOL0     H14255   4.152   8.844  -0.086 -1.4135  0.8830  0.0059
  106MOL0     H14256   4.168   8.670  -0.054 -2.1424 -0.4741 -1.5408
  106MOL0     H14257   3.923   8.657   0.016  0.3575  0.4092  1.9066
  106MOL0     H14258   3.916   8.822  -0.036 -1.9642 -2.2904  0.5447
  106MOL0     H14259   3.963   8.565  -0.176 -1.3892  0.2312  3.9310
  106MOL0     H14260   4.010   8.713  -0.268 -0.4130  1.0808 -0.2051
  106MOL0     H14261   3.832   8.632  -0.447 -0.2164  0.6766 -0.8769
  106MOL0     H14262   3.540   8.766  -0.529 -1.1484  1.0072  1.3943
  106MOL0     H14263   3.600   8.603  -0.554  0.8088  2.0868 -0.4918
  106MOL0     H14264   3.334   8.699  -0.409 -0.7251 -0.7702  1.0838
  106MOL0     H14265   3.398   8.538  -0.374  1.3736 -1.0217 -1.9511
  106MOL0     H14266   3.384   8.481  -0.615 -0.8932 -0.7944  0.3674
  106MOL0     H14267   3.326   8.643  -0.654 -0.0332  0.2782 -0.3227
  106MOL0     H14268   3.197   8.446  -0.443  1.6824 -0.0027  0.0673
  106MOL0     H14269   3.139   8.446  -0.611  0.9046 -1.6165  0.9628
  106MOL0     H14270   2.965   8.397  -0.491 -2.2966 -1.7172  1.2489
  106MOL0     H14271   2.631   8.311  -0.537 -0.6106 -2.0981  1.7808
  106MOL0     H14272   2.788   8.263  -0.524  1.5991  2.1312 -1.3945
  106MOL0     H14273   2.689   8.293  -0.377 -2.2027  0.0609 -0.5361
  106MOL0     H14274   2.294   8.537  -0.533 -0.9205 -0.6707 -0.7512
  106MOL0     H14275   2.063   8.584  -0.569 -0.7430  1.1553 -0.4625
  106MOL0     H14276   1.897   8.946  -0.365 -2.1522 -0.9113  1.3301
  106MOL0     H14277   1.915   9.003  -0.536 -2.0165 -0.3016 -1.1255
  106MOL0     H14278   1.676   9.024  -0.450 -1.7460 -0.4848 -1.2633
  106MOL0     H14279   1.703   8.953  -0.611 -1.5877  0.2720  0.2920
  106MOL0     H14280   1.690   8.783  -0.374 -1.9253 -1.3588 -0.1103
  106MOL0     H14281   1.675   8.735  -0.542 -4.2498 -0.0286 -1.1242
  106MOL0     H14282   1.483   8.916  -0.397 -0.1700 -1.2609  1.5443
  106MOL0     H14283   1.473   8.877  -0.562  3.7508 -1.6547 -1.5157
  106MOL0     H14284   1.401   8.714  -0.315 -0.0537 -0.7268  0.2520
  106MOL0     H14285   1.478   8.621  -0.450 -2.7377 -0.1662 -2.8402
  106MOL0     H14286   1.225   8.784  -0.494 -0.1365  0.6502 -0.6221
  106MOL0     H14287   1.304   8.688  -0.606  0.5060 -2.9214  0.5315
  106MOL0     H14288   1.177   8.590  -0.351 -1.0924 -2.1733 -0.0562
  106MOL0     H14289   1.257   8.474  -0.437 -0.0918 -1.4143 -0.1344
  106MOL0     H14290   1.131   8.512  -0.638 -0.4287 -0.3241  0.3373
  106MOL0     H14291   1.018   8.632  -0.562 -1.0070  0.2684 -0.4343
  106MOL0     H14292   2.123   8.974  -0.386  2.4128  0.0775  2.0999
  106MOL0     H14293   2.367   8.928  -0.381 -0.7776 -0.5903  2.6784
  106MOL0     H14294   2.711   8.804  -0.402  1.1982  0.0527  1.2736
  106MOL0     H14295   2.939   8.820  -0.464 -1.7823 -0.0068  0.1781
  106MOL0     H14296   4.756   8.820   0.563  1.9986 -3.4832 -2.1442
  106MOL0     H14297   4.988   8.797   0.519 -1.7150 -1.8103 -0.5462
  106MOL0     H14298   5.389   9.262   0.535  0.7363  1.1697 -0.4860
  106MOL0     H14299   5.630   9.270   0.479 -0.2235  0.9314 -1.4792
  106MOL0     H14300   5.857   9.259   0.434  3.4080 -0.5076  1.7607
  106MOL0     H14301   5.813   9.113   0.495  0.9119  0.5311  0.6620
  106MOL0     H14302   6.041   9.139   0.478 -0.5266  2.2890 -1.0676
  106MOL0     H14303   6.034   9.149   0.299 -1.1066 -1.5216 -1.6734
  106MOL0     H14304   5.934   8.911   0.291  0.5594 -2.5781  0.8302
  106MOL0     H14305   5.935   8.919   0.459  0.2127  1.2689  1.7254
  106MOL0     H14306   6.169   8.917   0.273 -0.3401  0.3696  0.5758
  106MOL0     H14307   6.120   8.777   0.368  3.0444 -0.6504 -3.9614
  106MOL0     H14308   6.324   8.992   0.667 -0.9196 -2.3062  1.0044
  106MOL0     H14309   5.574   8.984   0.167  0.8395  0.4531 -0.0345
  106MOL0     H14310   5.332   8.975   0.218  0.6599 -2.6265  0.7842
  107MOL0     O14311   0.478   8.293   6.636 -0.3744  0.8679 -0.0075
  107MOL0     C14312   0.555   8.379   6.679  0.6468  0.4263 -0.2743
  107MOL0     O14313   0.666   8.347   6.751 -0.1848 -1.1174 -0.6965
  107MOL0     C14314   0.695   8.211   6.745 -0.2014 -0.1110 -0.1149
  107MOL0     C14315   0.776   8.156   6.641 -0.0854  0.0123  0.0709
  107MOL0     C14316   0.831   8.026   6.646  0.8689 -0.6993 -0.1623
  107MOL0     C14317   0.808   7.949   6.758 -0.0784 -0.1454 -0.6276
  107MOL0     O14318   0.863   7.821   6.775  0.8501  0.4260 -0.2781
  107MOL0     C14319   0.966   7.764   6.687 -0.5957  0.1523  0.7703
  107MOL0     C14320   0.897   7.678   6.584  0.1785  0.9486 -0.7238
  107MOL0     C14321   0.862   7.541   6.653  0.2894  0.7055  1.1022
  107MOL0     C14322   0.776   7.451   6.558  0.5415  0.1091 -0.5966
  107MOL0     C14323   0.781   7.306   6.598  0.0020  0.5852  0.6320
  107MOL0     C14324   0.694   7.217   6.502  0.0894 -0.2201 -0.3592
  107MOL0     C14325   0.691   7.079   6.555  0.4130  0.4416  0.4684
  107MOL0     C14326   0.649   6.973   6.455  1.0104  0.0281  0.3523
  107MOL0     N14327   0.751   6.957   6.347 -0.1038 -0.3105  0.0558
  107MOL0     C14328   0.856   6.871   6.339  0.3891  1.0709 -0.0266
  107MOL0     C14329   0.909   6.897   6.215  0.2725 -1.1658 -0.9841
  107MOL0     C14330   1.033   6.842   6.144 -0.1829  0.2399  0.2616
  107MOL0     C14331   1.151   6.935   6.169 -1.1779  0.4114 -0.7315
  107MOL0     C14332   1.283   6.881   6.107  0.2434  0.7698 -0.2623
  107MOL0     C14333   1.421   6.940   6.147  0.1823  0.1829 -0.3537
  107MOL0     O14334   1.467   6.879   6.272  0.1041 -0.6620  0.3695
  107MOL0     C14335   1.598   6.901   6.317 -0.2466  0.6992 -0.1900
  107MOL0     C14336   1.684   7.010   6.287  0.5631  0.3186  0.1526
  107MOL0     C14337   1.815   7.003   6.340  0.8765  0.0344  0.4063
  107MOL0     C14338   1.907   7.119   6.308 -0.5356  0.5374 -0.3678
  107MOL0     C14339   1.856   6.892   6.428  0.1982 -1.2417  0.0494
  107MOL0     C14340   1.991   6.886   6.490 -0.2715  1.0636  0.8194
  107MOL0     O14341   2.003   6.854   6.619  0.0505 -0.1279 -0.9301
  107MOL0     C14342   2.131   6.869   6.673 -0.1311 -1.1847  1.0807
  107MOL0     C14343   2.211   6.750   6.699  1.0907 -1.1664  0.0747
  107MOL0     C14344   2.336   6.772   6.749  0.2160 -0.1922 -0.8545
  107MOL0     C14345   2.383   6.903   6.781  0.6532  0.3714  0.5391
  107MOL0     O14346   2.509   6.939   6.833  0.7171 -0.2338  0.2834
  107MOL0     C14347   2.579   6.843   6.912  1.5477 -0.1341  0.1120
  107MOL0     C14348   2.722   6.898   6.909  0.2952  0.5723  0.5059
  107MOL0     C14349   2.815   6.812   6.992 -0.1495 -0.5141 -0.2711
  107MOL0     C14350   2.962   6.855   6.955 -0.6039  0.0352 -0.1754
  107MOL0     C14351   3.080   6.772   7.002  0.1031  0.5207  0.2179
  107MOL0     C14352   3.077   6.618   6.988 -0.4828 -0.6056 -0.4264
  107MOL0     C14353   3.200   6.555   7.055  0.2486  1.1043  0.2107
  107MOL0     C14354   3.182   6.404   7.076 -0.2831 -0.8568 -0.3273
  107MOL0    Cl14355   3.193   6.325   6.914 -0.1599 -0.1546 -0.0256
  107MOL0     C14356   2.311   7.020   6.767 -0.2741 -0.1142 -0.2183
  107MOL0     C14357   2.184   6.999   6.705 -0.7705  0.7937  0.9817
  107MOL0     O14358   2.087   6.898   6.408  0.2815 -0.7874  0.0185
  107MOL0     C14359   1.771   6.796   6.458  0.1602  0.2999  0.3535
  107MOL0     C14360   1.634   6.798   6.402 -0.4422  0.3400 -0.8866
  107MOL0     N14361   0.825   6.986   6.158  0.0808  0.8863  1.2508
  107MOL0     N14362   0.739   7.025   6.236  0.1144 -0.4049 -0.0454
  107MOL0     C14363   0.711   7.995   6.847  0.6689 -0.6039 -0.0915
  107MOL0     C14364   0.670   8.127   6.851 -0.3017 -1.2707 -1.0676
  107MOL0     C14365   0.524   8.512   6.646 -0.4676  0.4285 -0.4615
  107MOL0     C14366   0.456   8.547   6.526 -0.2279  0.2598  0.2397
  107MOL0     C14367   0.422   8.683   6.490  0.1806  0.3177  0.6448
  107MOL0     C14368   0.458   8.778   6.581  0.1985 -0.4172  0.6424
  107MOL0     O14369   0.439   8.911   6.564 -0.7048  0.1844 -0.4087
  107MOL0     C14370   0.363   8.957   6.451  0.3565 -0.2232  0.0942
  107MOL0     C14371   0.340   9.109   6.456  0.0186 -0.0287  0.1009
  107MOL0     C14372   0.234   9.146   6.344  0.3069  0.2203  0.0503
  107MOL0     C14373   0.220   9.292   6.345  0.5221 -1.3920 -0.5391
  107MOL0     C14374   0.168   9.347   6.227  1.1837  0.1152  0.6310
  107MOL0     C14375   0.123   9.376   6.117  0.9142 -0.4521 -0.1545
  107MOL0     C14376   0.516   8.748   6.697  0.3883  0.5575  0.3235
  107MOL0     C14377   0.555   8.615   6.733  1.0312 -0.4710 -0.2273
  107MOL0     H14378   0.795   8.204   6.546  0.7150 -1.5761 -0.6058
  107MOL0     H14379   0.884   7.982   6.562 -1.5660 -2.6857 -0.7719
  107MOL0     H14380   1.027   7.843   6.644 -0.3428 -0.5856 -0.2548
  107MOL0     H14381   1.038   7.711   6.749  1.9810  2.6227  0.0789
  107MOL0     H14382   0.804   7.725   6.551  1.3554  1.4673 -3.5562
  107MOL0     H14383   0.952   7.655   6.493  0.2617  0.1402 -0.4771
  107MOL0     H14384   0.958   7.491   6.665  1.7450  0.8302 -5.8337
  107MOL0     H14385   0.800   7.547   6.743  0.7450  0.6334  1.4187
  107MOL0     H14386   0.671   7.481   6.553  0.4638 -0.3551 -2.4857
  107MOL0     H14387   0.812   7.449   6.454  2.8065 -0.7014  0.1399
  107MOL0     H14388   0.889   7.288   6.589 -0.2868 -0.3640 -1.5143
  107MOL0     H14389   0.742   7.285   6.698 -1.6000  1.1906  0.1628
  107MOL0     H14390   0.594   7.256   6.479 -0.3940 -1.8740 -1.2070
  107MOL0     H14391   0.742   7.207   6.405 -0.1071  1.8911 -0.7328
  107MOL0     H14392   0.783   7.039   6.598 -1.0285 -1.0487  2.3697
  107MOL0     H14393   0.618   7.086   6.636 -0.3466 -1.5857  0.0164
  107MOL0     H14394   0.556   6.991   6.400  0.8324 -0.2371  0.5619
  107MOL0     H14395   0.642   6.880   6.512  0.3720  0.8714  1.6915
  107MOL0     H14396   0.892   6.804   6.417 -2.6710  0.1902  0.7813
  107MOL0     H14397   1.047   6.741   6.185 -0.4471  0.3930  0.7383
  107MOL0     H14398   1.014   6.840   6.037 -0.3871  3.1180  0.1871
  107MOL0     H14399   1.162   6.948   6.277 -1.5811 -4.9176  0.1955
  107MOL0     H14400   1.139   7.038   6.133  0.6168  1.4030  1.2965
  107MOL0     H14401   1.272   6.892   5.999  0.7803  0.3263 -0.3664
  107MOL0     H14402   1.293   6.774   6.125  0.9911  1.2532  2.8581
  107MOL0     H14403   1.405   7.044   6.176  2.8930  0.7613 -0.6737
  107MOL0     H14404   1.495   6.951   6.067 -1.1353  4.3175 -1.2318
  107MOL0     H14405   1.665   7.087   6.213  1.7905 -1.6371 -2.3863
  107MOL0     H14406   2.006   7.092   6.270  0.8239 -0.6967  3.5289
  107MOL0     H14407   1.853   7.186   6.239 -1.5904  0.0478 -0.0438
  107MOL0     H14408   1.932   7.167   6.402 -1.8614 -0.6811  0.6613
  107MOL0     H14409   2.187   6.646   6.676  0.2296 -1.5352  2.3388
  107MOL0     H14410   2.390   6.678   6.753  0.3607 -0.0696  0.3599
  107MOL0     H14411   2.539   6.834   7.013  0.5364  0.8451 -0.1796
  107MOL0     H14412   2.577   6.744   6.867  5.3707 -1.2523  1.9613
  107MOL0     H14413   2.764   6.898   6.808  1.0371  0.3872  0.8094
  107MOL0     H14414   2.711   7.003   6.939 -2.5762  0.8728 -1.2131
  107MOL0     H14415   2.811   6.706   6.968  0.0810 -0.1242 -2.2598
  107MOL0     H14416   2.802   6.815   7.100  1.5261 -2.2200  0.0123
  107MOL0     H14417   2.964   6.864   6.846  0.8240  0.2327 -0.1545
  107MOL0     H14418   2.987   6.957   6.988  1.0892 -0.1165 -0.8912
  107MOL0     H14419   3.093   6.799   7.107 -0.2907  0.7862  0.2018
  107MOL0     H14420   3.153   6.808   6.928 -2.0213  1.1042 -1.7270
  107MOL0     H14421   2.984   6.580   7.030 -1.9675  1.7034 -1.4180
  107MOL0     H14422   3.085   6.596   6.881 -1.1590 -1.7115 -0.2582
  107MOL0     H14423   3.227   6.594   7.154  2.6549 -1.4331  0.6945
  107MOL0     H14424   3.283   6.575   6.986  0.7149 -1.1557  0.0452
  107MOL0     H14425   3.080   6.391   7.115 -1.7989  1.4819 -3.0720
  107MOL0     H14426   3.270   6.367   7.129  0.9956  0.3129 -1.5635
  107MOL0     H14427   2.349   7.118   6.792 -1.5034  1.3035 -3.3544
  107MOL0     H14428   2.127   7.089   6.682 -0.0582  0.7220 -1.2387
  107MOL0     H14429   1.801   6.712   6.520  1.1613 -1.1881 -1.9934
  107MOL0     H14430   1.564   6.724   6.439 -1.2370  1.8111  0.6920
  107MOL0     H14431   0.677   7.928   6.926  1.3996  0.2428  0.9644
  107MOL0     H14432   0.609   8.171   6.929 -0.6853  0.2431 -2.1687
  107MOL0     H14433   0.411   8.478   6.457  2.2035  1.9826 -3.3565
  107MOL0     H14434   0.362   8.689   6.400  2.5201 -3.9183 -1.5750
  107MOL0     H14435   0.413   8.924   6.359 -3.7544  0.4316 -2.6200
  107MOL0     H14436   0.271   8.898   6.459 -0.5382  0.8806 -1.5377
  107MOL0     H14437   0.430   9.170   6.443  0.5431 -0.9138 -0.5617
  107MOL0     H14438   0.289   9.132   6.550 -2.0774 -0.7851 -0.8020
  107MOL0     H14439   0.138   9.096   6.356 -0.7678  2.1171 -0.3019
  107MOL0     H14440   0.268   9.121   6.243  0.6440 -2.4715  0.7566
  107MOL0     H14441   0.314   9.345   6.362 -0.3550  0.0128  0.1574
  107MOL0     H14442   0.159   9.337   6.425 -0.4102 -0.1409 -1.8875
  107MOL0     H14443   0.083   9.373   6.017  0.8824  1.1416 -0.2271
  107MOL0     H14444   0.542   8.835   6.757  0.4338  1.0639 -0.4165
  107MOL0     H14445   0.614   8.595   6.823 -2.0558  0.7015  2.2437
  108MOL0     O14446   6.362   7.221   7.302  0.3904  0.1908 -0.1430
  108MOL0     C14447   6.482   7.214   7.343  0.7999  0.4356  0.2233
  108MOL0     O14448   6.530   7.282   7.450  0.4332 -0.1338  0.1956
  108MOL0     C14449   6.445   7.359   7.526  0.2750 -0.0247  0.9248
  108MOL0     C14450   6.318   7.321   7.569  0.1121 -0.5684  1.1876
  108MOL0     C14451   6.239   7.405   7.644  0.1851 -0.8746  0.6700
  108MOL0     C14452   6.283   7.528   7.697  1.1761  0.4852 -0.0164
  108MOL0     O14453   6.198   7.624   7.748 -0.3675  0.6464  1.2341
  108MOL0     C14454   6.060   7.601   7.758  0.6264  0.5845 -0.5751
  108MOL0     C14455   6.000   7.738   7.809 -1.4487  0.1369 -0.3696
  108MOL0     C14456   5.848   7.734   7.789 -0.0383 -0.3908 -0.2731
  108MOL0     C14457   5.767   7.850   7.840 -0.1968  0.4069 -0.0621
  108MOL0     C14458   5.616   7.818   7.822  0.4062  0.4217 -0.7593
  108MOL0     C14459   5.528   7.919   7.909  0.4100 -0.0132  0.2381
  108MOL0     C14460   5.381   7.887   7.907  0.5902 -0.8228  0.0198
  108MOL0     C14461   5.365   7.760   7.989  0.2669  0.1653 -0.1018
  108MOL0     N14462   5.226   7.728   8.027  0.9441 -0.4431 -0.1939
  108MOL0     C14463   5.138   7.635   7.969 -0.0546 -0.3464  0.2340
  108MOL0     C14464   5.030   7.639   8.039 -0.2012 -0.7742 -0.4699
  108MOL0     C14465   4.913   7.545   8.025 -0.1198 -0.9772 -0.1052
  108MOL0     C14466   4.902   7.434   8.140  0.2416 -0.5102  0.2734
  108MOL0     C14467   4.834   7.472   8.269  1.0981 -1.0447 -0.9970
  108MOL0     C14468   4.835   7.347   8.365  0.5725 -0.5157 -1.2686
  108MOL0     O14469   4.728   7.350   8.464  0.6206 -0.5945 -0.8754
  108MOL0     C14470   4.608   7.321   8.402  0.3511  0.5802 -0.5424
  108MOL0     C14471   4.585   7.200   8.338  0.6094  0.5088 -0.2002
  108MOL0     C14472   4.464   7.169   8.281 -0.5538 -1.0232 -0.4144
  108MOL0     C14473   4.464   7.037   8.200  0.0928 -0.2637 -0.9947
  108MOL0     C14474   4.352   7.254   8.301 -0.2386 -0.1082 -0.4724
  108MOL0     C14475   4.218   7.233   8.243 -0.2173 -0.4362 -0.1862
  108MOL0     O14476   4.110   7.301   8.301  0.6621 -0.4668  0.3237
  108MOL0     C14477   3.989   7.283   8.241 -0.1569 -0.6169  0.3158
  108MOL0     C14478   3.893   7.189   8.283 -0.2064  0.6098 -1.0175
  108MOL0     C14479   3.763   7.190   8.230 -0.7046  0.1607 -0.2354
  108MOL0     C14480   3.733   7.270   8.124  0.4056 -0.0258  0.4872
  108MOL0     O14481   3.593   7.278   8.095 -0.9025  0.1996 -0.0877
  108MOL0     C14482   3.548   7.386   8.024  0.5934 -0.2348 -0.0776
  108MOL0     C14483   3.393   7.388   8.015  0.2010  0.9133 -0.0575
  108MOL0     C14484   3.328   7.306   7.907  0.4498  0.3517  0.1833
  108MOL0     C14485   3.176   7.315   7.914 -0.7776  0.3036 -0.0719
  108MOL0     C14486   3.107   7.229   7.804  0.1608  0.6936 -0.9986
  108MOL0     C14487   3.131   7.262   7.653 -0.6067 -0.8244 -0.5800
  108MOL0     C14488   3.154   7.413   7.617  0.6988 -0.4298  0.1186
  108MOL0     C14489   3.218   7.421   7.486  1.1143 -0.9353 -0.0847
  108MOL0    Cl14490   3.132   7.330   7.352 -0.2809 -0.3143  0.1949
  108MOL0     C14491   3.825   7.363   8.075  0.0386 -0.2798  0.3933
  108MOL0     C14492   3.953   7.367   8.132  0.7720 -0.9950 -0.7507
  108MOL0     O14493   4.205   7.162   8.144 -1.2884 -0.0327  0.6688
  108MOL0     C14494   4.375   7.375   8.369 -0.5884  0.3334  1.0798
  108MOL0     C14495   4.500   7.411   8.418 -0.0859  0.2139  0.6140
  108MOL0     N14496   5.043   7.722   8.142  0.0084 -0.3520  0.4341
  108MOL0     N14497   5.159   7.779   8.131  0.2869 -0.1318  0.4977
  108MOL0     C14498   6.415   7.559   7.661 -0.2503  0.2875 -0.6116
  108MOL0     C14499   6.497   7.472   7.589 -0.7906 -0.5783  0.1685
  108MOL0     C14500   6.576   7.132   7.266 -1.0687 -0.1329 -0.1739
  108MOL0     C14501   6.712   7.129   7.304 -0.0678  0.1972 -0.2859
  108MOL0     C14502   6.796   7.046   7.238  0.2485  0.0096 -0.3895
  108MOL0     C14503   6.756   6.971   7.126  0.3733 -0.5956  0.2944
  108MOL0     O14504   6.843   6.878   7.071 -0.1473  0.3752  0.0263
  108MOL0     C14505   6.815   6.824   6.941  0.1825 -0.2082  0.2237
  108MOL0     C14506   6.939   6.749   6.881  0.2452  0.3939  0.2008
  108MOL0     C14507   6.920   6.731   6.728 -0.5836 -0.2276 -0.9039
  108MOL0     C14508   7.056   6.686   6.668 -0.3569 -0.4624  0.6967
  108MOL0     C14509   7.081   6.544   6.696  0.5185  0.5347  0.2426
  108MOL0     C14510   7.084   6.422   6.701  0.8611 -1.0101 -0.2419
  108MOL0     C14511   6.630   6.997   7.065  0.3191 -0.0606 -0.0597
  108MOL0     C14512   6.533   7.074   7.144 -0.9111  0.2949  0.2057
  108MOL0     H14513   6.277   7.225   7.538  2.1931 -0.6625 -1.6726
  108MOL0     H14514   6.136   7.375   7.660 -0.7072  1.9735  0.9243
  108MOL0     H14515   6.012   7.574   7.664 -0.3687 -0.4283  0.1871
  108MOL0     H14516   6.057   7.529   7.841 -0.8010  2.8373  1.4718
  108MOL0     H14517   6.035   7.747   7.912 -0.4922 -0.6138 -0.6133
  108MOL0     H14518   6.046   7.824   7.758  0.3643 -0.2235  0.5762
  108MOL0     H14519   5.827   7.722   7.682 -3.1117 -2.9410  0.4707
  108MOL0     H14520   5.798   7.644   7.824 -1.1174  0.4397  0.3690
  108MOL0     H14521   5.798   7.850   7.945 -2.6071 -2.9591  0.8247
  108MOL0     H14522   5.801   7.941   7.790  1.4795  0.9392  1.9216
  108MOL0     H14523   5.594   7.815   7.715 -0.0777 -6.9511 -0.9438
  108MOL0     H14524   5.608   7.716   7.862 -1.7111  1.0610  0.6219
  108MOL0     H14525   5.571   7.923   8.009 -1.3767 -0.4201  1.0683
  108MOL0     H14526   5.540   8.016   7.860 -0.0717 -0.6998 -1.3151
  108MOL0     H14527   5.322   7.961   7.960 -1.8550 -0.1639 -3.2679
  108MOL0     H14528   5.356   7.870   7.801  3.9894  0.9291 -1.2171
  108MOL0     H14529   5.429   7.768   8.078 -0.9909  3.5980  0.6641
  108MOL0     H14530   5.397   7.668   7.939 -0.2472 -0.9994  1.5996
  108MOL0     H14531   5.175   7.572   7.889  3.2577  0.2692  1.0973
  108MOL0     H14532   4.818   7.599   8.025 -0.7696 -1.9622  2.4761
  108MOL0     H14533   4.933   7.488   7.934  0.6220 -0.6199 -0.1701
  108MOL0     H14534   5.003   7.415   8.177  1.6747  3.5633 -1.0347
  108MOL0     H14535   4.852   7.341   8.110 -2.5734  0.7114  0.8800
  108MOL0     H14536   4.727   7.493   8.257  1.0483 -1.4715 -1.3045
  108MOL0     H14537   4.887   7.555   8.318 -1.0310 -0.5733  0.6647
  108MOL0     H14538   4.930   7.349   8.419  0.5432 -1.9304 -1.1262
  108MOL0     H14539   4.836   7.251   8.313 -2.4463 -1.7080  0.6279
  108MOL0     H14540   4.663   7.125   8.350 -0.8595 -1.4934 -2.3650
  108MOL0     H14541   4.410   6.971   8.268 -0.8133  1.1850 -0.2610
  108MOL0     H14542   4.418   7.049   8.101  1.4077  1.8440 -1.4120
  108MOL0     H14543   4.564   6.999   8.177  0.1180 -0.5982 -0.3374
  108MOL0     H14544   3.923   7.119   8.359  0.6568 -1.2021 -2.9371
  108MOL0     H14545   3.695   7.109   8.256  1.0972 -0.5151  2.9570
  108MOL0     H14546   3.574   7.483   8.068 -1.6695  1.7684 -2.7443
  108MOL0     H14547   3.592   7.374   7.924  0.7262  2.0940 -0.3756
  108MOL0     H14548   3.351   7.358   8.111  2.2015  0.4317  0.7181
  108MOL0     H14549   3.368   7.491   7.988  3.3166  1.5504 -0.9916
  108MOL0     H14550   3.362   7.202   7.918 -0.4422 -0.1202 -1.3131
  108MOL0     H14551   3.361   7.331   7.806  1.4811  0.7470  0.6057
  108MOL0     H14552   3.141   7.292   8.015 -3.7401  2.1005 -0.5696
  108MOL0     H14553   3.143   7.417   7.894  0.4025  1.0205  1.4168
  108MOL0     H14554   3.001   7.233   7.831 -0.1180 -1.5863 -1.5607
  108MOL0     H14555   3.132   7.124   7.819  0.3356  0.7859 -0.6484
  108MOL0     H14556   3.220   7.211   7.614  0.4400  1.6108 -1.5858
  108MOL0     H14557   3.046   7.215   7.604 -1.0903  0.7195 -1.2720
  108MOL0     H14558   3.211   7.473   7.689  2.1903  0.1296 -1.4371
  108MOL0     H14559   3.056   7.459   7.607  0.0145 -1.7834  0.3601
  108MOL0     H14560   3.319   7.381   7.498  1.3888 -0.5962 -1.1688
  108MOL0     H14561   3.233   7.525   7.454  0.7734 -0.0826  2.2711
  108MOL0     H14562   3.805   7.439   7.999  2.2602 -3.0896 -3.3615
  108MOL0     H14563   4.022   7.447   8.106  0.1147 -0.9443 -2.5042
  108MOL0     H14564   4.291   7.438   8.400  1.8241  2.6466  3.4324
  108MOL0     H14565   4.523   7.513   8.449  1.8640 -0.1740  0.5652
  108MOL0     H14566   6.456   7.657   7.685 -2.5343  1.1964 -0.0900
  108MOL0     H14567   6.601   7.494   7.570 -0.7484 -0.7365  0.2206
  108MOL0     H14568   6.747   7.197   7.381 -0.1267  0.1539 -0.2203
  108MOL0     H14569   6.897   7.037   7.276 -0.3141 -1.0601  0.9034
  108MOL0     H14570   6.733   6.752   6.932  2.5813 -2.8745 -2.8594
  108MOL0     H14571   6.794   6.909   6.875 -1.3505  1.5151  2.7421
  108MOL0     H14572   6.958   6.656   6.936  1.0127 -0.2712 -1.1481
  108MOL0     H14573   7.026   6.814   6.892 -1.5376  2.8758  0.5848
  108MOL0     H14574   6.876   6.822   6.686 -1.6453  0.2739  1.1916
  108MOL0     H14575   6.853   6.648   6.704 -1.4755  1.0385 -3.1177
  108MOL0     H14576   7.133   6.757   6.698 -0.5256  0.1264 -0.2547
  108MOL0     H14577   7.041   6.705   6.562  3.3826  1.2787  0.3164
  108MOL0     H14578   7.058   6.318   6.704 -2.7224 -0.2307 -0.6261
  108MOL0     H14579   6.593   6.945   6.978 -3.5537 -1.4382  2.1744
  108MOL0     H14580   6.425   7.075   7.132 -0.8189  2.4010 -1.0165
  109MOL0     O14581   8.035  10.371  11.067  0.0806  0.0812 -0.7311
  109MOL0     C14582   8.128  10.292  11.104 -0.5901  0.3664 -1.1767
  109MOL0     O14583   8.119  10.165  11.134 -0.5776 -0.5488  0.8642
  109MOL0     C14584   8.009  10.107  11.093 -0.0682  0.6417 -0.1942
  109MOL0     C14585   8.007  10.037  10.967  0.1481  0.4034 -0.2714
  109MOL0     C14586   7.897   9.965  10.941  0.3710 -0.1595  1.0416
  109MOL0     C14587   7.797   9.938  11.029 -0.5247  0.1881 -0.1172
  109MOL0     O14588   7.698   9.845  11.001  0.0586  0.3703 -0.6208
  109MOL0     C14589   7.720   9.706  11.053 -0.2534 -0.0350 -0.0477
  109MOL0     C14590   7.706   9.602  10.933 -0.3767  0.4097 -0.1313
  109MOL0     C14591   7.557   9.612  10.899 -0.1964 -0.3018  0.5908
  109MOL0     C14592   7.454   9.528  10.992  0.1258  0.5128 -0.4794
  109MOL0     C14593   7.311   9.534  10.938 -0.0516  1.4423 -0.4389
  109MOL0     C14594   7.253   9.667  10.973  0.3054 -1.0410 -0.2820
  109MOL0     C14595   7.110   9.673  10.905 -0.5060  0.0737  0.9221
  109MOL0     C14596   7.001   9.601  10.976 -0.1626  0.0562 -0.9109
  109MOL0     N14597   6.879   9.601  10.893 -0.0053 -0.7485  0.5121
  109MOL0     C14598   6.838   9.720  10.831 -0.7547  0.4668 -0.6921
  109MOL0     C14599   6.730   9.686  10.757  0.2284  0.8964  0.3471
  109MOL0     C14600   6.641   9.772  10.669  0.1992 -0.2484  0.2156
  109MOL0     C14601   6.559   9.863  10.762 -0.1363 -0.0241  0.4850
  109MOL0     C14602   6.454   9.921  10.682 -0.1060 -0.5983  0.6171
  109MOL0     C14603   6.336   9.980  10.767  0.4771 -0.7289  0.1331
  109MOL0     O14604   6.262  10.067  10.674  0.5965 -0.0573  0.1428
  109MOL0     C14605   6.125  10.088  10.700 -0.6053  0.5161 -0.1711
  109MOL0     C14606   6.082  10.190  10.614  0.0263  0.3954  0.1320
  109MOL0     C14607   5.948  10.221  10.612 -0.6743 -0.6192  0.3825
  109MOL0     C14608   5.903  10.322  10.504 -0.1099  0.1806 -0.5451
  109MOL0     C14609   5.858  10.153  10.705  0.0906 -0.5615  0.7045
  109MOL0     C14610   5.703  10.157  10.704 -0.3858 -0.7552  0.3191
  109MOL0     O14611   5.652  10.235  10.607 -0.5405  0.0189 -0.0989
  109MOL0     C14612   5.510  10.240  10.588  0.2601 -0.9020 -0.0521
  109MOL0     C14613   5.443  10.361  10.597 -0.3431  0.8281  0.3103
  109MOL0     C14614   5.308  10.364  10.567 -0.2211 -0.4113 -0.1205
  109MOL0     C14615   5.227  10.251  10.541  0.0153 -0.2666 -0.5427
  109MOL0     O14616   5.092  10.278  10.512 -0.2517  0.0188  0.2619
  109MOL0     C14617   5.008  10.170  10.457 -0.9143 -1.0100 -0.5024
  109MOL0     C14618   4.872  10.232  10.420  0.2433 -0.7526 -0.3928
  109MOL0     C14619   4.790  10.149  10.312 -0.5292 -0.0975  0.1242
  109MOL0     C14620   4.646  10.193  10.314  0.0100 -0.3001 -1.5316
  109MOL0     C14621   4.556  10.126  10.212  0.2452  0.1265 -0.1984
  109MOL0     C14622   4.403  10.150  10.239  0.2730  0.4096  0.3222
  109MOL0     C14623   4.315  10.058  10.154 -0.0286  0.2946  0.5764
  109MOL0     C14624   4.345  10.095  10.007 -0.7462 -0.6593  0.2242
  109MOL0    Cl14625   4.278  10.253   9.947 -0.0074 -0.3520 -0.0003
  109MOL0     C14626   5.295  10.123  10.550  0.9304 -0.6055 -0.3011
  109MOL0     C14627   5.432  10.119  10.573 -1.4147 -0.4481 -0.3187
  109MOL0     O14628   5.638  10.098  10.794 -0.2490  0.1412  0.1476
  109MOL0     C14629   5.908  10.062  10.796  0.4545  0.1950  0.7774
  109MOL0     C14630   6.042  10.032  10.792 -0.2080 -0.4756  1.3746
  109MOL0     N14631   6.710   9.550  10.771 -0.0407 -0.1861 -0.0687
  109MOL0     N14632   6.802   9.494  10.846 -0.3391 -0.8122 -0.0597
  109MOL0     C14633   7.787  10.005  11.150  0.2040 -0.0956  0.5018
  109MOL0     C14634   7.904  10.079  11.189  0.4226  0.1258 -0.2118
  109MOL0     C14635   8.261  10.360  11.131 -0.2468  0.0573 -0.0765
  109MOL0     C14636   8.378  10.286  11.121 -0.2711  0.4068 -0.1829
  109MOL0     C14637   8.505  10.333  11.161  0.4627  0.4354 -0.1448
  109MOL0     C14638   8.504  10.462  11.212 -0.8565 -0.3677 -0.0490
  109MOL0     O14639   8.622  10.509  11.274  1.0240  0.8132  0.4697
  109MOL0     C14640   8.667  10.642  11.283 -0.3813 -0.1766  0.0288
  109MOL0     C14641   8.821  10.642  11.292  0.2956  0.0263  0.0264
  109MOL0     C14642   8.898  10.594  11.177  0.2626  2.0379 -0.2086
  109MOL0     C14643   9.047  10.575  11.221  1.0041 -0.7915 -0.2088
  109MOL0     C14644   9.112  10.495  11.124 -0.3706  0.3573  1.5347
  109MOL0     C14645   9.153  10.439  11.026  0.1635 -0.3427  0.1657
  109MOL0     C14646   8.392  10.544  11.227  0.6957 -0.2641  0.2542
  109MOL0     C14647   8.272  10.492  11.184 -0.8021 -0.1973  0.4883
  109MOL0     H14648   8.086  10.043  10.893 -1.8041  0.6327 -2.4731
  109MOL0     H14649   7.893   9.927  10.840 -1.3388  1.4060  0.4693
  109MOL0     H14650   7.821   9.713  11.094 -0.9087  2.1065  1.3949
  109MOL0     H14651   7.652   9.673  11.132 -0.3494  1.8980  0.7508
  109MOL0     H14652   7.747   9.624  10.834  0.9052 -2.8503 -0.4491
  109MOL0     H14653   7.741   9.504  10.968 -2.4775  0.2547  1.7968
  109MOL0     H14654   7.519   9.714  10.905 -1.4360 -0.8310  2.9627
  109MOL0     H14655   7.534   9.585  10.796 -1.7397 -0.7354  1.0175
  109MOL0     H14656   7.490   9.425  10.988  0.9828  0.8589 -3.2560
  109MOL0     H14657   7.448   9.557  11.098  2.2790 -0.9846  0.1164
  109MOL0     H14658   7.323   9.499  10.835  0.1378 -1.0575  0.3606
  109MOL0     H14659   7.250   9.460  10.990  1.8944 -1.5053 -2.0720
  109MOL0     H14660   7.244   9.688  11.080 -0.0618  0.4857 -0.5908
  109MOL0     H14661   7.309   9.753  10.936 -0.7449  0.3952  1.2882
  109MOL0     H14662   7.087   9.780  10.898 -2.2515 -0.3429 -0.3969
  109MOL0     H14663   7.111   9.649  10.798  0.7778  2.0162  0.4274
  109MOL0     H14664   6.987   9.645  11.075 -1.2159 -0.1768 -0.9476
  109MOL0     H14665   7.013   9.493  10.990 -0.8310  0.0928  0.0425
  109MOL0     H14666   6.886   9.818  10.830  0.4198 -0.0910 -1.7604
  109MOL0     H14667   6.701   9.828  10.597  2.0542  0.2055  2.0146
  109MOL0     H14668   6.579   9.700  10.615 -0.9289  1.8620 -1.4351
  109MOL0     H14669   6.612   9.947  10.808 -2.5081 -0.2192  3.9742
  109MOL0     H14670   6.527   9.800  10.846 -1.7728  1.9542  1.4153
  109MOL0     H14671   6.418   9.851  10.605  0.1363  1.2846 -1.2955
  109MOL0     H14672   6.501   9.998  10.620  3.3473 -2.7218  0.3212
  109MOL0     H14673   6.375  10.032  10.855  0.6443  0.8358 -0.8253
  109MOL0     H14674   6.283   9.891  10.800 -0.5535 -0.9608 -1.9943
  109MOL0     H14675   6.149  10.251  10.555 -0.6109 -0.9770 -2.1647
  109MOL0     H14676   5.855  10.268  10.422 -1.3697  2.0147 -1.0721
  109MOL0     H14677   5.821  10.389  10.530 -1.6151 -1.3397 -1.1751
  109MOL0     H14678   5.973  10.386  10.450 -2.1182  1.9982 -1.1239
  109MOL0     H14679   5.502  10.452  10.604  0.7220  0.3246 -1.5108
  109MOL0     H14680   5.252  10.457  10.575 -2.5247 -1.4454 -2.7348
  109MOL0     H14681   5.039  10.132  10.359 -2.7582  1.5909 -2.2143
  109MOL0     H14682   5.021  10.085  10.526 -0.5949 -0.3204  0.3067
  109MOL0     H14683   4.817  10.253  10.512  0.0076 -1.4037 -0.3835
  109MOL0     H14684   4.880  10.332  10.376  2.9785 -1.6175 -2.1700
  109MOL0     H14685   4.800  10.042  10.331  0.3450  0.0507  0.5852
  109MOL0     H14686   4.836  10.185  10.219 -1.2252 -1.5767 -0.8180
  109MOL0     H14687   4.605  10.182  10.415  1.0740 -0.3558 -1.1021
  109MOL0     H14688   4.648  10.300  10.294  1.7761  0.3765  1.5974
  109MOL0     H14689   4.572  10.019  10.228 -0.1761  0.6267  6.1682
  109MOL0     H14690   4.579  10.163  10.112 -4.1812  1.9818 -0.7768
  109MOL0     H14691   4.387  10.127  10.345  1.7625  0.5615  0.5992
  109MOL0     H14692   4.383  10.255  10.218 -3.8867 -0.0229  1.1875
  109MOL0     H14693   4.208  10.067  10.175 -0.2468  2.9828 -1.0525
  109MOL0     H14694   4.344   9.956  10.179  1.3326  0.2969 -0.8400
  109MOL0     H14695   4.302  10.020   9.940  2.4866 -2.3687 -0.1606
  109MOL0     H14696   4.452  10.085   9.985 -0.9628 -0.5800 -0.9185
  109MOL0     H14697   5.244  10.029  10.535 -1.8579  0.6923  0.3206
  109MOL0     H14698   5.481  10.022  10.572 -0.1194  0.1771 -1.0200
  109MOL0     H14699   5.849  10.000  10.863 -0.2320 -0.2039 -0.1727
  109MOL0     H14700   6.079   9.950  10.854  1.2721 -1.6425 -0.8794
  109MOL0     H14701   7.700   9.985  11.212 -0.6517 -0.6053 -0.8165
  109MOL0     H14702   7.923  10.132  11.282 -1.1372  2.6635 -1.2305
  109MOL0     H14703   8.369  10.183  11.087  0.0599 -0.1671  1.3969
  109MOL0     H14704   8.592  10.268  11.165  1.0025  0.9758 -1.9471
  109MOL0     H14705   8.641  10.695  11.191 -0.0236  0.4867  0.3023
  109MOL0     H14706   8.614  10.689  11.366 -2.8615 -2.1034 -0.3419
  109MOL0     H14707   8.844  10.575  11.375 -0.5689  0.7668  0.8800
  109MOL0     H14708   8.849  10.743  11.322 -1.3350  0.8218 -0.9995
  109MOL0     H14709   8.895  10.667  11.095  0.2269  1.5730 -0.6290
  109MOL0     H14710   8.861  10.495  11.150  0.0171  2.3806 -1.1852
  109MOL0     H14711   9.057  10.526  11.318 -0.9653  1.0323  1.0135
  109MOL0     H14712   9.095  10.673  11.234  0.8789 -0.7877  0.2427
  109MOL0     H14713   9.190  10.387  10.939 -0.9968 -1.9740  0.6133
  109MOL0     H14714   8.385  10.641  11.273  0.4626 -0.9275  1.6711
  109MOL0     H14715   8.181  10.545  11.211 -0.6669  1.5349 -2.1043
  110MOL0     O14716   3.145   9.573   8.029  0.9094 -0.5134  0.2260
  110MOL0     C14717   3.095   9.548   8.141  0.1063  0.3408  0.7225
  110MOL0     O14718   3.171   9.497   8.247  0.8667  0.5184 -0.6910
  110MOL0     C14719   3.305   9.469   8.251  0.0373  0.4026 -0.3895
  110MOL0     C14720   3.397   9.580   8.251  0.3287  0.6114 -0.0571
  110MOL0     C14721   3.537   9.556   8.241 -0.5617 -0.1082  0.1889
  110MOL0     C14722   3.585   9.424   8.219 -0.1837 -0.4505  0.4420
  110MOL0     O14723   3.721   9.399   8.191  0.2641 -0.2462 -0.6857
  110MOL0     C14724   3.824   9.496   8.214 -0.2711  0.2771 -0.5007
  110MOL0     C14725   3.884   9.482   8.361  0.7227  0.0289  0.8553
  110MOL0     C14726   3.792   9.557   8.460  1.1138 -0.2981 -0.6152
  110MOL0     C14727   3.855   9.564   8.600 -0.0120 -0.1810  0.0428
  110MOL0     C14728   3.814   9.689   8.677  0.2760 -0.6331 -0.3051
  110MOL0     C14729   3.671   9.674   8.735  0.3354 -0.3853  0.1946
  110MOL0     C14730   3.649   9.534   8.798  0.6083  0.3120  0.0842
  110MOL0     C14731   3.516   9.528   8.876  0.4801  0.4330 -0.1766
  110MOL0     N14732   3.412   9.593   8.803 -0.4688  0.4647  0.6255
  110MOL0     C14733   3.332   9.536   8.713 -0.6594  0.4776  0.1715
  110MOL0     C14734   3.225   9.618   8.688 -0.2423  0.4061  0.2622
  110MOL0     C14735   3.109   9.589   8.604 -0.0387  0.5717 -0.1314
  110MOL0     C14736   2.983   9.637   8.685 -0.9041 -1.0951 -0.1028
  110MOL0     C14737   2.850   9.581   8.630 -0.3580 -0.5318  0.2586
  110MOL0     C14738   2.735   9.569   8.733  0.6626 -0.1687 -0.3223
  110MOL0     O14739   2.627   9.484   8.663  0.7677 -0.4160  0.7377
  110MOL0     C14740   2.495   9.513   8.695 -0.3705 -0.6474  0.3341
  110MOL0     C14741   2.400   9.466   8.608 -0.6495  0.2463  0.0216
  110MOL0     C14742   2.264   9.485   8.640 -0.7156 -0.6782  0.4808
  110MOL0     C14743   2.161   9.427   8.545 -0.0019 -0.1611 -0.7807
  110MOL0     C14744   2.224   9.565   8.745  0.4038  0.3648  0.2984
  110MOL0     C14745   2.084   9.597   8.776 -0.8823  0.5774 -0.5111
  110MOL0     O14746   1.994   9.497   8.773 -0.3664 -0.1924  0.7529
  110MOL0     C14747   1.863   9.538   8.781  0.1319  0.3071 -0.7581
  110MOL0     C14748   1.795   9.591   8.673  0.1315  0.5624  1.0266
  110MOL0     C14749   1.659   9.623   8.690 -0.6260  0.0611  0.2398
  110MOL0     C14750   1.588   9.601   8.808 -0.6749  0.1089 -0.0840
  110MOL0     O14751   1.458   9.627   8.833  0.0900  0.5395 -0.2435
  110MOL0     C14752   1.372   9.685   8.729 -0.0736  0.3247 -0.8289
  110MOL0     C14753   1.237   9.733   8.780 -0.1292 -0.0344 -0.1791
  110MOL0     C14754   1.144   9.609   8.811 -0.0572 -1.2210  0.3780
  110MOL0     C14755   1.032   9.647   8.912 -1.1096  0.5109  0.6820
  110MOL0     C14756   0.954   9.516   8.957  0.2851  0.0036 -1.0860
  110MOL0     C14757   0.869   9.456   8.849  0.6472 -0.4501  0.0914
  110MOL0     C14758   0.792   9.336   8.901  0.5658  0.1158  0.0670
  110MOL0     C14759   0.724   9.255   8.792  0.5978  0.2596  0.0492
  110MOL0    Cl14760   0.584   9.342   8.732  0.5811  0.2517  0.4512
  110MOL0     C14761   1.657   9.547   8.916  0.3413  0.8394  0.6706
  110MOL0     C14762   1.797   9.521   8.905 -0.0410  0.3190  0.7186
  110MOL0     O14763   2.057   9.710   8.793 -0.2709 -0.0482 -0.8725
  110MOL0     C14764   2.320   9.614   8.826 -1.2197 -0.1142  0.4363
  110MOL0     C14765   2.456   9.591   8.807  0.0424 -0.5624  0.4348
  110MOL0     N14766   3.240   9.726   8.776  0.2185  0.5815 -0.0491
  110MOL0     N14767   3.350   9.710   8.834 -0.8022 -0.3545  0.0963
  110MOL0     C14768   3.497   9.316   8.220 -0.3641  0.0109  0.0033
  110MOL0     C14769   3.354   9.335   8.243 -0.0625 -0.3514 -0.3821
  110MOL0     C14770   2.949   9.565   8.163  0.1711  0.3083  0.3094
  110MOL0     C14771   2.885   9.486   8.266 -0.4007  0.5319  0.6761
  110MOL0     C14772   2.757   9.501   8.304  0.6311  0.3265  0.2535
  110MOL0     C14773   2.674   9.596   8.239  0.5461 -0.3821 -0.0795
  110MOL0     O14774   2.547   9.593   8.286  0.1429  0.2867  0.9237
  110MOL0     C14775   2.431   9.654   8.228 -0.8046  0.1759 -0.2123
  110MOL0     C14776   2.319   9.543   8.241  0.1763 -1.0729  0.0878
  110MOL0     C14777   2.340   9.424   8.155 -0.1326 -0.0895 -0.0113
  110MOL0     C14778   2.239   9.306   8.181 -0.2510  0.3988 -0.5063
  110MOL0     C14779   2.098   9.342   8.204  0.0084  0.3853 -0.2196
  110MOL0     C14780   1.985   9.363   8.238 -0.1515 -0.7427  0.1864
  110MOL0     C14781   2.736   9.680   8.138 -0.5395 -0.3288  0.4277
  110MOL0     C14782   2.867   9.666   8.097 -0.7300  0.3901 -0.1708
  110MOL0     H14783   3.362   9.682   8.267 -0.4061  0.5726 -1.2857
  110MOL0     H14784   3.604   9.640   8.251 -1.6042  0.6490  1.1506
  110MOL0     H14785   3.917   9.482   8.158  1.0905  3.0648  0.8429
  110MOL0     H14786   3.792   9.598   8.192  1.9255  1.0180 -0.5820
  110MOL0     H14787   3.897   9.378   8.392 -1.9892 -0.5706  0.2333
  110MOL0     H14788   3.978   9.538   8.354  2.0257 -2.0423  0.8084
  110MOL0     H14789   3.766   9.658   8.427 -1.5705  0.0908  2.1827
  110MOL0     H14790   3.696   9.504   8.467 -0.0402  1.7198 -0.3856
  110MOL0     H14791   3.839   9.470   8.653  1.5891  1.2409  3.3851
  110MOL0     H14792   3.964   9.571   8.585 -0.4142  2.5040 -2.6590
  110MOL0     H14793   3.873   9.711   8.767 -1.1974  0.7217  0.3895
  110MOL0     H14794   3.830   9.774   8.609  3.3548 -1.8507 -1.3018
  110MOL0     H14795   3.652   9.755   8.806  0.4809  0.4797 -0.7326
  110MOL0     H14796   3.607   9.694   8.649  1.3674 -0.3260 -0.5796
  110MOL0     H14797   3.652   9.451   8.727  0.8717 -0.0495  0.5095
  110MOL0     H14798   3.721   9.510   8.877  0.6717 -2.7453 -0.7927
  110MOL0     H14799   3.522   9.569   8.977  0.9258 -0.7406  0.2906
  110MOL0     H14800   3.489   9.422   8.882 -1.1956  0.7564 -1.5432
  110MOL0     H14801   3.341   9.443   8.658 -2.1908 -0.3073  1.1580
  110MOL0     H14802   3.108   9.644   8.509  0.9520  0.7749 -0.0308
  110MOL0     H14803   3.106   9.483   8.578  0.3206  0.3485  0.7029
  110MOL0     H14804   2.974   9.745   8.673  0.9549 -0.9323 -0.2436
  110MOL0     H14805   3.000   9.606   8.789  1.8866  1.3941  0.3009
  110MOL0     H14806   2.882   9.485   8.589 -0.4974 -0.2308 -0.5828
  110MOL0     H14807   2.806   9.644   8.553 -0.1099  1.8635  1.9719
  110MOL0     H14808   2.698   9.669   8.758 -0.7180 -0.9597  0.8780
  110MOL0     H14809   2.760   9.520   8.827 -0.3868 -0.6995 -0.3093
  110MOL0     H14810   2.437   9.417   8.519  0.5649 -0.1459  0.7113
  110MOL0     H14811   2.104   9.511   8.504  0.4009  2.3893  3.2881
  110MOL0     H14812   2.209   9.364   8.470  1.2942 -1.7836  1.2931
  110MOL0     H14813   2.091   9.360   8.598 -0.1943 -1.0327 -2.0835
  110MOL0     H14814   1.853   9.603   8.583 -2.9455 -0.2289 -1.2042
  110MOL0     H14815   1.599   9.669   8.612  1.8864  1.1677 -1.1729
  110MOL0     H14816   1.424   9.772   8.688  2.2892 -1.7563 -2.6319
  110MOL0     H14817   1.369   9.620   8.640 -2.9952  1.8808 -2.0103
  110MOL0     H14818   1.247   9.808   8.859 -1.9144 -1.0945  1.1348
  110MOL0     H14819   1.190   9.781   8.693  1.3441  0.3428 -0.7977
  110MOL0     H14820   1.209   9.532   8.854  2.3609  0.4952  0.0001
  110MOL0     H14821   1.104   9.564   8.720  0.5112 -1.4835  0.2546
  110MOL0     H14822   1.075   9.705   8.994  0.3089  1.8148 -0.9047
  110MOL0     H14823   0.950   9.706   8.868 -0.6672  0.9216  0.3995
  110MOL0     H14824   0.902   9.526   9.052 -1.5138 -0.1811 -1.9998
  110MOL0     H14825   1.029   9.439   8.977  0.1454  0.7909  3.4344
  110MOL0     H14826   0.797   9.534   8.823  0.9426  0.0678  0.7925
  110MOL0     H14827   0.934   9.437   8.762 -0.8922 -2.3586 -0.7083
  110MOL0     H14828   0.711   9.378   8.962  1.6467  0.1114  1.5431
  110MOL0     H14829   0.841   9.273   8.975  0.3924 -0.1160 -0.0173
  110MOL0     H14830   0.697   9.158   8.833 -1.9986  0.8647 -0.0783
  110MOL0     H14831   0.800   9.241   8.714  0.7890  2.2609 -0.1827
  110MOL0     H14832   1.602   9.522   9.007 -0.8222 -0.6487 -0.3922
  110MOL0     H14833   1.841   9.472   8.991 -0.6487  1.6442  1.8189
  110MOL0     H14834   2.290   9.664   8.917  1.3710  0.7668  0.8997
  110MOL0     H14835   2.523   9.637   8.879  1.7476 -0.8574 -0.9087
  110MOL0     H14836   3.538   9.216   8.222  0.8149  0.4047  4.0971
  110MOL0     H14837   3.285   9.254   8.265 -2.4476  1.9477  1.2551
  110MOL0     H14838   2.961   9.425   8.314 -0.4595  0.3862  0.5819
  110MOL0     H14839   2.712   9.444   8.385 -2.2492  0.7403 -0.9386
  110MOL0     H14840   2.413   9.751   8.274  1.5362  0.1861  0.8517
  110MOL0     H14841   2.443   9.670   8.120 -2.1090 -1.3938 -0.6395
  110MOL0     H14842   2.224   9.592   8.222  1.6361  2.2209  0.5895
  110MOL0     H14843   2.323   9.511   8.346  0.7718  1.9055  1.0823
  110MOL0     H14844   2.438   9.379   8.167  0.3425  1.4927  2.9812
  110MOL0     H14845   2.317   9.453   8.052 -2.1321  0.6600  0.5884
  110MOL0     H14846   2.282   9.253   8.266  0.8811  1.6665 -0.2720
  110MOL0     H14847   2.239   9.235   8.097 -4.7242 -0.7968  0.2175
  110MOL0     H14848   1.891   9.377   8.288 -1.5267  0.4377 -2.5469
  110MOL0     H14849   2.676   9.761   8.097  1.6429  0.0778 -2.2937
  110MOL0     H14850   2.907   9.740   8.028  0.9023  1.2754  1.6006
  111MOL0     O14851  10.875   2.722   0.472  0.4344 -0.4118  0.1343
  111MOL0     C14852  10.919   2.828   0.518 -0.2777  0.4013  0.1328
  111MOL0     O14853  10.853   2.911   0.600  0.5326  0.2116  0.4169
  111MOL0     C14854  10.716   2.906   0.611  0.2391  0.2121 -0.5315
  111MOL0     C14855  10.664   2.939   0.738  0.9679  0.0966  1.4100
  111MOL0     C14856  10.523   2.929   0.760 -0.4727 -0.9537 -0.4477
  111MOL0     C14857  10.440   2.887   0.651  0.5259 -1.0504 -1.1453
  111MOL0     O14858  10.309   2.876   0.688 -0.0950 -0.0473  0.2718
  111MOL0     C14859  10.211   2.835   0.597 -0.3241 -0.1357 -0.6302
  111MOL0     C14860  10.069   2.842   0.656 -0.4475 -0.4299  0.0319
  111MOL0     C14861   9.978   2.768   0.563 -0.0560 -0.2443  0.0041
  111MOL0     C14862   9.831   2.812   0.576  1.0785  0.0329 -0.6928
  111MOL0     C14863   9.738   2.785   0.457  0.7948 -0.5474  0.6169
  111MOL0     C14864   9.699   2.645   0.427 -0.6900  0.4502 -0.3466
  111MOL0     C14865   9.604   2.580   0.533 -0.2484  0.4203  0.2380
  111MOL0     C14866   9.554   2.433   0.520  1.6663 -0.2021 -0.2962
  111MOL0     N14867   9.479   2.399   0.649 -0.0400  0.3841  0.0882
  111MOL0     C14868   9.354   2.449   0.675  0.7754 -0.5534  0.1480
  111MOL0     C14869   9.320   2.397   0.796 -0.4024  0.6282  0.5520
  111MOL0     C14870   9.206   2.422   0.898 -0.2737  0.0631 -0.0170
  111MOL0     C14871   9.066   2.427   0.833 -0.1813 -0.3606  0.0708
  111MOL0     C14872   8.952   2.374   0.913  0.3796 -0.3259 -0.1528
  111MOL0     C14873   8.819   2.411   0.847  0.3922  0.4935 -0.8042
  111MOL0     O14874   8.715   2.325   0.903 -0.1251  0.5136  0.2130
  111MOL0     C14875   8.591   2.343   0.847  0.7974  0.7821  0.7187
  111MOL0     C14876   8.481   2.277   0.910  0.1402 -0.9524  0.1509
  111MOL0     C14877   8.348   2.284   0.856 -0.1354 -0.7374  1.3280
  111MOL0     C14878   8.230   2.206   0.916 -0.9864  0.0766 -0.9275
  111MOL0     C14879   8.329   2.376   0.743  0.2379  0.5292 -0.1766
  111MOL0     C14880   8.199   2.419   0.692  0.0849 -0.5345 -1.0551
  111MOL0     O14881   8.188   2.470   0.562 -0.4491  0.2137 -0.0974
  111MOL0     C14882   8.073   2.544   0.541  0.1285  0.1959 -0.1314
  111MOL0     C14883   7.945   2.501   0.483  0.6242  0.2843  0.0950
  111MOL0     C14884   7.833   2.589   0.478 -1.1339  0.5003 -0.5142
  111MOL0     C14885   7.849   2.724   0.521 -0.8019 -0.1344  1.2316
  111MOL0     O14886   7.746   2.817   0.517 -0.0465 -0.2799 -0.2563
  111MOL0     C14887   7.609   2.768   0.505 -0.5260  0.0369 -0.5101
  111MOL0     C14888   7.524   2.889   0.493 -0.1439 -0.8017 -0.8342
  111MOL0     C14889   7.554   2.962   0.360  0.4561  0.3137  0.3732
  111MOL0     C14890   7.498   3.101   0.383  0.6085 -0.9621  0.7037
  111MOL0     C14891   7.526   3.181   0.257 -0.1213  0.1858  0.4942
  111MOL0     C14892   7.501   3.324   0.282  0.6806 -0.8042  0.4675
  111MOL0     C14893   7.535   3.423   0.166 -1.2395  0.0379 -0.0461
  111MOL0     C14894   7.525   3.568   0.205  0.6183  0.3286 -0.0295
  111MOL0    Cl14895   7.588   3.676   0.076 -0.0954 -0.9384 -0.5609
  111MOL0     C14896   7.974   2.767   0.574  1.2197  0.3101 -0.1623
  111MOL0     C14897   8.083   2.675   0.577 -1.3320 -0.1323  0.6886
  111MOL0     O14898   8.110   2.425   0.775  0.5986 -0.1815 -0.4455
  111MOL0     C14899   8.438   2.447   0.690  0.0200  1.1454 -0.1280
  111MOL0     C14900   8.563   2.437   0.741 -0.1408 -0.2922  0.5037
  111MOL0     N14901   9.431   2.321   0.830 -0.2907  0.2103  0.9252
  111MOL0     N14902   9.525   2.320   0.743  0.6853 -0.6737 -0.2632
  111MOL0     C14903  10.487   2.861   0.521 -0.2115 -0.2474  0.0563
  111MOL0     C14904  10.628   2.865   0.512  0.5110 -0.2574 -0.3784
  111MOL0     C14905  11.067   2.848   0.506  0.2613 -2.2709 -0.6860
  111MOL0     C14906  11.112   2.967   0.565  0.0251 -0.1912 -0.2548
  111MOL0     C14907  11.243   2.996   0.540  0.0555  0.4633  0.3530
  111MOL0     C14908  11.321   2.921   0.453 -0.7939  0.1312 -0.5830
  111MOL0     O14909  11.453   2.964   0.448  0.6360  0.6323  0.5834
  111MOL0     C14910  11.517   2.963   0.317 -0.6392 -0.4835  0.6060
  111MOL0     C14911  11.665   2.981   0.348 -0.6072 -0.6147  0.3513
  111MOL0     C14912  11.719   3.082   0.240  1.0114  0.1116 -0.0427
  111MOL0     C14913  11.870   3.080   0.248  0.5798 -0.2310 -0.3394
  111MOL0     C14914  11.915   2.961   0.177  0.7525 -0.2866  0.5330
  111MOL0     C14915  11.949   2.856   0.125  0.3781 -0.0182  0.1363
  111MOL0     C14916  11.274   2.800   0.406  0.5965 -0.5254  0.8984
  111MOL0     C14917  11.149   2.760   0.431  0.5154 -0.2973 -0.1849
  111MOL0     H14918  10.724   2.961   0.826  1.4654  1.0978  0.8338
  111MOL0     H14919  10.487   2.943   0.861  0.8880 -1.7684  0.1846
  111MOL0     H14920  10.228   2.881   0.499  3.4344 -1.4050 -0.7394
  111MOL0     H14921  10.234   2.729   0.578 -1.4166 -0.5172  0.1122
  111MOL0     H14922  10.068   2.790   0.753  1.7687 -2.2830 -0.8357
  111MOL0     H14923  10.040   2.947   0.671 -0.1763 -0.0205 -2.0570
  111MOL0     H14924  10.002   2.812   0.466 -1.8959  0.7952 -0.0244
  111MOL0     H14925   9.998   2.661   0.570  2.8358  0.3218  2.4040
  111MOL0     H14926   9.786   2.781   0.671 -1.3228  0.3237 -1.6636
  111MOL0     H14927   9.824   2.921   0.583 -2.3093 -0.0491 -0.9627
  111MOL0     H14928   9.648   2.846   0.466  1.8298  0.9391  1.2275
  111MOL0     H14929   9.784   2.825   0.366 -2.8927 -1.3729 -1.8337
  111MOL0     H14930   9.653   2.639   0.328 -0.6988 -1.8504 -0.2570
  111MOL0     H14931   9.788   2.581   0.423 -1.3917 -0.4945 -1.2514
  111MOL0     H14932   9.657   2.599   0.627 -2.0217  1.2568  1.1136
  111MOL0     H14933   9.512   2.639   0.532  0.3115  1.3298 -1.3206
  111MOL0     H14934   9.641   2.369   0.507  0.1544 -2.1855 -1.1250
  111MOL0     H14935   9.486   2.418   0.435  3.3041 -0.8779 -1.5321
  111MOL0     H14936   9.285   2.505   0.613  3.5647  3.2111  0.0662
  111MOL0     H14937   9.199   2.344   0.975  0.5073  1.5892  1.6702
  111MOL0     H14938   9.236   2.507   0.960  0.0924 -0.8133  1.0345
  111MOL0     H14939   9.059   2.376   0.736 -0.2909 -2.5490  1.1779
  111MOL0     H14940   9.051   2.534   0.815  0.9839  0.1720  1.9221
  111MOL0     H14941   8.963   2.423   1.010 -1.6185  0.3155 -0.1881
  111MOL0     H14942   8.964   2.265   0.917  2.9526 -0.0605  0.8717
  111MOL0     H14943   8.817   2.395   0.739 -0.3991  1.8981 -1.0090
  111MOL0     H14944   8.812   2.518   0.868 -2.2803  0.2519 -0.0984
  111MOL0     H14945   8.495   2.203   0.988 -2.1098 -1.1175  0.4614
  111MOL0     H14946   8.172   2.155   0.838 -2.4794  0.6599 -0.2547
  111MOL0     H14947   8.259   2.132   0.991  0.0591  1.6116  0.2605
  111MOL0     H14948   8.161   2.274   0.967 -1.0793 -0.6232 -0.1035
  111MOL0     H14949   7.917   2.400   0.453 -3.3709  1.2972 -0.1395
  111MOL0     H14950   7.741   2.556   0.431 -1.5498  2.5126 -1.2350
  111MOL0     H14951   7.587   2.716   0.411  0.2301  1.4770 -1.5242
  111MOL0     H14952   7.579   2.707   0.590 -0.3880 -0.3981 -0.7721
  111MOL0     H14953   7.421   2.851   0.483 -0.6497  0.2931 -0.0099
  111MOL0     H14954   7.533   2.933   0.592 -0.4093 -0.3992 -0.9863
  111MOL0     H14955   7.492   2.924   0.278 -1.4074  1.3276  1.2592
  111MOL0     H14956   7.661   2.968   0.338  0.3103 -4.4544 -3.0786
  111MOL0     H14957   7.393   3.093   0.414  0.1801  2.9079  0.7518
  111MOL0     H14958   7.551   3.158   0.461  0.5039  0.9805 -0.5719
  111MOL0     H14959   7.465   3.141   0.175  0.5020 -0.7385  0.4632
  111MOL0     H14960   7.629   3.162   0.224 -1.0115 -2.1470 -1.2445
  111MOL0     H14961   7.399   3.341   0.317  1.6364  1.9381  2.2025
  111MOL0     H14962   7.558   3.353   0.371 -1.1002 -1.0008  1.7258
  111MOL0     H14963   7.461   3.399   0.089  0.1393 -0.2919 -1.3187
  111MOL0     H14964   7.639   3.405   0.135 -0.8330  2.2983 -0.1670
  111MOL0     H14965   7.590   3.584   0.292  0.4768 -1.7782  0.5242
  111MOL0     H14966   7.420   3.597   0.217 -0.0485 -0.4789 -3.0580
  111MOL0     H14967   7.981   2.873   0.592  0.4448  0.6777 -1.8769
  111MOL0     H14968   8.179   2.706   0.618 -0.0542 -0.7153 -1.6541
  111MOL0     H14969   8.432   2.507   0.599  2.0336 -1.3386 -2.0294
  111MOL0     H14970   8.640   2.487   0.683 -4.4321  1.4168 -4.5266
  111MOL0     H14971  10.425   2.826   0.440 -2.0146 -0.0516  1.2942
  111MOL0     H14972  10.663   2.842   0.412 -0.9427  0.6822 -1.1381
  111MOL0     H14973  11.054   3.031   0.631  0.2163  1.6291 -1.7551
  111MOL0     H14974  11.285   3.088   0.579  0.7952 -0.0284  0.7408
  111MOL0     H14975  11.503   2.864   0.272  0.1949 -0.3983  0.1436
  111MOL0     H14976  11.472   3.043   0.257 -0.7478 -2.1628 -1.7040
  111MOL0     H14977  11.709   2.883   0.328 -0.9878 -1.0628  1.6737
  111MOL0     H14978  11.668   3.014   0.452  0.0803 -0.6291  0.3427
  111MOL0     H14979  11.679   3.179   0.273 -1.3159 -0.6648 -0.3693
  111MOL0     H14980  11.686   3.055   0.139 -0.5330 -1.6204  0.8753
  111MOL0     H14981  11.905   3.074   0.352  0.4829  3.8464  0.0750
  111MOL0     H14982  11.904   3.170   0.197 -0.3837 -0.3205 -1.1651
  111MOL0     H14983  11.971   2.764   0.074 -0.4644 -0.3042  0.2663
  111MOL0     H14984  11.338   2.738   0.344  1.3366 -0.1473  1.2706
  111MOL0     H14985  11.111   2.667   0.391  1.4658 -1.8518  2.3026
  112MOL0     O14986   2.884   3.607   3.717 -0.7028  0.1104 -0.4009
  112MOL0     C14987   2.897   3.486   3.718 -0.5414  0.3213 -0.6980
  112MOL0     O14988   2.795   3.395   3.707  0.2420 -0.3073  0.0247
  112MOL0     C14989   2.672   3.455   3.712  0.1376 -0.7661 -0.1159
  112MOL0     C14990   2.623   3.536   3.596  0.3086  0.6555 -0.2763
  112MOL0     C14991   2.491   3.587   3.598  0.3233 -0.7253 -0.8042
  112MOL0     C14992   2.404   3.573   3.711  0.4856  0.6023 -0.5087
  112MOL0     O14993   2.283   3.631   3.711 -0.6762 -0.8231  0.9882
  112MOL0     C14994   2.178   3.590   3.793  0.6523  0.5185 -0.3989
  112MOL0     C14995   2.062   3.690   3.769 -0.2941 -0.6843  0.5532
  112MOL0     C14996   2.091   3.815   3.845 -0.2302 -0.0970 -0.5053
  112MOL0     C14997   2.007   3.829   3.975  0.1293  0.0902 -0.0249
  112MOL0     C14998   2.045   3.952   4.059  0.6805 -0.0213  0.7757
  112MOL0     C14999   1.999   4.094   4.017  0.6577  0.4596  0.1184
  112MOL0     C15000   1.842   4.095   3.996 -0.1329  0.6638 -0.0533
  112MOL0     C15001   1.775   4.226   3.978  0.4746 -0.1680  0.6986
  112MOL0     N15002   1.637   4.212   3.949  0.4796  0.1643  0.4077
  112MOL0     C15003   1.578   4.203   3.827 -0.2741 -0.5286  0.6808
  112MOL0     C15004   1.447   4.214   3.859 -0.1207 -0.4246  0.4058
  112MOL0     C15005   1.353   4.227   3.746 -0.9667 -0.5737 -0.0453
  112MOL0     C15006   1.215   4.178   3.777  0.3373  0.3253  0.0735
  112MOL0     C15007   1.123   4.258   3.688 -0.0462 -1.4518  1.0243
  112MOL0     C15008   0.976   4.220   3.711 -0.3857  0.2511 -0.3549
  112MOL0     O15009   0.943   4.115   3.620  0.0867 -0.3967 -0.1170
  112MOL0     C15010   0.822   4.127   3.557  0.5096  0.0636  0.7854
  112MOL0     C15011   0.794   4.083   3.428 -0.4756  0.2784 -0.2750
  112MOL0     C15012   0.667   4.073   3.366  0.1177 -0.6296 -0.5823
  112MOL0     C15013   0.660   4.015   3.221  0.3281 -0.3140  0.0099
  112MOL0     C15014   0.557   4.119   3.441  0.9799  0.2254 -0.5689
  112MOL0     C15015   0.415   4.119   3.401 -0.1624 -0.6915  0.6016
  112MOL0     O15016   0.319   4.099   3.495  0.4285  0.4147 -0.7369
  112MOL0     C15017   0.188   4.111   3.453 -0.6548  0.4575  0.6929
  112MOL0     C15018   0.119   4.010   3.391  0.0263  0.9269 -0.1105
  112MOL0     C15019  -0.022   4.023   3.367 -0.2134  0.6292 -0.9117
  112MOL0     C15020  -0.088   4.138   3.420 -0.7341  0.2143  0.9267
  112MOL0     O15021  -0.224   4.156   3.426 -0.6785  0.1481  0.2527
  112MOL0     C15022  -0.277   4.265   3.507  0.6872  0.7082 -0.2660
  112MOL0     C15023  -0.425   4.262   3.509 -0.1484  0.8744 -0.5486
  112MOL0     C15024  -0.487   4.383   3.571  0.6862  0.2155  0.4959
  112MOL0     C15025  -0.501   4.494   3.469  0.3657  1.3776 -0.4345
  112MOL0     C15026  -0.534   4.631   3.539  0.2491  0.6298 -0.3508
  112MOL0     C15027  -0.597   4.736   3.452 -0.3933  0.3059 -0.1018
  112MOL0     C15028  -0.502   4.779   3.330 -0.4082  0.4131  0.1884
  112MOL0     C15029  -0.374   4.854   3.382  0.5248  0.9541 -0.0053
  112MOL0    Cl15030  -0.263   4.891   3.248 -0.4598  0.1438  0.0838
  112MOL0     C15031  -0.002   4.239   3.476  0.1130 -0.4858  0.0129
  112MOL0     C15032   0.133   4.226   3.499 -0.4405  0.1567  0.4226
  112MOL0     O15033   0.402   4.149   3.282 -0.3861 -0.3846  0.3672
  112MOL0     C15034   0.578   4.180   3.569  0.5128  0.2603  1.0798
  112MOL0     C15035   0.713   4.182   3.615  0.0568 -1.2595  0.2910
  112MOL0     N15036   1.437   4.218   3.994  0.1359  0.9895  0.3899
  112MOL0     N15037   1.547   4.217   4.047 -0.4396 -0.3623 -1.2442
  112MOL0     C15038   2.457   3.504   3.820  0.4004  0.1052  0.4639
  112MOL0     C15039   2.580   3.438   3.821  0.0289 -0.0715  0.3650
  112MOL0     C15040   3.034   3.439   3.718 -0.2366  0.2121  0.2281
  112MOL0     C15041   3.056   3.303   3.689  0.8753 -0.4907 -0.2084
  112MOL0     C15042   3.189   3.246   3.703 -0.0374 -0.7603  0.1853
  112MOL0     C15043   3.293   3.326   3.744  0.0647  0.4826 -0.3697
  112MOL0     O15044   3.425   3.280   3.762 -0.3238 -0.8242 -0.3658
  112MOL0     C15045   3.458   3.147   3.739  0.1194  0.2817 -0.0923
  112MOL0     C15046   3.594   3.114   3.799 -0.2888 -0.0987  0.0059
  112MOL0     C15047   3.710   3.187   3.741 -0.0218 -0.0196 -0.7724
  112MOL0     C15048   3.847   3.125   3.791 -0.9666  1.0596 -0.3499
  112MOL0     C15049   3.877   3.148   3.925 -0.0347 -0.9188 -0.2467
  112MOL0     C15050   3.909   3.175   4.037 -0.9873  1.0465  0.3303
  112MOL0     C15051   3.275   3.458   3.769 -0.0701 -0.3464  0.1350
  112MOL0     C15052   3.150   3.515   3.745  0.7511  0.1218 -0.3015
  112MOL0     H15053   2.684   3.542   3.507  2.8554 -0.9746  1.2120
  112MOL0     H15054   2.470   3.634   3.503  1.7078  0.0446 -0.7507
  112MOL0     H15055   2.144   3.487   3.779  0.5899  0.3830  0.6115
  112MOL0     H15056   2.207   3.588   3.899  0.1583 -3.8790 -0.1605
  112MOL0     H15057   2.050   3.709   3.662  1.7442  2.4750  0.7413
  112MOL0     H15058   1.971   3.637   3.799  0.9026 -4.8314 -2.2680
  112MOL0     H15059   2.196   3.824   3.876 -0.0315  0.1252 -1.2042
  112MOL0     H15060   2.067   3.903   3.784 -0.2118  1.0478  1.0649
  112MOL0     H15061   1.898   3.830   3.965  0.1466 -0.5939 -0.3387
  112MOL0     H15062   2.027   3.745   4.042  0.7450  0.1344 -0.1441
  112MOL0     H15063   2.002   3.934   4.158 -2.4955  0.7116 -0.3297
  112MOL0     H15064   2.153   3.951   4.070  0.8141 -1.3714 -0.3385
  112MOL0     H15065   2.019   4.167   4.096  0.5020  0.5673  0.0570
  112MOL0     H15066   2.057   4.127   3.931  1.1304  1.3606  0.7612
  112MOL0     H15067   1.815   4.024   3.917  0.3199 -0.0247  0.4014
  112MOL0     H15068   1.792   4.058   4.086  1.7283  0.1432  0.8242
  112MOL0     H15069   1.821   4.286   3.899 -0.6183 -0.6562 -0.3331
  112MOL0     H15070   1.785   4.277   4.074  1.3897 -0.2951  0.6753
  112MOL0     H15071   1.619   4.202   3.726 -1.3729 -0.9328  0.2335
  112MOL0     H15072   1.352   4.334   3.724  2.3942 -0.3518  0.2771
  112MOL0     H15073   1.389   4.190   3.650 -1.9735 -0.1191 -0.6111
  112MOL0     H15074   1.181   4.201   3.878 -3.9837  2.1432 -1.5131
  112MOL0     H15075   1.218   4.070   3.762 -3.5276 -0.2535  2.1465
  112MOL0     H15076   1.141   4.248   3.580 -1.9100  2.0551  0.2613
  112MOL0     H15077   1.134   4.364   3.712  0.5910 -1.3380  0.2864
  112MOL0     H15078   0.918   4.312   3.698  1.7425  1.5202 -1.4990
  112MOL0     H15079   0.956   4.178   3.810  1.2295 -1.2049 -0.5951
  112MOL0     H15080   0.871   4.038   3.367 -0.8611  1.2739 -1.5439
  112MOL0     H15081   0.600   3.924   3.223 -0.3050  0.0668 -0.8755
  112MOL0     H15082   0.612   4.090   3.157  1.0491  0.6871  0.6017
  112MOL0     H15083   0.756   3.996   3.171 -0.0360 -3.3634  0.3255
  112MOL0     H15084   0.168   3.915   3.373  1.0039  1.1879  1.0206
  112MOL0     H15085  -0.073   3.933   3.335  1.1131 -1.6774  2.7752
  112MOL0     H15086  -0.257   4.252   3.614 -2.9150 -0.3457  0.4234
  112MOL0     H15087  -0.248   4.362   3.466 -1.0014  1.0018 -0.8380
  112MOL0     H15088  -0.469   4.240   3.411 -1.2742 -1.9371  0.4760
  112MOL0     H15089  -0.455   4.183   3.579  2.6387  0.5443  0.3954
  112MOL0     H15090  -0.436   4.431   3.655 -2.3301  1.8816  1.5347
  112MOL0     H15091  -0.581   4.350   3.618 -0.9476  1.2255 -1.8972
  112MOL0     H15092  -0.406   4.501   3.415  1.8363 -0.7016  1.7021
  112MOL0     H15093  -0.567   4.463   3.388  1.7339 -2.2175 -0.3697
  112MOL0     H15094  -0.440   4.664   3.585  0.4841  1.9095 -1.6822
  112MOL0     H15095  -0.608   4.613   3.618  0.7246 -0.0939 -0.0556
  112MOL0     H15096  -0.687   4.693   3.408  0.8498 -1.4707 -0.9865
  112MOL0     H15097  -0.612   4.826   3.513 -1.3826  1.2587 -1.6787
  112MOL0     H15098  -0.546   4.861   3.271 -0.2266 -0.8807 -1.8180
  112MOL0     H15099  -0.474   4.694   3.268 -1.5223 -2.2339  3.0298
  112MOL0     H15100  -0.328   4.776   3.443  1.6415 -0.2683 -2.2714
  112MOL0     H15101  -0.402   4.940   3.443 -3.1931 -0.0221 -0.0932
  112MOL0     H15102  -0.036   4.333   3.519  0.3080 -1.3378  2.1446
  112MOL0     H15103   0.190   4.294   3.561  0.8712 -0.6645  0.1640
  112MOL0     H15104   0.491   4.219   3.622  1.3566  1.4999  1.6025
  112MOL0     H15105   0.729   4.218   3.716  1.0401  3.3190 -1.2406
  112MOL0     H15106   2.408   3.498   3.917  2.1266  0.9441  1.4431
  112MOL0     H15107   2.601   3.363   3.896  0.1457 -0.4929 -0.0813
  112MOL0     H15108   2.970   3.246   3.656 -1.3745  2.1665  0.7327
  112MOL0     H15109   3.201   3.143   3.670 -1.1315 -0.8096 -0.0997
  112MOL0     H15110   3.394   3.072   3.786  0.3364  1.6842  2.5827
  112MOL0     H15111   3.463   3.124   3.632 -2.4603  1.6980 -0.5929
  112MOL0     H15112   3.621   3.010   3.779 -0.4844 -0.5462  1.8680
  112MOL0     H15113   3.586   3.111   3.908  1.7347  0.2652  0.2041
  112MOL0     H15114   3.701   3.293   3.767 -1.8556 -0.3151 -0.0339
  112MOL0     H15115   3.711   3.177   3.632  2.8972 -0.8164 -0.7542
  112MOL0     H15116   3.924   3.177   3.734 -1.6264  1.9389 -0.4641
  112MOL0     H15117   3.851   3.018   3.767  0.1680  1.1920 -0.7644
  112MOL0     H15118   3.933   3.202   4.138 -0.8391  1.6916  0.1303
  112MOL0     H15119   3.359   3.524   3.782  0.3509 -0.7015 -0.6651
  112MOL0     H15120   3.135   3.622   3.747 -0.4317  0.0082  2.5846
  113MOL0     O15121   6.251   1.294   4.691  0.0470 -0.5523 -0.4507
  113MOL0     C15122   6.205   1.291   4.805 -0.0553 -0.0864 -0.6538
  113MOL0     O15123   6.082   1.298   4.851  0.7470  0.7821  0.4191
  113MOL0     C15124   5.977   1.301   4.762  0.4377  0.3704 -1.2530
  113MOL0     C15125   5.886   1.406   4.773  0.5708  0.2015  0.0890
  113MOL0     C15126   5.782   1.403   4.692  0.3196 -0.5868  0.5815
  113MOL0     C15127   5.741   1.297   4.618  0.7447 -0.6812 -0.0166
  113MOL0     O15128   5.626   1.303   4.545 -0.8402 -0.0132 -0.9360
  113MOL0     C15129   5.566   1.182   4.493  0.0234 -0.4833 -0.5693
  113MOL0     C15130   5.415   1.192   4.522 -0.4381 -0.3363  0.0366
  113MOL0     C15131   5.344   1.057   4.555 -0.4405  0.0772  0.0091
  113MOL0     C15132   5.192   1.076   4.579  0.3574  0.2354 -0.6860
  113MOL0     C15133   5.139   0.948   4.658  0.2350  0.5738  0.6911
  113MOL0     C15134   4.984   0.963   4.668 -0.7833 -0.0251 -0.4012
  113MOL0     C15135   4.924   0.829   4.716  0.2297  1.1850  0.2112
  113MOL0     C15136   4.963   0.799   4.858 -0.1755  0.5854  0.5171
  113MOL0     N15137   4.884   0.683   4.907 -0.9924  0.2188 -0.2201
  113MOL0     C15138   4.874   0.569   4.843 -0.8210  0.4148 -0.1419
  113MOL0     C15139   4.764   0.504   4.894 -0.8780  1.0755 -0.1875
  113MOL0     C15140   4.714   0.360   4.855 -0.0143 -1.0412  0.0327
  113MOL0     C15141   4.806   0.252   4.909 -0.1719 -0.6706  0.0429
  113MOL0     C15142   4.767   0.111   4.865  1.3403 -0.4001 -0.6477
  113MOL0     C15143   4.892   0.017   4.871  0.7614 -0.7293  0.6264
  113MOL0     O15144   4.984   0.066   4.771 -0.3024  0.1980  0.0822
  113MOL0     C15145   5.110   0.007   4.758  0.2664 -0.4723  0.1368
  113MOL0     C15146   5.142  -0.108   4.828 -0.0790  0.8331  0.9352
  113MOL0     C15147   5.264  -0.178   4.813  0.6350  0.8335  0.4016
  113MOL0     C15148   5.293  -0.304   4.907  0.5387 -0.1329  0.4544
  113MOL0     C15149   5.351  -0.136   4.711  0.5756 -0.5297 -0.9269
  113MOL0     C15150   5.465  -0.216   4.664  0.2311  0.4935  0.0390
  113MOL0     O15151   5.493  -0.194   4.526  0.6840  0.2839  0.0344
  113MOL0     C15152   5.607  -0.247   4.469 -0.1364 -0.6368 -0.1857
  113MOL0     C15153   5.583  -0.324   4.359  1.0210 -0.0442 -0.1335
  113MOL0     C15154   5.688  -0.392   4.306 -0.7480  1.0931 -0.3659
  113MOL0     C15155   5.819  -0.386   4.362 -0.3329 -0.0413  0.9541
  113MOL0     O15156   5.918  -0.446   4.290 -0.3597  0.5742  0.8635
  113MOL0     C15157   6.025  -0.516   4.369  1.2712  0.3245 -0.0483
  113MOL0     C15158   6.073  -0.651   4.301 -0.1490  0.2715  0.3611
  113MOL0     C15159   6.162  -0.729   4.403  0.1699  0.8267  0.0620
  113MOL0     C15160   6.224  -0.851   4.335 -0.4850  0.8508  0.2817
  113MOL0     C15161   6.308  -0.932   4.438 -0.4339  0.5399 -0.5319
  113MOL0     C15162   6.434  -0.856   4.499 -0.1577 -0.8611  0.3046
  113MOL0     C15163   6.511  -0.949   4.599  0.4385  0.7088 -0.4757
  113MOL0     C15164   6.628  -0.870   4.649 -0.4983 -0.2802 -0.0533
  113MOL0    Cl15165   6.759  -0.848   4.529 -0.4207 -0.1742 -0.3958
  113MOL0     C15166   5.839  -0.318   4.484 -0.3935  0.3375 -0.3983
  113MOL0     C15167   5.731  -0.249   4.543 -0.0520 -1.1455  0.1930
  113MOL0     O15168   5.525  -0.298   4.742  0.0541 -0.4195  0.3485
  113MOL0     C15169   5.320  -0.015   4.636  0.7980 -0.3003 -0.7858
  113MOL0     C15170   5.199   0.051   4.656 -0.0437 -0.0532  0.1918
  113MOL0     N15171   4.711   0.580   4.992  0.5894  0.1261 -0.2661
  113MOL0     N15172   4.780   0.695   4.985  0.8601 -0.3992  0.5445
  113MOL0     C15173   5.827   1.184   4.615 -0.8727 -0.1027  0.2022
  113MOL0     C15174   5.951   1.187   4.681 -0.4321  0.0595 -0.3102
  113MOL0     C15175   6.304   1.279   4.918 -0.6389  0.0401  0.0148
  113MOL0     C15176   6.441   1.279   4.887 -1.1039 -0.2689  0.2987
  113MOL0     C15177   6.543   1.276   4.988  0.0324 -0.6869  0.0734
  113MOL0     C15178   6.493   1.264   5.122  0.5040 -0.7071 -0.6864
  113MOL0     O15179   6.587   1.267   5.223  0.0342  0.0584 -0.6953
  113MOL0     C15180   6.651   1.144   5.250  0.0445  0.2698 -0.2730
  113MOL0     C15181   6.807   1.167   5.241  0.4152  0.5155 -0.0318
  113MOL0     C15182   6.882   1.037   5.288 -0.2245 -0.2776 -0.1724
  113MOL0     C15183   6.883   0.936   5.165  0.4031  0.5060 -1.0587
  113MOL0     C15184   6.930   0.810   5.227  0.1009  0.2061 -0.0492
  113MOL0     C15185   6.983   0.706   5.238 -0.6964  0.4982 -0.9492
  113MOL0     C15186   6.357   1.257   5.158  0.0220 -0.3366  0.5808
  113MOL0     C15187   6.268   1.270   5.055  0.9398 -0.7830 -0.2105
  113MOL0     H15188   5.887   1.491   4.840 -1.1365  0.6028 -0.3587
  113MOL0     H15189   5.718   1.490   4.694 -1.5718 -1.8479 -1.1937
  113MOL0     H15190   5.585   1.171   4.386 -1.7807 -2.8564 -0.7281
  113MOL0     H15191   5.605   1.095   4.546 -0.2085 -1.4458 -1.9253
  113MOL0     H15192   5.400   1.253   4.612 -1.2499  1.3277 -1.1695
  113MOL0     H15193   5.359   1.246   4.446  2.5870  1.6829 -0.9434
  113MOL0     H15194   5.369   0.981   4.480  0.5681 -1.3442  1.6848
  113MOL0     H15195   5.400   1.022   4.643  1.2668  1.1786 -0.5965
  113MOL0     H15196   5.172   1.161   4.644  2.4356  4.0685 -4.5919
  113MOL0     H15197   5.138   1.080   4.484 -2.5542 -4.2115  0.4414
  113MOL0     H15198   5.170   0.860   4.601  1.0204  2.0870 -1.3404
  113MOL0     H15199   5.184   0.933   4.756 -0.4865 -0.0704  0.9338
  113MOL0     H15200   4.971   1.050   4.734  0.8919 -1.2828  1.7626
  113MOL0     H15201   4.940   0.985   4.571 -2.4020 -0.4534  0.1965
  113MOL0     H15202   4.816   0.835   4.699  0.2036 -1.6215 -1.2891
  113MOL0     H15203   4.963   0.749   4.652  1.9106  1.8088  0.3901
  113MOL0     H15204   4.950   0.887   4.923 -0.0245  2.5640 -1.9753
  113MOL0     H15205   5.071   0.779   4.855 -0.0688  0.9173  1.5801
  113MOL0     H15206   4.936   0.532   4.762 -0.6186  0.2275  0.0992
  113MOL0     H15207   4.617   0.354   4.905 -0.7015  1.5053 -0.8075
  113MOL0     H15208   4.700   0.347   4.747 -0.2047 -2.3879  0.2002
  113MOL0     H15209   4.817   0.273   5.016  0.5417 -0.4250 -0.0691
  113MOL0     H15210   4.897   0.285   4.859 -0.4677 -0.6446 -0.4773
  113MOL0     H15211   4.720   0.104   4.767 -0.7202 -2.7059  0.4043
  113MOL0     H15212   4.695   0.070   4.936 -0.4417  1.7356 -1.1072
  113MOL0     H15213   4.857  -0.081   4.838  2.7289 -0.8740 -1.2806
  113MOL0     H15214   4.928  -0.000   4.973  0.8353  0.3954  0.8078
  113MOL0     H15215   5.071  -0.145   4.901  0.8015 -0.8534  0.9922
  113MOL0     H15216   5.211  -0.323   4.977  0.5674  2.0230  1.1624
  113MOL0     H15217   5.317  -0.391   4.847  2.8912  2.1326 -2.1760
  113MOL0     H15218   5.379  -0.282   4.970  1.6422  2.6365 -1.8058
  113MOL0     H15219   5.478  -0.332   4.334  0.7539  1.1732  0.5001
  113MOL0     H15220   5.683  -0.465   4.226  0.3090 -0.6321  1.0874
  113MOL0     H15221   6.108  -0.446   4.381  0.4167  0.9203  4.2455
  113MOL0     H15222   5.983  -0.541   4.467  0.9101  3.5794  0.7339
  113MOL0     H15223   5.990  -0.712   4.266  1.2524  0.3740 -3.7288
  113MOL0     H15224   6.115  -0.636   4.201 -1.0571 -3.0447 -0.6364
  113MOL0     H15225   6.102  -0.761   4.489  1.7353  1.6316  1.5107
  113MOL0     H15226   6.237  -0.656   4.436 -1.2595  2.1405  0.5584
  113MOL0     H15227   6.142  -0.916   4.304 -1.3578  1.5891  0.9806
  113MOL0     H15228   6.291  -0.825   4.253 -0.2900 -0.6374 -0.0670
  113MOL0     H15229   6.341  -1.029   4.399 -2.8522 -0.5395 -0.0498
  113MOL0     H15230   6.239  -0.960   4.518  0.0093 -1.9379 -0.9437
  113MOL0     H15231   6.501  -0.817   4.422  2.9575 -0.3230  3.0390
  113MOL0     H15232   6.397  -0.770   4.556  0.3925  0.6790 -1.5399
  113MOL0     H15233   6.536  -1.041   4.546 -2.0351 -0.9648  1.0649
  113MOL0     H15234   6.445  -0.980   4.680 -1.6655 -1.1048 -2.7454
  113MOL0     H15235   6.663  -0.929   4.734 -1.6753  0.7011  1.1534
  113MOL0     H15236   6.597  -0.767   4.668  0.1604  0.6498 -3.3767
  113MOL0     H15237   5.934  -0.317   4.537 -0.3237  1.2020 -0.5166
  113MOL0     H15238   5.740  -0.197   4.637  3.8841 -2.5295  0.7926
  113MOL0     H15239   5.383   0.025   4.557  4.2043  1.5692  2.4988
  113MOL0     H15240   5.166   0.127   4.587 -2.2694 -1.7621 -0.7488
  113MOL0     H15241   5.826   1.092   4.558  2.4797 -1.0564  1.4500
  113MOL0     H15242   6.012   1.099   4.659 -1.2386 -1.2741  2.3675
  113MOL0     H15243   6.477   1.287   4.785 -2.4666  0.1002 -0.1722
  113MOL0     H15244   6.646   1.285   4.955 -0.4129  1.9352 -0.8662
  113MOL0     H15245   6.623   1.104   5.347  0.1486  0.3411 -0.2139
  113MOL0     H15246   6.629   1.069   5.173  1.1646  0.1858 -0.5297
  113MOL0     H15247   6.827   1.243   5.316 -1.1796 -0.5030  1.5198
  113MOL0     H15248   6.838   1.194   5.140  0.9977 -2.0376 -0.6086
  113MOL0     H15249   6.823   1.004   5.374  0.7433  2.3068  1.5987
  113MOL0     H15250   6.979   1.068   5.327 -1.1277  0.3707  1.6481
  113MOL0     H15251   6.952   0.977   5.090 -0.3051 -0.2769 -2.1665
  113MOL0     H15252   6.785   0.925   5.118  0.6572 -0.5343 -1.3791
  113MOL0     H15253   7.032   0.615   5.267  0.5370  1.7434  1.1553
  113MOL0     H15254   6.327   1.244   5.262  0.3365 -1.5525  0.5321
  113MOL0     H15255   6.161   1.275   5.072  1.3892  1.9080  2.6867
  114MOL0     O15256   7.277   5.580   2.432  0.0369  1.0860  0.2303
  114MOL0     C15257   7.206   5.667   2.475 -0.7561  0.3951  0.8912
  114MOL0     O15258   7.254   5.794   2.518  0.1294  0.1968 -0.4952
  114MOL0     C15259   7.387   5.833   2.509  0.3508 -0.4777  0.1642
  114MOL0     C15260   7.417   5.944   2.579  0.3356 -0.5315  0.4414
  114MOL0     C15261   7.540   6.006   2.584 -0.0821  0.3245  0.2769
  114MOL0     C15262   7.647   5.946   2.523  0.1171 -0.2499  0.6679
  114MOL0     O15263   7.767   6.012   2.526  0.0345 -0.4225  0.3018
  114MOL0     C15264   7.884   5.958   2.454 -0.6179  0.5003 -0.5014
  114MOL0     C15265   8.020   6.011   2.492 -0.0536  0.1664  0.1601
  114MOL0     C15266   7.999   6.147   2.559  0.0221  0.2506  0.1687
  114MOL0     C15267   8.139   6.193   2.602 -0.5011  0.2362  0.6043
  114MOL0     C15268   8.121   6.279   2.729  0.0091 -1.8574 -0.3353
  114MOL0     C15269   8.250   6.331   2.800 -0.3116 -0.7643 -0.3390
  114MOL0     C15270   8.212   6.449   2.890  0.6068 -0.0166  0.8016
  114MOL0     C15271   8.313   6.493   2.992  0.4795  0.6978 -1.1361
  114MOL0     N15272   8.336   6.372   3.078 -0.2283 -0.7564 -0.0232
  114MOL0     C15273   8.247   6.311   3.165 -0.8440  0.7792 -0.4039
  114MOL0     C15274   8.309   6.208   3.223 -1.2057 -0.4503 -0.0916
  114MOL0     C15275   8.268   6.113   3.325 -0.6403  0.3223 -0.2546
  114MOL0     C15276   8.227   6.178   3.452  0.5334  0.1818 -0.6377
  114MOL0     C15277   8.329   6.160   3.569  0.1202 -0.2069  0.8978
  114MOL0     C15278   8.451   6.253   3.544 -0.2723  0.2885  0.1719
  114MOL0     O15279   8.408   6.384   3.538  0.2512  0.3445 -0.2659
  114MOL0     C15280   8.504   6.476   3.521 -0.0013  0.6474 -0.7960
  114MOL0     C15281   8.570   6.485   3.401 -0.7287  0.4103 -0.4288
  114MOL0     C15282   8.662   6.588   3.376 -0.1395  0.0376  0.4232
  114MOL0     C15283   8.721   6.583   3.238 -0.5967 -0.0785  0.0700
  114MOL0     C15284   8.701   6.679   3.477 -0.1231  0.1354  0.3409
  114MOL0     C15285   8.800   6.788   3.464  0.1226 -0.6737 -0.0056
  114MOL0     O15286   8.796   6.880   3.559  0.6591 -0.3774  0.2474
  114MOL0     C15287   8.854   7.005   3.535  0.6170  1.2768 -0.1950
  114MOL0     C15288   8.781   7.111   3.472  0.1382 -0.5869 -0.2682
  114MOL0     C15289   8.846   7.228   3.433 -0.2985  0.6031 -0.5501
  114MOL0     C15290   8.983   7.246   3.452  0.2467  0.1194  0.1076
  114MOL0     O15291   9.062   7.346   3.402  0.2264 -0.8564 -0.1970
  114MOL0     C15292   9.000   7.466   3.349  0.7152  0.1947  0.0474
  114MOL0     C15293   9.102   7.549   3.275 -0.1364 -0.9115 -0.2051
  114MOL0     C15294   9.145   7.466   3.149  0.3475 -0.1023  0.9456
  114MOL0     C15295   9.220   7.554   3.056 -0.0660 -0.3420  0.5167
  114MOL0     C15296   9.255   7.483   2.918 -0.4988  0.0184 -0.3753
  114MOL0     C15297   9.412   7.461   2.907  0.1367  0.2249  0.3217
  114MOL0     C15298   9.440   7.377   2.786 -0.8035  0.2559 -0.0272
  114MOL0     C15299   9.589   7.384   2.740  0.0592  0.9474 -0.3243
  114MOL0    Cl15300   9.697   7.335   2.871 -0.1156  0.4508  0.3191
  114MOL0     C15301   9.052   7.143   3.514 -0.5045 -0.4316  0.7789
  114MOL0     C15302   8.988   7.023   3.557  0.4125 -0.2499 -0.3033
  114MOL0     O15303   8.875   6.796   3.368 -0.4056  0.2515  0.0432
  114MOL0     C15304   8.637   6.660   3.602  0.0435  0.5507 -0.1735
  114MOL0     C15305   8.536   6.570   3.620  0.1956 -0.0192  0.0932
  114MOL0     N15306   8.445   6.200   3.168  0.3787 -0.0924 -1.0076
  114MOL0     N15307   8.449   6.291   3.077  0.8538 -0.6493 -0.6980
  114MOL0     C15308   7.626   5.828   2.454 -0.1026  0.6494  0.4556
  114MOL0     C15309   7.499   5.772   2.444 -0.1188  0.2856 -0.7145
  114MOL0     C15310   7.063   5.647   2.480  0.0309 -1.1297  0.0662
  114MOL0     C15311   7.009   5.517   2.483  0.1155 -2.0160  0.9911
  114MOL0     C15312   6.867   5.499   2.488  0.0933  0.8147  0.0060
  114MOL0     C15313   6.788   5.608   2.520 -0.1596 -0.0589  0.2447
  114MOL0     O15314   6.657   5.579   2.556 -0.0896  0.0095 -0.2401
  114MOL0     C15315   6.562   5.691   2.571 -1.3179  0.6006 -0.6013
  114MOL0     C15316   6.436   5.619   2.535 -0.1040 -0.0315  0.2595
  114MOL0     C15317   6.374   5.555   2.659 -0.7136 -0.3074  0.6505
  114MOL0     C15318   6.277   5.440   2.631  0.0732 -0.7972 -0.6122
  114MOL0     C15319   6.220   5.392   2.756 -0.1344 -0.0476 -0.1455
  114MOL0     C15320   6.186   5.354   2.861  0.3333 -1.0381 -0.1613
  114MOL0     C15321   6.839   5.739   2.522 -0.1707  0.3671  0.3464
  114MOL0     C15322   6.972   5.758   2.500 -0.4142  0.4406  0.2918
  114MOL0     H15323   7.336   5.994   2.632  0.1563 -0.6354  0.2684
  114MOL0     H15324   7.542   6.106   2.627 -0.8692  1.1309 -1.4668
  114MOL0     H15325   7.891   5.850   2.466 -0.9835  0.5195 -0.0888
  114MOL0     H15326   7.868   5.978   2.348  1.4594 -1.2458 -1.2221
  114MOL0     H15327   8.075   5.936   2.550  1.7590 -1.8804 -3.8246
  114MOL0     H15328   8.072   6.031   2.398  0.4296 -0.6408  0.2417
  114MOL0     H15329   7.944   6.220   2.499 -0.8169 -0.1769  0.4094
  114MOL0     H15330   7.942   6.130   2.651 -2.4282 -2.0433 -1.6271
  114MOL0     H15331   8.213   6.113   2.613 -1.3713 -1.3249 -3.3419
  114MOL0     H15332   8.174   6.263   2.525  0.5029  1.8844  2.4685
  114MOL0     H15333   8.061   6.365   2.698  0.3952 -1.8363 -1.0388
  114MOL0     H15334   8.068   6.222   2.806  2.9327 -2.4304  1.3769
  114MOL0     H15335   8.278   6.246   2.864 -0.6304  1.6534  3.2999
  114MOL0     H15336   8.327   6.363   2.730  0.1312  0.9981  0.9001
  114MOL0     H15337   8.181   6.535   2.830 -0.7729  0.4934  2.1627
  114MOL0     H15338   8.122   6.409   2.938  0.6978  0.6191  1.5295
  114MOL0     H15339   8.272   6.580   3.044 -0.1118 -0.4961  0.4924
  114MOL0     H15340   8.405   6.518   2.938  1.2638  1.3867  0.4762
  114MOL0     H15341   8.143   6.331   3.191 -1.1015 -1.6019  0.6250
  114MOL0     H15342   8.182   6.058   3.286  1.4624 -2.2699 -1.4683
  114MOL0     H15343   8.343   6.035   3.335 -1.3864 -1.3473 -5.1519
  114MOL0     H15344   8.132   6.145   3.495  0.4814  1.3103  0.1754
  114MOL0     H15345   8.211   6.285   3.434 -0.8456 -0.0392 -0.8559
  114MOL0     H15346   8.355   6.054   3.571  0.0029 -0.2193  2.3002
  114MOL0     H15347   8.283   6.187   3.664 -1.1452 -0.6087  0.4256
  114MOL0     H15348   8.495   6.237   3.446 -0.2475  1.5376 -0.0423
  114MOL0     H15349   8.528   6.244   3.621 -0.6506 -1.5904  0.3811
  114MOL0     H15350   8.555   6.416   3.318  2.4810  1.2849 -1.8875
  114MOL0     H15351   8.829   6.597   3.246 -0.5505 -0.6433  0.4506
  114MOL0     H15352   8.689   6.494   3.184  0.1729 -0.0646 -0.4179
  114MOL0     H15353   8.677   6.665   3.180 -0.8215  3.7300  4.9476
  114MOL0     H15354   8.681   7.096   3.435 -1.2681 -0.1934  3.0479
  114MOL0     H15355   8.790   7.295   3.368 -1.2873 -0.6662 -1.0427
  114MOL0     H15356   8.925   7.438   3.275  1.4762 -2.5919  0.2072
  114MOL0     H15357   8.952   7.525   3.428 -3.0518 -1.1021 -1.0627
  114MOL0     H15358   9.063   7.650   3.262 -0.0632 -0.9250 -0.5313
  114MOL0     H15359   9.194   7.562   3.333 -2.9227 -0.2840  4.6741
  114MOL0     H15360   9.057   7.420   3.103  0.7148  1.1718 -1.1571
  114MOL0     H15361   9.212   7.383   3.174  1.1397 -0.2646 -1.4462
  114MOL0     H15362   9.173   7.652   3.050 -2.1469 -1.2487  1.1272
  114MOL0     H15363   9.313   7.568   3.112 -0.0362 -0.4130  0.4862
  114MOL0     H15364   9.217   7.537   2.832 -2.1657 -0.6939 -0.1145
  114MOL0     H15365   9.198   7.391   2.903 -0.6261 -0.2381  1.4770
  114MOL0     H15366   9.469   7.553   2.909  1.4569 -0.4317 -2.5765
  114MOL0     H15367   9.448   7.402   2.992 -1.2753  3.2729  3.2959
  114MOL0     H15368   9.372   7.401   2.704 -0.8513  1.7741  0.4195
  114MOL0     H15369   9.425   7.272   2.813  2.5641 -0.1154  0.8375
  114MOL0     H15370   9.607   7.488   2.711 -1.0923  1.5737  1.0627
  114MOL0     H15371   9.605   7.312   2.660 -1.0154 -0.5579  0.7578
  114MOL0     H15372   9.158   7.159   3.529 -0.5543  2.2399 -1.1470
  114MOL0     H15373   9.043   6.940   3.601 -0.4989  1.0839  3.7108
  114MOL0     H15374   8.664   6.734   3.676 -1.1702  0.4670  0.3842
  114MOL0     H15375   8.487   6.582   3.716 -0.6699 -0.8676 -0.2319
  114MOL0     H15376   7.711   5.776   2.411  0.3437  0.6631  1.3095
  114MOL0     H15377   7.485   5.686   2.379 -3.0734 -0.0630  0.2276
  114MOL0     H15378   7.065   5.425   2.470  0.9388 -1.1219 -3.7921
  114MOL0     H15379   6.828   5.399   2.472 -1.5826  1.3525  0.5984
  114MOL0     H15380   6.564   5.739   2.670  1.6122  0.8659 -0.6745
  114MOL0     H15381   6.571   5.774   2.501 -2.0885  0.5448 -0.7684
  114MOL0     H15382   6.449   5.541   2.459 -1.6906  0.0655 -0.1347
  114MOL0     H15383   6.359   5.689   2.502  0.3140  0.1669 -0.3053
  114MOL0     H15384   6.320   5.635   2.709  1.5701  0.2113  2.4716
  114MOL0     H15385   6.454   5.518   2.724 -0.1445 -0.6937 -0.2454
  114MOL0     H15386   6.328   5.357   2.582 -1.0740 -1.5190 -0.6185
  114MOL0     H15387   6.189   5.477   2.576  0.9357  0.9540 -0.9033
  114MOL0     H15388   6.147   5.314   2.953 -3.5728 -0.0378 -1.1919
  114MOL0     H15389   6.771   5.823   2.536  1.0824  1.1606  1.9361
  114MOL0     H15390   7.008   5.861   2.496 -0.8025  0.5459 -0.7928
  115MOL0     O15391   8.650   8.309   3.504  0.2973  0.4247 -0.3952
  115MOL0     C15392   8.644   8.222   3.589  0.3046  0.2546 -0.5514
  115MOL0     O15393   8.538   8.206   3.669 -0.4758 -0.2579 -0.4019
  115MOL0     C15394   8.417   8.276   3.674  0.3602  0.0598 -0.1893
  115MOL0     C15395   8.354   8.325   3.560 -0.2638  1.4549 -0.2297
  115MOL0     C15396   8.241   8.402   3.571  0.0273  0.4362  0.5865
  115MOL0     C15397   8.182   8.419   3.695 -0.5776  0.2042  0.1179
  115MOL0     O15398   8.070   8.494   3.706  0.3386 -0.5634  0.1142
  115MOL0     C15399   8.042   8.580   3.817 -0.0791 -0.4421 -0.2232
  115MOL0     C15400   7.969   8.703   3.771 -0.5951 -0.1487 -0.0554
  115MOL0     C15401   7.821   8.679   3.744 -0.5024  0.9885 -0.1223
  115MOL0     C15402   7.767   8.774   3.645  0.0054  0.2952  0.0841
  115MOL0     C15403   7.624   8.735   3.614 -0.3542 -0.1374  0.3062
  115MOL0     C15404   7.570   8.815   3.505  0.9906 -0.6386  0.4531
  115MOL0     C15405   7.422   8.787   3.479 -0.8824  0.0514 -0.9927
  115MOL0     C15406   7.351   8.882   3.376 -0.2598  0.1565 -0.3870
  115MOL0     N15407   7.212   8.846   3.348  0.4802  0.3533  0.2714
  115MOL0     C15408   7.105   8.909   3.395  0.0070 -0.5620  0.3523
  115MOL0     C15409   7.001   8.848   3.333 -0.2955  0.0110 -0.0580
  115MOL0     C15410   6.855   8.880   3.355 -0.3621  0.3883 -0.1815
  115MOL0     C15411   6.747   8.775   3.345  0.7757 -0.5484 -0.2534
  115MOL0     C15412   6.614   8.840   3.374  0.1056 -0.3309  0.6071
  115MOL0     C15413   6.498   8.738   3.382  0.0826  0.5104  1.0455
  115MOL0     O15414   6.517   8.660   3.505  0.4765 -0.0080  0.1603
  115MOL0     C15415   6.420   8.579   3.555  1.0054 -0.4250  0.6374
  115MOL0     C15416   6.432   8.519   3.674 -1.0342  0.0017  0.3285
  115MOL0     C15417   6.330   8.446   3.729 -0.1837 -0.2811  0.2133
  115MOL0     C15418   6.370   8.399   3.871  0.0660 -1.1916  0.6048
  115MOL0     C15419   6.205   8.433   3.665  0.2240 -0.3066 -0.6358
  115MOL0     C15420   6.085   8.380   3.723  0.3168  0.0674  0.4042
  115MOL0     O15421   5.969   8.402   3.645 -0.1268 -0.3064  0.3850
  115MOL0     C15422   5.855   8.344   3.692  0.0778  0.2213 -1.2017
  115MOL0     C15423   5.807   8.220   3.648  0.5976  0.0600 -0.4180
  115MOL0     C15424   5.691   8.162   3.688  0.2047  0.3181  0.2294
  115MOL0     C15425   5.606   8.230   3.780 -0.8829  0.4373  0.0722
  115MOL0     O15426   5.492   8.179   3.835  0.3441  0.2524  0.9565
  115MOL0     C15427   5.410   8.097   3.745  0.0321 -0.1163  0.1434
  115MOL0     C15428   5.356   8.193   3.646  0.5163 -0.0534 -0.7822
  115MOL0     C15429   5.229   8.140   3.575  0.2000 -0.3895 -0.0606
  115MOL0     C15430   5.144   8.240   3.495 -0.4729  0.3930 -0.4820
  115MOL0     C15431   5.046   8.149   3.419  0.5019 -0.9229 -0.2732
  115MOL0     C15432   4.960   8.254   3.340 -0.1465 -0.5162 -0.0955
  115MOL0     C15433   4.840   8.202   3.275  0.2251  0.0125 -0.1601
  115MOL0     C15434   4.862   8.143   3.139 -0.2441 -0.3400  0.6270
  115MOL0    Cl15435   4.909   8.261   3.013 -0.1921 -0.0837  0.5147
  115MOL0     C15436   5.649   8.357   3.824  1.2395 -0.4897 -0.8289
  115MOL0     C15437   5.772   8.406   3.777  0.4818  0.1534 -0.1351
  115MOL0     O15438   6.085   8.327   3.833 -0.7160 -0.3265  0.3701
  115MOL0     C15439   6.203   8.484   3.531  0.4643 -0.3758 -0.8763
  115MOL0     C15440   6.303   8.556   3.475 -0.1283  0.7594  0.2903
  115MOL0     N15441   7.045   8.755   3.236  0.5027  0.3558 -0.1358
  115MOL0     N15442   7.181   8.761   3.245  0.8896  0.1817  0.4787
  115MOL0     C15443   8.232   8.354   3.808  0.7209  0.1611 -0.1295
  115MOL0     C15444   8.351   8.281   3.793  0.2044  0.1579  0.4784
  115MOL0     C15445   8.756   8.127   3.596  0.3426  0.8403  0.4749
  115MOL0     C15446   8.842   8.106   3.486 -0.0536 -0.6624  0.3767
  115MOL0     C15447   8.937   8.006   3.493  0.0272 -0.2553 -0.3173
  115MOL0     C15448   8.946   7.934   3.611 -0.1551  0.5281  0.0641
  115MOL0     O15449   9.037   7.836   3.627 -0.5107  0.1417  0.8984
  115MOL0     C15450   9.170   7.885   3.671  0.3773  1.0350  0.5992
  115MOL0     C15451   9.199   7.824   3.809  0.4274 -0.2994  0.1320
  115MOL0     C15452   9.120   7.914   3.914 -0.0533 -0.1207  0.2321
  115MOL0     C15453   9.195   7.924   4.046 -0.3130 -0.2358 -0.7047
  115MOL0     C15454   9.289   8.037   4.045  0.0684 -1.1295 -0.5405
  115MOL0     C15455   9.374   8.131   4.044 -0.6081  0.2297  0.0164
  115MOL0     C15456   8.857   7.950   3.713  1.0089 -0.2125 -1.0062
  115MOL0     C15457   8.766   8.051   3.706 -0.6733  0.1018 -0.2325
  115MOL0     H15458   8.397   8.305   3.463 -2.4530 -3.4226 -0.4623
  115MOL0     H15459   8.197   8.453   3.486 -4.4442 -0.0051  2.3273
  115MOL0     H15460   7.973   8.528   3.885 -2.0011  1.0065 -0.9893
  115MOL0     H15461   8.130   8.611   3.874 -1.8935 -0.0086  2.5029
  115MOL0     H15462   7.981   8.792   3.834  2.3916  1.2470 -2.3245
  115MOL0     H15463   8.018   8.733   3.677  2.0741 -0.3048  1.2101
  115MOL0     H15464   7.815   8.573   3.719  2.8633  0.5847  0.3471
  115MOL0     H15465   7.764   8.701   3.835 -0.5792  2.7890 -0.5542
  115MOL0     H15466   7.782   8.872   3.692  0.0314  1.3629 -2.0414
  115MOL0     H15467   7.830   8.761   3.557  0.7394 -1.9122  0.8610
  115MOL0     H15468   7.629   8.635   3.569 -1.7766  0.4194 -1.1997
  115MOL0     H15469   7.561   8.732   3.704  1.4021  0.1951  1.5844
  115MOL0     H15470   7.565   8.921   3.529 -3.7154 -0.3865 -0.7455
  115MOL0     H15471   7.626   8.797   3.413 -1.2341 -1.3260 -0.8351
  115MOL0     H15472   7.412   8.680   3.459 -1.5394  0.1189 -1.0764
  115MOL0     H15473   7.374   8.799   3.577 -1.0179 -3.9070 -0.4351
  115MOL0     H15474   7.415   8.868   3.288 -0.3253 -1.4701 -0.2118
  115MOL0     H15475   7.351   8.982   3.419  0.6986 -0.5883  1.4481
  115MOL0     H15476   7.104   8.979   3.478 -2.1954  0.3598 -0.3793
  115MOL0     H15477   6.839   8.917   3.457  0.2407 -4.9708  2.1733
  115MOL0     H15478   6.848   8.960   3.280 -0.4476  0.6486  0.1008
  115MOL0     H15479   6.768   8.709   3.430 -1.9749 -1.2054  0.0372
  115MOL0     H15480   6.744   8.719   3.251 -1.1910 -0.1311 -0.4869
  115MOL0     H15481   6.586   8.915   3.299  1.7996 -0.7482 -0.4928
  115MOL0     H15482   6.614   8.900   3.465  0.9043  0.3252  0.1897
  115MOL0     H15483   6.499   8.675   3.293 -0.1089  0.6854  0.9183
  115MOL0     H15484   6.400   8.788   3.385 -2.2504 -3.5233 -0.6343
  115MOL0     H15485   6.526   8.538   3.724 -0.6818 -1.2065  0.1546
  115MOL0     H15486   6.317   8.461   3.945  1.2289  0.0055  0.4815
  115MOL0     H15487   6.326   8.300   3.879 -0.9939 -0.6000  3.3691
  115MOL0     H15488   6.477   8.400   3.894  0.2949  0.5143 -0.3464
  115MOL0     H15489   5.867   8.153   3.587 -3.1618 -3.1060 -0.9893
  115MOL0     H15490   5.659   8.066   3.649 -0.5310  0.6626 -0.0401
  115MOL0     H15491   5.465   8.009   3.713 -1.8945 -0.0011 -4.2878
  115MOL0     H15492   5.325   8.063   3.805  0.6534  1.0318  1.7638
  115MOL0     H15493   5.321   8.274   3.710 -2.2445 -1.7515  0.0270
  115MOL0     H15494   5.431   8.234   3.577 -0.6202 -1.0166 -2.6771
  115MOL0     H15495   5.170   8.105   3.659  1.3965  1.0688  1.4503
  115MOL0     H15496   5.263   8.061   3.507  2.9028  0.5573  0.0709
  115MOL0     H15497   5.087   8.309   3.558  0.1901  0.0044  0.5657
  115MOL0     H15498   5.191   8.300   3.416 -1.3683  2.1109  0.2443
  115MOL0     H15499   4.995   8.085   3.491 -2.5056  0.9703 -0.5413
  115MOL0     H15500   5.096   8.084   3.347  0.2353 -1.3782 -0.0499
  115MOL0     H15501   4.928   8.330   3.411  0.2021 -1.9022  1.6121
  115MOL0     H15502   5.022   8.307   3.268 -1.7202  0.9961 -0.4235
  115MOL0     H15503   4.760   8.277   3.273  0.6989  0.5637  0.7838
  115MOL0     H15504   4.804   8.113   3.327 -0.2368 -1.0934 -2.2830
  115MOL0     H15505   4.759   8.125   3.107 -0.8886 -0.7343  2.7429
  115MOL0     H15506   4.934   8.061   3.135 -1.3352 -1.6172  3.6564
  115MOL0     H15507   5.600   8.412   3.904 -0.4698 -2.7754 -0.1844
  115MOL0     H15508   5.789   8.507   3.814  1.0752 -0.6348  1.8717
  115MOL0     H15509   6.111   8.480   3.475  0.3032 -2.1287 -0.5420
  115MOL0     H15510   6.286   8.596   3.375  0.9601 -0.7110 -0.5363
  115MOL0     H15511   8.189   8.357   3.908  3.2205  2.3866  1.0259
  115MOL0     H15512   8.384   8.231   3.883 -1.6842 -1.7143  0.1974
  115MOL0     H15513   8.845   8.163   3.393 -1.4992 -0.3472  0.4868
  115MOL0     H15514   9.004   7.986   3.410 -2.6005 -0.8260 -2.4616
  115MOL0     H15515   9.240   7.841   3.599 -2.4370 -0.7543 -1.2546
  115MOL0     H15516   9.173   7.994   3.663 -0.5811  1.1296  1.4357
  115MOL0     H15517   9.307   7.826   3.826  0.7389  0.6223 -1.6835
  115MOL0     H15518   9.168   7.719   3.812  1.1811 -0.6265 -1.7536
  115MOL0     H15519   9.022   7.867   3.929 -0.5712  0.4989 -1.0577
  115MOL0     H15520   9.104   8.018   3.882  2.3680  1.2521  3.0426
  115MOL0     H15521   9.247   7.828   4.056 -0.7442 -0.4418 -0.3882
  115MOL0     H15522   9.132   7.943   4.133  2.1011 -1.4610  1.4426
  115MOL0     H15523   9.442   8.213   4.042  1.5748 -1.4605  0.6177
  115MOL0     H15524   8.864   7.891   3.804  0.3760 -1.2502 -1.6072
  115MOL0     H15525   8.706   8.073   3.794 -0.1319  2.7775 -0.4416
  116MOL0     O15526   7.491   7.284   1.214  0.2771  0.0059  0.5143
  116MOL0     C15527   7.578   7.360   1.174 -0.3743 -0.1976 -0.0635
  116MOL0     O15528   7.564   7.462   1.083 -0.0525 -0.2023  0.6992
  116MOL0     C15529   7.436   7.477   1.027  0.2401  0.2379 -0.6104
  116MOL0     C15530   7.371   7.597   1.057  0.3663 -0.3550 -0.0545
  116MOL0     C15531   7.241   7.619   1.009  0.7307 -0.1134 -0.1870
  116MOL0     C15532   7.178   7.534   0.927 -0.1886  0.2628 -0.0152
  116MOL0     O15533   7.052   7.568   0.872 -0.3467  0.3013 -0.3267
  116MOL0     C15534   6.968   7.470   0.798  0.2794  0.2643 -0.0057
  116MOL0     C15535   6.863   7.403   0.886 -0.5649 -0.8805  0.5001
  116MOL0     C15536   6.810   7.282   0.826 -0.0138  0.0938  1.1614
  116MOL0     C15537   6.684   7.242   0.897 -0.4660 -0.1041  0.1471
  116MOL0     C15538   6.632   7.102   0.872 -0.2386 -0.1970  0.5555
  116MOL0     C15539   6.506   7.095   0.959  0.8832  0.5670  0.7405
  116MOL0     C15540   6.442   6.951   0.961 -0.7765 -0.9252 -0.3407
  116MOL0     C15541   6.404   6.897   0.820  0.2247  0.3827 -0.5369
  116MOL0     N15542   6.355   6.764   0.830 -1.1248  0.4514  0.5067
  116MOL0     C15543   6.439   6.654   0.845 -0.1218  0.1524 -0.0295
  116MOL0     C15544   6.353   6.552   0.842  0.8878 -0.3614  0.4653
  116MOL0     C15545   6.388   6.407   0.879  0.1842 -1.2777 -0.5094
  116MOL0     C15546   6.300   6.320   0.800  0.5897  0.3437 -0.3167
  116MOL0     C15547   6.333   6.171   0.821 -0.0752  0.9113  0.2384
  116MOL0     C15548   6.217   6.072   0.800  0.3523  0.7053 -0.2724
  116MOL0     O15549   6.191   6.043   0.660  0.1967  0.7450 -0.0064
  116MOL0     C15550   6.073   6.095   0.615 -1.0960  0.1844 -0.4511
  116MOL0     C15551   6.080   6.194   0.519  0.1514 -0.0226 -0.0992
  116MOL0     C15552   5.973   6.270   0.474 -0.9224  0.9673  0.2672
  116MOL0     C15553   6.005   6.377   0.370  0.0705  0.0370 -0.2200
  116MOL0     C15554   5.842   6.229   0.526 -0.1156  0.5466 -0.5078
  116MOL0     C15555   5.715   6.291   0.472  0.4882  0.3060  0.1309
  116MOL0     O15556   5.602   6.266   0.547 -0.4445 -0.4708 -0.3642
  116MOL0     C15557   5.477   6.276   0.483 -0.7033 -0.0264  0.0553
  116MOL0     C15558   5.410   6.399   0.476  0.0619  1.2940  0.0685
  116MOL0     C15559   5.290   6.414   0.396  0.5220  0.8961  0.0000
  116MOL0     C15560   5.239   6.297   0.336  0.2202 -0.7122  0.4538
  116MOL0     O15561   5.115   6.320   0.275 -0.2634  0.0831 -0.2773
  116MOL0     C15562   5.063   6.225   0.186  1.3465  0.6319  0.5819
  116MOL0     C15563   4.941   6.284   0.107 -0.1867 -0.0803  0.0360
  116MOL0     C15564   4.818   6.299   0.205  0.4190  0.1637 -0.9629
  116MOL0     C15565   4.737   6.176   0.227 -0.0550 -0.0045  0.7596
  116MOL0     C15566   4.604   6.216   0.294 -0.4097 -0.3392 -0.1368
  116MOL0     C15567   4.512   6.086   0.318  0.6331  1.3427  0.4859
  116MOL0     C15568   4.380   6.106   0.397  0.5739  0.6829 -0.3161
  116MOL0     C15569   4.405   6.111   0.545 -0.9741 -0.3769  0.3166
  116MOL0    Cl15570   4.489   6.267   0.589  0.0194 -0.6902 -0.0520
  116MOL0     C15571   5.300   6.177   0.354  0.2408  0.6985  0.5751
  116MOL0     C15572   5.424   6.164   0.423  0.1637  0.1705 -0.1732
  116MOL0     O15573   5.724   6.358   0.363  0.2847  0.5806  0.3869
  116MOL0     C15574   5.838   6.122   0.626 -0.3831  0.2717 -0.6464
  116MOL0     C15575   5.955   6.050   0.668 -0.3087  0.5605 -0.1600
  116MOL0     N15576   6.224   6.598   0.805 -0.8471  0.4807  1.3315
  116MOL0     N15577   6.225   6.728   0.800  0.2005 -0.3464  0.0402
  116MOL0     C15578   7.241   7.414   0.898 -0.9750  1.3234 -0.7777
  116MOL0     C15579   7.372   7.385   0.945  0.4622  0.2808 -0.0413
  116MOL0     C15580   7.710   7.322   1.225 -1.0995 -0.3637  0.1317
  116MOL0     C15581   7.824   7.396   1.179  0.0831  0.1403 -0.2151
  116MOL0     C15582   7.953   7.347   1.220  0.1550 -0.2833  0.3847
  116MOL0     C15583   7.966   7.241   1.308  0.3477  0.0095 -0.1316
  116MOL0     O15584   8.081   7.180   1.332 -0.4379  0.3638  0.3794
  116MOL0     C15585   8.165   7.161   1.220 -0.6828 -0.4839  0.0164
  116MOL0     C15586   8.276   7.059   1.246 -0.1696  0.6672 -0.0346
  116MOL0     C15587   8.227   6.912   1.256 -0.4220 -0.4847 -0.2428
  116MOL0     C15588   8.241   6.824   1.128  0.0920  0.7266  0.7680
  116MOL0     C15589   8.185   6.891   1.013 -0.0521  0.0311 -0.2088
  116MOL0     C15590   8.125   6.941   0.920 -0.0224 -0.6981  0.5483
  116MOL0     C15591   7.852   7.172   1.355 -0.3344  0.2743  0.6755
  116MOL0     C15592   7.724   7.224   1.316 -1.0307 -0.2499 -0.5545
  116MOL0     H15593   7.424   7.676   1.109  1.2809 -1.2995  0.4607
  116MOL0     H15594   7.199   7.716   1.031  1.0537  0.1307 -0.6316
  116MOL0     H15595   6.911   7.533   0.730  1.4754  2.4846  0.9332
  116MOL0     H15596   7.027   7.398   0.740 -1.0617 -0.8622 -0.0071
  116MOL0     H15597   6.899   7.358   0.979 -3.2340 -1.6569  1.2521
  116MOL0     H15598   6.790   7.481   0.910  0.7072 -0.6086  4.0438
  116MOL0     H15599   6.791   7.303   0.720 -2.9918 -1.1549  1.3315
  116MOL0     H15600   6.886   7.205   0.839 -1.4011 -1.6701 -0.5843
  116MOL0     H15601   6.703   7.245   1.005  2.5321 -0.2936 -0.2932
  116MOL0     H15602   6.600   7.305   0.866  1.1061  0.9957 -2.1163
  116MOL0     H15603   6.613   7.091   0.765 -1.7647  0.0594  0.7707
  116MOL0     H15604   6.703   7.025   0.904 -0.8408 -1.4281 -0.9662
  116MOL0     H15605   6.530   7.123   1.063  1.0864  0.4826  0.7169
  116MOL0     H15606   6.433   7.167   0.922  1.1149 -1.2635 -3.9399
  116MOL0     H15607   6.516   6.884   1.006 -1.5352 -1.0653  0.7437
  116MOL0     H15608   6.360   6.962   1.033  0.8774 -0.9205  1.6300
  116MOL0     H15609   6.487   6.906   0.750  0.8121 -0.3346  0.0559
  116MOL0     H15610   6.317   6.959   0.796 -0.1339  2.1159  4.1931
  116MOL0     H15611   6.543   6.653   0.874 -0.5976 -1.4523  1.8398
  116MOL0     H15612   6.495   6.393   0.866  1.0256  1.9766  1.5276
  116MOL0     H15613   6.371   6.402   0.987  1.9577  0.4949 -0.0870
  116MOL0     H15614   6.313   6.347   0.694  0.9516 -2.2342 -1.0210
  116MOL0     H15615   6.196   6.344   0.823  0.7777  2.8418 -1.6826
  116MOL0     H15616   6.379   6.154   0.919  0.2007  1.6870  0.2503
  116MOL0     H15617   6.415   6.151   0.750  0.0012  0.2507  0.5031
  116MOL0     H15618   6.129   6.114   0.849 -0.9260  1.4320 -3.0032
  116MOL0     H15619   6.249   5.977   0.845  1.0493 -0.9771 -3.8981
  116MOL0     H15620   6.177   6.227   0.481 -0.6229  0.5071 -1.7266
  116MOL0     H15621   5.970   6.472   0.409  1.3234 -0.2588  1.7501
  116MOL0     H15622   6.112   6.381   0.345 -0.1434 -2.5271 -2.0054
  116MOL0     H15623   5.957   6.362   0.273  0.1248 -1.4553 -0.0412
  116MOL0     H15624   5.455   6.483   0.527  0.8448  1.5268 -0.9515
  116MOL0     H15625   5.240   6.510   0.395 -0.7915  0.2351 -0.6909
  116MOL0     H15626   5.137   6.194   0.112  0.3374  0.6136 -0.4419
  116MOL0     H15627   5.025   6.135   0.235  2.4872 -0.2981 -0.1842
  116MOL0     H15628   4.956   6.381   0.057  0.3902  0.1217  0.5915
  116MOL0     H15629   4.916   6.219   0.023  2.2884 -0.9090 -0.1353
  116MOL0     H15630   4.746   6.364   0.155 -1.4600 -2.1883 -1.4537
  116MOL0     H15631   4.840   6.353   0.298  0.8543 -1.9361  0.2095
  116MOL0     H15632   4.706   6.144   0.127 -0.0828  1.8602  0.1250
  116MOL0     H15633   4.783   6.098   0.288 -0.3061  0.6203  1.7746
  116MOL0     H15634   4.538   6.288   0.244 -2.6906 -1.9584  0.3894
  116MOL0     H15635   4.625   6.260   0.392 -2.2954  0.6752 -0.1409
  116MOL0     H15636   4.479   6.064   0.216  1.8895 -0.6863  0.4842
  116MOL0     H15637   4.571   6.004   0.358  0.2701 -0.7894 -2.9515
  116MOL0     H15638   4.313   6.022   0.376 -1.3116  1.3575  2.4846
  116MOL0     H15639   4.334   6.201   0.367  1.1639  1.6208  1.6420
  116MOL0     H15640   4.467   6.027   0.575  0.7360  1.6918  3.0528
  116MOL0     H15641   4.315   6.100   0.606  0.2628 -0.0424  2.2899
  116MOL0     H15642   5.254   6.083   0.326  0.4898  0.1681  1.8653
  116MOL0     H15643   5.470   6.066   0.418  0.8928  0.4501  0.8463
  116MOL0     H15644   5.741   6.096   0.669 -1.0108 -1.4817 -2.9000
  116MOL0     H15645   5.952   5.979   0.750 -0.4917 -1.0912 -1.5271
  116MOL0     H15646   7.201   7.336   0.834  1.8505 -1.2283  0.3280
  116MOL0     H15647   7.422   7.297   0.906  1.5939  0.1451  1.6250
  116MOL0     H15648   7.825   7.486   1.118  0.1737 -0.6517 -1.4064
  116MOL0     H15649   8.042   7.401   1.188  1.4228 -0.5769  3.0762
  116MOL0     H15650   8.113   7.140   1.126 -1.6848 -1.1639  0.7157
  116MOL0     H15651   8.215   7.256   1.196 -0.0597 -1.3922 -2.7169
  116MOL0     H15652   8.315   7.083   1.345 -2.4553 -0.8824  1.3384
  116MOL0     H15653   8.356   7.074   1.172  0.2537  2.9802  0.8212
  116MOL0     H15654   8.122   6.911   1.289 -0.7123 -1.6478 -1.1384
  116MOL0     H15655   8.281   6.862   1.337 -3.9883  0.7120  3.2408
  116MOL0     H15656   8.188   6.729   1.131  3.7172 -1.4910  0.2592
  116MOL0     H15657   8.347   6.801   1.112 -0.4285 -0.0235 -2.2208
  116MOL0     H15658   8.086   7.005   0.844  0.9297  1.0601  1.4854
  116MOL0     H15659   7.851   7.077   1.406  0.2720 -0.3636 -0.4527
  116MOL0     H15660   7.631   7.182   1.353 -2.6625  1.1370 -2.8542
  117MOL0     O15661   8.357   7.248   4.565  0.3592 -0.0647  0.8263
  117MOL0     C15662   8.337   7.235   4.689  0.4127  0.2843  0.2158
  117MOL0     O15663   8.256   7.307   4.771  0.3962 -0.1673  0.5119
  117MOL0     C15664   8.155   7.388   4.720  0.3852  0.0314  0.3781
  117MOL0     C15665   8.098   7.484   4.805  0.5106 -1.0280  1.1373
  117MOL0     C15666   7.991   7.562   4.771 -0.7748 -0.2205  0.7747
  117MOL0     C15667   7.930   7.545   4.645  0.4206  0.1432 -0.4792
  117MOL0     O15668   7.811   7.608   4.604  0.5716 -1.1544  0.5202
  117MOL0     C15669   7.745   7.707   4.692 -0.3229  0.6345 -0.1608
  117MOL0     C15670   7.617   7.754   4.628  0.4781  0.2213 -1.2187
  117MOL0     C15671   7.523   7.793   4.734  0.6855 -0.0620 -0.5939
  117MOL0     C15672   7.385   7.822   4.675  0.1853  0.0429  0.4038
  117MOL0     C15673   7.278   7.861   4.772  1.0135  0.4774  0.5236
  117MOL0     C15674   7.300   8.005   4.827  0.7830  1.2221  0.1783
  117MOL0     C15675   7.166   8.057   4.881 -0.4055  0.1871 -0.8815
  117MOL0     C15676   7.195   8.192   4.954 -0.0285  0.5810 -0.2053
  117MOL0     N15677   7.071   8.255   5.001  1.0022 -0.6757 -0.7271
  117MOL0     C15678   6.970   8.316   4.924  0.5100  0.1139 -0.7098
  117MOL0     C15679   6.868   8.341   5.010  0.4606  0.1368  0.3664
  117MOL0     C15680   6.729   8.383   4.957  0.1493  0.8034  0.6965
  117MOL0     C15681   6.658   8.263   4.884  0.3310 -0.0206 -0.4069
  117MOL0     C15682   6.700   8.236   4.738  0.0711  0.1791  0.6944
  117MOL0     C15683   6.599   8.147   4.671  0.2483  0.9002 -0.2355
  117MOL0     O15684   6.616   8.150   4.526 -0.1428 -0.6581 -0.3267
  117MOL0     C15685   6.740   8.142   4.464  0.1831  0.0391  0.0817
  117MOL0     C15686   6.767   8.224   4.360 -0.9814  0.1197 -0.4329
  117MOL0     C15687   6.892   8.204   4.286  1.2010 -0.4244  0.3657
  117MOL0     C15688   6.916   8.287   4.154  0.0384  0.5114 -0.5880
  117MOL0     C15689   6.998   8.130   4.345 -0.0126 -0.6240  1.0019
  117MOL0     C15690   7.132   8.115   4.288 -0.2674  0.0903 -0.6024
  117MOL0     O15691   7.180   7.989   4.293  0.1629  0.3089  0.0275
  117MOL0     C15692   7.306   7.962   4.245  0.2230  0.3506 -0.1484
  117MOL0     C15693   7.363   8.015   4.125  0.0357  0.6504  0.2899
  117MOL0     C15694   7.489   7.976   4.088 -1.1395 -0.8091  0.5862
  117MOL0     C15695   7.572   7.899   4.174 -0.5120  0.2545  0.1203
  117MOL0     O15696   7.700   7.888   4.126  0.2840  0.4068  0.6570
  117MOL0     C15697   7.792   7.792   4.186 -0.4224  0.7241 -0.3807
  117MOL0     C15698   7.778   7.657   4.109  0.3764 -0.9851  0.8296
  117MOL0     C15699   7.872   7.549   4.160 -0.7262 -0.0646 -0.7097
  117MOL0     C15700   8.024   7.582   4.171  0.3059 -0.5721 -0.3301
  117MOL0     C15701   8.101   7.453   4.201 -0.1589  0.5427 -0.0513
  117MOL0     C15702   8.242   7.502   4.248  0.5811 -0.3531  0.4694
  117MOL0     C15703   8.329   7.382   4.257 -0.5601 -0.9073 -0.2309
  117MOL0     C15704   8.480   7.434   4.252  0.2621  0.1728 -0.6861
  117MOL0    Cl15705   8.548   7.395   4.097  0.2481  0.4755  0.5531
  117MOL0     C15706   7.513   7.826   4.276 -0.1391  0.1356  0.0624
  117MOL0     C15707   7.384   7.860   4.312  0.4193 -0.4813  0.5457
  117MOL0     O15708   7.197   8.214   4.260  0.2813 -0.7688 -0.2887
  117MOL0     C15709   6.964   8.058   4.463 -0.8043  0.4397 -0.1637
  117MOL0     C15710   6.840   8.056   4.519  0.4390 -0.1828 -0.3373
  117MOL0     N15711   6.902   8.301   5.139  0.2533 -0.2375 -0.6501
  117MOL0     N15712   7.024   8.254   5.127 -0.0733 -0.3700 -0.2716
  117MOL0     C15713   7.990   7.457   4.551  0.6436 -0.6026 -0.4478
  117MOL0     C15714   8.098   7.375   4.586 -1.0844  0.4467 -0.7446
  117MOL0     C15715   8.399   7.115   4.749  0.0762  0.8020 -0.1857
  117MOL0     C15716   8.522   7.079   4.692  0.3560  0.1466  0.4855
  117MOL0     C15717   8.598   6.967   4.748  0.2596  0.0213 -0.2186
  117MOL0     C15718   8.541   6.894   4.851  0.2578 -0.3395 -0.0335
  117MOL0     O15719   8.611   6.785   4.901 -0.6992 -0.0158  0.6202
  117MOL0     C15720   8.613   6.744   5.043  0.7996 -0.8526  1.0010
  117MOL0     C15721   8.660   6.600   5.059 -0.9755  0.1019 -0.0357
  117MOL0     C15722   8.608   6.504   4.953  0.5013  0.3428 -0.2318
  117MOL0     C15723   8.672   6.370   4.957  0.4307  0.1372  0.8083
  117MOL0     C15724   8.802   6.372   4.904  0.0209 -0.3683  0.4229
  117MOL0     C15725   8.914   6.368   4.878 -0.1250  0.4540 -0.6317
  117MOL0     C15726   8.421   6.943   4.909  0.9191 -0.9307 -0.5768
  117MOL0     C15727   8.351   7.055   4.863  0.4590  0.8390  0.2624
  117MOL0     H15728   8.144   7.493   4.904  1.5571 -0.6978  0.6355
  117MOL0     H15729   7.944   7.633   4.837 -1.5234  1.1196 -1.1199
  117MOL0     H15730   7.734   7.671   4.795  2.1149  2.6539  0.9188
  117MOL0     H15731   7.813   7.791   4.709 -1.2160  0.7709  3.7637
  117MOL0     H15732   7.637   7.835   4.557 -1.4560  0.1737 -1.8760
  117MOL0     H15733   7.590   7.670   4.563  1.9007 -2.0992  0.9927
  117MOL0     H15734   7.513   7.724   4.819  4.0929 -3.0363 -2.3395
  117MOL0     H15735   7.567   7.886   4.772  1.3694 -0.8863  0.7350
  117MOL0     H15736   7.399   7.893   4.594  0.6028  1.3722  1.6028
  117MOL0     H15737   7.357   7.736   4.613  2.3282  0.3010 -1.0350
  117MOL0     H15738   7.184   7.862   4.718  0.9726 -2.6319  0.3239
  117MOL0     H15739   7.277   7.784   4.851 -0.2025 -0.4277 -0.3357
  117MOL0     H15740   7.377   7.978   4.900 -0.9152 -2.8452  0.7439
  117MOL0     H15741   7.338   8.080   4.757 -1.0953  1.7907 -0.2915
  117MOL0     H15742   7.082   8.054   4.811 -0.2959 -0.6082 -0.9911
  117MOL0     H15743   7.121   7.989   4.955 -2.8436  0.5555 -1.9347
  117MOL0     H15744   7.258   8.262   4.899  2.4331  0.9151  2.7270
  117MOL0     H15745   7.253   8.166   5.043 -0.5739 -0.7667 -0.2326
  117MOL0     H15746   6.965   8.324   4.815  1.5900 -0.5539 -0.8220
  117MOL0     H15747   6.664   8.414   5.040 -1.8333  1.0264 -0.8501
  117MOL0     H15748   6.745   8.472   4.895  3.5405  0.0525  0.3178
  117MOL0     H15749   6.558   8.308   4.885  2.2933  4.8992  0.7362
  117MOL0     H15750   6.655   8.173   4.947  0.1351 -1.6584 -2.6091
  117MOL0     H15751   6.803   8.201   4.733  0.5761  1.7938 -0.8828
  117MOL0     H15752   6.706   8.331   4.685 -1.2701 -0.2204 -0.2301
  117MOL0     H15753   6.497   8.171   4.703 -0.6801  1.3938 -3.2884
  117MOL0     H15754   6.608   8.046   4.713 -1.2599  1.3523  1.2628
  117MOL0     H15755   6.690   8.291   4.324  0.9628  2.8647  0.1613
  117MOL0     H15756   6.980   8.374   4.169  0.6914  0.3050 -1.9933
  117MOL0     H15757   6.984   8.234   4.087  2.1740  2.1749  0.1399
  117MOL0     H15758   6.818   8.309   4.109  0.7660  1.1393 -1.9211
  117MOL0     H15759   7.300   8.074   4.059 -1.2130 -0.7232  0.2064
  117MOL0     H15760   7.525   8.023   3.997  0.4960 -0.5492  1.3240
  117MOL0     H15761   7.894   7.833   4.178 -0.2409  0.6926  1.2856
  117MOL0     H15762   7.768   7.790   4.293 -1.1204  0.6079 -0.5405
  117MOL0     H15763   7.672   7.628   4.115  0.5022 -1.9745 -0.8890
  117MOL0     H15764   7.806   7.690   4.009 -1.4648  3.3520  1.5201
  117MOL0     H15765   7.855   7.470   4.086  0.0349 -0.6263 -0.2968
  117MOL0     H15766   7.843   7.510   4.259 -2.2610  0.6287 -0.8522
  117MOL0     H15767   8.058   7.632   4.080  0.5526  2.4653  1.2809
  117MOL0     H15768   8.041   7.663   4.243  2.2850 -1.4133  0.1948
  117MOL0     H15769   8.110   7.392   4.110  0.0846  0.0836  0.2747
  117MOL0     H15770   8.054   7.389   4.276  2.3347 -3.6753 -1.7258
  117MOL0     H15771   8.283   7.575   4.178  0.3201 -0.7265 -0.0785
  117MOL0     H15772   8.219   7.556   4.340 -1.3042 -0.8289  0.3128
  117MOL0     H15773   8.307   7.312   4.176 -0.4870  0.1889 -1.2317
  117MOL0     H15774   8.298   7.333   4.350 -3.3341 -1.2893 -1.2454
  117MOL0     H15775   8.528   7.388   4.339 -2.3396  1.2496  1.4649
  117MOL0     H15776   8.491   7.542   4.256 -2.6202  0.5048  1.9262
  117MOL0     H15777   7.577   7.755   4.329  0.2352  1.2263  1.1094
  117MOL0     H15778   7.332   7.811   4.393  0.4239 -0.3245  0.6445
  117MOL0     H15779   7.029   7.981   4.503 -1.9749 -0.4127  0.1661
  117MOL0     H15780   6.831   7.986   4.601  2.0177 -2.0783 -1.6806
  117MOL0     H15781   7.946   7.455   4.452  2.4431  0.7977 -1.3276
  117MOL0     H15782   8.126   7.295   4.518  0.1032 -0.2642  0.5490
  117MOL0     H15783   8.553   7.129   4.600 -3.6730 -2.9969 -2.9768
  117MOL0     H15784   8.694   6.936   4.707  0.5168 -0.4507  0.7012
  117MOL0     H15785   8.662   6.814   5.111 -3.2031  0.0829  3.2679
  117MOL0     H15786   8.512   6.744   5.086  0.1110  1.0184 -0.4651
  117MOL0     H15787   8.634   6.564   5.159 -0.4437  0.8711  0.3884
  117MOL0     H15788   8.769   6.600   5.053 -0.8242  1.2661  1.8198
  117MOL0     H15789   8.627   6.546   4.854  2.3766 -0.1672 -0.1400
  117MOL0     H15790   8.500   6.506   4.966  0.2676  0.9005 -2.0766
  117MOL0     H15791   8.606   6.303   4.903 -2.8939  3.5627  0.1657
  117MOL0     H15792   8.673   6.336   5.061 -0.6241 -1.4579  0.3385
  117MOL0     H15793   9.010   6.355   4.832 -0.3105  2.1375 -1.5959
  117MOL0     H15794   8.394   6.880   4.994  1.0018 -0.2634 -0.0458
  117MOL0     H15795   8.271   7.083   4.931 -2.0272 -0.1819 -2.0639
  118MOL0     O15796   8.094  10.177   8.589  0.5972 -0.4457 -0.4110
  118MOL0     C15797   8.132  10.191   8.471 -0.0398 -0.1686 -0.0500
  118MOL0     O15798   8.051  10.198   8.351 -0.7805 -0.1150 -1.0548
  118MOL0     C15799   7.917  10.186   8.341  0.2068  0.1881 -0.1915
  118MOL0     C15800   7.825  10.163   8.449 -1.0762 -0.0675 -0.0015
  118MOL0     C15801   7.688  10.158   8.420  0.2680 -0.9204 -0.0851
  118MOL0     C15802   7.634  10.179   8.291 -0.1262  0.1944 -0.1376
  118MOL0     O15803   7.498  10.201   8.290 -0.9255 -0.7269  0.3335
  118MOL0     C15804   7.432  10.245   8.173 -0.4388  0.3531  0.4504
  118MOL0     C15805   7.293  10.271   8.208  0.6381  0.0263  0.3712
  118MOL0     C15806   7.222  10.347   8.096  0.2154 -0.4139  0.1828
  118MOL0     C15807   7.081  10.396   8.133 -0.7174  0.9493 -0.3258
  118MOL0     C15808   6.992  10.424   8.015 -0.3359  0.2096 -0.0321
  118MOL0     C15809   6.854  10.477   8.047 -0.5988  0.2406  0.3999
  118MOL0     C15810   6.742  10.403   7.967  0.5725  0.5618  0.7466
  118MOL0     C15811   6.599  10.460   7.992  0.3980  0.4077 -0.3729
  118MOL0     N15812   6.488  10.377   7.927 -0.0577 -0.3198 -0.2633
  118MOL0     C15813   6.460  10.248   7.952  0.0205  0.5153  0.5561
  118MOL0     C15814   6.352  10.213   7.877  0.9693  0.0533  0.7593
  118MOL0     C15815   6.278  10.084   7.861  0.3621  0.3295  0.3481
  118MOL0     C15816   6.363   9.968   7.805 -0.0951 -0.1447  1.0295
  118MOL0     C15817   6.384   9.961   7.648  0.0208  0.1006  0.2033
  118MOL0     C15818   6.474  10.067   7.585  0.8736  0.4434  0.8919
  118MOL0     O15819   6.606  10.059   7.629  0.4789  0.0010  0.3673
  118MOL0     C15820   6.694  10.162   7.618  0.4312 -0.0612 -0.5583
  118MOL0     C15821   6.666  10.298   7.588 -0.4061  0.3340  0.1479
  118MOL0     C15822   6.766  10.400   7.590 -0.2109  0.2998 -0.2474
  118MOL0     C15823   6.724  10.544   7.560  0.7398 -0.1769  0.4419
  118MOL0     C15824   6.899  10.356   7.618 -0.4233  0.1402  0.8782
  118MOL0     C15825   7.009  10.449   7.613  0.0288 -0.2531  0.6038
  118MOL0     O15826   7.108  10.424   7.708  0.1291  0.6790 -0.2721
  118MOL0     C15827   7.208  10.513   7.727 -0.2980 -0.1216 -0.3380
  118MOL0     C15828   7.337  10.456   7.721  0.4498  0.6667  0.1356
  118MOL0     C15829   7.447  10.532   7.750 -0.1040  0.8411  0.6268
  118MOL0     C15830   7.435  10.664   7.795 -0.0745  0.7550  0.8458
  118MOL0     O15831   7.556  10.723   7.840 -0.4287 -0.2242  0.2587
  118MOL0     C15832   7.548  10.863   7.870  0.1650 -0.0060 -0.4470
  118MOL0     C15833   7.678  10.905   7.936  0.4369 -0.5616  0.5218
  118MOL0     C15834   7.811  10.885   7.860  0.2550  0.1779  0.1789
  118MOL0     C15835   7.928  10.910   7.946 -0.1220 -0.2063  0.2371
  118MOL0     C15836   8.051  10.840   7.888  0.5948  0.4017  0.0701
  118MOL0     C15837   8.162  10.814   7.989  0.6544 -0.3058 -0.0436
  118MOL0     C15838   8.264  10.716   7.939 -0.3280  0.4003 -0.5575
  118MOL0     C15839   8.372  10.689   8.040 -1.0607  0.8741  0.2738
  118MOL0    Cl15840   8.312  10.615   8.194  0.2646  0.1461 -0.1077
  118MOL0     C15841   7.306  10.728   7.799 -0.1223  0.7821 -0.4867
  118MOL0     C15842   7.195  10.643   7.778 -0.6041 -0.2200  0.0111
  118MOL0     O15843   7.016  10.536   7.528 -0.3387 -0.6602 -0.6838
  118MOL0     C15844   6.924  10.221   7.662 -0.0842 -1.2059 -0.3568
  118MOL0     C15845   6.822  10.128   7.660 -0.1216  0.2740 -0.0393
  118MOL0     N15846   6.334  10.322   7.797  0.1596 -0.0560 -0.5547
  118MOL0     N15847   6.411  10.415   7.822  0.4879 -0.0882 -0.5864
  118MOL0     C15848   7.725  10.204   8.185  0.6039 -0.0581 -0.1943
  118MOL0     C15849   7.870  10.195   8.207 -0.0287 -0.4413  0.5038
  118MOL0     C15850   8.271  10.205   8.439  0.0880  0.2284  0.5286
  118MOL0     C15851   8.368  10.245   8.535 -0.2896  0.0875 -0.0184
  118MOL0     C15852   8.506  10.252   8.495 -0.2023 -0.6301 -0.6146
  118MOL0     C15853   8.546  10.233   8.362  0.2329 -1.0214 -0.7242
  118MOL0     O15854   8.678  10.260   8.322  0.2221  0.5908 -0.2618
  118MOL0     C15855   8.767  10.155   8.359 -0.0196  0.1842  0.0716
  118MOL0     C15856   8.773  10.052   8.258  1.2297  0.1464  0.3684
  118MOL0     C15857   8.690   9.930   8.285 -0.0074  0.8387 -0.1632
  118MOL0     C15858   8.685   9.832   8.164  0.8259  0.2491  0.4826
  118MOL0     C15859   8.607   9.885   8.053  0.2078  0.6336  0.7585
  118MOL0     C15860   8.544   9.927   7.964  0.5058 -0.0974  0.4737
  118MOL0     C15861   8.456  10.197   8.272 -0.0343  0.2114 -0.8986
  118MOL0     C15862   8.320  10.184   8.309 -0.3120 -0.5678 -0.0142
  118MOL0     H15863   7.858  10.150   8.552  0.7630 -0.9585 -0.6497
  118MOL0     H15864   7.622  10.149   8.507 -1.2061 -1.2443 -1.1892
  118MOL0     H15865   7.479  10.331   8.123  1.2917 -1.6201 -1.5583
  118MOL0     H15866   7.434  10.160   8.104  1.2726 -0.7617  1.7834
  118MOL0     H15867   7.233  10.181   8.225 -2.3363  2.1510  2.4235
  118MOL0     H15868   7.288  10.329   8.301  0.1670 -0.5220  0.6947
  118MOL0     H15869   7.273  10.441   8.072  0.0508  0.0919  1.6774
  118MOL0     H15870   7.223  10.286   8.005  0.5922  2.6645 -2.0145
  118MOL0     H15871   7.028  10.324   8.196 -1.6693  0.5559 -1.5337
  118MOL0     H15872   7.091  10.479   8.204 -3.1447  1.4084 -0.4406
  118MOL0     H15873   7.046  10.496   7.953  0.3751  1.2780  1.7491
  118MOL0     H15874   6.996  10.340   7.945  0.9547 -0.9290  1.3318
  118MOL0     H15875   6.835  10.451   8.152  0.7932  0.7597  0.8015
  118MOL0     H15876   6.857  10.584   8.028 -0.8985  0.3946  1.1740
  118MOL0     H15877   6.763  10.413   7.860 -0.7455  1.6033  0.5566
  118MOL0     H15878   6.732  10.298   7.994 -1.8955  0.7879  0.9701
  118MOL0     H15879   6.601  10.557   7.942 -0.3805  0.7255  0.2019
  118MOL0     H15880   6.571  10.471   8.097  1.6664  0.1984  0.0041
  118MOL0     H15881   6.518  10.183   8.017 -0.9484 -1.6180 -0.6311
  118MOL0     H15882   6.234  10.048   7.954  1.7457  1.8675  1.6375
  118MOL0     H15883   6.193  10.104   7.794  0.1640  0.2421  0.5721
  118MOL0     H15884   6.304   9.881   7.834 -0.6127  0.1521  0.8869
  118MOL0     H15885   6.463   9.969   7.849  2.5337 -3.4868 -3.8650
  118MOL0     H15886   6.289   9.974   7.594  1.3687 -1.1496 -2.7186
  118MOL0     H15887   6.420   9.865   7.611  0.2822 -0.4420  1.8238
  118MOL0     H15888   6.428  10.165   7.597 -3.6016 -1.0068 -1.7881
  118MOL0     H15889   6.472  10.043   7.478  2.0658  0.5337  0.8321
  118MOL0     H15890   6.562  10.323   7.568 -0.6954  0.5579  1.7245
  118MOL0     H15891   6.623  10.550   7.600 -0.9210 -2.3550 -2.9474
  118MOL0     H15892   6.798  10.616   7.597  1.3526 -0.9165  0.6831
  118MOL0     H15893   6.721  10.553   7.451  2.9134 -0.1080  0.3465
  118MOL0     H15894   7.348  10.350   7.700 -1.7967 -0.1961  2.7526
  118MOL0     H15895   7.534  10.471   7.726 -0.0275  1.5496 -1.0710
  118MOL0     H15896   7.529  10.925   7.783 -2.7528 -2.0449 -1.4196
  118MOL0     H15897   7.463  10.878   7.938  0.2916  1.0992 -0.5180
  118MOL0     H15898   7.670  11.012   7.958  0.3654 -0.8525  2.0183
  118MOL0     H15899   7.695  10.846   8.027  2.3827  1.8764  1.8613
  118MOL0     H15900   7.819  10.962   7.783  0.0732 -1.7630 -1.9197
  118MOL0     H15901   7.822  10.782   7.825 -0.4149 -0.4911  1.8365
  118MOL0     H15902   7.956  11.015   7.945  0.7619 -0.3984  1.6440
  118MOL0     H15903   7.913  10.880   8.050 -2.7466  1.9684  0.6002
  118MOL0     H15904   8.079  10.892   7.796 -1.3241 -0.0509 -0.8290
  118MOL0     H15905   8.020  10.741   7.853 -1.2507  0.0509  2.4301
  118MOL0     H15906   8.208  10.913   8.004 -2.5214  1.0895  1.4874
  118MOL0     H15907   8.132  10.773   8.086  0.1167  0.2826  0.0481
  118MOL0     H15908   8.301  10.751   7.842 -0.7083 -1.1001 -1.2791
  118MOL0     H15909   8.213  10.619   7.939 -1.7002  1.0928 -1.7091
  118MOL0     H15910   8.440  10.773   8.057 -2.4029  1.8870  0.8102
  118MOL0     H15911   8.434  10.609   7.999 -1.2012  1.2891 -0.7756
  118MOL0     H15912   7.299  10.828   7.841  0.3931  0.5957  0.0668
  118MOL0     H15913   7.094  10.678   7.800 -0.5332 -0.2212  0.3371
  118MOL0     H15914   7.024  10.188   7.688 -0.0348 -1.8845 -1.3814
  118MOL0     H15915   6.839  10.022   7.675  2.9256  0.4107 -1.6670
  118MOL0     H15916   7.696  10.218   8.082 -0.5967 -2.0117 -0.1752
  118MOL0     H15917   7.938  10.203   8.123  0.7453 -0.4034  1.1224
  118MOL0     H15918   8.339  10.286   8.631  0.3212 -2.6870  1.4676
  118MOL0     H15919   8.574  10.292   8.569 -0.2339  0.1409 -0.9926
  118MOL0     H15920   8.869  10.193   8.364 -0.4659  1.2575  2.7433
  118MOL0     H15921   8.735  10.111   8.454 -0.6356 -1.1442 -0.7084
  118MOL0     H15922   8.872  10.008   8.243  0.1893 -2.5813  0.9519
  118MOL0     H15923   8.733  10.114   8.177  1.7428  2.2482  1.6677
  118MOL0     H15924   8.591   9.960   8.322 -0.2357 -0.6207  0.4654
  118MOL0     H15925   8.733   9.873   8.367  0.1212  2.5938  1.0500
  118MOL0     H15926   8.624   9.752   8.206  0.8323  0.2604  0.5133
  118MOL0     H15927   8.786   9.801   8.138 -0.3561 -1.7809 -2.1590
  118MOL0     H15928   8.495   9.963   7.876  0.3623  1.4306  1.1635
  118MOL0     H15929   8.495  10.191   8.171 -1.1112 -1.3983 -1.2705
  118MOL0     H15930   8.249  10.145   8.236  1.2538 -1.2622 -1.2290
  119MOL0     O15931  10.915   5.773   0.074 -0.2692 -0.5956 -0.2173
  119MOL0     C15932  10.942   5.865   0.151 -0.9063  0.5665  0.8981
  119MOL0     O15933  10.861   5.926   0.237  0.2290  0.3711 -0.0369
  119MOL0     C15934  10.735   5.894   0.245 -1.0515  0.0749 -0.0356
  119MOL0     C15935  10.693   5.759   0.230  0.1543 -0.1795  0.3739
  119MOL0     C15936  10.555   5.738   0.239 -0.3982 -0.2125  0.9553
  119MOL0     C15937  10.466   5.843   0.277  0.3485 -0.0105  0.5858
  119MOL0     O15938  10.332   5.811   0.280 -0.6667 -0.7741  0.0049
  119MOL0     C15939  10.237   5.919   0.305 -1.5374  0.0968  0.1425
  119MOL0     C15940  10.097   5.855   0.300 -0.6417 -0.5516 -0.0084
  119MOL0     C15941  10.035   5.832   0.164  0.4332 -0.2523 -0.4573
  119MOL0     C15942   9.904   5.761   0.170 -0.0229 -0.3056  0.3766
  119MOL0     C15943   9.837   5.745   0.039  0.3149 -0.4018 -0.0052
  119MOL0     C15944   9.723   5.651   0.041  0.5312 -0.2427 -0.7679
  119MOL0     C15945   9.675   5.604  -0.100  0.1420  0.0275 -0.6538
  119MOL0     C15946   9.757   5.495  -0.155  0.1486  0.0720  0.4494
  119MOL0     N15947   9.711   5.451  -0.288  0.3978  0.0885 -0.1109
  119MOL0     C15948   9.737   5.514  -0.406 -0.4042  0.4470 -0.7820
  119MOL0     C15949   9.672   5.427  -0.494  0.1957  0.3655 -1.1522
  119MOL0     C15950   9.664   5.460  -0.640  0.1485 -0.8390 -0.0967
  119MOL0     C15951   9.582   5.359  -0.715  0.2167  0.2766 -0.6470
  119MOL0     C15952   9.580   5.404  -0.864 -0.1221 -0.0692 -0.3950
  119MOL0     C15953   9.466   5.323  -0.936 -0.8925  0.6085 -0.6433
  119MOL0     O15954   9.456   5.376  -1.068 -0.6598  0.1434  0.4816
  119MOL0     C15955   9.343   5.347  -1.136  0.1109  0.5029  0.7239
  119MOL0     C15956   9.290   5.219  -1.134  0.0118 -0.4778 -0.2577
  119MOL0     C15957   9.169   5.172  -1.195 -0.2926 -0.4686 -0.0748
  119MOL0     C15958   9.108   5.039  -1.167  0.1065 -0.6056 -0.7734
  119MOL0     C15959   9.103   5.262  -1.281  0.1249 -0.3755  0.1657
  119MOL0     C15960   8.968   5.240  -1.346 -0.3319  0.4702  0.0612
  119MOL0     O15961   8.935   5.114  -1.381 -1.1397  0.3674  0.3784
  119MOL0     C15962   8.809   5.094  -1.430  0.6701  0.0868  0.5000
  119MOL0     C15963   8.710   5.063  -1.331 -0.2145  0.2237  0.5033
  119MOL0     C15964   8.578   5.045  -1.359  0.7233 -0.5146  0.1837
  119MOL0     C15965   8.537   5.046  -1.498 -0.0153 -0.6553  0.1289
  119MOL0     O15966   8.407   5.019  -1.548 -0.7783 -0.8626  0.7478
  119MOL0     C15967   8.323   4.940  -1.465  1.8058  0.4209 -0.4867
  119MOL0     C15968   8.383   4.795  -1.443  0.1453 -0.2605  0.5721
  119MOL0     C15969   8.281   4.715  -1.349 -0.8520 -0.0382 -0.1748
  119MOL0     C15970   8.334   4.571  -1.345  0.1796 -0.8377  0.8533
  119MOL0     C15971   8.265   4.486  -1.245  0.0727  0.4597 -0.1626
  119MOL0     C15972   8.123   4.462  -1.289  1.1191  0.2261 -0.2235
  119MOL0     C15973   8.057   4.364  -1.198 -0.5501 -0.4884  0.1297
  119MOL0     C15974   8.081   4.218  -1.244  0.7238  0.1413 -0.1397
  119MOL0    Cl15975   7.988   4.105  -1.139 -0.0477  0.2240  0.2822
  119MOL0     C15976   8.636   5.067  -1.594 -0.5428 -0.1093  0.2288
  119MOL0     C15977   8.773   5.091  -1.566  0.1507 -0.0462 -1.0316
  119MOL0     O15978   8.892   5.334  -1.336 -0.7684 -0.6792 -0.4550
  119MOL0     C15979   9.155   5.397  -1.290 -0.5391 -0.7891  0.2646
  119MOL0     C15980   9.276   5.429  -1.231 -0.5834 -0.2892  0.1749
  119MOL0     N15981   9.602   5.325  -0.428 -1.2177 -1.2006  0.0690
  119MOL0     N15982   9.633   5.341  -0.303 -0.0478  0.1660 -0.0159
  119MOL0     C15983  10.517   5.972   0.309  0.2271  0.2475 -0.3637
  119MOL0     C15984  10.651   6.002   0.294 -1.1286 -0.0082 -0.0753
  119MOL0     C15985  11.075   5.918   0.144  0.5590  0.1845  0.5161
  119MOL0     C15986  11.104   6.021   0.233 -0.3186  0.6041 -1.1892
  119MOL0     C15987  11.230   6.084   0.229  0.0623  0.5250  0.1257
  119MOL0     C15988  11.331   6.037   0.143  0.0491  0.0427 -0.1193
  119MOL0     O15989  11.444   6.117   0.138 -0.0352 -0.1386  0.1241
  119MOL0     C15990  11.558   6.092   0.046 -0.0758  0.3183  0.2589
  119MOL0     C15991  11.524   6.147  -0.091  0.0601  0.8264  0.5117
  119MOL0     C15992  11.511   6.295  -0.103  0.2085  0.1022 -0.9460
  119MOL0     C15993  11.639   6.370  -0.058  0.1913 -0.0565 -0.5419
  119MOL0     C15994  11.757   6.309  -0.118 -0.9368 -0.3942 -0.2345
  119MOL0     C15995  11.860   6.263  -0.166  0.2995 -0.1980  0.6825
  119MOL0     C15996  11.299   5.933   0.055  0.0496  1.3849  0.2557
  119MOL0     C15997  11.177   5.873   0.059 -0.7146  1.5550 -0.4446
  119MOL0     H15998  10.757   5.675   0.209 -0.2377 -0.0184 -1.6914
  119MOL0     H15999  10.511   5.644   0.205  1.5067 -0.4920 -0.9761
  119MOL0     H16000  10.252   5.952   0.408  1.6369  0.1584 -0.2423
  119MOL0     H16001  10.245   6.005   0.238  0.1985  0.6611  1.0233
  119MOL0     H16002  10.103   5.771   0.369  1.6404  0.8656  1.6553
  119MOL0     H16003  10.032   5.932   0.343  1.4409  1.3800 -0.1306
  119MOL0     H16004  10.023   5.929   0.115 -2.4259  0.6923  1.7952
  119MOL0     H16005  10.105   5.766   0.113 -0.9228 -3.1198  1.1529
  119MOL0     H16006   9.926   5.669   0.224 -0.3729  0.3007  1.5892
  119MOL0     H16007   9.836   5.822   0.230 -1.8886 -1.3827 -0.5623
  119MOL0     H16008   9.803   5.846   0.014  2.1805  0.0539 -0.8349
  119MOL0     H16009   9.897   5.713  -0.046  0.0764 -0.9165  0.0190
  119MOL0     H16010   9.750   5.565   0.104  1.0937  1.9490  2.2109
  119MOL0     H16011   9.638   5.693   0.095 -0.1341 -1.7207 -0.6042
  119MOL0     H16012   9.571   5.569  -0.104  1.0511 -2.8642 -4.0088
  119MOL0     H16013   9.675   5.691  -0.166  2.9667 -0.3006 -1.1749
  119MOL0     H16014   9.753   5.407  -0.091  3.0604 -1.9246 -1.7857
  119MOL0     H16015   9.861   5.528  -0.171 -0.1376  1.6388  1.5855
  119MOL0     H16016   9.790   5.607  -0.421 -1.7596  1.4371  0.3854
  119MOL0     H16017   9.628   5.562  -0.654 -0.2623 -1.0173 -0.3552
  119MOL0     H16018   9.766   5.464  -0.680  0.9113  0.3985  1.8297
  119MOL0     H16019   9.486   5.360  -0.663  0.5286 -0.6800 -0.0265
  119MOL0     H16020   9.625   5.258  -0.716 -2.7967 -1.1000 -0.8799
  119MOL0     H16021   9.678   5.396  -0.913  0.9412 -3.7458  1.9178
  119MOL0     H16022   9.546   5.506  -0.883 -0.1117 -0.1037 -0.5978
  119MOL0     H16023   9.370   5.320  -0.884  0.3158 -0.2632  1.6927
  119MOL0     H16024   9.496   5.218  -0.946  2.0837  1.2256  0.6813
  119MOL0     H16025   9.339   5.138  -1.081 -0.2954 -0.7755 -0.4209
  119MOL0     H16026   9.115   5.027  -1.059 -1.9834  0.3664 -0.4773
  119MOL0     H16027   9.004   5.020  -1.195 -0.4477  2.1466 -0.8594
  119MOL0     H16028   9.167   4.958  -1.210 -0.4868 -1.7064  0.4296
  119MOL0     H16029   8.750   5.085  -1.232  1.7974 -1.4885  0.1220
  119MOL0     H16030   8.508   5.024  -1.278  0.0914  1.9711  0.3567
  119MOL0     H16031   8.316   4.995  -1.371  0.0962  1.8175 -1.3790
  119MOL0     H16032   8.222   4.945  -1.508  1.6306 -0.1611 -0.1721
  119MOL0     H16033   8.400   4.740  -1.536  2.1962 -0.6001  1.0883
  119MOL0     H16034   8.478   4.808  -1.390  0.4648 -1.0668  0.2126
  119MOL0     H16035   8.180   4.723  -1.389 -1.4645 -0.3232  1.2542
  119MOL0     H16036   8.270   4.757  -1.249  2.9286 -0.3627  0.5451
  119MOL0     H16037   8.336   4.528  -1.445  0.3613  1.4276 -0.1841
  119MOL0     H16038   8.437   4.587  -1.311 -0.2887  1.7582  1.2620
  119MOL0     H16039   8.269   4.539  -1.149  0.8165  3.9126 -1.9118
  119MOL0     H16040   8.316   4.390  -1.230  0.5359  0.8780  1.0724
  119MOL0     H16041   8.072   4.559  -1.294  1.5348  0.3918 -2.6036
  119MOL0     H16042   8.125   4.424  -1.392  1.6493 -0.2894 -0.0248
  119MOL0     H16043   7.949   4.378  -1.192 -1.0561 -2.8634 -1.6963
  119MOL0     H16044   8.105   4.381  -1.101  1.6183  0.0192 -0.9510
  119MOL0     H16045   8.187   4.205  -1.219  0.9499  1.1297 -0.5363
  119MOL0     H16046   8.068   4.195  -1.350 -2.4970 -0.6668  0.3367
  119MOL0     H16047   8.605   5.086  -1.697  1.5139 -0.4947 -0.5074
  119MOL0     H16048   8.842   5.123  -1.644 -0.9138 -0.1809 -2.0622
  119MOL0     H16049   9.098   5.465  -1.352  1.1254  0.4360 -0.0065
  119MOL0     H16050   9.305   5.532  -1.251 -2.7609  1.1168  3.5069
  119MOL0     H16051  10.459   6.059   0.338 -0.5903 -0.9215  1.7459
  119MOL0     H16052  10.684   6.103   0.313  1.6467 -0.7154 -0.7049
  119MOL0     H16053  11.036   6.045   0.314  1.7634 -1.7012  1.4123
  119MOL0     H16054  11.263   6.154   0.305 -0.2960 -1.4968  2.3029
  119MOL0     H16055  11.649   6.139   0.086 -0.3224  2.1769 -1.2115
  119MOL0     H16056  11.571   5.984   0.055  2.3879  0.7026  2.8654
  119MOL0     H16057  11.430   6.107  -0.131 -1.0408  2.4153  1.3753
  119MOL0     H16058  11.587   6.116  -0.175  0.8331  0.7869  1.0971
  119MOL0     H16059  11.433   6.328  -0.033 -0.1897 -0.7504 -0.9728
  119MOL0     H16060  11.476   6.330  -0.200 -0.7167  4.4247  0.7062
  119MOL0     H16061  11.637   6.382   0.050  1.7973  5.7416 -0.8194
  119MOL0     H16062  11.623   6.469  -0.103  3.1688  0.4782 -0.5749
  119MOL0     H16063  11.955   6.245  -0.212  0.6474 -2.2415  2.0815
  119MOL0     H16064  11.390   5.899   0.007  0.9433  2.8426  0.8320
  119MOL0     H16065  11.155   5.786  -0.002  0.9888  1.0269 -0.3677
  120MOL0     O16066   0.271  11.186  10.557 -0.2251 -0.4220 -0.4362
  120MOL0     C16067   0.264  11.305  10.595  0.4518  0.3888 -0.6268
  120MOL0     O16068   0.345  11.413  10.548  0.1245 -0.5966  0.9211
  120MOL0     C16069   0.478  11.393  10.534  0.5487  0.1691  0.1367
  120MOL0     C16070   0.551  11.502  10.487  0.5175  0.0816  0.5099
  120MOL0     C16071   0.690  11.496  10.468  0.4043  0.1760 -0.7321
  120MOL0     C16072   0.759  11.387  10.509 -0.0997  0.9015  0.4134
  120MOL0     O16073   0.893  11.391  10.478  0.1157  0.0322 -0.4901
  120MOL0     C16074   0.991  11.307  10.536 -0.0286 -1.0014  0.4394
  120MOL0     C16075   1.112  11.330  10.452 -0.0330 -0.2755  0.6283
  120MOL0     C16076   1.140  11.480  10.428  0.1763  0.0233 -0.4183
  120MOL0     C16077   1.261  11.505  10.338  0.0309  0.3506 -0.3754
  120MOL0     C16078   1.384  11.508  10.423  0.4351 -0.0502  0.4810
  120MOL0     C16079   1.504  11.509  10.327 -0.2417 -0.2970  0.6466
  120MOL0     C16080   1.642  11.497  10.395 -0.0832  0.7690  0.5710
  120MOL0     C16081   1.759  11.561  10.310 -0.1011  0.2116  0.1196
  120MOL0     N16082   1.810  11.481  10.197  0.0617  0.7943 -0.4000
  120MOL0     C16083   1.943  11.450  10.170 -0.5053  0.2125  0.3496
  120MOL0     C16084   1.941  11.388  10.043 -0.1477  0.2907  0.0542
  120MOL0     C16085   2.073  11.353   9.973  0.7887  0.3160  0.0211
  120MOL0     C16086   2.157  11.266  10.062 -0.2304 -0.4410 -0.1025
  120MOL0     C16087   2.295  11.233  10.003  0.4726 -0.2911  0.6076
  120MOL0     C16088   2.367  11.343   9.925  0.1921  0.1387  0.3301
  120MOL0     O16089   2.493  11.288   9.890 -0.5842  0.1817  0.0099
  120MOL0     C16090   2.589  11.375   9.882 -0.5743 -0.1069  0.6162
  120MOL0     C16091   2.712  11.317   9.886  0.0823 -0.4971 -0.2260
  120MOL0     C16092   2.829  11.396   9.886  0.0588  0.0430  0.4748
  120MOL0     C16093   2.955  11.307   9.902  0.0313  0.2954  0.3755
  120MOL0     C16094   2.827  11.534   9.859  0.6235 -0.9238 -0.3155
  120MOL0     C16095   2.945  11.622   9.865  0.3368  0.6469 -0.5028
  120MOL0     O16096   3.063  11.560   9.843  0.0528 -0.7459 -0.7658
  120MOL0     C16097   3.185  11.635   9.853  0.9086 -0.5226  0.7468
  120MOL0     C16098   3.238  11.685   9.733 -0.3658 -0.1657  0.5293
  120MOL0     C16099   3.348  11.777   9.750  0.4324  0.2672 -0.2949
  120MOL0     C16100   3.388  11.820   9.880  1.1788 -0.5189 -0.4961
  120MOL0     O16101   3.503  11.900   9.878  0.1570  0.0046 -0.0448
  120MOL0     C16102   3.553  11.962   9.995  0.2314 -0.1309  0.6267
  120MOL0     C16103   3.661  12.061   9.964  0.5680 -0.8332  0.1532
  120MOL0     C16104   3.774  12.062  10.072  0.1501 -0.3476  0.0131
  120MOL0     C16105   3.822  12.205  10.075  0.4809 -0.6909 -0.3696
  120MOL0     C16106   3.937  12.227  10.173  0.2057  0.9421  0.2464
  120MOL0     C16107   4.067  12.245  10.081  0.0638  0.2343  0.8541
  120MOL0     C16108   4.184  12.301  10.154 -1.1019  0.4265 -1.4308
  120MOL0     C16109   4.306  12.306  10.055 -0.9863  0.0325 -0.1537
  120MOL0    Cl16110   4.366  12.130  10.031  0.4394 -0.6097 -0.2642
  120MOL0     C16111   3.331  11.767   9.993 -0.0336  1.2105 -0.0300
  120MOL0     C16112   3.227  11.675   9.975  0.6712  1.1281 -0.5480
  120MOL0     O16113   2.935  11.741   9.902 -0.3133 -0.1622  0.1642
  120MOL0     C16114   2.698  11.590   9.842 -0.8569 -0.3954 -0.3438
  120MOL0     C16115   2.580  11.515   9.854 -0.8741 -0.1663 -0.4843
  120MOL0     N16116   1.806  11.388  10.004  0.2424  0.8375  0.5093
  120MOL0     N16117   1.736  11.436  10.101  0.2899  0.1133 -0.6295
  120MOL0     C16118   0.687  11.279  10.558 -0.3361  1.2985 -0.3664
  120MOL0     C16119   0.551  11.278  10.582  0.4907 -0.2733 -0.2491
  120MOL0     C16120   0.174  11.331  10.709 -0.8015 -0.5179 -0.6065
  120MOL0     C16121   0.102  11.228  10.769 -1.0799  0.0406 -0.1639
  120MOL0     C16122   0.006  11.260  10.866  0.6507  0.6569 -0.3859
  120MOL0     C16123  -0.017  11.397  10.904 -0.8274 -0.0556  0.3449
  120MOL0     O16124  -0.109  11.441  10.997  0.1717 -0.0754 -0.2667
  120MOL0     C16125  -0.194  11.339  11.055 -0.5745  0.1428  1.1441
  120MOL0     C16126  -0.279  11.396  11.161  0.4221  0.1341 -0.4588
  120MOL0     C16127  -0.368  11.294  11.226  0.1306  0.7225 -0.0012
  120MOL0     C16128  -0.479  11.235  11.141  0.4149 -1.0062 -0.2290
  120MOL0     C16129  -0.447  11.115  11.081  0.1911  0.1962  0.1918
  120MOL0     C16130  -0.418  11.007  11.031 -0.2173 -0.2558  0.1898
  120MOL0     C16131   0.068  11.494  10.853 -0.3614 -1.1401  0.3084
  120MOL0     C16132   0.161  11.464  10.754 -0.6866  0.2086  0.1358
  120MOL0     H16133   0.504  11.594  10.454 -0.9195 -0.1382  1.8280
  120MOL0     H16134   0.742  11.588  10.444 -1.5561  1.6187  0.1820
  120MOL0     H16135   1.018  11.346  10.634  1.1742  3.7852 -1.5360
  120MOL0     H16136   0.961  11.201  10.537 -2.0249 -0.5429 -1.5080
  120MOL0     H16137   1.201  11.283  10.496  1.3429  0.1603 -1.5557
  120MOL0     H16138   1.104  11.277  10.357  1.0855 -0.3251  0.5436
  120MOL0     H16139   1.055  11.530  10.381  1.2078  0.9393 -1.3477
  120MOL0     H16140   1.164  11.527  10.524 -0.5928 -0.9431  0.2781
  120MOL0     H16141   1.270  11.417  10.273 -1.6255 -0.3136  0.2462
  120MOL0     H16142   1.249  11.591  10.272 -3.9969  1.3541  1.4183
  120MOL0     H16143   1.383  11.602  10.480 -1.8840 -0.9723  2.0689
  120MOL0     H16144   1.384  11.430  10.499  3.3059  2.5019  3.4047
  120MOL0     H16145   1.491  11.418  10.267 -3.2519 -0.6752  1.7069
  120MOL0     H16146   1.506  11.597  10.262  2.1122 -0.5334  0.3323
  120MOL0     H16147   1.627  11.547  10.491  1.9296  2.2517  0.1667
  120MOL0     H16148   1.662  11.390  10.410 -0.6700  0.2397 -1.8627
  120MOL0     H16149   1.844  11.585  10.374  0.4783 -1.1813 -0.0922
  120MOL0     H16150   1.726  11.658  10.272 -0.4728  0.3899  0.8682
  120MOL0     H16151   2.031  11.458  10.232  1.7733 -0.9766 -2.4730
  120MOL0     H16152   2.050  11.304   9.878 -0.6699  0.2077  0.4055
  120MOL0     H16153   2.121  11.446   9.941  1.7049 -1.2348 -3.6909
  120MOL0     H16154   2.103  11.172  10.072  0.4594 -0.9715 -1.1932
  120MOL0     H16155   2.177  11.319  10.156  0.4849 -1.2251  0.1970
  120MOL0     H16156   2.282  11.155   9.927  2.8460  0.9078 -1.1669
  120MOL0     H16157   2.366  11.196  10.078  2.5801 -1.1278 -1.6819
  120MOL0     H16158   2.366  11.432   9.989 -1.9322  1.8756 -1.9081
  120MOL0     H16159   2.321  11.377   9.831 -0.2896  1.3525  0.9781
  120MOL0     H16160   2.729  11.212   9.907  2.4255  0.2695  2.0505
  120MOL0     H16161   2.929  11.205   9.933 -0.7294  0.9719  2.0702
  120MOL0     H16162   3.010  11.303   9.807  1.0516 -2.7871  0.9638
  120MOL0     H16163   3.012  11.352   9.983 -1.1802 -0.3929  1.6612
  120MOL0     H16164   3.193  11.654   9.640  1.1040 -0.2622 -0.1803
  120MOL0     H16165   3.404  11.824   9.670 -1.5779  2.1703 -0.6704
  120MOL0     H16166   3.476  12.013  10.054  0.0206 -2.2113  2.3171
  120MOL0     H16167   3.600  11.888  10.061  0.1277  1.0217  2.0624
  120MOL0     H16168   3.702  12.043   9.864 -0.8598 -0.6756 -0.4902
  120MOL0     H16169   3.612  12.158   9.949 -2.5985 -2.2778  0.3727
  120MOL0     H16170   3.851  11.985  10.067  1.0561  0.5754 -0.8223
  120MOL0     H16171   3.727  12.050  10.170 -3.0794  1.1541 -1.1794
  120MOL0     H16172   3.858  12.236   9.976  0.9118 -0.3546 -0.1095
  120MOL0     H16173   3.744  12.276  10.103  1.4536  0.0143  0.6375
  120MOL0     H16174   3.960  12.135  10.228 -0.0781  0.7648  0.0734
  120MOL0     H16175   3.924  12.314  10.238 -0.7672  1.0502 -0.0700
  120MOL0     H16176   4.104  12.145  10.061  0.4107  0.2441  1.4167
  120MOL0     H16177   4.059  12.300   9.987 -2.0685 -0.2480  0.6874
  120MOL0     H16178   4.222  12.238  10.236 -1.2974 -0.0964 -1.7338
  120MOL0     H16179   4.157  12.398  10.196 -2.0048  1.4330 -4.1225
  120MOL0     H16180   4.395  12.358  10.091  0.0940 -0.6954 -1.6503
  120MOL0     H16181   4.273  12.357   9.964  3.0743  0.3128 -1.6689
  120MOL0     H16182   3.373  11.781  10.092  1.3277 -0.7791 -0.2757
  120MOL0     H16183   3.179  11.644  10.068  1.9365  0.8551  0.0360
  120MOL0     H16184   2.691  11.696   9.821  0.3694  0.1969  1.9227
  120MOL0     H16185   2.485  11.560   9.827 -0.6369  1.0219  0.5938
  120MOL0     H16186   0.736  11.184  10.577 -0.7189  0.7086 -2.1258
  120MOL0     H16187   0.499  11.196  10.631 -1.7106  0.4361 -1.2834
  120MOL0     H16188   0.128  11.127  10.736 -1.4156  0.4894 -1.8928
  120MOL0     H16189  -0.048  11.180  10.915 -1.1329  2.1916  0.2777
  120MOL0     H16190  -0.254  11.298  10.973 -2.9071 -0.3404  3.0068
  120MOL0     H16191  -0.125  11.264  11.094 -0.6416  0.5784  2.1349
  120MOL0     H16192  -0.337  11.477  11.117 -0.8084  0.2349  1.2556
  120MOL0     H16193  -0.215  11.449  11.233  0.9879  0.7021 -1.3572
  120MOL0     H16194  -0.409  11.336  11.318  0.8731 -2.2616  1.8112
  120MOL0     H16195  -0.315  11.215  11.280  0.4978  3.2736  3.7525
  120MOL0     H16196  -0.507  11.311  11.068 -2.4580 -0.7806  0.9621
  120MOL0     H16197  -0.574  11.221  11.193 -1.5454 -0.5447 -3.4220
  120MOL0     H16198  -0.386  10.912  10.994 -1.3669 -0.2105 -0.9669
  120MOL0     H16199   0.080  11.595  10.892  0.8893 -1.3203  0.4315
  120MOL0     H16200   0.243  11.533  10.736 -1.3024  0.9791  0.1759
  121MOL0     O16201   7.493   2.188   0.303  0.3213  0.7045  0.4547
  121MOL0     C16202   7.607   2.224   0.325 -0.6606  0.1781  0.2442
  121MOL0     O16203   7.641   2.297   0.438 -0.8747 -0.6559  0.4480
  121MOL0     C16204   7.543   2.366   0.491  0.4800 -0.4082 -0.5798
  121MOL0     C16205   7.508   2.364   0.620  0.0257  0.3680  0.0526
  121MOL0     C16206   7.398   2.440   0.669  0.2945 -1.0165 -0.8794
  121MOL0     C16207   7.338   2.542   0.587  0.8127 -0.0621 -0.2738
  121MOL0     O16208   7.226   2.612   0.631 -0.5523  0.2016  0.0328
  121MOL0     C16209   7.121   2.521   0.670  0.0281 -0.7147  1.0306
  121MOL0     C16210   7.016   2.630   0.705 -0.7009 -0.0229  0.3195
  121MOL0     C16211   6.889   2.568   0.755 -0.2758  0.1065 -0.1416
  121MOL0     C16212   6.813   2.650   0.850  0.7053 -0.5654  0.0395
  121MOL0     C16213   6.664   2.625   0.860  0.7139  0.1023  0.5313
  121MOL0     C16214   6.619   2.470   0.849 -0.4104  0.8247 -0.5055
  121MOL0     C16215   6.478   2.441   0.912  0.8484  0.0281 -0.0580
  121MOL0     C16216   6.361   2.491   0.822 -0.2174 -0.7022 -0.5272
  121MOL0     N16217   6.231   2.487   0.889  0.1929 -0.1971  0.3529
  121MOL0     C16218   6.143   2.384   0.900 -0.0828  0.3589  0.2366
  121MOL0     C16219   6.051   2.429   0.977  0.1277 -0.4937 -0.0669
  121MOL0     C16220   5.919   2.367   1.017  0.0635  0.7137  0.0839
  121MOL0     C16221   5.818   2.465   1.078  0.3184 -0.5343 -0.2348
  121MOL0     C16222   5.690   2.390   1.105  0.5106 -0.1014  1.3143
  121MOL0     C16223   5.587   2.472   1.182 -0.2203 -0.7228 -0.1521
  121MOL0     O16224   5.529   2.571   1.087  0.0847 -0.8683 -0.6519
  121MOL0     C16225   5.426   2.535   1.012 -0.4003 -0.1531  0.1612
  121MOL0     C16226   5.436   2.572   0.878  0.1892 -1.3387  0.6196
  121MOL0     C16227   5.343   2.531   0.787 -0.2694 -0.5824  0.2233
  121MOL0     C16228   5.368   2.571   0.642 -0.9782 -0.4448 -0.3183
  121MOL0     C16229   5.225   2.472   0.837  0.1943 -0.2983 -1.2367
  121MOL0     C16230   5.110   2.434   0.744  0.2617 -0.1228 -0.3198
  121MOL0     O16231   4.981   2.442   0.791 -0.0107 -0.6205 -0.1468
  121MOL0     C16232   4.873   2.416   0.715 -0.3742 -0.4497 -0.4013
  121MOL0     C16233   4.765   2.338   0.771  0.9003  0.2340  0.0726
  121MOL0     C16234   4.648   2.323   0.697 -1.0984  0.1426 -0.5560
  121MOL0     C16235   4.646   2.361   0.561 -0.0916 -1.0814 -0.2667
  121MOL0     O16236   4.532   2.319   0.492  0.4797  0.0245 -0.1505
  121MOL0     C16237   4.496   2.388   0.368  0.2039  0.2810 -0.5426
  121MOL0     C16238   4.397   2.303   0.290  0.3947  0.0504  0.7340
  121MOL0     C16239   4.256   2.283   0.345  0.0717  0.6403 -0.0756
  121MOL0     C16240   4.174   2.196   0.252  0.6311 -0.4034  0.4909
  121MOL0     C16241   4.035   2.145   0.307  0.3838  0.5339 -0.7229
  121MOL0     C16242   3.943   2.251   0.377  0.5020 -0.0479 -1.0030
  121MOL0     C16243   3.866   2.330   0.273 -0.3242 -0.2083 -0.0766
  121MOL0     C16244   3.761   2.416   0.321 -1.0088  0.6327 -0.1703
  121MOL0    Cl16245   3.603   2.321   0.310  0.0560 -0.7178  0.2315
  121MOL0     C16246   4.748   2.450   0.507  0.4746 -0.0767 -0.5729
  121MOL0     C16247   4.859   2.473   0.587 -0.3476 -0.6836  0.3291
  121MOL0     O16248   5.138   2.399   0.630 -0.6064  0.2350  0.4280
  121MOL0     C16249   5.211   2.448   0.973  0.1896 -0.0621  0.3109
  121MOL0     C16250   5.318   2.468   1.058  0.7799 -0.1867 -0.2214
  121MOL0     N16251   6.085   2.555   1.020  0.4329  0.1319 -0.6707
  121MOL0     N16252   6.194   2.588   0.970 -0.2501  0.5175 -0.4833
  121MOL0     C16253   7.373   2.545   0.445 -0.2379  0.6681 -0.6016
  121MOL0     C16254   7.476   2.461   0.406 -0.5332 -0.7085  0.6435
  121MOL0     C16255   7.712   2.171   0.238  0.2225  0.2390 -0.0885
  121MOL0     C16256   7.846   2.148   0.289  0.2867 -1.2449 -0.9785
  121MOL0     C16257   7.945   2.121   0.192  0.1764  0.8719 -0.2499
  121MOL0     C16258   7.910   2.083   0.063 -0.5117 -0.8811  0.6297
  121MOL0     O16259   7.997   2.069  -0.039  0.0055  0.6480  0.1947
  121MOL0     C16260   8.113   1.986  -0.013 -0.1065  0.4230 -0.0576
  121MOL0     C16261   8.176   1.946  -0.143  0.3621  0.6993  1.0836
  121MOL0     C16262   8.073   1.866  -0.226 -0.1697  0.3148  0.8198
  121MOL0     C16263   8.060   1.718  -0.176  0.6460  0.1415 -0.0953
  121MOL0     C16264   8.004   1.626  -0.278 -0.3781 -0.6398  0.2929
  121MOL0     C16265   7.966   1.545  -0.364  0.4104 -0.8685 -0.2408
  121MOL0     C16266   7.776   2.094   0.028  0.2951 -0.6300  0.8396
  121MOL0     C16267   7.681   2.144   0.104  0.0934 -0.4338 -0.0962
  121MOL0     H16268   7.564   2.300   0.687  0.6191 -1.9553 -2.4989
  121MOL0     H16269   7.367   2.420   0.771  2.2894 -3.0124 -0.5823
  121MOL0     H16270   7.102   2.461   0.581  1.6186  1.7691 -1.1295
  121MOL0     H16271   7.137   2.458   0.757 -1.1502  0.1437  1.9088
  121MOL0     H16272   7.063   2.685   0.787  0.4705  1.0455 -1.0299
  121MOL0     H16273   7.001   2.689   0.614  0.8565  0.0112  0.0618
  121MOL0     H16274   6.831   2.563   0.662  0.7197  0.1791 -0.7852
  121MOL0     H16275   6.908   2.466   0.789 -2.2953 -0.1758  0.2828
  121MOL0     H16276   6.870   2.651   0.943  4.3852  2.1910 -2.0183
  121MOL0     H16277   6.824   2.748   0.804 -0.8530 -1.3276 -2.1225
  121MOL0     H16278   6.634   2.668   0.956 -0.4759  0.1209  0.1672
  121MOL0     H16279   6.617   2.679   0.777  1.0790 -1.8245 -1.0008
  121MOL0     H16280   6.626   2.433   0.746  0.5758 -1.0822  0.2011
  121MOL0     H16281   6.698   2.420   0.906 -0.6875  0.1210 -0.7355
  121MOL0     H16282   6.456   2.334   0.920  0.6387  0.1091  0.5334
  121MOL0     H16283   6.455   2.490   1.007 -1.5212  1.0590 -1.1004
  121MOL0     H16284   6.358   2.431   0.731 -3.7032 -0.9724 -0.3493
  121MOL0     H16285   6.379   2.595   0.794 -1.2357 -0.5396 -0.5938
  121MOL0     H16286   6.155   2.284   0.860  2.2075  0.4261  0.5812
  121MOL0     H16287   5.878   2.320   0.927  0.2916 -0.9330  0.7895
  121MOL0     H16288   5.952   2.287   1.084  3.2473  1.2737 -0.6536
  121MOL0     H16289   5.790   2.534   0.998 -0.9178 -1.5968 -0.7570
  121MOL0     H16290   5.858   2.519   1.165 -0.2779 -5.2700  3.3946
  121MOL0     H16291   5.708   2.306   1.173  0.3411  0.7492  2.4448
  121MOL0     H16292   5.640   2.348   1.018  0.7727 -0.9790  1.5761
  121MOL0     H16293   5.644   2.515   1.264  2.8039 -1.0144 -1.9422
  121MOL0     H16294   5.514   2.407   1.230  0.0008 -0.7277  0.1817
  121MOL0     H16295   5.526   2.625   0.850 -0.5790 -1.4724 -2.5852
  121MOL0     H16296   5.457   2.633   0.628 -0.7846 -0.2297  1.5553
  121MOL0     H16297   5.381   2.487   0.573  0.5295  2.1804 -3.4862
  121MOL0     H16298   5.281   2.630   0.613  0.3874  1.6220 -0.4407
  121MOL0     H16299   4.772   2.288   0.867 -1.4057 -0.1728  0.0726
  121MOL0     H16300   4.572   2.259   0.740  0.8549 -0.8664  1.6163
  121MOL0     H16301   4.449   2.486   0.385  1.7582  1.5101 -2.8154
  121MOL0     H16302   4.587   2.403   0.310 -1.5988  3.4685 -2.9176
  121MOL0     H16303   4.381   2.346   0.191  1.8380  0.3148  0.6006
  121MOL0     H16304   4.429   2.200   0.271 -1.3702 -0.5417  0.7151
  121MOL0     H16305   4.211   2.377   0.378 -1.7862  0.0817 -0.8971
  121MOL0     H16306   4.271   2.211   0.426  0.9754 -0.7619 -1.4397
  121MOL0     H16307   4.161   2.269   0.171 -0.8666  0.5187  1.5158
  121MOL0     H16308   4.239   2.111   0.229  2.1177  1.0765 -1.1533
  121MOL0     H16309   4.063   2.086   0.395  0.4487  0.9236 -0.4776
  121MOL0     H16310   3.998   2.079   0.229 -0.5412  2.7823 -2.3037
  121MOL0     H16311   3.873   2.192   0.437  2.4059 -1.5910 -0.2092
  121MOL0     H16312   3.998   2.322   0.439  1.2753 -1.7891  0.3868
  121MOL0     H16313   3.831   2.263   0.194  0.4395  0.3420 -0.9039
  121MOL0     H16314   3.933   2.400   0.222 -2.2618 -0.1098 -2.7337
  121MOL0     H16315   3.759   2.503   0.255 -0.4314  1.1445  0.4715
  121MOL0     H16316   3.774   2.455   0.423 -2.6999  2.0943 -0.4696
  121MOL0     H16317   4.745   2.494   0.408  1.6090 -0.4335 -0.7750
  121MOL0     H16318   4.938   2.540   0.555  0.7265 -1.4070  1.3971
  121MOL0     H16319   5.115   2.405   1.000  0.0389 -0.2861 -0.5546
  121MOL0     H16320   5.302   2.448   1.164 -2.0358  2.0681 -0.1051
  121MOL0     H16321   7.325   2.616   0.378 -1.7025  0.6978  0.4454
  121MOL0     H16322   7.530   2.459   0.312  1.5032  0.8933  1.6998
  121MOL0     H16323   7.876   2.159   0.393  3.1662 -0.8660 -1.7559
  121MOL0     H16324   8.043   2.108   0.235  0.0880  4.1897  1.2327
  121MOL0     H16325   8.186   2.053   0.033  0.6674  1.5501 -2.7127
  121MOL0     H16326   8.093   1.894   0.042  2.3424 -0.0473  0.2008
  121MOL0     H16327   8.272   1.897  -0.126  0.1696 -0.4669 -0.8555
  121MOL0     H16328   8.212   2.034  -0.198 -0.0839  1.1307  1.4652
  121MOL0     H16329   8.101   1.863  -0.332 -1.7059 -1.5083  0.4195
  121MOL0     H16330   7.974   1.912  -0.228  0.1349  0.9662 -0.1075
  121MOL0     H16331   8.008   1.709  -0.080 -1.3255  0.8376 -1.0289
  121MOL0     H16332   8.162   1.681  -0.163  0.2557 -1.1548 -0.5899
  121MOL0     H16333   7.941   1.471  -0.437  0.8863  0.8614 -2.2348
  121MOL0     H16334   7.744   2.064  -0.071  1.5324 -1.8373  0.7821
  121MOL0     H16335   7.585   2.175   0.065  0.2311  0.0710 -0.0418
  122MOL0     O16336   2.091  10.937   3.427 -0.2638 -0.0999  0.1539
  122MOL0     C16337   2.123  10.822   3.459 -0.2982  0.1732  0.8907
  122MOL0     O16338   2.033  10.711   3.452  0.5463  0.1951  0.3824
  122MOL0     C16339   1.904  10.714   3.414 -0.7046 -0.3452  0.5915
  122MOL0     C16340   1.808  10.814   3.432 -0.0725 -0.4206 -0.4436
  122MOL0     C16341   1.669  10.778   3.395 -0.2056 -0.5966  1.5375
  122MOL0     C16342   1.628  10.652   3.352  0.0911  0.3960  0.7748
  122MOL0     O16343   1.492  10.628   3.350  0.0426 -0.4647  0.1646
  122MOL0     C16344   1.452  10.561   3.469  0.1168  0.1167  0.4686
  122MOL0     C16345   1.305  10.531   3.458  0.8667  0.8061  0.3171
  122MOL0     C16346   1.220  10.656   3.468  0.2598 -0.2202 -0.2255
  122MOL0     C16347   1.074  10.618   3.460  1.0672  0.7097 -0.0377
  122MOL0     C16348   0.977  10.733   3.458  0.8179 -0.5923  0.3545
  122MOL0     C16349   0.840  10.688   3.468  0.5575 -0.4351  0.2200
  122MOL0     C16350   0.742  10.810   3.442 -0.1981  0.2252 -0.0390
  122MOL0     C16351   0.721  10.917   3.553 -0.0469  1.2335 -0.5377
  122MOL0     N16352   0.663  11.045   3.514 -0.0775  1.2145 -0.1794
  122MOL0     C16353   0.536  11.070   3.475  0.8504 -0.1012  0.6146
  122MOL0     C16354   0.514  11.204   3.453  0.5223  0.1164  0.0066
  122MOL0     C16355   0.394  11.290   3.441 -0.0097 -0.2366 -0.5546
  122MOL0     C16356   0.262  11.213   3.401  0.1325  0.1301  0.6139
  122MOL0     C16357   0.148  11.310   3.372  0.1835  0.7201 -0.4241
  122MOL0     C16358   0.018  11.240   3.350 -0.3927 -0.8727  0.1988
  122MOL0     O16359  -0.066  11.348   3.307  0.1707  0.2689  0.5006
  122MOL0     C16360  -0.198  11.336   3.313  0.3103  0.4877  0.4055
  122MOL0     C16361  -0.272  11.448   3.268  0.0094 -0.0325 -0.4509
  122MOL0     C16362  -0.417  11.447   3.265 -0.7284  0.2968  0.0339
  122MOL0     C16363  -0.485  11.580   3.230  0.0372  0.6424 -0.5374
  122MOL0     C16364  -0.487  11.332   3.306  0.2746  0.1182 -0.2464
  122MOL0     C16365  -0.634  11.324   3.323  0.4782  0.1412  0.4121
  122MOL0     O16366  -0.670  11.215   3.392  0.3249 -0.5883  0.0230
  122MOL0     C16367  -0.799  11.181   3.407  0.3229 -0.1269 -0.5096
  122MOL0     C16368  -0.857  11.157   3.532 -0.1999 -0.1833  0.2349
  122MOL0     C16369  -0.991  11.111   3.552  0.4053  1.0491 -0.2320
  122MOL0     C16370  -1.083  11.101   3.451  0.5240 -0.0759 -0.5359
  122MOL0     O16371  -1.207  11.054   3.488  0.7116  0.0698  0.5841
  122MOL0     C16372  -1.317  11.110   3.419 -0.2118  0.4838 -0.3081
  122MOL0     C16373  -1.445  11.045   3.472  0.4781 -0.2335  0.1423
  122MOL0     C16374  -1.560  11.094   3.391  0.3135 -0.6978  0.7060
  122MOL0     C16375  -1.683  11.039   3.446  0.8803  0.4405 -0.9296
  122MOL0     C16376  -1.809  11.085   3.368  0.4857 -0.0690 -0.1364
  122MOL0     C16377  -1.939  11.037   3.425  0.2725 -0.8801  0.1454
  122MOL0     C16378  -2.052  11.099   3.342  0.6456  0.8044 -0.5460
  122MOL0     C16379  -2.169  11.003   3.363 -0.0857  0.3050  0.2320
  122MOL0    Cl16380  -2.200  10.960   3.539 -0.2441 -0.1612 -0.1860
  122MOL0     C16381  -1.032  11.122   3.322  0.2580  0.4428  0.3311
  122MOL0     C16382  -0.899  11.165   3.305  0.1930  1.0518  0.7360
  122MOL0     O16383  -0.708  11.395   3.256  0.2102  0.4593 -0.2129
  122MOL0     C16384  -0.403  11.221   3.341  0.2387 -0.2277 -0.1317
  122MOL0     C16385  -0.260  11.223   3.348 -0.4911  0.0772  0.4561
  122MOL0     N16386   0.640  11.263   3.482  0.1734 -0.1117 -0.7797
  122MOL0     N16387   0.721  11.166   3.510 -0.0993 -0.0018 -0.5032
  122MOL0     C16388   1.730  10.568   3.316 -0.6961  0.4372  0.0061
  122MOL0     C16389   1.863  10.593   3.347 -0.4613 -0.4623  0.2870
  122MOL0     C16390   2.264  10.797   3.488  0.3726 -0.5702  0.7493
  122MOL0     C16391   2.305  10.675   3.551 -0.6669 -0.4855  0.7327
  122MOL0     C16392   2.442  10.668   3.579 -0.4731  0.5781 -0.0053
  122MOL0     C16393   2.534  10.769   3.556  0.3987 -0.2094  0.1421
  122MOL0     O16394   2.661  10.750   3.590 -0.9773 -0.1775 -0.2636
  122MOL0     C16395   2.747  10.862   3.631 -0.6014  0.0657 -0.3098
  122MOL0     C16396   2.861  10.893   3.525  0.8315  0.4885 -0.4314
  122MOL0     C16397   2.982  10.808   3.563 -0.1793 -0.4795  0.2821
  122MOL0     C16398   2.976  10.652   3.561 -0.3442 -0.1941 -0.2740
  122MOL0     C16399   2.985  10.614   3.703 -0.5698  0.3062  0.6206
  122MOL0     C16400   2.984  10.593   3.816  1.1080 -0.1965 -0.0231
  122MOL0     C16401   2.495  10.888   3.500  0.1074  0.4027 -0.1239
  122MOL0     C16402   2.362  10.900   3.463 -0.2311 -0.3300  0.2518
  122MOL0     H16403   1.836  10.909   3.476  1.1448 -0.3840 -1.2310
  122MOL0     H16404   1.599  10.855   3.426  1.1056  0.5888  1.6494
  122MOL0     H16405   1.494  10.461   3.486 -3.1093 -1.4886 -0.1174
  122MOL0     H16406   1.473  10.614   3.563  0.0353 -2.3557  1.9778
  122MOL0     H16407   1.291  10.478   3.363 -0.7529 -1.4578  1.6974
  122MOL0     H16408   1.269  10.461   3.534 -1.8818  0.7489 -0.9097
  122MOL0     H16409   1.248  10.710   3.559 -0.5968 -0.5724  0.2497
  122MOL0     H16410   1.243  10.722   3.384  1.5781 -1.5520 -0.9471
  122MOL0     H16411   1.076  10.577   3.358  1.0782  1.2547 -0.2623
  122MOL0     H16412   1.044  10.535   3.525 -1.4025  1.3822 -0.2358
  122MOL0     H16413   0.996  10.801   3.541 -1.5143  0.0922  0.4083
  122MOL0     H16414   0.994  10.790   3.367 -0.4774  0.1787  0.5605
  122MOL0     H16415   0.825  10.603   3.401  0.0480  0.6576 -1.0904
  122MOL0     H16416   0.836  10.651   3.571  1.5494  1.9829  1.1886
  122MOL0     H16417   0.763  10.843   3.340 -2.4592 -0.1544 -0.6878
  122MOL0     H16418   0.646  10.757   3.434 -0.2592 -0.1639  2.3643
  122MOL0     H16419   0.819  10.924   3.602  0.1408  0.3755 -0.7669
  122MOL0     H16420   0.653  10.876   3.628  1.3737  0.3899  0.3479
  122MOL0     H16421   0.450  11.005   3.476  1.1849 -0.5887 -0.6952
  122MOL0     H16422   0.375  11.343   3.535  0.7551 -0.8939 -0.0151
  122MOL0     H16423   0.421  11.371   3.372 -2.3703  1.5727  0.4723
  122MOL0     H16424   0.238  11.147   3.485  0.2858  0.1331  0.6596
  122MOL0     H16425   0.271  11.166   3.303  0.5076  1.4284  0.0097
  122MOL0     H16426   0.177  11.360   3.279  3.9888 -1.2661 -0.4709
  122MOL0     H16427   0.133  11.378   3.457  0.6678 -0.0082  0.2491
  122MOL0     H16428  -0.016  11.188   3.441  1.1596 -1.2593  0.5827
  122MOL0     H16429   0.035  11.169   3.268  0.9374 -0.4368  0.0763
  122MOL0     H16430  -0.213  11.532   3.234  0.3795  0.0533  0.3652
  122MOL0     H16431  -0.548  11.573   3.141 -0.0552  1.8840 -0.5782
  122MOL0     H16432  -0.539  11.623   3.314  1.3691  0.8699  0.2310
  122MOL0     H16433  -0.415  11.663   3.216 -0.5975  0.8721 -2.7358
  122MOL0     H16434  -0.800  11.157   3.624 -2.6658 -0.7564  1.8680
  122MOL0     H16435  -1.031  11.096   3.652  2.3892  2.4701  0.8484
  122MOL0     H16436  -1.321  11.219   3.430  1.2621  0.4012  1.3239
  122MOL0     H16437  -1.308  11.090   3.311 -1.2719 -1.5809 -0.0791
  122MOL0     H16438  -1.457  10.937   3.464 -1.3069 -0.0597  0.1411
  122MOL0     H16439  -1.454  11.058   3.580  1.3955  0.8976  0.1092
  122MOL0     H16440  -1.548  11.065   3.287  2.1261  1.1157  0.3537
  122MOL0     H16441  -1.571  11.203   3.386 -1.0976 -0.6294  3.2978
  122MOL0     H16442  -1.672  10.930   3.440 -0.5106  0.2812 -0.9341
  122MOL0     H16443  -1.694  11.060   3.553 -1.4076 -0.6431 -0.9086
  122MOL0     H16444  -1.800  11.061   3.262 -2.8264 -2.0798 -0.0887
  122MOL0     H16445  -1.810  11.194   3.375 -2.6502  0.3461 -3.8898
  122MOL0     H16446  -1.941  10.928   3.414  1.9426 -0.7341 -2.0805
  122MOL0     H16447  -1.947  11.065   3.531 -2.0384  1.2773 -0.5129
  122MOL0     H16448  -2.029  11.108   3.235  0.7082 -0.0188 -0.6051
  122MOL0     H16449  -2.073  11.203   3.368 -4.6533  0.4924 -2.3675
  122MOL0     H16450  -2.159  10.912   3.302  0.0362 -0.3237  1.1653
  122MOL0     H16451  -2.260  11.054   3.331  0.6068  1.3718 -0.1112
  122MOL0     H16452  -1.100  11.091   3.244 -2.4446 -2.5321  3.5232
  122MOL0     H16453  -0.866  11.176   3.202  0.4796 -0.8093  0.6043
  122MOL0     H16454  -0.450  11.126   3.366  0.4941 -0.0505  1.0374
  122MOL0     H16455  -0.216  11.130   3.384  0.2875  0.0081 -0.6072
  122MOL0     H16456   1.703  10.473   3.272  0.3823  1.2860 -2.7205
  122MOL0     H16457   1.937  10.521   3.316 -2.6615 -0.8420 -5.2891
  122MOL0     H16458   2.241  10.589   3.568  0.3848 -1.7094 -1.1893
  122MOL0     H16459   2.468  10.569   3.617 -2.7685 -0.0395  0.1294
  122MOL0     H16460   2.693  10.953   3.659  2.7045  2.2533 -0.5049
  122MOL0     H16461   2.784  10.836   3.730 -0.1676  0.2346 -0.4276
  122MOL0     H16462   2.874  11.001   3.533  1.4715  0.3189  1.3088
  122MOL0     H16463   2.831  10.872   3.422  2.0093  3.5545 -1.5025
  122MOL0     H16464   3.011  10.849   3.660  0.5881  0.9878 -0.5264
  122MOL0     H16465   3.068  10.833   3.500 -1.0166 -1.4262 -1.2835
  122MOL0     H16466   3.065  10.613   3.510  0.2497 -1.5295  1.6436
  122MOL0     H16467   2.889  10.616   3.506  1.4990 -3.4483 -1.3628
  122MOL0     H16468   2.970  10.578   3.922  3.6944  1.5898  0.6570
  122MOL0     H16469   2.566  10.966   3.473  1.3978 -1.0698 -1.0970
  122MOL0     H16470   2.324  10.992   3.419 -0.7764  0.0312  1.4563
  123MOL0     O16471  11.137   2.665   7.543  0.1940  0.3071 -0.5250
  123MOL0     C16472  11.171   2.740   7.453 -0.4802 -0.1800 -0.6797
  123MOL0     O16473  11.252   2.846   7.472  0.7919 -0.4182 -0.7621
  123MOL0     C16474  11.286   2.882   7.605 -0.8808  0.5144 -0.1855
  123MOL0     C16475  11.211   2.889   7.720  0.0596 -0.5840  0.1223
  123MOL0     C16476  11.254   2.931   7.846  0.6367  0.6765 -0.5645
  123MOL0     C16477  11.389   2.961   7.858 -0.8050 -0.4910  0.1680
  123MOL0     O16478  11.433   3.003   7.977 -0.2827 -0.3449 -0.7615
  123MOL0     C16479  11.536   2.933   8.051  0.2808  0.2853 -0.2693
  123MOL0     C16480  11.664   3.015   8.062  0.2964  0.4795 -0.4890
  123MOL0     C16481  11.781   2.935   8.124  0.7164  0.0978 -0.3271
  123MOL0     C16482  11.881   3.032   8.183  0.1608  0.2699  0.2063
  123MOL0     C16483  11.980   2.945   8.254 -0.2454  0.1012  0.3007
  123MOL0     C16484  12.103   3.029   8.305 -0.8506 -0.5916  0.3325
  123MOL0     C16485  12.059   3.125   8.416 -0.8121 -0.3514  1.3818
  123MOL0     C16486  12.184   3.178   8.485  0.6280 -0.4501 -0.2955
  123MOL0     N16487  12.148   3.246   8.610  0.1928 -0.5905  0.2652
  123MOL0     C16488  12.191   3.250   8.739  0.7816  0.2163  0.7195
  123MOL0     C16489  12.114   3.345   8.803 -0.3444  0.4742 -0.0113
  123MOL0     C16490  12.111   3.368   8.955 -0.5871 -0.5524  1.3028
  123MOL0     C16491  11.993   3.464   8.978  0.2838 -0.1485  0.2558
  123MOL0     C16492  11.963   3.484   9.130 -0.7515 -0.2336 -0.1004
  123MOL0     C16493  11.884   3.614   9.161 -0.2919  0.4819 -0.0392
  123MOL0     O16494  11.839   3.613   9.295  0.3145  0.1836  0.4447
  123MOL0     C16495  11.924   3.667   9.384  0.0716 -0.1117 -0.2372
  123MOL0     C16496  12.025   3.596   9.443 -0.4969  0.3377  0.5062
  123MOL0     C16497  12.119   3.662   9.525 -0.4575  0.0020 -0.9207
  123MOL0     C16498  12.230   3.577   9.573  0.2042  0.3597 -0.0645
  123MOL0     C16499  12.109   3.803   9.542  0.3508 -0.3718  0.7067
  123MOL0     C16500  12.207   3.889   9.608  0.4514 -0.2014  0.4310
  123MOL0     O16501  12.181   4.027   9.608 -0.1276 -0.8667 -0.1484
  123MOL0     C16502  12.275   4.109   9.668  0.8417  0.4961 -0.3064
  123MOL0     C16503  12.360   4.188   9.593 -0.0292  0.9581  0.5575
  123MOL0     C16504  12.454   4.261   9.652 -0.1878  0.2125 -0.2397
  123MOL0     C16505  12.459   4.274   9.792 -0.3624  0.4117 -0.9045
  123MOL0     O16506  12.544   4.349   9.869  0.2802  0.2829 -0.5403
  123MOL0     C16507  12.554   4.481   9.801  1.0555  0.1932 -0.1578
  123MOL0     C16508  12.610   4.583   9.908 -0.7187 -0.3376 -0.5257
  123MOL0     C16509  12.746   4.535   9.956  0.1910  0.2591 -0.0437
  123MOL0     C16510  12.827   4.617  10.052  0.1583 -0.3535  1.5239
  123MOL0     C16511  12.938   4.541  10.113 -0.2939  0.0811 -0.2559
  123MOL0     C16512  13.027   4.624  10.210 -0.2604  0.0028  0.2988
  123MOL0     C16513  13.117   4.541  10.299 -0.1065  0.6750 -0.7407
  123MOL0     C16514  13.234   4.463  10.228  0.4404 -0.1542 -0.6430
  123MOL0    Cl16515  13.336   4.376  10.346  0.1151  0.2521  0.8543
  123MOL0     C16516  12.375   4.192   9.868 -0.6824 -1.0396 -0.9587
  123MOL0     C16517  12.289   4.107   9.811  0.2922  0.3928 -0.7612
  123MOL0     O16518  12.302   3.841   9.660  0.1815  0.2855 -0.4322
  123MOL0     C16519  11.989   3.865   9.501  0.1331  0.5942 -0.9934
  123MOL0     C16520  11.902   3.800   9.420  0.2461 -0.4485  0.0028
  123MOL0     N16521  12.026   3.402   8.714  0.0330 -0.4599 -0.5834
  123MOL0     N16522  12.044   3.342   8.600 -0.3956 -0.1621 -0.7203
  123MOL0     C16523  11.473   2.949   7.747 -0.2148  0.0047 -0.9310
  123MOL0     C16524  11.427   2.908   7.621 -0.2287  0.0985 -0.8888
  123MOL0     C16525  11.107   2.719   7.335 -0.2236 -0.1761  0.7425
  123MOL0     C16526  11.149   2.794   7.216  0.6382  0.5637 -1.0843
  123MOL0     C16527  11.091   2.768   7.090 -0.4053  0.7269 -0.8127
  123MOL0     C16528  10.981   2.682   7.071 -0.7215  0.3406 -0.1945
  123MOL0     O16529  10.902   2.659   6.962 -0.2474 -0.0328 -0.5190
  123MOL0     C16530  10.929   2.715   6.833  0.0398 -0.5138  0.6095
  123MOL0     C16531  10.885   2.616   6.722 -0.9916  0.3147  0.3356
  123MOL0     C16532  10.746   2.551   6.742 -1.4025 -0.6839  0.5022
  123MOL0     C16533  10.713   2.455   6.626  0.2495  0.3356  1.3786
  123MOL0     C16534  10.784   2.325   6.650 -0.5457  0.7061  1.0340
  123MOL0     C16535  10.856   2.220   6.650 -0.2493  0.2781 -0.4727
  123MOL0     C16536  10.937   2.623   7.185  0.2859 -0.4332 -0.9748
  123MOL0     C16537  11.005   2.635   7.307  0.4339 -0.5359 -0.1955
  123MOL0     H16538  11.106   2.866   7.703  0.4429 -1.6972 -0.8716
  123MOL0     H16539  11.193   2.926   7.936 -0.5769  3.4393 -1.1317
  123MOL0     H16540  11.496   2.924   8.152 -0.4262  1.6983 -0.3999
  123MOL0     H16541  11.562   2.833   8.015  0.6800 -0.0763  0.9832
  123MOL0     H16542  11.687   3.044   7.959 -1.4034  3.1051 -0.2335
  123MOL0     H16543  11.645   3.108   8.117 -3.1443 -0.8662  0.8452
  123MOL0     H16544  11.744   2.864   8.199  0.7586 -2.0374 -2.2297
  123MOL0     H16545  11.835   2.871   8.053  0.0657 -0.9026  0.0504
  123MOL0     H16546  11.921   3.091   8.100 -2.9521  1.7112 -0.4335
  123MOL0     H16547  11.828   3.095   8.256 -0.2793  0.2206 -0.0684
  123MOL0     H16548  11.943   2.900   8.347  2.6830 -1.3277  0.9022
  123MOL0     H16549  12.006   2.865   8.183 -3.2533  0.1796 -1.0565
  123MOL0     H16550  12.181   2.962   8.342 -1.4139 -1.7848 -0.5647
  123MOL0     H16551  12.138   3.092   8.223 -0.9252 -1.7205 -0.6051
  123MOL0     H16552  12.002   3.204   8.367 -0.5539 -1.2194 -0.3927
  123MOL0     H16553  12.003   3.080   8.499 -3.3098 -2.7876 -1.3624
  123MOL0     H16554  12.225   3.257   8.421  1.0753  2.1246  2.8995
  123MOL0     H16555  12.256   3.100   8.512  1.0022  1.0441  3.7043
  123MOL0     H16556  12.279   3.200   8.779  2.9854  2.0944 -1.4273
  123MOL0     H16557  12.116   3.268   9.001  2.3355 -2.2322 -2.1345
  123MOL0     H16558  12.203   3.420   8.983 -1.1428  1.5600 -0.5690
  123MOL0     H16559  11.899   3.427   8.935  2.0260 -2.1099 -2.1028
  123MOL0     H16560  12.011   3.556   8.922  1.0372 -1.0101 -0.9562
  123MOL0     H16561  12.056   3.497   9.187 -0.4863  1.9459 -0.9469
  123MOL0     H16562  11.898   3.405   9.170  1.0120 -1.6417  0.1548
  123MOL0     H16563  11.795   3.634   9.101 -1.7410  2.1590  2.5187
  123MOL0     H16564  11.958   3.694   9.147  1.7787 -0.1422  5.1649
  123MOL0     H16565  12.028   3.488   9.433  0.7541  0.4678 -1.0826
  123MOL0     H16566  12.242   3.575   9.682  2.6921  0.8568 -0.2668
  123MOL0     H16567  12.211   3.477   9.534 -2.1074  0.8265 -0.2765
  123MOL0     H16568  12.319   3.605   9.516 -0.9918 -0.1971 -2.3163
  123MOL0     H16569  12.369   4.178   9.485 -0.2658 -0.9711  0.6951
  123MOL0     H16570  12.527   4.323   9.601  0.0747  0.5974  0.5718
  123MOL0     H16571  12.624   4.488   9.716 -0.2766  0.3093 -1.2841
  123MOL0     H16572  12.455   4.514   9.770  0.4672  1.0923  2.5111
  123MOL0     H16573  12.626   4.682   9.866  3.1175 -0.8540 -0.6040
  123MOL0     H16574  12.548   4.590   9.998  1.2406  0.7151  0.7847
  123MOL0     H16575  12.800   4.523   9.861 -0.4726 -1.1204 -0.2708
  123MOL0     H16576  12.727   4.438  10.003  0.0227  1.1635  1.8267
  123MOL0     H16577  12.863   4.704   9.997 -1.6229 -0.5614 -0.0810
  123MOL0     H16578  12.757   4.649  10.130 -1.2581  1.6138 -0.4108
  123MOL0     H16579  13.001   4.510  10.030  0.3896 -1.7497  0.8911
  123MOL0     H16580  12.897   4.455  10.167  1.0580  0.3188  1.2411
  123MOL0     H16581  13.080   4.707  10.161 -0.1644 -0.7937 -0.9893
  123MOL0     H16582  12.958   4.674  10.279 -0.2110  0.2518  0.1698
  123MOL0     H16583  13.059   4.467  10.355  0.6757  0.9249  0.4533
  123MOL0     H16584  13.172   4.593  10.378  2.7894 -3.1470  0.0493
  123MOL0     H16585  13.291   4.532  10.165  0.4396  1.6017  1.1798
  123MOL0     H16586  13.194   4.381  10.167  1.4555  0.7572 -2.6294
  123MOL0     H16587  12.370   4.202   9.976 -0.6827  0.8681 -1.1088
  123MOL0     H16588  12.228   4.037   9.866  0.3198  0.1477 -1.0386
  123MOL0     H16589  11.965   3.964   9.537  0.8331  0.0819  0.9852
  123MOL0     H16590  11.812   3.851   9.388 -0.2864 -0.2023  1.7801
  123MOL0     H16591  11.580   2.966   7.756  0.3128 -1.5897 -3.4106
  123MOL0     H16592  11.499   2.895   7.541  0.7919 -1.6755  0.2317
  123MOL0     H16593  11.226   2.871   7.225 -0.0992  1.0841  1.4947
  123MOL0     H16594  11.131   2.819   7.002  0.2132 -1.2382 -1.7297
  123MOL0     H16595  10.875   2.807   6.806  0.8227 -0.7220 -1.9617
  123MOL0     H16596  11.036   2.731   6.819 -0.1080 -0.2377 -0.3005
  123MOL0     H16597  10.958   2.538   6.696  0.0727  0.6053  2.2631
  123MOL0     H16598  10.887   2.674   6.630  1.7736  2.4901  1.6261
  123MOL0     H16599  10.678   2.637   6.743  1.1155  1.4225  0.2104
  123MOL0     H16600  10.748   2.491   6.834 -1.0709 -0.3292  0.7298
  123MOL0     H16601  10.733   2.495   6.526 -0.6932 -4.5727 -1.0618
  123MOL0     H16602  10.608   2.425   6.630  1.4148 -5.1932 -0.4527
  123MOL0     H16603  10.921   2.134   6.650 -1.7534 -0.9205  0.5364
  123MOL0     H16604  10.849   2.560   7.176  0.9374 -1.4115 -0.6696
  123MOL0     H16605  10.967   2.573   7.388 -0.8302 -1.0901 -1.1904
  124MOL0     O16606   5.356   5.078  10.951  0.0351 -0.0351  0.2863
  124MOL0     C16607   5.424   4.995  10.894  0.2134  0.7025  0.4179
  124MOL0     O16608   5.379   4.892  10.812 -0.1183  0.0065  0.5389
  124MOL0     C16609   5.250   4.879  10.770  0.3379 -0.0228 -0.1333
  124MOL0     C16610   5.166   4.986  10.746 -0.1584 -0.3036  0.1826
  124MOL0     C16611   5.032   4.960  10.710 -0.1960 -0.0310  0.1672
  124MOL0     C16612   4.987   4.832  10.700  0.0379  0.4042 -0.0907
  124MOL0     O16613   4.859   4.779  10.677  0.5909 -0.1801 -0.1047
  124MOL0     C16614   4.756   4.884  10.690  0.8860 -0.0562 -0.2345
  124MOL0     C16615   4.619   4.806  10.710  0.4830  0.6672 -0.3148
  124MOL0     C16616   4.622   4.744  10.848 -0.2548  1.0814  0.3076
  124MOL0     C16617   4.488   4.687  10.878  0.4121 -0.0123  0.1976
  124MOL0     C16618   4.474   4.639  11.022 -0.6757 -0.3862 -0.1251
  124MOL0     C16619   4.478   4.754  11.125 -0.2778 -0.1853 -0.7421
  124MOL0     C16620   4.512   4.696  11.264  0.3648  0.4427  1.2246
  124MOL0     C16621   4.418   4.585  11.317  0.1726 -0.5890 -0.0668
  124MOL0     N16622   4.282   4.632  11.326  0.5624  1.1387 -0.3278
  124MOL0     C16623   4.248   4.707  11.433 -1.4074 -0.1662  0.3812
  124MOL0     C16624   4.116   4.737  11.419  0.6089 -1.2937  0.5525
  124MOL0     C16625   4.003   4.798  11.508  0.6075  0.9579 -0.0154
  124MOL0     C16626   3.931   4.688  11.596 -0.3518 -0.8734  0.1620
  124MOL0     C16627   3.787   4.716  11.640  0.2790  0.0053 -0.3825
  124MOL0     C16628   3.672   4.714  11.530 -0.0030  0.8553  0.5740
  124MOL0     O16629   3.679   4.830  11.444 -0.1330  0.4422 -0.8024
  124MOL0     C16630   3.572   4.888  11.390  0.4108 -0.5151  0.2020
  124MOL0     C16631   3.596   4.991  11.306 -0.4013  0.0160  0.9161
  124MOL0     C16632   3.494   5.057  11.233 -0.4482  0.6103  0.2372
  124MOL0     C16633   3.537   5.168  11.145  0.5140  1.4195  0.2626
  124MOL0     C16634   3.357   5.033  11.258  0.6174 -0.5965 -0.8926
  124MOL0     C16635   3.238   5.100  11.191 -0.3704  0.3443 -0.1060
  124MOL0     O16636   3.119   5.072  11.246 -0.4507 -0.8232  0.3704
  124MOL0     C16637   3.009   5.131  11.190  0.0631 -0.7998  0.1252
  124MOL0     C16638   3.003   5.274  11.162 -0.8913 -0.2902 -0.1230
  124MOL0     C16639   2.899   5.338  11.096 -0.0922  1.0563  0.4561
  124MOL0     C16640   2.786   5.258  11.060 -0.0369  0.2487  0.2876
  124MOL0     O16641   2.684   5.308  10.983  0.4411  0.4464  0.0469
  124MOL0     C16642   2.654   5.448  11.001 -0.3497 -0.1560  0.3751
  124MOL0     C16643   2.503   5.469  11.000  0.0826 -0.1512  0.8157
  124MOL0     C16644   2.429   5.405  11.109 -0.0649  0.1519 -0.2769
  124MOL0     C16645   2.277   5.407  11.084 -0.3880 -0.9779 -0.1254
  124MOL0     C16646   2.217   5.348  11.216  0.0796 -0.3993 -0.4936
  124MOL0     C16647   2.065   5.340  11.210  0.3301 -0.9141 -0.4645
  124MOL0     C16648   2.023   5.223  11.294  0.5913  0.0701 -0.3039
  124MOL0     C16649   2.001   5.093  11.212  1.0377 -0.1425  0.2440
  124MOL0    Cl16650   1.854   5.099  11.122  0.0384  0.1589  0.1833
  124MOL0     C16651   2.784   5.119  11.088  0.2656  0.0831  0.6305
  124MOL0     C16652   2.895   5.059  11.156  0.8955  0.6393 -0.3708
  124MOL0     O16653   3.268   5.169  11.091  0.3476 -0.6493  0.2063
  124MOL0     C16654   3.337   4.940  11.363  0.6498 -0.2944 -1.0480
  124MOL0     C16655   3.439   4.873  11.433  0.4320  0.7945  0.8706
  124MOL0     N16656   4.078   4.694  11.299 -0.1417 -0.3292  0.3461
  124MOL0     N16657   4.180   4.631  11.238  0.7870 -0.4481 -0.0304
  124MOL0     C16658   5.083   4.726  10.713  0.3240 -0.0846 -0.3322
  124MOL0     C16659   5.211   4.751  10.749  0.1388  0.3864  0.1270
  124MOL0     C16660   5.569   5.006  10.915  0.3100 -0.2038  0.5693
  124MOL0     C16661   5.655   4.928  10.844  0.5236  1.3073 -0.3475
  124MOL0     C16662   5.793   4.928  10.859  0.1364  0.2945  0.5936
  124MOL0     C16663   5.850   5.009  10.957 -0.2626  0.1114  1.2490
  124MOL0     O16664   5.987   5.018  10.950  0.0966  0.2794 -0.6487
  124MOL0     C16665   6.055   5.128  11.006  0.8622  0.5737  0.7540
  124MOL0     C16666   6.207   5.114  10.990 -0.3528  0.2030  0.4206
  124MOL0     C16667   6.286   5.183  11.103 -0.8818  0.1515 -0.1198
  124MOL0     C16668   6.302   5.332  11.087 -1.0248  0.8746  0.0576
  124MOL0     C16669   6.375   5.375  10.969 -0.0111  0.4141  0.7390
  124MOL0     C16670   6.437   5.422  10.879 -0.4351  0.6919  0.6358
  124MOL0     C16671   5.763   5.101  11.027 -0.4484  0.0350  0.0619
  124MOL0     C16672   5.626   5.095  11.013  1.3858  0.4623  0.3682
  124MOL0     H16673   5.198   5.089  10.755 -1.9775  0.3334 -0.1774
  124MOL0     H16674   4.966   5.046  10.705  0.1208  0.1766 -0.4899
  124MOL0     H16675   4.751   4.949  10.777  0.0905  0.6223 -0.7664
  124MOL0     H16676   4.749   4.943  10.598 -1.8725  0.0823 -0.0325
  124MOL0     H16677   4.537   4.877  10.705 -2.5825 -2.6520 -1.5885
  124MOL0     H16678   4.593   4.735  10.631  0.1341 -0.8181  1.0684
  124MOL0     H16679   4.701   4.670  10.864  0.1448  1.5735  0.6692
  124MOL0     H16680   4.659   4.824  10.913  0.6177  1.3150 -0.4529
  124MOL0     H16681   4.408   4.761  10.868 -0.1290 -0.7906 -1.5864
  124MOL0     H16682   4.465   4.607  10.808 -1.8487  1.2741 -0.6407
  124MOL0     H16683   4.386   4.575  11.014 -0.0621 -1.2872  0.2627
  124MOL0     H16684   4.568   4.584  11.026  0.8710  2.2012  2.5081
  124MOL0     H16685   4.562   4.823  11.115 -1.9930  2.1043 -0.1325
  124MOL0     H16686   4.383   4.807  11.138  0.7334  0.9892  3.0050
  124MOL0     H16687   4.610   4.647  11.266 -0.0960 -0.5638  0.1791
  124MOL0     H16688   4.517   4.773  11.342 -0.6180  0.7231  1.0263
  124MOL0     H16689   4.454   4.561  11.417  0.2449 -1.1094 -0.2184
  124MOL0     H16690   4.417   4.500  11.248 -2.9223  1.4811 -2.9077
  124MOL0     H16691   4.315   4.738  11.512 -2.1713  1.8181  0.3077
  124MOL0     H16692   4.039   4.865  11.587 -1.0994 -0.7551  2.3730
  124MOL0     H16693   3.919   4.837  11.450  1.5218  0.7098 -1.5573
  124MOL0     H16694   3.996   4.675  11.683  1.3477 -2.6156 -1.2855
  124MOL0     H16695   3.929   4.594  11.540  1.7561  0.5290 -2.5308
  124MOL0     H16696   3.772   4.808  11.697 -1.4097 -1.0748  1.0446
  124MOL0     H16697   3.746   4.634  11.699 -0.0808 -0.8166 -1.7310
  124MOL0     H16698   3.573   4.697  11.573 -1.4034  1.5025 -2.1530
  124MOL0     H16699   3.696   4.640  11.453 -0.9619  1.0614  0.0676
  124MOL0     H16700   3.696   5.029  11.292 -1.5602  2.7785 -0.7425
  124MOL0     H16701   3.642   5.176  11.174  0.7633 -2.9195  1.3324
  124MOL0     H16702   3.516   5.134  11.043  0.2804 -1.8120  1.2582
  124MOL0     H16703   3.492   5.266  11.164 -1.6286  0.4923  0.2526
  124MOL0     H16704   3.094   5.330  11.180 -1.7840  0.4527  2.3304
  124MOL0     H16705   2.895   5.442  11.065 -2.3197  0.7577 -0.4607
  124MOL0     H16706   2.690   5.471  11.102 -1.9688 -0.8585  1.1484
  124MOL0     H16707   2.710   5.506  10.927  0.6362 -1.4301  0.0872
  124MOL0     H16708   2.471   5.573  10.998  0.9367  0.1287  1.1425
  124MOL0     H16709   2.469   5.431  10.903 -1.3333  2.3339  0.2364
  124MOL0     H16710   2.448   5.463  11.200 -1.9930  0.8438 -0.2666
  124MOL0     H16711   2.467   5.304  11.129 -2.3166 -0.1563  3.6003
  124MOL0     H16712   2.230   5.504  11.063 -0.8978 -1.5360 -1.6397
  124MOL0     H16713   2.255   5.343  10.998 -3.0216 -0.0470 -0.2162
  124MOL0     H16714   2.242   5.413  11.300 -2.9338  0.6771 -0.2966
  124MOL0     H16715   2.262   5.250  11.233 -3.3932 -2.0058  0.3928
  124MOL0     H16716   2.025   5.436  11.244  0.8009 -0.3051 -1.5682
  124MOL0     H16717   2.035   5.325  11.105  1.1582 -0.2918 -0.8073
  124MOL0     H16718   1.926   5.235  11.343  0.9039 -2.3929  1.0707
  124MOL0     H16719   2.096   5.215  11.375  1.5544 -0.5304 -1.1917
  124MOL0     H16720   1.995   5.007  11.280  1.7443 -1.6942 -1.5325
  124MOL0     H16721   2.081   5.074  11.140  1.6341 -1.8450  1.2807
  124MOL0     H16722   2.706   5.057  11.045 -1.0569  0.7877  1.9494
  124MOL0     H16723   2.891   4.951  11.167 -1.2685  0.3607 -2.8121
  124MOL0     H16724   3.239   4.909  11.398  0.9113 -0.2359 -0.2445
  124MOL0     H16725   3.418   4.797  11.508  2.7431 -3.6384 -2.4817
  124MOL0     H16726   5.051   4.623  10.700  0.2367 -0.1367  0.2842
  124MOL0     H16727   5.275   4.663  10.755 -1.9741 -1.2536 -0.0355
  124MOL0     H16728   5.618   4.857  10.770  0.8779 -0.4883  1.1138
  124MOL0     H16729   5.851   4.854  10.805  1.8440  1.0568  1.3080
  124MOL0     H16730   6.020   5.228  10.977 -0.9078  0.3238  1.8575
  124MOL0     H16731   6.027   5.120  11.111 -1.2551 -0.0898  0.2018
  124MOL0     H16732   6.235   5.143  10.888 -1.6672 -0.9020 -0.2837
  124MOL0     H16733   6.223   5.008  11.013 -1.3254  0.8912  5.2301
  124MOL0     H16734   6.387   5.142  11.115  0.2454  2.1192 -2.0978
  124MOL0     H16735   6.241   5.149  11.197 -0.0116 -2.3145 -0.5151
  124MOL0     H16736   6.360   5.376  11.169 -1.2930  2.2027 -0.4374
  124MOL0     H16737   6.209   5.388  11.095 -1.0155  0.7355  1.2902
  124MOL0     H16738   6.478   5.468  10.791 -1.2179  1.5379  0.6884
  124MOL0     H16739   5.814   5.165  11.098  2.8191  0.3011 -2.3214
  124MOL0     H16740   5.559   5.158  11.071 -2.3465 -1.8917 -1.0203
  125MOL0     O16741   3.245   3.106   2.325  0.1512  0.3363  0.1059
  125MOL0     C16742   3.283   3.219   2.311  1.3080 -0.6103  0.1595
  125MOL0     O16743   3.205   3.322   2.267  0.1803 -0.0319 -0.3901
  125MOL0     C16744   3.072   3.283   2.262  0.0226  0.3149  1.0440
  125MOL0     C16745   3.020   3.214   2.154  0.7824  0.2372  1.0500
  125MOL0     C16746   2.892   3.173   2.143  0.3900 -0.0523  0.0606
  125MOL0     C16747   2.794   3.221   2.235  1.0087 -0.3805  0.2850
  125MOL0     O16748   2.653   3.200   2.230 -1.0444  0.2275  0.3464
  125MOL0     C16749   2.612   3.247   2.106 -0.1855  0.0371  0.1608
  125MOL0     C16750   2.468   3.297   2.094 -0.4297  0.5351  0.0988
  125MOL0     C16751   2.381   3.187   2.140  0.6644  0.4284 -0.6616
  125MOL0     C16752   2.227   3.210   2.114 -0.0235 -0.1008  0.1944
  125MOL0     C16753   2.159   3.082   2.140  0.5086 -0.0966 -0.2329
  125MOL0     C16754   2.038   3.079   2.236  0.4527 -0.0150  0.7518
  125MOL0     C16755   1.920   3.161   2.182  0.2395 -0.1460  0.6293
  125MOL0     C16756   1.869   3.086   2.057  0.9539 -0.0530  0.1633
  125MOL0     N16757   1.739   3.147   2.025 -0.3389 -0.3641  0.3270
  125MOL0     C16758   1.710   3.276   1.975 -0.2415  0.0965 -0.3546
  125MOL0     C16759   1.573   3.280   1.968 -0.2062  0.2190 -0.2081
  125MOL0     C16760   1.477   3.400   1.930 -0.1537  0.8694 -0.3817
  125MOL0     C16761   1.326   3.373   1.950  0.5550 -0.0787 -0.2901
  125MOL0     C16762   1.239   3.498   1.906  0.5436 -0.2757 -0.6456
  125MOL0     C16763   1.086   3.474   1.898 -0.3822 -0.5206 -0.1056
  125MOL0     O16764   1.020   3.602   1.885  0.1469 -0.4381 -0.6929
  125MOL0     C16765   0.881   3.600   1.893 -0.7191 -0.2599 -0.3887
  125MOL0     C16766   0.801   3.496   1.860 -0.7651 -0.3307 -0.1029
  125MOL0     C16767   0.654   3.513   1.870 -0.0279  0.0367  0.4652
  125MOL0     C16768   0.558   3.401   1.843 -0.7667 -0.5157 -0.3092
  125MOL0     C16769   0.597   3.636   1.922  1.2102 -0.6897 -0.1286
  125MOL0     C16770   0.452   3.660   1.939 -0.8753 -0.5937 -0.0351
  125MOL0     O16771   0.415   3.796   1.941  0.3675  0.0878 -0.4810
  125MOL0     C16772   0.282   3.823   1.951  0.5853 -0.9159  0.4172
  125MOL0     C16773   0.241   3.929   2.030  0.7811 -0.5852 -0.1331
  125MOL0     C16774   0.107   3.971   2.047  0.8636  0.0651  0.0816
  125MOL0     C16775   0.010   3.903   1.972  0.0427  0.4173  0.6228
  125MOL0     O16776  -0.127   3.917   1.961  0.3256  0.3359 -0.7405
  125MOL0     C16777  -0.182   4.049   1.977  0.0784  0.1711 -0.2161
  125MOL0     C16778  -0.334   4.056   1.965  0.0976  0.0297 -0.7197
  125MOL0     C16779  -0.414   3.945   2.028 -0.2479  0.1553  0.0780
  125MOL0     C16780  -0.388   3.925   2.172 -0.2872  0.2627 -0.0619
  125MOL0     C16781  -0.513   3.912   2.259  0.8898 -1.6582  0.3655
  125MOL0     C16782  -0.579   4.052   2.274 -1.3592  1.1142  0.8110
  125MOL0     C16783  -0.698   4.060   2.365  1.2699  0.3746 -0.5375
  125MOL0     C16784  -0.677   3.963   2.493 -1.0244  0.1839  0.8732
  125MOL0    Cl16785  -0.718   3.786   2.473 -0.5004 -0.2570  0.2969
  125MOL0     C16786   0.049   3.786   1.903  0.8326 -0.3902  0.2923
  125MOL0     C16787   0.184   3.748   1.890 -0.6594 -0.6037  0.9093
  125MOL0     O16788   0.371   3.565   1.958  0.7868 -0.4139  0.5362
  125MOL0     C16789   0.687   3.735   1.966 -0.1195  0.2634  0.7420
  125MOL0     C16790   0.829   3.718   1.950  0.6029 -0.8099  1.1322
  125MOL0     N16791   1.519   3.157   1.998 -0.3024 -0.5056  0.2342
  125MOL0     N16792   1.621   3.075   2.029  0.1182  0.0294 -0.0942
  125MOL0     C16793   2.844   3.294   2.347  0.4641 -0.6796  0.3873
  125MOL0     C16794   2.984   3.319   2.360  0.6176  0.8359 -0.8377
  125MOL0     C16795   3.423   3.252   2.330 -0.5664 -0.6152 -0.9828
  125MOL0     C16796   3.478   3.374   2.290  0.2802 -0.4710  0.4309
  125MOL0     C16797   3.615   3.401   2.310  0.9170 -0.7223 -0.0227
  125MOL0     C16798   3.701   3.319   2.381 -0.4927  0.3422 -0.1498
  125MOL0     O16799   3.832   3.356   2.410 -0.4566 -0.0835  0.1514
  125MOL0     C16800   3.896   3.459   2.329 -0.1318  0.2639  0.4213
  125MOL0     C16801   4.054   3.449   2.351  0.8427 -0.3157  0.0005
  125MOL0     C16802   4.097   3.510   2.483 -0.2973 -0.4360 -0.2477
  125MOL0     C16803   4.238   3.462   2.520 -0.0297  0.3577 -0.2909
  125MOL0     C16804   4.341   3.530   2.441 -0.4949 -1.1441 -0.3032
  125MOL0     C16805   4.429   3.600   2.399 -0.8219  0.1646  0.3255
  125MOL0     C16806   3.640   3.201   2.440  0.1708 -0.2271 -0.5809
  125MOL0     C16807   3.507   3.165   2.402 -0.4148 -0.4656 -0.3915
  125MOL0     H16808   3.082   3.198   2.066 -0.3223  2.0791 -0.1077
  125MOL0     H16809   2.855   3.120   2.056  1.5720  0.4794 -0.7924
  125MOL0     H16810   2.675   3.324   2.061 -1.5999  1.3381  0.3342
  125MOL0     H16811   2.622   3.158   2.043 -0.0048  0.1395  0.0432
  125MOL0     H16812   2.457   3.378   2.166 -0.2231  0.9434 -0.3206
  125MOL0     H16813   2.452   3.336   1.993 -2.0775 -1.1447 -0.3463
  125MOL0     H16814   2.414   3.093   2.097 -0.8126 -1.0269  1.2160
  125MOL0     H16815   2.388   3.165   2.247 -0.2301 -2.1271 -1.0662
  125MOL0     H16816   2.188   3.288   2.180 -0.0869 -0.6945  0.8729
  125MOL0     H16817   2.216   3.241   2.010 -1.5502  0.9493  0.6521
  125MOL0     H16818   2.132   3.039   2.043 -0.5354 -2.2947  0.9333
  125MOL0     H16819   2.224   3.006   2.183 -0.7219  0.6472  3.2781
  125MOL0     H16820   2.007   2.975   2.245  0.5992 -0.4343 -2.2973
  125MOL0     H16821   2.068   3.119   2.333  2.6284  0.2688  0.0126
  125MOL0     H16822   1.842   3.167   2.259  0.5840 -0.3233  0.9953
  125MOL0     H16823   1.949   3.265   2.163 -1.5552  0.3576  0.4439
  125MOL0     H16824   1.840   2.983   2.080 -1.9596  0.5434 -0.3877
  125MOL0     H16825   1.938   3.092   1.973  1.5008 -2.8247  0.3289
  125MOL0     H16826   1.776   3.358   1.947  0.5569 -0.4405 -0.0599
  125MOL0     H16827   1.511   3.486   1.988  0.3642  0.7113 -0.4373
  125MOL0     H16828   1.498   3.436   1.829  1.1276  4.3254  0.9644
  125MOL0     H16829   1.301   3.346   2.053  1.9806  0.7732  0.3126
  125MOL0     H16830   1.311   3.285   1.887 -0.5375 -2.5612  3.1446
  125MOL0     H16831   1.275   3.528   1.808  1.0014  0.8399 -0.1520
  125MOL0     H16832   1.249   3.578   1.980  0.3813 -1.2155  0.4226
  125MOL0     H16833   1.054   3.427   1.991  0.1393  2.7251  1.8535
  125MOL0     H16834   1.062   3.410   1.812  0.3102  0.0760 -0.7540
  125MOL0     H16835   0.839   3.404   1.819 -0.3241 -0.6455  0.9738
  125MOL0     H16836   0.485   3.422   1.764  1.5151  0.1446 -2.4033
  125MOL0     H16837   0.613   3.311   1.813 -0.5922 -0.0862 -1.3478
  125MOL0     H16838   0.512   3.364   1.934 -0.1685  0.5721  0.4643
  125MOL0     H16839   0.320   3.987   2.078 -0.4286  0.5280  0.5957
  125MOL0     H16840   0.090   4.050   2.120  0.3238 -0.3783  0.4405
  125MOL0     H16841  -0.160   4.085   2.078  2.2908  0.3032 -0.6764
  125MOL0     H16842  -0.141   4.129   1.914  0.6518  1.4643  1.7267
  125MOL0     H16843  -0.369   4.148   2.011 -0.6064 -1.3479  1.6740
  125MOL0     H16844  -0.360   4.054   1.858  3.5867  0.8780 -1.7200
  125MOL0     H16845  -0.369   3.858   1.979 -1.7652  0.1738 -1.4551
  125MOL0     H16846  -0.522   3.949   2.006 -0.2051  1.8066  0.0349
  125MOL0     H16847  -0.339   3.829   2.194 -1.3126  0.4906  4.1148
  125MOL0     H16848  -0.342   4.010   2.222 -3.2327  0.7461  2.0810
  125MOL0     H16849  -0.473   3.871   2.353  1.8793  0.1726  0.8019
  125MOL0     H16850  -0.584   3.837   2.223  0.9244 -1.5545  0.0774
  125MOL0     H16851  -0.502   4.105   2.331  0.5727 -1.9402  1.2730
  125MOL0     H16852  -0.610   4.099   2.180 -4.6827 -1.0085  0.6837
  125MOL0     H16853  -0.794   4.037   2.318 -0.8996  1.1020  3.1071
  125MOL0     H16854  -0.711   4.161   2.404  0.4938 -1.1274  3.6776
  125MOL0     H16855  -0.736   3.988   2.582  0.3775  0.4718  1.7489
  125MOL0     H16856  -0.571   3.980   2.512 -0.9809 -1.3181  2.1028
  125MOL0     H16857  -0.021   3.721   1.852  0.6298 -1.9425  2.4024
  125MOL0     H16858   0.218   3.669   1.824 -1.5526 -0.2655  0.0206
  125MOL0     H16859   0.656   3.824   2.019 -0.2694  1.0677 -0.6437
  125MOL0     H16860   0.888   3.804   1.981  0.6892 -0.8947  1.2018
  125MOL0     H16861   2.761   3.325   2.409  1.5707 -0.1993  1.6942
  125MOL0     H16862   3.018   3.386   2.438 -2.1447  1.7667 -0.3255
  125MOL0     H16863   3.426   3.460   2.247 -1.0496 -1.1089  0.6919
  125MOL0     H16864   3.657   3.498   2.285  1.5083 -0.3177  2.2793
  125MOL0     H16865   3.872   3.439   2.224 -1.2028  2.0427  0.2858
  125MOL0     H16866   3.858   3.561   2.340 -1.4559  0.2424 -2.8208
  125MOL0     H16867   4.095   3.514   2.273  5.9080 -0.8010  1.8608
  125MOL0     H16868   4.089   3.348   2.331  1.5720  0.3223 -2.3026
  125MOL0     H16869   4.021   3.485   2.558 -0.2490 -3.6477 -1.1550
  125MOL0     H16870   4.097   3.620   2.483 -0.4380 -0.4054 -1.9041
  125MOL0     H16871   4.248   3.355   2.502 -0.3973  0.2554  0.1081
  125MOL0     H16872   4.262   3.480   2.625  3.8817  0.2705 -0.9814
  125MOL0     H16873   4.504   3.663   2.357 -0.8349  2.1537  3.0182
  125MOL0     H16874   3.698   3.132   2.501  3.2168  0.9276 -1.9297
  125MOL0     H16875   3.470   3.077   2.455  0.0104  0.1701  1.0090
  126MOL0     O16876   4.789   3.862   2.938  0.0107 -0.1308 -0.1312
  126MOL0     C16877   4.787   3.833   3.054  0.7402  0.4095  0.7669
  126MOL0     O16878   4.723   3.728   3.107 -0.2232 -0.1416  0.3360
  126MOL0     C16879   4.647   3.649   3.028 -0.0268  0.4288 -0.0624
  126MOL0     C16880   4.548   3.693   2.942  0.3104 -0.2003  0.4961
  126MOL0     C16881   4.446   3.609   2.888  0.2953  0.0914  0.3441
  126MOL0     C16882   4.461   3.467   2.899  0.5217  0.3126 -0.4839
  126MOL0     O16883   4.378   3.392   2.822 -0.0485  0.6353  0.3513
  126MOL0     C16884   4.362   3.248   2.851 -1.0303  0.1246 -0.3254
  126MOL0     C16885   4.253   3.176   2.774  0.1447  0.5903 -0.1878
  126MOL0     C16886   4.118   3.230   2.833 -0.4917  0.1797  0.4346
  126MOL0     C16887   3.984   3.168   2.773 -0.9397 -0.5479  0.8461
  126MOL0     C16888   3.867   3.206   2.869 -0.2363  0.0522  0.4390
  126MOL0     C16889   3.729   3.156   2.834 -0.4727 -1.1394  0.3855
  126MOL0     C16890   3.623   3.182   2.944  0.0627  0.0603 -0.5718
  126MOL0     C16891   3.584   3.329   2.980 -0.8553  0.2884  0.2176
  126MOL0     N16892   3.448   3.332   3.047  0.0866 -0.0162 -0.5412
  126MOL0     C16893   3.390   3.244   3.141  0.5181  0.2501  0.4952
  126MOL0     C16894   3.290   3.312   3.200  0.4713  0.5363  0.0870
  126MOL0     C16895   3.202   3.265   3.309 -0.7225 -1.1987 -0.0290
  126MOL0     C16896   3.082   3.190   3.249  0.3225 -0.4673 -0.3251
  126MOL0     C16897   2.976   3.174   3.359 -0.2517  0.2704 -0.5695
  126MOL0     C16898   2.839   3.107   3.318 -0.1710 -1.0286 -0.5733
  126MOL0     O16899   2.738   3.210   3.288  0.2666 -0.8793 -0.3813
  126MOL0     C16900   2.608   3.172   3.307 -0.1455  0.2851  0.1712
  126MOL0     C16901   2.516   3.260   3.357  0.9006  0.0044 -0.3197
  126MOL0     C16902   2.377   3.221   3.372  0.3848 -0.5225 -0.3011
  126MOL0     C16903   2.288   3.329   3.434 -0.0282  0.4385  0.4103
  126MOL0     C16904   2.334   3.090   3.349 -0.3325 -0.8492 -0.8076
  126MOL0     C16905   2.204   3.022   3.396 -0.3528 -0.6152  0.4944
  126MOL0     O16906   2.214   2.882   3.406  0.3314  0.0524 -0.3571
  126MOL0     C16907   2.104   2.815   3.452  0.3758 -0.5347  0.2748
  126MOL0     C16908   2.033   2.735   3.358  0.0553  0.1209 -0.4838
  126MOL0     C16909   1.916   2.664   3.395  0.4355  0.9913 -0.6059
  126MOL0     C16910   1.876   2.679   3.526 -0.3138 -0.5705 -0.3133
  126MOL0     O16911   1.757   2.626   3.582 -0.3378 -0.3404 -0.2753
  126MOL0     C16912   1.671   2.537   3.506  0.0277  0.4635 -0.2137
  126MOL0     C16913   1.533   2.533   3.567  0.7451  0.9747 -0.0012
  126MOL0     C16914   1.531   2.493   3.712 -0.3258  0.3653 -0.9243
  126MOL0     C16915   1.395   2.474   3.771  0.4672 -0.8241  1.0062
  126MOL0     C16916   1.402   2.405   3.895  0.2413 -1.1220 -0.6094
  126MOL0     C16917   1.264   2.365   3.951  0.9031  1.1538 -0.2904
  126MOL0     C16918   1.184   2.285   3.845  0.9334  0.2926  0.5443
  126MOL0     C16919   1.090   2.199   3.929  0.8690  1.0627  0.1754
  126MOL0    Cl16920   0.955   2.118   3.840 -0.1387 -0.2216 -0.4686
  126MOL0     C16921   1.953   2.759   3.620  0.4794 -0.1444 -0.5323
  126MOL0     C16922   2.070   2.827   3.585  0.3405 -0.2610 -0.5271
  126MOL0     O16923   2.108   3.090   3.434 -0.1002 -0.3325 -0.5342
  126MOL0     C16924   2.435   3.006   3.300 -0.1668 -0.9733  0.0390
  126MOL0     C16925   2.565   3.044   3.277 -1.1187  0.2865 -0.9656
  126MOL0     N16926   3.283   3.437   3.137  0.2218  0.6784 -0.3257
  126MOL0     N16927   3.363   3.447   3.036  0.8696  0.0384 -0.0053
  126MOL0     C16928   4.556   3.422   2.992 -0.5317  0.4271  0.7984
  126MOL0     C16929   4.645   3.513   3.051 -0.2243  0.3383 -0.4315
  126MOL0     C16930   4.881   3.910   3.140  0.5648 -0.0755  0.6406
  126MOL0     C16931   4.972   4.002   3.091 -0.3991 -0.3363  0.2598
  126MOL0     C16932   5.057   4.075   3.177  0.0565  0.4683 -0.2170
  126MOL0     C16933   5.047   4.057   3.317 -0.1731  0.2770 -0.6821
  126MOL0     O16934   5.124   4.122   3.411  0.2885 -0.3140  0.7173
  126MOL0     C16935   5.052   4.245   3.447  0.4334  0.3255 -1.2489
  126MOL0     C16936   5.109   4.299   3.580 -0.4242 -0.8619  0.3655
  126MOL0     C16937   5.258   4.344   3.585 -0.8602  0.3328  0.4592
  126MOL0     C16938   5.323   4.446   3.492  0.1657 -0.0852  1.3372
  126MOL0     C16939   5.251   4.574   3.509 -0.6575 -0.1320 -0.5958
  126MOL0     C16940   5.179   4.673   3.519 -0.6670 -0.5462  0.0902
  126MOL0     C16941   4.954   3.962   3.365  0.6710  0.7516  0.2076
  126MOL0     C16942   4.872   3.891   3.281 -0.6030 -0.3875  0.4661
  126MOL0     H16943   4.544   3.798   2.916 -1.6844  0.0031  1.4204
  126MOL0     H16944   4.380   3.654   2.813 -0.4296  1.8006  1.9349
  126MOL0     H16945   4.452   3.191   2.826 -2.0245 -1.0244 -1.4152
  126MOL0     H16946   4.329   3.236   2.954 -2.0109  0.2781 -0.6122
  126MOL0     H16947   4.261   3.191   2.666  0.3787 -3.0072 -0.7874
  126MOL0     H16948   4.251   3.070   2.798  0.1901  0.5386 -0.4087
  126MOL0     H16949   4.107   3.207   2.939 -1.6569  0.0804  0.3065
  126MOL0     H16950   4.119   3.339   2.832  0.0101  0.2827  3.3619
  126MOL0     H16951   3.973   3.201   2.669 -2.2425 -2.5830  0.2887
  126MOL0     H16952   3.991   3.059   2.772  0.0320 -0.5335 -1.4994
  126MOL0     H16953   3.897   3.169   2.968 -1.9162  1.1768  1.4428
  126MOL0     H16954   3.863   3.315   2.878 -1.1817  0.1783 -1.1858
  126MOL0     H16955   3.689   3.211   2.749 -0.8624  0.6063  1.6445
  126MOL0     H16956   3.737   3.050   2.806  0.5636 -1.4226  1.6271
  126MOL0     H16957   3.530   3.131   2.919 -0.1347  0.4664 -0.6713
  126MOL0     H16958   3.664   3.147   3.039  0.2610  0.8803 -0.3461
  126MOL0     H16959   3.585   3.388   2.888  3.3155  1.9648  1.1050
  126MOL0     H16960   3.653   3.368   3.056 -1.4182 -0.8230  1.3260
  126MOL0     H16961   3.425   3.145   3.169  0.3835  0.7485  2.5631
  126MOL0     H16962   3.264   3.206   3.378  2.1066 -2.5613 -3.4187
  126MOL0     H16963   3.165   3.343   3.376  1.9727 -0.4582  0.7439
  126MOL0     H16964   3.116   3.094   3.208  1.8854  0.1966 -0.6556
  126MOL0     H16965   3.024   3.252   3.180 -3.0045 -2.3808  0.5310
  126MOL0     H16966   2.952   3.278   3.385  1.5193  0.2887  1.1856
  126MOL0     H16967   3.017   3.134   3.452 -0.2388  0.4932 -0.4778
  126MOL0     H16968   2.791   3.049   3.398 -3.0367  1.2430 -0.4725
  126MOL0     H16969   2.852   3.041   3.231  0.7574 -2.6881  0.7686
  126MOL0     H16970   2.546   3.359   3.391 -1.1936  1.4313 -2.3369
  126MOL0     H16971   2.327   3.431   3.421  1.5496  0.3225  3.3148
  126MOL0     H16972   2.196   3.317   3.376  0.6552  0.4725 -0.7206
  126MOL0     H16973   2.278   3.311   3.541 -1.6398 -1.3843 -0.0057
  126MOL0     H16974   2.063   2.742   3.254  1.2785  0.8839 -0.1044
  126MOL0     H16975   1.858   2.599   3.330  0.0084  0.2302  0.5062
  126MOL0     H16976   1.654   2.580   3.407  1.2753  1.2194 -0.1303
  126MOL0     H16977   1.713   2.437   3.497  0.4321  0.5440  0.7111
  126MOL0     H16978   1.482   2.630   3.559  0.3082  0.6790 -0.9384
  126MOL0     H16979   1.464   2.464   3.516  1.3418  0.2177  0.2019
  126MOL0     H16980   1.593   2.559   3.774 -1.6107 -0.0961  0.9227
  126MOL0     H16981   1.573   2.392   3.719 -0.5224  0.3882  1.6278
  126MOL0     H16982   1.347   2.573   3.775  2.0120 -0.0160  0.4794
  126MOL0     H16983   1.335   2.415   3.701  1.7800 -2.0286  0.8567
  126MOL0     H16984   1.445   2.485   3.957  1.8388 -1.8183 -0.7710
  126MOL0     H16985   1.457   2.311   3.893 -1.0880 -1.9188 -0.6885
  126MOL0     H16986   1.274   2.308   4.044  2.0242 -0.4372 -1.3301
  126MOL0     H16987   1.208   2.458   3.963 -0.2641  0.8527 -2.7256
  126MOL0     H16988   1.246   2.225   3.778  0.0664 -1.2163  1.0502
  126MOL0     H16989   1.124   2.348   3.779  0.6348 -1.3455 -0.8016
  126MOL0     H16990   1.048   2.275   3.995 -0.5032 -2.1439  3.3071
  126MOL0     H16991   1.143   2.123   3.987  0.2552  0.4003 -0.1135
  126MOL0     H16992   1.912   2.777   3.718  0.0190 -0.8576 -0.5866
  126MOL0     H16993   2.110   2.903   3.652 -0.7022  1.0005 -1.2916
  126MOL0     H16994   2.420   2.901   3.277  2.1107 -1.1911 -0.7424
  126MOL0     H16995   2.638   2.972   3.245  0.3976 -0.1098  2.8269
  126MOL0     H16996   4.569   3.319   3.023 -2.0711 -0.6277 -1.7709
  126MOL0     H16997   4.708   3.472   3.129 -2.1555  2.1144  2.2593
  126MOL0     H16998   4.978   4.022   2.984  1.1062 -1.7669  0.0359
  126MOL0     H16999   5.121   4.146   3.126  3.0758 -2.1383 -0.3441
  126MOL0     H17000   5.052   4.314   3.362 -1.1391  0.6732 -1.0021
  126MOL0     H17001   4.944   4.234   3.463  0.3811 -1.2922 -2.4647
  126MOL0     H17002   5.097   4.227   3.660  2.2009  0.1080  1.7647
  126MOL0     H17003   5.048   4.385   3.609  0.4449  0.3326 -1.1414
  126MOL0     H17004   5.318   4.254   3.577  0.5420  1.3233 -0.5546
  126MOL0     H17005   5.284   4.373   3.687  1.5403 -3.1590  0.9936
  126MOL0     H17006   5.317   4.421   3.385 -0.7046  3.0214  0.5616
  126MOL0     H17007   5.423   4.457   3.532  0.2793 -0.5784  1.2025
  126MOL0     H17008   5.129   4.762   3.551  0.1938  0.1659 -0.5152
  126MOL0     H17009   4.948   3.943   3.472 -2.2222  0.2477  0.0401
  126MOL0     H17010   4.804   3.821   3.329 -0.7401 -2.5721 -2.6086
  127MOL0     O17011   8.441   0.129   8.363 -1.1710  1.0405  0.1283
  127MOL0     C17012   8.483   0.160   8.250  0.5084  0.3511  0.2884
  127MOL0     O17013   8.422   0.254   8.166 -0.2131  0.1481 -0.5909
  127MOL0     C17014   8.308   0.331   8.200 -0.3982  0.5864 -0.4434
  127MOL0     C17015   8.262   0.408   8.095  0.7090 -1.1364 -0.0015
  127MOL0     C17016   8.150   0.488   8.108  0.3547  0.2148 -0.1208
  127MOL0     C17017   8.082   0.501   8.230  0.1345  0.8530  0.1927
  127MOL0     O17018   7.962   0.573   8.253  0.5359  0.8192 -0.1605
  127MOL0     C17019   7.864   0.575   8.148  0.3201 -0.1639 -0.5482
  127MOL0     C17020   7.741   0.613   8.227  0.2781 -0.3473 -0.2054
  127MOL0     C17021   7.620   0.615   8.130 -0.4870  0.6535  0.5666
  127MOL0     C17022   7.503   0.622   8.224  0.3140  0.4303  0.3731
  127MOL0     C17023   7.371   0.641   8.155  0.2178  1.0385  0.8942
  127MOL0     C17024   7.254   0.653   8.251 -0.0593  0.5203 -0.2098
  127MOL0     C17025   7.117   0.634   8.175 -0.2383 -0.3536  0.0384
  127MOL0     C17026   7.013   0.589   8.277  0.7373  0.3446 -0.0710
  127MOL0     N17027   6.957   0.454   8.245  0.2031 -0.5157  0.2137
  127MOL0     C17028   6.864   0.420   8.147 -0.5856 -0.0545 -0.0164
  127MOL0     C17029   6.832   0.290   8.169 -0.6080  0.7333 -0.6340
  127MOL0     C17030   6.741   0.206   8.094  0.3895  0.6694 -0.1615
  127MOL0     C17031   6.804   0.077   8.035  0.9469  0.4510  0.3289
  127MOL0     C17032   6.709  -0.037   7.994 -0.4095  0.3149 -0.4183
  127MOL0     C17033   6.651  -0.035   7.859  0.1974  0.3074  0.1225
  127MOL0     O17034   6.579   0.095   7.835 -0.6679  0.0948  0.0901
  127MOL0     C17035   6.451   0.107   7.890 -0.2284 -0.1686  0.1212
  127MOL0     C17036   6.379   0.010   7.958 -0.5278 -0.8380 -0.8010
  127MOL0     C17037   6.248   0.033   7.992 -0.1755 -0.2118 -0.4926
  127MOL0     C17038   6.170  -0.088   8.040  0.2274 -0.1502 -0.1066
  127MOL0     C17039   6.186   0.156   7.948  0.2367 -0.8871 -0.5102
  127MOL0     C17040   6.048   0.182   7.973  0.0528  0.3407 -0.1833
  127MOL0     O17041   5.971   0.228   7.864  0.1084  0.5691 -0.0624
  127MOL0     C17042   5.851   0.287   7.903 -0.4376  0.2768 -0.4796
  127MOL0     C17043   5.744   0.208   7.949 -0.0011  0.3331  0.8824
  127MOL0     C17044   5.624   0.269   7.975 -0.6504  0.8188  0.4803
  127MOL0     C17045   5.615   0.407   7.949  0.7227 -0.0469  0.5664
  127MOL0     O17046   5.489   0.469   7.965 -0.2800  0.0781 -0.9114
  127MOL0     C17047   5.467   0.608   7.953 -0.9325  0.1116 -0.3847
  127MOL0     C17048   5.320   0.629   7.957 -0.3300 -0.0149 -0.2045
  127MOL0     C17049   5.253   0.614   8.098 -0.5584  0.2556  0.3691
  127MOL0     C17050   5.189   0.478   8.132  0.1562  1.1376  0.6367
  127MOL0     C17051   5.058   0.475   8.051 -0.9065 -0.6336  0.4185
  127MOL0     C17052   4.938   0.519   8.123  0.8867  0.0046  1.1344
  127MOL0     C17053   4.898   0.394   8.216  0.1741  0.0822  0.5739
  127MOL0     C17054   4.773   0.432   8.293 -1.2301  0.7114  0.6981
  127MOL0    Cl17055   4.635   0.431   8.194  0.2026 -0.0928 -0.2498
  127MOL0     C17056   5.722   0.488   7.912 -0.0382 -0.1457 -0.0574
  127MOL0     C17057   5.834   0.424   7.886  0.2625 -0.0896  0.4867
  127MOL0     O17058   6.006   0.156   8.086  0.2000 -0.5001 -0.5193
  127MOL0     C17059   6.259   0.254   7.879  0.6346  0.1923  0.2603
  127MOL0     C17060   6.401   0.231   7.852 -0.2003  0.0932 -0.3760
  127MOL0     N17061   6.920   0.243   8.263 -0.2605  0.3078  0.0525
  127MOL0     N17062   6.981   0.338   8.311 -0.1901  0.1459  0.1072
  127MOL0     C17063   8.146   0.428   8.342 -0.0264  0.7686  0.3978
  127MOL0     C17064   8.252   0.341   8.327  0.0974 -0.4337 -0.1128
  127MOL0     C17065   8.603   0.089   8.201  0.1711 -0.4067  0.1865
  127MOL0     C17066   8.667  -0.002   8.285  0.8132  0.4062 -0.8070
  127MOL0     C17067   8.790  -0.056   8.241  1.2556 -0.2026 -1.0106
  127MOL0     C17068   8.843  -0.026   8.111  0.5418  0.4416 -0.2573
  127MOL0     O17069   8.964  -0.087   8.074  0.8953 -0.1641 -0.3842
  127MOL0     C17070   8.934  -0.198   7.985  0.4323 -0.0421 -0.1695
  127MOL0     C17071   8.981  -0.176   7.840  0.5267 -0.0834  0.3686
  127MOL0     C17072   9.127  -0.120   7.822 -1.0885  1.0443 -0.0867
  127MOL0     C17073   9.180  -0.096   7.675 -0.6428  0.3797  0.0427
  127MOL0     C17074   9.327  -0.076   7.683  1.1521 -0.6424 -0.2483
  127MOL0     C17075   9.449  -0.060   7.702 -0.5427  0.0557 -0.1285
  127MOL0     C17076   8.779   0.060   8.030  0.0117 -0.9985 -0.1657
  127MOL0     C17077   8.657   0.113   8.074  0.4622 -0.9848 -1.5135
  127MOL0     H17078   8.315   0.406   8.000  0.1741 -1.7514 -0.2963
  127MOL0     H17079   8.114   0.534   8.016  0.1606 -0.3626 -0.3349
  127MOL0     H17080   7.894   0.643   8.067 -2.0863  0.8349 -0.6917
  127MOL0     H17081   7.861   0.471   8.113  1.6891 -1.0417  1.7427
  127MOL0     H17082   7.715   0.538   8.303  2.1710 -0.2878  0.5534
  127MOL0     H17083   7.754   0.713   8.270  1.1494 -0.0269 -1.1766
  127MOL0     H17084   7.623   0.701   8.062 -0.3115 -0.4002 -0.7965
  127MOL0     H17085   7.609   0.524   8.070  2.4380  0.0431  0.7917
  127MOL0     H17086   7.488   0.524   8.270  0.4419 -0.0190 -0.5120
  127MOL0     H17087   7.520   0.704   8.294 -3.5777  1.4677  0.3299
  127MOL0     H17088   7.374   0.732   8.094 -0.8019  2.5702  2.9981
  127MOL0     H17089   7.359   0.550   8.095  1.2828  2.2587 -1.2854
  127MOL0     H17090   7.271   0.582   8.332 -0.3276 -0.1319 -0.7200
  127MOL0     H17091   7.265   0.755   8.291  0.0610  0.3758  0.1267
  127MOL0     H17092   7.092   0.734   8.139  1.9090 -0.8710 -3.4340
  127MOL0     H17093   7.125   0.565   8.090 -1.3435  0.1641 -0.5068
  127MOL0     H17094   6.926   0.656   8.276 -0.2185 -0.8512 -0.0613
  127MOL0     H17095   7.056   0.588   8.378 -2.3271 -1.8469  1.3702
  127MOL0     H17096   6.833   0.496   8.076  1.1700 -1.2828 -2.2524
  127MOL0     H17097   6.659   0.169   8.156  1.6302 -1.8607  0.1005
  127MOL0     H17098   6.696   0.260   8.009  0.9632  2.4037  0.5997
  127MOL0     H17099   6.872   0.030   8.107  1.1417 -2.4058 -1.5571
  127MOL0     H17100   6.861   0.107   7.946 -1.0437  3.1821 -0.1538
  127MOL0     H17101   6.636  -0.024   8.074  0.4005  3.5249 -0.0285
  127MOL0     H17102   6.757  -0.135   8.002  0.1778  0.5161 -1.2656
  127MOL0     H17103   6.591  -0.123   7.835 -1.1678  1.1080  0.5018
  127MOL0     H17104   6.735  -0.031   7.790  0.8493 -1.5752  0.7446
  127MOL0     H17105   6.428  -0.085   7.974  1.5467  0.1372 -0.9920
  127MOL0     H17106   6.242  -0.170   8.047 -1.5091 -1.7274  0.1378
  127MOL0     H17107   6.120  -0.070   8.135 -1.0258 -1.0174 -0.5680
  127MOL0     H17108   6.097  -0.119   7.964  0.4363 -1.3512  0.1700
  127MOL0     H17109   5.758   0.101   7.960  1.6943  0.7365  3.5933
  127MOL0     H17110   5.541   0.208   8.011 -0.3230 -1.2246 -1.9584
  127MOL0     H17111   5.520   0.659   8.034  1.0114 -0.9760 -0.9186
  127MOL0     H17112   5.505   0.647   7.859  4.2068  1.3169  1.8713
  127MOL0     H17113   5.307   0.730   7.918  0.6628  0.4134  0.5401
  127MOL0     H17114   5.275   0.557   7.888  0.4888  0.1868 -0.9735
  127MOL0     H17115   5.182   0.696   8.113 -1.7451 -0.9823  1.8296
  127MOL0     H17116   5.331   0.641   8.170 -0.3917 -0.5731  0.5089
  127MOL0     H17117   5.266   0.406   8.102  1.5524  2.0846  1.8390
  127MOL0     H17118   5.168   0.473   8.239 -2.6204 -0.6229  0.1272
  127MOL0     H17119   5.039   0.374   8.014  1.3962 -1.8930  2.4047
  127MOL0     H17120   5.078   0.538   7.964  0.4853 -1.2815  0.2551
  127MOL0     H17121   4.951   0.613   8.177 -0.3114  1.3247 -0.7531
  127MOL0     H17122   4.861   0.539   8.048  2.1366 -1.7220 -0.7034
  127MOL0     H17123   4.976   0.367   8.288  0.0188 -0.4437  0.5501
  127MOL0     H17124   4.871   0.306   8.157  1.0232 -0.5598  1.1268
  127MOL0     H17125   4.788   0.531   8.336 -0.0542 -0.3735  3.0295
  127MOL0     H17126   4.769   0.361   8.377  0.6492 -0.2883  0.0074
  127MOL0     H17127   5.719   0.597   7.914  1.2409 -0.1037  1.0530
  127MOL0     H17128   5.922   0.480   7.858 -2.2629  5.1678  1.8267
  127MOL0     H17129   6.228   0.354   7.852  0.7315  0.4513  1.0967
  127MOL0     H17130   6.465   0.289   7.786  0.0467  0.4568  0.1840
  127MOL0     H17131   8.107   0.435   8.443 -0.4509 -0.8764  0.3795
  127MOL0     H17132   8.262   0.286   8.420 -2.7922 -1.5343 -0.3326
  127MOL0     H17133   8.639  -0.030   8.386 -0.5662 -1.2714 -1.6032
  127MOL0     H17134   8.843  -0.113   8.317 -0.9593 -2.0197 -0.7061
  127MOL0     H17135   8.981  -0.283   8.035  0.7467 -0.7977 -1.7043
  127MOL0     H17136   8.830  -0.233   7.988 -0.4631  2.1740 -2.2253
  127MOL0     H17137   8.905  -0.110   7.797  1.9486  1.3404 -0.0742
  127MOL0     H17138   8.976  -0.272   7.787  0.1657  0.1388 -0.0104
  127MOL0     H17139   9.193  -0.196   7.866 -0.7688  2.0637  1.2866
  127MOL0     H17140   9.129  -0.030   7.883 -1.5306  1.0734 -0.1141
  127MOL0     H17141   9.135  -0.007   7.630  0.4622  0.3704 -1.1368
  127MOL0     H17142   9.143  -0.181   7.617 -1.3697 -0.0366  1.0823
  127MOL0     H17143   9.555  -0.057   7.713 -0.5083 -1.0939 -0.0389
  127MOL0     H17144   8.812   0.093   7.932 -2.2549  3.3146  0.2590
  127MOL0     H17145   8.596   0.169   8.003  3.1974  3.0660 -1.0210
  128MOL0     O17146   5.030  10.150   1.946  0.4293  0.0165  0.2586
  128MOL0     C17147   5.032  10.075   2.042 -0.0398  0.1370  0.2800
  128MOL0     O17148   4.925  10.012   2.101  0.4457  0.4928  0.4533
  128MOL0     C17149   4.798  10.053   2.075 -0.9831 -0.0028 -0.8168
  128MOL0     C17150   4.733  10.044   1.950  0.8090 -0.3078 -0.7006
  128MOL0     C17151   4.603  10.091   1.932 -1.0087  0.0352  0.3355
  128MOL0     C17152   4.534  10.150   2.036 -0.4069 -0.6253 -0.3922
  128MOL0     O17153   4.418  10.218   2.030 -0.0564 -0.3226 -0.8146
  128MOL0     C17154   4.364  10.235   1.902  0.2426 -1.0031  0.3237
  128MOL0     C17155   4.231  10.314   1.909  0.4534  0.6026  0.0791
  128MOL0     C17156   4.109  10.231   1.954  0.5101 -0.4951 -0.1201
  128MOL0     C17157   3.977  10.303   1.931 -0.4356 -0.4579 -0.6420
  128MOL0     C17158   3.860  10.220   1.985 -0.3666 -0.4765 -0.0804
  128MOL0     C17159   3.715  10.280   1.955 -0.0000  0.0786 -0.0519
  128MOL0     C17160   3.613  10.208   2.048  0.2891  0.5356 -0.0419
  128MOL0     C17161   3.472  10.271   2.049 -0.2350  0.3824 -0.8823
  128MOL0     N17162   3.380  10.195   2.136  0.2333 -0.2183 -0.4119
  128MOL0     C17163   3.294  10.101   2.089  0.3214  0.0727 -0.0834
  128MOL0     C17164   3.276  10.009   2.187  0.1550 -0.6586  0.0745
  128MOL0     C17165   3.182   9.894   2.183 -0.0876 -0.7153  0.8464
  128MOL0     C17166   3.137   9.847   2.324 -0.7807  0.3121  0.2498
  128MOL0     C17167   3.041   9.725   2.313 -1.1934  0.7279  0.5151
  128MOL0     C17168   3.080   9.603   2.220  0.3396  0.0234 -0.4743
  128MOL0     O17169   3.047   9.633   2.080 -0.1161  0.0735  0.0342
  128MOL0     C17170   2.949   9.572   2.020  0.2410 -0.0100  0.1030
  128MOL0     C17171   2.968   9.528   1.885  0.1316  0.5168  0.1723
  128MOL0     C17172   2.864   9.457   1.813 -0.5260 -0.5679  0.2163
  128MOL0     C17173   2.905   9.401   1.683 -0.1524  0.4027 -0.3222
  128MOL0     C17174   2.742   9.429   1.877  0.5893  0.4987 -0.5067
  128MOL0     C17175   2.635   9.346   1.820  0.0330 -0.2516  0.6167
  128MOL0     O17176   2.539   9.301   1.908 -0.3401  0.2974  0.1367
  128MOL0     C17177   2.419   9.265   1.859 -0.0111 -0.0420  0.3164
  128MOL0     C17178   2.305   9.318   1.921 -0.2931 -0.2417 -0.5326
  128MOL0     C17179   2.170   9.286   1.896  0.2142  0.6311  0.0056
  128MOL0     C17180   2.151   9.182   1.804  0.8415  0.3115  0.4808
  128MOL0     O17181   2.021   9.146   1.784 -1.0462 -0.2913 -0.0897
  128MOL0     C17182   1.989   9.052   1.688 -0.1804  0.0249  0.5940
  128MOL0     C17183   1.843   9.007   1.696  0.7494 -0.3614 -0.7012
  128MOL0     C17184   1.763   9.123   1.647  0.5794 -0.5188 -0.4019
  128MOL0     C17185   1.615   9.101   1.623  0.3862 -0.7346  0.0977
  128MOL0     C17186   1.551   9.102   1.757 -0.6311 -0.5188 -0.1858
  128MOL0     C17187   1.394   9.099   1.745 -0.5369  0.6104  0.2359
  128MOL0     C17188   1.337   8.973   1.670 -0.2081 -0.4606  0.3731
  128MOL0     C17189   1.188   8.992   1.671  0.1166  0.6974  0.1775
  128MOL0    Cl17190   1.112   8.990   1.828  0.0977 -0.3860 -0.1023
  128MOL0     C17191   2.262   9.128   1.737  0.1899  0.1334 -0.0533
  128MOL0     C17192   2.392   9.167   1.756 -0.4581  0.7369 -0.3125
  128MOL0     O17193   2.624   9.339   1.696 -0.2808 -0.1779 -0.6007
  128MOL0     C17194   2.722   9.481   2.004 -0.2289 -0.0619 -0.2506
  128MOL0     C17195   2.821   9.546   2.072 -0.2173 -0.8801  0.4441
  128MOL0     N17196   3.363  10.044   2.287 -1.0376 -0.5752 -0.0018
  128MOL0     N17197   3.426  10.152   2.261 -0.5894 -0.6670 -0.1769
  128MOL0     C17198   4.597  10.158   2.166 -0.2221 -0.5199 -0.1294
  128MOL0     C17199   4.725  10.103   2.185 -0.1333  0.4135 -0.3678
  128MOL0     C17200   5.168  10.043   2.106 -0.1710  0.2406 -1.3967
  128MOL0     C17201   5.180   9.974   2.230  0.8893  0.5651  0.4192
  128MOL0     C17202   5.305   9.933   2.284 -0.6576 -0.4714  0.1715
  128MOL0     C17203   5.429   9.968   2.215  0.1014 -0.3759  0.3234
  128MOL0     O17204   5.551   9.926   2.264  0.5891 -0.1903 -0.6351
  128MOL0     C17205   5.681   9.938   2.201 -0.6784  0.6710  0.0266
  128MOL0     C17206   5.732  10.082   2.221 -0.3428  0.4842  0.4677
  128MOL0     C17207   5.850  10.111   2.127 -0.3760 -0.2163 -0.1111
  128MOL0     C17208   5.930  10.232   2.181 -0.2559  0.2805 -0.8571
  128MOL0     C17209   6.035  10.263   2.089  0.3544  0.9926  0.4768
  128MOL0     C17210   6.122  10.298   2.009  0.5264 -1.2539 -0.2041
  128MOL0     C17211   5.414  10.037   2.091 -0.5406 -0.6884 -1.0424
  128MOL0     C17212   5.289  10.063   2.038  0.8103 -0.1769  0.3716
  128MOL0     H17213   4.777   9.988   1.868 -0.4848 -3.7279  0.7424
  128MOL0     H17214   4.561  10.072   1.834  0.7447 -1.2594 -0.2099
  128MOL0     H17215   4.439  10.293   1.848 -0.6789 -0.3376 -0.2966
  128MOL0     H17216   4.345  10.141   1.849  0.2601 -0.8733  0.0862
  128MOL0     H17217   4.253  10.400   1.974 -0.2976 -0.0038  1.1838
  128MOL0     H17218   4.203  10.357   1.813 -1.0213  1.1786  0.7386
  128MOL0     H17219   4.098  10.138   1.896  0.6146 -0.0599 -0.8482
  128MOL0     H17220   4.124  10.205   2.059  0.0362 -2.7040 -0.5457
  128MOL0     H17221   3.969  10.402   1.978 -1.6778  0.4745 -2.6723
  128MOL0     H17222   3.963  10.316   1.824 -4.2599  0.4853 -0.1947
  128MOL0     H17223   3.870  10.123   1.935  0.7646  1.2471 -3.5141
  128MOL0     H17224   3.884  10.209   2.091 -2.0117  0.6630  0.4500
  128MOL0     H17225   3.711  10.388   1.973 -0.3103  0.4005 -1.8124
  128MOL0     H17226   3.693  10.279   1.848  2.1207  2.2803 -0.6213
  128MOL0     H17227   3.611  10.100   2.035 -0.7877  0.5603 -0.1589
  128MOL0     H17228   3.660  10.239   2.142 -3.2154  1.2741  1.6251
  128MOL0     H17229   3.429  10.269   1.948 -1.7630 -0.4366 -0.2431
  128MOL0     H17230   3.477  10.371   2.093 -0.8447 -0.0946  0.2988
  128MOL0     H17231   3.245  10.103   1.992  0.8961 -0.1151 -0.3848
  128MOL0     H17232   3.096   9.920   2.122 -0.9362 -1.9910  1.4465
  128MOL0     H17233   3.238   9.818   2.127  0.3331  0.7180 -0.7494
  128MOL0     H17234   3.098   9.934   2.378 -1.8183 -0.6437  1.0842
  128MOL0     H17235   3.226   9.814   2.378 -1.7377 -1.3292  0.8852
  128MOL0     H17236   2.941   9.751   2.278 -0.9733  1.8856  0.7055
  128MOL0     H17237   3.022   9.682   2.412 -3.1252  0.0681 -0.1025
  128MOL0     H17238   3.036   9.514   2.266 -2.1381  2.7149  2.8959
  128MOL0     H17239   3.187   9.581   2.217  0.2651 -0.3670 -0.2730
  128MOL0     H17240   3.065   9.544   1.838 -0.5289 -1.4222 -2.0011
  128MOL0     H17241   2.883   9.294   1.686  0.1711  0.3555  1.6302
  128MOL0     H17242   2.846   9.452   1.607 -1.0974  2.2810  1.5407
  128MOL0     H17243   3.009   9.411   1.653  0.3481 -3.0256 -0.1571
  128MOL0     H17244   2.314   9.395   1.997 -2.3299 -0.5054  0.0476
  128MOL0     H17245   2.085   9.335   1.943  0.2833 -0.0678  0.8849
  128MOL0     H17246   2.018   9.087   1.588  1.6586  0.5227  1.2676
  128MOL0     H17247   2.049   8.965   1.715  1.5285  1.4501  1.6632
  128MOL0     H17248   1.805   8.923   1.638  1.3661 -0.0024 -1.6531
  128MOL0     H17249   1.814   9.000   1.801 -2.7823 -2.8471 -1.6297
  128MOL0     H17250   1.806   9.158   1.553  0.5127  1.5544  0.2764
  128MOL0     H17251   1.785   9.203   1.719 -1.6825  1.0794 -1.3459
  128MOL0     H17252   1.579   9.182   1.559  0.3783 -0.2817  0.6664
  128MOL0     H17253   1.600   9.008   1.567  0.6841  0.0689 -1.3841
  128MOL0     H17254   1.579   9.187   1.819 -0.2576 -0.9260  0.2035
  128MOL0     H17255   1.589   9.022   1.821 -0.3054 -0.7512 -0.6653
  128MOL0     H17256   1.339   9.101   1.840  0.4620 -1.5536  0.9201
  128MOL0     H17257   1.365   9.194   1.699 -1.0342  0.5168  0.3425
  128MOL0     H17258   1.373   8.890   1.731  1.3208  0.6316  1.0297
  128MOL0     H17259   1.366   8.968   1.565 -4.1719 -0.6782 -0.8492
  128MOL0     H17260   1.142   8.909   1.617 -2.4021  2.4152 -0.4549
  128MOL0     H17261   1.153   9.084   1.624 -1.3006 -0.4327 -1.0588
  128MOL0     H17262   2.246   9.050   1.663 -1.1376 -2.0748  2.4002
  128MOL0     H17263   2.467   9.121   1.693 -0.5392 -0.9411  0.7742
  128MOL0     H17264   2.625   9.492   2.051 -1.0375 -0.2121 -1.7981
  128MOL0     H17265   2.801   9.592   2.168 -0.4746  1.5155 -0.6789
  128MOL0     H17266   4.582  10.232   2.243  1.5572  4.0833 -3.7710
  128MOL0     H17267   4.778  10.116   2.279 -1.2006  1.2101  0.1472
  128MOL0     H17268   5.090   9.957   2.289  1.6923 -0.9560  1.2703
  128MOL0     H17269   5.302   9.875   2.376 -0.5577  1.8037  1.6899
  128MOL0     H17270   5.750   9.865   2.244 -1.3730 -1.6246 -2.4820
  128MOL0     H17271   5.669   9.911   2.095 -0.3925 -0.6223  0.3144
  128MOL0     H17272   5.747  10.084   2.329 -1.1243 -1.7552  0.6686
  128MOL0     H17273   5.651  10.151   2.195 -1.8976 -0.8691  1.5285
  128MOL0     H17274   5.817  10.131   2.025  1.0362 -0.7672 -0.6966
  128MOL0     H17275   5.909  10.019   2.137 -0.5476 -0.3261 -0.0927
  128MOL0     H17276   5.978  10.229   2.279 -0.0185 -0.4986 -0.9873
  128MOL0     H17277   5.870  10.324   2.180 -0.5425  0.2159  2.0190
  128MOL0     H17278   6.190  10.355   1.950  2.3309 -0.5778  2.3566
  128MOL0     H17279   5.502  10.072   2.038  0.2335 -1.3051 -0.1936
  128MOL0     H17280   5.285  10.109   1.940 -0.1947  1.2869  1.0707
  129MOL0     O17281   6.774   6.141   1.527  0.0229  0.5205 -0.2505
  129MOL0     C17282   6.705   6.217   1.597 -0.8479  0.8495 -0.4761
  129MOL0     O17283   6.609   6.169   1.691  0.5028  0.3199  0.0559
  129MOL0     C17284   6.586   6.031   1.679  0.1244 -0.2944 -0.0472
  129MOL0     C17285   6.677   5.945   1.738  0.8895  0.1120 -0.2559
  129MOL0     C17286   6.648   5.813   1.729  0.2646  0.3505 -0.5435
  129MOL0     C17287   6.536   5.760   1.657 -0.2335  0.1761  0.7141
  129MOL0     O17288   6.493   5.627   1.661 -0.8338 -0.1140 -0.8675
  129MOL0     C17289   6.511   5.557   1.788  0.0597 -0.0731 -0.3908
  129MOL0     C17290   6.419   5.614   1.895 -0.7726  0.0596 -0.9200
  129MOL0     C17291   6.426   5.534   2.027 -0.3018 -0.8228  0.6824
  129MOL0     C17292   6.305   5.564   2.114  0.1603 -0.5278 -1.0187
  129MOL0     C17293   6.188   5.472   2.064  0.3237  0.3567 -0.7232
  129MOL0     C17294   6.164   5.347   2.158 -0.3499  0.2140  0.0776
  129MOL0     C17295   6.045   5.265   2.133 -0.4679 -0.4139 -0.4112
  129MOL0     C17296   5.920   5.347   2.164 -0.6026 -0.0266  0.4578
  129MOL0     N17297   5.917   5.384   2.304  0.5028  0.5989  0.6592
  129MOL0     C17298   5.864   5.300   2.402 -0.4316 -0.1123 -0.0064
  129MOL0     C17299   5.870   5.385   2.508  0.2532  0.3282 -0.0230
  129MOL0     C17300   5.828   5.345   2.645  0.1518  0.9795 -0.6894
  129MOL0     C17301   5.686   5.300   2.665  0.3886  0.0509  0.4306
  129MOL0     C17302   5.665   5.246   2.811  0.1561  0.4609  0.8823
  129MOL0     C17303   5.517   5.227   2.842  0.4525  0.3417  0.0328
  129MOL0     O17304   5.460   5.114   2.780  0.0610 -0.6914  0.4664
  129MOL0     C17305   5.323   5.114   2.769  0.4125  0.1302  0.4926
  129MOL0     C17306   5.239   5.165   2.868 -0.1298 -0.4368 -0.1162
  129MOL0     C17307   5.102   5.179   2.846 -0.6283  0.3405 -0.1466
  129MOL0     C17308   5.019   5.241   2.956 -0.3909  0.2523  0.4486
  129MOL0     C17309   5.043   5.137   2.730  0.3636  0.5522 -0.2653
  129MOL0     C17310   4.892   5.143   2.692  1.0326 -0.2779  0.5374
  129MOL0     O17311   4.807   5.166   2.796 -0.3794 -0.0954  0.1055
  129MOL0     C17312   4.692   5.239   2.777 -0.0814 -0.2636 -0.4003
  129MOL0     C17313   4.600   5.207   2.671 -0.3914  0.0224 -0.1679
  129MOL0     C17314   4.486   5.284   2.650  0.5264  0.2604 -0.1019
  129MOL0     C17315   4.450   5.388   2.741  0.4381  0.5318 -0.4162
  129MOL0     O17316   4.344   5.472   2.734  0.2655 -0.2561  0.5808
  129MOL0     C17317   4.232   5.461   2.636  0.0567  0.2417 -0.4357
  129MOL0     C17318   4.160   5.329   2.668  0.0818 -0.7300  0.1910
  129MOL0     C17319   4.074   5.348   2.798 -0.0754  0.1988  1.0779
  129MOL0     C17320   4.031   5.210   2.848 -0.7168 -0.2778  0.1709
  129MOL0     C17321   3.930   5.230   2.951 -0.0197 -0.6447 -0.0531
  129MOL0     C17322   3.900   5.098   3.030  0.8705 -0.3591 -0.3204
  129MOL0     C17323   3.817   5.010   2.938 -0.3288 -0.2955 -0.6570
  129MOL0     C17324   3.831   4.868   2.972  0.0535  0.3328  0.2089
  129MOL0    Cl17325   3.760   4.800   3.111  0.2017  0.2593  0.6647
  129MOL0     C17326   4.530   5.405   2.853  0.9867 -0.0799  0.0130
  129MOL0     C17327   4.645   5.332   2.872  0.3826 -0.1922  0.6797
  129MOL0     O17328   4.857   5.126   2.570 -0.4964 -0.3842  0.6372
  129MOL0     C17329   5.127   5.077   2.636  0.3048  0.0070 -0.1406
  129MOL0     C17330   5.268   5.074   2.652  0.9454  0.0913 -0.1059
  129MOL0     N17331   5.927   5.508   2.477  0.8492  0.0286 -0.3133
  129MOL0     N17332   5.942   5.507   2.351 -0.2835  0.4870  0.3485
  129MOL0     C17333   6.459   5.850   1.586 -0.1148  0.8249 -0.0975
  129MOL0     C17334   6.477   5.986   1.601  0.5657 -0.2873  0.3245
  129MOL0     C17335   6.746   6.359   1.609 -0.3942 -0.5835  0.2633
  129MOL0     C17336   6.726   6.445   1.718  0.2082  0.3778  0.8010
  129MOL0     C17337   6.763   6.580   1.708  0.1908 -0.2850 -0.0007
  129MOL0     C17338   6.828   6.634   1.595  0.6258 -0.0601  0.7847
  129MOL0     O17339   6.870   6.763   1.611 -0.5212  0.4049  0.2695
  129MOL0     C17340   6.987   6.800   1.538  0.0642  0.6073 -0.3603
  129MOL0     C17341   6.974   6.858   1.396  0.0467  0.2285  0.0105
  129MOL0     C17342   6.869   6.966   1.370  0.8969  0.7413 -0.4251
  129MOL0     C17343   6.856   7.003   1.227  0.5890  0.0540  0.2736
  129MOL0     C17344   6.971   7.064   1.169 -0.7524  0.3847 -0.3440
  129MOL0     C17345   7.074   7.110   1.129  0.0763  0.3189 -0.1587
  129MOL0     C17346   6.857   6.534   1.497 -0.1156 -0.3741  1.0425
  129MOL0     C17347   6.817   6.406   1.495  0.4911  0.5673  1.0817
  129MOL0     H17348   6.758   5.991   1.793  1.5901 -1.2995 -0.0820
  129MOL0     H17349   6.698   5.758   1.808  0.8194  1.6557  0.0533
  129MOL0     H17350   6.486   5.451   1.791 -1.1245  0.1964 -0.4657
  129MOL0     H17351   6.613   5.568   1.827 -0.5612  1.6263  0.8949
  129MOL0     H17352   6.444   5.719   1.905  1.0205  0.0202 -3.9042
  129MOL0     H17353   6.315   5.617   1.861 -2.1261  2.0875  2.7686
  129MOL0     H17354   6.452   5.431   1.999  1.7149 -0.3800  0.7299
  129MOL0     H17355   6.517   5.573   2.075 -1.2289  2.0222  0.2814
  129MOL0     H17356   6.328   5.541   2.218  0.2122 -0.2116 -0.9586
  129MOL0     H17357   6.275   5.669   2.120 -0.1233 -0.6809  4.1696
  129MOL0     H17358   6.095   5.527   2.050  0.9042  0.8711 -2.7897
  129MOL0     H17359   6.213   5.430   1.967 -0.2370  1.3277 -1.3042
  129MOL0     H17360   6.252   5.286   2.136 -1.6229 -1.1873 -1.4189
  129MOL0     H17361   6.174   5.369   2.265  2.8237  0.1418 -0.1085
  129MOL0     H17362   6.050   5.229   2.029  0.3004 -2.2986  0.2302
  129MOL0     H17363   6.045   5.174   2.194  2.8657 -1.5341 -1.8148
  129MOL0     H17364   5.831   5.288   2.140  0.2440 -1.3546  0.4939
  129MOL0     H17365   5.918   5.426   2.088 -1.6404 -2.1747 -1.9012
  129MOL0     H17366   5.834   5.195   2.397  1.4015 -0.7238  0.9848
  129MOL0     H17367   5.891   5.269   2.692  0.7829  3.2057  2.3945
  129MOL0     H17368   5.849   5.430   2.710 -1.1891  0.2340  0.7777
  129MOL0     H17369   5.657   5.237   2.581 -1.3555  1.5799 -0.1966
  129MOL0     H17370   5.617   5.384   2.647 -2.4066 -2.4924 -1.8736
  129MOL0     H17371   5.681   5.328   2.882 -3.1286 -0.2057  2.5519
  129MOL0     H17372   5.726   5.157   2.829 -2.0995 -1.1942  0.6742
  129MOL0     H17373   5.465   5.319   2.813 -1.0158 -0.9897 -1.8390
  129MOL0     H17374   5.515   5.212   2.950  1.1224 -0.8000 -0.0948
  129MOL0     H17375   5.293   5.198   2.956 -0.1582  2.8152 -1.1650
  129MOL0     H17376   4.953   5.172   3.007 -1.6353  0.7785 -0.3975
  129MOL0     H17377   5.083   5.292   3.029  0.5810  3.1074 -2.1307
  129MOL0     H17378   4.955   5.317   2.909 -0.6876 -2.1019 -3.4134
  129MOL0     H17379   4.627   5.118   2.615 -0.0693  0.0702 -0.0969
  129MOL0     H17380   4.426   5.255   2.564  1.7998  0.8291 -1.2101
  129MOL0     H17381   4.155   5.538   2.646  0.2368  0.1366  3.0331
  129MOL0     H17382   4.277   5.463   2.536  3.5333 -0.0323  0.9876
  129MOL0     H17383   4.100   5.303   2.580 -1.3097  0.8669  0.6094
  129MOL0     H17384   4.230   5.246   2.682  3.0119  1.0570 -2.3702
  129MOL0     H17385   3.988   5.411   2.775  1.3861  2.1004  0.5231
  129MOL0     H17386   4.139   5.394   2.873  3.2138  0.8207 -1.8822
  129MOL0     H17387   3.993   5.151   2.764  1.5607 -0.2558 -0.9692
  129MOL0     H17388   4.116   5.157   2.891 -0.6109  0.3882  0.7999
  129MOL0     H17389   3.832   5.272   2.925  0.0148  0.2320  1.1498
  129MOL0     H17390   3.977   5.307   3.012 -1.1226  1.0388 -1.2317
  129MOL0     H17391   3.996   5.057   3.061  1.0821 -0.5041 -1.1362
  129MOL0     H17392   3.835   5.122   3.115 -2.7040 -0.5583 -2.7805
  129MOL0     H17393   3.847   5.019   2.833  0.1600 -1.3523 -0.6217
  129MOL0     H17394   3.715   5.051   2.940 -1.6643 -3.2956 -1.3710
  129MOL0     H17395   3.935   4.834   2.970 -0.2763 -0.7057 -2.2612
  129MOL0     H17396   3.789   4.819   2.884 -0.5718  1.5494 -0.2001
  129MOL0     H17397   4.508   5.482   2.926 -1.0896 -2.1091  1.7083
  129MOL0     H17398   4.724   5.351   2.944  3.6831 -0.3912 -2.5385
  129MOL0     H17399   5.081   5.036   2.546 -3.3505  4.4686 -0.7419
  129MOL0     H17400   5.333   5.040   2.573 -0.9156  0.0316 -1.6963
  129MOL0     H17401   6.372   5.807   1.538 -1.5776 -0.8637  3.6380
  129MOL0     H17402   6.405   6.054   1.556  2.5104  2.3887  1.0518
  129MOL0     H17403   6.676   6.400   1.803  2.1819 -2.4650  0.6144
  129MOL0     H17404   6.742   6.646   1.791  0.5269 -0.4715  0.2336
  129MOL0     H17405   7.033   6.878   1.600 -0.7122  2.1558 -1.6416
  129MOL0     H17406   7.067   6.725   1.530 -0.4149  0.1793 -1.2792
  129MOL0     H17407   6.966   6.774   1.327 -1.2894 -1.4137  2.0495
  129MOL0     H17408   7.071   6.898   1.363  0.0083 -0.1135 -0.5378
  129MOL0     H17409   6.910   7.053   1.420  1.4718  0.3905 -0.2825
  129MOL0     H17410   6.772   6.935   1.411  0.3696 -0.3595 -2.3341
  129MOL0     H17411   6.774   7.073   1.209 -0.2805 -1.2453 -1.0405
  129MOL0     H17412   6.820   6.912   1.178 -0.8171  0.5647  0.3141
  129MOL0     H17413   7.174   7.139   1.103 -0.5792  1.4806 -1.5185
  129MOL0     H17414   6.903   6.571   1.406 -1.7018 -0.3103  0.2241
  129MOL0     H17415   6.835   6.353   1.403 -1.5034  0.4194  0.7227
  130MOL0     O17416   6.267   0.542   7.972  0.1864 -0.5287  0.1100
  130MOL0     C17417   6.296   0.636   8.050  0.3771 -0.5658 -0.6294
  130MOL0     O17418   6.225   0.678   8.153  0.2136 -0.7664  0.9244
  130MOL0     C17419   6.090   0.643   8.166  0.3241 -0.0282  0.1339
  130MOL0     C17420   6.042   0.514   8.154 -0.6508  0.8990  0.4453
  130MOL0     C17421   5.913   0.466   8.179 -0.0021  0.0070 -0.8678
  130MOL0     C17422   5.817   0.567   8.215 -0.0183 -0.2018 -0.2015
  130MOL0     O17423   5.694   0.536   8.264  0.1325 -0.2377 -0.0980
  130MOL0     C17424   5.655   0.404   8.305 -1.2780 -0.4135 -0.0206
  130MOL0     C17425   5.511   0.418   8.329 -0.3244  0.7163 -0.3449
  130MOL0     C17426   5.469   0.313   8.434 -0.6825 -0.0149 -0.3781
  130MOL0     C17427   5.348   0.370   8.519 -0.2787 -0.1035  0.0473
  130MOL0     C17428   5.270   0.259   8.589  0.0783  0.3393  0.0696
  130MOL0     C17429   5.195   0.297   8.712 -0.6949 -0.0537  0.2653
  130MOL0     C17430   5.111   0.428   8.707  0.1442  0.0412 -0.3972
  130MOL0     C17431   4.983   0.419   8.633  1.1905 -0.0634 -0.2916
  130MOL0     N17432   4.931   0.547   8.607 -0.7003 -0.2569  0.8514
  130MOL0     C17433   4.844   0.604   8.697  0.4945 -0.6575 -0.2047
  130MOL0     C17434   4.848   0.739   8.661 -0.1200 -0.5029 -0.6591
  130MOL0     C17435   4.768   0.846   8.741  0.1565  0.4139 -0.1056
  130MOL0     C17436   4.658   0.917   8.653  0.0825  0.7600  1.1254
  130MOL0     C17437   4.539   0.828   8.604  0.1529 -0.1645 -0.0682
  130MOL0     C17438   4.453   0.743   8.705  0.0776  0.2251 -1.2979
  130MOL0     O17439   4.368   0.677   8.616 -0.2312 -0.2187  0.8679
  130MOL0     C17440   4.232   0.696   8.627  0.1147 -0.6065 -0.1671
  130MOL0     C17441   4.153   0.648   8.733  0.0345 -0.0199 -0.0531
  130MOL0     C17442   4.015   0.652   8.738  0.6670  0.0412 -0.5540
  130MOL0     C17443   3.960   0.594   8.866 -0.5114 -0.3914  0.7183
  130MOL0     C17444   3.949   0.722   8.633  0.3520 -0.1435 -0.2026
  130MOL0     C17445   3.800   0.748   8.629 -0.1957 -0.9660 -0.3747
  130MOL0     O17446   3.751   0.755   8.497 -0.6055  0.0536  0.5982
  130MOL0     C17447   3.622   0.788   8.466  0.6578 -0.5636 -0.7026
  130MOL0     C17448   3.532   0.868   8.546 -0.6216  0.4036  0.5049
  130MOL0     C17449   3.397   0.860   8.540 -0.1877 -0.3332 -0.3082
  130MOL0     C17450   3.340   0.783   8.432 -0.7507  0.2754 -0.7539
  130MOL0     O17451   3.204   0.780   8.401 -0.1922  0.5770 -0.0951
  130MOL0     C17452   3.128   0.898   8.415  0.1297  0.0739  0.7330
  130MOL0     C17453   2.991   0.870   8.345 -0.1165 -0.1440  0.4047
  130MOL0     C17454   2.896   0.968   8.420  0.5312  0.2549  0.7831
  130MOL0     C17455   2.853   0.898   8.553  0.1863 -0.7403  0.1519
  130MOL0     C17456   2.770   0.994   8.650  0.0099  0.4098 -0.8443
  130MOL0     C17457   2.823   1.138   8.688  0.3999 -1.0430  0.8067
  130MOL0     C17458   2.742   1.206   8.795 -0.0671  0.4101  0.2453
  130MOL0     C17459   2.599   1.225   8.769  0.3489  0.3270  0.1787
  130MOL0    Cl17460   2.527   1.333   8.882 -0.5062 -0.2263 -0.4103
  130MOL0     C17461   3.422   0.712   8.341 -0.0293  0.0231 -0.7221
  130MOL0     C17462   3.563   0.722   8.360 -0.4384  0.8272 -0.4187
  130MOL0     O17463   3.739   0.779   8.732  0.2174  0.0644 -0.0403
  130MOL0     C17464   4.028   0.775   8.523  0.4502 -0.0870  0.6904
  130MOL0     C17465   4.169   0.759   8.523  0.2430 -0.3200 -0.3463
  130MOL0     N17466   4.946   0.757   8.560 -0.0629  1.1565  0.5899
  130MOL0     N17467   4.993   0.642   8.526 -1.0809 -0.0962 -0.0687
  130MOL0     C17468   5.853   0.702   8.214 -0.7447  0.0508 -0.4315
  130MOL0     C17469   5.987   0.740   8.188 -0.2406  0.4938 -0.1536
  130MOL0     C17470   6.414   0.718   8.020 -0.1792 -0.3010  0.5326
  130MOL0     C17471   6.453   0.836   8.086 -0.2405  0.6282 -0.9797
  130MOL0     C17472   6.569   0.906   8.044  0.4567  0.1058 -0.6291
  130MOL0     C17473   6.650   0.870   7.945 -0.6554  0.0493 -0.0061
  130MOL0     O17474   6.764   0.944   7.926 -0.0946 -0.2568 -0.1676
  130MOL0     C17475   6.817   0.937   7.786  0.7940 -0.1981 -0.3357
  130MOL0     C17476   6.919   1.038   7.765 -0.0240  0.2757 -0.5961
  130MOL0     C17477   7.005   1.004   7.640 -0.4050 -0.4977 -0.1431
  130MOL0     C17478   7.070   1.123   7.568 -1.0454 -0.7561  0.5966
  130MOL0     C17479   7.164   1.192   7.652 -0.0569 -0.4119 -0.3244
  130MOL0     C17480   7.256   1.229   7.724 -0.1287 -0.2049  1.2034
  130MOL0     C17481   6.600   0.764   7.869 -0.2969  1.7977 -0.0766
  130MOL0     C17482   6.490   0.682   7.909  0.2422  0.5242 -0.2806
  130MOL0     H17483   6.123   0.444   8.132 -0.2313  1.9780 -1.5830
  130MOL0     H17484   5.882   0.362   8.170  1.5871 -0.3194 -4.6335
  130MOL0     H17485   5.682   0.311   8.253 -0.7036 -0.5873  0.5658
  130MOL0     H17486   5.702   0.399   8.404 -1.2477  0.7890  0.0312
  130MOL0     H17487   5.481   0.519   8.358 -1.8898 -0.6767  3.6439
  130MOL0     H17488   5.457   0.382   8.241 -3.5917 -0.2044  1.8109
  130MOL0     H17489   5.443   0.217   8.389  3.0983  0.2002 -3.5468
  130MOL0     H17490   5.550   0.296   8.506 -1.9700 -1.1315  0.8546
  130MOL0     H17491   5.376   0.453   8.585  0.1847 -0.4093  0.2391
  130MOL0     H17492   5.277   0.401   8.442  1.9022 -0.0137 -2.0282
  130MOL0     H17493   5.203   0.218   8.513  0.5783  1.2188 -0.8619
  130MOL0     H17494   5.344   0.189   8.629 -0.6307  1.1222  3.0196
  130MOL0     H17495   5.119   0.224   8.740 -3.0484  1.7144 -1.0952
  130MOL0     H17496   5.273   0.298   8.788 -2.9723 -0.5060  2.7591
  130MOL0     H17497   5.082   0.468   8.805 -0.3534 -1.2671  0.0248
  130MOL0     H17498   5.174   0.498   8.652  0.6768  2.3845  2.9212
  130MOL0     H17499   4.916   0.357   8.694 -0.0930 -0.8673 -2.4075
  130MOL0     H17500   4.996   0.357   8.544  1.2769  1.5870 -1.4655
  130MOL0     H17501   4.785   0.557   8.775 -1.2693  0.1002 -1.0135
  130MOL0     H17502   4.727   0.804   8.834 -0.1746 -2.8960 -1.5908
  130MOL0     H17503   4.849   0.913   8.772  0.6708 -0.4510  0.4781
  130MOL0     H17504   4.709   0.949   8.562  0.3574 -0.1990  0.9286
  130MOL0     H17505   4.615   0.991   8.721 -0.4726  2.0093 -0.5125
  130MOL0     H17506   4.574   0.770   8.518  0.7197 -0.3422  0.2812
  130MOL0     H17507   4.478   0.900   8.548  0.2634 -0.1526 -0.1738
  130MOL0     H17508   4.402   0.803   8.781 -1.0110 -0.5258 -1.4169
  130MOL0     H17509   4.526   0.686   8.764 -2.5869 -1.7038  0.3831
  130MOL0     H17510   4.199   0.591   8.813 -0.4535  0.0233  0.2594
  130MOL0     H17511   3.851   0.592   8.873 -0.4493 -1.0747  1.7453
  130MOL0     H17512   3.999   0.493   8.880  2.7299  0.4374 -1.2490
  130MOL0     H17513   3.995   0.658   8.947 -1.1403  3.0700 -1.5160
  130MOL0     H17514   3.574   0.929   8.625  1.5371  1.5647 -1.4435
  130MOL0     H17515   3.338   0.920   8.608  1.2906  1.8987 -0.8933
  130MOL0     H17516   3.128   0.921   8.522  1.4686 -0.6048  0.9093
  130MOL0     H17517   3.173   0.980   8.357  1.2367 -2.4864 -2.3517
  130MOL0     H17518   2.988   0.902   8.241 -4.3817  4.0131  1.4467
  130MOL0     H17519   2.966   0.764   8.356 -0.5207  0.0232  1.1946
  130MOL0     H17520   2.811   1.000   8.359 -0.1107 -1.0145  0.9727
  130MOL0     H17521   2.944   1.063   8.444 -1.0547  1.3953 -0.3732
  130MOL0     H17522   2.788   0.810   8.542 -1.1991  0.0174  1.7486
  130MOL0     H17523   2.938   0.860   8.611 -1.8573  0.5727  4.4045
  130MOL0     H17524   2.758   0.928   8.737  1.5961  0.9125 -0.2237
  130MOL0     H17525   2.671   1.012   8.607  0.9354  3.1353 -2.0512
  130MOL0     H17526   2.923   1.135   8.732 -0.5752  0.3915  3.3332
  130MOL0     H17527   2.822   1.206   8.602 -1.6628  1.9762  3.0146
  130MOL0     H17528   2.780   1.309   8.805 -0.2506  0.4609  0.4065
  130MOL0     H17529   2.745   1.162   8.895 -0.4206  2.4456  1.2012
  130MOL0     H17530   2.537   1.136   8.769 -0.7966  1.0872  1.6101
  130MOL0     H17531   2.587   1.280   8.675 -0.1885  2.2753  1.3134
  130MOL0     H17532   3.378   0.670   8.252  0.6121  2.0281 -2.0748
  130MOL0     H17533   3.630   0.667   8.295  2.3100  1.8910  1.3406
  130MOL0     H17534   3.970   0.829   8.448  1.2793  1.1083  0.8694
  130MOL0     H17535   4.225   0.798   8.438 -0.2404 -0.0453 -0.5439
  130MOL0     H17536   5.770   0.768   8.236  0.2950  1.0453  0.6253
  130MOL0     H17537   6.024   0.842   8.194  2.0607 -0.2691 -0.2885
  130MOL0     H17538   6.387   0.861   8.168  0.8307 -1.9150  0.7837
  130MOL0     H17539   6.576   0.995   8.104  0.1522 -0.3388  0.0754
  130MOL0     H17540   6.858   0.836   7.780 -1.2640 -1.1429  0.4586
  130MOL0     H17541   6.739   0.952   7.710 -1.0189 -1.2988  1.2281
  130MOL0     H17542   6.977   1.055   7.856 -1.8296  0.6564  0.5295
  130MOL0     H17543   6.880   1.139   7.751 -1.0051  0.1298  0.8835
  130MOL0     H17544   6.944   0.953   7.565  0.6910 -0.0950 -1.3490
  130MOL0     H17545   7.081   0.931   7.670 -1.5647 -2.3421 -1.4774
  130MOL0     H17546   6.995   1.191   7.528 -1.8514 -1.5888  0.6570
  130MOL0     H17547   7.121   1.080   7.482  0.7903  3.2281 -0.5188
  130MOL0     H17548   7.334   1.259   7.791 -0.5795 -0.1998  1.7257
  130MOL0     H17549   6.651   0.725   7.781 -0.9171 -0.3499  0.4618
  130MOL0     H17550   6.469   0.605   7.835 -0.9990  0.1055  0.4877
  131MOL0     O17551   7.078   5.459  11.241 -0.1652  0.9583  0.4613
  131MOL0     C17552   7.098   5.431  11.359  0.1324  0.4104 -1.0133
  131MOL0     O17553   7.049   5.501  11.467 -0.1701 -0.7548 -0.2453
  131MOL0     C17554   6.987   5.625  11.444  0.5106  0.0857 -1.0407
  131MOL0     C17555   7.069   5.728  11.383 -0.1722  0.5871 -0.5070
  131MOL0     C17556   7.033   5.860  11.350 -0.2896  0.3825 -0.5139
  131MOL0     C17557   6.896   5.895  11.375 -0.2171 -0.5627  0.1443
  131MOL0     O17558   6.858   6.024  11.346  0.2847  0.1458 -0.1636
  131MOL0     C17559   6.728   6.039  11.282  0.9729 -0.1062 -0.8747
  131MOL0     C17560   6.702   6.182  11.250  0.4563 -0.3689  0.3134
  131MOL0     C17561   6.594   6.211  11.134 -0.3868 -0.2849  0.1033
  131MOL0     C17562   6.643   6.162  10.996 -0.0709  0.3240 -0.2300
  131MOL0     C17563   6.758   6.248  10.943  0.3627 -0.4178 -0.1990
  131MOL0     C17564   6.804   6.177  10.812  0.1580 -0.1891  0.7107
  131MOL0     C17565   6.930   6.238  10.759  0.3666 -0.5741  0.2857
  131MOL0     C17566   7.046   6.191  10.827 -0.3392  0.2143 -0.6422
  131MOL0     N17567   7.061   6.046  10.850  0.1778  0.5288  1.1215
  131MOL0     C17568   7.008   5.991  10.965 -0.6992 -0.1999 -0.9702
  131MOL0     C17569   6.981   5.860  10.938  0.6096  0.4394  0.3209
  131MOL0     C17570   6.909   5.759  11.023 -0.2587 -0.1359 -0.2471
  131MOL0     C17571   6.766   5.736  10.971 -0.5482  0.1775  0.2185
  131MOL0     C17572   6.704   5.608  11.047 -0.1218  0.7790  0.5134
  131MOL0     C17573   6.673   5.623  11.196  0.1866  0.0253 -0.0429
  131MOL0     O17574   6.587   5.738  11.220  0.7390 -0.0264  0.1993
  131MOL0     C17575   6.450   5.717  11.224 -0.5555 -0.0213  0.5635
  131MOL0     C17576   6.386   5.689  11.343 -0.2763  1.3297  0.3102
  131MOL0     C17577   6.256   5.643  11.346  1.4267 -0.5713  0.1525
  131MOL0     C17578   6.199   5.607  11.486 -0.3361 -0.2748  0.2293
  131MOL0     C17579   6.177   5.647  11.223 -0.3217  0.1937 -0.6611
  131MOL0     C17580   6.032   5.615  11.216 -0.0952 -0.4082  0.3604
  131MOL0     O17581   5.987   5.497  11.275 -0.8008 -0.4885  0.0486
  131MOL0     C17582   5.857   5.466  11.260  0.7955  0.3623  0.4858
  131MOL0     C17583   5.780   5.435  11.371 -0.5760 -0.2357 -0.2996
  131MOL0     C17584   5.646   5.392  11.377 -1.4658  0.0264  0.5468
  131MOL0     C17585   5.578   5.375  11.260  0.3159  0.5634  1.4033
  131MOL0     O17586   5.446   5.341  11.272  0.3253  0.2950 -0.8204
  131MOL0     C17587   5.341   5.370  11.172 -1.1711 -0.3013  0.8581
  131MOL0     C17588   5.317   5.513  11.161  0.3403 -1.1870 -0.1562
  131MOL0     C17589   5.225   5.529  11.037 -1.9508 -0.1592 -0.0974
  131MOL0     C17590   5.173   5.665  11.023  0.0221  0.3304  0.8300
  131MOL0     C17591   5.052   5.668  10.924  0.3516  0.1309 -0.3555
  131MOL0     C17592   4.959   5.793  10.957  0.0382 -0.1041  0.2741
  131MOL0     C17593   4.820   5.780  10.900  0.0377  0.0418 -0.4749
  131MOL0     C17594   4.722   5.747  11.017  0.3218 -0.1905  0.3275
  131MOL0    Cl17595   4.563   5.720  10.940 -0.3198 -0.2003 -0.2920
  131MOL0     C17596   5.638   5.418  11.139  0.3735 -1.1173 -0.0708
  131MOL0     C17597   5.774   5.456  11.141  0.7633  0.0853  0.5139
  131MOL0     O17598   5.966   5.687  11.137 -0.7634 -0.2727  0.7517
  131MOL0     C17599   6.241   5.682  11.109 -0.2467 -0.9548  0.5184
  131MOL0     C17600   6.378   5.715  11.100 -0.4824 -0.2703 -1.0177
  131MOL0     N17601   7.039   5.832  10.804  0.8800 -0.5843  0.1851
  131MOL0     N17602   7.082   5.950  10.762  0.1101  0.1299 -0.0333
  131MOL0     C17603   6.805   5.799  11.440  0.0929 -0.1702 -0.0324
  131MOL0     C17604   6.855   5.663  11.476 -0.3987  0.3522 -1.0032
  131MOL0     C17605   7.199   5.330  11.391  0.4938 -0.2545 -0.9372
  131MOL0     C17606   7.261   5.325  11.517 -0.3321  0.4944 -0.1740
  131MOL0     C17607   7.370   5.233  11.541  1.0152  0.5043 -0.6375
  131MOL0     C17608   7.392   5.133  11.448 -0.6502  0.2235 -0.5087
  131MOL0     O17609   7.494   5.041  11.480  0.1993  0.5601  0.9339
  131MOL0     C17610   7.490   4.908  11.423  0.0180 -0.4044 -0.3591
  131MOL0     C17611   7.619   4.839  11.461 -0.2396  0.4596 -0.8800
  131MOL0     C17612   7.652   4.706  11.392 -0.2531 -0.0607  0.2526
  131MOL0     C17613   7.585   4.585  11.461 -0.1123  0.1189  0.3279
  131MOL0     C17614   7.449   4.570  11.396 -0.2316 -0.2039 -0.3657
  131MOL0     C17615   7.342   4.563  11.341  0.5343  0.8205 -0.2742
  131MOL0     C17616   7.331   5.137  11.321 -0.6139  0.6154  0.5562
  131MOL0     C17617   7.235   5.236  11.286 -0.6372 -0.4882  0.0827
  131MOL0     H17618   7.173   5.703  11.367 -0.1984 -1.9131  2.2922
  131MOL0     H17619   7.094   5.938  11.305 -1.0291  1.6750  0.6410
  131MOL0     H17620   6.712   5.972  11.197 -2.5821 -2.7680  1.6312
  131MOL0     H17621   6.647   6.005  11.347  1.9891  1.6501  1.4497
  131MOL0     H17622   6.672   6.236  11.340 -2.1717 -1.5346  0.2485
  131MOL0     H17623   6.803   6.211  11.220  1.2287 -2.1489  1.0344
  131MOL0     H17624   6.497   6.166  11.157  0.7383 -2.5889  0.6312
  131MOL0     H17625   6.576   6.319  11.131 -2.1419 -0.5484  0.1438
  131MOL0     H17626   6.677   6.058  11.000  1.6800  0.7671 -1.9021
  131MOL0     H17627   6.562   6.162  10.923  1.4949  0.8100 -2.0440
  131MOL0     H17628   6.722   6.348  10.920 -0.4148 -0.5910  0.2491
  131MOL0     H17629   6.841   6.251  11.014  0.9947  1.2396 -0.9445
  131MOL0     H17630   6.812   6.068  10.816 -2.2985 -0.4218  0.9672
  131MOL0     H17631   6.724   6.202  10.741  0.1574 -2.7792 -0.3359
  131MOL0     H17632   6.929   6.213  10.653 -0.9024  1.2056 -0.1606
  131MOL0     H17633   6.909   6.345  10.770 -0.4437 -0.4592 -1.9389
  131MOL0     H17634   7.037   6.241  10.923  1.8259  0.1796 -0.3756
  131MOL0     H17635   7.132   6.243  10.785  0.7283  0.4251  1.6616
  131MOL0     H17636   6.978   6.039  11.058 -2.5108  0.6665 -1.9518
  131MOL0     H17637   6.957   5.661  11.025 -2.0176 -1.0236  1.0970
  131MOL0     H17638   6.906   5.804  11.122  0.9213 -3.0524  1.2349
  131MOL0     H17639   6.762   5.713  10.864 -0.9197  0.1938  0.2287
  131MOL0     H17640   6.700   5.820  10.991 -0.6440 -0.0771  1.0343
  131MOL0     H17641   6.774   5.524  11.035  0.5931  1.3731  0.4403
  131MOL0     H17642   6.611   5.585  10.994 -1.2612  2.1783  1.8143
  131MOL0     H17643   6.773   5.642  11.236  0.2860  1.2900 -0.8138
  131MOL0     H17644   6.620   5.537  11.238 -1.1596  0.2648 -1.1722
  131MOL0     H17645   6.448   5.691  11.432  1.2173  1.9875 -0.7099
  131MOL0     H17646   6.098   5.648  11.493 -1.2022 -1.7954 -2.1403
  131MOL0     H17647   6.191   5.499  11.497  2.1902 -0.5798 -0.1389
  131MOL0     H17648   6.255   5.644  11.573 -1.4159  0.4267  0.6365
  131MOL0     H17649   5.836   5.438  11.464  2.5572  1.3601 -2.0661
  131MOL0     H17650   5.610   5.370  11.477  2.1682 -1.9683  1.6061
  131MOL0     H17651   5.369   5.319  11.079  0.1991  1.2562  0.3736
  131MOL0     H17652   5.245   5.323  11.195 -1.6563 -0.2145 -0.8613
  131MOL0     H17653   5.277   5.548  11.256  2.2317  2.0321 -0.4044
  131MOL0     H17654   5.405   5.565  11.123 -1.1138 -0.1304 -2.3113
  131MOL0     H17655   5.141   5.463  11.060 -2.1943  0.4841  0.9702
  131MOL0     H17656   5.282   5.496  10.950 -0.0616 -0.3299  1.1435
  131MOL0     H17657   5.128   5.701  11.116 -1.2134 -0.5487  0.5990
  131MOL0     H17658   5.250   5.730  10.982  0.1079 -0.2059  0.1347
  131MOL0     H17659   4.992   5.582  10.955  2.2406 -0.4121  2.0517
  131MOL0     H17660   5.079   5.661  10.818  0.2694 -0.9083 -0.3220
  131MOL0     H17661   4.948   5.814  11.063 -0.9222  0.4509  0.0777
  131MOL0     H17662   4.992   5.890  10.918 -0.3835 -0.2329 -0.4218
  131MOL0     H17663   4.808   5.705  10.821  1.0923 -1.3537  0.6396
  131MOL0     H17664   4.786   5.875  10.857 -0.4417  0.2427  0.3283
  131MOL0     H17665   4.727   5.834  11.084 -2.5211  0.5497 -0.2815
  131MOL0     H17666   4.760   5.655  11.062 -0.4384 -0.3825  0.5906
  131MOL0     H17667   5.583   5.423  11.045 -0.6501  1.9714  0.5600
  131MOL0     H17668   5.815   5.488  11.046  3.0305 -2.7733  0.3959
  131MOL0     H17669   6.185   5.683  11.016  1.1484  0.6114 -0.3746
  131MOL0     H17670   6.437   5.737  11.012 -1.1752  2.1059 -0.9585
  131MOL0     H17671   6.703   5.824  11.468  0.6534  1.1947  0.9064
  131MOL0     H17672   6.797   5.588  11.528  1.2004  1.3466  2.5415
  131MOL0     H17673   7.233   5.383  11.604 -0.5490 -0.7347  0.5981
  131MOL0     H17674   7.417   5.246  11.637 -2.5914  1.8718  1.1526
  131MOL0     H17675   7.410   4.845  11.462  0.0521 -1.2977 -1.6551
  131MOL0     H17676   7.488   4.903  11.314 -1.1104 -2.6592 -0.2830
  131MOL0     H17677   7.623   4.834  11.570  0.3913 -0.3871 -0.9364
  131MOL0     H17678   7.699   4.906  11.428  0.5288 -0.1486 -0.2746
  131MOL0     H17679   7.760   4.691  11.401 -0.2317  1.0304  2.3991
  131MOL0     H17680   7.628   4.709  11.285  0.8551  0.2598  0.0039
  131MOL0     H17681   7.588   4.601  11.569 -1.3094  1.2288  0.2276
  131MOL0     H17682   7.641   4.495  11.434 -0.2672  0.4841 -1.3332
  131MOL0     H17683   7.243   4.575  11.302  0.1107 -2.3052 -0.4264
  131MOL0     H17684   7.350   5.056  11.251  1.7472  2.1168 -0.6842
  131MOL0     H17685   7.183   5.253  11.193  1.7143  4.1997 -0.6369
  132MOL0     O17686   6.211   2.698   5.924 -0.3504  0.3499 -0.1643
  132MOL0     C17687   6.268   2.807   5.905  0.0686 -0.0634  0.6983
  132MOL0     O17688   6.258   2.875   5.790 -0.2947  0.6026  0.3236
  132MOL0     C17689   6.175   2.832   5.690 -0.2883 -0.6791 -0.0551
  132MOL0     C17690   6.037   2.820   5.710 -0.3009  0.4514  0.7149
  132MOL0     C17691   5.953   2.780   5.605  0.6051  0.3783 -0.2158
  132MOL0     C17692   6.011   2.757   5.476 -0.8848  0.3050  0.8944
  132MOL0     O17693   5.933   2.704   5.379  0.2469 -0.8088 -0.7725
  132MOL0     C17694   5.979   2.690   5.242  0.4720 -0.5857 -0.4965
  132MOL0     C17695   5.862   2.653   5.160 -0.2730  0.4065  0.3292
  132MOL0     C17696   5.820   2.502   5.176  0.3387  1.1126  0.1146
  132MOL0     C17697   5.694   2.490   5.080 -0.0196 -0.5293  0.3730
  132MOL0     C17698   5.643   2.353   5.059 -0.7275 -0.3774  1.3300
  132MOL0     C17699   5.497   2.354   5.010 -0.2404  1.0176  0.1898
  132MOL0     C17700   5.467   2.205   4.972  0.7244 -0.7637  1.0018
  132MOL0     C17701   5.327   2.166   4.946  0.5150 -0.1077  0.3187
  132MOL0     N17702   5.250   2.156   5.069  0.3000  0.5981 -0.0046
  132MOL0     C17703   5.256   2.065   5.178  0.4170  0.3008  0.2445
  132MOL0     C17704   5.180   2.116   5.266 -0.0317 -0.7503  0.5958
  132MOL0     C17705   5.156   2.056   5.399 -0.1207 -0.6057  0.0881
  132MOL0     C17706   5.005   2.017   5.404  0.4944 -0.5490  0.8767
  132MOL0     C17707   4.953   1.980   5.544  0.1105 -0.9887 -0.3759
  132MOL0     C17708   4.802   1.980   5.543 -0.4063 -0.4344  0.4036
  132MOL0     O17709   4.760   2.112   5.532 -0.3529  0.1436 -0.6129
  132MOL0     C17710   4.625   2.127   5.549  0.0137  0.6442 -0.7438
  132MOL0     C17711   4.529   2.041   5.498  0.6935  0.3911 -0.1132
  132MOL0     C17712   4.393   2.062   5.516 -0.0361 -0.2478 -0.1539
  132MOL0     C17713   4.302   1.947   5.469  0.3103 -0.9591 -0.4516
  132MOL0     C17714   4.351   2.184   5.575 -0.4315 -0.0176  0.8016
  132MOL0     C17715   4.210   2.220   5.594  0.3254 -0.4884  0.1261
  132MOL0     O17716   4.116   2.125   5.582 -0.6548 -0.2659 -0.7897
  132MOL0     C17717   4.001   2.147   5.649 -0.0085  0.2255  0.6504
  132MOL0     C17718   3.891   2.146   5.574 -0.0585  0.3929  0.9788
  132MOL0     C17719   3.762   2.163   5.627  0.4984  0.2994  0.1578
  132MOL0     C17720   3.750   2.190   5.763  0.0063 -0.3688  0.5923
  132MOL0     O17721   3.634   2.215   5.830 -0.2938 -0.0231 -0.2778
  132MOL0     C17722   3.521   2.283   5.765 -0.0798  0.2444  0.3011
  132MOL0     C17723   3.397   2.278   5.855  1.1903  0.2906  0.7620
  132MOL0     C17724   3.345   2.133   5.872  0.1923  0.0535 -0.3609
  132MOL0     C17725   3.221   2.130   5.966 -0.2148  0.5862  0.5202
  132MOL0     C17726   3.190   1.995   6.027 -0.1019 -0.5182 -0.0486
  132MOL0     C17727   3.060   2.000   6.114 -0.2373  0.2591 -0.1058
  132MOL0     C17728   3.070   1.864   6.202  0.5074  0.0312  0.1336
  132MOL0     C17729   2.944   1.777   6.198  0.1511 -0.8322  0.3571
  132MOL0    Cl17730   2.917   1.666   6.052 -0.1507  0.1614 -0.0197
  132MOL0     C17731   3.866   2.182   5.842  0.0184  0.3200  0.1845
  132MOL0     C17732   3.992   2.163   5.785  0.2231  0.7661  0.0156
  132MOL0     O17733   4.187   2.333   5.633  0.0964 -0.1555 -0.2048
  132MOL0     C17734   4.450   2.271   5.615  0.8151 -0.0429  0.2615
  132MOL0     C17735   4.582   2.245   5.604  0.1524  0.2762 -0.1528
  132MOL0     N17736   5.137   2.241   5.221  0.0089 -0.2170  0.1216
  132MOL0     N17737   5.172   2.260   5.102 -0.0902 -0.1382  0.6440
  132MOL0     C17738   6.151   2.789   5.453  0.8969  0.2453  0.2875
  132MOL0     C17739   6.234   2.822   5.563 -0.5994  0.2502 -0.4793
  132MOL0     C17740   6.344   2.853   6.025 -0.0042  0.0808  0.1176
  132MOL0     C17741   6.334   2.794   6.153  0.5806  0.8416  0.3754
  132MOL0     C17742   6.418   2.823   6.260 -0.6133  0.1466  0.0825
  132MOL0     C17743   6.521   2.915   6.237 -0.4206  0.2961  0.0560
  132MOL0     O17744   6.626   2.948   6.315 -0.3623 -0.6856  0.0956
  132MOL0     C17745   6.665   2.854   6.421  0.5096  0.5511  0.1589
  132MOL0     C17746   6.655   2.922   6.560  0.3009  0.4425 -0.0684
  132MOL0     C17747   6.672   2.823   6.676 -0.3993  0.7670 -0.5377
  132MOL0     C17748   6.624   2.872   6.807 -0.5085  1.4048 -0.5767
  132MOL0     C17749   6.667   2.790   6.920  0.0524 -0.0566  0.2508
  132MOL0     C17750   6.708   2.726   7.018  0.1797 -0.0622  0.9764
  132MOL0     C17751   6.538   2.971   6.104  0.0024  0.1352 -0.0595
  132MOL0     C17752   6.456   2.943   6.001 -0.4328  1.1101 -0.0379
  132MOL0     H17753   6.001   2.835   5.812  2.0901 -0.6620  1.8120
  132MOL0     H17754   5.850   2.763   5.635  1.1907 -0.7114  1.2961
  132MOL0     H17755   6.025   2.784   5.211  0.9165  0.8620  3.9162
  132MOL0     H17756   6.044   2.604   5.228  1.0049 -0.7506  2.4240
  132MOL0     H17757   5.776   2.711   5.194  0.4708  1.1094  1.0290
  132MOL0     H17758   5.892   2.671   5.056 -0.6119  1.8456  0.4673
  132MOL0     H17759   5.901   2.443   5.133 -0.3525  1.2383 -1.4274
  132MOL0     H17760   5.807   2.459   5.275  1.1062 -0.7156 -0.5320
  132MOL0     H17761   5.622   2.545   5.140  0.2506  2.7406 -2.0645
  132MOL0     H17762   5.704   2.534   4.981  1.7372 -1.5308  0.0532
  132MOL0     H17763   5.713   2.321   4.982  2.1398 -0.3137  3.7444
  132MOL0     H17764   5.658   2.295   5.150 -0.5450 -2.4217  0.0567
  132MOL0     H17765   5.429   2.392   5.087  1.1784  1.3943  1.3131
  132MOL0     H17766   5.493   2.413   4.918  2.5800  1.2493  0.1154
  132MOL0     H17767   5.527   2.172   4.886  2.8970  2.0818  1.2555
  132MOL0     H17768   5.506   2.138   5.049  0.7370 -3.9570 -1.5351
  132MOL0     H17769   5.326   2.070   4.893  0.1303  0.1230 -0.1037
  132MOL0     H17770   5.272   2.241   4.888  2.5080  2.6231  1.7082
  132MOL0     H17771   5.326   1.983   5.195  2.2058  1.6462 -0.3298
  132MOL0     H17772   5.215   1.966   5.415 -0.9268 -0.9784  1.0740
  132MOL0     H17773   5.186   2.129   5.474  2.2234  0.3599 -1.6642
  132MOL0     H17774   4.987   1.927   5.345 -0.2691 -1.2908  2.1799
  132MOL0     H17775   4.948   2.103   5.365 -1.3355 -1.4489  1.4216
  132MOL0     H17776   4.979   2.059   5.615  1.0150  0.1647 -1.9263
  132MOL0     H17777   4.991   1.881   5.571  0.2363 -0.0072  3.5938
  132MOL0     H17778   4.776   1.937   5.640 -1.8507  0.1249  0.2771
  132MOL0     H17779   4.772   1.916   5.460  1.3179  1.4405 -1.7958
  132MOL0     H17780   4.557   1.945   5.456 -1.4217 -1.1159  1.7007
  132MOL0     H17781   4.228   1.965   5.390 -0.1770  0.7419  0.3527
  132MOL0     H17782   4.369   1.868   5.434  1.4869 -0.6374  1.0007
  132MOL0     H17783   4.256   1.900   5.556  0.6661 -1.2146 -0.4018
  132MOL0     H17784   3.899   2.125   5.468  1.0830 -0.2943  1.1863
  132MOL0     H17785   3.673   2.144   5.568 -1.0637 -0.4432  2.5767
  132MOL0     H17786   3.554   2.387   5.750 -1.0965  1.3975  4.5576
  132MOL0     H17787   3.495   2.233   5.672 -0.9777  0.1899  0.5672
  132MOL0     H17788   3.428   2.325   5.949  0.7763 -1.8172  2.0191
  132MOL0     H17789   3.322   2.332   5.797  0.1124  0.3752  2.1614
  132MOL0     H17790   3.422   2.066   5.911  1.0793  0.2346 -1.7061
  132MOL0     H17791   3.316   2.089   5.776  1.4584 -1.8637  0.0807
  132MOL0     H17792   3.234   2.192   6.055  0.1315 -0.3071  1.1080
  132MOL0     H17793   3.134   2.165   5.909  0.3497  1.9131  0.4406
  132MOL0     H17794   3.274   1.969   6.092  0.5772  0.8635 -0.3487
  132MOL0     H17795   3.176   1.924   5.945  2.8234 -1.6305  0.2685
  132MOL0     H17796   3.082   2.078   6.188 -0.3362  1.9970 -1.8240
  132MOL0     H17797   2.965   2.010   6.060  0.1579 -0.3435 -0.9163
  132MOL0     H17798   3.072   1.892   6.307  1.0878  1.1352 -0.1524
  132MOL0     H17799   3.159   1.805   6.177 -1.6384 -2.2049 -2.9628
  132MOL0     H17800   2.855   1.837   6.219  1.7062  0.7378  2.9903
  132MOL0     H17801   2.950   1.719   6.290 -1.4615 -1.5982  0.0209
  132MOL0     H17802   3.857   2.183   5.950  1.9181 -0.3325  0.3874
  132MOL0     H17803   4.077   2.152   5.850 -1.4367 -1.9858  1.9093
  132MOL0     H17804   4.416   2.365   5.659  0.3587 -0.3069  0.4786
  132MOL0     H17805   4.667   2.304   5.638  0.4771 -0.9280  1.1894
  132MOL0     H17806   6.203   2.764   5.361  1.1017  0.9094  0.2203
  132MOL0     H17807   6.343   2.825   5.560 -0.4866 -2.0684 -0.9442
  132MOL0     H17808   6.262   2.716   6.178  2.3206 -0.8387  0.3544
  132MOL0     H17809   6.407   2.781   6.360 -0.6314 -0.0810 -0.0146
  132MOL0     H17810   6.603   2.764   6.409  0.5752  0.6245 -0.7653
  132MOL0     H17811   6.766   2.815   6.410 -0.1302 -2.2571  2.8008
  132MOL0     H17812   6.552   2.958   6.574 -0.7541 -1.4200 -2.3219
  132MOL0     H17813   6.725   3.005   6.572 -0.1281  0.9320 -0.8815
  132MOL0     H17814   6.774   2.783   6.680 -1.5714 -2.4808  0.3979
  132MOL0     H17815   6.611   2.734   6.656  1.4067 -0.4487 -0.8626
  132MOL0     H17816   6.514   2.871   6.810 -0.5003 -0.7340  0.6248
  132MOL0     H17817   6.672   2.969   6.820 -1.3894  1.6192  1.5328
  132MOL0     H17818   6.754   2.678   7.101  0.6662 -1.4423 -0.0532
  132MOL0     H17819   6.617   3.044   6.093 -0.1105  1.3068  4.8183
  132MOL0     H17820   6.459   2.988   5.902 -0.6348  2.6703  0.6225
  133MOL0     O17821   6.932   1.160   7.089  0.7393 -0.1254  0.4359
  133MOL0     C17822   6.952   1.278   7.077 -0.4475 -0.6438  0.3621
  133MOL0     O17823   6.867   1.366   7.020 -0.8187  0.0261 -0.6790
  133MOL0     C17824   6.738   1.328   6.993 -0.5090 -0.2451 -0.8366
  133MOL0     C17825   6.692   1.293   6.865  0.3749 -0.4458 -0.3401
  133MOL0     C17826   6.555   1.260   6.849  0.2820  0.2639 -0.2111
  133MOL0     C17827   6.465   1.264   6.957  0.1972  0.6401 -0.4615
  133MOL0     O17828   6.335   1.246   6.945  0.4889 -0.2391 -0.1703
  133MOL0     C17829   6.288   1.127   6.884 -0.4340 -0.5203  0.4442
  133MOL0     C17830   6.142   1.147   6.848 -0.8613 -0.0195 -0.0905
  133MOL0     C17831   6.081   1.014   6.799  0.0376  0.8901 -0.4207
  133MOL0     C17832   5.926   1.007   6.779 -0.5945 -0.2958  0.1535
  133MOL0     C17833   5.863   0.873   6.735 -0.4152  1.2565 -0.0201
  133MOL0     C17834   5.715   0.895   6.725 -0.1374 -0.3675 -0.8405
  133MOL0     C17835   5.635   0.771   6.673 -0.1517  0.3374  0.0541
  133MOL0     C17836   5.610   0.658   6.784  0.4937 -0.2022  0.0542
  133MOL0     N17837   5.557   0.526   6.730 -0.0857  0.2117 -0.0067
  133MOL0     C17838   5.562   0.411   6.809  0.1819  0.3328  0.6804
  133MOL0     C17839   5.454   0.345   6.768  0.0785 -0.6401  1.0512
  133MOL0     C17840   5.410   0.232   6.857 -0.0968 -0.0818  0.2408
  133MOL0     C17841   5.383   0.089   6.787 -0.1504 -0.6076  0.0106
  133MOL0     C17842   5.388  -0.027   6.887  0.1352  1.1996  0.2519
  133MOL0     C17843   5.252  -0.053   6.951 -0.5073  0.4260  0.0758
  133MOL0     O17844   5.218   0.045   7.050  0.7014  0.0050  0.1933
  133MOL0     C17845   5.091   0.047   7.104 -0.1822 -0.9301 -0.1793
  133MOL0     C17846   4.978  -0.022   7.051 -0.3261  0.1942  0.6922
  133MOL0     C17847   4.852  -0.016   7.109  0.5141 -0.9464 -0.7490
  133MOL0     C17848   4.733  -0.091   7.050 -0.2687  0.3813  0.3188
  133MOL0     C17849   4.832   0.055   7.231 -0.3359  0.0446 -1.0843
  133MOL0     C17850   4.699   0.071   7.300 -0.6720 -0.0837 -0.2584
  133MOL0     O17851   4.605  -0.031   7.284 -0.3483  0.8651 -0.3957
  133MOL0     C17852   4.481  -0.033   7.350  0.4319 -0.2805 -0.1981
  133MOL0     C17853   4.428  -0.159   7.374 -0.0565 -0.4283  0.3530
  133MOL0     C17854   4.294  -0.170   7.423 -0.0475 -0.2417  1.2895
  133MOL0     C17855   4.214  -0.058   7.445 -0.9298 -0.8866  0.4452
  133MOL0     O17856   4.093  -0.060   7.494 -0.0676 -0.0647  0.0103
  133MOL0     C17857   3.994  -0.066   7.394  0.0792  0.0012 -0.6631
  133MOL0     C17858   3.858  -0.063   7.468 -0.0996  0.6307 -0.2684
  133MOL0     C17859   3.813  -0.197   7.510  0.1014  0.0561 -0.5218
  133MOL0     C17860   3.666  -0.196   7.569  0.2463  0.2171  0.0398
  133MOL0     C17861   3.644  -0.325   7.640  0.5087  0.6403  0.7076
  133MOL0     C17862   3.505  -0.322   7.711  0.2349 -0.1084 -0.0536
  133MOL0     C17863   3.379  -0.268   7.646 -0.3862 -0.6874  0.5421
  133MOL0     C17864   3.345  -0.347   7.516  1.0018 -0.3951 -0.3880
  133MOL0    Cl17865   3.230  -0.242   7.431 -0.4142  0.4007  0.0775
  133MOL0     C17866   4.275   0.069   7.423 -0.2041 -0.6081  0.5822
  133MOL0     C17867   4.406   0.081   7.386  0.2613 -0.1096 -0.2619
  133MOL0     O17868   4.683   0.165   7.374  0.0143  0.0907  0.1433
  133MOL0     C17869   4.937   0.124   7.288  0.6266 -0.9810  0.6994
  133MOL0     C17870   5.069   0.113   7.229  0.4832  0.0518 -0.1307
  133MOL0     N17871   5.390   0.411   6.670  0.2649 -0.3075  0.0740
  133MOL0     N17872   5.456   0.513   6.648  0.5125 -0.4094  0.0200
  133MOL0     C17873   6.514   1.314   7.082 -0.1496  0.5289  1.1992
  133MOL0     C17874   6.647   1.342   7.094  0.3158  0.9625 -0.9308
  133MOL0     C17875   7.090   1.326   7.113  0.4288 -0.2047 -0.6996
  133MOL0     C17876   7.185   1.240   7.176 -1.0421  0.3355 -0.6384
  133MOL0     C17877   7.303   1.297   7.224 -0.3793 -0.0592 -0.4563
  133MOL0     C17878   7.345   1.427   7.195  0.1201 -0.5461 -0.7141
  133MOL0     O17879   7.460   1.482   7.244  0.9421 -0.3990 -0.3376
  133MOL0     C17880   7.447   1.544   7.380 -0.4768  1.2017  0.0380
  133MOL0     C17881   7.485   1.685   7.392 -1.1576  0.2006  0.0824
  133MOL0     C17882   7.476   1.738   7.542 -0.2294 -0.2309 -0.2328
  133MOL0     C17883   7.597   1.836   7.569  0.4068 -1.1676 -0.7419
  133MOL0     C17884   7.725   1.768   7.592 -0.4458 -0.7747  0.0712
  133MOL0     C17885   7.830   1.716   7.604 -0.6061  0.3893  0.6549
  133MOL0     C17886   7.251   1.510   7.133  0.3383  0.2384 -0.7951
  133MOL0     C17887   7.126   1.459   7.092  0.4185 -0.2957 -0.6247
  133MOL0     H17888   6.764   1.314   6.788  0.0808  0.1271 -0.4607
  133MOL0     H17889   6.524   1.238   6.748 -0.3776 -2.2899  0.4964
  133MOL0     H17890   6.349   1.104   6.797  1.0097  0.9061  1.0314
  133MOL0     H17891   6.305   1.046   6.956 -0.6135  1.1006  2.4126
  133MOL0     H17892   6.082   1.176   6.934 -1.4468 -1.9893  0.2128
  133MOL0     H17893   6.136   1.218   6.765  0.1062 -2.8046 -2.7666
  133MOL0     H17894   6.134   0.980   6.709  0.1631  0.6659 -0.2644
  133MOL0     H17895   6.105   0.945   6.881  1.4553 -0.5306 -1.9565
  133MOL0     H17896   5.885   1.031   6.878  1.4210  2.4318  0.4356
  133MOL0     H17897   5.903   1.091   6.713  1.1953  0.7688  0.8217
  133MOL0     H17898   5.905   0.843   6.639 -1.4532 -5.1820  1.0679
  133MOL0     H17899   5.886   0.790   6.803 -1.7370  0.7401 -0.1908
  133MOL0     H17900   5.675   0.932   6.819 -3.4791  1.1351 -2.6647
  133MOL0     H17901   5.692   0.979   6.658 -1.0526 -0.1955 -0.3216
  133MOL0     H17902   5.543   0.799   6.621  1.3379  0.0630 -2.9096
  133MOL0     H17903   5.700   0.732   6.594  0.3083  1.1993 -0.0078
  133MOL0     H17904   5.544   0.708   6.855  1.9432  1.0142  0.5767
  133MOL0     H17905   5.708   0.639   6.828  0.4566  0.2918  0.3520
  133MOL0     H17906   5.631   0.378   6.885 -0.6189 -0.3772  1.1133
  133MOL0     H17907   5.463   0.222   6.952 -2.5988 -2.3518  1.5453
  133MOL0     H17908   5.307   0.253   6.889 -0.6181 -1.8588 -0.1221
  133MOL0     H17909   5.456   0.072   6.707 -0.5371  0.0377 -0.4856
  133MOL0     H17910   5.287   0.096   6.735  0.0224 -3.7782 -0.9458
  133MOL0     H17911   5.458  -0.014   6.970  0.9735 -0.6957 -0.1079
  133MOL0     H17912   5.431  -0.121   6.852  4.9573  3.4999 -0.7410
  133MOL0     H17913   5.267  -0.147   7.005  0.5431  1.8180  2.4209
  133MOL0     H17914   5.170  -0.064   6.880 -0.8583  1.1678  0.3567
  133MOL0     H17915   4.986  -0.078   6.959 -0.7245 -0.9372  1.3368
  133MOL0     H17916   4.644  -0.030   7.040  0.5517  1.6003  0.2380
  133MOL0     H17917   4.754  -0.135   6.952 -2.0867  1.4305 -0.6008
  133MOL0     H17918   4.711  -0.170   7.123  0.5631  0.9749  1.2407
  133MOL0     H17919   4.488  -0.243   7.342 -0.5896 -0.6603 -0.0600
  133MOL0     H17920   4.237  -0.261   7.439 -4.6196  2.0341 -0.4881
  133MOL0     H17921   4.008   0.025   7.335  0.2429  0.4218  0.0225
  133MOL0     H17922   4.005  -0.156   7.332 -0.8633 -1.1346  0.7431
  133MOL0     H17923   3.860   0.004   7.554 -3.1012  0.2566  0.2051
  133MOL0     H17924   3.785  -0.013   7.404  1.3923  0.7105 -1.9937
  133MOL0     H17925   3.878  -0.241   7.586 -3.6823 -2.6858  1.4711
  133MOL0     H17926   3.811  -0.263   7.422 -0.1945 -1.0481  0.2916
  133MOL0     H17927   3.658  -0.111   7.638 -3.5285  1.7197 -1.9233
  133MOL0     H17928   3.597  -0.179   7.485  2.7488  1.1584 -1.9622
  133MOL0     H17929   3.723  -0.350   7.711  0.5407 -1.5900 -0.0365
  133MOL0     H17930   3.650  -0.403   7.564  1.6771 -0.3003  1.7323
  133MOL0     H17931   3.485  -0.422   7.751  1.3824 -0.6270 -0.7461
  133MOL0     H17932   3.527  -0.257   7.796 -0.3506 -2.5965  2.1261
  133MOL0     H17933   3.383  -0.162   7.619  0.3666 -0.8189  0.0868
  133MOL0     H17934   3.291  -0.269   7.710 -0.1084  0.9152  0.9997
  133MOL0     H17935   3.300  -0.443   7.543  2.5736 -1.6388 -1.9262
  133MOL0     H17936   3.435  -0.371   7.458  2.5203  0.1552  1.6264
  133MOL0     H17937   4.219   0.159   7.446  1.4547 -0.0023  2.6161
  133MOL0     H17938   4.431   0.183   7.362 -0.8754  0.1882 -0.2626
  133MOL0     H17939   4.914   0.193   7.369 -1.9115 -0.3539 -0.4710
  133MOL0     H17940   5.153   0.161   7.278  1.1300 -1.3851  0.2139
  133MOL0     H17941   6.436   1.325   7.156 -0.7681 -1.3632  0.8694
  133MOL0     H17942   6.674   1.362   7.197 -2.4456  0.8586 -0.0916
  133MOL0     H17943   7.171   1.135   7.199 -0.1177  0.2644 -0.3517
  133MOL0     H17944   7.380   1.228   7.258  0.3838  0.4193 -1.1725
  133MOL0     H17945   7.352   1.519   7.427 -0.6849  0.4750 -0.7419
  133MOL0     H17946   7.518   1.486   7.439 -1.8285  2.0193  2.6276
  133MOL0     H17947   7.433   1.751   7.322  1.8966  1.4081 -1.2524
  133MOL0     H17948   7.589   1.683   7.356 -1.1845 -2.5956 -0.0957
  133MOL0     H17949   7.476   1.655   7.613  0.7995  0.3679  0.4724
  133MOL0     H17950   7.384   1.793   7.565  1.1730  2.2928 -0.3496
  133MOL0     H17951   7.567   1.885   7.663 -1.0288 -1.2610 -1.1310
  133MOL0     H17952   7.602   1.922   7.501 -2.9569  1.2394  1.7064
  133MOL0     H17953   7.918   1.657   7.610 -2.0013 -1.7393  1.2663
  133MOL0     H17954   7.276   1.614   7.112  0.5405  0.3914  0.1584
  133MOL0     H17955   7.066   1.525   7.030  1.8786  2.6713  0.8752
  134MOL0     O17956   3.364   9.872   7.039  0.2471 -0.0239 -0.3398
  134MOL0     C17957   3.305   9.969   7.082 -0.0617 -0.0224 -0.2279
  134MOL0     O17958   3.361  10.092   7.106  0.3322  0.0007 -0.5978
  134MOL0     C17959   3.496  10.100   7.074 -0.1550 -0.5625  0.2262
  134MOL0     C17960   3.600  10.027   7.129 -0.4689 -0.1162  0.0514
  134MOL0     C17961   3.736  10.053   7.086 -0.4336  0.2714  0.9770
  134MOL0     C17962   3.770  10.144   6.980  0.7150  0.3628  0.2061
  134MOL0     O17963   3.897  10.190   6.936  0.9507 -0.4965  0.6147
  134MOL0     C17964   4.006  10.188   7.026  0.1427  0.7696 -0.0117
  134MOL0     C17965   4.100  10.073   6.986 -0.0917  0.5138  0.4116
  134MOL0     C17966   4.236  10.092   7.048 -1.3510 -0.2455  0.2601
  134MOL0     C17967   4.234  10.122   7.202 -0.0620 -0.6032  0.3921
  134MOL0     C17968   4.380  10.165   7.236  0.6773  0.2427  0.3954
  134MOL0     C17969   4.397  10.320   7.231 -0.6390  0.1661  0.2537
  134MOL0     C17970   4.552  10.361   7.246  0.2813 -0.2303  0.6777
  134MOL0     C17971   4.614  10.321   7.374  0.3080  0.4437  0.3918
  134MOL0     N17972   4.549  10.402   7.486  0.6066 -0.3976 -0.2569
  134MOL0     C17973   4.492  10.355   7.602 -0.0297  0.3975 -0.8638
  134MOL0     C17974   4.461  10.460   7.681 -0.7252  0.9423  1.1746
  134MOL0     C17975   4.364  10.449   7.792  0.1227 -0.7462 -0.4045
  134MOL0     C17976   4.308  10.309   7.803  0.9007 -0.0483 -0.1905
  134MOL0     C17977   4.221  10.303   7.931  0.3891 -0.1316  0.0385
  134MOL0     C17978   4.172  10.150   7.941 -0.1060  0.4451 -0.1869
  134MOL0     O17979   4.035  10.128   7.896 -0.3031  0.1067 -0.9821
  134MOL0     C17980   3.932  10.185   7.967  0.5700 -0.2392  0.2058
  134MOL0     C17981   3.942  10.228   8.102  0.5531 -1.2318  0.9435
  134MOL0     C17982   3.826  10.266   8.178  0.6795  0.0804  0.4174
  134MOL0     C17983   3.861  10.309   8.319 -0.2270 -1.0597 -0.4979
  134MOL0     C17984   3.704  10.277   8.102  0.1357 -0.2021  0.1597
  134MOL0     C17985   3.571  10.328   8.147 -0.1989  0.2505 -0.5387
  134MOL0     O17986   3.581  10.411   8.261  0.0636 -0.1216  0.0020
  134MOL0     C17987   3.460  10.449   8.313  0.4608 -0.3079 -0.0717
  134MOL0     C17988   3.373  10.351   8.363 -0.2705  0.3480 -0.3420
  134MOL0     C17989   3.243  10.389   8.397 -1.2421  0.3584 -0.9590
  134MOL0     C17990   3.201  10.518   8.404  0.3311 -0.6260  0.5364
  134MOL0     O17991   3.073  10.554   8.444  0.0118 -0.7541 -0.1300
  134MOL0     C17992   3.023  10.488   8.568  0.1429 -0.3162 -0.3954
  134MOL0     C17993   2.915  10.561   8.649 -1.3464  0.3408  0.9265
  134MOL0     C17994   2.781  10.553   8.571  0.0961 -0.6142  0.2654
  134MOL0     C17995   2.666  10.633   8.636 -0.4618  0.6469  0.1352
  134MOL0     C17996   2.525  10.605   8.574 -0.2758  0.2072  0.3924
  134MOL0     C17997   2.484  10.461   8.572 -0.7210  0.2036  0.1614
  134MOL0     C17998   2.355  10.435   8.488  0.2325 -0.6215  0.2828
  134MOL0     C17999   2.271  10.320   8.533 -0.1899  0.2000 -0.5317
  134MOL0    Cl18000   2.189  10.363   8.697  0.2873 -0.0598  0.2842
  134MOL0     C18001   3.287  10.608   8.343 -0.1254  0.3338 -1.0243
  134MOL0     C18002   3.413  10.573   8.294  0.1469 -1.1912  0.6996
  134MOL0     O18003   3.468  10.301   8.086  0.3113 -0.2353  0.8436
  134MOL0     C18004   3.707  10.241   7.970  1.8992  0.0400 -0.8836
  134MOL0     C18005   3.813  10.184   7.909 -0.2440 -0.6676 -0.5787
  134MOL0     N18006   4.506  10.568   7.616  0.0125 -0.3432 -0.2598
  134MOL0     N18007   4.560  10.540   7.500  1.0972 -0.2062 -0.8038
  134MOL0     C18008   3.661  10.207   6.918  0.9378 -0.2731 -0.4394
  134MOL0     C18009   3.532  10.193   6.970  0.1000 -0.1200  0.0679
  134MOL0     C18010   3.165   9.960   7.115 -1.4607 -0.8475 -1.0342
  134MOL0     C18011   3.094  10.082   7.155  0.3923 -0.2316 -0.5135
  134MOL0     C18012   2.962  10.076   7.198 -0.1680 -0.0517 -0.5362
  134MOL0     C18013   2.903   9.950   7.212  0.5173 -0.4409  0.1079
  134MOL0     O18014   2.777   9.931   7.261  0.4129  0.0685  0.5733
  134MOL0     C18015   2.695  10.033   7.309  0.2713  0.0331 -0.7744
  134MOL0     C18016   2.554   9.987   7.293  1.0846 -0.2512 -0.2985
  134MOL0     C18017   2.450  10.076   7.368 -0.0912 -0.4482  0.7362
  134MOL0     C18018   2.293  10.035   7.339 -0.8244 -0.2999  0.7541
  134MOL0     C18019   2.215  10.061   7.456  0.7052 -0.5694  0.5774
  134MOL0     C18020   2.151  10.080   7.561 -0.2345 -0.2614 -0.6696
  134MOL0     C18021   2.967   9.838   7.172 -0.1767 -0.7902  0.5130
  134MOL0     C18022   3.101   9.839   7.137 -0.3969  0.0139  0.0945
  134MOL0     H18023   3.577   9.950   7.202 -1.9235  2.6285  2.7261
  134MOL0     H18024   3.817   9.989   7.119  1.1315  1.0032 -1.1710
  134MOL0     H18025   4.050  10.289   7.022  3.1697 -0.4584 -0.6844
  134MOL0     H18026   3.965  10.173   7.126  0.5282  0.5400  0.1143
  134MOL0     H18027   4.054   9.982   7.025 -0.3199  1.7596  3.3073
  134MOL0     H18028   4.112  10.062   6.878 -0.9798 -0.4268  0.3934
  134MOL0     H18029   4.290   9.997   7.045 -1.9442 -0.5688 -1.1641
  134MOL0     H18030   4.304  10.165   7.002 -2.0764  1.1403  1.3210
  134MOL0     H18031   4.164  10.202   7.225 -1.1702 -1.0968 -1.1025
  134MOL0     H18032   4.208  10.033   7.260 -0.4324  0.0623  1.2599
  134MOL0     H18033   4.387  10.129   7.340 -1.1034  0.2296  0.5441
  134MOL0     H18034   4.453  10.112   7.174 -1.5162 -0.4652 -1.7334
  134MOL0     H18035   4.348  10.358   7.141 -2.4577  2.3927  2.0474
  134MOL0     H18036   4.340  10.372   7.309 -2.5199 -0.9393 -0.3233
  134MOL0     H18037   4.610  10.311   7.169 -0.1997 -0.8086  0.6833
  134MOL0     H18038   4.564  10.469   7.228 -0.3045 -0.4815 -1.5664
  134MOL0     H18039   4.722  10.339   7.375  0.4770 -0.4418  1.9579
  134MOL0     H18040   4.594  10.214   7.375  1.9375 -0.0056 -3.0052
  134MOL0     H18041   4.467  10.252   7.627 -0.8955  0.7301 -0.3081
  134MOL0     H18042   4.413  10.471   7.887  0.3649  1.0961 -0.9154
  134MOL0     H18043   4.286  10.523   7.773  1.7684  0.7809 -1.6746
  134MOL0     H18044   4.394  10.242   7.814  2.1608  1.3452 -1.0826
  134MOL0     H18045   4.250  10.290   7.712 -0.6436  2.8000  0.1032
  134MOL0     H18046   4.138  10.374   7.937 -1.4573 -2.2915  2.5506
  134MOL0     H18047   4.275  10.324   8.024 -1.5575  1.1714  0.9509
  134MOL0     H18048   4.176  10.139   8.049 -0.1881  0.7598 -0.1493
  134MOL0     H18049   4.239  10.074   7.901  1.0410  2.4788 -2.4033
  134MOL0     H18050   4.031  10.228   8.165  0.0398 -0.1660  1.7235
  134MOL0     H18051   3.896  10.413   8.317 -2.6733 -0.1807 -1.6839
  134MOL0     H18052   3.773  10.305   8.384  1.6223  0.0705  2.2998
  134MOL0     H18053   3.943  10.242   8.348  0.4451  0.6936  2.0384
  134MOL0     H18054   3.417  10.253   8.378 -0.2135  0.4711  0.3290
  134MOL0     H18055   3.182  10.318   8.451 -1.4723  1.8215  0.8308
  134MOL0     H18056   2.988  10.391   8.531  2.2868 -1.7747  1.1792
  134MOL0     H18057   3.096  10.474   8.648 -1.6077  0.3297  1.4152
  134MOL0     H18058   2.914  10.519   8.749  1.2910  0.6752  1.1531
  134MOL0     H18059   2.938  10.667   8.667  1.8865 -0.4178  1.8525
  134MOL0     H18060   2.744  10.451   8.554 -0.6712 -0.1684 -0.8659
  134MOL0     H18061   2.800  10.599   8.474 -1.9481 -1.8183 -0.7719
  134MOL0     H18062   2.673  10.619   8.745  0.6700 -0.0464 -0.0109
  134MOL0     H18063   2.685  10.740   8.624 -0.3735  0.4737 -1.5010
  134MOL0     H18064   2.523  10.651   8.475 -2.6273 -0.7301 -0.0729
  134MOL0     H18065   2.445  10.661   8.623  0.6819  1.6913  0.3370
  134MOL0     H18066   2.551  10.385   8.532 -0.2370  0.2689  0.8529
  134MOL0     H18067   2.465  10.439   8.677 -3.2650 -1.4282 -0.5369
  134MOL0     H18068   2.397  10.417   8.388 -0.3997 -1.2724  0.1295
  134MOL0     H18069   2.290  10.523   8.485  1.8874  0.6728  0.7275
  134MOL0     H18070   2.345  10.240   8.540  0.1677  0.6028  0.5620
  134MOL0     H18071   2.194  10.286   8.464 -1.3645 -1.5551  1.5214
  134MOL0     H18072   3.253  10.711   8.331  0.1028  0.4352 -0.8128
  134MOL0     H18073   3.470  10.653   8.248 -1.7663 -1.4035 -2.3727
  134MOL0     H18074   3.617  10.249   7.910  2.2566  0.1662 -1.4140
  134MOL0     H18075   3.810  10.156   7.804  0.9842 -2.2082 -0.2456
  134MOL0     H18076   3.668  10.276   6.834  0.0839 -2.7669 -2.7327
  134MOL0     H18077   3.451  10.257   6.937  1.2685  0.0229 -2.7753
  134MOL0     H18078   3.146  10.178   7.155  1.9304 -1.0276  0.4156
  134MOL0     H18079   2.918  10.170   7.230 -1.7679 -1.2709  1.1021
  134MOL0     H18080   2.716  10.036   7.416 -1.6606  1.5342 -0.3790
  134MOL0     H18081   2.697  10.129   7.256 -3.6522 -0.6937 -2.5875
  134MOL0     H18082   2.535   9.885   7.329  0.6454 -0.2239 -0.4473
  134MOL0     H18083   2.524   9.993   7.188  3.1384 -0.0755 -0.9208
  134MOL0     H18084   2.460  10.180   7.338  1.7469 -0.8256 -0.1277
  134MOL0     H18085   2.473  10.078   7.475  0.6290  1.4512  0.5760
  134MOL0     H18086   2.284   9.936   7.295  1.5761 -1.1414  1.9851
  134MOL0     H18087   2.266  10.104   7.259 -1.4552 -1.4533 -0.0457
  134MOL0     H18088   2.098  10.090   7.654  2.7450 -1.8640  1.3368
  134MOL0     H18089   2.917   9.741   7.171 -0.5421 -0.6149 -0.6677
  134MOL0     H18090   3.159   9.757   7.096  0.2058  0.6761 -0.4175
  135MOL0     O18091  10.189   7.442  10.724  0.3301  0.5631  0.2746
  135MOL0     C18092  10.115   7.494  10.641 -0.7527 -0.0153 -0.4618
  135MOL0     O18093  10.146   7.604  10.571 -0.5274 -0.0444  0.1897
  135MOL0     C18094  10.276   7.657  10.581 -0.2368  0.0486  0.4840
  135MOL0     C18095  10.392   7.581  10.553 -0.2591  0.6869 -0.9910
  135MOL0     C18096  10.514   7.635  10.521 -0.3906  0.3476 -0.6700
  135MOL0     C18097  10.533   7.774  10.534  0.3365 -0.1226 -0.4705
  135MOL0     O18098  10.660   7.822  10.526  0.1061 -0.4471 -0.0265
  135MOL0     C18099  10.763   7.757  10.598  0.4355 -0.2620  0.3523
  135MOL0     C18100  10.749   7.775  10.755 -0.1327  0.0951 -0.4408
  135MOL0     C18101  10.871   7.716  10.836  0.6229 -0.2741  0.3276
  135MOL0     C18102  10.889   7.561  10.825 -0.0628  0.7301  1.0505
  135MOL0     C18103  10.953   7.499  10.947  0.6288 -0.3703 -0.1031
  135MOL0     C18104  10.853   7.468  11.055  0.6017 -0.4754  0.0227
  135MOL0     C18105  10.927   7.415  11.182 -0.7241 -1.2701  0.1548
  135MOL0     C18106  10.843   7.341  11.287  0.4416  0.0530 -0.4374
  135MOL0     N18107  10.742   7.421  11.356  0.4825 -0.4100 -0.1908
  135MOL0     C18108  10.614   7.434  11.316  0.7500  0.6949  0.6231
  135MOL0     C18109  10.557   7.496  11.422  0.0981 -0.1683  0.3407
  135MOL0     C18110  10.411   7.533  11.451 -0.7242  0.1899 -0.5596
  135MOL0     C18111  10.316   7.412  11.438 -0.7481 -0.5696 -0.1783
  135MOL0     C18112  10.332   7.306  11.552  0.0844 -1.1292  1.4961
  135MOL0     C18113  10.219   7.198  11.542  0.7224  0.7594  0.1103
  135MOL0     O18114  10.106   7.230  11.623 -1.0622  0.1605  0.1523
  135MOL0     C18115   9.984   7.170  11.596  0.3216  0.8125 -0.2050
  135MOL0     C18116   9.961   7.056  11.512  0.9601 -0.1952  0.1393
  135MOL0     C18117   9.828   7.014  11.468 -0.2983  0.2234  0.2870
  135MOL0     C18118   9.820   6.917  11.347  0.0751  0.1104  0.5152
  135MOL0     C18119   9.715   7.077  11.530  0.2024  0.1428 -0.0542
  135MOL0     C18120   9.577   7.028  11.500  0.1897 -0.5699 -0.9295
  135MOL0     O18121   9.543   6.900  11.457 -0.1945 -0.3892 -0.4664
  135MOL0     C18122   9.412   6.867  11.466  0.0767 -0.0598  0.4371
  135MOL0     C18123   9.355   6.805  11.580  0.3602  0.2162  0.0807
  135MOL0     C18124   9.222   6.765  11.576 -0.2758 -0.4843 -1.0221
  135MOL0     C18125   9.138   6.800  11.468 -0.0564 -0.5294 -0.5646
  135MOL0     O18126   9.013   6.759  11.477  0.0548 -0.5466  0.4438
  135MOL0     C18127   8.963   6.696  11.363  1.1280 -0.6455  0.3072
  135MOL0     C18128   8.811   6.746  11.333  0.6402  0.0935  1.2637
  135MOL0     C18129   8.725   6.758  11.453  0.8617 -0.1618 -0.5295
  135MOL0     C18130   8.688   6.619  11.502  0.9777  0.4300  0.1664
  135MOL0     C18131   8.584   6.624  11.616 -0.2299  0.4948  0.4378
  135MOL0     C18132   8.561   6.480  11.668 -0.8533  0.6267 -0.4872
  135MOL0     C18133   8.464   6.473  11.782  0.1328 -0.3828 -0.3637
  135MOL0     C18134   8.435   6.332  11.823  0.3286 -0.1151 -0.1164
  135MOL0    Cl18135   8.345   6.330  11.978  0.3078  0.0385  0.4278
  135MOL0     C18136   9.191   6.874  11.364  0.3148 -0.6996 -0.4942
  135MOL0     C18137   9.325   6.899  11.359 -0.1385 -0.7672 -0.3636
  135MOL0     O18138   9.493   7.115  11.537  0.3018  0.8382  0.3175
  135MOL0     C18139   9.739   7.179  11.628  0.3113 -0.3527  0.5586
  135MOL0     C18140   9.874   7.219  11.660  0.7550 -0.5513  0.8992
  135MOL0     N18141  10.644   7.506  11.533 -0.0953 -0.1065  0.3973
  135MOL0     N18142  10.753   7.461  11.488  0.2592 -0.7819  1.3266
  135MOL0     C18143  10.428   7.858  10.564 -0.0661  0.4365 -0.0855
  135MOL0     C18144  10.298   7.794  10.589 -0.8704 -0.4525 -0.2464
  135MOL0     C18145   9.977   7.444  10.640  0.2906  0.3912  0.3785
  135MOL0     C18146   9.918   7.376  10.747  0.1291  0.7408 -0.7570
  135MOL0     C18147   9.793   7.320  10.737 -0.2512 -0.0809  0.8511
  135MOL0     C18148   9.718   7.343  10.622  0.8048  0.4725  0.6832
  135MOL0     O18149   9.595   7.278  10.594  0.5119  0.3692  0.1606
  135MOL0     C18150   9.487   7.313  10.686  0.1351 -0.0689 -0.2537
  135MOL0     C18151   9.408   7.442  10.645 -0.1124 -0.7170 -0.1872
  135MOL0     C18152   9.316   7.443  10.516 -0.0833 -0.3035 -0.0748
  135MOL0     C18153   9.218   7.550  10.530  0.6409 -0.0281 -0.0667
  135MOL0     C18154   9.146   7.556  10.401  0.2097 -0.6744 -0.0128
  135MOL0     C18155   9.090   7.557  10.294 -1.1266  1.0839 -1.1687
  135MOL0     C18156   9.770   7.430  10.527  1.3650 -0.3724 -0.4067
  135MOL0     C18157   9.898   7.476  10.527 -0.6515  0.6897  0.0513
  135MOL0     H18158  10.374   7.474  10.545 -3.0738  1.0315 -0.3866
  135MOL0     H18159  10.598   7.569  10.500 -1.1534 -1.3253  1.1039
  135MOL0     H18160  10.769   7.651  10.570  0.5461  0.3375 -2.0860
  135MOL0     H18161  10.860   7.779  10.553 -0.3121 -0.3450 -1.3872
  135MOL0     H18162  10.743   7.882  10.776 -1.1133  0.0212 -0.2884
  135MOL0     H18163  10.652   7.733  10.782 -0.6155  0.5740 -1.3667
  135MOL0     H18164  10.958   7.776  10.808 -0.4279 -0.1473 -3.0282
  135MOL0     H18165  10.835   7.733  10.938  0.2611 -0.8296  0.2977
  135MOL0     H18166  10.792   7.512  10.807  0.2904 -1.3432  4.0613
  135MOL0     H18167  10.947   7.542  10.735  1.5158  2.4523  1.6417
  135MOL0     H18168  10.996   7.402  10.922 -1.0139 -0.7733 -1.5941
  135MOL0     H18169  11.031   7.569  10.980  0.2519  2.1108 -3.7661
  135MOL0     H18170  10.807   7.566  11.075  1.9910  0.7750 -2.5072
  135MOL0     H18171  10.773   7.401  11.021 -0.1047 -0.5168  1.6665
  135MOL0     H18172  11.007   7.346  11.155  2.5361 -0.2444  5.7997
  135MOL0     H18173  10.970   7.502  11.232  1.5644 -2.0815 -0.2901
  135MOL0     H18174  10.922   7.307  11.354  0.3576  0.6119 -0.0472
  135MOL0     H18175  10.787   7.254  11.252 -0.3089 -0.4597  1.8650
  135MOL0     H18176  10.574   7.413  11.217  2.3158 -1.1227  0.3182
  135MOL0     H18177  10.406   7.579  11.550  0.4793  1.9818 -1.2803
  135MOL0     H18178  10.382   7.613  11.383  1.4125  0.7558 -0.8664
  135MOL0     H18179  10.319   7.361  11.341  2.3264  1.1942 -1.1503
  135MOL0     H18180  10.215   7.446  11.463  0.5360  1.7498  2.3107
  135MOL0     H18181  10.319   7.359  11.648  1.9642  3.4291 -0.4900
  135MOL0     H18182  10.432   7.265  11.561  2.1166  3.4209  2.7379
  135MOL0     H18183  10.265   7.102  11.567 -1.5558 -1.5852 -3.6996
  135MOL0     H18184  10.202   7.184  11.435  2.3902 -1.5989  0.0867
  135MOL0     H18185  10.042   7.001  11.464 -0.0193  0.6908 -2.7134
  135MOL0     H18186   9.739   6.938  11.277  0.4572  0.3273  0.1360
  135MOL0     H18187   9.919   6.926  11.301  1.1167  0.2018  2.6233
  135MOL0     H18188   9.801   6.814  11.378 -0.1014  0.5819  2.1084
  135MOL0     H18189   9.412   6.783  11.669 -0.9833 -0.2355  0.8570
  135MOL0     H18190   9.177   6.702  11.652 -1.8972 -2.9081 -3.7920
  135MOL0     H18191   9.019   6.707  11.270 -1.3081 -2.7563 -1.5611
  135MOL0     H18192   8.959   6.588  11.375  3.2054 -0.9821 -1.3209
  135MOL0     H18193   8.806   6.839  11.274  0.7149  0.1007  1.2680
  135MOL0     H18194   8.765   6.675  11.263  1.1322  0.6963  0.2942
  135MOL0     H18195   8.631   6.801  11.417  1.3262  0.4779 -0.9999
  135MOL0     H18196   8.755   6.830  11.529 -5.1298 -0.1088  2.3576
  135MOL0     H18197   8.652   6.557  11.419 -1.8984  1.7258  0.3499
  135MOL0     H18198   8.783   6.574  11.532  2.1005  1.1916 -2.0423
  135MOL0     H18199   8.494   6.676  11.582 -0.9379 -1.9805 -1.8211
  135MOL0     H18200   8.630   6.680  11.697 -3.3598  2.6025  0.9493
  135MOL0     H18201   8.519   6.409  11.596 -0.7684 -0.5739  0.5955
  135MOL0     H18202   8.655   6.430  11.695 -1.3135  1.3286  2.9467
  135MOL0     H18203   8.366   6.513  11.754 -0.7388  0.3545  3.1861
  135MOL0     H18204   8.495   6.528  11.872 -1.7112 -1.7740  1.2057
  135MOL0     H18205   8.527   6.278  11.847  2.2547  2.1349 -1.9296
  135MOL0     H18206   8.390   6.275  11.741  2.0358  0.9309 -1.8687
  135MOL0     H18207   9.132   6.911  11.280  0.6729 -1.7557 -1.2348
  135MOL0     H18208   9.361   6.944  11.267 -1.2413  2.9403  0.8361
  135MOL0     H18209   9.653   7.225  11.677 -2.2348 -1.4647 -2.5426
  135MOL0     H18210   9.874   7.315  11.710  3.4293  1.3328 -2.2176
  135MOL0     H18211  10.441   7.966  10.566  0.5354  0.4522 -2.3027
  135MOL0     H18212  10.218   7.868  10.595  2.3178  3.3858 -0.5757
  135MOL0     H18213   9.974   7.353  10.837 -2.3355 -0.9409  0.4456
  135MOL0     H18214   9.751   7.258  10.817 -1.4630  0.2111  0.4667
  135MOL0     H18215   9.410   7.236  10.702  0.1931 -0.3915 -1.4615
  135MOL0     H18216   9.524   7.332  10.787 -1.1391 -2.7642  0.8228
  135MOL0     H18217   9.483   7.518  10.620 -0.8879  0.1383 -0.0047
  135MOL0     H18218   9.349   7.476  10.730 -0.8570  0.0885 -0.9970
  135MOL0     H18219   9.268   7.344  10.520  3.6728 -2.3173  0.3225
  135MOL0     H18220   9.367   7.462  10.421 -2.3409  1.7529 -0.9869
  135MOL0     H18221   9.262   7.641  10.571  0.4216  0.1972 -0.3251
  135MOL0     H18222   9.145   7.514  10.603 -0.8787  0.3169 -1.3446
  135MOL0     H18223   9.021   7.559  10.212 -3.2603 -0.0538  0.4934
  135MOL0     H18224   9.709   7.446  10.438  1.1805  0.9907 -0.0485
  135MOL0     H18225   9.936   7.538  10.446 -2.0007 -0.3238 -1.4411
  136MOL0     O18226   2.615   7.178   4.116 -0.1550  0.3628  0.6100
  136MOL0     C18227   2.607   7.057   4.130  0.5918 -0.8455  0.1645
  136MOL0     O18228   2.595   6.962   4.030  0.1726 -0.1170 -0.7950
  136MOL0     C18229   2.597   6.999   3.898 -1.0299 -1.0862  0.2965
  136MOL0     C18230   2.503   6.968   3.806 -0.4282 -0.2062 -0.1991
  136MOL0     C18231   2.525   6.996   3.671  0.6240  0.5398  0.2882
  136MOL0     C18232   2.630   7.072   3.623 -0.1133  0.3132  0.4251
  136MOL0     O18233   2.663   7.097   3.496 -0.0340 -0.1882 -0.4557
  136MOL0     C18234   2.560   7.127   3.406  0.1786 -0.7772  0.0619
  136MOL0     C18235   2.602   7.090   3.266 -0.0681 -0.5026  0.7987
  136MOL0     C18236   2.740   7.149   3.216  0.3804 -0.2143  0.4993
  136MOL0     C18237   2.790   7.066   3.095 -0.4889  0.6638 -0.3632
  136MOL0     C18238   2.717   7.115   2.962  1.0674 -0.3933  0.1109
  136MOL0     C18239   2.791   7.069   2.828 -0.8701 -0.2420 -0.1009
  136MOL0     C18240   2.730   7.128   2.698 -0.5034  0.6025 -0.4811
  136MOL0     C18241   2.783   7.059   2.578  0.3555 -0.1094 -0.4666
  136MOL0     N18242   2.743   6.918   2.560  0.0677  0.4559  0.2416
  136MOL0     C18243   2.606   6.882   2.532  0.0816 -0.5271 -0.7181
  136MOL0     C18244   2.616   6.750   2.496  0.0779 -0.3795  0.2259
  136MOL0     C18245   2.500   6.659   2.448  0.2034  0.5015 -0.0405
  136MOL0     C18246   2.431   6.573   2.552  0.3867 -0.7058 -0.4892
  136MOL0     C18247   2.334   6.474   2.481 -0.4852  1.0421 -0.0601
  136MOL0     C18248   2.196   6.541   2.448  0.0748 -0.2987  0.1756
  136MOL0     O18249   2.134   6.584   2.571  0.0656  0.3119  0.0510
  136MOL0     C18250   1.997   6.614   2.559  0.6633  0.4157 -0.1380
  136MOL0     C18251   1.954   6.720   2.475 -0.0828  0.3624  1.1418
  136MOL0     C18252   1.821   6.748   2.449  0.2460 -0.4058  0.0718
  136MOL0     C18253   1.801   6.858   2.349  0.1176  0.1095  0.1598
  136MOL0     C18254   1.724   6.690   2.539  0.1090  0.3165 -0.4715
  136MOL0     C18255   1.574   6.706   2.519  0.0129 -0.1407 -0.9667
  136MOL0     O18256   1.500   6.658   2.623 -0.6510  0.7505 -0.2379
  136MOL0     C18257   1.364   6.675   2.628  0.5160 -0.1376 -0.5006
  136MOL0     C18258   1.289   6.580   2.570 -0.9516  0.0308 -0.8159
  136MOL0     C18259   1.152   6.573   2.585  0.0854 -0.5972 -1.3069
  136MOL0     C18260   1.083   6.671   2.664 -1.6206 -0.0780  0.4938
  136MOL0     O18261   0.949   6.677   2.692 -0.5180 -0.3709  0.5073
  136MOL0     C18262   0.863   6.576   2.635 -0.9428 -0.8839  0.4821
  136MOL0     C18263   0.861   6.439   2.707  0.2961  0.0608 -0.9487
  136MOL0     C18264   0.776   6.334   2.633 -0.3723 -0.3462 -1.1552
  136MOL0     C18265   0.638   6.385   2.594 -0.4526  0.6442  0.5439
  136MOL0     C18266   0.543   6.271   2.548  0.6541 -0.3722  0.6783
  136MOL0     C18267   0.406   6.313   2.593 -0.2100 -0.1870 -0.0411
  136MOL0     C18268   0.288   6.224   2.563 -0.2615  0.2688 -0.3530
  136MOL0     C18269   0.160   6.281   2.618  0.2863 -0.6347  0.3630
  136MOL0    Cl18270   0.018   6.178   2.568  0.0234 -0.1672 -0.1411
  136MOL0     C18271   1.165   6.772   2.722 -0.6305 -0.8913  0.6838
  136MOL0     C18272   1.307   6.771   2.703 -0.1193  0.7345 -0.2443
  136MOL0     O18273   1.529   6.735   2.414  0.6346 -0.3802  0.3571
  136MOL0     C18274   1.769   6.587   2.624 -0.6252 -0.4756  0.3605
  136MOL0     C18275   1.900   6.554   2.633  0.3076 -0.5456 -0.3748
  136MOL0     N18276   2.743   6.709   2.508  0.1256  0.2273 -0.4929
  136MOL0     N18277   2.816   6.805   2.548 -0.7907 -0.5123  0.1487
  136MOL0     C18278   2.723   7.103   3.715 -0.0761  0.5101 -0.1446
  136MOL0     C18279   2.709   7.075   3.852  0.9209  0.2942  0.2995
  136MOL0     C18280   2.625   7.005   4.267  0.1745 -0.0626  1.4195
  136MOL0     C18281   2.694   7.075   4.367 -0.5736 -0.2515 -1.1352
  136MOL0     C18282   2.718   7.008   4.488 -0.7315 -0.0537 -0.2375
  136MOL0     C18283   2.668   6.884   4.521 -0.0000 -0.3621  0.5214
  136MOL0     O18284   2.684   6.826   4.643 -0.4503 -0.6872  0.3021
  136MOL0     C18285   2.757   6.890   4.754  0.2507  0.4113  0.4608
  136MOL0     C18286   2.751   6.787   4.872  0.4506 -0.7065 -0.1688
  136MOL0     C18287   2.829   6.840   4.990 -0.2554  0.2408  0.1735
  136MOL0     C18288   2.886   6.728   5.080  0.0066 -0.1003  0.4165
  136MOL0     C18289   2.935   6.781   5.203 -0.1196 -0.4938 -0.5985
  136MOL0     C18290   2.978   6.825   5.303 -0.6577 -0.1507 -0.3458
  136MOL0     C18291   2.606   6.814   4.417  0.0138  0.3642 -0.3005
  136MOL0     C18292   2.580   6.870   4.292  0.0268  0.7329 -0.1337
  136MOL0     H18293   2.417   6.909   3.836  0.8893 -1.5116  1.1797
  136MOL0     H18294   2.440   6.964   3.613 -0.2917 -2.2813  2.9243
  136MOL0     H18295   2.465   7.074   3.426  0.0038 -0.3740  0.3094
  136MOL0     H18296   2.540   7.234   3.405  1.1209 -0.5569 -3.0372
  136MOL0     H18297   2.597   6.981   3.254  2.1451 -0.7590  1.6413
  136MOL0     H18298   2.527   7.115   3.190  1.6210  2.2866 -0.0877
  136MOL0     H18299   2.728   7.255   3.193  2.9810  0.5923  2.3722
  136MOL0     H18300   2.815   7.139   3.295 -0.5076 -0.7595  1.3039
  136MOL0     H18301   2.898   7.078   3.086 -0.4838 -0.4637 -2.5520
  136MOL0     H18302   2.763   6.960   3.106  0.1330  0.6123  0.8172
  136MOL0     H18303   2.614   7.081   2.954  0.0309  2.8493 -2.2383
  136MOL0     H18304   2.703   7.223   2.962  0.7819 -0.3416  3.0853
  136MOL0     H18305   2.899   7.082   2.830 -0.5367 -2.6414  0.5908
  136MOL0     H18306   2.773   6.961   2.824 -2.0188 -0.0214 -1.6978
  136MOL0     H18307   2.621   7.121   2.694 -0.5150  0.1832  0.4889
  136MOL0     H18308   2.764   7.232   2.697  0.7417  0.2073 -0.1291
  136MOL0     H18309   2.892   7.059   2.587  0.2894 -0.0780  0.4451
  136MOL0     H18310   2.744   7.110   2.490 -1.7594 -1.5125 -0.4246
  136MOL0     H18311   2.515   6.940   2.537 -0.7476 -1.8447  0.5286
  136MOL0     H18312   2.432   6.719   2.387 -0.5674 -0.2563  0.0552
  136MOL0     H18313   2.543   6.585   2.380 -1.3606 -1.8638  1.3962
  136MOL0     H18314   2.371   6.637   2.617 -0.9010 -2.8667  0.5509
  136MOL0     H18315   2.502   6.532   2.624 -2.7773  1.0090  4.0134
  136MOL0     H18316   2.323   6.395   2.555  2.0417  2.0654  1.5605
  136MOL0     H18317   2.374   6.441   2.385 -0.2055 -0.9753  0.6894
  136MOL0     H18318   2.131   6.463   2.406  1.1415 -1.9935  1.5490
  136MOL0     H18319   2.205   6.619   2.371 -0.3555 -2.1130 -1.7994
  136MOL0     H18320   2.027   6.776   2.418 -0.4844  1.5681  1.7778
  136MOL0     H18321   1.795   6.953   2.403  1.1773 -0.1908  0.8480
  136MOL0     H18322   1.871   6.863   2.265 -1.5251  0.3566 -1.2454
  136MOL0     H18323   1.698   6.850   2.312  0.3988  1.9341 -1.1560
  136MOL0     H18324   1.349   6.506   2.518  0.6761 -0.1034  1.1316
  136MOL0     H18325   1.095   6.496   2.534  0.0426 -2.5631  1.5125
  136MOL0     H18326   0.761   6.614   2.650 -0.7187 -0.7303  1.7346
  136MOL0     H18327   0.885   6.571   2.528  1.5813  1.5815  0.7553
  136MOL0     H18328   0.963   6.400   2.709  0.0942 -0.4373  0.8518
  136MOL0     H18329   0.827   6.457   2.809  1.7769 -5.4090  0.7980
  136MOL0     H18330   0.771   6.260   2.714 -0.8577 -0.4918 -1.3173
  136MOL0     H18331   0.833   6.301   2.546 -1.8971  0.8024 -2.6641
  136MOL0     H18332   0.593   6.429   2.683 -0.2976 -0.2041  1.0521
  136MOL0     H18333   0.641   6.461   2.516  1.4352  0.6168  0.5463
  136MOL0     H18334   0.567   6.173   2.591 -1.3002 -1.4625 -0.5596
  136MOL0     H18335   0.537   6.262   2.439 -1.8803  0.6408  0.6856
  136MOL0     H18336   0.416   6.319   2.702  1.3792  3.0481 -0.2564
  136MOL0     H18337   0.394   6.414   2.554  4.9002  1.2142  1.1624
  136MOL0     H18338   0.307   6.128   2.611 -1.0009  1.1873  1.9318
  136MOL0     H18339   0.289   6.214   2.454 -0.7331  1.9998 -0.5515
  136MOL0     H18340   0.154   6.386   2.587  1.3443 -0.9675 -1.1018
  136MOL0     H18341   0.172   6.280   2.727  0.2782 -0.0030  0.3766
  136MOL0     H18342   1.109   6.849   2.775 -1.5983 -0.2245 -1.1949
  136MOL0     H18343   1.367   6.844   2.756 -1.6181  1.8386  0.0117
  136MOL0     H18344   1.699   6.525   2.679 -1.5042 -2.0539 -2.3046
  136MOL0     H18345   1.934   6.471   2.695  3.5411 -0.0524 -1.2869
  136MOL0     H18346   2.804   7.173   3.698  2.5171 -1.1552  3.7877
  136MOL0     H18347   2.788   7.116   3.914  1.2844 -1.7224  1.2193
  136MOL0     H18348   2.735   7.176   4.368  1.9642 -1.2045 -2.2589
  136MOL0     H18349   2.764   7.059   4.572 -0.0445 -1.0407 -0.0084
  136MOL0     H18350   2.859   6.896   4.715 -0.0664  3.1749 -0.1827
  136MOL0     H18351   2.701   6.982   4.778 -2.1975 -0.5789 -1.0632
  136MOL0     H18352   2.786   6.688   4.841 -1.7587 -1.2754 -1.0417
  136MOL0     H18353   2.650   6.765   4.907  1.5750 -2.3825  2.4049
  136MOL0     H18354   2.760   6.906   5.044  0.4863  1.3765 -0.2267
  136MOL0     H18355   2.921   6.889   4.958 -0.4669 -1.0916 -2.7201
  136MOL0     H18356   2.963   6.669   5.029  0.7825  0.3357  1.0585
  136MOL0     H18357   2.802   6.659   5.091 -0.5307  0.6402  1.0432
  136MOL0     H18358   3.028   6.851   5.395  0.2492 -2.2251 -0.1791
  136MOL0     H18359   2.583   6.710   4.441 -0.8212  0.0298 -2.3306
  136MOL0     H18360   2.530   6.813   4.214 -2.1985 -2.1934  3.0945
  137MOL0     O18361   1.398   2.849   8.426  0.0309 -0.0942 -0.2840
  137MOL0     C18362   1.335   2.762   8.360 -1.0411 -0.5614 -0.4959
  137MOL0     O18363   1.214   2.708   8.400  0.4366  0.4194 -0.3105
  137MOL0     C18364   1.172   2.743   8.527 -0.0412  1.8846  0.3922
  137MOL0     C18365   1.059   2.830   8.547  0.0940  0.2559  0.4701
  137MOL0     C18366   1.012   2.870   8.670  0.4728  0.3384 -0.2006
  137MOL0     C18367   1.076   2.815   8.780 -0.2472  0.2770 -1.1282
  137MOL0     O18368   1.025   2.850   8.902  0.1656 -0.2035  0.1126
  137MOL0     C18369   1.118   2.854   9.008 -0.1440 -0.9828  0.3158
  137MOL0     C18370   1.075   2.974   9.100 -0.4178 -0.3671 -0.5932
  137MOL0     C18371   0.935   2.967   9.148 -0.0179 -0.0987  0.5790
  137MOL0     C18372   0.900   3.089   9.232  0.1963  0.0405 -0.6902
  137MOL0     C18373   0.750   3.078   9.282 -0.5447  0.2326  0.0196
  137MOL0     C18374   0.694   3.203   9.338 -0.1963 -0.3322 -0.8301
  137MOL0     C18375   0.546   3.181   9.382 -0.0267 -0.5850 -0.4494
  137MOL0     C18376   0.529   3.074   9.495  0.1064  0.5523 -0.1863
  137MOL0     N18377   0.397   3.078   9.566 -0.1358 -0.2031  0.6168
  137MOL0     C18378   0.332   2.965   9.618 -0.0835  0.1309 -0.2301
  137MOL0     C18379   0.226   3.018   9.690  0.4793 -0.3472  0.3028
  137MOL0     C18380   0.119   2.938   9.754  0.1221  0.1528  0.3513
  137MOL0     C18381   0.003   2.932   9.667  0.5475  0.1662  0.6703
  137MOL0     C18382  -0.123   2.902   9.752 -0.0691 -0.7325 -0.3955
  137MOL0     C18383  -0.251   2.928   9.681 -0.2006 -0.0501  0.5852
  137MOL0     O18384  -0.354   2.953   9.775  0.4524 -0.4228 -0.1750
  137MOL0     C18385  -0.476   2.929   9.726 -0.0996  0.1731 -0.3566
  137MOL0     C18386  -0.547   2.811   9.732  0.2929 -1.1010  0.3413
  137MOL0     C18387  -0.672   2.787   9.674  0.8160  0.8175 -0.2330
  137MOL0     C18388  -0.720   2.642   9.697 -0.2078  0.6810 -0.2121
  137MOL0     C18389  -0.745   2.892   9.613  0.1294  0.6887  0.4120
  137MOL0     C18390  -0.881   2.876   9.552  0.2609  0.7792  0.6307
  137MOL0     O18391  -0.950   2.770   9.588 -0.0534  0.3211  0.4800
  137MOL0     C18392  -1.074   2.756   9.539 -0.9949 -0.2346  0.2604
  137MOL0     C18393  -1.176   2.806   9.608  0.5193 -0.3854 -0.5352
  137MOL0     C18394  -1.311   2.783   9.558  0.2418 -0.6831 -0.8804
  137MOL0     C18395  -1.335   2.701   9.458 -0.2416 -0.1333  0.3103
  137MOL0     O18396  -1.465   2.698   9.410  0.0171  0.5173  0.3380
  137MOL0     C18397  -1.483   2.601   9.303 -0.0709 -0.6904 -0.0648
  137MOL0     C18398  -1.635   2.590   9.290  1.0625  0.0231  0.8078
  137MOL0     C18399  -1.662   2.464   9.205 -0.1248  0.8524  0.7873
  137MOL0     C18400  -1.815   2.455   9.187  0.1139 -0.6008 -0.0458
  137MOL0     C18401  -1.857   2.316   9.140  0.4133  0.8745  0.1843
  137MOL0     C18402  -2.010   2.304   9.129 -0.1932  0.3734 -0.1821
  137MOL0     C18403  -2.091   2.338   9.250  0.3417  0.0478 -0.3072
  137MOL0     C18404  -2.212   2.244   9.261 -0.6169  0.4452 -0.3011
  137MOL0    Cl18405  -2.307   2.250   9.110 -0.4471  0.2798 -0.3484
  137MOL0     C18406  -1.223   2.647   9.386 -0.2216  0.0400 -0.8575
  137MOL0     C18407  -1.095   2.667   9.440  0.4852  0.6782  0.3504
  137MOL0     O18408  -0.920   2.974   9.492 -0.1095  0.0793  0.5432
  137MOL0     C18409  -0.681   3.019   9.607 -0.7862  0.2818 -0.3417
  137MOL0     C18410  -0.547   3.034   9.663  1.3115  0.0076 -0.4195
  137MOL0     N18411   0.240   3.162   9.673  0.4490  0.8054 -0.2932
  137MOL0     N18412   0.337   3.189   9.597  1.5496 -0.4083  0.5658
  137MOL0     C18413   1.187   2.723   8.760  1.3805  0.5857 -0.3047
  137MOL0     C18414   1.234   2.687   8.635  0.0505  0.0969  0.4071
  137MOL0     C18415   1.387   2.739   8.224  0.0192 -0.2221 -0.9628
  137MOL0     C18416   1.514   2.785   8.174 -0.2023  0.2913  0.3718
  137MOL0     C18417   1.547   2.754   8.041 -0.3973 -0.8821 -0.5800
  137MOL0     C18418   1.464   2.681   7.958  0.4671 -0.2998  0.0674
  137MOL0     O18419   1.494   2.652   7.829 -0.5060  0.4317  0.9917
  137MOL0     C18420   1.591   2.728   7.746  0.3563 -0.3194 -1.0871
  137MOL0     C18421   1.553   2.871   7.732  0.9908  0.4206 -0.8281
  137MOL0     C18422   1.421   2.877   7.653 -0.1453 -0.7716 -0.0353
  137MOL0     C18423   1.382   3.019   7.604 -1.5775  0.6772 -0.9872
  137MOL0     C18424   1.281   2.990   7.500  0.9589 -0.5042  0.7985
  137MOL0     C18425   1.196   2.969   7.415 -0.2688  0.1081 -0.9542
  137MOL0     C18426   1.353   2.621   8.017 -0.2047  0.3577  0.0704
  137MOL0     C18427   1.313   2.655   8.144  0.2751 -0.1412 -0.0678
  137MOL0     H18428   1.014   2.878   8.461 -0.6783  3.9733  2.7440
  137MOL0     H18429   0.928   2.938   8.673 -0.1811 -0.4495  2.6319
  137MOL0     H18430   1.114   2.764   9.070  2.2821  0.1833  2.3533
  137MOL0     H18431   1.218   2.874   8.971 -0.0879 -0.1346  0.8810
  137MOL0     H18432   1.143   2.963   9.185  1.6319 -3.5496 -2.4395
  137MOL0     H18433   1.093   3.074   9.059 -0.4019  0.6746  1.7533
  137MOL0     H18434   0.867   2.964   9.062  0.4724 -1.1154  0.2101
  137MOL0     H18435   0.931   2.874   9.206  2.8152 -0.2601  0.6356
  137MOL0     H18436   0.963   3.097   9.321 -1.6980 -2.0231  0.9519
  137MOL0     H18437   0.909   3.184   9.178  0.2776  0.7286  0.5089
  137MOL0     H18438   0.694   3.045   9.195 -2.3555  0.0207  1.2035
  137MOL0     H18439   0.744   3.007   9.365  0.2143  1.4817  1.1750
  137MOL0     H18440   0.738   3.236   9.433 -1.8596  0.0393 -0.1687
  137MOL0     H18441   0.699   3.287   9.269 -0.7026  0.6456  0.2978
  137MOL0     H18442   0.514   3.278   9.420  0.4939  0.4707 -2.5730
  137MOL0     H18443   0.483   3.152   9.298  1.1763 -1.5942 -1.0391
  137MOL0     H18444   0.598   3.089   9.579 -3.5478  3.1391  2.6504
  137MOL0     H18445   0.540   2.974   9.452 -1.5530  0.5506 -0.6739
  137MOL0     H18446   0.359   2.861   9.601 -0.6414 -0.3183  1.4508
  137MOL0     H18447   0.163   2.839   9.769 -1.2004 -0.6873 -0.9896
  137MOL0     H18448   0.100   2.993   9.846  0.8448  1.3473 -0.1804
  137MOL0     H18449   0.024   2.851   9.596  1.0447  1.5731 -0.8476
  137MOL0     H18450  -0.005   3.028   9.616 -1.1590 -0.9807 -1.3742
  137MOL0     H18451  -0.124   2.973   9.835 -0.9202 -0.6167 -0.4930
  137MOL0     H18452  -0.114   2.795   9.777 -2.6106 -0.9540 -0.1743
  137MOL0     H18453  -0.276   2.838   9.623 -1.2061  2.6257 -3.5489
  137MOL0     H18454  -0.235   3.005   9.605  1.3303 -1.6046 -0.7635
  137MOL0     H18455  -0.496   2.733   9.788  1.8675 -0.2547  0.1381
  137MOL0     H18456  -0.792   2.613   9.620 -0.2905 -1.0925  0.4828
  137MOL0     H18457  -0.638   2.570   9.698 -0.0980  0.7857  1.5168
  137MOL0     H18458  -0.777   2.634   9.790  0.2596  1.1789  0.1205
  137MOL0     H18459  -1.160   2.869   9.695 -2.2783  2.9647 -2.1722
  137MOL0     H18460  -1.388   2.849   9.598 -0.5973 -0.4820 -2.7171
  137MOL0     H18461  -1.431   2.635   9.213  1.8215  0.6719  1.4658
  137MOL0     H18462  -1.452   2.498   9.322 -1.2048 -0.8744  0.9289
  137MOL0     H18463  -1.688   2.575   9.385 -1.7032 -1.7975 -0.8678
  137MOL0     H18464  -1.677   2.673   9.233  0.3499 -0.3139  0.8209
  137MOL0     H18465  -1.612   2.380   9.254  2.7164  0.7445 -1.9669
  137MOL0     H18466  -1.617   2.475   9.105 -0.3092 -2.5599  0.2059
  137MOL0     H18467  -1.875   2.474   9.276 -0.0736  1.0572 -0.4964
  137MOL0     H18468  -1.838   2.536   9.117 -0.7824  1.8777  2.9195
  137MOL0     H18469  -1.828   2.234   9.206 -2.1019 -0.3031 -0.0777
  137MOL0     H18470  -1.817   2.299   9.039  2.3680  0.4738  0.9662
  137MOL0     H18471  -2.041   2.374   9.051 -0.3278  1.9101  1.1892
  137MOL0     H18472  -2.038   2.204   9.096  0.4024  0.0829  0.1592
  137MOL0     H18473  -2.135   2.437   9.240 -0.4875  0.1912  3.2362
  137MOL0     H18474  -2.030   2.332   9.341  1.8871 -1.9590 -1.4002
  137MOL0     H18475  -2.280   2.276   9.340  1.5238  2.3903  0.8733
  137MOL0     H18476  -2.176   2.142   9.280 -0.1263  0.8365  0.9057
  137MOL0     H18477  -1.232   2.584   9.297 -1.4214  1.3360 -1.6901
  137MOL0     H18478  -1.009   2.616   9.398 -0.2390 -2.6515  2.5029
  137MOL0     H18479  -0.714   3.107   9.553 -0.3539  0.4994 -0.2582
  137MOL0     H18480  -0.493   3.126   9.642  0.8820  0.1873 -0.7735
  137MOL0     H18481   1.233   2.690   8.852 -2.3032  1.4215  2.0481
  137MOL0     H18482   1.307   2.608   8.620 -1.4737 -1.2906  0.0018
  137MOL0     H18483   1.573   2.844   8.244 -0.3512  0.2214  0.5569
  137MOL0     H18484   1.638   2.799   8.002  1.1321 -1.5796  1.9679
  137MOL0     H18485   1.684   2.717   7.801  0.2126  3.2551  0.1741
  137MOL0     H18486   1.596   2.690   7.643 -0.3645 -0.9464 -0.9002
  137MOL0     H18487   1.638   2.908   7.674  1.0789 -2.6128 -2.9200
  137MOL0     H18488   1.531   2.927   7.823 -2.3398 -1.1389 -0.5118
  137MOL0     H18489   1.338   2.845   7.717 -1.6442 -0.4650 -1.7394
  137MOL0     H18490   1.414   2.808   7.568  0.3857 -1.6851  0.6462
  137MOL0     H18491   1.470   3.064   7.557  1.2189 -0.5845  2.5437
  137MOL0     H18492   1.348   3.077   7.690 -0.1779  1.1205 -0.7072
  137MOL0     H18493   1.118   2.963   7.341 -0.2885 -0.8986 -0.8657
  137MOL0     H18494   1.281   2.562   7.962 -0.5721  1.1464 -0.3114
  137MOL0     H18495   1.226   2.605   8.186  0.1027  1.4802  1.6431
  138MOL0     O18496   5.384   1.882   3.341  0.6996  0.2864  0.3966
  138MOL0     C18497   5.462   1.790   3.301  0.5127  0.2938  0.0051
  138MOL0     O18498   5.426   1.666   3.260 -0.0376 -0.2506  0.0218
  138MOL0     C18499   5.296   1.633   3.217 -0.1889 -0.0639 -1.4922
  138MOL0     C18500   5.278   1.492   3.209  0.5060 -0.7261 -0.6218
  138MOL0     C18501   5.142   1.446   3.178 -0.3216 -0.1288  0.2636
  138MOL0     C18502   5.041   1.538   3.131 -0.2817 -0.4222 -0.4047
  138MOL0     O18503   4.918   1.491   3.098 -0.1515  0.2930 -0.2402
  138MOL0     C18504   4.840   1.581   3.022  0.0109  0.8729  0.0028
  138MOL0     C18505   4.734   1.497   2.956  0.6879  0.2625 -0.3720
  138MOL0     C18506   4.607   1.565   2.894  0.0878 -0.9133  0.7382
  138MOL0     C18507   4.511   1.620   3.006  0.3784  0.7561 -0.2941
  138MOL0     C18508   4.365   1.649   2.959 -0.3450 -0.2665 -0.3493
  138MOL0     C18509   4.283   1.523   2.977 -0.9395 -0.3212 -0.5145
  138MOL0     C18510   4.134   1.558   3.016 -0.0575  0.0028 -0.6392
  138MOL0     C18511   4.047   1.430   3.024 -0.2436 -0.6797  0.4063
  138MOL0     N18512   3.905   1.463   3.052 -0.2458  0.2351 -0.4063
  138MOL0     C18513   3.811   1.492   2.953 -0.7368 -0.7114 -0.4360
  138MOL0     C18514   3.698   1.523   3.015  0.2057 -0.3875  0.2487
  138MOL0     C18515   3.569   1.584   2.957 -1.2515  0.3286 -0.0080
  138MOL0     C18516   3.450   1.495   2.989 -0.3818  0.5405 -0.3693
  138MOL0     C18517   3.332   1.555   2.930 -0.2829 -0.1967 -0.9763
  138MOL0     C18518   3.201   1.474   2.961 -0.2445 -0.0962  0.6771
  138MOL0     O18519   3.164   1.505   3.093 -0.1591  0.2156  0.0938
  138MOL0     C18520   3.034   1.492   3.122  0.2603  0.4801 -0.3103
  138MOL0     C18521   2.939   1.435   3.033  0.8307 -0.9783 -0.1477
  138MOL0     C18522   2.804   1.425   3.074 -0.8608 -0.3723  1.1974
  138MOL0     C18523   2.709   1.360   2.974 -0.0495  0.9101  0.0346
  138MOL0     C18524   2.768   1.474   3.199  1.3935 -0.4193  0.3649
  138MOL0     C18525   2.621   1.487   3.246 -0.8714  0.1825 -0.2497
  138MOL0     O18526   2.534   1.505   3.149  0.1530 -0.1787  0.2841
  138MOL0     C18527   2.404   1.518   3.166  0.0854  0.3508 -0.3980
  138MOL0     C18528   2.350   1.598   3.270  0.1101 -0.3376  0.4222
  138MOL0     C18529   2.206   1.594   3.287  0.1023  0.5265 -0.7384
  138MOL0     C18530   2.122   1.517   3.210 -0.1036  1.0244 -0.8453
  138MOL0     O18531   1.984   1.545   3.228  0.4593 -0.3327  0.4584
  138MOL0     C18532   1.894   1.483   3.134 -0.3248 -0.0169  0.8727
  138MOL0     C18533   1.754   1.500   3.173  0.4293 -0.4895 -0.4452
  138MOL0     C18534   1.706   1.417   3.287  0.3002 -0.1067 -1.7796
  138MOL0     C18535   1.559   1.462   3.304  0.4527  0.0785  0.4479
  138MOL0     C18536   1.493   1.407   3.434  0.5857  0.5163  0.2884
  138MOL0     C18537   1.571   1.430   3.561 -0.5560  0.1247 -0.3814
  138MOL0     C18538   1.479   1.412   3.683 -0.4619 -1.2880  0.1939
  138MOL0     C18539   1.554   1.365   3.807 -0.3330  0.0681  0.1688
  138MOL0    Cl18540   1.428   1.317   3.916 -0.2356 -0.0062  0.1060
  138MOL0     C18541   2.184   1.439   3.118  1.0546  0.9601  0.6384
  138MOL0     C18542   2.317   1.439   3.091 -0.7525 -0.6573 -0.1730
  138MOL0     O18543   2.600   1.504   3.365 -0.5063 -0.2551  0.7790
  138MOL0     C18544   2.863   1.511   3.288 -0.1473 -0.8040  1.2479
  138MOL0     C18545   2.994   1.529   3.250 -0.1859  0.0352  0.2626
  138MOL0     N18546   3.722   1.507   3.148  0.1344  0.0777 -0.5015
  138MOL0     N18547   3.840   1.472   3.174 -0.7970  0.5811 -0.6017
  138MOL0     C18548   5.073   1.679   3.130 -0.7081  0.3953  0.3666
  138MOL0     C18549   5.199   1.722   3.170 -0.0825  0.3495  0.4060
  138MOL0     C18550   5.606   1.802   3.324 -0.0264  0.2931  0.5458
  138MOL0     C18551   5.701   1.690   3.308 -0.4005 -0.2271 -0.1481
  138MOL0     C18552   5.836   1.710   3.338  0.4702  0.5073 -0.3505
  138MOL0     C18553   5.897   1.829   3.382 -0.4359  0.0623 -0.1638
  138MOL0     O18554   6.034   1.843   3.409 -0.6574 -0.5220  0.0144
  138MOL0     C18555   6.124   1.899   3.306  0.0078 -1.0178  0.8083
  138MOL0     C18556   6.245   1.956   3.374  0.7455  0.2889 -0.5893
  138MOL0     C18557   6.221   2.062   3.488 -0.3697 -0.0317 -0.1212
  138MOL0     C18558   6.344   2.077   3.577 -1.0377 -0.2054  0.0360
  138MOL0     C18559   6.460   2.146   3.518 -0.5693  0.6477  0.2478
  138MOL0     C18560   6.557   2.212   3.478 -0.1435  0.7133  0.0043
  138MOL0     C18561   5.811   1.938   3.401 -0.1263  0.3351  0.5568
  138MOL0     C18562   5.670   1.928   3.367 -0.6010 -0.1693 -0.4060
  138MOL0     H18563   5.360   1.438   3.256 -0.3821  1.5971  4.2928
  138MOL0     H18564   5.119   1.341   3.166 -1.9183  0.4918 -3.8200
  138MOL0     H18565   4.780   1.653   3.079 -3.1736  0.9499 -3.1047
  138MOL0     H18566   4.890   1.634   2.940 -2.3172  1.8407 -0.8850
  138MOL0     H18567   4.781   1.435   2.879 -1.2965 -1.7386 -0.0811
  138MOL0     H18568   4.704   1.423   3.030 -0.1750  0.4143 -0.5544
  138MOL0     H18569   4.641   1.647   2.830  1.5847 -2.1179 -0.0727
  138MOL0     H18570   4.552   1.493   2.832  1.0014 -1.2409  0.2825
  138MOL0     H18571   4.507   1.552   3.091  0.2184 -0.2068 -1.0457
  138MOL0     H18572   4.554   1.713   3.043  1.3679 -0.4691  1.8037
  138MOL0     H18573   4.320   1.734   3.011  0.8804 -0.1051  0.5105
  138MOL0     H18574   4.374   1.676   2.854  0.2318 -2.9878 -1.0764
  138MOL0     H18575   4.292   1.464   2.886 -0.2661 -1.4534  0.2663
  138MOL0     H18576   4.314   1.460   3.061  0.2283  0.2564 -0.4853
  138MOL0     H18577   4.137   1.624   3.103  2.1795 -1.2583  0.3251
  138MOL0     H18578   4.094   1.629   2.942 -1.3483 -0.4738 -0.4258
  138MOL0     H18579   4.076   1.364   3.106 -0.0001  1.6942  2.3534
  138MOL0     H18580   4.060   1.373   2.932 -0.4765 -4.1984  2.3886
  138MOL0     H18581   3.830   1.521   2.850  0.8833 -0.1525 -0.0132
  138MOL0     H18582   3.555   1.687   2.992 -1.6558  0.0543  0.6536
  138MOL0     H18583   3.580   1.588   2.848 -0.0490  0.0922  0.0955
  138MOL0     H18584   3.439   1.486   3.098 -0.1086  2.3794 -0.1456
  138MOL0     H18585   3.468   1.397   2.945  0.3594 -1.7041  4.3235
  138MOL0     H18586   3.337   1.572   2.822  0.0685  1.9507 -0.6555
  138MOL0     H18587   3.321   1.645   2.992  0.6594 -1.7850  1.6424
  138MOL0     H18588   3.225   1.367   2.952  3.6300  0.6315  0.5659
  138MOL0     H18589   3.135   1.511   2.883 -0.4038 -0.3402  0.6940
  138MOL0     H18590   2.971   1.401   2.935 -0.2194  2.3241 -1.7733
  138MOL0     H18591   2.637   1.425   2.923 -0.7586  0.6874  0.7338
  138MOL0     H18592   2.760   1.303   2.896 -0.8902 -1.4586  1.1356
  138MOL0     H18593   2.647   1.287   3.026  0.3103 -0.0580 -0.8731
  138MOL0     H18594   2.416   1.657   3.333  1.0113 -1.3892  0.4920
  138MOL0     H18595   2.173   1.658   3.367  0.5706  0.6242 -0.6163
  138MOL0     H18596   1.921   1.525   3.037  0.1289 -3.6476 -0.7174
  138MOL0     H18597   1.916   1.376   3.128  0.1664  0.0629  1.2584
  138MOL0     H18598   1.749   1.604   3.205 -0.7645 -0.1594 -1.6100
  138MOL0     H18599   1.687   1.487   3.087  0.6320 -0.9559 -0.5365
  138MOL0     H18600   1.753   1.451   3.379  0.4628 -1.4386 -1.3425
  138MOL0     H18601   1.720   1.309   3.280  1.0015 -0.3073  1.4121
  138MOL0     H18602   1.553   1.571   3.306  1.3336  0.1876 -1.0255
  138MOL0     H18603   1.502   1.418   3.221  3.2501 -0.8694 -1.1143
  138MOL0     H18604   1.477   1.299   3.429 -0.1969  0.6350  0.0382
  138MOL0     H18605   1.393   1.446   3.457 -0.1465 -2.0377  1.8094
  138MOL0     H18606   1.646   1.350   3.558 -3.0860 -2.3910 -0.5061
  138MOL0     H18607   1.620   1.528   3.558 -0.5720  0.2183  1.4015
  138MOL0     H18608   1.412   1.327   3.663 -1.4802 -0.4472 -0.0883
  138MOL0     H18609   1.423   1.503   3.710  2.1196  0.0669  1.2796
  138MOL0     H18610   1.628   1.441   3.833  0.7707 -0.4658 -1.2530
  138MOL0     H18611   1.623   1.281   3.796 -2.3287 -1.4188 -1.9252
  138MOL0     H18612   2.134   1.379   3.042 -0.2266  0.6218  1.6942
  138MOL0     H18613   2.356   1.369   3.017 -1.8474 -2.3307  0.7745
  138MOL0     H18614   2.834   1.521   3.393  0.8808  1.5374  1.3789
  138MOL0     H18615   3.081   1.561   3.307  1.0357 -0.2363 -1.3703
  138MOL0     H18616   5.009   1.761   3.099  0.6680  0.4336 -2.7904
  138MOL0     H18617   5.215   1.829   3.165 -0.6615  0.5314  1.8676
  138MOL0     H18618   5.666   1.596   3.267  1.4532 -0.4409 -1.3621
  138MOL0     H18619   5.902   1.630   3.305  0.9437  0.5691  0.4089
  138MOL0     H18620   6.165   1.818   3.245 -1.3147 -2.1201  1.3247
  138MOL0     H18621   6.081   1.976   3.241  1.6619  2.1610  3.1480
  138MOL0     H18622   6.305   2.002   3.295 -0.1940 -0.5674 -1.8341
  138MOL0     H18623   6.304   1.874   3.417 -0.1685 -1.1036 -1.8904
  138MOL0     H18624   6.138   2.033   3.553  2.1117 -0.8720  2.9589
  138MOL0     H18625   6.204   2.160   3.443  1.9318  1.1055  1.2861
  138MOL0     H18626   6.360   1.974   3.609 -1.5436  0.0021  0.9971
  138MOL0     H18627   6.318   2.132   3.668 -5.0511  1.2776 -1.7882
  138MOL0     H18628   6.633   2.274   3.434 -1.4545  1.9133 -0.6704
  138MOL0     H18629   5.843   2.028   3.452  0.6592  0.0126  0.6431
  138MOL0     H18630   5.596   2.006   3.384 -0.4959  0.1012 -1.1664
  139MOL0     O18631   9.179   7.598   5.430 -0.6180 -0.2622  0.4171
  139MOL0     C18632   9.156   7.686   5.345 -0.6303 -0.4810  0.4249
  139MOL0     O18633   9.037   7.708   5.293  0.0766 -1.2064  0.2196
  139MOL0     C18634   8.921   7.701   5.371 -0.0355 -0.1979  0.4768
  139MOL0     C18635   8.807   7.709   5.298 -0.0130 -0.2003  0.1050
  139MOL0     C18636   8.679   7.694   5.348 -0.4133  0.3388 -0.5369
  139MOL0     C18637   8.667   7.675   5.491 -0.6231  0.0684  0.3209
  139MOL0     O18638   8.555   7.627   5.554 -0.5631 -0.8939  0.3370
  139MOL0     C18639   8.450   7.725   5.567 -0.0689 -0.3410  0.7212
  139MOL0     C18640   8.321   7.659   5.606  0.3467  0.2009 -0.6515
  139MOL0     C18641   8.210   7.760   5.634 -0.4934 -0.5408  0.5207
  139MOL0     C18642   8.073   7.696   5.649  0.6742  0.0594  0.5423
  139MOL0     C18643   7.960   7.792   5.672 -0.2581 -0.3028 -0.2847
  139MOL0     C18644   7.829   7.718   5.693 -0.7501  0.2579  0.2483
  139MOL0     C18645   7.709   7.802   5.701  0.9923 -1.3003 -0.0558
  139MOL0     C18646   7.697   7.858   5.845  0.2862  0.1204  0.1918
  139MOL0     N18647   7.572   7.937   5.852  0.4001  0.9082  0.0392
  139MOL0     C18648   7.458   7.891   5.915  0.0730 -0.8112  0.1922
  139MOL0     C18649   7.362   7.982   5.893  0.7990 -0.5001  0.3535
  139MOL0     C18650   7.215   7.970   5.929  0.5411  0.8962 -0.0199
  139MOL0     C18651   7.145   7.887   5.817  0.1821 -0.1268 -0.8719
  139MOL0     C18652   6.991   7.875   5.836  0.3907 -0.1350 -0.8197
  139MOL0     C18653   6.915   8.010   5.823 -0.1295 -0.5748 -0.1133
  139MOL0     O18654   6.770   7.990   5.836 -0.0035  0.2913 -0.0414
  139MOL0     C18655   6.682   8.100   5.816  0.0796  0.4471  0.3052
  139MOL0     C18656   6.549   8.080   5.798 -0.0940 -0.0859  0.1785
  139MOL0     C18657   6.454   8.178   5.780 -0.4681 -0.9538  0.0661
  139MOL0     C18658   6.306   8.150   5.786 -0.7011  0.2942 -0.1195
  139MOL0     C18659   6.497   8.313   5.759  0.5958  1.4375 -0.2974
  139MOL0     C18660   6.410   8.426   5.720 -0.4550 -0.3099 -0.0177
  139MOL0     O18661   6.481   8.528   5.674  0.1797  0.7916 -0.5024
  139MOL0     C18662   6.426   8.654   5.689  0.4014  0.3389 -0.3576
  139MOL0     C18663   6.370   8.694   5.807  1.2469  0.2709 -0.4549
  139MOL0     C18664   6.331   8.826   5.820  0.1675 -0.2878 -0.6571
  139MOL0     C18665   6.342   8.917   5.713 -0.0470  0.1931 -0.5450
  139MOL0     O18666   6.304   9.043   5.743  0.4481 -0.5119  0.6961
  139MOL0     C18667   6.165   9.055   5.696 -1.1090  0.3246 -0.5350
  139MOL0     C18668   6.123   9.203   5.695  0.1588  0.1224  0.8510
  139MOL0     C18669   6.114   9.257   5.840 -0.1428 -0.3292  0.3139
  139MOL0     C18670   6.032   9.381   5.843  0.2818 -0.0571  0.1726
  139MOL0     C18671   6.016   9.445   5.984 -0.4302  0.8147 -0.7987
  139MOL0     C18672   5.920   9.568   5.990  0.8633 -0.2853  0.4865
  139MOL0     C18673   5.940   9.655   6.115  0.6254  0.4180 -0.2214
  139MOL0     C18674   5.841   9.762   6.147  1.1296 -0.7754 -0.2069
  139MOL0    Cl18675   5.817   9.880   6.011  0.0224 -0.0344 -0.5533
  139MOL0     C18676   6.411   8.879   5.598 -0.8853 -0.3151  0.0941
  139MOL0     C18677   6.442   8.743   5.586 -0.8101 -0.5221  0.0607
  139MOL0     O18678   6.290   8.433   5.736  0.0699 -0.4270  0.4741
  139MOL0     C18679   6.634   8.336   5.775  0.0497  0.5358  0.6791
  139MOL0     C18680   6.719   8.234   5.809  0.2808  0.2520  0.0868
  139MOL0     N18681   7.419   8.090   5.827 -0.4240  0.4302  0.1959
  139MOL0     N18682   7.545   8.064   5.797 -0.2675  0.4468 -0.2412
  139MOL0     C18683   8.785   7.685   5.567  0.3938  1.0119  0.0452
  139MOL0     C18684   8.911   7.703   5.510  0.5150  0.1513  0.7764
  139MOL0     C18685   9.272   7.759   5.288  0.5954 -0.9121 -0.5813
  139MOL0     C18686   9.400   7.731   5.325 -0.1785 -0.8547  0.7647
  139MOL0     C18687   9.505   7.808   5.275 -0.2352  0.3373  0.3578
  139MOL0     C18688   9.487   7.909   5.189  0.2079  0.6902  1.1894
  139MOL0     O18689   9.598   7.977   5.161  0.0207 -0.4125 -0.0602
  139MOL0     C18690   9.601   8.053   5.042  0.1965 -0.6480 -0.3102
  139MOL0     C18691   9.750   8.064   5.007  0.2693  0.3121 -0.4234
  139MOL0     C18692   9.783   8.118   4.863 -0.0960 -0.1830 -0.0569
  139MOL0     C18693   9.912   8.200   4.838  0.0841  0.1152 -0.4041
  139MOL0     C18694  10.030   8.135   4.896 -0.2335  0.1616  0.1786
  139MOL0     C18695  10.127   8.081   4.937 -0.1211  0.3102  0.1473
  139MOL0     C18696   9.355   7.936   5.139 -0.3915 -0.3475  0.3826
  139MOL0     C18697   9.247   7.868   5.202 -0.6627 -0.1608  0.3182
  139MOL0     H18698   8.822   7.713   5.191  0.4272 -3.3590 -0.0502
  139MOL0     H18699   8.598   7.676   5.278 -0.5181  0.4470 -0.4425
  139MOL0     H18700   8.477   7.807   5.633  0.4956 -0.6509  0.8843
  139MOL0     H18701   8.443   7.762   5.464  3.0541 -3.6135 -0.9531
  139MOL0     H18702   8.304   7.585   5.527 -2.6623 -0.7914  0.7651
  139MOL0     H18703   8.321   7.602   5.698 -0.1567  3.6431  1.6876
  139MOL0     H18704   8.231   7.819   5.724  2.8681 -1.4087  0.4540
  139MOL0     H18705   8.216   7.825   5.547  1.3996 -0.4796  0.6511
  139MOL0     H18706   8.049   7.644   5.556  2.0719  1.2492 -0.5218
  139MOL0     H18707   8.074   7.618   5.726  2.0221 -0.1548  0.3250
  139MOL0     H18708   7.982   7.861   5.754 -1.7660  0.6911 -0.6777
  139MOL0     H18709   7.966   7.853   5.581  0.7547  1.9478  1.2029
  139MOL0     H18710   7.817   7.661   5.601  0.2163 -1.4572  1.1259
  139MOL0     H18711   7.834   7.662   5.787 -0.9056  0.9241  0.6630
  139MOL0     H18712   7.715   7.885   5.630  0.6310 -2.8647 -2.0115
  139MOL0     H18713   7.624   7.740   5.671  0.5383 -1.2845  1.1497
  139MOL0     H18714   7.786   7.908   5.882 -0.2835 -0.4797  2.5545
  139MOL0     H18715   7.681   7.769   5.907  0.4143 -0.8937 -1.1893
  139MOL0     H18716   7.442   7.791   5.954  3.8683 -0.6111  2.8222
  139MOL0     H18717   7.210   7.910   6.020  2.0166 -1.3600 -1.3381
  139MOL0     H18718   7.165   8.067   5.938 -1.2752  0.0353 -0.4152
  139MOL0     H18719   7.190   7.787   5.808 -0.1931 -0.6959  2.4046
  139MOL0     H18720   7.162   7.941   5.723 -0.8955  2.4243  0.2989
  139MOL0     H18721   6.974   7.830   5.934 -2.2796 -2.6169 -2.2692
  139MOL0     H18722   6.946   7.799   5.771  1.5422 -1.8810  0.3072
  139MOL0     H18723   6.933   8.045   5.721  3.4576 -1.8602 -0.0804
  139MOL0     H18724   6.941   8.086   5.897 -0.5255 -1.7542  1.2911
  139MOL0     H18725   6.517   7.977   5.794 -2.7191  0.5775  2.0786
  139MOL0     H18726   6.303   8.047   5.823  2.5825  0.5092  1.0936
  139MOL0     H18727   6.257   8.209   5.864 -0.9081 -0.4778  0.3426
  139MOL0     H18728   6.254   8.159   5.690 -1.0500  0.9841  0.1257
  139MOL0     H18729   6.365   8.623   5.888 -0.9390 -0.7347 -1.3857
  139MOL0     H18730   6.290   8.870   5.910  5.5388 -3.5953  3.9854
  139MOL0     H18731   6.167   9.010   5.596 -0.0015 -2.1693  0.5217
  139MOL0     H18732   6.103   8.991   5.760  1.8102 -2.2456 -0.0325
  139MOL0     H18733   6.205   9.249   5.639 -2.6900  1.8731 -2.1943
  139MOL0     H18734   6.025   9.204   5.648 -1.0998  2.5808  3.2666
  139MOL0     H18735   6.214   9.279   5.879  0.9280 -0.4675 -2.1407
  139MOL0     H18736   6.061   9.180   5.896 -1.7183  1.7075  1.7533
  139MOL0     H18737   6.081   9.459   5.784 -0.5796  0.8323  0.6005
  139MOL0     H18738   5.932   9.355   5.807  0.2620 -0.1269  0.2780
  139MOL0     H18739   6.112   9.487   6.016 -0.8040  0.9440  0.1915
  139MOL0     H18740   5.999   9.367   6.058  0.8063  0.2299 -1.1041
  139MOL0     H18741   5.939   9.627   5.899 -1.9187  0.6855  0.4477
  139MOL0     H18742   5.822   9.527   5.966  1.3616  0.6302 -4.0376
  139MOL0     H18743   6.039   9.702   6.108  1.6167 -1.7300 -2.2114
  139MOL0     H18744   5.944   9.591   6.204 -0.9341 -0.1679 -0.5406
  139MOL0     H18745   5.886   9.820   6.228 -1.5215  0.1885  0.6962
  139MOL0     H18746   5.744   9.733   6.189  1.7390  0.0062  1.8627
  139MOL0     H18747   6.433   8.944   5.515  0.0007 -1.0485 -0.2717
  139MOL0     H18748   6.491   8.708   5.496 -1.6782 -2.6613  0.3538
  139MOL0     H18749   6.683   8.428   5.745 -1.9306  1.3862 -0.1677
  139MOL0     H18750   6.822   8.263   5.832  1.5825 -1.4300 -3.0723
  139MOL0     H18751   8.789   7.668   5.674 -0.5608  2.8202  0.4130
  139MOL0     H18752   9.005   7.695   5.563  3.2005 -0.3275 -3.5678
  139MOL0     H18753   9.409   7.642   5.386 -2.3227 -1.6641  0.0336
  139MOL0     H18754   9.606   7.789   5.310  0.6582 -0.5202 -2.4693
  139MOL0     H18755   9.556   7.995   4.962  1.9690 -0.3782 -1.5672
  139MOL0     H18756   9.548   8.149   5.052  4.0567  1.9586 -2.2553
  139MOL0     H18757   9.776   7.958   5.011  0.0813  0.2822  2.7826
  139MOL0     H18758   9.799   8.123   5.085 -1.3196  0.6596  0.3599
  139MOL0     H18759   9.704   8.181   4.823  1.4828  1.7116 -0.3250
  139MOL0     H18760   9.789   8.024   4.807  2.0070 -1.7886  2.5913
  139MOL0     H18761   9.903   8.292   4.897  1.6942 -1.1481  2.0144
  139MOL0     H18762   9.925   8.219   4.732 -0.0728 -2.7763 -1.0255
  139MOL0     H18763  10.221   8.039   4.968  0.0903  0.6296 -0.0543
  139MOL0     H18764   9.335   8.016   5.069 -1.0162 -1.2172 -0.4710
  139MOL0     H18765   9.144   7.893   5.179  0.0447  0.7083 -2.2045
  140MOL0     O18766   9.751   9.441   7.895  0.2892  0.3440  0.2754
  140MOL0     C18767   9.791   9.343   7.837 -0.5097  0.2310 -0.4103
  140MOL0     O18768   9.756   9.306   7.709  0.8157 -0.1790 -0.8220
  140MOL0     C18769   9.664   9.387   7.648  0.5828 -0.5623 -0.1384
  140MOL0     C18770   9.710   9.490   7.569 -0.0941  0.6039 -0.3765
  140MOL0     C18771   9.625   9.569   7.503  0.0608 -0.0292  0.8917
  140MOL0     C18772   9.483   9.568   7.512 -0.9572  0.5402 -0.1854
  140MOL0     O18773   9.408   9.632   7.414  0.9834 -0.5319 -0.7700
  140MOL0     C18774   9.267   9.657   7.449 -0.1670 -0.1861 -0.1359
  140MOL0     C18775   9.201   9.771   7.370  0.2050 -0.8532  0.7262
  140MOL0     C18776   9.054   9.756   7.374 -0.1112 -0.9503 -0.6923
  140MOL0     C18777   8.980   9.873   7.301 -1.4084  0.1162  0.0975
  140MOL0     C18778   8.830   9.881   7.333 -0.6085 -0.0891  0.2619
  140MOL0     C18779   8.769   9.989   7.242 -0.4480  0.1908  0.5663
  140MOL0     C18780   8.628  10.022   7.288  0.1428 -0.2650  0.2614
  140MOL0     C18781   8.573  10.116   7.185  0.5702  0.3192 -0.8459
  140MOL0     N18782   8.422  10.119   7.198  0.5068 -0.0907  0.2531
  140MOL0     C18783   8.336  10.201   7.265 -0.1581 -0.8392 -0.0300
  140MOL0     C18784   8.214  10.167   7.222 -0.3707  0.1559  0.5009
  140MOL0     C18785   8.097  10.243   7.264  0.1446  0.3929 -0.0357
  140MOL0     C18786   8.024  10.164   7.360  0.0425  0.9612 -0.1615
  140MOL0     C18787   7.904  10.243   7.423  0.1801 -0.3837 -0.5365
  140MOL0     C18788   7.802  10.150   7.497  0.7430  0.6900 -0.2175
  140MOL0     O18789   7.711  10.244   7.555 -0.0910 -0.6670 -1.1093
  140MOL0     C18790   7.599  10.175   7.609  0.0292  0.5535 -0.3498
  140MOL0     C18791   7.507  10.126   7.516 -0.1126 -0.2205  0.3925
  140MOL0     C18792   7.395  10.064   7.562  0.8415 -0.0061  0.3732
  140MOL0     C18793   7.290  10.034   7.451 -0.6550 -1.0578 -0.4367
  140MOL0     C18794   7.370  10.047   7.699 -0.3418 -0.0402  1.2793
  140MOL0     C18795   7.240   9.990   7.756 -0.1843 -0.2250 -0.2976
  140MOL0     O18796   7.233   9.977   7.893 -1.3985  0.9723 -0.1012
  140MOL0     C18797   7.109   9.944   7.930 -0.1947  0.8544 -0.4849
  140MOL0     C18798   7.014  10.044   7.969  0.2407  0.7439  0.1950
  140MOL0     C18799   6.885  10.014   8.026 -0.4695 -0.3977  0.8628
  140MOL0     C18800   6.851   9.883   8.047  0.3016 -0.3538 -0.4380
  140MOL0     O18801   6.727   9.856   8.102 -0.2230 -0.6421  0.3846
  140MOL0     C18802   6.711   9.794   8.231  0.0150 -0.9112  0.2273
  140MOL0     C18803   6.659   9.660   8.219  0.4620  0.4906  0.0685
  140MOL0     C18804   6.611   9.613   8.360 -0.5198 -0.7623  1.3721
  140MOL0     C18805   6.722   9.607   8.464  0.1236  0.9215 -0.4290
  140MOL0     C18806   6.683   9.513   8.581  0.2894  0.4768 -0.1797
  140MOL0     C18807   6.724   9.367   8.576  0.0311 -0.2760  0.1027
  140MOL0     C18808   6.867   9.333   8.512  0.3225 -0.5707 -0.6492
  140MOL0     C18809   6.982   9.383   8.591 -0.0336  0.4091  0.3686
  140MOL0    Cl18810   7.130   9.341   8.503 -0.6305 -0.1942  0.5640
  140MOL0     C18811   6.944   9.788   8.010  0.0343  0.9258 -0.2095
  140MOL0     C18812   7.068   9.810   7.962 -0.0612 -0.2494 -0.2345
  140MOL0     O18813   7.141   9.975   7.683 -0.0327 -0.2570  0.4273
  140MOL0     C18814   7.471  10.087   7.791  0.5420 -0.0806 -0.0491
  140MOL0     C18815   7.579  10.148   7.738 -0.5808 -0.3347  0.1172
  140MOL0     N18816   8.220  10.054   7.138 -0.1081 -0.8329 -0.2506
  140MOL0     N18817   8.346  10.035   7.121  0.8509  0.4441 -0.7467
  140MOL0     C18818   9.438   9.468   7.599  0.6241  0.7926  0.2842
  140MOL0     C18819   9.526   9.375   7.664  0.0141 -0.1901 -0.0959
  140MOL0     C18820   9.884   9.268   7.918 -0.1819 -0.0239  0.6715
  140MOL0     C18821   9.920   9.308   8.049  0.7799  0.0480 -0.2956
  140MOL0     C18822  10.017   9.230   8.126  0.4707 -1.1018  0.4187
  140MOL0     C18823  10.073   9.115   8.070 -0.2965 -1.0795  0.3732
  140MOL0     O18824  10.176   9.040   8.120 -0.1810  0.0725  0.4957
  140MOL0     C18825  10.236   9.071   8.249 -0.7951  0.2839  0.0050
  140MOL0     C18826  10.345   8.979   8.291 -0.0810  0.6196 -0.2032
  140MOL0     C18827  10.288   8.836   8.320 -0.4102  0.2139 -0.3366
  140MOL0     C18828  10.416   8.742   8.343  0.6418 -0.1854  0.3459
  140MOL0     C18829  10.375   8.601   8.320 -0.6518 -0.7402  0.1583
  140MOL0     C18830  10.347   8.482   8.310  0.6022 -0.7240 -0.8698
  140MOL0     C18831  10.027   9.077   7.942 -0.5971  0.4565 -0.2086
  140MOL0     C18832   9.937   9.147   7.862  0.8923 -1.4235 -0.7628
  140MOL0     H18833   9.818   9.498   7.569 -0.1175  0.9920  0.7257
  140MOL0     H18834   9.669   9.648   7.445  1.4731 -0.1962  1.6973
  140MOL0     H18835   9.209   9.565   7.435 -1.6253  0.6623  0.0521
  140MOL0     H18836   9.242   9.685   7.552 -2.5802  0.0064 -0.7034
  140MOL0     H18837   9.227   9.865   7.419  0.0409 -0.8053  0.7211
  140MOL0     H18838   9.235   9.774   7.266 -1.2891  0.0512  0.2445
  140MOL0     H18839   9.010   9.664   7.334 -1.3962 -0.5193 -0.3487
  140MOL0     H18840   9.029   9.759   7.480  1.1487  1.8234 -0.3889
  140MOL0     H18841   9.017   9.971   7.332  0.2200 -0.0127 -1.3124
  140MOL0     H18842   9.001   9.863   7.194  1.4026 -0.8071  0.6415
  140MOL0     H18843   8.785   9.784   7.309  1.0166 -0.3060 -2.2543
  140MOL0     H18844   8.816   9.911   7.437 -3.3611 -0.8551  0.1972
  140MOL0     H18845   8.825  10.080   7.267  1.3911 -0.8075  0.2683
  140MOL0     H18846   8.789   9.966   7.137  1.6190 -2.4573  1.4308
  140MOL0     H18847   8.566   9.932   7.285 -1.9151  1.0688  0.6929
  140MOL0     H18848   8.624  10.075   7.383 -0.7378 -1.7962  1.1082
  140MOL0     H18849   8.594  10.078   7.085  0.7996 -2.6964  0.2466
  140MOL0     H18850   8.611  10.215   7.213 -0.4358 -0.0023  2.0168
  140MOL0     H18851   8.367  10.280   7.332 -2.6305  3.1130 -3.0646
  140MOL0     H18852   8.113  10.337   7.318 -0.3703  2.1964 -2.8200
  140MOL0     H18853   8.042  10.267   7.173 -0.9534 -2.4408 -0.2250
  140MOL0     H18854   8.096  10.137   7.437  1.6282  0.5979 -1.7124
  140MOL0     H18855   7.989  10.069   7.318 -1.5939  1.4318  0.0599
  140MOL0     H18856   7.844  10.297   7.349 -1.5023 -1.0608  0.2849
  140MOL0     H18857   7.951  10.312   7.493 -0.8557 -0.2011 -0.0112
  140MOL0     H18858   7.856  10.097   7.575 -2.5534 -1.8609  0.5633
  140MOL0     H18859   7.761  10.076   7.427  1.1134 -1.8595  2.0740
  140MOL0     H18860   7.518  10.137   7.408  1.6144 -1.9031  0.3330
  140MOL0     H18861   7.206  10.101   7.472  1.8304  1.6798  1.6448
  140MOL0     H18862   7.324  10.057   7.350  1.6283  0.3055  0.5717
  140MOL0     H18863   7.253   9.932   7.463  1.1319 -1.5250  1.6440
  140MOL0     H18864   7.037  10.149   7.953  0.4996  0.5869 -0.5282
  140MOL0     H18865   6.806  10.088   8.038 -0.7491 -0.7991  1.5277
  140MOL0     H18866   6.803   9.788   8.291  0.2577 -1.6035 -0.2022
  140MOL0     H18867   6.641   9.854   8.290 -0.3770 -1.3596  0.2213
  140MOL0     H18868   6.566   9.661   8.161  0.2031 -1.0231  0.4004
  140MOL0     H18869   6.725   9.582   8.179 -0.2309  0.2581 -0.6479
  140MOL0     H18870   6.567   9.515   8.338 -1.9273 -0.0675  0.9395
  140MOL0     H18871   6.526   9.676   8.388 -1.8796 -0.7241 -2.3178
  140MOL0     H18872   6.813   9.569   8.416 -1.5327 -1.2270 -2.1047
  140MOL0     H18873   6.760   9.703   8.499 -1.1232  1.4730 -0.5551
  140MOL0     H18874   6.575   9.509   8.593  0.3436 -1.6769  0.0469
  140MOL0     H18875   6.733   9.559   8.667 -0.4533  0.2411  0.3865
  140MOL0     H18876   6.719   9.339   8.682 -1.1064  1.4628  0.5462
  140MOL0     H18877   6.651   9.306   8.522  2.3537 -2.4268 -0.8200
  140MOL0     H18878   6.880   9.371   8.410 -0.3564  1.5108 -0.0158
  140MOL0     H18879   6.886   9.225   8.507 -0.1549 -0.6509 -0.8433
  140MOL0     H18880   6.993   9.351   8.695  4.6307  0.0383 -0.0140
  140MOL0     H18881   6.973   9.492   8.581 -0.5408  0.1922 -2.5700
  140MOL0     H18882   6.897   9.692   8.029  0.2770  1.2972  2.7547
  140MOL0     H18883   7.123   9.722   7.931  2.9383  0.9728  1.2271
  140MOL0     H18884   7.464  10.063   7.897 -3.0447 -0.0854 -0.1555
  140MOL0     H18885   7.666  10.185   7.793  1.4921 -0.9614 -2.5125
  140MOL0     H18886   9.332   9.463   7.620  0.8680  1.5498  1.8332
  140MOL0     H18887   9.477   9.305   7.731 -0.2201 -1.4018 -1.4898
  140MOL0     H18888   9.880   9.399   8.091  2.5919  0.1755  1.2911
  140MOL0     H18889  10.041   9.265   8.226 -0.8472  0.1945  0.3168
  140MOL0     H18890  10.276   9.172   8.241 -1.8439  0.5725 -1.9800
  140MOL0     H18891  10.157   9.061   8.324 -1.9690  0.6374 -1.1533
  140MOL0     H18892  10.394   9.025   8.377  2.2281 -0.9602 -0.5804
  140MOL0     H18893  10.420   8.969   8.212  1.9260  0.9473  1.5582
  140MOL0     H18894  10.230   8.791   8.238 -2.2332 -0.4273  1.2256
  140MOL0     H18895  10.235   8.843   8.415  1.0550  1.0836  0.4494
  140MOL0     H18896  10.456   8.753   8.444  1.7440 -1.8009  0.1222
  140MOL0     H18897  10.491   8.775   8.271  0.8390 -0.5838  0.3678
  140MOL0     H18898  10.314   8.381   8.324  0.4652 -0.7511 -1.3619
  140MOL0     H18899  10.074   8.988   7.901 -1.2224 -1.4356  2.8000
  140MOL0     H18900   9.908   9.118   7.762  1.8077 -1.2973 -1.0759
  141MOL0     O18901   4.692   4.631   0.796  0.4678  0.2454  0.9355
  141MOL0     C18902   4.715   4.746   0.769 -1.0993 -0.7582  0.3807
  141MOL0     O18903   4.638   4.854   0.816 -0.5949 -0.7881 -0.0078
  141MOL0     C18904   4.530   4.851   0.890  1.1239  0.1394  0.0382
  141MOL0     C18905   4.484   4.973   0.944  0.0857 -0.2823 -1.0457
  141MOL0     C18906   4.363   4.978   1.018 -0.3792  0.1646  0.5574
  141MOL0     C18907   4.291   4.863   1.056  0.0226  0.3106 -0.0229
  141MOL0     O18908   4.182   4.869   1.134  0.3376  0.2403  1.0206
  141MOL0     C18909   4.098   4.753   1.158  0.2645 -0.2523  0.5591
  141MOL0     C18910   4.148   4.672   1.288  0.2852  0.0041 -0.2465
  141MOL0     C18911   4.039   4.583   1.346 -1.0379  0.1162 -0.6809
  141MOL0     C18912   4.069   4.502   1.471 -0.4306 -0.6427  0.6138
  141MOL0     C18913   3.954   4.407   1.491  0.6650  0.1856  0.0256
  141MOL0     C18914   3.819   4.467   1.484 -0.4536  0.1595  0.1736
  141MOL0     C18915   3.711   4.367   1.536 -0.8580  1.1484 -0.7803
  141MOL0     C18916   3.615   4.430   1.628 -0.7635  0.0079  0.3229
  141MOL0     N18917   3.480   4.374   1.624  0.3142  0.1540  0.4330
  141MOL0     C18918   3.389   4.413   1.530 -0.9280 -0.1472 -0.2993
  141MOL0     C18919   3.274   4.366   1.566  0.4559  1.0274  0.6509
  141MOL0     C18920   3.148   4.387   1.489  0.6168  0.2956  0.1326
  141MOL0     C18921   3.103   4.533   1.512  0.4560  0.9435 -0.8773
  141MOL0     C18922   3.045   4.552   1.656  0.2893 -0.3579  0.1499
  141MOL0     C18923   3.012   4.693   1.689  0.0113 -0.8306 -0.4337
  141MOL0     O18924   2.942   4.693   1.812 -0.9782 -0.6027 -0.0992
  141MOL0     C18925   2.817   4.647   1.819  0.2619  0.7813 -0.0102
  141MOL0     C18926   2.777   4.634   1.949  0.3023  0.1052  0.2320
  141MOL0     C18927   2.650   4.577   1.969  0.0548  0.2112  0.0888
  141MOL0     C18928   2.613   4.560   2.118  0.2745 -0.4876  0.3723
  141MOL0     C18929   2.572   4.523   1.868  0.4434  0.6321 -0.6180
  141MOL0     C18930   2.433   4.465   1.887  0.6151  0.4798 -0.3476
  141MOL0     O18931   2.356   4.467   1.782  0.2087 -0.1995 -0.0830
  141MOL0     C18932   2.237   4.401   1.794 -0.0339 -0.5496  0.4811
  141MOL0     C18933   2.143   4.439   1.890 -1.0127 -0.4434  0.7624
  141MOL0     C18934   2.016   4.397   1.885 -0.2787  1.1856 -0.8095
  141MOL0     C18935   1.975   4.299   1.796  0.2645 -0.1049  0.5861
  141MOL0     O18936   1.851   4.245   1.808 -0.8847  0.6768  0.2610
  141MOL0     C18937   1.740   4.339   1.818 -0.1230  0.7636 -0.3539
  141MOL0     C18938   1.615   4.257   1.798  0.8234  0.5458  0.7326
  141MOL0     C18939   1.482   4.337   1.774  0.3317 -0.2309 -0.0167
  141MOL0     C18940   1.461   4.366   1.628  0.5765  0.5635  0.4817
  141MOL0     C18941   1.320   4.431   1.603 -0.2975  0.4325 -0.0253
  141MOL0     C18942   1.295   4.463   1.457  0.3584 -0.3787  0.1306
  141MOL0     C18943   1.142   4.480   1.437  0.4585 -0.0046  0.1627
  141MOL0     C18944   1.102   4.631   1.461 -0.1610  0.3953 -1.0287
  141MOL0    Cl18945   1.016   4.644   1.613  0.3728 -0.4122  0.0710
  141MOL0     C18946   2.062   4.266   1.688 -0.5126 -0.1324 -0.6043
  141MOL0     C18947   2.192   4.312   1.696 -0.3791 -0.6315 -0.0147
  141MOL0     O18948   2.411   4.408   1.991 -0.2288 -0.6863  0.5685
  141MOL0     C18949   2.614   4.546   1.735  0.7260 -0.0295 -0.2216
  141MOL0     C18950   2.739   4.602   1.712 -0.3536 -0.8935  0.2634
  141MOL0     N18951   3.296   4.289   1.679  0.1210  0.5213  0.5411
  141MOL0     N18952   3.415   4.309   1.728  0.0088 -0.1236  0.2199
  141MOL0     C18953   4.344   4.741   1.004  0.1726  0.2755 -0.2396
  141MOL0     C18954   4.453   4.739   0.916 -0.3527  0.1575  0.2919
  141MOL0     C18955   4.841   4.782   0.690  1.2028 -0.1178 -0.0778
  141MOL0     C18956   4.871   4.914   0.657  0.2636 -0.2632  0.4733
  141MOL0     C18957   4.992   4.954   0.591 -0.3721  0.5136 -0.4191
  141MOL0     C18958   5.093   4.857   0.561  0.1574  0.1211 -0.0601
  141MOL0     O18959   5.212   4.880   0.503 -0.5267  0.1813 -0.2810
  141MOL0     C18960   5.243   5.017   0.469  0.5663 -0.1260 -0.0906
  141MOL0     C18961   5.390   5.033   0.424 -0.0709 -0.5337 -0.5418
  141MOL0     C18962   5.494   5.036   0.540  0.2167  0.5931  0.0321
  141MOL0     C18963   5.634   5.048   0.484  0.2506 -0.3269  1.0678
  141MOL0     C18964   5.671   5.179   0.423 -0.3921  0.5663  0.0611
  141MOL0     C18965   5.693   5.286   0.366  0.2752  0.2269  0.3438
  141MOL0     C18966   5.060   4.724   0.604 -0.1017 -0.7480  1.0966
  141MOL0     C18967   4.941   4.692   0.660  0.5203  0.0539  0.1000
  141MOL0     H18968   4.540   5.064   0.926  1.2964 -0.9859 -0.9965
  141MOL0     H18969   4.327   5.076   1.048 -0.0994  1.2499 -2.3817
  141MOL0     H18970   3.993   4.780   1.174 -0.1212 -1.7685  0.7175
  141MOL0     H18971   4.095   4.693   1.067  2.9954  0.2079  0.0907
  141MOL0     H18972   4.233   4.612   1.254  0.8870  0.2838  0.7356
  141MOL0     H18973   4.192   4.731   1.369 -0.4780 -0.4919  0.5342
  141MOL0     H18974   3.946   4.642   1.351 -0.6416  0.7310 -0.4478
  141MOL0     H18975   4.012   4.505   1.275  0.0694 -0.0616 -0.9224
  141MOL0     H18976   4.164   4.450   1.462  1.5456  2.7885 -0.3029
  141MOL0     H18977   4.081   4.561   1.562  0.8344  1.8433 -1.0258
  141MOL0     H18978   3.958   4.322   1.422  1.2343  1.0735 -1.0503
  141MOL0     H18979   3.969   4.362   1.590  0.4409  1.0714  0.4686
  141MOL0     H18980   3.822   4.558   1.544 -2.6170  0.2278  0.2517
  141MOL0     H18981   3.799   4.492   1.380 -2.5826 -3.0265 -0.3442
  141MOL0     H18982   3.661   4.327   1.447 -3.9807  1.6367  0.6122
  141MOL0     H18983   3.749   4.278   1.587 -2.0856 -0.4183 -2.4481
  141MOL0     H18984   3.610   4.535   1.598 -0.1617 -0.0871 -0.1350
  141MOL0     H18985   3.652   4.405   1.728  0.0895 -0.2375 -0.0398
  141MOL0     H18986   3.406   4.479   1.445 -3.4316  1.0830  0.0576
  141MOL0     H18987   3.154   4.359   1.383 -1.5486  2.2222 -0.5739
  141MOL0     H18988   3.071   4.326   1.537 -0.6671  2.4223  0.9271
  141MOL0     H18989   3.026   4.559   1.439  4.1042  3.3931 -4.3697
  141MOL0     H18990   3.189   4.600   1.498  1.0676  1.1242  2.7221
  141MOL0     H18991   3.119   4.516   1.729  1.7076 -0.9951 -1.5295
  141MOL0     H18992   2.959   4.485   1.668  0.0712  0.1530  1.6002
  141MOL0     H18993   2.959   4.757   1.618  0.5378 -0.3748 -0.4309
  141MOL0     H18994   3.105   4.748   1.707 -0.6058  0.7275 -1.7404
  141MOL0     H18995   2.833   4.668   2.036  1.6584 -2.8044  0.6129
  141MOL0     H18996   2.695   4.598   2.180  0.9961  0.3541 -1.0581
  141MOL0     H18997   2.531   4.626   2.149  2.1102  0.5729  3.4324
  141MOL0     H18998   2.596   4.454   2.138 -1.6643 -0.7487 -2.2199
  141MOL0     H18999   2.179   4.512   1.962  1.3095  0.1036 -0.8646
  141MOL0     H19000   1.964   4.434   1.973  1.4157  0.8602  0.3798
  141MOL0     H19001   1.738   4.396   1.912 -3.3005 -2.3779  1.7453
  141MOL0     H19002   1.748   4.417   1.742  0.1263  0.9748 -0.1160
  141MOL0     H19003   1.629   4.180   1.721  2.0657  1.1486  0.3320
  141MOL0     H19004   1.602   4.201   1.891 -0.7487 -1.1162 -0.4078
  141MOL0     H19005   1.490   4.433   1.826 -1.6212 -0.0754  0.0936
  141MOL0     H19006   1.392   4.297   1.823  0.6088  2.7708  3.3901
  141MOL0     H19007   1.542   4.435   1.606  1.2445 -0.4984 -0.5094
  141MOL0     H19008   1.460   4.276   1.564  0.0823  1.2245 -0.4699
  141MOL0     H19009   1.318   4.526   1.656 -1.6353  0.6907 -0.4929
  141MOL0     H19010   1.247   4.358   1.640  1.4887 -1.3515  0.1652
  141MOL0     H19011   1.327   4.564   1.433 -0.3720 -0.0597  0.4769
  141MOL0     H19012   1.332   4.396   1.379 -1.4362 -0.5788 -0.6135
  141MOL0     H19013   1.080   4.416   1.501 -2.4170  1.9349 -0.4822
  141MOL0     H19014   1.125   4.463   1.330 -3.0656  2.1192  0.2248
  141MOL0     H19015   1.045   4.659   1.372 -0.3994  0.8936 -0.7253
  141MOL0     H19016   1.181   4.707   1.458 -0.7227  1.0365 -0.1799
  141MOL0     H19017   2.048   4.185   1.617  1.9213 -0.0049 -1.3327
  141MOL0     H19018   2.272   4.280   1.630 -0.3391  0.9791 -0.7944
  141MOL0     H19019   2.551   4.515   1.652 -2.2930  0.2398  1.8169
  141MOL0     H19020   2.773   4.618   1.610  1.9051  3.1283  1.3871
  141MOL0     H19021   4.295   4.648   1.031  1.8946 -0.1910  1.5051
  141MOL0     H19022   4.467   4.642   0.870 -0.0805 -0.6204  1.9533
  141MOL0     H19023   4.788   4.981   0.673 -0.6877 -2.0719  4.1033
  141MOL0     H19024   5.003   5.058   0.564 -1.4999  1.1661  1.4529
  141MOL0     H19025   5.173   5.056   0.393 -1.6582  1.6764  2.6701
  141MOL0     H19026   5.223   5.090   0.547  1.8289 -0.1768  0.2913
  141MOL0     H19027   5.403   5.130   0.377 -0.2658 -0.1361  0.2083
  141MOL0     H19028   5.424   4.958   0.352  4.5143  0.4188  0.2711
  141MOL0     H19029   5.479   4.940   0.591 -1.1921 -0.5516 -2.3208
  141MOL0     H19030   5.471   5.107   0.620  2.0492  1.5427 -0.2502
  141MOL0     H19031   5.645   4.984   0.396 -1.5458 -1.1093  1.3559
  141MOL0     H19032   5.714   5.012   0.548 -2.0269 -1.9591  3.1554
  141MOL0     H19033   5.712   5.374   0.307 -0.6943 -0.3131 -0.7993
  141MOL0     H19034   5.134   4.646   0.589  2.3331  1.4957  0.7274
  141MOL0     H19035   4.932   4.592   0.701  1.5799  0.1161  0.5058
  142MOL0     O19036   0.708   1.999   2.688  0.4427 -0.0000 -0.3664
  142MOL0     C19037   0.634   2.010   2.592 -0.3350  0.3470 -0.2691
  142MOL0     O19038   0.670   2.003   2.463 -0.1421 -0.1588  0.3181
  142MOL0     C19039   0.811   2.007   2.438  0.6801  0.2965  0.1521
  142MOL0     C19040   0.878   1.888   2.417 -0.2795 -0.0626  0.5538
  142MOL0     C19041   1.018   1.891   2.387  0.5626  0.2917 -0.3156
  142MOL0     C19042   1.085   2.012   2.370 -0.3000  0.1054 -0.6791
  142MOL0     O19043   1.221   2.002   2.360  0.3157 -0.0256  0.3517
  142MOL0     C19044   1.296   2.099   2.285 -0.7236  0.1401  0.3054
  142MOL0     C19045   1.448   2.067   2.272  0.7738 -0.2503  0.0519
  142MOL0     C19046   1.463   1.981   2.146 -0.6948  0.5272  0.0043
  142MOL0     C19047   1.463   1.828   2.174  0.1797 -0.1476  0.0303
  142MOL0     C19048   1.483   1.757   2.036  0.0173 -0.0345  0.6198
  142MOL0     C19049   1.465   1.599   2.052  0.1650  1.2393  0.5953
  142MOL0     C19050   1.566   1.518   1.967 -0.6643  0.4484 -0.7941
  142MOL0     C19051   1.692   1.480   2.041  0.0579 -0.1967 -0.0696
  142MOL0     N19052   1.778   1.596   2.056 -0.5615 -0.4175 -0.0347
  142MOL0     C19053   1.782   1.675   2.169 -0.6654  0.9062  0.0057
  142MOL0     C19054   1.866   1.778   2.143 -0.2081 -0.1017 -0.4281
  142MOL0     C19055   1.881   1.895   2.238 -0.3541  0.9998 -0.1434
  142MOL0     C19056   1.851   2.023   2.154  0.1398 -0.4872  0.9415
  142MOL0     C19057   1.835   2.150   2.236 -0.1002  0.1623 -0.3650
  142MOL0     C19058   1.810   2.266   2.147  0.4259 -1.0502  0.6532
  142MOL0     O19059   1.682   2.254   2.083 -0.5508 -0.7967 -0.2777
  142MOL0     C19060   1.627   2.357   2.014 -0.4776 -0.1213 -0.5462
  142MOL0     C19061   1.694   2.485   1.996  0.8226 -0.3095  0.9758
  142MOL0     C19062   1.624   2.589   1.929  0.3483  0.3326  0.2394
  142MOL0     C19063   1.691   2.717   1.911 -0.0478  0.9028  0.9719
  142MOL0     C19064   1.496   2.563   1.882  0.0186 -0.1133 -0.3577
  142MOL0     C19065   1.421   2.669   1.821  0.6855  0.0527 -0.8362
  142MOL0     O19066   1.288   2.678   1.864  0.6628 -0.1747 -0.2634
  142MOL0     C19067   1.212   2.759   1.784 -0.2639 -1.1110 -0.1604
  142MOL0     C19068   1.248   2.895   1.771  0.6579 -0.6268  0.3336
  142MOL0     C19069   1.156   2.987   1.705 -0.2744  0.4293 -0.2554
  142MOL0     C19070   1.044   2.948   1.638 -0.6316 -0.0847  0.1336
  142MOL0     O19071   0.978   3.053   1.576 -0.7498 -0.1006  0.4637
  142MOL0     C19072   0.929   3.024   1.446  0.0194 -0.4688 -0.4401
  142MOL0     C19073   0.909   3.139   1.354  0.2795 -0.4568  0.3114
  142MOL0     C19074   0.825   3.243   1.425  0.1158 -0.3233  0.3398
  142MOL0     C19075   0.746   3.336   1.329  0.6380 -0.0193 -0.2278
  142MOL0     C19076   0.687   3.445   1.413 -0.3664 -1.1636 -0.1152
  142MOL0     C19077   0.781   3.536   1.485 -0.2373 -0.5079 -0.3917
  142MOL0     C19078   0.903   3.572   1.401  1.1428 -0.4143  0.7654
  142MOL0     C19079   0.991   3.668   1.481  0.5983  0.5018 -0.3616
  142MOL0    Cl19080   1.114   3.735   1.370  0.1369 -0.1525  0.1123
  142MOL0     C19081   1.003   2.824   1.663  0.3458  0.5247  0.4631
  142MOL0     C19082   1.083   2.729   1.740  0.1095 -0.7367  0.2391
  142MOL0     O19083   1.470   2.724   1.717 -0.0434 -0.4403  0.0787
  142MOL0     C19084   1.433   2.439   1.909  0.1324  0.2041  0.1573
  142MOL0     C19085   1.499   2.333   1.972 -0.2246  0.3043  0.5956
  142MOL0     N19086   1.919   1.757   2.022 -0.1287 -0.2754  0.6441
  142MOL0     N19087   1.871   1.642   1.965 -0.8915 -0.0615 -0.1448
  142MOL0     C19088   1.016   2.133   2.379  0.3117  0.7417 -0.0024
  142MOL0     C19089   0.874   2.128   2.408  0.0410  0.4730  0.1692
  142MOL0     C19090   0.494   2.013   2.626 -0.2189  0.1477 -0.0037
  142MOL0     C19091   0.443   2.032   2.753 -0.1847 -0.8301  0.3981
  142MOL0     C19092   0.308   2.013   2.782  0.1413  0.7877  0.1354
  142MOL0     C19093   0.212   1.998   2.679 -0.1005  0.4101  0.2929
  142MOL0     O19094   0.072   1.991   2.706 -0.5131  0.1043  0.1314
  142MOL0     C19095   0.022   1.946   2.827  0.3336 -0.2596  0.1192
  142MOL0     C19096  -0.130   1.956   2.849 -0.8494 -0.0651 -0.0349
  142MOL0     C19097  -0.221   1.889   2.739 -0.0975 -0.9073  0.1750
  142MOL0     C19098  -0.297   1.757   2.780  0.4136 -0.1492 -0.9724
  142MOL0     C19099  -0.209   1.641   2.799  0.4224  0.9495 -0.6077
  142MOL0     C19100  -0.157   1.528   2.801 -0.6681  0.3988 -0.2487
  142MOL0     C19101   0.258   1.993   2.551  0.3508 -0.2551 -0.2028
  142MOL0     C19102   0.395   1.999   2.522  0.7331 -0.0289  0.1904
  142MOL0     H19103   0.842   1.786   2.428 -0.2223 -0.3117 -1.2341
  142MOL0     H19104   1.056   1.789   2.391  0.5581  0.3289  1.6970
  142MOL0     H19105   1.247   2.103   2.187  0.5313  0.0439 -0.3560
  142MOL0     H19106   1.288   2.202   2.323 -2.0287  0.6122 -1.1282
  142MOL0     H19107   1.503   2.161   2.262 -2.1097  1.5424 -0.2701
  142MOL0     H19108   1.482   2.016   2.362  1.7076  0.6329  0.2101
  142MOL0     H19109   1.388   1.999   2.069 -2.1099  0.6194  1.3645
  142MOL0     H19110   1.552   2.017   2.094 -1.1050  0.1045 -0.9968
  142MOL0     H19111   1.532   1.790   2.250 -1.3260 -2.0456  0.5204
  142MOL0     H19112   1.363   1.797   2.204 -0.5841  1.5773 -0.6316
  142MOL0     H19113   1.418   1.799   1.958  1.5114  0.1433 -0.6004
  142MOL0     H19114   1.584   1.783   2.000 -0.1478 -1.5556 -1.0739
  142MOL0     H19115   1.462   1.558   2.154  0.8405 -1.5714 -0.4232
  142MOL0     H19116   1.359   1.591   2.023  0.0058  1.7767  1.0154
  142MOL0     H19117   1.518   1.429   1.925  2.5547 -1.3211 -1.0278
  142MOL0     H19118   1.588   1.588   1.885 -2.7453  1.6189 -0.4299
  142MOL0     H19119   1.745   1.398   1.992  0.2301 -1.6618  2.4020
  142MOL0     H19120   1.666   1.442   2.140 -1.2883  1.2253  0.1609
  142MOL0     H19121   1.718   1.658   2.255  1.1385 -0.8433  1.1033
  142MOL0     H19122   1.802   1.877   2.312 -1.8792  0.9462 -1.7146
  142MOL0     H19123   1.983   1.894   2.277  0.6492  1.8481 -2.5811
  142MOL0     H19124   1.771   2.004   2.081  1.1581 -1.9298  0.1310
  142MOL0     H19125   1.938   2.037   2.089  1.0393 -2.2650  1.6994
  142MOL0     H19126   1.928   2.166   2.292 -0.8057 -2.4054  1.7290
  142MOL0     H19127   1.755   2.150   2.310 -0.8430  4.6960 -0.8705
  142MOL0     H19128   1.892   2.270   2.075  1.0082 -2.4994  1.1938
  142MOL0     H19129   1.811   2.351   2.215 -0.3850 -0.5104  0.0122
  142MOL0     H19130   1.794   2.498   2.036  1.8308 -1.0094 -1.1655
  142MOL0     H19131   1.636   2.809   1.934  0.6263  1.2092  1.4112
  142MOL0     H19132   1.777   2.722   1.979 -0.2319  1.9102  1.1480
  142MOL0     H19133   1.729   2.720   1.808  1.2015 -0.4163  1.3553
  142MOL0     H19134   1.341   2.931   1.815  0.0248  1.2025  0.2482
  142MOL0     H19135   1.173   3.094   1.702 -1.9085  0.7076 -0.9406
  142MOL0     H19136   1.000   2.955   1.397  1.9130  0.6758  0.5642
  142MOL0     H19137   0.837   2.966   1.446 -0.4061  0.0941 -2.7339
  142MOL0     H19138   1.006   3.166   1.311  1.0010 -1.8651  0.9599
  142MOL0     H19139   0.857   3.095   1.267  0.3019 -2.2120  1.1344
  142MOL0     H19140   0.900   3.298   1.482  1.1512 -1.7056  0.3662
  142MOL0     H19141   0.756   3.205   1.500 -1.5226  0.6204 -0.6215
  142MOL0     H19142   0.800   3.394   1.255  1.0176 -1.7660 -1.3863
  142MOL0     H19143   0.668   3.275   1.282  1.0525 -0.0049 -0.9444
  142MOL0     H19144   0.631   3.394   1.492  0.0472 -1.7631 -0.2039
  142MOL0     H19145   0.618   3.513   1.361 -3.9635 -0.3244  4.9446
  142MOL0     H19146   0.724   3.628   1.503 -1.9162 -1.4949 -0.4530
  142MOL0     H19147   0.812   3.488   1.578  3.4941 -0.1533 -1.2698
  142MOL0     H19148   0.863   3.640   1.325 -0.8219 -0.1204  2.0006
  142MOL0     H19149   0.956   3.487   1.357 -1.5495 -1.8566  0.0866
  142MOL0     H19150   1.032   3.615   1.567 -1.3442  0.8366  0.8278
  142MOL0     H19151   0.929   3.753   1.511  0.6185  0.3879  0.0024
  142MOL0     H19152   0.905   2.791   1.633  0.4965 -0.0555  0.5868
  142MOL0     H19153   1.050   2.628   1.758 -0.8371 -0.7243 -1.2769
  142MOL0     H19154   1.330   2.412   1.885 -0.2831 -1.6946  3.4764
  142MOL0     H19155   1.451   2.240   2.002  3.0380 -1.1167  1.7928
  142MOL0     H19156   1.059   2.232   2.369 -0.5694  1.1318 -0.0538
  142MOL0     H19157   0.823   2.223   2.407 -1.0449  0.0762  3.8659
  142MOL0     H19158   0.512   2.053   2.834  0.9186  1.0157 -0.9319
  142MOL0     H19159   0.284   2.033   2.886 -0.2505  0.6148  0.0793
  142MOL0     H19160   0.049   1.842   2.847  0.1675  0.4082  5.1190
  142MOL0     H19161   0.070   2.010   2.901  0.8335  0.6080 -0.9300
  142MOL0     H19162  -0.142   2.064   2.854  4.1277  0.7017  0.2822
  142MOL0     H19163  -0.144   1.919   2.951 -1.3276 -3.2746 -1.1472
  142MOL0     H19164  -0.157   1.868   2.653  1.6064 -1.2035  1.4620
  142MOL0     H19165  -0.294   1.967   2.715  0.3424  0.2595  2.3657
  142MOL0     H19166  -0.386   1.733   2.720 -0.0806 -0.9373  0.0558
  142MOL0     H19167  -0.345   1.778   2.876  0.9527 -1.8641 -0.2949
  142MOL0     H19168  -0.116   1.430   2.802  0.0344  0.6936 -0.0025
  142MOL0     H19169   0.184   1.976   2.473  0.4807 -2.1859  0.0252
  142MOL0     H19170   0.422   1.985   2.418  5.4940  0.5543  1.1090
  143MOL0     O19171   1.468  10.725   0.167 -0.2333 -0.2761  0.0951
  143MOL0     C19172   1.563  10.703   0.097 -0.1612  0.2274 -0.4519
  143MOL0     O19173   1.678  10.779   0.094 -0.3282  0.1917 -0.3548
  143MOL0     C19174   1.691  10.897   0.170  0.2084  0.6334  0.2003
  143MOL0     C19175   1.772  10.876   0.280  0.8753  0.8140  0.1025
  143MOL0     C19176   1.779  10.980   0.366 -0.0428  0.3400 -0.0798
  143MOL0     C19177   1.720  11.110   0.347  0.1810 -0.1667  0.4098
  143MOL0     O19178   1.744  11.214   0.437  0.4813  0.6789  0.1023
  143MOL0     C19179   1.827  11.195   0.552  0.1590 -0.8876 -0.1368
  143MOL0     C19180   1.814  11.317   0.642  0.2792  0.4014 -0.0857
  143MOL0     C19181   1.763  11.288   0.780  0.2392 -0.0522  0.5579
  143MOL0     C19182   1.636  11.212   0.784  0.9722  0.4605  0.5314
  143MOL0     C19183   1.626  11.145   0.919  0.1147  0.6063  0.5697
  143MOL0     C19184   1.504  11.054   0.925 -0.0554  1.0459  1.2288
  143MOL0     C19185   1.370  11.099   0.867 -0.6185 -0.7697 -0.2969
  143MOL0     C19186   1.253  11.001   0.873 -0.2686 -0.4444 -0.0612
  143MOL0     N19187   1.148  11.022   0.975 -0.0031 -0.1012 -0.0712
  143MOL0     C19188   1.099  11.143   1.001  0.3048 -0.0567  0.1967
  143MOL0     C19189   1.023  11.123   1.115 -0.1099  0.5041  0.4463
  143MOL0     C19190   0.950  11.228   1.197 -0.2192  0.5235  0.4602
  143MOL0     C19191   0.808  11.252   1.143 -0.0283  0.6131  0.3932
  143MOL0     C19192   0.740  11.368   1.217 -0.0145 -0.9886 -0.4122
  143MOL0     C19193   0.603  11.395   1.154  0.7009  0.4074  0.6162
  143MOL0     O19194   0.507  11.433   1.253 -0.1579  0.2138  0.4664
  143MOL0     C19195   0.378  11.447   1.219  0.4167  1.6570  0.2221
  143MOL0     C19196   0.332  11.466   1.088  0.6528 -0.4482  0.1742
  143MOL0     C19197   0.193  11.466   1.066  0.4381  0.0201 -0.5783
  143MOL0     C19198   0.148  11.487   0.919  0.1083  0.2310  0.6130
  143MOL0     C19199   0.100  11.469   1.172 -0.2450 -0.0003 -0.3079
  143MOL0     C19200  -0.050  11.472   1.157  0.2449 -0.4886 -0.4830
  143MOL0     O19201  -0.122  11.415   1.259 -0.2974 -0.1693 -0.4683
  143MOL0     C19202  -0.249  11.468   1.273  0.9507 -0.1256  0.4134
  143MOL0     C19203  -0.357  11.403   1.212  0.4377 -0.2317 -0.5493
  143MOL0     C19204  -0.488  11.450   1.222 -0.4491  0.2833  0.0653
  143MOL0     C19205  -0.521  11.573   1.275  0.5647 -0.2033 -0.0836
  143MOL0     O19206  -0.640  11.633   1.285 -0.1113 -0.0370 -0.2359
  143MOL0     C19207  -0.761  11.551   1.267 -0.2063  0.3201 -0.1252
  143MOL0     C19208  -0.868  11.620   1.346 -0.5375 -0.4501 -0.4108
  143MOL0     C19209  -1.014  11.594   1.304 -0.8474 -0.4360  0.8464
  143MOL0     C19210  -1.120  11.577   1.405 -0.1971  0.1007  0.2041
  143MOL0     C19211  -1.241  11.512   1.351  0.4021  0.1805  0.2515
  143MOL0     C19212  -1.348  11.500   1.460  0.3927 -0.1527 -0.2334
  143MOL0     C19213  -1.489  11.511   1.408 -0.3382  0.3515  0.6631
  143MOL0     C19214  -1.592  11.593   1.488  0.2508 -0.1235  0.2982
  143MOL0    Cl19215  -1.608  11.530   1.648 -0.0216 -0.0704  0.0031
  143MOL0     C19216  -0.413  11.644   1.336 -0.3509 -0.4520  0.2630
  143MOL0     C19217  -0.280  11.591   1.336  0.1353  0.0378  0.5191
  143MOL0     O19218  -0.090  11.546   1.072  0.1804 -0.6920 -0.0585
  143MOL0     C19219   0.156  11.449   1.304  1.0601 -0.7906 -0.1804
  143MOL0     C19220   0.293  11.430   1.322 -0.0107 -0.0057  0.4782
  143MOL0     N19221   1.020  10.989   1.135  0.7155  0.2335  0.6594
  143MOL0     N19222   1.097  10.926   1.053 -0.1907  0.3660 -1.2834
  143MOL0     C19223   1.637  11.120   0.235 -0.6179 -0.3142  0.1005
  143MOL0     C19224   1.619  11.007   0.153  0.2058 -0.3611 -0.4178
  143MOL0     C19225   1.555  10.595   0.001 -0.3739 -0.7508 -0.1896
  143MOL0     C19226   1.643  10.575  -0.104 -0.6504 -0.3713  0.4278
  143MOL0     C19227   1.639  10.468  -0.200  0.3265  0.9165 -0.0857
  143MOL0     C19228   1.533  10.377  -0.197 -0.5049 -0.2869 -1.1322
  143MOL0     O19229   1.510  10.272  -0.284  0.3757  0.2761  0.1301
  143MOL0     C19230   1.629  10.211  -0.332  0.8481 -0.3008 -0.0087
  143MOL0     C19231   1.593  10.069  -0.369 -0.0888  0.4478  0.2424
  143MOL0     C19232   1.521  10.042  -0.509 -0.3372  0.9096 -0.4253
  143MOL0     C19233   1.531   9.890  -0.548  0.4668  0.1120  0.4264
  143MOL0     C19234   1.461   9.854  -0.665  0.4548  0.6702  0.5088
  143MOL0     C19235   1.386   9.823  -0.754 -0.9256  0.8942 -0.1877
  143MOL0     C19236   1.435  10.400  -0.093  0.6508  0.0373  0.4260
  143MOL0     C19237   1.445  10.505   0.002 -0.6813  0.4345  0.2855
  143MOL0     H19238   1.827  10.784   0.300 -0.6678 -0.2266 -0.2096
  143MOL0     H19239   1.843  10.969   0.453  0.8687  3.2524 -0.2677
  143MOL0     H19240   1.809  11.107   0.614  0.9882 -0.4247  0.7933
  143MOL0     H19241   1.931  11.179   0.521  0.0224 -3.5287  0.5163
  143MOL0     H19242   1.909  11.372   0.644  0.2689  0.5754 -2.1500
  143MOL0     H19243   1.753  11.393   0.592  0.9038  1.2499  0.4033
  143MOL0     H19244   1.841  11.237   0.838 -0.8469 -2.4262  0.0610
  143MOL0     H19245   1.749  11.390   0.818 -4.7524 -0.2980 -0.0053
  143MOL0     H19246   1.543  11.266   0.767  0.2712 -0.9123 -0.1306
  143MOL0     H19247   1.616  11.143   0.702 -1.1852  1.8692 -0.1905
  143MOL0     H19248   1.715  11.086   0.941 -1.6910 -2.3065  0.5229
  143MOL0     H19249   1.622  11.220   0.998 -1.7349  3.7106 -2.1746
  143MOL0     H19250   1.525  10.963   0.869 -2.6252  1.3646 -0.4353
  143MOL0     H19251   1.492  11.024   1.030 -0.0807 -2.4121  0.3526
  143MOL0     H19252   1.347  11.199   0.904 -1.0997 -0.9956  0.0266
  143MOL0     H19253   1.387  11.111   0.759  0.0531 -0.7566 -0.1935
  143MOL0     H19254   1.289  10.900   0.892 -0.5022 -1.2142 -3.2214
  143MOL0     H19255   1.212  11.008   0.772  0.0034 -1.4166 -0.2465
  143MOL0     H19256   1.126  11.239   0.959 -1.0411  1.5005  2.6159
  143MOL0     H19257   0.943  11.187   1.298  0.8007 -1.3815 -0.1944
  143MOL0     H19258   1.002  11.324   1.200  1.4889 -0.2608 -1.2727
  143MOL0     H19259   0.758  11.155   1.146  2.1091 -0.5600  0.6271
  143MOL0     H19260   0.811  11.279   1.037 -1.2228  0.0587  0.2048
  143MOL0     H19261   0.801  11.457   1.206 -0.5724 -0.6559 -0.8814
  143MOL0     H19262   0.712  11.349   1.322 -2.2039 -0.2455 -0.7950
  143MOL0     H19263   0.569  11.303   1.106 -1.9301  2.1819 -1.1523
  143MOL0     H19264   0.613  11.473   1.078  1.0724  0.8639  1.1166
  143MOL0     H19265   0.392  11.487   1.000 -1.5830  0.7409 -1.1783
  143MOL0     H19266   0.105  11.588   0.919 -0.2289  0.1002 -0.3137
  143MOL0     H19267   0.221  11.472   0.839  1.6176 -1.4345  2.2350
  143MOL0     H19268   0.059  11.428   0.897  0.8883 -1.5118  1.9249
  143MOL0     H19269  -0.343  11.312   1.155 -0.3422 -0.8676  0.2466
  143MOL0     H19270  -0.560  11.385   1.174  1.1982 -0.4461 -1.5411
  143MOL0     H19271  -0.795  11.555   1.163 -4.7574 -0.4459  1.1314
  143MOL0     H19272  -0.756  11.450   1.310  0.8036  0.0516 -0.8133
  143MOL0     H19273  -0.854  11.576   1.445  1.0054 -2.2374 -1.3622
  143MOL0     H19274  -0.850  11.728   1.345 -3.0178  0.0218 -0.7767
  143MOL0     H19275  -1.003  11.504   1.243  1.8651 -0.5914  1.4096
  143MOL0     H19276  -1.031  11.675   1.233  2.0059  0.2159  0.7666
  143MOL0     H19277  -1.077  11.519   1.487  0.5791 -1.7287 -1.4011
  143MOL0     H19278  -1.153  11.673   1.446  0.6711  0.3828  0.2683
  143MOL0     H19279  -1.220  11.410   1.317  1.4577 -0.3044  2.1498
  143MOL0     H19280  -1.280  11.565   1.265  3.4988  0.6833 -0.9940
  143MOL0     H19281  -1.322  11.404   1.505  2.0653  0.8791  1.1139
  143MOL0     H19282  -1.333  11.585   1.527 -1.8371  2.2377 -2.4810
  143MOL0     H19283  -1.529  11.413   1.382 -0.2676  0.1299  1.3780
  143MOL0     H19284  -1.482  11.576   1.320 -0.8047  1.6446  1.5482
  143MOL0     H19285  -1.686  11.612   1.435  1.2706  1.7269 -0.9764
  143MOL0     H19286  -1.563  11.699   1.489 -4.7722  1.5398  0.2465
  143MOL0     H19287  -0.434  11.744   1.373 -1.3871 -0.9879  1.1724
  143MOL0     H19288  -0.207  11.650   1.389 -2.7329  0.6134  4.2700
  143MOL0     H19289   0.097  11.433   1.394  0.5374 -0.1679 -0.4046
  143MOL0     H19290   0.332  11.389   1.415 -1.3823 -2.9713 -0.1372
  143MOL0     H19291   1.575  11.206   0.213 -1.9620 -0.7295  2.0063
  143MOL0     H19292   1.553  11.006   0.067 -0.0359  1.7348 -0.3086
  143MOL0     H19293   1.726  10.645  -0.107 -0.8736 -0.1335 -0.3618
  143MOL0     H19294   1.705  10.475  -0.286  0.9999 -0.1419  0.3219
  143MOL0     H19295   1.669  10.268  -0.416 -0.4270 -1.9419 -1.8269
  143MOL0     H19296   1.707  10.208  -0.255 -0.7322 -1.6354  1.6184
  143MOL0     H19297   1.539  10.014  -0.292 -0.5394  0.3292 -0.1534
  143MOL0     H19298   1.689  10.020  -0.383  0.0235  0.1997  1.6926
  143MOL0     H19299   1.568  10.106  -0.584  0.7216 -0.9570 -1.4219
  143MOL0     H19300   1.413  10.059  -0.501 -0.0789  1.5972  3.7075
  143MOL0     H19301   1.485   9.829  -0.470  1.7462 -1.7509 -0.2018
  143MOL0     H19302   1.638   9.869  -0.544  0.8797  2.0090  0.6634
  143MOL0     H19303   1.329   9.778  -0.833  0.4296 -0.3221 -0.5040
  143MOL0     H19304   1.352  10.331  -0.088  1.4932 -0.9276  2.7919
  143MOL0     H19305   1.361  10.521   0.069  0.9150  1.6950  2.1166
  144MOL0     O19306  11.367   4.009   7.970 -0.2691 -0.6848 -0.3926
  144MOL0     C19307  11.464   4.055   7.900 -0.0874 -0.0102  0.2812
  144MOL0     O19308  11.469   4.180   7.848  0.8367 -0.1153 -0.5545
  144MOL0     C19309  11.348   4.248   7.856  0.2461  0.8480  0.3329
  144MOL0     C19310  11.323   4.330   7.966 -0.0181  0.0284  0.2599
  144MOL0     C19311  11.212   4.409   7.982  0.2484  0.0069 -0.2357
  144MOL0     C19312  11.107   4.399   7.883 -0.0170  0.0982  0.2575
  144MOL0     O19313  10.999   4.473   7.885  0.0791  0.7492  0.1062
  144MOL0     C19314  10.945   4.532   7.995 -0.4804 -0.2815 -0.6405
  144MOL0     C19315  10.830   4.627   7.942 -0.9477  0.2578  0.1875
  144MOL0     C19316  10.724   4.655   8.047 -0.2146 -0.3517 -0.1874
  144MOL0     C19317  10.643   4.773   7.992  0.5150  0.1677 -0.4840
  144MOL0     C19318  10.529   4.791   8.086  0.6351 -0.2056 -0.6663
  144MOL0     C19319  10.445   4.907   8.044 -0.2396  0.5489  0.9434
  144MOL0     C19320  10.337   4.927   8.154 -0.8051  0.4827  0.0793
  144MOL0     C19321  10.269   5.067   8.151  0.0886  0.5026 -0.2167
  144MOL0     N19322  10.360   5.180   8.175  0.5057  0.0244  0.3264
  144MOL0     C19323  10.358   5.281   8.072  0.5413 -0.5331  0.4149
  144MOL0     C19324  10.444   5.373   8.120  0.5987 -0.2417 -0.0790
  144MOL0     C19325  10.493   5.500   8.055  0.1908  0.9160 -0.4388
  144MOL0     C19326  10.640   5.499   8.013 -0.1802 -0.6889  0.6310
  144MOL0     C19327  10.669   5.382   7.918  0.1916  0.2643 -0.4438
  144MOL0     C19328  10.733   5.259   7.995 -0.2538  0.8937  0.5855
  144MOL0     O19329  10.874   5.281   7.992  0.5341 -0.9901  0.8062
  144MOL0     C19330  10.955   5.277   8.104 -0.4800 -0.6169 -0.1861
  144MOL0     C19331  10.920   5.306   8.240  0.2473  0.1964 -0.1488
  144MOL0     C19332  11.003   5.310   8.356 -0.7619 -0.3888 -0.9656
  144MOL0     C19333  10.940   5.316   8.485 -1.2103 -0.1869 -0.1182
  144MOL0     C19334  11.143   5.289   8.327 -0.5094  0.1620 -0.1916
  144MOL0     C19335  11.242   5.263   8.438 -0.2329 -0.0447  0.2628
  144MOL0     O19336  11.360   5.197   8.404 -0.4159  0.2020 -0.0843
  144MOL0     C19337  11.444   5.148   8.489 -0.4990 -1.0178 -0.0917
  144MOL0     C19338  11.487   5.211   8.601  0.4228 -0.4360  0.0243
  144MOL0     C19339  11.567   5.150   8.698  0.8757  0.5796  0.0807
  144MOL0     C19340  11.594   5.016   8.686  0.5822  0.4548 -0.2821
  144MOL0     O19341  11.664   4.963   8.790  0.0043  0.8286 -0.0178
  144MOL0     C19342  11.688   4.819   8.782  0.4805 -0.0540 -0.6887
  144MOL0     C19343  11.809   4.783   8.880 -0.7416 -0.5520  0.1258
  144MOL0     C19344  11.770   4.794   9.025 -0.4498  1.2079 -0.0505
  144MOL0     C19345  11.897   4.808   9.124 -0.5749 -0.1205 -0.0695
  144MOL0     C19346  11.846   4.782   9.270 -0.1108 -0.7491  0.1847
  144MOL0     C19347  11.950   4.812   9.379 -0.2354  0.2408 -0.0774
  144MOL0     C19348  11.902   4.837   9.523 -0.8588  0.3323 -0.9244
  144MOL0     C19349  12.018   4.882   9.609 -0.2101 -0.4419 -0.2724
  144MOL0    Cl19350  12.147   4.758   9.639  0.0154  0.1596  0.2928
  144MOL0     C19351  11.552   4.949   8.568  0.1960  0.5776 -0.2682
  144MOL0     C19352  11.488   5.017   8.468 -0.1492  0.3124  0.6437
  144MOL0     O19353  11.214   5.290   8.555  0.1192  0.3328 -0.1404
  144MOL0     C19354  11.189   5.273   8.196  0.2762 -0.1323 -0.9335
  144MOL0     C19355  11.096   5.260   8.088 -0.1544 -0.1852  0.1849
  144MOL0     N19356  10.508   5.323   8.235  0.5788  0.3177  0.2344
  144MOL0     N19357  10.446   5.213   8.272  0.2288 -0.8811 -0.0978
  144MOL0     C19358  11.119   4.296   7.791  0.0826 -0.5594  0.6420
  144MOL0     C19359  11.239   4.230   7.772 -0.3769 -0.6513 -0.6785
  144MOL0     C19360  11.585   3.981   7.898 -0.2153  0.6202  0.4142
  144MOL0     C19361  11.701   4.024   7.828 -0.0252  0.2059 -0.0890
  144MOL0     C19362  11.817   3.945   7.820 -0.5518 -0.5460 -0.0751
  144MOL0     C19363  11.831   3.823   7.895 -0.2300  0.7093 -0.5751
  144MOL0     O19364  11.939   3.737   7.905 -0.4100  0.8369 -0.2868
  144MOL0     C19365  11.988   3.676   7.785  0.2240 -0.5689  0.8222
  144MOL0     C19366  12.121   3.752   7.730  1.7104  0.2568  0.3047
  144MOL0     C19367  12.242   3.690   7.792  0.0824  0.0421 -0.1486
  144MOL0     C19368  12.368   3.775   7.741 -0.3184  0.6107  0.7064
  144MOL0     C19369  12.486   3.733   7.811  0.6053 -0.0206 -0.4204
  144MOL0     C19370  12.588   3.699   7.865  0.2047 -0.2511  0.6175
  144MOL0     C19371  11.727   3.797   7.976  0.8138 -0.2179 -0.4441
  144MOL0     C19372  11.598   3.863   7.973 -0.2879  0.2717  0.0301
  144MOL0     H19373  11.391   4.328   8.050 -0.0969 -1.8604  0.3216
  144MOL0     H19374  11.197   4.475   8.067 -2.9010 -0.6820 -0.1211
  144MOL0     H19375  10.893   4.453   8.050 -0.5701 -1.1607 -1.9548
  144MOL0     H19376  11.008   4.587   8.066 -1.3171  2.8074 -2.1709
  144MOL0     H19377  10.887   4.718   7.917 -0.6512 -0.0672 -0.3506
  144MOL0     H19378  10.780   4.595   7.850 -0.1457  2.4406 -1.0924
  144MOL0     H19379  10.651   4.575   8.067 -0.1490 -0.0218  1.5254
  144MOL0     H19380  10.769   4.677   8.145  1.4881  0.6061 -1.1470
  144MOL0     H19381  10.703   4.864   7.987 -2.3281  2.2758  1.1448
  144MOL0     H19382  10.603   4.747   7.894  2.3639  0.4494 -1.3681
  144MOL0     H19383  10.468   4.702   8.075 -0.0312  0.1816 -0.1741
  144MOL0     H19384  10.559   4.792   8.191  0.8104  0.1961 -0.7136
  144MOL0     H19385  10.510   4.995   8.039  0.9894 -0.3602  0.0208
  144MOL0     H19386  10.388   4.890   7.952 -1.3541  3.6696  0.9319
  144MOL0     H19387  10.261   4.849   8.144 -1.4816  0.7649  2.3481
  144MOL0     H19388  10.384   4.924   8.253  0.3377 -0.9955 -0.4759
  144MOL0     H19389  10.187   5.073   8.224  0.9973 -0.8914  0.9735
  144MOL0     H19390  10.222   5.072   8.052 -0.1856 -1.8735 -0.2662
  144MOL0     H19391  10.297   5.282   7.982 -0.4315 -1.3719  1.0410
  144MOL0     H19392  10.433   5.526   7.968 -0.8730  0.1926  0.0559
  144MOL0     H19393  10.483   5.581   8.128  1.1920 -0.5340  1.4458
  144MOL0     H19394  10.697   5.480   8.105  1.8089 -1.8175 -0.7513
  144MOL0     H19395  10.654   5.592   7.957  1.1877 -0.7572  0.8326
  144MOL0     H19396  10.749   5.397   7.845  2.3750 -1.9978  1.3457
  144MOL0     H19397  10.582   5.343   7.865  1.6034 -4.7348  0.4793
  144MOL0     H19398  10.697   5.168   7.946 -0.9416  1.1222  0.6630
  144MOL0     H19399  10.702   5.238   8.097  0.4541 -0.8489  0.4762
  144MOL0     H19400  10.816   5.317   8.268  0.7401  0.2749  1.7919
  144MOL0     H19401  10.975   5.233   8.547 -0.8961 -1.8440 -2.3896
  144MOL0     H19402  10.968   5.419   8.509 -0.3550 -0.5114  0.3173
  144MOL0     H19403  10.831   5.307   8.477 -1.1222 -1.0324 -0.4412
  144MOL0     H19404  11.464   5.313   8.629  0.3537  0.2868 -2.4582
  144MOL0     H19405  11.598   5.204   8.786  3.0440 -0.4408 -0.0046
  144MOL0     H19406  11.600   4.758   8.805  2.3161 -3.6831 -2.4270
  144MOL0     H19407  11.718   4.779   8.684  2.6356 -1.2082  0.3731
  144MOL0     H19408  11.857   4.690   8.849  1.9512  0.8288 -0.1140
  144MOL0     H19409  11.891   4.853   8.861 -0.8742 -0.7438 -1.3054
  144MOL0     H19410  11.710   4.706   9.051  0.4966  0.3215 -0.7752
  144MOL0     H19411  11.699   4.876   9.036  1.3272  2.8860 -0.6202
  144MOL0     H19412  11.973   4.731   9.108 -0.9029 -0.8492  1.6295
  144MOL0     H19413  11.938   4.909   9.113 -1.6175  0.3820  0.4052
  144MOL0     H19414  11.818   4.679   9.291 -0.1160 -0.8647 -0.3663
  144MOL0     H19415  11.752   4.838   9.279 -0.4067 -1.5287  2.7687
  144MOL0     H19416  12.020   4.728   9.379 -1.6003 -1.0739  3.3945
  144MOL0     H19417  12.006   4.898   9.341  0.1029 -0.8672 -2.2129
  144MOL0     H19418  11.879   4.735   9.557  0.9982 -0.4462 -1.8653
  144MOL0     H19419  11.830   4.918   9.538  0.0122  0.6356  2.4508
  144MOL0     H19420  11.979   4.903   9.709  1.7636  0.0981  0.4253
  144MOL0     H19421  12.062   4.979   9.586 -0.4856  0.1446  1.4642
  144MOL0     H19422  11.582   4.846   8.549 -0.3147  0.4495 -0.3953
  144MOL0     H19423  11.470   4.965   8.374 -0.7388  1.1559  0.2676
  144MOL0     H19424  11.290   5.254   8.161  1.2804 -4.6448  3.2646
  144MOL0     H19425  11.136   5.254   7.987  2.1184  0.9085  0.9388
  144MOL0     H19426  11.040   4.282   7.718  0.1599  1.0287  0.2307
  144MOL0     H19427  11.252   4.152   7.698 -1.2727 -0.3959 -1.1264
  144MOL0     H19428  11.700   4.119   7.775 -2.5278  0.9198  1.1025
  144MOL0     H19429  11.890   3.981   7.747  0.3463  0.5988  1.3366
  144MOL0     H19430  12.008   3.570   7.798 -2.9312 -1.6885 -2.1132
  144MOL0     H19431  11.906   3.671   7.714  0.2382  1.3492  0.5948
  144MOL0     H19432  12.115   3.860   7.749  0.6250  0.0065  1.5517
  144MOL0     H19433  12.123   3.735   7.622  0.0264 -0.4185  0.3453
  144MOL0     H19434  12.248   3.583   7.775 -1.6282  0.0236 -0.7927
  144MOL0     H19435  12.222   3.687   7.900 -1.4428  1.4960 -0.3441
  144MOL0     H19436  12.352   3.882   7.757  2.5704  1.2055  0.2522
  144MOL0     H19437  12.377   3.756   7.634 -3.8059  2.5976 -0.0828
  144MOL0     H19438  12.672   3.649   7.910  1.2584 -2.1945 -3.0696
  144MOL0     H19439  11.736   3.712   8.043 -1.2167  0.0555  0.2401
  144MOL0     H19440  11.515   3.817   8.026 -0.4492 -0.4630 -0.8321
  145MOL0     O19441   1.773   3.598   1.896 -0.9160  0.5189  0.2635
  145MOL0     C19442   1.847   3.694   1.849  0.8306  0.2584 -0.1841
  145MOL0     O19443   1.850   3.741   1.725  0.1326  0.7402  0.0148
  145MOL0     C19444   1.741   3.703   1.649 -0.4767 -0.2156 -0.6479
  145MOL0     C19445   1.630   3.789   1.646 -0.4744 -0.0552  0.4872
  145MOL0     C19446   1.522   3.759   1.567  0.7592 -0.3604  0.4184
  145MOL0     C19447   1.518   3.643   1.475 -0.4984  0.5884 -0.4538
  145MOL0     O19448   1.418   3.625   1.379  0.2516 -1.1715 -0.4614
  145MOL0     C19449   1.373   3.495   1.338  0.2640  0.3007 -0.8216
  145MOL0     C19450   1.282   3.419   1.435 -0.6326 -0.0936 -1.2447
  145MOL0     C19451   1.352   3.339   1.551 -0.9108  0.0108 -0.6738
  145MOL0     C19452   1.421   3.209   1.499 -0.4144  0.5914 -0.3209
  145MOL0     C19453   1.501   3.139   1.598 -0.5697 -0.0728  0.0881
  145MOL0     C19454   1.576   3.021   1.537  0.2441 -0.7693  0.6676
  145MOL0     C19455   1.678   2.951   1.631  0.7803 -0.2429 -0.3274
  145MOL0     C19456   1.809   3.034   1.651  0.3422 -0.3728  0.4032
  145MOL0     N19457   1.861   3.097   1.526 -0.5961  0.7586  0.6446
  145MOL0     C19458   1.885   3.230   1.515 -0.1698  0.0726 -0.3043
  145MOL0     C19459   1.928   3.253   1.392 -0.2210 -1.0338 -0.1198
  145MOL0     C19460   1.990   3.379   1.321 -0.6415  0.6760  0.0952
  145MOL0     C19461   1.898   3.488   1.277  0.0922 -0.8576  0.7359
  145MOL0     C19462   1.953   3.587   1.164 -0.1602  0.1385 -0.7711
  145MOL0     C19463   2.024   3.711   1.211 -0.9593  0.0765  0.1791
  145MOL0     O19464   1.952   3.811   1.285  0.5390 -0.6528  0.3997
  145MOL0     C19465   1.999   3.943   1.306 -0.0802  0.1751  0.4154
  145MOL0     C19466   1.899   4.044   1.324 -0.0172 -0.0294  0.1319
  145MOL0     C19467   1.943   4.174   1.357  0.0175  0.6281  0.1102
  145MOL0     C19468   1.848   4.266   1.407  0.1495  0.0574 -0.0790
  145MOL0     C19469   2.083   4.208   1.335 -0.2231 -0.0460 -0.2844
  145MOL0     C19470   2.138   4.343   1.363 -0.0676 -1.2603  0.2335
  145MOL0     O19471   2.274   4.347   1.374 -0.5487 -0.5583 -0.0197
  145MOL0     C19472   2.355   4.464   1.382  0.3114 -0.4847 -1.3382
  145MOL0     C19473   2.492   4.444   1.360 -0.2891 -0.7328  0.6177
  145MOL0     C19474   2.583   4.547   1.388  0.2740 -0.9941  0.6970
  145MOL0     C19475   2.546   4.678   1.420  0.5163 -0.8385  0.2045
  145MOL0     O19476   2.649   4.769   1.448 -0.3911  0.2874 -0.7850
  145MOL0     C19477   2.607   4.906   1.467 -0.0901 -0.9221  0.1291
  145MOL0     C19478   2.727   4.994   1.486 -0.4721  0.0208  0.1639
  145MOL0     C19479   2.838   4.980   1.376 -0.0855 -0.0761 -0.1332
  145MOL0     C19480   2.797   5.069   1.258  0.2734  0.3181 -0.3699
  145MOL0     C19481   2.900   5.074   1.140 -0.2997 -0.0975  0.5367
  145MOL0     C19482   2.857   4.979   1.023  0.1457  0.0441 -0.2081
  145MOL0     C19483   2.915   5.017   0.889 -0.5717  0.8483 -0.0201
  145MOL0     C19484   2.899   4.918   0.779  0.1301 -0.4743 -0.4851
  145MOL0    Cl19485   2.936   5.002   0.625  0.2088  0.2584 -0.0988
  145MOL0     C19486   2.411   4.699   1.445 -0.6944  0.1320  0.1046
  145MOL0     C19487   2.317   4.594   1.431 -0.3232 -0.1364  0.4980
  145MOL0     O19488   2.069   4.447   1.356 -0.9051  0.3752 -0.4302
  145MOL0     C19489   2.171   4.105   1.292 -0.3359  0.1484 -0.5352
  145MOL0     C19490   2.131   3.971   1.299 -0.2393 -0.6145  0.7921
  145MOL0     N19491   1.937   3.127   1.334  0.3628  0.2652 -0.1657
  145MOL0     N19492   1.904   3.032   1.418 -0.7064 -0.6717  0.3899
  145MOL0     C19493   1.630   3.544   1.493 -0.1508 -0.1538  0.7709
  145MOL0     C19494   1.734   3.581   1.583 -0.5221 -0.0098  0.2924
  145MOL0     C19495   1.916   3.783   1.945  0.5830 -0.0692 -0.5601
  145MOL0     C19496   1.970   3.736   2.069 -0.1133  0.2203 -0.0632
  145MOL0     C19497   2.044   3.820   2.160  0.9420  0.1260  1.1532
  145MOL0     C19498   2.083   3.945   2.120 -0.8186 -0.2056  0.3044
  145MOL0     O19499   2.166   4.015   2.198  0.4184  0.0260  0.2386
  145MOL0     C19500   2.249   4.110   2.137  0.4402  0.5290  0.2271
  145MOL0     C19501   2.390   4.120   2.202  0.7618 -0.3466 -0.3919
  145MOL0     C19502   2.477   3.999   2.188 -0.3440  0.0966  0.0430
  145MOL0     C19503   2.614   4.035   2.233  0.4359 -0.2723 -0.1177
  145MOL0     C19504   2.705   3.924   2.230 -0.0403  0.2476 -0.3191
  145MOL0     C19505   2.797   3.843   2.228  0.0414 -0.7569  0.6237
  145MOL0     C19506   2.030   3.997   2.001  0.5669 -0.6845 -0.0589
  145MOL0     C19507   1.938   3.924   1.916  0.6025  0.3846 -0.8859
  145MOL0     H19508   1.641   3.883   1.699 -0.2049  0.6517 -0.7742
  145MOL0     H19509   1.437   3.825   1.563 -0.6242 -1.9776  1.3828
  145MOL0     H19510   1.318   3.507   1.245 -2.4576 -1.5583  0.4113
  145MOL0     H19511   1.458   3.432   1.311  1.5216  0.7273  1.7686
  145MOL0     H19512   1.219   3.497   1.481  1.2004  2.2112 -2.4169
  145MOL0     H19513   1.206   3.355   1.390 -2.2674  0.6089  0.3686
  145MOL0     H19514   1.427   3.396   1.607 -1.1767 -1.8131  1.6913
  145MOL0     H19515   1.282   3.306   1.628  0.1711  0.5619  0.5829
  145MOL0     H19516   1.341   3.145   1.460 -1.9379 -0.4142  3.9292
  145MOL0     H19517   1.488   3.232   1.415 -2.6458  1.2716 -2.0162
  145MOL0     H19518   1.568   3.214   1.642 -2.8142  1.0172  1.8093
  145MOL0     H19519   1.439   3.107   1.682 -1.1242 -0.4419 -0.4606
  145MOL0     H19520   1.496   2.949   1.517 -0.7582  0.7275 -1.0409
  145MOL0     H19521   1.628   3.048   1.445  1.1302 -2.2990  0.6950
  145MOL0     H19522   1.637   2.941   1.731 -0.7937  1.5764 -0.7304
  145MOL0     H19523   1.705   2.847   1.607  1.3130 -0.9339  2.9057
  145MOL0     H19524   1.885   2.967   1.691 -0.1240 -0.8648  0.4752
  145MOL0     H19525   1.792   3.114   1.724 -2.5168 -0.1290 -0.4030
  145MOL0     H19526   1.871   3.295   1.600  0.4995  0.8539 -0.7793
  145MOL0     H19527   2.058   3.413   1.399 -0.6660 -0.2719  0.5541
  145MOL0     H19528   2.054   3.354   1.236  0.3344  1.8328  0.4648
  145MOL0     H19529   1.870   3.546   1.365 -1.1886 -1.0963  0.5066
  145MOL0     H19530   1.807   3.438   1.243  0.7979 -1.1559 -0.8319
  145MOL0     H19531   1.869   3.614   1.098 -0.3627  1.5927  0.0494
  145MOL0     H19532   2.018   3.528   1.098  1.1666 -0.0918  0.6859
  145MOL0     H19533   2.080   3.750   1.125  2.5849  0.7208  2.5390
  145MOL0     H19534   2.106   3.670   1.270  2.6324 -0.6934 -4.6977
  145MOL0     H19535   1.793   4.020   1.323  0.1171 -0.9103  2.0418
  145MOL0     H19536   1.802   4.319   1.323 -0.3985  0.3194  0.3718
  145MOL0     H19537   1.761   4.215   1.450  1.3399  0.1119  2.5859
  145MOL0     H19538   1.878   4.330   1.491 -0.9456 -1.0441  1.1947
  145MOL0     H19539   2.541   4.350   1.337  1.4934  0.5401 -1.2055
  145MOL0     H19540   2.689   4.528   1.379  0.1889 -1.4313  0.5929
  145MOL0     H19541   2.555   4.948   1.381 -1.4778  0.5109  1.5807
  145MOL0     H19542   2.534   4.919   1.548 -0.8814  1.9353 -0.9435
  145MOL0     H19543   2.693   5.096   1.501  2.9709  1.7269 -2.2675
  145MOL0     H19544   2.759   4.949   1.581 -0.6533 -4.0510 -1.4713
  145MOL0     H19545   2.861   4.876   1.351 -5.6267 -2.1975  2.0110
  145MOL0     H19546   2.932   5.027   1.404  1.1664 -2.1800 -0.5856
  145MOL0     H19547   2.700   5.041   1.215 -0.6988 -0.0320  1.9037
  145MOL0     H19548   2.773   5.170   1.292 -3.3322  0.7460 -3.5129
  145MOL0     H19549   3.000   5.067   1.183 -1.0135 -1.6535  2.0071
  145MOL0     H19550   2.885   5.177   1.107 -0.1217  0.1964  1.3455
  145MOL0     H19551   2.883   4.879   1.059  4.2772  1.2037  0.4534
  145MOL0     H19552   2.748   4.980   1.014  0.1325  1.8767 -0.1829
  145MOL0     H19553   3.021   5.044   0.896 -0.5614  1.2075 -1.3769
  145MOL0     H19554   2.862   5.103   0.847  0.3487  1.0244 -0.8498
  145MOL0     H19555   2.795   4.882   0.779  0.0257 -0.3055 -2.8409
  145MOL0     H19556   2.966   4.837   0.811  0.4033  0.1305  0.5142
  145MOL0     H19557   2.370   4.785   1.498 -1.9724  0.3779 -1.2134
  145MOL0     H19558   2.212   4.614   1.445  0.2537  2.5310  1.5876
  145MOL0     H19559   2.274   4.126   1.268  0.9180 -3.8658  0.5426
  145MOL0     H19560   2.202   3.889   1.298 -0.3629 -0.7394  1.7328
  145MOL0     H19561   1.647   3.461   1.426 -1.4850  0.5726 -0.5288
  145MOL0     H19562   1.823   3.523   1.604  1.2400  2.9084  1.5446
  145MOL0     H19563   1.942   3.635   2.099 -0.2118 -0.0776 -1.0850
  145MOL0     H19564   2.098   3.790   2.250  0.0896 -2.2715  0.9189
  145MOL0     H19565   2.263   4.079   2.033  1.0433  0.2940  0.3740
  145MOL0     H19566   2.207   4.210   2.145  0.4871  0.5896 -0.2609
  145MOL0     H19567   2.383   4.145   2.309 -1.3389 -0.2497 -0.5209
  145MOL0     H19568   2.437   4.205   2.151  2.0010 -0.1622  0.9804
  145MOL0     H19569   2.479   3.958   2.086  2.0348  0.6905 -0.2227
  145MOL0     H19570   2.436   3.922   2.254  1.1663 -1.8970 -1.1893
  145MOL0     H19571   2.606   4.065   2.337  2.4020 -0.6183  0.1745
  145MOL0     H19572   2.661   4.117   2.178  0.8335 -0.7884 -0.5596
  145MOL0     H19573   2.880   3.776   2.220 -0.4237 -1.2474 -0.2477
  145MOL0     H19574   2.042   4.102   1.979 -0.2771  0.0564  2.6184
  145MOL0     H19575   1.890   3.974   1.832 -2.0507  1.5048  1.1622
  146MOL0     O19576   5.544   3.442   0.249 -0.9821 -0.1540  0.5897
  146MOL0     C19577   5.588   3.319   0.253  0.9212 -0.2781 -0.3387
  146MOL0     O19578   5.510   3.204   0.232  0.1501 -0.6430 -1.0292
  146MOL0     C19579   5.382   3.225   0.191 -0.3385  0.1956  0.1445
  146MOL0     C19580   5.271   3.261   0.277 -1.1628  0.3794 -0.2072
  146MOL0     C19581   5.144   3.263   0.229  0.7778  0.1762 -0.0687
  146MOL0     C19582   5.114   3.226   0.095  0.2207 -0.3639 -1.0921
  146MOL0     O19583   4.986   3.229   0.050  0.6567 -0.1678  0.7700
  146MOL0     C19584   4.920   3.356   0.067  0.0253  0.1269  0.1443
  146MOL0     C19585   4.770   3.344   0.010 -0.1425  0.5430  0.5462
  146MOL0     C19586   4.783   3.330  -0.146  0.8468  0.4132  0.0739
  146MOL0     C19587   4.651   3.374  -0.205  0.6555 -0.8344  0.3257
  146MOL0     C19588   4.525   3.314  -0.137 -0.0440  0.3808 -0.2364
  146MOL0     C19589   4.397   3.353  -0.202 -0.1213  0.1783  0.6717
  146MOL0     C19590   4.406   3.503  -0.243  0.4322  0.6127  0.0906
  146MOL0     C19591   4.268   3.558  -0.273  0.1889  0.4358 -0.2014
  146MOL0     N19592   4.188   3.496  -0.377 -0.3253  0.4293  0.2796
  146MOL0     C19593   4.076   3.425  -0.361 -0.4013 -0.8538  0.0433
  146MOL0     C19594   4.015   3.415  -0.494 -0.2264 -0.9872 -0.2553
  146MOL0     C19595   3.887   3.348  -0.526  0.2520 -0.4120 -0.3996
  146MOL0     C19596   3.782   3.447  -0.572  0.3202 -0.7512 -0.2406
  146MOL0     C19597   3.646   3.400  -0.612  0.3875 -0.0427  0.5759
  146MOL0     C19598   3.563   3.331  -0.503  0.1984  0.1655 -0.7239
  146MOL0     O19599   3.464   3.249  -0.573  0.4163 -0.1611 -0.3142
  146MOL0     C19600   3.337   3.295  -0.596 -0.2802 -0.4613 -0.5889
  146MOL0     C19601   3.233   3.206  -0.598  1.0326  0.4137  0.3492
  146MOL0     C19602   3.093   3.240  -0.616 -0.0029 -0.6093  0.4225
  146MOL0     C19603   2.993   3.131  -0.594 -0.0181  0.0231  0.1392
  146MOL0     C19604   3.065   3.376  -0.647 -0.2699  0.7116 -0.5066
  146MOL0     C19605   2.924   3.421  -0.680 -0.4367  0.3566 -0.7929
  146MOL0     O19606   2.896   3.554  -0.659 -0.0658 -0.0415 -0.4725
  146MOL0     C19607   2.764   3.591  -0.675  0.7989 -0.0491  0.0381
  146MOL0     C19608   2.655   3.531  -0.603  1.0175 -0.4378 -0.0727
  146MOL0     C19609   2.525   3.583  -0.621 -0.4495  0.1951 -0.4454
  146MOL0     C19610   2.499   3.693  -0.708  0.6631  0.1630 -0.4413
  146MOL0     O19611   2.367   3.739  -0.711 -0.6097 -0.3587  0.6795
  146MOL0     C19612   2.342   3.823  -0.822  0.6179 -0.3189 -0.9527
  146MOL0     C19613   2.190   3.824  -0.808  0.8370  0.1973  0.4035
  146MOL0     C19614   2.117   3.905  -0.925 -0.7712 -0.9949 -0.8606
  146MOL0     C19615   1.968   3.887  -0.922  0.0495 -0.2628 -0.7051
  146MOL0     C19616   1.887   3.996  -0.992  0.2661 -0.2027  0.9127
  146MOL0     C19617   1.736   3.982  -0.966  0.2486 -0.6847  0.5967
  146MOL0     C19618   1.653   4.086  -1.044  0.1653  0.3833 -0.1986
  146MOL0     C19619   1.497   4.068  -1.045 -0.4750  0.7296  0.5346
  146MOL0    Cl19620   1.427   4.158  -1.170  0.1638 -0.1810  0.1443
  146MOL0     C19621   2.606   3.739  -0.772  0.3182 -0.8031  0.2251
  146MOL0     C19622   2.734   3.690  -0.771 -0.4042 -0.0793  0.7439
  146MOL0     O19623   2.845   3.333  -0.726  0.1813 -0.5882 -0.5209
  146MOL0     C19624   3.166   3.475  -0.640 -0.7378  0.4281  0.3910
  146MOL0     C19625   3.303   3.438  -0.598  0.7216  0.1859  0.9225
  146MOL0     N19626   4.100   3.478  -0.582  0.8353 -0.9064 -0.2815
  146MOL0     N19627   4.203   3.520  -0.515 -0.0646  0.2146  0.0833
  146MOL0     C19628   5.222   3.192   0.012 -0.2363 -0.5134  0.4185
  146MOL0     C19629   5.354   3.193   0.065 -0.3720  0.6062  0.6942
  146MOL0     C19630   5.727   3.293   0.287  0.5415  1.2757 -0.5656
  146MOL0     C19631   5.810   3.393   0.323 -0.3069 -0.3794  0.1056
  146MOL0     C19632   5.946   3.369   0.361  1.4080 -0.2569  0.0870
  146MOL0     C19633   5.992   3.240   0.381 -0.0037 -0.5649  0.3282
  146MOL0     O19634   6.120   3.205   0.420 -0.0578  0.2212 -0.0679
  146MOL0     C19635   6.202   3.303   0.473 -0.0182 -0.4238 -0.3504
  146MOL0     C19636   6.333   3.222   0.503 -0.3018 -0.7583  0.5623
  146MOL0     C19637   6.318   3.117   0.612  0.4228 -0.4403  0.4469
  146MOL0     C19638   6.445   3.045   0.634 -1.5880  0.2034  0.1548
  146MOL0     C19639   6.428   2.948   0.741 -0.2482 -0.0024  0.3467
  146MOL0     C19640   6.428   2.869   0.836  0.2165 -0.6105  0.1118
  146MOL0     C19641   5.906   3.133   0.367  1.1738  0.2630 -0.1474
  146MOL0     C19642   5.776   3.160   0.316  0.5593  0.6275 -0.1297
  146MOL0     H19643   5.302   3.257   0.381  0.0275  0.2838 -0.5437
  146MOL0     H19644   5.061   3.284   0.297 -0.3033 -1.7951 -0.7269
  146MOL0     H19645   4.901   3.376   0.173  0.1273  2.4690 -0.2376
  146MOL0     H19646   4.975   3.441   0.025 -0.0940  1.8010  3.1220
  146MOL0     H19647   4.729   3.246   0.036  1.8917 -0.2830  0.7869
  146MOL0     H19648   4.694   3.418   0.037 -0.0175  1.2183 -0.8490
  146MOL0     H19649   4.873   3.384  -0.177  2.7336 -0.5700  3.3622
  146MOL0     H19650   4.798   3.224  -0.170  2.1645  1.0275 -2.0063
  146MOL0     H19651   4.638   3.483  -0.209 -3.6577 -1.1956 -0.5834
  146MOL0     H19652   4.659   3.346  -0.311 -0.8809  0.9137 -0.3111
  146MOL0     H19653   4.532   3.204  -0.139  0.5053  0.4042  0.0508
  146MOL0     H19654   4.514   3.336  -0.030  1.4367  2.7672 -0.5128
  146MOL0     H19655   4.380   3.289  -0.289 -0.1210 -0.4241  1.1095
  146MOL0     H19656   4.314   3.342  -0.132 -1.6597 -1.7965 -1.3006
  146MOL0     H19657   4.458   3.556  -0.163  2.2270 -0.2170 -0.4781
  146MOL0     H19658   4.454   3.508  -0.341 -1.1656 -1.0526 -0.8522
  146MOL0     H19659   4.285   3.665  -0.288 -0.3301  0.9452  2.3700
  146MOL0     H19660   4.204   3.548  -0.185 -0.4176 -1.6240 -0.8210
  146MOL0     H19661   4.032   3.384  -0.271 -2.2821  1.3758  0.2434
  146MOL0     H19662   3.905   3.263  -0.593  0.2413 -0.0115 -0.9132
  146MOL0     H19663   3.851   3.300  -0.435 -1.0720 -0.1668 -0.7836
  146MOL0     H19664   3.823   3.507  -0.654  2.1562 -0.7944  0.6022
  146MOL0     H19665   3.763   3.519  -0.492 -1.3021 -0.0213 -1.2216
  146MOL0     H19666   3.664   3.326  -0.691  0.8756  0.7253 -0.0460
  146MOL0     H19667   3.587   3.482  -0.653 -0.0207  0.5072  2.1915
  146MOL0     H19668   3.526   3.403  -0.430 -0.0254 -1.2412  0.6095
  146MOL0     H19669   3.630   3.259  -0.453 -0.3795 -0.3016 -0.6149
  146MOL0     H19670   3.257   3.103  -0.572 -1.4148 -0.3734 -0.1856
  146MOL0     H19671   2.895   3.171  -0.566  0.4939 -0.0589  2.2249
  146MOL0     H19672   2.997   3.066  -0.681  0.6129 -0.5188  0.5621
  146MOL0     H19673   3.029   3.073  -0.508 -0.5488 -0.8841 -0.2386
  146MOL0     H19674   2.685   3.459  -0.527  1.8317  0.3426  0.3679
  146MOL0     H19675   2.435   3.538  -0.578 -0.0771  0.6651  0.8806
  146MOL0     H19676   2.384   3.923  -0.808 -3.8401  1.9534 -1.9489
  146MOL0     H19677   2.373   3.789  -0.922 -0.3730  1.0405 -1.7584
  146MOL0     H19678   2.173   3.717  -0.823  2.0137 -0.3988  2.8148
  146MOL0     H19679   2.153   3.856  -0.710 -1.3771 -0.1822 -0.2505
  146MOL0     H19680   2.154   3.877  -1.024 -2.2042 -0.4479 -1.5804
  146MOL0     H19681   2.136   4.010  -0.904 -1.0957 -1.1884  0.5351
  146MOL0     H19682   1.934   3.795  -0.972 -1.4285 -2.1553  3.3724
  146MOL0     H19683   1.937   3.878  -0.818  1.6421  0.1893 -0.1606
  146MOL0     H19684   1.904   3.981  -1.099  2.1902  2.1701  0.8215
  146MOL0     H19685   1.915   4.097  -0.962  0.4979 -0.1815  0.6260
  146MOL0     H19686   1.707   3.879  -0.991  2.5349 -1.6320  1.5808
  146MOL0     H19687   1.718   4.000  -0.860 -3.0929  3.4011 -0.3731
  146MOL0     H19688   1.684   4.081  -1.149  0.6869 -1.9266  0.0175
  146MOL0     H19689   1.668   4.189  -1.009  1.9603  1.1516 -2.8713
  146MOL0     H19690   1.448   4.103  -0.954  0.2995  0.2742  1.1361
  146MOL0     H19691   1.486   3.960  -1.053 -1.1431  0.7711  0.7730
  146MOL0     H19692   2.597   3.831  -0.829  1.4233  0.8606  2.5710
  146MOL0     H19693   2.804   3.750  -0.827 -1.6010  1.4668  0.8532
  146MOL0     H19694   3.137   3.578  -0.653  1.0968  0.8920 -0.2518
  146MOL0     H19695   3.374   3.516  -0.574  0.9845  0.0729  0.5287
  146MOL0     H19696   5.211   3.164  -0.092 -2.0279 -2.4004  1.0549
  146MOL0     H19697   5.440   3.155   0.010 -3.0830 -1.9401 -2.1239
  146MOL0     H19698   5.785   3.498   0.315  1.7067  0.1439  0.2964
  146MOL0     H19699   6.011   3.455   0.367 -0.3851  1.3824 -1.9864
  146MOL0     H19700   6.219   3.384   0.400  1.3215 -0.8710 -0.5631
  146MOL0     H19701   6.155   3.347   0.562 -1.6760 -0.8700 -0.9675
  146MOL0     H19702   6.405   3.299   0.534  0.5003 -1.7929  1.3106
  146MOL0     H19703   6.368   3.180   0.408  0.9492  1.5173 -0.0761
  146MOL0     H19704   6.244   3.040   0.587 -0.8047  1.3417 -1.7023
  146MOL0     H19705   6.278   3.173   0.697  0.2262 -0.9377  0.6873
  146MOL0     H19706   6.522   3.113   0.673  0.7691 -2.7065  0.9510
  146MOL0     H19707   6.482   2.992   0.546  0.7484 -0.5010  1.4499
  146MOL0     H19708   6.420   2.800   0.918  0.3549 -0.6270  0.1110
  146MOL0     H19709   5.928   3.037   0.412 -1.0046  0.5668  1.7342
  146MOL0     H19710   5.708   3.078   0.296 -0.4137  1.6100 -1.0095
  147MOL0     O19711  10.067   7.875  11.336  0.6116  0.9475 -0.2985
  147MOL0     C19712  10.103   7.845  11.448 -0.4441  0.3898  0.5096
  147MOL0     O19713  10.042   7.773  11.546 -0.0433  0.3900 -1.1137
  147MOL0     C19714   9.915   7.741  11.532 -0.0599 -0.6177  0.0432
  147MOL0     C19715   9.813   7.839  11.522 -0.4743 -0.0840  0.3656
  147MOL0     C19716   9.682   7.797  11.503 -0.4478 -0.6002  0.3734
  147MOL0     C19717   9.650   7.659  11.486  1.0515 -0.5829  0.8945
  147MOL0     O19718   9.521   7.623  11.438  0.0851  0.0412  0.4034
  147MOL0     C19719   9.447   7.524  11.498 -0.4843 -1.1938 -0.1681
  147MOL0     C19720   9.395   7.555  11.640 -0.5122  0.1429 -0.1225
  147MOL0     C19721   9.321   7.442  11.709 -0.8041  0.7332 -0.1113
  147MOL0     C19722   9.222   7.385  11.613  0.0776  0.2188  0.4710
  147MOL0     C19723   9.141   7.273  11.688  0.2905  0.4973  0.6652
  147MOL0     C19724   9.076   7.168  11.596 -0.0603 -0.5606 -0.1039
  147MOL0     C19725   8.957   7.203  11.511 -0.5585 -0.4750  0.1192
  147MOL0     C19726   8.895   7.075  11.449  0.2606 -0.3436  0.0957
  147MOL0     N19727   8.830   7.120  11.325  0.1600 -1.0064 -0.4872
  147MOL0     C19728   8.714   7.189  11.315 -0.0269 -0.0057  0.6279
  147MOL0     C19729   8.698   7.202  11.179  1.0609 -0.9939 -0.3923
  147MOL0     C19730   8.574   7.255  11.125  0.3773 -0.4370 -0.6825
  147MOL0     C19731   8.520   7.181  11.006 -0.4047  0.2102 -0.5244
  147MOL0     C19732   8.371   7.155  11.017 -0.3264 -0.0342 -0.2569
  147MOL0     C19733   8.333   7.036  11.108 -0.1042  0.1173  0.2421
  147MOL0     O19734   8.192   7.017  11.113  0.2132  0.0289  0.7361
  147MOL0     C19735   8.127   6.977  11.003 -0.5602 -0.4766  0.3463
  147MOL0     C19736   8.172   6.907  10.885 -0.8351  0.1155 -0.1503
  147MOL0     C19737   8.094   6.880  10.773  1.1996 -0.4722 -0.3702
  147MOL0     C19738   8.166   6.796  10.670 -0.8531 -0.1124  0.1511
  147MOL0     C19739   7.952   6.909  10.785 -0.3708  0.3575 -0.6969
  147MOL0     C19740   7.850   6.847  10.692 -0.3717  0.1777  0.0568
  147MOL0     O19741   7.880   6.767  10.587 -0.2629  0.2164  0.6761
  147MOL0     C19742   7.775   6.691  10.528  0.2866 -0.6014  1.1064
  147MOL0     C19743   7.763   6.547  10.520 -0.8436  0.0203 -0.4943
  147MOL0     C19744   7.646   6.479  10.475  0.6466 -0.3173  0.3946
  147MOL0     C19745   7.538   6.544  10.427 -1.0951 -0.3850 -0.6213
  147MOL0     O19746   7.426   6.481  10.371 -0.1457 -0.6646 -0.3212
  147MOL0     C19747   7.306   6.493  10.451 -0.5688  0.2721  0.2426
  147MOL0     C19748   7.225   6.361  10.443 -0.2930  0.2387 -0.2903
  147MOL0     C19749   7.307   6.245  10.513  0.0565  0.6178 -0.2084
  147MOL0     C19750   7.275   6.106  10.467 -0.3593  0.2554 -0.7244
  147MOL0     C19751   7.342   6.095  10.330 -0.4560  0.0874  0.3234
  147MOL0     C19752   7.325   5.943  10.285  0.8992 -0.1713 -0.1777
  147MOL0     C19753   7.387   5.923  10.146  0.2168  0.4520 -0.6793
  147MOL0     C19754   7.543   5.935  10.145 -0.7046 -0.2133 -0.3747
  147MOL0    Cl19755   7.594   5.891   9.979 -0.1895  0.1755  0.1715
  147MOL0     C19756   7.554   6.681  10.413 -0.4702 -0.3402 -0.8220
  147MOL0     C19757   7.670   6.754  10.461 -0.6622  0.9081 -0.0187
  147MOL0     O19758   7.739   6.880  10.715  0.4960 -0.5766 -0.1799
  147MOL0     C19759   7.909   6.983  10.893 -0.3266 -0.7585 -0.8778
  147MOL0     C19760   7.998   7.020  10.999 -0.5930  0.2253  0.5841
  147MOL0     N19761   8.799   7.131  11.113  0.0086  0.0225 -0.5706
  147MOL0     N19762   8.879   7.084  11.208  0.0897 -0.7666  0.8435
  147MOL0     C19763   9.745   7.568  11.493 -1.2308 -0.3935  1.5897
  147MOL0     C19764   9.883   7.609  11.526  0.5568  0.1829  0.3324
  147MOL0     C19765  10.234   7.891  11.481 -0.0248  0.5906  0.4559
  147MOL0     C19766  10.322   7.931  11.377  0.2894 -0.4862 -0.0699
  147MOL0     C19767  10.455   7.957  11.404 -0.4350  0.2712  0.4020
  147MOL0     C19768  10.507   7.936  11.534 -0.8255  0.2599 -0.0009
  147MOL0     O19769  10.640   7.965  11.560 -0.9826  0.2489  0.5081
  147MOL0     C19770  10.725   7.861  11.612  0.3451  0.2763  0.0803
  147MOL0     C19771  10.865   7.874  11.560 -0.8185 -0.3773  0.2309
  147MOL0     C19772  10.957   7.782  11.647  0.3907  0.0853 -0.2261
  147MOL0     C19773  11.100   7.778  11.599  0.6758 -0.7160  0.1735
  147MOL0     C19774  11.164   7.909  11.614 -0.0602 -0.3439 -1.3286
  147MOL0     C19775  11.223   8.012  11.620  0.3816 -0.4669  0.9024
  147MOL0     C19776  10.427   7.895  11.634 -0.4351 -0.0232  0.2522
  147MOL0     C19777  10.286   7.872  11.610  0.0358 -0.5147 -0.2395
  147MOL0     H19778   9.842   7.943  11.515  1.3922 -0.3226  3.1579
  147MOL0     H19779   9.601   7.868  11.492 -0.1025 -0.1331  0.8253
  147MOL0     H19780   9.360   7.513  11.432 -0.8890 -0.4935  0.2347
  147MOL0     H19781   9.512   7.437  11.508  0.1037 -0.6143  1.1871
  147MOL0     H19782   9.484   7.572  11.701 -0.7821  2.5121 -0.3024
  147MOL0     H19783   9.337   7.648  11.641  1.8120  1.7282 -1.5010
  147MOL0     H19784   9.386   7.357  11.731 -0.5707  1.1907  1.0135
  147MOL0     H19785   9.279   7.482  11.802 -1.6960 -0.1341 -0.1168
  147MOL0     H19786   9.156   7.467  11.584  0.5837 -0.1219 -1.8441
  147MOL0     H19787   9.267   7.335  11.527 -0.7150  2.2515 -1.2099
  147MOL0     H19788   9.201   7.225  11.765  0.8336  1.2245  0.7061
  147MOL0     H19789   9.064   7.314  11.754 -0.7807 -1.5184  0.7287
  147MOL0     H19790   9.153   7.118  11.536 -1.5009 -2.4105 -0.5030
  147MOL0     H19791   9.052   7.087  11.665  1.3161 -1.2711 -0.4035
  147MOL0     H19792   8.883   7.266  11.561  0.3164  0.5550  0.1393
  147MOL0     H19793   9.009   7.247  11.425  0.0577  0.1910  0.8130
  147MOL0     H19794   8.818   7.048  11.522 -0.5021 -1.3850 -1.0522
  147MOL0     H19795   8.963   6.993  11.426  2.5245  0.9592  1.7823
  147MOL0     H19796   8.643   7.223  11.391 -2.6180 -1.0822 -1.1784
  147MOL0     H19797   8.499   7.244  11.204  0.5559  0.6668 -0.3267
  147MOL0     H19798   8.582   7.362  11.104 -6.0507  0.5147 -0.2645
  147MOL0     H19799   8.570   7.084  11.001 -1.4277 -0.5413  2.1691
  147MOL0     H19800   8.547   7.239  10.917  0.0938  1.0898  0.1920
  147MOL0     H19801   8.340   7.126  10.916  1.7282 -2.2057 -0.3271
  147MOL0     H19802   8.313   7.246  11.038 -0.3598 -0.0067 -0.4698
  147MOL0     H19803   8.364   7.044  11.212 -3.4536 -2.0825  1.6018
  147MOL0     H19804   8.395   6.950  11.080  1.9819  1.8984 -0.8903
  147MOL0     H19805   8.272   6.865  10.892 -1.0660 -0.1831  1.5624
  147MOL0     H19806   8.154   6.849  10.575 -0.0041  0.3148  0.2740
  147MOL0     H19807   8.272   6.793  10.698 -0.5743 -0.2406 -0.8751
  147MOL0     H19808   8.132   6.692  10.672 -1.2170 -0.0449  3.3737
  147MOL0     H19809   7.846   6.490  10.559 -1.5975 -0.5430  0.3126
  147MOL0     H19810   7.635   6.371  10.482 -0.2296 -0.2644 -0.0961
  147MOL0     H19811   7.331   6.507  10.556 -2.2881 -1.1893  0.9014
  147MOL0     H19812   7.243   6.573  10.410 -2.1208 -1.4918 -1.0554
  147MOL0     H19813   7.139   6.382  10.507  1.7744  1.1149  2.3961
  147MOL0     H19814   7.205   6.337  10.338  0.9010  0.6529 -0.6277
  147MOL0     H19815   7.273   6.249  10.617 -0.6508  1.6133 -0.4616
  147MOL0     H19816   7.416   6.255  10.519  0.2255  0.6003 -2.5773
  147MOL0     H19817   7.312   6.028  10.535  0.1599  0.8885 -0.2709
  147MOL0     H19818   7.168   6.081  10.470  0.1219 -1.9812  0.7950
  147MOL0     H19819   7.447   6.123  10.341 -0.6905  1.0477  0.1685
  147MOL0     H19820   7.294   6.160  10.256  1.1235  2.8298  1.5568
  147MOL0     H19821   7.368   5.872  10.357 -0.4248 -0.6426  0.1853
  147MOL0     H19822   7.220   5.912  10.281  0.6060  0.5933  0.9348
  147MOL0     H19823   7.346   6.009  10.093 -2.2487  0.2942  0.8270
  147MOL0     H19824   7.364   5.825  10.102  0.2666 -0.3430  0.9864
  147MOL0     H19825   7.595   5.872  10.218  1.9120 -0.2950 -2.1672
  147MOL0     H19826   7.587   6.034  10.158 -0.9604  0.3548 -3.1365
  147MOL0     H19827   7.467   6.732  10.372  1.7819  2.3569 -2.5467
  147MOL0     H19828   7.668   6.862  10.458  1.1801  0.9763  0.1178
  147MOL0     H19829   7.804   7.007  10.907  0.2142  0.9394  0.7621
  147MOL0     H19830   7.959   7.088  11.074 -0.0475 -1.0544  2.0852
  147MOL0     H19831   9.716   7.465  11.471 -0.1499 -0.2365 -0.8368
  147MOL0     H19832   9.966   7.542  11.548  0.5076  1.2415  4.3721
  147MOL0     H19833  10.299   7.939  11.271  2.0861 -0.1941 -0.4765
  147MOL0     H19834  10.528   7.980  11.328 -0.9606 -2.8691 -1.2315
  147MOL0     H19835  10.731   7.868  11.721 -0.9510  1.6121  0.1020
  147MOL0     H19836  10.675   7.765  11.594  1.8195 -0.7362  1.1703
  147MOL0     H19837  10.901   7.977  11.563  0.0267 -0.5281 -2.1279
  147MOL0     H19838  10.865   7.839  11.456  0.1032  5.0947 -1.9621
  147MOL0     H19839  10.906   7.686  11.640 -4.1804  2.3450 -3.2171
  147MOL0     H19840  10.953   7.814  11.752 -1.9728 -0.1633 -0.1951
  147MOL0     H19841  11.085   7.755  11.493 -2.0729 -2.2461  0.7806
  147MOL0     H19842  11.163   7.703  11.648 -1.1162 -1.9812  0.6303
  147MOL0     H19843  11.271   8.107  11.625 -1.5998  0.4983  3.7321
  147MOL0     H19844  10.474   7.873  11.729  0.3304  0.1518 -0.0848
  147MOL0     H19845  10.221   7.840  11.691 -1.0809  0.8185 -0.5647
  148MOL0     O19846   0.299   6.914   3.942  0.0873 -0.8598  0.1687
  148MOL0     C19847   0.369   6.831   3.992  0.5013  0.5346  0.4264
  148MOL0     O19848   0.329   6.733   4.085 -0.0588 -0.5559  0.6314
  148MOL0     C19849   0.220   6.762   4.162 -0.5278 -0.6133 -0.6335
  148MOL0     C19850   0.165   6.886   4.207 -0.5370 -0.1988 -0.4928
  148MOL0     C19851   0.078   6.891   4.319 -0.7988  1.0062  0.0918
  148MOL0     C19852   0.031   6.767   4.372  0.3954 -0.3552 -0.3443
  148MOL0     O19853  -0.059   6.793   4.478 -0.7865  1.0104 -0.3105
  148MOL0     C19854  -0.174   6.696   4.485  0.0921  0.1019  0.5553
  148MOL0     C19855  -0.272   6.736   4.598 -0.4362 -0.1794  0.4932
  148MOL0     C19856  -0.285   6.888   4.611 -0.2624 -0.3866  0.0919
  148MOL0     C19857  -0.360   6.917   4.742 -0.4881  0.7472  0.1888
  148MOL0     C19858  -0.389   7.069   4.770 -0.2823  0.3183 -0.4461
  148MOL0     C19859  -0.482   7.096   4.885  0.4069 -0.1669  0.2634
  148MOL0     C19860  -0.620   7.030   4.868  0.9936 -0.0216 -0.6726
  148MOL0     C19861  -0.731   7.129   4.813  0.3431 -0.5446  0.1479
  148MOL0     N19862  -0.871   7.066   4.805 -0.1716  0.8211 -0.0257
  148MOL0     C19863  -0.911   6.935   4.769 -0.2635 -0.4138  0.1938
  148MOL0     C19864  -1.039   6.919   4.814  0.0694 -0.5386 -0.7768
  148MOL0     C19865  -1.124   6.789   4.816 -0.5249 -0.3445 -0.3088
  148MOL0     C19866  -1.063   6.696   4.916 -0.1593  0.2870 -0.4436
  148MOL0     C19867  -1.158   6.595   4.966  0.1038  0.9055  0.5903
  148MOL0     C19868  -1.204   6.503   4.852  0.3645 -0.1517 -0.4637
  148MOL0     O19869  -1.274   6.391   4.907 -0.5320 -0.6316 -0.5352
  148MOL0     C19870  -1.406   6.391   4.902 -0.4183 -0.1821  0.2929
  148MOL0     C19871  -1.479   6.511   4.915  0.7847 -0.1950  0.5351
  148MOL0     C19872  -1.623   6.489   4.928 -0.2850 -0.2857 -0.2155
  148MOL0     C19873  -1.695   6.620   4.959 -0.8244  0.4433  0.9829
  148MOL0     C19874  -1.684   6.376   4.912 -0.3026  0.1030 -0.8764
  148MOL0     C19875  -1.835   6.351   4.902  0.7311 -1.7194  0.8411
  148MOL0     O19876  -1.862   6.239   4.853 -0.2344  0.2106  1.1783
  148MOL0     C19877  -1.979   6.169   4.892  0.3112  1.0575 -0.2675
  148MOL0     C19878  -2.037   6.083   4.799  0.1313  0.4652  0.5024
  148MOL0     C19879  -2.144   6.003   4.845  0.2806  0.4335  0.2991
  148MOL0     C19880  -2.197   6.014   4.974  0.8008 -0.9347 -0.0672
  148MOL0     O19881  -2.313   5.943   4.990  0.1073 -0.6866 -1.0584
  148MOL0     C19882  -2.397   5.977   5.103  0.2445  0.5137 -0.8489
  148MOL0     C19883  -2.536   5.918   5.094 -0.2044  0.8455 -0.9482
  148MOL0     C19884  -2.619   5.952   4.974 -0.7766  0.2692 -0.3807
  148MOL0     C19885  -2.757   5.873   4.994  0.0385  0.2060  0.4664
  148MOL0     C19886  -2.850   5.884   4.877  0.4699  0.7549  1.0962
  148MOL0     C19887  -2.910   6.022   4.857 -0.3514 -0.1792  0.2038
  148MOL0     C19888  -3.011   6.036   4.747  0.5969  0.1922 -0.6505
  148MOL0     C19889  -3.129   6.114   4.804  0.2604  0.0172  0.1313
  148MOL0    Cl19890  -3.079   6.277   4.829  0.5752 -0.1260  0.3633
  148MOL0     C19891  -2.136   6.085   5.068 -0.4527 -0.0276  0.8400
  148MOL0     C19892  -2.015   6.158   5.034  0.0264  0.9026  0.9776
  148MOL0     O19893  -1.918   6.425   4.954  0.0894  0.2199  0.3391
  148MOL0     C19894  -1.601   6.270   4.886 -0.1207  1.2331  0.1420
  148MOL0     C19895  -1.463   6.271   4.890  0.2459 -0.7905  0.6563
  148MOL0     N19896  -1.072   7.031   4.892  0.4745  0.1514 -0.1620
  148MOL0     N19897  -0.971   7.113   4.890 -0.4978  0.0920 -0.1849
  148MOL0     C19898   0.065   6.640   4.314 -0.4946 -0.5321  0.0429
  148MOL0     C19899   0.171   6.644   4.221 -0.6963 -0.2873 -0.3754
  148MOL0     C19900   0.508   6.835   3.941  0.2018 -0.2927  0.8060
  148MOL0     C19901   0.611   6.771   4.005 -0.0384 -0.2649  0.6547
  148MOL0     C19902   0.740   6.786   3.954 -0.0648 -0.3851  0.2713
  148MOL0     C19903   0.772   6.868   3.849  0.8710 -0.5836  0.3520
  148MOL0     O19904   0.901   6.897   3.812 -0.2367  0.1195  0.7080
  148MOL0     C19905   1.019   6.844   3.868 -0.6361 -0.3008  0.1831
  148MOL0     C19906   1.149   6.909   3.827  0.4814 -0.1476  0.3024
  148MOL0     C19907   1.131   7.050   3.773  0.1364 -0.0197  0.2388
  148MOL0     C19908   1.268   7.103   3.702  0.2886  0.0325  0.1116
  148MOL0     C19909   1.284   7.244   3.682  0.5923  0.5391  0.4403
  148MOL0     C19910   1.302   7.363   3.660  0.3739  0.4746  0.0276
  148MOL0     C19911   0.673   6.941   3.793  0.3651 -0.1727  0.2354
  148MOL0     C19912   0.544   6.926   3.843  0.2304  0.0508  0.7226
  148MOL0     H19913   0.215   6.979   4.186 -0.7288  0.5956  2.1201
  148MOL0     H19914   0.043   6.978   4.374  1.0883  1.6041  0.4375
  148MOL0     H19915  -0.229   6.695   4.391  1.7583  0.7308 -0.4738
  148MOL0     H19916  -0.145   6.593   4.506 -0.9918 -0.5243 -0.8637
  148MOL0     H19917  -0.375   6.709   4.570 -0.9116  1.7814  0.2228
  148MOL0     H19918  -0.247   6.690   4.694 -0.1224 -1.3271 -0.1157
  148MOL0     H19919  -0.189   6.939   4.621 -0.2902 -0.7115  2.4782
  148MOL0     H19920  -0.334   6.935   4.525  0.6878  2.0058  0.7949
  148MOL0     H19921  -0.454   6.861   4.738  0.0439 -0.1474 -0.0681
  148MOL0     H19922  -0.307   6.864   4.821  1.1138 -2.2209 -2.6099
  148MOL0     H19923  -0.297   7.122   4.797  0.2780 -2.2025  3.2247
  148MOL0     H19924  -0.433   7.118   4.682  2.1907  2.8256 -0.4393
  148MOL0     H19925  -0.429   7.049   4.969  1.3185  0.2284 -0.0695
  148MOL0     H19926  -0.487   7.205   4.891 -0.0247  0.0169 -2.3588
  148MOL0     H19927  -0.623   6.944   4.800 -2.5716  0.0003 -0.6990
  148MOL0     H19928  -0.650   6.998   4.969  0.7716 -0.4302 -0.8648
  148MOL0     H19929  -0.702   7.155   4.711  0.3748  1.0507  0.5453
  148MOL0     H19930  -0.732   7.221   4.871 -2.7030 -0.8538  0.7876
  148MOL0     H19931  -0.851   6.860   4.719 -0.4338 -0.4126 -0.0161
  148MOL0     H19932  -1.228   6.805   4.845 -0.5478 -1.4746  0.2988
  148MOL0     H19933  -1.122   6.752   4.714  0.4818 -2.5748  0.4575
  148MOL0     H19934  -1.025   6.746   5.006 -1.4129  0.8307 -0.1987
  148MOL0     H19935  -0.980   6.631   4.886  0.3362 -0.2793  1.9405
  148MOL0     H19936  -1.236   6.648   5.022  1.1292  0.4579  2.5253
  148MOL0     H19937  -1.113   6.528   5.039 -2.5779 -3.8193 -1.5764
  148MOL0     H19938  -1.112   6.474   4.801  0.4502 -0.2919 -0.2283
  148MOL0     H19939  -1.262   6.554   4.774 -1.0361 -2.0531 -0.7426
  148MOL0     H19940  -1.427   6.606   4.911  2.8187 -1.1775  1.8656
  148MOL0     H19941  -1.733   6.615   5.062  0.4171 -0.3934  1.4262
  148MOL0     H19942  -1.628   6.706   4.957  1.0491 -0.9216 -2.2889
  148MOL0     H19943  -1.777   6.630   4.888  0.2718 -1.8730 -0.7456
  148MOL0     H19944  -2.005   6.079   4.696  1.3407 -2.3490  0.8984
  148MOL0     H19945  -2.199   5.940   4.775  0.5966  1.4216 -0.8823
  148MOL0     H19946  -2.359   5.952   5.202 -1.1738 -2.1942 -0.8853
  148MOL0     H19947  -2.417   6.084   5.102  2.7301  1.0354 -1.4473
  148MOL0     H19948  -2.502   5.815   5.098 -0.4744  0.7986  0.7126
  148MOL0     H19949  -2.588   5.947   5.186 -0.9481 -1.7043 -0.5069
  148MOL0     H19950  -2.561   5.916   4.888  3.3950  2.5661  1.1500
  148MOL0     H19951  -2.638   6.056   4.945 -1.5665  0.4959  0.8717
  148MOL0     H19952  -2.742   5.766   5.009 -0.5592  0.0705  0.0948
  148MOL0     H19953  -2.805   5.903   5.088 -4.6778 -2.5839 -0.7689
  148MOL0     H19954  -2.925   5.805   4.878  0.8943 -0.1321 -4.7737
  148MOL0     H19955  -2.788   5.869   4.788  0.3556  1.2187  0.9339
  148MOL0     H19956  -2.957   6.040   4.954 -1.7047 -0.8240 -0.3045
  148MOL0     H19957  -2.834   6.098   4.836 -2.5074  1.3587 -2.9011
  148MOL0     H19958  -3.041   5.938   4.709  1.2664  0.0657 -0.8739
  148MOL0     H19959  -2.963   6.091   4.665 -1.0662  1.2709 -0.9406
  148MOL0     H19960  -3.155   6.065   4.899  1.5745 -1.2681 -0.1348
  148MOL0     H19961  -3.218   6.111   4.741 -0.2033 -1.6831  0.8028
  148MOL0     H19962  -2.172   6.090   5.170  1.0122 -0.3585  1.3996
  148MOL0     H19963  -1.950   6.211   5.103  0.2047  1.8090  0.1318
  148MOL0     H19964  -1.645   6.170   4.887 -0.4197  1.2965  3.3003
  148MOL0     H19965  -1.394   6.188   4.879 -0.0911 -1.1551  1.2472
  148MOL0     H19966   0.024   6.544   4.344  1.2406 -0.6573  2.3593
  148MOL0     H19967   0.217   6.554   4.180  0.8862  0.7685 -0.9934
  148MOL0     H19968   0.588   6.703   4.087  0.1644  0.1052  1.0195
  148MOL0     H19969   0.816   6.736   4.012  0.5983  0.8633  0.5170
  148MOL0     H19970   1.007   6.858   3.976  0.6367 -0.5736  0.3676
  148MOL0     H19971   1.025   6.736   3.852  1.5234 -0.2036  0.0605
  148MOL0     H19972   1.175   6.849   3.740 -0.6282 -0.5936  0.2740
  148MOL0     H19973   1.223   6.902   3.908 -1.9600  1.6998  2.8886
  148MOL0     H19974   1.097   7.125   3.844 -0.7867  1.3511 -1.5644
  148MOL0     H19975   1.062   7.050   3.688  3.2169  0.4181 -2.4647
  148MOL0     H19976   1.277   7.062   3.601  0.0430  1.5660 -0.5521
  148MOL0     H19977   1.355   7.086   3.765  0.4314  2.0184  0.5064
  148MOL0     H19978   1.328   7.467   3.664 -1.1330  0.8406  2.1656
  148MOL0     H19979   0.702   7.011   3.715  0.1675  0.7808  0.9854
  148MOL0     H19980   0.467   6.982   3.792  2.5859  5.4285  2.3738
  149MOL0     O19981   8.915   1.145  10.213 -0.4477  0.1691  0.1012
  149MOL0     C19982   8.893   1.264  10.203  1.1533 -0.5417  0.0456
  149MOL0     O19983   8.773   1.324  10.216 -0.2488  0.0221 -0.2846
  149MOL0     C19984   8.661   1.258  10.262  1.1641  0.3721  0.1140
  149MOL0     C19985   8.657   1.141  10.341  0.3214  0.5649 -1.0028
  149MOL0     C19986   8.530   1.077  10.393  0.2783 -0.9738  0.6979
  149MOL0     C19987   8.414   1.143  10.366  0.4379 -0.4980 -0.0327
  149MOL0     O19988   8.299   1.113  10.432 -1.1154 -0.4459 -0.4034
  149MOL0     C19989   8.186   1.089  10.352  1.0770  1.0941  0.6825
  149MOL0     C19990   8.088   1.017  10.447  1.2453 -1.1427 -0.3119
  149MOL0     C19991   8.126   0.872  10.472  0.3832  0.9043 -0.2156
  149MOL0     C19992   8.013   0.807  10.546 -0.2248 -0.3232 -0.2441
  149MOL0     C19993   7.875   0.800  10.468 -0.1341  0.5885 -0.8213
  149MOL0     C19994   7.790   0.682  10.513 -0.7748 -0.5149  0.1107
  149MOL0     C19995   7.660   0.669  10.438 -0.2856  0.6762  0.8647
  149MOL0     C19996   7.548   0.753  10.486 -0.4719  0.3807  0.2978
  149MOL0     N19997   7.434   0.784  10.393  0.6370 -0.7978  0.6308
  149MOL0     C19998   7.332   0.875  10.417  0.2745  1.4193  0.3008
  149MOL0     C19999   7.257   0.891  10.309 -0.2178  0.4069 -0.3021
  149MOL0     C20000   7.140   0.978  10.288 -0.5768 -0.6937  0.3318
  149MOL0     C20001   7.184   1.119  10.240  0.1212  0.7535 -0.0343
  149MOL0     C20002   7.075   1.224  10.242 -0.5913 -0.3819 -0.5250
  149MOL0     C20003   7.072   1.307  10.368 -0.6369  0.0387 -0.3710
  149MOL0     O20004   7.018   1.442  10.341  0.0996 -1.4248 -0.7711
  149MOL0     C20005   7.099   1.539  10.284  0.6002  0.2622 -0.0200
  149MOL0     C20006   7.232   1.527  10.235  0.3369  0.5667 -0.1299
  149MOL0     C20007   7.307   1.631  10.190 -0.0022  0.3922  0.2122
  149MOL0     C20008   7.457   1.608  10.175 -1.2684 -0.0162 -0.3199
  149MOL0     C20009   7.240   1.750  10.153 -0.2135 -0.6907 -0.1543
  149MOL0     C20010   7.307   1.867  10.092 -0.4784  0.0311  0.1155
  149MOL0     O20011   7.423   1.839  10.022  0.7092 -0.4389  0.2244
  149MOL0     C20012   7.478   1.936   9.943 -0.4308  0.2003 -0.0225
  149MOL0     C20013   7.608   1.969   9.970 -0.4138 -0.8339  0.1634
  149MOL0     C20014   7.675   2.066   9.895 -0.0788  0.0128  0.4752
  149MOL0     C20015   7.606   2.122   9.782 -0.5673  0.2016 -0.1709
  149MOL0     O20016   7.660   2.201   9.695 -0.1323 -0.2437 -0.1001
  149MOL0     C20017   7.689   2.330   9.740  0.1049 -0.2046  0.5854
  149MOL0     C20018   7.675   2.425   9.621 -0.6974 -0.6384  0.2070
  149MOL0     C20019   7.743   2.566   9.652  0.5595 -1.1898  0.1961
  149MOL0     C20020   7.675   2.630   9.770  0.0583  0.1604  0.8683
  149MOL0     C20021   7.716   2.774   9.794 -0.1044 -0.0195  0.3781
  149MOL0     C20022   7.668   2.863   9.684 -0.3106 -1.3394 -0.0664
  149MOL0     C20023   7.743   3.001   9.715  0.3925 -0.5376  0.3372
  149MOL0     C20024   7.664   3.121   9.644 -0.1875 -1.1049  1.3518
  149MOL0    Cl20025   7.487   3.113   9.692  0.3268  0.1332  0.0796
  149MOL0     C20026   7.481   2.077   9.753 -0.3356 -0.2887  0.5917
  149MOL0     C20027   7.412   1.986   9.830 -0.1659  0.5853  0.1399
  149MOL0     O20028   7.245   1.976  10.098 -0.2117  0.5425 -0.2836
  149MOL0     C20029   7.106   1.762  10.193 -0.7945  0.1091 -0.1599
  149MOL0     C20030   7.037   1.664  10.269 -0.3138  0.2485  0.0264
  149MOL0     N20031   7.321   0.816  10.216  0.0718 -0.1058 -0.0854
  149MOL0     N20032   7.424   0.754  10.262  0.4187  0.5484  0.2677
  149MOL0     C20033   8.419   1.257  10.280 -0.1384 -1.0899 -0.2915
  149MOL0     C20034   8.537   1.320  10.233 -0.3972 -0.3782 -0.8993
  149MOL0     C20035   8.996   1.349  10.146 -0.0086  0.0388  0.0623
  149MOL0     C20036   9.085   1.291  10.055 -0.0906 -0.5228  0.0685
  149MOL0     C20037   9.186   1.372   9.993 -0.1659 -0.3049 -0.4338
  149MOL0     C20038   9.198   1.512  10.035  0.3254  1.1860  0.0329
  149MOL0     O20039   9.279   1.602   9.978  0.8650  0.3224  0.9370
  149MOL0     C20040   9.350   1.570   9.851 -0.0133 -0.1388 -0.2795
  149MOL0     C20041   9.436   1.686   9.800  0.2529 -0.7368 -0.3055
  149MOL0     C20042   9.571   1.701   9.875  0.5212 -0.0938 -0.3968
  149MOL0     C20043   9.660   1.572   9.854 -0.5573 -0.3925 -0.6507
  149MOL0     C20044   9.802   1.596   9.878 -1.0514 -0.7227  0.2398
  149MOL0     C20045   9.924   1.591   9.874  0.5618  0.2988 -0.1398
  149MOL0     C20046   9.104   1.568  10.127 -0.4336  0.1890  0.3808
  149MOL0     C20047   9.003   1.486  10.184  0.7166  0.2672 -0.3155
  149MOL0     H20048   8.747   1.099  10.384 -0.2883  2.0037  1.9089
  149MOL0     H20049   8.530   1.006  10.475 -2.1900  0.6991  2.2550
  149MOL0     H20050   8.141   1.183  10.318  3.8001  1.3887 -2.5654
  149MOL0     H20051   8.204   1.025  10.266 -3.7159  2.0640 -1.3732
  149MOL0     H20052   8.097   1.067  10.543  1.0276  0.5124 -1.1215
  149MOL0     H20053   7.986   1.020  10.408  1.1054 -1.4988  0.0234
  149MOL0     H20054   8.140   0.829  10.373 -3.0584 -0.7195 -0.1284
  149MOL0     H20055   8.223   0.878  10.522  1.6704 -1.4806 -2.2155
  149MOL0     H20056   8.042   0.702  10.558 -0.6242 -0.5957 -1.5152
  149MOL0     H20057   8.010   0.847  10.648 -0.6172 -1.2760  0.1328
  149MOL0     H20058   7.820   0.893  10.487 -0.1460  0.2835  0.8339
  149MOL0     H20059   7.892   0.780  10.362  1.1814 -0.1165 -0.5083
  149MOL0     H20060   7.858   0.599  10.492 -1.8781 -1.5064  0.2841
  149MOL0     H20061   7.769   0.690  10.620 -0.6942  2.4056 -0.0146
  149MOL0     H20062   7.680   0.696  10.334  1.5890  1.8487  1.4812
  149MOL0     H20063   7.628   0.565  10.427 -1.3786  1.1520 -0.9352
  149MOL0     H20064   7.586   0.852  10.511  1.3872  0.7059 -3.1807
  149MOL0     H20065   7.491   0.689  10.554 -3.4488  2.2461 -0.2416
  149MOL0     H20066   7.313   0.930  10.509 -0.7134  1.1815  0.2483
  149MOL0     H20067   7.072   0.948  10.208 -1.9714  4.8117 -0.9728
  149MOL0     H20068   7.080   0.990  10.378 -2.6606  2.9100 -1.3029
  149MOL0     H20069   7.206   1.104  10.134 -2.0614  0.3235 -0.4595
  149MOL0     H20070   7.272   1.167  10.285  0.3729  2.9145 -2.5968
  149MOL0     H20071   6.981   1.174  10.217 -0.6198 -0.6890  0.1723
  149MOL0     H20072   7.095   1.301  10.167 -1.3334  4.7022  3.8646
  149MOL0     H20073   7.172   1.310  10.413  0.1898 -0.7813 -2.0324
  149MOL0     H20074   7.001   1.271  10.443  0.3228  1.5658  1.3639
  149MOL0     H20075   7.290   1.436  10.249  2.6819  2.0428  0.2225
  149MOL0     H20076   7.514   1.690  10.222  0.7413  0.0202 -2.6179
  149MOL0     H20077   7.492   1.514  10.218 -1.5284 -0.1162 -0.3258
  149MOL0     H20078   7.488   1.605  10.071  0.4766  1.0332  0.1165
  149MOL0     H20079   7.649   1.935  10.064 -1.2446  0.3302  0.9770
  149MOL0     H20080   7.779   2.094   9.909  0.5313 -0.5696 -2.3437
  149MOL0     H20081   7.626   2.360   9.824 -1.4272  0.5999 -0.7996
  149MOL0     H20082   7.793   2.341   9.772  1.2876  0.7834 -3.1681
  149MOL0     H20083   7.728   2.382   9.536  1.9329 -1.2243  2.0186
  149MOL0     H20084   7.571   2.428   9.587 -0.2850 -0.2952 -1.0908
  149MOL0     H20085   7.735   2.618   9.556 -0.9654 -1.4766  0.1537
  149MOL0     H20086   7.852   2.566   9.666  1.1951  0.3749 -3.3564
  149MOL0     H20087   7.567   2.617   9.762  0.2059 -1.4284  1.1748
  149MOL0     H20088   7.689   2.579   9.866 -1.5244  1.9230  2.1129
  149MOL0     H20089   7.822   2.778   9.821 -0.5751 -0.8592  2.5362
  149MOL0     H20090   7.669   2.814   9.885  0.9270 -0.5792  1.1823
  149MOL0     H20091   7.687   2.834   9.581 -1.3633 -0.6695 -0.4636
  149MOL0     H20092   7.559   2.867   9.690 -0.3158  0.8230 -0.7275
  149MOL0     H20093   7.847   3.005   9.680  0.9431 -0.7989  1.8795
  149MOL0     H20094   7.741   3.029   9.820 -2.0636  1.5578 -0.1619
  149MOL0     H20095   7.679   3.108   9.536  1.3851  2.3618  1.0221
  149MOL0     H20096   7.689   3.224   9.667 -1.7309 -1.0209  2.9018
  149MOL0     H20097   7.427   2.120   9.670  0.5416  0.9868  0.6395
  149MOL0     H20098   7.311   1.958   9.800  0.7536 -1.7033 -1.0443
  149MOL0     H20099   7.049   1.848  10.159 -2.2052 -1.1738 -1.1960
  149MOL0     H20100   6.933   1.695  10.279  0.2772  2.2930  0.3416
  149MOL0     H20101   8.326   1.305  10.252 -1.2115 -3.3655 -0.8258
  149MOL0     H20102   8.530   1.401  10.162 -2.1590 -1.8143 -2.4716
  149MOL0     H20103   9.060   1.190  10.022  2.7666 -0.4865 -2.6533
  149MOL0     H20104   9.255   1.325   9.924  2.4527 -1.9120  2.9903
  149MOL0     H20105   9.406   1.476   9.857  1.3581  0.4707 -2.4122
  149MOL0     H20106   9.274   1.556   9.774 -1.0986  4.7707 -0.4527
  149MOL0     H20107   9.383   1.781   9.805  1.0909 -0.2960  0.3759
  149MOL0     H20108   9.456   1.654   9.697 -2.6198 -0.5541 -0.9915
  149MOL0     H20109   9.565   1.733   9.980  0.3097  0.3087 -0.5286
  149MOL0     H20110   9.635   1.776   9.828  2.2703 -2.7284 -2.5829
  149MOL0     H20111   9.650   1.528   9.754  1.3063 -2.2205 -0.1072
  149MOL0     H20112   9.625   1.498   9.927  1.1106 -0.8578 -0.2645
  149MOL0     H20113  10.029   1.589   9.894  0.5905 -0.3943 -0.3523
  149MOL0     H20114   9.110   1.673  10.156 -0.2109  0.0363  0.9066
  149MOL0     H20115   8.931   1.517  10.260 -0.5529 -3.3234  0.1216
  150MOL0     O20116   5.331   3.790   1.127  0.0815 -0.3536  0.6578
  150MOL0     C20117   5.395   3.691   1.120  0.1948  1.0490  0.2474
  150MOL0     O20118   5.343   3.565   1.099  0.3579  0.3678 -0.6790
  150MOL0     C20119   5.202   3.554   1.096  0.5122  0.2542  0.4160
  150MOL0     C20120   5.136   3.548   0.976  0.7143 -0.7960 -0.4014
  150MOL0     C20121   4.997   3.539   0.970 -0.6394 -0.7174  0.2023
  150MOL0     C20122   4.913   3.515   1.077 -0.0504  0.4341  0.2873
  150MOL0     O20123   4.780   3.499   1.082 -0.4171  0.0805  0.3070
  150MOL0     C20124   4.702   3.513   0.961 -0.4747  0.9486  0.3728
  150MOL0     C20125   4.707   3.397   0.871  0.2224  1.1948  0.9511
  150MOL0     C20126   4.581   3.317   0.849  0.0213  0.6671 -0.3888
  150MOL0     C20127   4.566   3.227   0.971  0.8477 -0.0718 -0.6064
  150MOL0     C20128   4.442   3.137   0.973 -0.4760  0.0652 -0.1214
  150MOL0     C20129   4.313   3.204   0.938 -0.7637  1.2922 -0.4266
  150MOL0     C20130   4.195   3.107   0.918 -0.7121  0.0253 -0.3077
  150MOL0     C20131   4.130   3.059   1.052  0.2481 -0.7103  1.7822
  150MOL0     N20132   4.033   2.948   1.017 -0.2351 -0.4729 -1.0944
  150MOL0     C20133   3.917   2.954   0.933  0.0149  0.5041 -0.0597
  150MOL0     C20134   3.849   2.844   0.965 -0.1941 -0.2333 -0.1848
  150MOL0     C20135   3.715   2.796   0.912 -0.9790  0.4285  0.2578
  150MOL0     C20136   3.602   2.868   0.977  0.0654 -0.2099 -0.6377
  150MOL0     C20137   3.557   2.834   1.124  0.4389  0.3080  0.4223
  150MOL0     C20138   3.507   2.696   1.136  0.6236  0.8425 -1.0804
  150MOL0     O20139   3.481   2.647   1.260  0.0498 -0.3428 -0.1341
  150MOL0     C20140   3.360   2.669   1.323  0.0822 -0.1896  0.0524
  150MOL0     C20141   3.349   2.594   1.437 -0.2122  0.2423  0.3388
  150MOL0     C20142   3.229   2.571   1.515  0.3697  0.9752 -0.1995
  150MOL0     C20143   3.227   2.502   1.653  0.6883  0.6446 -0.7156
  150MOL0     C20144   3.112   2.633   1.459  0.4903 -0.3081 -0.3533
  150MOL0     C20145   2.979   2.616   1.521 -0.0483 -0.0664 -0.3090
  150MOL0     O20146   2.954   2.515   1.609  0.8724  0.2889  0.0719
  150MOL0     C20147   2.831   2.501   1.658  0.1972  2.1093 -0.2333
  150MOL0     C20148   2.799   2.504   1.795 -0.9190 -0.2484  0.7493
  150MOL0     C20149   2.670   2.496   1.840  0.3956 -0.1102 -0.0805
  150MOL0     C20150   2.568   2.486   1.754 -0.1400  0.1242  0.2194
  150MOL0     O20151   2.440   2.466   1.806  0.3925 -0.1422  0.0618
  150MOL0     C20152   2.375   2.338   1.793  0.5341 -0.2978  0.2938
  150MOL0     C20153   2.384   2.260   1.923 -0.6335 -0.0268 -0.9429
  150MOL0     C20154   2.318   2.126   1.915 -0.4003 -0.1700  0.4222
  150MOL0     C20155   2.326   2.054   2.048  0.8080 -0.9820 -0.2079
  150MOL0     C20156   2.259   1.908   2.028  0.1527  0.2511 -0.0092
  150MOL0     C20157   2.283   1.798   2.126 -0.5105 -0.4594  0.2676
  150MOL0     C20158   2.413   1.812   2.187  0.0404  0.7490 -0.2665
  150MOL0     C20159   2.460   1.677   2.254 -0.4316  0.0588 -0.7201
  150MOL0    Cl20160   2.604   1.725   2.350 -0.1131  0.0873  0.0110
  150MOL0     C20161   2.585   2.486   1.617 -0.0517  0.1485  0.4318
  150MOL0     C20162   2.723   2.485   1.573  0.5607 -0.3340 -0.1392
  150MOL0     O20163   2.899   2.698   1.492  0.2698 -0.8592  0.1589
  150MOL0     C20164   3.123   2.710   1.338 -0.3900  0.0421  0.6161
  150MOL0     C20165   3.242   2.724   1.268  0.7147 -0.6808 -0.2851
  150MOL0     N20166   3.922   2.770   1.056 -0.0354 -0.8197 -0.7331
  150MOL0     N20167   4.031   2.837   1.092  0.2020  0.5311 -0.0806
  150MOL0     C20168   4.979   3.503   1.197  0.0552  0.3540  0.9311
  150MOL0     C20169   5.116   3.538   1.209 -0.2578 -0.5142  0.5098
  150MOL0     C20170   5.543   3.695   1.126  0.1604 -0.2823 -0.1800
  150MOL0     C20171   5.618   3.822   1.128  0.4458 -0.1373  0.2938
  150MOL0     C20172   5.761   3.809   1.143 -0.3204 -0.1787  0.5911
  150MOL0     C20173   5.831   3.691   1.144 -0.8354 -0.9829  0.0963
  150MOL0     O20174   5.963   3.684   1.180 -0.2700  0.4327  0.1400
  150MOL0     C20175   6.049   3.792   1.144 -0.0725  0.2730 -0.1370
  150MOL0     C20176   6.200   3.766   1.174  0.3711 -0.0031  0.4868
  150MOL0     C20177   6.282   3.872   1.105  0.5210  0.5907  0.0371
  150MOL0     C20178   6.301   3.998   1.188  0.2735 -1.3470  0.3446
  150MOL0     C20179   6.198   4.100   1.148 -0.2507 -0.2319  1.1684
  150MOL0     C20180   6.100   4.175   1.115 -0.1817  0.3903 -0.3308
  150MOL0     C20181   5.759   3.574   1.131 -0.7320  0.1458  0.5291
  150MOL0     C20182   5.619   3.579   1.134  0.2711  0.5363 -0.0619
  150MOL0     H20183   5.193   3.560   0.885  0.7657 -0.3094 -0.3095
  150MOL0     H20184   4.950   3.523   0.874 -1.2711 -0.1941  0.4127
  150MOL0     H20185   4.602   3.545   0.989  0.1323  2.0109  1.3993
  150MOL0     H20186   4.735   3.609   0.920  3.4556 -1.0604 -1.7940
  150MOL0     H20187   4.747   3.437   0.777  0.7512  2.2810  1.6208
  150MOL0     H20188   4.787   3.327   0.897 -0.1729  0.3290 -0.0897
  150MOL0     H20189   4.496   3.382   0.827  0.2378  0.6599 -1.2861
  150MOL0     H20190   4.588   3.254   0.760  1.3823 -2.0749  1.4967
  150MOL0     H20191   4.647   3.159   0.998 -2.1596 -2.4239  3.7371
  150MOL0     H20192   4.567   3.290   1.060 -1.8313 -4.2566  2.7711
  150MOL0     H20193   4.461   3.056   0.902  0.1661 -0.1868  0.3245
  150MOL0     H20194   4.434   3.108   1.079  2.9086  3.0964  1.2056
  150MOL0     H20195   4.290   3.260   1.029 -0.0083  0.9566 -0.0119
  150MOL0     H20196   4.319   3.265   0.848 -2.2290 -0.7330 -2.0042
  150MOL0     H20197   4.118   3.151   0.855  0.9063  0.0559 -2.3804
  150MOL0     H20198   4.235   3.021   0.864 -2.1063  0.2431 -1.7376
  150MOL0     H20199   4.078   3.142   1.101  0.5168  0.3864  0.2673
  150MOL0     H20200   4.201   3.023   1.128  1.6676  0.6606  1.1699
  150MOL0     H20201   3.873   3.034   0.874 -1.5540  0.2581  0.7196
  150MOL0     H20202   3.723   2.811   0.804  3.2226 -2.2042 -0.0279
  150MOL0     H20203   3.710   2.686   0.917  0.5529  0.0930 -2.9535
  150MOL0     H20204   3.517   2.848   0.911 -0.5885  1.4357 -0.3363
  150MOL0     H20205   3.615   2.976   0.964  0.1369  0.0913  1.5378
  150MOL0     H20206   3.477   2.900   1.161 -0.8539 -1.6845  1.3146
  150MOL0     H20207   3.633   2.843   1.202  1.5607  1.6700 -0.7714
  150MOL0     H20208   3.584   2.632   1.092  2.6763  1.8906  0.7979
  150MOL0     H20209   3.416   2.686   1.075  0.2754 -4.0873 -0.1347
  150MOL0     H20210   3.435   2.539   1.475 -3.2928 -4.7740  0.9177
  150MOL0     H20211   3.328   2.483   1.691  0.4250 -0.9358 -0.7514
  150MOL0     H20212   3.179   2.568   1.725 -1.2836 -1.9817  0.5495
  150MOL0     H20213   3.174   2.406   1.647  0.7034  0.6121 -0.3569
  150MOL0     H20214   2.882   2.522   1.863 -0.5484  3.0905 -0.3985
  150MOL0     H20215   2.661   2.496   1.948  4.0321 -0.7541  0.3452
  150MOL0     H20216   2.272   2.350   1.759  0.4160  1.9926  1.3048
  150MOL0     H20217   2.406   2.283   1.704  2.0499  1.2904 -0.2186
  150MOL0     H20218   2.488   2.253   1.956 -1.4202  2.2960  2.5993
  150MOL0     H20219   2.335   2.313   2.005  2.1259 -1.4778  1.8434
  150MOL0     H20220   2.372   2.078   1.833  0.1764  1.1531 -0.0138
  150MOL0     H20221   2.215   2.130   1.878  0.1812  0.1036 -1.2401
  150MOL0     H20222   2.432   2.051   2.073  0.7316  2.1856  1.0315
  150MOL0     H20223   2.278   2.109   2.130  0.5485 -2.4335  0.6466
  150MOL0     H20224   2.295   1.881   1.929  0.6439  0.7093  0.0373
  150MOL0     H20225   2.150   1.920   2.036 -0.0849 -1.5052 -0.4235
  150MOL0     H20226   2.211   1.800   2.209  1.3449 -0.7592  1.9737
  150MOL0     H20227   2.272   1.703   2.073 -0.3681  0.4510 -1.4412
  150MOL0     H20228   2.400   1.896   2.256  0.1269  3.0427 -2.8793
  150MOL0     H20229   2.497   1.842   2.123  1.6403  2.9192  2.6080
  150MOL0     H20230   2.489   1.598   2.183  3.2054  0.0565  0.5347
  150MOL0     H20231   2.382   1.641   2.320 -0.4211  2.4514  0.7146
  150MOL0     H20232   2.499   2.483   1.551 -0.0404  0.3425  0.4080
  150MOL0     H20233   2.746   2.468   1.469 -2.0069 -3.5981 -0.3545
  150MOL0     H20234   3.035   2.743   1.283  1.9610  0.4518 -3.2906
  150MOL0     H20235   3.243   2.788   1.181  0.0465  1.7864  1.4014
  150MOL0     H20236   4.925   3.491   1.291 -0.8270  0.4447  0.4486
  150MOL0     H20237   5.165   3.545   1.306  1.1219 -0.0632 -0.1886
  150MOL0     H20238   5.572   3.920   1.132  0.0632  0.0195 -3.7009
  150MOL0     H20239   5.822   3.899   1.146  0.8779 -0.8518 -1.3262
  150MOL0     H20240   6.039   3.817   1.037  1.1325 -1.6610 -0.7491
  150MOL0     H20241   6.025   3.881   1.202  2.3077  1.0138 -0.1702
  150MOL0     H20242   6.221   3.664   1.139 -1.0985 -0.4333  0.7595
  150MOL0     H20243   6.222   3.764   1.281  2.6556 -0.7319  0.0569
  150MOL0     H20244   6.257   3.898   1.002 -1.0165  0.4260  0.3476
  150MOL0     H20245   6.383   3.832   1.094 -0.0475 -0.6410 -0.9152
  150MOL0     H20246   6.397   4.038   1.157  0.8539 -0.3099  3.1434
  150MOL0     H20247   6.310   3.975   1.295  2.9095 -1.3491  0.1856
  150MOL0     H20248   6.016   4.239   1.095 -2.0758 -2.3723 -1.9141
  150MOL0     H20249   5.813   3.481   1.128 -2.5026 -1.0091 -3.7058
  150MOL0     H20250   5.573   3.482   1.147  0.0139  0.5129 -1.0235
  151MOL0     O20251   3.883   7.482   0.273  0.4423  0.8374 -0.7568
  151MOL0     C20252   3.957   7.492   0.372  0.3761  0.1878 -0.0732
  151MOL0     O20253   3.924   7.472   0.507  0.5506 -0.0265  0.6100
  151MOL0     C20254   3.808   7.409   0.553 -0.2313  0.4806 -1.3483
  151MOL0     C20255   3.813   7.354   0.679  0.9585  0.5136 -0.7314
  151MOL0     C20256   3.698   7.295   0.732 -1.4956 -0.3132  0.5525
  151MOL0     C20257   3.581   7.289   0.661  0.2154 -0.4578 -0.2402
  151MOL0     O20258   3.475   7.225   0.719 -0.2313  0.3810 -0.2885
  151MOL0     C20259   3.499   7.090   0.753  0.6032  0.1050 -0.7438
  151MOL0     C20260   3.514   6.992   0.622  0.5867  0.0192  0.0230
  151MOL0     C20261   3.401   6.999   0.517 -0.3982 -0.2078 -0.6174
  151MOL0     C20262   3.258   6.971   0.564 -0.0118 -0.0658  0.6890
  151MOL0     C20263   3.238   6.831   0.626 -0.7439  0.4394 -0.0933
  151MOL0     C20264   3.099   6.794   0.594  1.5520  0.0542 -0.2811
  151MOL0     C20265   3.043   6.656   0.653  0.3889  0.1994  0.2770
  151MOL0     C20266   3.073   6.531   0.568  0.5180  0.2756  0.0438
  151MOL0     N20267   3.211   6.516   0.551 -0.5190  0.7304 -0.9796
  151MOL0     C20268   3.304   6.473   0.648  0.0977 -0.3719  0.3179
  151MOL0     C20269   3.416   6.459   0.578 -0.3599  0.2418 -0.6357
  151MOL0     C20270   3.546   6.398   0.618 -0.0440  0.2596  0.6609
  151MOL0     C20271   3.669   6.501   0.626 -0.4962 -0.0832 -0.2979
  151MOL0     C20272   3.636   6.613   0.735 -0.0035  0.4564 -0.1333
  151MOL0     C20273   3.703   6.580   0.864 -1.0965 -0.4850 -0.4919
  151MOL0     O20274   3.841   6.596   0.853 -0.2461 -0.0384  0.1134
  151MOL0     C20275   3.893   6.724   0.869 -0.6976  0.7218  0.1872
  151MOL0     C20276   4.024   6.741   0.841 -0.5496 -0.6195  1.3817
  151MOL0     C20277   4.087   6.864   0.842  0.5207 -0.3006  0.6506
  151MOL0     C20278   4.232   6.867   0.809 -0.6656 -0.2480 -0.2283
  151MOL0     C20279   4.012   6.978   0.878  0.3644 -0.4258  0.4835
  151MOL0     C20280   4.073   7.117   0.867 -0.2055  0.3720 -0.7806
  151MOL0     O20281   4.164   7.149   0.773  0.6171  0.4534 -0.1614
  151MOL0     C20282   4.252   7.248   0.803  0.6141 -1.2191 -0.0710
  151MOL0     C20283   4.211   7.376   0.809  0.0366  1.3561  0.7692
  151MOL0     C20284   4.287   7.480   0.857  0.4968 -0.4458  0.2161
  151MOL0     C20285   4.427   7.454   0.876 -0.9660  0.0878  0.3744
  151MOL0     O20286   4.510   7.561   0.909 -0.4425 -0.9396 -0.1280
  151MOL0     C20287   4.595   7.605   0.803 -0.5083 -0.1166  0.3971
  151MOL0     C20288   4.686   7.703   0.860 -0.0308  0.0790 -0.1689
  151MOL0     C20289   4.759   7.770   0.749  0.2961 -0.3083  0.1293
  151MOL0     C20290   4.894   7.699   0.717 -0.0782  0.0578  0.1332
  151MOL0     C20291   4.977   7.797   0.639 -0.2944 -0.2736  0.1607
  151MOL0     C20292   5.111   7.742   0.599 -0.8799 -0.1112 -0.8694
  151MOL0     C20293   5.195   7.837   0.500  0.8755  0.4114  0.0222
  151MOL0     C20294   5.332   7.786   0.485 -0.2319  0.8596 -0.8101
  151MOL0    Cl20295   5.444   7.889   0.394  0.0900  0.1039  0.0743
  151MOL0     C20296   4.472   7.323   0.862 -0.4718 -0.0683  0.0726
  151MOL0     C20297   4.381   7.222   0.821 -0.1738 -0.2030  0.3038
  151MOL0     O20298   4.020   7.195   0.953 -0.4900 -0.8899 -0.5955
  151MOL0     C20299   3.877   6.962   0.913 -0.5450  0.3720 -0.9608
  151MOL0     C20300   3.817   6.838   0.905 -0.3047  0.5677 -0.5499
  151MOL0     N20301   3.397   6.492   0.441  0.7096 -0.4323  0.2487
  151MOL0     N20302   3.272   6.533   0.432  0.2631  0.5871 -0.2051
  151MOL0     C20303   3.568   7.354   0.542  0.9060 -0.9315  0.0253
  151MOL0     C20304   3.681   7.410   0.491  0.2931  0.0825  0.0435
  151MOL0     C20305   4.095   7.534   0.349  0.2258  0.4275 -0.1504
  151MOL0     C20306   4.182   7.572   0.460 -0.0418  0.2978  0.1101
  151MOL0     C20307   4.321   7.606   0.440  0.3058 -0.2827  0.6771
  151MOL0     C20308   4.370   7.604   0.311  0.4807  0.9341 -0.0872
  151MOL0     O20309   4.503   7.639   0.290  0.2283 -0.3782  0.6838
  151MOL0     C20310   4.594   7.590   0.392 -0.2931 -0.6833  0.1572
  151MOL0     C20311   4.741   7.624   0.343  0.8054  0.6067  0.2284
  151MOL0     C20312   4.796   7.530   0.233  0.1711 -0.5422  1.0669
  151MOL0     C20313   4.946   7.563   0.228 -0.5894 -0.4400  0.1069
  151MOL0     C20314   5.016   7.480   0.130  0.3989 -0.6596 -0.2122
  151MOL0     C20315   5.052   7.421   0.032 -0.6408  0.1764  0.3621
  151MOL0     C20316   4.280   7.572   0.201 -0.4415 -0.7085  0.0573
  151MOL0     C20317   4.146   7.536   0.219 -1.0950  1.0889  0.5265
  151MOL0     H20318   3.908   7.351   0.731 -0.5159 -1.0625  2.1376
  151MOL0     H20319   3.705   7.248   0.830 -0.7515 -2.4527 -0.4567
  151MOL0     H20320   3.583   7.080   0.822  1.2029  1.7204 -1.1915
  151MOL0     H20321   3.411   7.067   0.814  1.4548 -1.7038 -0.1265
  151MOL0     H20322   3.614   7.002   0.577 -0.5638  1.5032 -2.3982
  151MOL0     H20323   3.511   6.889   0.658 -0.6911  0.7274  2.1482
  151MOL0     H20324   3.391   7.103   0.483 -2.1040 -0.3110 -0.4972
  151MOL0     H20325   3.425   6.928   0.437  0.1114 -0.7497  0.0114
  151MOL0     H20326   3.237   7.045   0.642 -1.0038 -0.0316  0.4095
  151MOL0     H20327   3.196   6.987   0.475  3.1932 -0.1784 -1.7356
  151MOL0     H20328   3.304   6.763   0.572  0.6412  0.4099  1.5520
  151MOL0     H20329   3.258   6.826   0.733 -0.7013  1.7426 -0.0170
  151MOL0     H20330   3.043   6.879   0.636  1.2405  0.6543 -1.8229
  151MOL0     H20331   3.074   6.794   0.487  0.6150  1.2591 -0.0977
  151MOL0     H20332   3.079   6.645   0.756  2.0976  0.3344 -0.2806
  151MOL0     H20333   2.933   6.658   0.652  0.3389  2.2614  2.2595
  151MOL0     H20334   3.022   6.539   0.472 -1.8363 -0.9563  1.1224
  151MOL0     H20335   3.037   6.442   0.619 -1.9591  1.1900  0.0045
  151MOL0     H20336   3.276   6.435   0.745 -2.0776 -2.2134 -0.9118
  151MOL0     H20337   3.537   6.353   0.718 -1.1628 -0.9556  0.0489
  151MOL0     H20338   3.576   6.318   0.549  0.3006  1.2512 -0.3628
  151MOL0     H20339   3.687   6.555   0.533 -1.6427  0.7986 -0.0346
  151MOL0     H20340   3.758   6.445   0.656  2.4097  3.4459 -1.5840
  151MOL0     H20341   3.532   6.607   0.767 -0.1336  0.0283 -0.6312
  151MOL0     H20342   3.659   6.715   0.701 -1.3851  1.6115  2.1344
  151MOL0     H20343   3.684   6.475   0.891 -0.6550 -0.9285 -1.8425
  151MOL0     H20344   3.656   6.653   0.929  2.8060  2.7166 -0.8706
  151MOL0     H20345   4.078   6.651   0.814 -0.0970  0.1720 -0.5517
  151MOL0     H20346   4.268   6.766   0.789 -1.8034 -0.8654  0.6963
  151MOL0     H20347   4.244   6.927   0.719 -1.7914  1.1982  0.5432
  151MOL0     H20348   4.288   6.906   0.894 -0.1662 -2.0077  0.3073
  151MOL0     H20349   4.106   7.389   0.788 -0.1069  1.1145  1.3171
  151MOL0     H20350   4.249   7.581   0.865 -0.0247 -0.6299  0.1113
  151MOL0     H20351   4.646   7.523   0.750 -1.7591 -1.7850  1.6678
  151MOL0     H20352   4.531   7.663   0.737 -3.7504 -0.4379  3.0145
  151MOL0     H20353   4.619   7.774   0.911  0.2298  1.1917 -1.3155
  151MOL0     H20354   4.752   7.655   0.933 -1.2013  2.7459  2.8989
  151MOL0     H20355   4.773   7.874   0.778 -1.7972 -0.5715  2.4242
  151MOL0     H20356   4.694   7.774   0.660  0.5907  3.1138 -0.0743
  151MOL0     H20357   4.936   7.655   0.808 -0.2910 -3.7134 -1.4143
  151MOL0     H20358   4.883   7.612   0.653 -1.2149  0.4880 -0.2951
  151MOL0     H20359   4.993   7.881   0.707  0.5766 -1.1161  1.0293
  151MOL0     H20360   4.919   7.829   0.551 -0.0451 -0.3790 -0.0438
  151MOL0     H20361   5.175   7.728   0.686  0.5080 -1.8172 -2.1023
  151MOL0     H20362   5.108   7.641   0.557  0.1592 -0.9027  0.8678
  151MOL0     H20363   5.193   7.937   0.543  1.8245  1.0648 -1.3922
  151MOL0     H20364   5.147   7.834   0.402  1.2551 -0.7752 -0.1460
  151MOL0     H20365   5.328   7.694   0.426 -1.8403  2.4171 -3.3001
  151MOL0     H20366   5.370   7.756   0.583  2.0828  1.2169 -1.5279
  151MOL0     H20367   4.572   7.282   0.871  0.1187  1.2543 -0.2708
  151MOL0     H20368   4.417   7.125   0.786 -1.3311 -0.7216  0.5045
  151MOL0     H20369   3.823   7.051   0.946  1.1629  0.4452  1.9797
  151MOL0     H20370   3.717   6.850   0.944 -0.9865  2.4284 -2.6782
  151MOL0     H20371   3.476   7.353   0.484  1.7614 -0.7377 -1.3706
  151MOL0     H20372   3.680   7.445   0.388  0.0351  0.9611  0.3343
  151MOL0     H20373   4.147   7.579   0.563 -1.1531  1.4276 -0.3217
  151MOL0     H20374   4.372   7.650   0.525  3.7024 -4.0485  0.8653
  151MOL0     H20375   4.575   7.647   0.483 -2.2515 -2.1102  0.7086
  151MOL0     H20376   4.572   7.486   0.419  0.4209 -0.2581  2.5987
  151MOL0     H20377   4.809   7.613   0.428  1.4974  2.0872 -0.1098
  151MOL0     H20378   4.738   7.729   0.314 -1.3329  1.3564  2.7458
  151MOL0     H20379   4.740   7.557   0.143  2.9376 -0.0664 -0.6468
  151MOL0     H20380   4.784   7.423   0.250 -3.1878 -0.5716 -0.7376
  151MOL0     H20381   5.003   7.544   0.319  0.8397  1.0864 -0.4294
  151MOL0     H20382   4.950   7.668   0.199 -0.6371 -0.6383 -0.6454
  151MOL0     H20383   5.094   7.372  -0.054  3.3087  2.5259  0.6756
  151MOL0     H20384   4.320   7.581   0.100  0.3940  1.5377  0.5295
  151MOL0     H20385   4.098   7.493   0.132  0.3015  2.1890 -0.8719
  152MOL0     O20386   5.843   5.569   8.946 -0.1954 -0.6246  0.4092
  152MOL0     C20387   5.849   5.448   8.925 -0.1847  0.5178 -0.0478
  152MOL0     O20388   5.743   5.366   8.908  0.2627 -0.2536 -0.2218
  152MOL0     C20389   5.624   5.438   8.912  0.8879 -0.0120  0.9714
  152MOL0     C20390   5.558   5.448   9.031 -0.2533 -0.3341 -0.4218
  152MOL0     C20391   5.434   5.503   9.055 -0.6429  0.6756 -0.8676
  152MOL0     C20392   5.369   5.547   8.939 -0.0841 -0.4384 -0.4328
  152MOL0     O20393   5.237   5.569   8.932 -0.9296 -0.6827  0.3309
  152MOL0     C20394   5.166   5.628   9.042  0.0999 -0.2874  0.0899
  152MOL0     C20395   5.158   5.784   9.042  0.7914 -0.3609 -0.2837
  152MOL0     C20396   5.047   5.849   9.120  0.0758  0.6502  0.0857
  152MOL0     C20397   5.046   6.012   9.137 -0.6355  0.2010 -0.0213
  152MOL0     C20398   4.905   6.054   9.184 -0.5095  0.4614  0.4537
  152MOL0     C20399   4.904   6.206   9.210 -0.0252 -0.4025  0.1837
  152MOL0     C20400   4.798   6.240   9.317  0.0381  0.3564 -0.3855
  152MOL0     C20401   4.841   6.218   9.463 -0.4439 -1.0222  0.1084
  152MOL0     N20402   4.729   6.220   9.559  0.0439 -0.1326  0.4821
  152MOL0     C20403   4.723   6.176   9.690 -0.3588 -0.3084 -0.8797
  152MOL0     C20404   4.599   6.199   9.737 -0.6495 -0.2035 -0.0131
  152MOL0     C20405   4.558   6.174   9.878 -0.5919 -0.1303  0.0404
  152MOL0     C20406   4.438   6.256   9.917 -0.4957  0.7313 -0.3211
  152MOL0     C20407   4.410   6.251  10.074 -0.7934  0.5181  0.5901
  152MOL0     C20408   4.277   6.330  10.110  0.2908 -0.3774 -0.1455
  152MOL0     O20409   4.267   6.453  10.045 -0.5111 -0.6219 -0.1732
  152MOL0     C20410   4.170   6.539  10.082  0.1872 -0.0857  0.6500
  152MOL0     C20411   4.064   6.512  10.170 -0.4121  0.5152 -0.2377
  152MOL0     C20412   3.967   6.610  10.202  0.2126 -0.6453 -0.1437
  152MOL0     C20413   3.861   6.573  10.303 -0.0172 -0.0712 -0.7450
  152MOL0     C20414   3.972   6.742  10.141 -1.0460  1.0689  0.2217
  152MOL0     C20415   3.880   6.849  10.170 -0.6500 -0.2596 -0.1181
  152MOL0     O20416   3.752   6.827  10.149 -0.8606 -0.6560 -0.1553
  152MOL0     C20417   3.667   6.920  10.201  0.3495 -0.0173  0.0513
  152MOL0     C20418   3.603   6.909  10.324  0.7768 -0.3163  0.3887
  152MOL0     C20419   3.499   6.993  10.381  0.0631  0.7210  0.6342
  152MOL0     C20420   3.448   7.089  10.293  0.1351 -0.2925 -0.3862
  152MOL0     O20421   3.339   7.164  10.343 -0.7441  1.1649 -0.1298
  152MOL0     C20422   3.308   7.293  10.275 -0.5223  0.6737  0.6819
  152MOL0     C20423   3.172   7.344  10.323  0.1411 -0.2241  0.0269
  152MOL0     C20424   3.048   7.266  10.252 -0.8940  0.5198 -0.2255
  152MOL0     C20425   2.918   7.315  10.296  0.5871  0.4799  0.2902
  152MOL0     C20426   2.805   7.283  10.207 -0.1410  0.1044 -0.3628
  152MOL0     C20427   2.675   7.330  10.263  0.1523  0.4742 -0.2007
  152MOL0     C20428   2.561   7.282  10.173 -0.3496 -0.2973  0.1273
  152MOL0     C20429   2.424   7.274  10.245  0.1845  0.1800  0.3098
  152MOL0    Cl20430   2.343   7.434  10.280 -0.0372 -0.2351  0.0121
  152MOL0     C20431   3.517   7.112  10.170 -0.2529  0.1481  0.0268
  152MOL0     C20432   3.620   7.025  10.117 -0.9752  0.5636  0.3234
  152MOL0     O20433   3.929   6.957  10.209  0.9142 -0.0037 -0.7930
  152MOL0     C20434   4.075   6.766  10.039 -0.4316 -0.6742 -0.5165
  152MOL0     C20435   4.174   6.666  10.018  0.6659  0.4396  0.9540
  152MOL0     N20436   4.538   6.268   9.640 -0.3026 -0.3992 -0.5208
  152MOL0     N20437   4.611   6.282   9.534  0.0454 -0.3170 -0.2645
  152MOL0     C20438   5.432   5.537   8.811  0.2491  0.3526 -0.0144
  152MOL0     C20439   5.561   5.474   8.794 -0.6689 -0.8563  0.3352
  152MOL0     C20440   5.988   5.387   8.932 -0.1523 -0.7278  0.5061
  152MOL0     C20441   6.004   5.249   8.947 -1.0247 -1.0990 -0.0589
  152MOL0     C20442   6.131   5.200   8.943 -1.4346  0.1139  0.8466
  152MOL0     C20443   6.243   5.276   8.931 -0.4172 -0.0983  0.4923
  152MOL0     O20444   6.369   5.231   8.947 -0.1601 -0.1137 -0.3060
  152MOL0     C20445   6.412   5.093   8.958  0.1923  0.8649 -0.1408
  152MOL0     C20446   6.390   5.013   8.818  0.2006  0.0093 -0.6814
  152MOL0     C20447   6.456   5.081   8.701  0.7183  0.4994 -0.0936
  152MOL0     C20448   6.601   5.097   8.699 -0.4984 -0.7037  0.2815
  152MOL0     C20449   6.664   4.973   8.662  0.4890  0.7518  0.3568
  152MOL0     C20450   6.719   4.875   8.623  0.0682 -0.3848  0.4231
  152MOL0     C20451   6.225   5.419   8.932 -0.4999  0.1569  0.4249
  152MOL0     C20452   6.098   5.474   8.925 -1.0215 -0.2239  1.2724
  152MOL0     H20453   5.613   5.411   9.118  0.7071  0.1131 -0.8204
  152MOL0     H20454   5.388   5.495   9.153  0.6822 -1.5031 -0.3653
  152MOL0     H20455   5.062   5.595   9.037 -0.2862 -0.3536  4.6009
  152MOL0     H20456   5.212   5.593   9.135  1.8875 -1.4834 -1.1650
  152MOL0     H20457   5.247   5.820   9.095  1.1932 -1.6097 -0.0762
  152MOL0     H20458   5.162   5.812   8.936  3.0472 -1.0645 -0.4277
  152MOL0     H20459   4.951   5.820   9.076  0.0058  1.3127 -0.2178
  152MOL0     H20460   5.047   5.800   9.217 -0.1418 -1.0347 -0.7385
  152MOL0     H20461   5.125   6.051   9.201 -1.7156  1.5401  0.5434
  152MOL0     H20462   5.062   6.055   9.037  2.4675 -1.9316 -0.5994
  152MOL0     H20463   4.832   6.037   9.104 -0.1105 -0.7825  0.3376
  152MOL0     H20464   4.874   5.994   9.269 -1.7168  3.2807  2.1494
  152MOL0     H20465   5.003   6.220   9.254 -0.5187 -2.2484  2.0598
  152MOL0     H20466   4.887   6.261   9.117  0.8832 -1.4906 -0.6601
  152MOL0     H20467   4.770   6.345   9.301 -2.2095 -0.3425 -1.5958
  152MOL0     H20468   4.710   6.174   9.313 -0.7570  1.3595  0.1499
  152MOL0     H20469   4.917   6.290   9.495  2.0244 -2.7338 -1.5610
  152MOL0     H20470   4.893   6.122   9.459 -0.2892 -0.9212 -0.5571
  152MOL0     H20471   4.805   6.127   9.742  1.0093  0.6676 -2.0431
  152MOL0     H20472   4.546   6.066   9.873 -0.8772 -0.0605 -1.5075
  152MOL0     H20473   4.642   6.201   9.942 -1.8594 -1.2863  2.3188
  152MOL0     H20474   4.346   6.217   9.871 -0.9175 -1.1626  1.9268
  152MOL0     H20475   4.446   6.362   9.894 -0.2103  0.7490 -0.1463
  152MOL0     H20476   4.491   6.307  10.122 -1.1061 -0.6912  2.6647
  152MOL0     H20477   4.412   6.151  10.120  2.7084 -0.3149 -1.0637
  152MOL0     H20478   4.291   6.346  10.217 -0.0131  0.2940 -0.2031
  152MOL0     H20479   4.189   6.268  10.088  0.4975 -0.1518 -1.7617
  152MOL0     H20480   4.060   6.412  10.212 -0.3838  0.3372 -0.6466
  152MOL0     H20481   3.803   6.659  10.337 -1.2493 -1.3478  0.5637
  152MOL0     H20482   3.783   6.504  10.270  1.1865 -1.8641 -0.0129
  152MOL0     H20483   3.907   6.520  10.388 -1.3324  0.8402  0.5799
  152MOL0     H20484   3.642   6.830  10.387 -0.3187 -0.8253  0.4494
  152MOL0     H20485   3.474   6.986  10.487 -0.1983 -1.2416  0.4825
  152MOL0     H20486   3.386   7.365  10.301  2.1267 -0.4694 -3.2603
  152MOL0     H20487   3.313   7.291  10.166  0.5250  1.7506  0.6950
  152MOL0     H20488   3.168   7.341  10.432 -1.5583 -0.5809 -0.0283
  152MOL0     H20489   3.176   7.445  10.281  1.3134 -1.2433 -2.5386
  152MOL0     H20490   3.060   7.157  10.253  2.6264  0.7875 -1.0241
  152MOL0     H20491   3.056   7.285  10.145  0.6729  0.0395 -0.2147
  152MOL0     H20492   2.910   7.269  10.396 -2.3104 -0.0641 -0.1050
  152MOL0     H20493   2.910   7.423  10.309  0.3494  1.0918 -3.8115
  152MOL0     H20494   2.788   7.175  10.209 -1.1324  0.2546  0.4306
  152MOL0     H20495   2.822   7.321  10.106  2.2415  1.6217  0.5266
  152MOL0     H20496   2.673   7.286  10.363  0.7738 -0.6731 -0.6677
  152MOL0     H20497   2.675   7.437  10.283  1.3853  0.0528  2.5091
  152MOL0     H20498   2.576   7.177  10.145 -5.0338 -0.7899 -1.3636
  152MOL0     H20499   2.536   7.351  10.092  0.9194  0.1430  0.0880
  152MOL0     H20500   2.442   7.217  10.337 -0.3463 -0.3817  0.0831
  152MOL0     H20501   2.358   7.207  10.188  2.5257 -1.0321 -1.1452
  152MOL0     H20502   3.476   7.193  10.110 -2.4766 -0.5488  0.4860
  152MOL0     H20503   3.663   7.041  10.019 -0.5643  0.4909  0.4900
  152MOL0     H20504   4.082   6.862   9.988  0.1734 -0.1365  0.5457
  152MOL0     H20505   4.244   6.696   9.940 -0.4605  2.5803  0.6855
  152MOL0     H20506   5.376   5.580   8.729 -1.3802  0.6392  1.2097
  152MOL0     H20507   5.610   5.465   8.697  0.2421  0.4624  0.6403
  152MOL0     H20508   5.919   5.184   8.963 -2.6357  0.8304 -0.3592
  152MOL0     H20509   6.143   5.095   8.969 -0.8641  0.6314  2.8057
  152MOL0     H20510   6.518   5.097   8.982  0.0917 -0.6736  0.7218
  152MOL0     H20511   6.366   5.036   9.040  0.8758  0.9612  0.3185
  152MOL0     H20512   6.283   4.993   8.805  0.1181 -2.7505  2.7746
  152MOL0     H20513   6.445   4.920   8.833  2.2010  1.6788  4.7516
  152MOL0     H20514   6.410   5.181   8.705 -1.4226 -0.4222 -0.2092
  152MOL0     H20515   6.413   5.031   8.614  1.1014 -2.0693  1.1085
  152MOL0     H20516   6.625   5.118   8.803 -4.5478  0.1036  1.2068
  152MOL0     H20517   6.630   5.169   8.622  0.6213 -1.9113 -0.4779
  152MOL0     H20518   6.765   4.788   8.580 -2.9360 -2.0083  0.1915
  152MOL0     H20519   6.317   5.477   8.933  0.4550 -1.1592 -1.9736
  152MOL0     H20520   6.098   5.581   8.905 -0.3761 -0.6215 -1.2292
  153MOL0     O20521   9.627   5.914  10.715  0.4648 -0.2258 -0.4142
  153MOL0     C20522   9.579   5.860  10.814 -0.2682 -0.4874 -0.5203
  153MOL0     O20523   9.613   5.883  10.947 -1.0695  0.2089  0.0419
  153MOL0     C20524   9.740   5.911  10.979  0.6649 -0.9817  0.2151
  153MOL0     C20525   9.851   5.911  10.885  0.7716  0.5035 -0.3058
  153MOL0     C20526   9.979   5.949  10.926  0.1483  0.0071 -0.0045
  153MOL0     C20527   9.988   5.984  11.065  0.3208 -0.3299  0.0331
  153MOL0     O20528  10.114   6.015  11.101 -1.0528  0.0672  0.0606
  153MOL0     C20529  10.176   6.135  11.056 -0.4638  0.4717 -0.4285
  153MOL0     C20530  10.286   6.168  11.162  0.2614 -0.3093 -0.0001
  153MOL0     C20531  10.381   6.050  11.184  0.3837 -0.4716 -0.5800
  153MOL0     C20532  10.493   6.097  11.285 -0.3235  0.2024  0.3099
  153MOL0     C20533  10.616   5.996  11.293  0.0680 -0.4704  0.2288
  153MOL0     C20534  10.707   5.984  11.163  0.0217  0.1936 -0.2709
  153MOL0     C20535  10.811   6.097  11.144 -0.6747 -0.1159  0.2400
  153MOL0     C20536  10.914   6.085  11.259 -0.0894  0.4139 -0.2308
  153MOL0     N20537  11.014   6.184  11.241  0.3750  0.1080 -0.1265
  153MOL0     C20538  10.992   6.321  11.241  0.7046  0.3343 -0.1288
  153MOL0     C20539  11.112   6.370  11.197 -0.8023 -0.3698  0.5590
  153MOL0     C20540  11.134   6.517  11.157 -0.1515  0.2750 -1.0442
  153MOL0     C20541  11.279   6.543  11.111 -0.5804 -0.5763  0.1542
  153MOL0     C20542  11.298   6.693  11.069  0.7308 -0.5085 -0.5791
  153MOL0     C20543  11.442   6.718  11.032 -0.1062  0.1064 -0.5382
  153MOL0     O20544  11.523   6.677  11.145 -0.2094  0.6534 -0.0257
  153MOL0     C20545  11.577   6.779  11.218  0.3640  0.9198  0.2288
  153MOL0     C20546  11.691   6.756  11.295  0.4073 -0.7163  0.7336
  153MOL0     C20547  11.752   6.844  11.379  0.1771 -1.3135 -0.3875
  153MOL0     C20548  11.875   6.789  11.456  0.4924  0.1054  0.6137
  153MOL0     C20549  11.689   6.970  11.405  0.2203  0.2523 -0.3773
  153MOL0     C20550  11.735   7.064  11.507  0.1807 -0.4262  0.9655
  153MOL0     O20551  11.646   7.143  11.572 -0.5338  0.6333  0.3846
  153MOL0     C20552  11.689   7.248  11.650 -0.2673  0.9900 -0.6229
  153MOL0     C20553  11.729   7.369  11.591 -0.5027  0.5274  0.0420
  153MOL0     C20554  11.762   7.474  11.671  1.0132 -0.3028  0.0942
  153MOL0     C20555  11.735   7.466  11.809 -1.0501 -0.7282 -0.1085
  153MOL0     O20556  11.762   7.573  11.894  0.4427 -0.3027 -0.5319
  153MOL0     C20557  11.759   7.712  11.847  0.6240  1.2651  0.2178
  153MOL0     C20558  11.905   7.749  11.838  0.1182  0.0452 -0.1425
  153MOL0     C20559  11.922   7.903  11.845  0.4593  0.5213 -0.6306
  153MOL0     C20560  12.070   7.946  11.847 -0.0736  0.3051 -0.2219
  153MOL0     C20561  12.096   8.089  11.901 -0.4417  0.4597 -0.0540
  153MOL0     C20562  12.254   8.115  11.899 -0.3190 -0.3095  0.1907
  153MOL0     C20563  12.296   8.252  11.961  0.1193 -0.3816  0.8460
  153MOL0     C20564  12.443   8.290  11.932  0.7543  0.3027 -0.1911
  153MOL0    Cl20565  12.561   8.185  12.004 -0.0776 -0.0334  0.1702
  153MOL0     C20566  11.689   7.355  11.868  0.5381 -0.6193  0.4576
  153MOL0     C20567  11.659   7.248  11.788  0.0288 -0.3546  0.0514
  153MOL0     O20568  11.855   7.066  11.508 -1.1234 -0.4346 -0.4799
  153MOL0     C20569  11.576   6.998  11.331 -0.1373 -0.7696  0.0369
  153MOL0     C20570  11.521   6.900  11.239  0.8489 -0.4062 -0.3900
  153MOL0     N20571  11.203   6.271  11.171  0.2519 -0.0355 -0.2389
  153MOL0     N20572  11.137   6.159  11.191 -0.2240  0.3192 -0.2960
  153MOL0     C20573   9.888   5.977  11.154  0.2723 -0.5771 -0.0957
  153MOL0     C20574   9.767   5.940  11.115  0.2238 -0.3698  0.3426
  153MOL0     C20575   9.478   5.755  10.798 -0.1149 -0.5404 -0.0171
  153MOL0     C20576   9.421   5.726  10.668  0.5002 -0.6922  0.4251
  153MOL0     C20577   9.311   5.636  10.660 -0.4388 -0.3823 -0.0919
  153MOL0     C20578   9.261   5.563  10.771 -0.6410 -0.3039  0.1346
  153MOL0     O20579   9.159   5.478  10.771 -0.2477  0.5005  0.1418
  153MOL0     C20580   9.137   5.397  10.651  0.6660  0.2804 -0.1621
  153MOL0     C20581   8.993   5.396  10.600 -0.2769 -0.2394 -0.1053
  153MOL0     C20582   8.982   5.276  10.517 -0.5610 -1.1428  0.0653
  153MOL0     C20583   8.955   5.144  10.589  0.0822  0.2835 -0.8668
  153MOL0     C20584   8.820   5.157  10.658 -0.2106  0.3741  0.1236
  153MOL0     C20585   8.705   5.139  10.705 -0.1771 -0.3728  0.3096
  153MOL0     C20586   9.322   5.600  10.896 -0.2174  0.3634  0.1424
  153MOL0     C20587   9.422   5.694  10.911  0.1054 -0.6080  0.4015
  153MOL0     H20588   9.836   5.892  10.780 -2.2503 -2.4064  0.4594
  153MOL0     H20589  10.070   5.943  10.867 -0.9452 -3.0074 -1.5798
  153MOL0     H20590  10.221   6.121  10.958  0.1640 -0.9182  0.0462
  153MOL0     H20591  10.108   6.221  11.049 -2.0254 -0.3729  2.7395
  153MOL0     H20592  10.342   6.251  11.118 -1.1623  0.0970 -1.1562
  153MOL0     H20593  10.230   6.197  11.251  0.1480 -0.6786  0.0491
  153MOL0     H20594  10.329   5.958  11.210  3.0339 -1.8324  0.2543
  153MOL0     H20595  10.426   6.044  11.084 -2.7394  3.3132 -2.4977
  153MOL0     H20596  10.531   6.197  11.261 -2.8611  1.2273  0.1903
  153MOL0     H20597  10.453   6.113  11.385 -0.6858 -0.4242  0.2700
  153MOL0     H20598  10.683   6.005  11.379  0.4751 -0.3851 -0.0970
  153MOL0     H20599  10.577   5.895  11.313 -1.4386  0.0464  0.0698
  153MOL0     H20600  10.759   5.887  11.168 -0.5681 -0.0890  0.6616
  153MOL0     H20601  10.637   5.984  11.079  0.5173 -2.1210 -0.7735
  153MOL0     H20602  10.852   6.078  11.044 -1.6241 -1.2507  0.0482
  153MOL0     H20603  10.768   6.198  11.134  1.6233  0.8762 -0.1312
  153MOL0     H20604  10.961   5.986  11.256  1.2236  1.0323 -0.7428
  153MOL0     H20605  10.870   6.085  11.360  0.2820 -0.4728 -0.0603
  153MOL0     H20606  10.905   6.375  11.279  0.6843  1.0086 -1.1223
  153MOL0     H20607  11.067   6.558  11.081  1.0976  2.0248 -1.2961
  153MOL0     H20608  11.124   6.580  11.246 -1.5196  0.8127 -1.5579
  153MOL0     H20609  11.284   6.472  11.028 -1.2736 -2.1484  1.4070
  153MOL0     H20610  11.348   6.517  11.191 -2.4326 -0.6480  1.8127
  153MOL0     H20611  11.276   6.761  11.152  0.0419 -0.0743 -1.1073
  153MOL0     H20612  11.234   6.712  10.983 -1.1399 -3.4353  0.0157
  153MOL0     H20613  11.446   6.825  11.007  1.2610  0.0707 -0.5622
  153MOL0     H20614  11.459   6.658  10.942 -1.8364 -1.2714 -0.0052
  153MOL0     H20615  11.729   6.655  11.284 -1.2595 -1.1899 -1.4302
  153MOL0     H20616  11.965   6.836  11.416  1.8646 -3.1161 -0.4900
  153MOL0     H20617  11.867   6.795  11.565  1.0051 -1.7157  0.7935
  153MOL0     H20618  11.887   6.683  11.430 -1.5382 -1.2720  4.4153
  153MOL0     H20619  11.730   7.386  11.484  0.0471  4.0670  0.4888
  153MOL0     H20620  11.794   7.570  11.631 -1.2390  0.6442  0.4297
  153MOL0     H20621  11.716   7.737  11.750  1.8003 -2.2263 -1.3323
  153MOL0     H20622  11.714   7.765  11.932 -0.2918 -1.1092  1.2916
  153MOL0     H20623  11.971   7.705  11.913 -1.6238  0.5897  1.7909
  153MOL0     H20624  11.943   7.701  11.747 -2.1349 -0.2839 -0.9738
  153MOL0     H20625  11.870   7.927  11.939  3.4486 -2.7897  2.1490
  153MOL0     H20626  11.866   7.954  11.767 -0.1901 -1.4432 -1.4932
  153MOL0     H20627  12.124   7.876  11.911 -0.3555 -0.0061 -0.3212
  153MOL0     H20628  12.114   7.935  11.747 -1.0708 -2.2827 -0.4749
  153MOL0     H20629  12.058   8.104  12.002 -0.8092  4.1725 -0.5915
  153MOL0     H20630  12.042   8.164  11.842 -2.6878 -1.6425 -0.8456
  153MOL0     H20631  12.307   8.040  11.958  0.6115  2.4350  3.1562
  153MOL0     H20632  12.285   8.095  11.796 -0.4036 -3.2235  0.6474
  153MOL0     H20633  12.264   8.255  12.066 -0.5225 -1.1010  0.6838
  153MOL0     H20634  12.237   8.329  11.911 -1.5522 -0.6407  2.3038
  153MOL0     H20635  12.468   8.393  11.959  2.0595  0.1899 -0.8825
  153MOL0     H20636  12.441   8.291  11.823  0.0507  1.4942 -0.1845
  153MOL0     H20637  11.690   7.360  11.976  2.6011  3.1592  0.4418
  153MOL0     H20638  11.621   7.153  11.822  1.5980 -0.9929  0.1024
  153MOL0     H20639  11.532   7.097  11.333 -0.3640 -0.8547 -0.4378
  153MOL0     H20640  11.430   6.931  11.189  1.7902  0.9575 -1.3277
  153MOL0     H20641   9.899   6.013  11.255  0.4734 -2.6296  0.6445
  153MOL0     H20642   9.679   5.940  11.180  1.1544 -1.5424  1.6871
  153MOL0     H20643   9.465   5.756  10.573  0.3054 -5.0275 -1.2488
  153MOL0     H20644   9.265   5.632  10.562 -0.7386  1.8874 -0.1012
  153MOL0     H20645   9.202   5.424  10.567 -0.8794 -1.5714 -2.0571
  153MOL0     H20646   9.161   5.295  10.679 -1.7176 -0.2988  0.0176
  153MOL0     H20647   8.977   5.486  10.540 -0.6483 -0.4374 -0.3047
  153MOL0     H20648   8.922   5.400  10.683 -2.5997  1.9757 -2.0799
  153MOL0     H20649   9.076   5.264  10.462 -0.8123 -0.3443 -0.5603
  153MOL0     H20650   8.904   5.297  10.443  0.7850  0.0140 -1.0952
  153MOL0     H20651   9.035   5.113  10.658 -1.5227 -1.3697  0.3444
  153MOL0     H20652   8.945   5.072  10.507  0.8090  0.2380 -0.9225
  153MOL0     H20653   8.611   5.142  10.756 -0.9696  1.6835 -1.1197
  153MOL0     H20654   9.295   5.551  10.989 -1.6153  1.3929  0.3213
  153MOL0     H20655   9.463   5.696  11.011  1.8328 -1.9146 -0.2342
  154MOL0     O20656   0.196   9.746   0.205 -0.5092  0.2474 -0.0476
  154MOL0     C20657   0.283   9.753   0.118 -0.5469  0.1986 -0.1215
  154MOL0     O20658   0.366   9.860   0.089 -0.1717  0.0630  0.3971
  154MOL0     C20659   0.385   9.965   0.175  0.4951  0.6125 -0.3053
  154MOL0     C20660   0.518   9.998   0.213  0.3016 -0.3766 -0.2786
  154MOL0     C20661   0.541  10.109   0.303 -1.1183 -1.2725  0.4917
  154MOL0     C20662   0.438  10.176   0.365  0.4843  0.0090 -0.5582
  154MOL0     O20663   0.463  10.275   0.462 -0.0366 -0.3217 -0.3737
  154MOL0     C20664   0.411  10.413   0.435  0.2370 -0.4255 -0.0229
  154MOL0     C20665   0.458  10.527   0.526  1.1321  0.2651  0.2645
  154MOL0     C20666   0.586  10.595   0.474 -0.5776  0.7982  0.4865
  154MOL0     C20667   0.568  10.741   0.460 -0.1843 -0.2403 -0.1153
  154MOL0     C20668   0.696  10.815   0.456  0.0310  0.2665  0.7238
  154MOL0     C20669   0.685  10.968   0.441 -0.5503  0.2147  0.4388
  154MOL0     C20670   0.828  11.025   0.443 -0.0883 -0.8266 -0.5697
  154MOL0     C20671   0.893  11.018   0.586  0.2165 -0.1892 -0.7740
  154MOL0     N20672   1.004  11.093   0.608  0.2017 -0.1196  0.8585
  154MOL0     C20673   1.118  11.069   0.532 -0.7774  0.1760  0.4072
  154MOL0     C20674   1.199  11.172   0.565  0.0088  0.7568  0.5349
  154MOL0     C20675   1.326  11.208   0.496 -0.4549 -0.1019  0.3675
  154MOL0     C20676   1.318  11.350   0.449 -0.0188  0.8773 -0.7900
  154MOL0     C20677   1.445  11.402   0.385  0.8507  0.1088 -0.3129
  154MOL0     C20678   1.444  11.552   0.375  0.2325 -0.0875  0.5758
  154MOL0     O20679   1.484  11.604   0.505  0.2286 -0.4038  0.4210
  154MOL0     C20680   1.472  11.735   0.524  0.8585 -0.0000 -0.0378
  154MOL0     C20681   1.511  11.774   0.649 -0.7525 -0.5041  0.9826
  154MOL0     C20682   1.497  11.905   0.693 -0.4689 -0.2219 -0.3777
  154MOL0     C20683   1.527  11.937   0.841 -0.0070 -0.5588 -0.0287
  154MOL0     C20684   1.470  12.008   0.603  0.8373  1.2616 -0.2372
  154MOL0     C20685   1.442  12.148   0.636 -0.5417 -0.8106 -0.1356
  154MOL0     O20686   1.463  12.244   0.534  0.6266  0.5874 -0.3761
  154MOL0     C20687   1.479  12.371   0.587  0.2983 -0.0906  0.2573
  154MOL0     C20688   1.393  12.473   0.557 -0.3550  0.1681  0.0188
  154MOL0     C20689   1.410  12.611   0.591 -0.1514  0.9196  0.1361
  154MOL0     C20690   1.523  12.649   0.668  0.7445  0.1783 -1.4230
  154MOL0     O20691   1.531  12.781   0.709  0.3688 -0.3995 -0.3292
  154MOL0     C20692   1.649  12.841   0.757 -0.5487  0.3544 -0.0562
  154MOL0     C20693   1.610  12.971   0.828 -0.1411  0.3579  0.6385
  154MOL0     C20694   1.616  13.098   0.734 -0.3211  0.0068 -0.0692
  154MOL0     C20695   1.757  13.141   0.683  0.0566 -0.6484 -1.1406
  154MOL0     C20696   1.747  13.286   0.640 -0.4028  0.1718 -0.6762
  154MOL0     C20697   1.875  13.346   0.611 -0.1841  0.5528  0.8787
  154MOL0     C20698   1.858  13.463   0.516  0.0817  0.4034  0.6993
  154MOL0     C20699   1.764  13.558   0.561 -0.4303 -0.8726 -0.3194
  154MOL0    Cl20700   1.769  13.714   0.482 -0.0971  0.1540  0.5148
  154MOL0     C20701   1.619  12.547   0.704  0.7389  0.2285  0.2983
  154MOL0     C20702   1.597  12.409   0.656  0.7859 -0.5329  0.7965
  154MOL0     O20703   1.415  12.176   0.756  0.8355  0.7483  0.4559
  154MOL0     C20704   1.440  11.972   0.475 -0.2239 -0.5107  0.1445
  154MOL0     C20705   1.439  11.837   0.441 -0.1091 -0.7930  0.6982
  154MOL0     N20706   1.136  11.250   0.657 -0.2046  0.7570 -0.7786
  154MOL0     N20707   1.018  11.197   0.690  0.3137 -0.9171  0.0266
  154MOL0     C20708   0.307  10.140   0.325 -0.1021  0.0891 -0.1110
  154MOL0     C20709   0.280  10.038   0.236 -0.1307 -0.2964 -0.1561
  154MOL0     C20710   0.291   9.639   0.023  0.5211  1.1229  0.2837
  154MOL0     C20711   0.215   9.510   0.027 -1.1287 -0.7319  0.3526
  154MOL0     C20712   0.238   9.416  -0.075 -0.0482 -0.1730  0.1552
  154MOL0     C20713   0.317   9.446  -0.186 -0.6411  0.0093  1.3007
  154MOL0     O20714   0.328   9.348  -0.279  0.1714  0.0852  0.6699
  154MOL0     C20715   0.411   9.237  -0.241 -0.0092  0.2310 -1.2799
  154MOL0     C20716   0.339   9.107  -0.273  0.7687 -0.1832  0.0070
  154MOL0     C20717   0.349   9.061  -0.418  0.5344  0.2237 -0.0568
  154MOL0     C20718   0.299   8.916  -0.446  0.6247  0.2137 -0.9494
  154MOL0     C20719   0.166   8.893  -0.385  0.0247  0.4205  0.4991
  154MOL0     C20720   0.066   8.872  -0.325 -0.0407  0.2440  0.4249
  154MOL0     C20721   0.398   9.563  -0.190 -0.4665  0.0433  1.5326
  154MOL0     C20722   0.382   9.657  -0.088  0.6409  0.5680 -0.9105
  154MOL0     H20723   0.600   9.947   0.165 -0.8720 -1.0208 -1.6636
  154MOL0     H20724   0.642  10.136   0.332 -0.6955 -4.0395  2.0562
  154MOL0     H20725   0.442  10.436   0.333  1.5344 -0.5334  0.3273
  154MOL0     H20726   0.302  10.409   0.449  0.4777  0.3552  2.6100
  154MOL0     H20727   0.375  10.599   0.526  0.6501 -0.1923 -2.5492
  154MOL0     H20728   0.467  10.483   0.626 -0.8799  0.4771  0.5811
  154MOL0     H20729   0.662  10.569   0.548 -1.0144 -2.6395 -0.0978
  154MOL0     H20730   0.618  10.557   0.377  3.1064 -0.3678  1.9734
  154MOL0     H20731   0.510  10.767   0.371 -0.0868  0.3835  0.0054
  154MOL0     H20732   0.511  10.774   0.548 -4.8268  0.3267 -3.0029
  154MOL0     H20733   0.755  10.790   0.544  0.5935 -1.1404 -0.0082
  154MOL0     H20734   0.751  10.783   0.366 -1.1317 -0.2346  0.1625
  154MOL0     H20735   0.644  10.983   0.341  1.5656  0.3749 -0.4519
  154MOL0     H20736   0.624  11.007   0.523 -1.2852 -0.5190  0.2541
  154MOL0     H20737   0.896  10.985   0.368  0.2629  2.9935 -2.5459
  154MOL0     H20738   0.824  11.132   0.417  0.8856 -0.4285  0.8017
  154MOL0     H20739   0.924  10.918   0.620  0.7318  0.1522 -0.2128
  154MOL0     H20740   0.809  11.052   0.647 -0.1322 -1.8790 -0.2553
  154MOL0     H20741   1.130  10.989   0.460  2.4444  0.9457 -0.0379
  154MOL0     H20742   1.414  11.186   0.557 -0.1509  0.1419  0.0174
  154MOL0     H20743   1.331  11.144   0.407 -0.0271  1.9706 -1.1482
  154MOL0     H20744   1.304  11.407   0.540  1.2768 -1.1905  0.7876
  154MOL0     H20745   1.230  11.369   0.386 -0.2967  2.8285  0.1467
  154MOL0     H20746   1.435  11.366   0.282 -1.6148  2.1999 -0.9084
  154MOL0     H20747   1.540  11.372   0.432  1.7890 -0.5525 -2.5032
  154MOL0     H20748   1.341  11.579   0.346 -0.6407 -2.6685  1.0480
  154MOL0     H20749   1.520  11.579   0.302  0.4628  1.1276  1.2427
  154MOL0     H20750   1.548  11.701   0.721 -2.9176 -0.7837  1.9059
  154MOL0     H20751   1.433  11.969   0.886  1.5125  1.3761  2.0141
  154MOL0     H20752   1.563  11.846   0.891  2.2523 -1.5914 -3.1713
  154MOL0     H20753   1.600  12.015   0.864  0.0557 -0.3497 -0.9031
  154MOL0     H20754   1.298  12.443   0.512 -1.1661  1.3760  0.8557
  154MOL0     H20755   1.346  12.696   0.570 -0.4210  1.1775  1.8885
  154MOL0     H20756   1.698  12.771   0.825  0.6745 -1.3141 -2.4987
  154MOL0     H20757   1.711  12.866   0.671 -1.8608  1.5084 -0.6997
  154MOL0     H20758   1.512  12.967   0.877  0.6647  1.6745  2.4772
  154MOL0     H20759   1.676  12.986   0.913  1.7869 -3.4361 -0.0004
  154MOL0     H20760   1.562  13.180   0.782 -0.7872  0.0025 -0.5834
  154MOL0     H20761   1.566  13.072   0.641  0.4609  2.6836 -1.3334
  154MOL0     H20762   1.836  13.135   0.758 -1.8439 -2.6798  0.8247
  154MOL0     H20763   1.786  13.071   0.604 -4.3179 -2.6989 -1.2405
  154MOL0     H20764   1.700  13.341   0.722  0.2738  0.1022 -0.2403
  154MOL0     H20765   1.680  13.292   0.554  2.7771  0.3774 -3.3081
  154MOL0     H20766   1.928  13.373   0.702  1.8027  1.2884 -0.4479
  154MOL0     H20767   1.947  13.279   0.564 -0.5818 -0.1750  1.2845
  154MOL0     H20768   1.838  13.432   0.414  2.7090 -1.4197  0.6483
  154MOL0     H20769   1.956  13.513   0.516  0.4342 -0.1692 -1.5703
  154MOL0     H20770   1.796  13.578   0.664 -0.2705 -0.5466 -0.4322
  154MOL0     H20771   1.661  13.522   0.552  0.1633 -2.1187 -3.9868
  154MOL0     H20772   1.706  12.551   0.769 -1.1008 -0.9661  3.0019
  154MOL0     H20773   1.676  12.335   0.673  0.7530 -0.6659  0.3745
  154MOL0     H20774   1.398  12.038   0.400  0.2495  1.2118  1.3496
  154MOL0     H20775   1.406  11.823   0.339  0.0432  2.4017  0.0958
  154MOL0     H20776   0.219  10.198   0.351  0.3058  0.9252 -0.5641
  154MOL0     H20777   0.178  10.013   0.208  0.0278 -0.8644 -0.2434
  154MOL0     H20778   0.155   9.469   0.107  0.3102 -1.3882  1.1315
  154MOL0     H20779   0.180   9.326  -0.057  0.0514  0.1400  2.2955
  154MOL0     H20780   0.507   9.231  -0.293  1.3482 -3.9781  1.2442
  154MOL0     H20781   0.425   9.242  -0.133 -3.3242  1.1862 -0.7544
  154MOL0     H20782   0.232   9.120  -0.259  0.6174 -0.0856 -1.2007
  154MOL0     H20783   0.376   9.034  -0.199  0.6314 -1.7779 -1.4372
  154MOL0     H20784   0.454   9.069  -0.449  0.5530 -0.2972 -0.1350
  154MOL0     H20785   0.292   9.124  -0.486 -0.2425 -0.6091 -0.1958
  154MOL0     H20786   0.380   8.858  -0.400  0.5280 -3.4869 -4.7725
  154MOL0     H20787   0.297   8.891  -0.553  0.3602  1.3680 -1.2335
  154MOL0     H20788  -0.027   8.866  -0.271 -0.3356  3.0903  0.3863
  154MOL0     H20789   0.469   9.577  -0.270  0.1858 -1.6962  1.7802
  154MOL0     H20790   0.444   9.746  -0.084 -1.3420  1.9796  1.7941
  155MOL0     O20791   4.987   9.422   3.199  0.5890  0.3015 -0.6222
  155MOL0     C20792   5.014   9.342   3.110  0.9519  0.1060 -0.3915
  155MOL0     O20793   4.924   9.254   3.057 -0.3138  0.0571 -0.2557
  155MOL0     C20794   4.800   9.247   3.102  0.0118 -1.0584 -0.4052
  155MOL0     C20795   4.754   9.176   3.210 -1.1102 -0.0994  0.5419
  155MOL0     C20796   4.629   9.192   3.264 -0.3440  0.2110 -0.3318
  155MOL0     C20797   4.533   9.280   3.207  0.1952 -0.0501 -0.2296
  155MOL0     O20798   4.407   9.286   3.261 -0.5177  0.5972  0.0272
  155MOL0     C20799   4.316   9.380   3.202  0.2587  0.2519 -0.3585
  155MOL0     C20800   4.201   9.427   3.294 -0.2936 -0.6130 -0.0848
  155MOL0     C20801   4.108   9.317   3.326  0.6620  1.0213  0.3955
  155MOL0     C20802   4.003   9.356   3.423 -0.7493 -0.4095  0.0121
  155MOL0     C20803   3.933   9.230   3.476  0.4744  0.6404  0.1520
  155MOL0     C20804   3.817   9.268   3.563  0.3759  0.1296 -0.5252
  155MOL0     C20805   3.751   9.135   3.612  0.5152 -0.1958 -0.1535
  155MOL0     C20806   3.643   9.163   3.719 -0.2092 -0.1270 -0.1833
  155MOL0     N20807   3.525   9.200   3.640  0.0725  0.0253  0.1606
  155MOL0     C20808   3.437   9.103   3.598  0.9631  0.3629  0.3577
  155MOL0     C20809   3.335   9.176   3.540 -0.0134  0.0219 -0.7979
  155MOL0     C20810   3.228   9.096   3.454  0.3805 -0.4527 -0.0428
  155MOL0     C20811   3.110   9.043   3.535 -0.5782 -0.4204  0.1208
  155MOL0     C20812   3.026   8.946   3.445 -0.5916  0.0200  0.2806
  155MOL0     C20813   2.921   8.867   3.526  0.5234 -0.7977 -0.3552
  155MOL0     O20814   2.871   8.777   3.428 -0.3289 -0.5283  0.2974
  155MOL0     C20815   2.738   8.739   3.420  0.5968  0.0612  1.1011
  155MOL0     C20816   2.697   8.663   3.312 -0.6319 -0.5667  0.2054
  155MOL0     C20817   2.571   8.615   3.288  0.1091 -0.1649 -0.6330
  155MOL0     C20818   2.557   8.523   3.162 -0.1295 -0.3178 -0.3694
  155MOL0     C20819   2.468   8.646   3.383 -0.5451 -0.0276 -0.4505
  155MOL0     C20820   2.328   8.596   3.379  0.3480 -0.2539  0.0174
  155MOL0     O20821   2.231   8.662   3.443  0.0921  0.0866  0.2396
  155MOL0     C20822   2.103   8.633   3.407  0.5419  0.7987 -0.4310
  155MOL0     C20823   2.025   8.707   3.315 -0.4703 -0.6316 -0.6474
  155MOL0     C20824   1.892   8.676   3.283 -0.9163 -0.5434  0.0022
  155MOL0     C20825   1.829   8.568   3.340 -0.2753  0.5813 -0.1959
  155MOL0     O20826   1.710   8.522   3.298  0.7400 -0.3919 -0.5011
  155MOL0     C20827   1.618   8.600   3.222  0.2508 -0.7661 -0.7988
  155MOL0     C20828   1.489   8.506   3.208 -0.2682  0.3537  0.1178
  155MOL0     C20829   1.498   8.394   3.099 -0.0283 -0.0023 -0.0809
  155MOL0     C20830   1.531   8.261   3.163  0.4503 -0.2954 -1.2054
  155MOL0     C20831   1.431   8.194   3.238 -0.0331  1.3697  0.2832
  155MOL0     C20832   1.329   8.132   3.147 -0.2649  0.0984 -0.5822
  155MOL0     C20833   1.189   8.122   3.227  0.0915  0.0482 -0.2811
  155MOL0     C20834   1.118   8.256   3.273  0.1426  0.4298  1.0080
  155MOL0    Cl20835   1.108   8.386   3.142  0.3840 -0.2628 -0.2411
  155MOL0     C20836   1.906   8.488   3.431 -0.3848  0.5063  0.6711
  155MOL0     C20837   2.039   8.526   3.465  0.6195 -0.3120 -0.1061
  155MOL0     O20838   2.303   8.500   3.305 -0.2788  0.0515 -0.0574
  155MOL0     C20839   2.506   8.720   3.493  0.3589 -0.6653  0.7166
  155MOL0     C20840   2.641   8.768   3.509  0.4016 -1.0904  0.0969
  155MOL0     N20841   3.353   9.313   3.578  0.4835  0.3143  0.3622
  155MOL0     N20842   3.470   9.318   3.633 -0.1214 -0.1007 -0.7136
  155MOL0     C20843   4.567   9.321   3.074 -0.3257 -0.4727  0.5275
  155MOL0     C20844   4.703   9.318   3.033 -0.6190 -0.3784  0.1718
  155MOL0     C20845   5.152   9.341   3.072  0.4170  0.1195 -0.3647
  155MOL0     C20846   5.252   9.411   3.147  1.0970  0.3268 -0.2425
  155MOL0     C20847   5.381   9.402   3.107 -0.2214 -0.0574 -0.3393
  155MOL0     C20848   5.428   9.324   3.003 -0.0920 -0.0469 -0.3010
  155MOL0     O20849   5.564   9.335   2.975 -0.4314 -0.4942  0.0770
  155MOL0     C20850   5.617   9.276   2.860  0.3125  0.7947  1.2510
  155MOL0     C20851   5.632   9.382   2.743  0.1325  0.1513 -0.4595
  155MOL0     C20852   5.717   9.322   2.622  0.2293  0.6988 -0.0859
  155MOL0     C20853   5.862   9.350   2.626 -0.2367 -0.4444  0.7640
  155MOL0     C20854   5.937   9.271   2.727 -0.2419 -0.6443 -0.1102
  155MOL0     C20855   5.989   9.209   2.822  0.1784 -0.6628 -0.6004
  155MOL0     C20856   5.325   9.261   2.926  0.1936 -0.2231 -0.2592
  155MOL0     C20857   5.191   9.257   2.965  1.1640 -0.3042  0.3278
  155MOL0     H20858   4.822   9.102   3.253  0.2145 -0.4619 -1.9687
  155MOL0     H20859   4.588   9.144   3.352 -1.6623  0.0401 -1.0151
  155MOL0     H20860   4.354   9.477   3.168  1.9917 -0.1556  0.3350
  155MOL0     H20861   4.264   9.327   3.121  2.9422  0.4923 -2.3610
  155MOL0     H20862   4.246   9.462   3.387 -2.4054 -1.7197  1.4382
  155MOL0     H20863   4.153   9.517   3.253 -0.3486  0.4407  2.1120
  155MOL0     H20864   4.066   9.275   3.234  2.0188 -0.2533  0.3231
  155MOL0     H20865   4.169   9.241   3.375 -0.1719 -0.9131 -1.3994
  155MOL0     H20866   4.046   9.422   3.499  0.1644 -2.1537  1.0560
  155MOL0     H20867   3.931   9.413   3.363 -0.7898 -1.2156 -0.7227
  155MOL0     H20868   3.907   9.184   3.380  1.1298 -1.1823  0.7952
  155MOL0     H20869   4.002   9.168   3.534 -1.4815 -0.5763  1.3135
  155MOL0     H20870   3.848   9.329   3.649 -1.3491  1.3442 -0.6970
  155MOL0     H20871   3.750   9.331   3.503 -0.0130 -0.1348 -0.3704
  155MOL0     H20872   3.705   9.087   3.525  1.4581 -0.2168 -0.6458
  155MOL0     H20873   3.825   9.070   3.659 -2.2479 -1.6362  2.6650
  155MOL0     H20874   3.665   9.241   3.792 -5.1857  2.1937 -0.6904
  155MOL0     H20875   3.630   9.067   3.770 -0.6141  0.2914  0.5173
  155MOL0     H20876   3.472   9.001   3.591  3.6523  1.2913 -2.5822
  155MOL0     H20877   3.192   9.153   3.368  1.1270 -0.6568 -0.5075
  155MOL0     H20878   3.276   9.013   3.400 -1.6449 -0.6119 -1.7278
  155MOL0     H20879   3.040   9.125   3.555 -1.5938 -0.8111 -1.5891
  155MOL0     H20880   3.153   8.996   3.623  1.9798  1.2550 -0.1216
  155MOL0     H20881   3.086   8.869   3.396 -2.3954 -1.1314 -0.2113
  155MOL0     H20882   2.980   9.009   3.368  1.5138  0.1872 -0.9426
  155MOL0     H20883   2.861   8.940   3.581  3.3609  0.3568  1.4659
  155MOL0     H20884   2.984   8.818   3.601 -1.0574 -0.8151  1.0175
  155MOL0     H20885   2.775   8.631   3.243 -1.3367  1.2946 -1.5494
  155MOL0     H20886   2.503   8.573   3.081 -3.3149 -4.5450 -1.1824
  155MOL0     H20887   2.655   8.486   3.128 -0.8829 -2.1499 -0.6541
  155MOL0     H20888   2.487   8.441   3.180 -2.9345  2.4597  2.9240
  155MOL0     H20889   2.070   8.797   3.273 -1.4743  0.2974  0.2250
  155MOL0     H20890   1.855   8.750   3.212 -0.6371 -1.9897 -1.7182
  155MOL0     H20891   1.597   8.692   3.277  0.3683 -0.0851 -1.8613
  155MOL0     H20892   1.666   8.625   3.127 -0.6899  1.1083 -0.8209
  155MOL0     H20893   1.470   8.460   3.305 -0.3815 -0.7060 -0.3879
  155MOL0     H20894   1.410   8.569   3.166 -0.8230  0.2081  0.9259
  155MOL0     H20895   1.569   8.421   3.020  1.9003 -0.6431  1.3554
  155MOL0     H20896   1.398   8.398   3.055 -0.1825  1.9280  0.3721
  155MOL0     H20897   1.567   8.201   3.079  1.3400 -0.3922 -0.7686
  155MOL0     H20898   1.617   8.279   3.228 -2.0462  2.7871  1.5941
  155MOL0     H20899   1.380   8.262   3.308  0.6174 -0.7247  2.9565
  155MOL0     H20900   1.477   8.108   3.288 -0.9423  1.0214  0.5479
  155MOL0     H20901   1.295   8.192   3.062 -2.1994  0.7723  0.6001
  155MOL0     H20902   1.355   8.032   3.109 -0.2481 -0.3643  0.6096
  155MOL0     H20903   1.213   8.059   3.313 -1.7534  1.0018  1.0106
  155MOL0     H20904   1.118   8.057   3.173  0.0507 -2.7472  2.8245
  155MOL0     H20905   1.182   8.298   3.352 -1.8907  3.3131  1.2523
  155MOL0     H20906   1.017   8.252   3.313 -0.2199  2.2591  0.3755
  155MOL0     H20907   1.847   8.405   3.470 -1.8987  0.4354 -1.5467
  155MOL0     H20908   2.091   8.462   3.535  0.3127  0.6462  1.0505
  155MOL0     H20909   2.434   8.747   3.570 -0.3442  1.6293 -0.6377
  155MOL0     H20910   2.666   8.838   3.588  2.0202 -1.2553 -0.2430
  155MOL0     H20911   4.493   9.377   3.016  1.1046  0.9360 -0.0080
  155MOL0     H20912   4.743   9.363   2.943 -2.4240 -1.9966 -1.5163
  155MOL0     H20913   5.237   9.471   3.237  0.9624  1.1359 -0.7856
  155MOL0     H20914   5.464   9.446   3.160 -0.5686  1.7851 -1.2311
  155MOL0     H20915   5.709   9.236   2.903  0.3398  2.8746  3.3807
  155MOL0     H20916   5.557   9.193   2.823 -2.8086  2.2822  2.6587
  155MOL0     H20917   5.666   9.481   2.774 -3.5120  1.0161  1.2253
  155MOL0     H20918   5.531   9.405   2.709 -0.7367 -1.6754  0.7288
  155MOL0     H20919   5.676   9.376   2.536 -0.0318  3.8014  1.8239
  155MOL0     H20920   5.700   9.215   2.606  1.4900  0.5946 -0.8247
  155MOL0     H20921   5.867   9.455   2.657 -0.0238 -0.5659  1.1545
  155MOL0     H20922   5.908   9.322   2.531 -3.9659  0.7069 -1.5725
  155MOL0     H20923   6.056   9.156   2.887  2.1015  0.6025 -1.4578
  155MOL0     H20924   5.343   9.213   2.830 -0.9974  0.0450 -0.6222
  155MOL0     H20925   5.128   9.190   2.908  0.6971  1.5227 -1.4533
  156MOL0     O20926   4.651   6.037   2.606  0.2123 -0.1503 -0.3209
  156MOL0     C20927   4.754   6.049   2.545 -0.1971  0.1619 -0.8438
  156MOL0     O20928   4.759   6.096   2.417 -0.1921  0.3661 -0.3319
  156MOL0     C20929   4.637   6.140   2.376 -0.1833 -0.1305 -0.1362
  156MOL0     C20930   4.598   6.274   2.401  1.3518 -1.1063 -0.3664
  156MOL0     C20931   4.473   6.324   2.373  0.4001 -0.2473 -0.2220
  156MOL0     C20932   4.385   6.240   2.304  0.2214 -1.0333 -0.1891
  156MOL0     O20933   4.263   6.275   2.261 -0.1810 -0.3648  0.1783
  156MOL0     C20934   4.239   6.417   2.247  0.1779  0.6891  0.0213
  156MOL0     C20935   4.087   6.446   2.256 -0.1862 -0.1991 -0.4062
  156MOL0     C20936   4.041   6.454   2.400 -0.5829 -0.3096 -0.2546
  156MOL0     C20937   3.892   6.476   2.408 -0.2816 -0.2607  0.6207
  156MOL0     C20938   3.839   6.477   2.553  0.1834 -0.3897  1.0093
  156MOL0     C20939   3.700   6.547   2.563 -0.7693  0.1090  0.2736
  156MOL0     C20940   3.652   6.522   2.711  0.8444  0.7467 -0.4460
  156MOL0     C20941   3.542   6.617   2.752  0.8802 -0.9093 -0.1752
  156MOL0     N20942   3.503   6.596   2.892 -0.1814  0.5391  0.2225
  156MOL0     C20943   3.478   6.480   2.959  0.9037  0.1112  0.6308
  156MOL0     C20944   3.439   6.521   3.080  0.1400  0.1998 -0.1835
  156MOL0     C20945   3.392   6.435   3.193  0.6626  1.5331  0.2239
  156MOL0     C20946   3.233   6.440   3.203 -0.2319  0.6832  0.2673
  156MOL0     C20947   3.186   6.378   3.330 -0.4903 -1.2719  0.2541
  156MOL0     C20948   3.208   6.225   3.319  0.8041 -0.1404  0.3701
  156MOL0     O20949   3.094   6.164   3.258  0.3545  0.9375  1.1603
  156MOL0     C20950   2.980   6.151   3.330 -0.5346 -0.7286  0.5277
  156MOL0     C20951   2.865   6.226   3.292  0.3047  0.8362 -0.1711
  156MOL0     C20952   2.742   6.213   3.366  0.4398 -0.1226  0.0345
  156MOL0     C20953   2.618   6.287   3.322 -0.5407  0.5443  0.5671
  156MOL0     C20954   2.733   6.134   3.485 -0.1517  0.4297 -0.0799
  156MOL0     C20955   2.627   6.118   3.585 -0.8590 -0.6592  0.3944
  156MOL0     O20956   2.657   6.043   3.697  0.4194  0.1634  0.6234
  156MOL0     C20957   2.560   6.015   3.790 -0.0652 -0.4733 -0.1090
  156MOL0     C20958   2.472   6.115   3.836 -0.2522  0.1384  0.3313
  156MOL0     C20959   2.391   6.080   3.943 -0.0063 -0.1446  0.2591
  156MOL0     C20960   2.386   5.949   3.999 -0.5394  0.2885  0.0219
  156MOL0     O20961   2.299   5.928   4.103 -0.2780 -0.6949 -0.1310
  156MOL0     C20962   2.225   5.807   4.107 -0.5966 -0.1382 -0.0661
  156MOL0     C20963   2.077   5.833   4.130 -0.1760 -0.0814 -0.0503
  156MOL0     C20964   2.013   5.896   4.011 -0.0536  0.8391  0.4323
  156MOL0     C20965   1.870   5.940   4.040  0.1214 -0.4100  0.0361
  156MOL0     C20966   1.767   5.829   4.035  1.4350  0.4197 -0.2759
  156MOL0     C20967   1.628   5.880   4.018 -0.4734  0.0153 -0.6238
  156MOL0     C20968   1.574   5.989   4.108 -0.3810 -0.3525  0.2725
  156MOL0     C20969   1.531   6.123   4.035 -0.0499  0.1303 -0.5536
  156MOL0    Cl20970   1.383   6.077   3.931 -0.1516  0.2522  0.3577
  156MOL0     C20971   2.477   5.858   3.952 -0.0471 -0.1149  0.4268
  156MOL0     C20972   2.569   5.887   3.852 -0.3335  0.1450  0.3504
  156MOL0     O20973   2.516   6.158   3.554 -0.3291  0.4548  0.7459
  156MOL0     C20974   2.858   6.073   3.524  0.0944 -0.1462  0.0159
  156MOL0     C20975   2.974   6.085   3.451 -0.1881 -0.1189  0.1045
  156MOL0     N20976   3.461   6.655   3.091 -0.7698 -0.2917  0.3768
  156MOL0     N20977   3.501   6.700   2.980  0.1622 -0.1786  0.3814
  156MOL0     C20978   4.422   6.114   2.266  0.4475 -0.5761 -0.7011
  156MOL0     C20979   4.539   6.060   2.318 -0.5966 -0.7631  0.1913
  156MOL0     C20980   4.884   6.001   2.601  1.0953  0.4968  0.1286
  156MOL0     C20981   4.891   5.920   2.715 -0.1329  0.2034 -0.6795
  156MOL0     C20982   5.010   5.872   2.761 -0.6612  0.5747 -0.5444
  156MOL0     C20983   5.128   5.913   2.699  0.4739 -0.2243 -0.9708
  156MOL0     O20984   5.242   5.882   2.768  0.7958 -0.6760 -0.0566
  156MOL0     C20985   5.367   5.882   2.706  0.0219  0.8938 -0.1361
  156MOL0     C20986   5.466   5.787   2.779  0.3461 -0.5296 -0.0501
  156MOL0     C20987   5.616   5.822   2.742  0.1392  0.3336 -0.1459
  156MOL0     C20988   5.699   5.726   2.823  0.4264 -0.0755 -0.1940
  156MOL0     C20989   5.838   5.728   2.776  0.4451 -0.0773 -0.1779
  156MOL0     C20990   5.940   5.724   2.714  0.6816  0.2036 -0.2225
  156MOL0     C20991   5.123   6.002   2.594 -0.5139 -0.2811  0.5635
  156MOL0     C20992   5.002   6.047   2.552  0.2478 -0.0098 -0.1331
  156MOL0     H20993   4.668   6.339   2.452 -1.2263  0.6486  1.1408
  156MOL0     H20994   4.465   6.429   2.398  0.8393 -0.4530  0.8113
  156MOL0     H20995   4.284   6.471   2.330 -0.7724  0.9164  0.4030
  156MOL0     H20996   4.286   6.443   2.151 -0.5781 -0.7876 -0.7836
  156MOL0     H20997   4.074   6.545   2.210 -1.0050 -0.6758 -1.2316
  156MOL0     H20998   4.026   6.386   2.189 -0.8464  2.7487 -2.6853
  156MOL0     H20999   4.091   6.375   2.457  1.2496 -0.1314 -1.5196
  156MOL0     H21000   4.085   6.544   2.445  0.9230 -0.1826 -1.8883
  156MOL0     H21001   3.862   6.566   2.354  2.0364  0.0339 -0.2587
  156MOL0     H21002   3.851   6.383   2.366 -2.3053 -1.0482  3.9665
  156MOL0     H21003   3.836   6.380   2.603 -3.8780 -0.7539  0.3962
  156MOL0     H21004   3.899   6.542   2.619 -3.4262  1.0281  3.1853
  156MOL0     H21005   3.719   6.652   2.539  2.2046 -0.0301  1.6500
  156MOL0     H21006   3.636   6.497   2.490  0.3930  2.8631 -2.8615
  156MOL0     H21007   3.618   6.418   2.713  0.9442  0.6912 -1.2816
  156MOL0     H21008   3.732   6.541   2.783  0.2714  0.2094  0.3442
  156MOL0     H21009   3.458   6.601   2.685 -0.3377 -1.4106  1.3993
  156MOL0     H21010   3.572   6.721   2.739  2.0608 -1.3091 -0.8181
  156MOL0     H21011   3.469   6.380   2.920  1.3660 -0.3559  1.6844
  156MOL0     H21012   3.432   6.333   3.188  0.9262  1.5764  1.3081
  156MOL0     H21013   3.436   6.478   3.283  1.3695  2.3383 -0.4931
  156MOL0     H21014   3.203   6.395   3.108  2.9393  0.8745 -0.9653
  156MOL0     H21015   3.215   6.548   3.205  0.6715  0.8825 -0.8807
  156MOL0     H21016   3.082   6.393   3.359  0.0846 -0.8613  2.3000
  156MOL0     H21017   3.244   6.420   3.413  0.3220  0.8459 -1.2800
  156MOL0     H21018   3.219   6.177   3.417  2.6021  2.0877  1.3591
  156MOL0     H21019   3.296   6.203   3.257  1.6840  4.4935 -0.3869
  156MOL0     H21020   2.881   6.286   3.203  1.7697 -1.6529 -1.6805
  156MOL0     H21021   2.581   6.361   3.395  0.6682  0.1971  1.5649
  156MOL0     H21022   2.638   6.339   3.228  0.0163 -0.8903 -0.1341
  156MOL0     H21023   2.542   6.211   3.301  1.7320 -1.5724 -0.3574
  156MOL0     H21024   2.464   6.214   3.792 -1.5341 -1.0655 -2.3947
  156MOL0     H21025   2.331   6.155   3.994  0.8634 -0.4390  1.7905
  156MOL0     H21026   2.237   5.737   4.024  1.0754  1.0090 -0.8383
  156MOL0     H21027   2.260   5.748   4.192 -3.2497 -0.9579  0.5580
  156MOL0     H21028   2.026   5.742   4.163 -2.1573  1.5391  1.7440
  156MOL0     H21029   2.072   5.902   4.216  1.6480  0.4299 -0.3180
  156MOL0     H21030   2.009   5.827   3.927  1.5822  0.5091  0.5986
  156MOL0     H21031   2.080   5.976   3.979  3.0201 -2.5904 -2.6479
  156MOL0     H21032   1.872   5.986   4.139 -1.3169 -1.3184  0.5042
  156MOL0     H21033   1.834   6.011   3.965 -2.7731 -3.1781 -1.4458
  156MOL0     H21034   1.771   5.756   4.116  0.9184 -0.1141 -0.7244
  156MOL0     H21035   1.777   5.760   3.951 -0.4750 -4.0512  2.8284
  156MOL0     H21036   1.625   5.931   3.921  0.0285  4.1189  1.3040
  156MOL0     H21037   1.556   5.799   4.035 -0.6231  0.3356  0.3190
  156MOL0     H21038   1.650   6.028   4.176  0.1502  3.9500 -2.4084
  156MOL0     H21039   1.480   5.963   4.157 -2.5506  3.2432 -1.5293
  156MOL0     H21040   1.614   6.164   3.976  1.7579 -0.8138  1.2299
  156MOL0     H21041   1.517   6.191   4.119  5.4617 -0.3300  1.1240
  156MOL0     H21042   2.480   5.757   3.990  0.9659  0.6575  2.5557
  156MOL0     H21043   2.638   5.812   3.816  1.6515  1.8133  0.4855
  156MOL0     H21044   2.879   6.009   3.610  0.5961 -0.6581 -0.4781
  156MOL0     H21045   3.058   6.030   3.493 -0.2610  0.5017  1.1031
  156MOL0     H21046   4.365   6.054   2.196  1.5400 -2.2213 -0.2410
  156MOL0     H21047   4.574   5.961   2.288  1.0300 -0.9997  2.5899
  156MOL0     H21048   4.804   5.890   2.772  2.5726  0.3503  4.0387
  156MOL0     H21049   5.009   5.815   2.853  0.0545 -1.9798 -2.0281
  156MOL0     H21050   5.363   5.853   2.601  1.9460 -0.5366  0.1223
  156MOL0     H21051   5.405   5.984   2.717  2.7625 -0.2822  4.6776
  156MOL0     H21052   5.455   5.680   2.763 -0.6694 -0.9943  3.0596
  156MOL0     H21053   5.452   5.791   2.888  4.2470 -0.3176  0.5824
  156MOL0     H21054   5.636   5.928   2.761 -0.5615  0.6696 -1.1527
  156MOL0     H21055   5.639   5.804   2.637  1.8003 -0.5230  0.3319
  156MOL0     H21056   5.661   5.625   2.800 -0.5577  0.6350 -1.9170
  156MOL0     H21057   5.681   5.744   2.929 -0.0398 -2.6391  0.2310
  156MOL0     H21058   6.028   5.727   2.652 -0.7829 -0.8885 -2.5076
  156MOL0     H21059   5.214   6.051   2.558 -1.8886  1.7656 -0.3476
  156MOL0     H21060   4.997   6.119   2.471 -1.0041 -0.6017 -0.6186
  157MOL0     O21061   4.619   4.241   8.806  0.3518 -0.2825  0.7067
  157MOL0     C21062   4.636   4.313   8.905  0.7915 -0.1104 -0.6014
  157MOL0     O21063   4.752   4.338   8.968 -0.1848 -0.2566  0.0011
  157MOL0     C21064   4.873   4.317   8.909  0.3556  0.7916  0.9637
  157MOL0     C21065   4.982   4.312   8.992  0.1983  0.5036  0.0441
  157MOL0     C21066   5.114   4.316   8.937  0.4287  1.3521 -0.7346
  157MOL0     C21067   5.136   4.329   8.800  0.6438 -0.0859  0.3457
  157MOL0     O21068   5.255   4.320   8.739 -0.5733  0.1409  0.2333
  157MOL0     C21069   5.380   4.310   8.820 -0.1037 -0.0914  0.5345
  157MOL0     C21070   5.495   4.321   8.725 -1.4293 -0.9235  0.6841
  157MOL0     C21071   5.521   4.468   8.685  0.5914  0.0908 -1.1421
  157MOL0     C21072   5.606   4.494   8.561 -0.6345 -0.3574 -0.0793
  157MOL0     C21073   5.762   4.490   8.592 -0.2767  0.6705 -0.0627
  157MOL0     C21074   5.832   4.359   8.550 -0.4682 -0.2758 -0.6566
  157MOL0     C21075   5.984   4.371   8.607  0.3735 -0.1938  0.1383
  157MOL0     C21076   6.077   4.253   8.561 -0.5900  0.2935  0.1916
  157MOL0     N21077   6.132   4.259   8.423  0.2850 -0.2432 -0.0029
  157MOL0     C21078   6.056   4.206   8.310 -0.5201 -0.1098  0.3066
  157MOL0     C21079   6.117   4.255   8.201 -0.3094  0.3698 -0.5623
  157MOL0     C21080   6.091   4.220   8.068 -0.3396  0.0145  0.3088
  157MOL0     C21081   5.945   4.171   8.038 -0.7936  0.0155  0.8010
  157MOL0     C21082   5.854   4.295   8.054 -0.9877  0.3949  0.1501
  157MOL0     C21083   5.706   4.260   8.061  0.0713 -0.6694 -0.4618
  157MOL0     O21084   5.676   4.186   8.176 -0.2927  0.1985  0.2397
  157MOL0     C21085   5.547   4.146   8.182  0.4153 -0.2229 -0.1692
  157MOL0     C21086   5.458   4.211   8.265 -0.7601 -0.3588 -0.5363
  157MOL0     C21087   5.324   4.176   8.288  0.3190  0.0024 -0.5821
  157MOL0     C21088   5.256   4.258   8.399  0.2086 -0.0100  0.8760
  157MOL0     C21089   5.269   4.075   8.214  0.4065 -0.3405  0.2216
  157MOL0     C21090   5.125   4.032   8.225  0.6602 -0.7218  0.5742
  157MOL0     O21091   5.031   4.123   8.254 -0.7061 -0.7253  0.5414
  157MOL0     C21092   4.910   4.077   8.276 -0.3643  0.5421  0.0517
  157MOL0     C21093   4.852   4.126   8.388  0.0169 -0.4640  0.4904
  157MOL0     C21094   4.720   4.095   8.425 -0.5012 -0.0134  0.0735
  157MOL0     C21095   4.644   4.023   8.342  0.8445  0.3670  0.1848
  157MOL0     O21096   4.519   3.982   8.384  0.9233  0.0507 -0.5885
  157MOL0     C21097   4.469   3.851   8.353 -0.0104 -0.7783  1.1687
  157MOL0     C21098   4.318   3.851   8.371  0.1216 -0.3533  0.1792
  157MOL0     C21099   4.265   3.883   8.509  0.6497  1.2774 -0.2961
  157MOL0     C21100   4.285   3.765   8.607 -0.1534  0.2998 -0.8249
  157MOL0     C21101   4.281   3.810   8.756  0.7917 -0.1934 -0.2492
  157MOL0     C21102   4.154   3.889   8.789  0.4228  0.6344 -0.4700
  157MOL0     C21103   4.137   3.895   8.937 -0.1816 -0.4781 -1.1817
  157MOL0     C21104   4.144   4.036   8.997  0.3141 -0.2048 -0.0451
  157MOL0    Cl21105   4.047   4.153   8.909  0.2224 -0.2213  0.0916
  157MOL0     C21106   4.695   3.983   8.214 -0.1361 -0.0959  0.1763
  157MOL0     C21107   4.829   4.005   8.186 -0.3004 -0.3415  0.2783
  157MOL0     O21108   5.104   3.922   8.190 -0.6207  0.5868 -0.0924
  157MOL0     C21109   5.354   4.000   8.133  0.2964 -0.3310 -0.1037
  157MOL0     C21110   5.487   4.039   8.114 -0.0168 -0.2697 -0.1631
  157MOL0     N21111   6.204   4.352   8.245  0.3707 -0.2202 -0.5140
  157MOL0     N21112   6.219   4.348   8.373 -0.5595  0.1369 -0.2112
  157MOL0     C21113   5.023   4.317   8.715 -0.3697  0.0068  0.3073
  157MOL0     C21114   4.890   4.318   8.766  0.4770  1.0548  0.0872
  157MOL0     C21115   4.514   4.369   8.965  0.4675 -0.7732 -0.3042
  157MOL0     C21116   4.532   4.469   9.066  0.2451 -0.1999  0.4541
  157MOL0     C21117   4.418   4.544   9.109  0.4741  0.8799  0.8266
  157MOL0     C21118   4.286   4.514   9.068  0.5864  0.7449 -0.9571
  157MOL0     O21119   4.187   4.586   9.128  0.4214  0.6006  0.1918
  157MOL0     C21120   4.060   4.515   9.145  0.5731  0.2952  0.6049
  157MOL0     C21121   3.974   4.591   9.243 -0.5510 -0.2566 -0.3378
  157MOL0     C21122   4.032   4.564   9.390  0.7626  0.1245  0.5897
  157MOL0     C21123   4.008   4.417   9.433 -0.3514  0.2169  0.4496
  157MOL0     C21124   3.868   4.390   9.430  0.1484 -0.0586  0.2925
  157MOL0     C21125   3.751   4.379   9.402 -0.6276 -0.2783  0.7147
  157MOL0     C21126   4.277   4.412   8.976  0.4824 -0.7265 -0.2283
  157MOL0     C21127   4.385   4.342   8.923  0.8027  0.6568  0.5313
  157MOL0     H21128   4.963   4.317   9.099  1.9154 -0.5467  0.4369
  157MOL0     H21129   5.198   4.316   9.005  1.4704 -2.5040 -1.7556
  157MOL0     H21130   5.388   4.382   8.902  1.0926 -0.4207  0.7285
  157MOL0     H21131   5.395   4.213   8.867  0.9882  0.0751  0.5613
  157MOL0     H21132   5.585   4.290   8.778  0.7280  1.9360 -1.0233
  157MOL0     H21133   5.482   4.252   8.641 -0.6849 -1.1866  0.7795
  157MOL0     H21134   5.429   4.524   8.668  1.9317  3.8099  2.0815
  157MOL0     H21135   5.560   4.526   8.770  0.2267  1.3439 -1.7960
  157MOL0     H21136   5.582   4.424   8.480 -3.9279  0.6034 -0.0632
  157MOL0     H21137   5.559   4.578   8.510  1.6271 -0.4454 -2.5696
  157MOL0     H21138   5.801   4.574   8.534  2.3444 -1.2110 -1.2622
  157MOL0     H21139   5.784   4.503   8.699 -1.4225  2.2432  0.0098
  157MOL0     H21140   5.780   4.270   8.586 -0.6407 -0.2927 -0.9470
  157MOL0     H21141   5.831   4.355   8.441 -2.7449  0.0700 -0.7015
  157MOL0     H21142   6.033   4.455   8.557  1.0017 -1.8409 -2.1918
  157MOL0     H21143   5.980   4.395   8.713  1.7951  4.1356 -0.6112
  157MOL0     H21144   6.019   4.160   8.564 -1.2561  0.6480 -1.1301
  157MOL0     H21145   6.164   4.239   8.626  0.9213 -0.6381 -1.9110
  157MOL0     H21146   5.982   4.127   8.313  2.0360 -2.7086  0.1047
  157MOL0     H21147   6.108   4.310   8.008 -5.3463  0.5650 -0.7679
  157MOL0     H21148   6.165   4.145   8.039  2.3310  2.4796  0.3671
  157MOL0     H21149   5.905   4.099   8.110  1.3594 -0.6689  1.3961
  157MOL0     H21150   5.937   4.125   7.940  0.5172  0.7913  0.3079
  157MOL0     H21151   5.872   4.349   7.961  3.6645 -3.5405 -1.6585
  157MOL0     H21152   5.879   4.343   8.149 -0.7912  0.3498  0.1199
  157MOL0     H21153   5.686   4.202   7.970 -0.8298  0.3512 -0.9308
  157MOL0     H21154   5.650   4.354   8.066  2.3270  0.6601  2.0650
  157MOL0     H21155   5.511   4.281   8.329  1.2883 -2.3890  0.1458
  157MOL0     H21156   5.169   4.308   8.357 -0.7590 -1.1627  1.4473
  157MOL0     H21157   5.232   4.193   8.483 -0.2552  1.2348  1.7303
  157MOL0     H21158   5.327   4.331   8.438  0.2649  0.2076  0.3795
  157MOL0     H21159   4.910   4.186   8.457  1.3754 -3.3320  2.0398
  157MOL0     H21160   4.676   4.141   8.513 -0.4109  4.6824 -2.0052
  157MOL0     H21161   4.494   3.832   8.248 -1.0848 -0.9894  0.9409
  157MOL0     H21162   4.516   3.773   8.412  2.0130  0.0850  0.7966
  157MOL0     H21163   4.267   3.919   8.302 -0.3537 -1.2431 -0.3641
  157MOL0     H21164   4.296   3.747   8.344  1.5715 -0.3114 -1.3068
  157MOL0     H21165   4.157   3.898   8.507  0.2239 -0.3720  3.0747
  157MOL0     H21166   4.317   3.972   8.546  0.7044  0.5860  1.4236
  157MOL0     H21167   4.221   3.678   8.594  1.5336 -1.6067  2.5092
  157MOL0     H21168   4.384   3.723   8.587  0.3159 -0.6439  2.8312
  157MOL0     H21169   4.365   3.878   8.767  0.2701  0.8475 -2.1784
  157MOL0     H21170   4.276   3.724   8.823  1.3364  1.3410  1.8677
  157MOL0     H21171   4.158   3.987   8.741 -0.4907  0.0391 -1.8356
  157MOL0     H21172   4.066   3.844   8.743  0.5376  0.4052 -0.4695
  157MOL0     H21173   4.193   3.821   8.996 -2.4898 -0.7204  0.8874
  157MOL0     H21174   4.036   3.859   8.961  0.1322  0.2862  1.6382
  157MOL0     H21175   4.245   4.078   9.000 -0.0868  0.6948  1.9034
  157MOL0     H21176   4.115   4.037   9.102  0.3256  0.7715 -0.0354
  157MOL0     H21177   4.645   3.944   8.127  1.3469  1.2331 -1.3418
  157MOL0     H21178   4.859   3.966   8.089  0.7115  0.3550  0.3023
  157MOL0     H21179   5.322   3.919   8.068 -5.8072 -1.6342  3.7544
  157MOL0     H21180   5.547   3.976   8.049 -0.0496 -0.1842 -0.2755
  157MOL0     H21181   5.043   4.339   8.610 -1.8542  2.0689  0.4046
  157MOL0     H21182   4.810   4.338   8.695  1.2525  1.3171 -0.7367
  157MOL0     H21183   4.630   4.501   9.098  0.3058 -2.0471  2.3544
  157MOL0     H21184   4.447   4.625   9.175 -2.6114  1.1214  2.0811
  157MOL0     H21185   4.014   4.518   9.046  3.3145  1.1659 -0.7497
  157MOL0     H21186   4.072   4.408   9.159 -1.0000 -0.0322 -0.3713
  157MOL0     H21187   3.869   4.561   9.244 -1.3558  2.2180  1.8041
  157MOL0     H21188   3.975   4.697   9.213  0.1824 -0.4143 -0.8808
  157MOL0     H21189   3.982   4.620   9.469 -3.2595 -0.5973 -1.1749
  157MOL0     H21190   4.138   4.587   9.407  1.1330 -0.6227 -0.5659
  157MOL0     H21191   4.041   4.392   9.535  0.0991  0.4167  0.3533
  157MOL0     H21192   4.064   4.352   9.366 -0.3392  0.3052  0.3745
  157MOL0     H21193   3.649   4.399   9.378 -0.2891  2.7588  1.4180
  157MOL0     H21194   4.178   4.393   8.936 -0.0173  0.7472  0.2535
  157MOL0     H21195   4.376   4.261   8.851  0.6071  0.9241  0.2512
  158MOL0     O21196  10.875   9.784   7.910 -0.7240  0.7894 -0.1522
  158MOL0     C21197  10.909   9.895   7.937  0.1229 -0.1714 -0.6067
  158MOL0     O21198  10.830   9.987   8.005  0.0536  0.2492 -0.1081
  158MOL0     C21199  10.711   9.938   8.058 -0.4379 -0.2856  0.1482
  158MOL0     C21200  10.587   9.996   8.016 -0.2600  0.3039 -0.8712
  158MOL0     C21201  10.473   9.970   8.095 -0.1384 -0.1606  0.9198
  158MOL0     C21202  10.469   9.886   8.210  0.5998  0.6068  0.2493
  158MOL0     O21203  10.356   9.853   8.281 -0.7446 -1.1945 -0.1053
  158MOL0     C21204  10.289   9.967   8.343  0.4704 -0.1331  0.6995
  158MOL0     C21205  10.144   9.914   8.362 -1.0428 -0.5345  0.0379
  158MOL0     C21206  10.054  10.009   8.445 -0.0819 -0.4839 -0.5269
  158MOL0     C21207   9.920   9.943   8.472  0.2028  0.3754  0.2316
  158MOL0     C21208   9.820  10.041   8.529  0.0112  0.2965  0.1651
  158MOL0     C21209   9.686   9.964   8.570 -0.7162  0.0059  0.7388
  158MOL0     C21210   9.573  10.070   8.593  0.1436 -0.2160 -0.1502
  158MOL0     C21211   9.436   9.996   8.564  0.4340  0.1491  0.0026
  158MOL0     N21212   9.322  10.086   8.539 -0.4478 -0.1986  0.7302
  158MOL0     C21213   9.264  10.170   8.630  0.1066  0.4057  0.0796
  158MOL0     C21214   9.157  10.218   8.569  0.2492 -0.1800  0.4997
  158MOL0     C21215   9.052  10.311   8.616 -0.0707  0.4433 -0.1817
  158MOL0     C21216   9.106  10.420   8.716  1.2869 -0.2822 -0.6068
  158MOL0     C21217   9.222  10.499   8.672 -0.2777 -0.1522 -0.4203
  158MOL0     C21218   9.203  10.557   8.531 -0.1214 -0.3161 -0.2566
  158MOL0     O21219   9.316  10.641   8.496 -0.0247  0.3531  0.2644
  158MOL0     C21220   9.298  10.776   8.530 -0.2025 -0.6437  0.3310
  158MOL0     C21221   9.206  10.850   8.453  0.6624 -0.5437  0.9528
  158MOL0     C21222   9.198  10.986   8.468  0.9229 -0.5280  0.0121
  158MOL0     C21223   9.084  11.049   8.393 -0.1595  0.3514 -0.6116
  158MOL0     C21224   9.280  11.054   8.566 -0.1551  0.3301 -0.0952
  158MOL0     C21225   9.283  11.203   8.588 -0.3371 -0.5830 -0.1570
  158MOL0     O21226   9.357  11.247   8.685  0.4516  1.0204  0.1682
  158MOL0     C21227   9.384  11.379   8.678  0.1386 -0.5222 -1.1147
  158MOL0     C21228   9.366  11.459   8.794  0.4000 -0.0125 -0.0125
  158MOL0     C21229   9.390  11.601   8.795 -0.3908  0.2101  0.3973
  158MOL0     C21230   9.453  11.656   8.681 -0.1008  0.2999 -1.3984
  158MOL0     O21231   9.467  11.794   8.678  0.4145 -0.4284  0.1791
  158MOL0     C21232   9.557  11.870   8.584 -0.3962 -0.4107 -0.2949
  158MOL0     C21233   9.701  11.884   8.621 -0.9282 -0.3259 -0.2990
  158MOL0     C21234   9.774  11.754   8.618 -0.3076  0.4266  0.6303
  158MOL0     C21235   9.915  11.779   8.668  0.0451  0.3576 -0.9107
  158MOL0     C21236  10.006  11.651   8.687 -0.4102 -0.9290  0.4702
  158MOL0     C21237  10.063  11.613   8.543 -0.4255  0.1936  0.3762
  158MOL0     C21238  10.136  11.486   8.557 -0.3062  0.7079 -0.3130
  158MOL0     C21239  10.203  11.428   8.427  0.4626  0.0192  0.4404
  158MOL0    Cl21240  10.077  11.373   8.309  0.2245  0.1108 -0.3449
  158MOL0     C21241   9.503  11.569   8.582  0.6946  0.5025 -0.2093
  158MOL0     C21242   9.459  11.439   8.570  1.1014 -0.5795  0.1031
  158MOL0     O21243   9.201  11.269   8.528  0.6511  0.1728 -0.2545
  158MOL0     C21244   9.371  10.982   8.639 -0.4762 -0.9582 -0.2401
  158MOL0     C21245   9.384  10.844   8.623  1.0340 -0.4470  0.0174
  158MOL0     N21246   9.148  10.174   8.442  0.3137  0.5646  0.6943
  158MOL0     N21247   9.250  10.092   8.423  0.3879  0.2668  0.1203
  158MOL0     C21248  10.586   9.818   8.238 -0.8079  0.1713 -0.6300
  158MOL0     C21249  10.705   9.846   8.165 -0.5795 -0.0796 -0.4241
  158MOL0     C21250  11.034   9.949   7.891 -0.0795 -0.6818  0.0963
  158MOL0     C21251  11.104   9.877   7.793 -0.5002  0.7894 -0.1825
  158MOL0     C21252  11.230   9.928   7.762  0.1257 -0.1635  0.6906
  158MOL0     C21253  11.291  10.034   7.831  0.7250  0.3104 -0.5846
  158MOL0     O21254  11.424  10.053   7.831  0.4432 -0.2629 -0.1537
  158MOL0     C21255  11.481  10.109   7.715  0.2863  1.4769 -0.5584
  158MOL0     C21256  11.506  10.258   7.738  0.4158 -0.0539 -0.5899
  158MOL0     C21257  11.617  10.273   7.843  0.4186  0.6573  0.1304
  158MOL0     C21258  11.575  10.369   7.950  0.7943  0.1405  0.4843
  158MOL0     C21259  11.679  10.419   8.034 -0.4806 -0.4278 -0.5112
  158MOL0     C21260  11.773  10.479   8.088 -1.1055  0.0595  0.3904
  158MOL0     C21261  11.215  10.111   7.916  0.6643 -0.4789  0.7291
  158MOL0     C21262  11.085  10.071   7.945 -0.4839  0.2086 -0.4579
  158MOL0     H21263  10.584  10.070   7.937 -1.9798  1.3302  0.0948
  158MOL0     H21264  10.379  10.021   8.076  0.4108  0.5496  0.0181
  158MOL0     H21265  10.335  10.001   8.437 -0.1262  1.3995  0.4594
  158MOL0     H21266  10.273  10.060   8.287 -3.8745  0.0332  1.8739
  158MOL0     H21267  10.103   9.895   8.263 -2.1206 -1.3013  0.6075
  158MOL0     H21268  10.128   9.818   8.414 -0.0052 -0.1830  1.0655
  158MOL0     H21269  10.100  10.016   8.544  2.1599  0.0120 -1.5402
  158MOL0     H21270  10.041  10.104   8.392 -1.8394 -0.2234  0.3016
  158MOL0     H21271   9.881   9.906   8.377  0.4937  4.6816 -1.8140
  158MOL0     H21272   9.941   9.864   8.544  3.4040 -0.9154 -1.8487
  158MOL0     H21273   9.868  10.066   8.624 -0.1462 -1.3752  0.7149
  158MOL0     H21274   9.802  10.125   8.461 -2.4362  1.5343  2.1792
  158MOL0     H21275   9.668   9.904   8.481 -0.7266  0.4227  0.4592
  158MOL0     H21276   9.696   9.901   8.659 -1.1457 -2.7448 -1.0371
  158MOL0     H21277   9.584  10.123   8.688 -1.6632  2.8244 -1.4752
  158MOL0     H21278   9.588  10.155   8.525 -1.7858  0.3554  0.0513
  158MOL0     H21279   9.420   9.951   8.662  1.9178  1.8986  1.1149
  158MOL0     H21280   9.449   9.927   8.480 -1.1949  1.8319 -1.7463
  158MOL0     H21281   9.300  10.189   8.730  0.7659  0.3823 -0.1514
  158MOL0     H21282   9.019  10.367   8.528  0.3971  1.4267  0.2636
  158MOL0     H21283   8.961  10.260   8.650  0.6312 -0.8311 -0.1422
  158MOL0     H21284   9.153  10.367   8.799 -0.6636 -1.0882  0.0445
  158MOL0     H21285   9.023  10.471   8.765  0.5687 -1.9049 -0.0709
  158MOL0     H21286   9.310  10.434   8.671  0.0527  0.1382  2.3086
  158MOL0     H21287   9.250  10.580   8.740  3.1127  0.2705 -2.1270
  158MOL0     H21288   9.113  10.618   8.534 -1.1144 -1.7723  1.3164
  158MOL0     H21289   9.193  10.482   8.451 -0.2365 -0.9539  0.3522
  158MOL0     H21290   9.140  10.807   8.378  0.2875 -2.1241  2.1258
  158MOL0     H21291   9.113  11.146   8.352 -1.2203  0.9423 -0.0055
  158MOL0     H21292   9.036  10.994   8.311 -0.4941  2.5246 -1.9534
  158MOL0     H21293   9.000  11.055   8.463  0.9444 -0.8088  0.8935
  158MOL0     H21294   9.308  11.411   8.872  1.2896  0.3337  0.8785
  158MOL0     H21295   9.345  11.659   8.875 -2.1494 -2.0838  1.1664
  158MOL0     H21296   9.557  11.837   8.480  2.3399  1.3530 -0.9754
  158MOL0     H21297   9.521  11.973   8.596 -1.4259 -1.0321  2.9436
  158MOL0     H21298   9.744  11.966   8.562 -1.3919  0.5344  0.5330
  158MOL0     H21299   9.710  11.922   8.723 -0.1029  0.3043 -0.5925
  158MOL0     H21300   9.778  11.703   8.521  0.7208 -0.1742  0.9736
  158MOL0     H21301   9.728  11.682   8.686 -1.2520  2.0609  1.8072
  158MOL0     H21302   9.967  11.854   8.607 -1.7756  3.7420  1.3612
  158MOL0     H21303   9.915  11.831   8.764  0.5242  1.5016 -1.5043
  158MOL0     H21304   9.953  11.565   8.729 -1.5011 -0.3513  0.3114
  158MOL0     H21305  10.084  11.672   8.761 -0.5137 -1.3866  0.7143
  158MOL0     H21306   9.984  11.614   8.468  0.1042  3.3164 -0.2838
  158MOL0     H21307  10.139  11.689   8.522  0.2848 -0.5201  0.3248
  158MOL0     H21308  10.078  11.402   8.596 -1.0308  1.5782  0.5505
  158MOL0     H21309  10.215  11.497   8.631 -1.2820  1.3147  0.6743
  158MOL0     H21310  10.272  11.349   8.460  2.8991  1.3666 -1.0984
  158MOL0     H21311  10.265  11.507   8.385 -2.1140  1.8059 -0.2469
  158MOL0     H21312   9.559  11.601   8.495 -0.2941  1.8260 -0.3786
  158MOL0     H21313   9.499  11.389   8.483 -1.5076 -0.5702 -1.2138
  158MOL0     H21314   9.438  11.034   8.706 -0.5861 -0.7573 -0.2852
  158MOL0     H21315   9.460  10.788   8.678  0.0596 -0.9989  0.8558
  158MOL0     H21316  10.576   9.752   8.323 -1.0815  0.3901 -0.4917
  158MOL0     H21317  10.802   9.802   8.185 -0.1802  0.7644 -0.4519
  158MOL0     H21318  11.071   9.784   7.747 -0.6837  0.9826 -0.4478
  158MOL0     H21319  11.288   9.869   7.693  0.3222  2.6039 -1.6903
  158MOL0     H21320  11.579  10.061   7.707  1.0038  2.9365 -0.8730
  158MOL0     H21321  11.422  10.094   7.625  0.0706 -0.4842 -0.1191
  158MOL0     H21322  11.413  10.307   7.765  1.6801  0.6766  3.0799
  158MOL0     H21323  11.538  10.302   7.643 -2.0402  0.2556 -1.3249
  158MOL0     H21324  11.704  10.299   7.782  0.4288 -0.2362 -0.2499
  158MOL0     H21325  11.632  10.177   7.893 -1.6161  0.1541 -0.1341
  158MOL0     H21326  11.494  10.331   8.014  1.4399 -0.0861  1.1887
  158MOL0     H21327  11.527  10.457   7.907  0.6205  0.3393  1.0730
  158MOL0     H21328  11.859  10.528   8.128 -0.2232 -0.7631 -0.4516
  158MOL0     H21329  11.262  10.198   7.962 -0.6295  0.4446  0.3940
  158MOL0     H21330  11.033  10.127   8.022  0.5737 -0.8185  1.0494
  159MOL0     O21331   0.496   1.724  10.606  0.0035 -0.9540 -0.0279
  159MOL0     C21332   0.590   1.762  10.535 -0.1945  0.0151 -0.0705
  159MOL0     O21333   0.577   1.789  10.396  0.2894 -0.7123 -0.2040
  159MOL0     C21334   0.452   1.778  10.340 -0.5632  0.3391  0.2510
  159MOL0     C21335   0.445   1.733  10.206  0.2839 -0.5106 -0.3742
  159MOL0     C21336   0.328   1.749  10.138 -0.0416  0.5153  0.1084
  159MOL0     C21337   0.217   1.816  10.190  0.0111  0.0202  0.4435
  159MOL0     O21338   0.107   1.828  10.115 -0.5239  0.2943 -1.0063
  159MOL0     C21339  -0.018   1.830  10.186 -0.3577  0.2088 -0.3493
  159MOL0     C21340  -0.118   1.748  10.102 -0.2026  0.8741 -0.2024
  159MOL0     C21341  -0.201   1.838  10.016  0.8299  0.2420  0.7536
  159MOL0     C21342  -0.292   1.765   9.912  0.0317 -0.0425  0.0624
  159MOL0     C21343  -0.376   1.861   9.825 -0.2187 -0.4644 -0.2057
  159MOL0     C21344  -0.481   1.798   9.728  0.0325 -0.2789 -0.3131
  159MOL0     C21345  -0.591   1.887   9.682  0.2561  0.1142  0.0678
  159MOL0     C21346  -0.694   1.919   9.785 -0.2356 -0.0863  0.2782
  159MOL0     N21347  -0.765   2.032   9.736 -0.0760  0.1722 -0.3684
  159MOL0     C21348  -0.818   2.139   9.819 -0.5623  1.3715  0.6931
  159MOL0     C21349  -0.866   2.225   9.726 -0.3745 -0.8051 -0.5087
  159MOL0     C21350  -0.938   2.353   9.779 -0.8405 -1.1546 -0.2933
  159MOL0     C21351  -1.078   2.334   9.819  0.5286 -0.0996 -0.1687
  159MOL0     C21352  -1.168   2.283   9.712 -0.5206  0.5509 -0.4410
  159MOL0     C21353  -1.201   2.373   9.602 -0.5104  0.3836  0.0563
  159MOL0     O21354  -1.321   2.330   9.521  0.4027 -0.0429 -0.2156
  159MOL0     C21355  -1.451   2.362   9.570 -0.8415 -0.8409  0.3190
  159MOL0     C21356  -1.472   2.470   9.659  0.5093  0.1748 -0.3729
  159MOL0     C21357  -1.607   2.507   9.689  0.0996 -0.7980 -0.0804
  159MOL0     C21358  -1.633   2.646   9.762  0.6805  0.1364  0.6473
  159MOL0     C21359  -1.716   2.432   9.645  1.0632  0.6610  0.1361
  159MOL0     C21360  -1.859   2.451   9.674  0.0689  0.6507 -0.8160
  159MOL0     O21361  -1.942   2.451   9.569  0.6803  0.2691  0.4918
  159MOL0     C21362  -2.075   2.483   9.593 -0.3882 -0.1227  0.0282
  159MOL0     C21363  -2.151   2.578   9.529  0.1002  0.5013 -0.0325
  159MOL0     C21364  -2.296   2.583   9.549 -0.1582 -0.9050 -0.7400
  159MOL0     C21365  -2.358   2.499   9.645  0.8222  0.6121 -0.3048
  159MOL0     O21366  -2.494   2.514   9.670 -0.1667 -0.2048 -0.0957
  159MOL0     C21367  -2.567   2.403   9.722 -0.0251 -0.6936 -0.0822
  159MOL0     C21368  -2.707   2.410   9.662 -0.1913  0.5529 -0.7842
  159MOL0     C21369  -2.772   2.278   9.662  0.4609  0.8393  0.0713
  159MOL0     C21370  -2.815   2.216   9.795 -0.5953 -1.3235  0.5141
  159MOL0     C21371  -2.852   2.076   9.767  0.3693  0.1541 -0.6308
  159MOL0     C21372  -3.001   2.060   9.739 -0.4358 -0.5248  0.6206
  159MOL0     C21373  -3.021   1.911   9.732  1.1431  0.3653  0.7965
  159MOL0     C21374  -3.163   1.890   9.681 -0.4979 -0.2238 -0.2644
  159MOL0    Cl21375  -3.200   1.713   9.690 -0.3315 -0.2770 -0.3841
  159MOL0     C21376  -2.275   2.408   9.714  0.0037 -0.4613  0.5831
  159MOL0     C21377  -2.144   2.390   9.674  0.3110  0.2114  0.1140
  159MOL0     O21378  -1.897   2.466   9.790 -0.2464  1.1630  0.2441
  159MOL0     C21379  -1.685   2.326   9.562 -0.0354 -0.1110  1.1689
  159MOL0     C21380  -1.558   2.296   9.513  0.0656 -0.7812  0.2437
  159MOL0     N21381  -0.844   2.188   9.591  0.3045 -0.0120  0.3520
  159MOL0     N21382  -0.791   2.070   9.608 -0.0923 -0.4597  0.0879
  159MOL0     C21383   0.229   1.867  10.318  0.5422 -0.8119 -0.5258
  159MOL0     C21384   0.342   1.842  10.394 -0.3948  0.4196 -0.1944
  159MOL0     C21385   0.730   1.771  10.580  0.9630 -0.5863  0.5236
  159MOL0     C21386   0.835   1.807  10.484 -0.0435  0.6413 -0.0304
  159MOL0     C21387   0.965   1.826  10.528 -0.0151 -0.3452 -0.7380
  159MOL0     C21388   0.996   1.799  10.663  0.3627  0.2729 -0.2623
  159MOL0     O21389   1.119   1.829  10.716  0.6862  0.3876  0.6067
  159MOL0     C21390   1.227   1.883  10.637 -0.2009  0.4393 -0.1453
  159MOL0     C21391   1.360   1.854  10.706 -0.6668  0.3626  0.5219
  159MOL0     C21392   1.490   1.855  10.624 -0.1779 -0.4358  0.8403
  159MOL0     C21393   1.545   1.995  10.610 -0.1885 -0.1322 -0.7408
  159MOL0     C21394   1.664   1.996  10.522  1.7216  0.0570  0.0611
  159MOL0     C21395   1.769   2.008  10.459 -0.1169 -0.9819  0.2554
  159MOL0     C21396   0.899   1.753  10.753 -0.0012 -0.6764  0.9104
  159MOL0     C21397   0.768   1.739  10.714  0.0636 -0.0558  0.0286
  159MOL0     H21398   0.523   1.662  10.185 -0.3214 -1.3907  0.2666
  159MOL0     H21399   0.310   1.718  10.035  1.7631 -0.4217  0.0332
  159MOL0     H21400  -0.005   1.788  10.286 -1.0782 -0.2818 -0.4516
  159MOL0     H21401  -0.064   1.929  10.183  0.2764  0.5069 -3.0723
  159MOL0     H21402  -0.062   1.682  10.034 -0.9097  2.4775 -2.4436
  159MOL0     H21403  -0.185   1.690  10.167  0.8587 -0.6267 -0.3892
  159MOL0     H21404  -0.261   1.919  10.058  0.3474  0.6043 -0.5668
  159MOL0     H21405  -0.127   1.902   9.966 -0.8151  2.0080  0.4556
  159MOL0     H21406  -0.229   1.701   9.850  1.1109  0.7062  0.3635
  159MOL0     H21407  -0.354   1.703   9.977 -2.6070  1.9007 -0.3958
  159MOL0     H21408  -0.421   1.927   9.900  3.3150 -0.8989  2.5775
  159MOL0     H21409  -0.318   1.936   9.771 -0.3755 -0.9556 -1.0696
  159MOL0     H21410  -0.418   1.770   9.642 -0.7777  1.6841 -1.6149
  159MOL0     H21411  -0.536   1.710   9.764 -1.0445  0.1909 -0.7817
  159MOL0     H21412  -0.538   1.978   9.655  0.0031  0.0241 -0.7719
  159MOL0     H21413  -0.642   1.840   9.597  1.2100 -1.1418  0.1517
  159MOL0     H21414  -0.640   1.952   9.874 -0.2350  2.6792 -0.6530
  159MOL0     H21415  -0.761   1.836   9.809  0.4382 -0.8405 -0.3923
  159MOL0     H21416  -0.822   2.147   9.927 -0.1256  1.2989  0.7145
  159MOL0     H21417  -0.874   2.387   9.861 -0.0444 -1.2724 -0.8540
  159MOL0     H21418  -0.921   2.419   9.693 -0.8076  0.0457  0.5955
  159MOL0     H21419  -1.116   2.432   9.848 -0.8912 -1.1785  1.9192
  159MOL0     H21420  -1.092   2.277   9.912  0.0645  2.2738  1.3150
  159MOL0     H21421  -1.258   2.251   9.767  0.4875 -0.2487  0.8050
  159MOL0     H21422  -1.123   2.192   9.673 -2.6838 -0.5149 -0.6447
  159MOL0     H21423  -1.115   2.345   9.540 -0.2615 -2.9560  1.6552
  159MOL0     H21424  -1.203   2.479   9.629  2.2696  1.4464 -3.1877
  159MOL0     H21425  -1.390   2.534   9.692  0.4764 -0.2366  0.5137
  159MOL0     H21426  -1.668   2.638   9.866  2.2244 -1.6738  1.0703
  159MOL0     H21427  -1.549   2.715   9.748 -0.3932  1.3369 -0.1315
  159MOL0     H21428  -1.709   2.704   9.709 -1.3718 -1.0331  2.1515
  159MOL0     H21429  -2.105   2.639   9.452  1.2748  1.4127  1.3340
  159MOL0     H21430  -2.349   2.657   9.490  1.3688  0.0987 -0.9050
  159MOL0     H21431  -2.520   2.307   9.700  2.7393  0.3103  1.0598
  159MOL0     H21432  -2.586   2.410   9.829 -0.9886  0.5642 -0.3176
  159MOL0     H21433  -2.762   2.483   9.722  0.8912  1.3720 -0.7498
  159MOL0     H21434  -2.710   2.458   9.563 -0.3803 -0.2888 -1.1967
  159MOL0     H21435  -2.703   2.206   9.616  0.8810 -0.3723  2.4738
  159MOL0     H21436  -2.846   2.272   9.582  1.7193 -0.6190 -1.0669
  159MOL0     H21437  -2.724   2.207   9.855  1.4770  0.1707 -2.1485
  159MOL0     H21438  -2.876   2.276   9.863  0.5804 -0.7123  1.0769
  159MOL0     H21439  -2.834   2.020   9.859  0.4085  1.7284  0.3516
  159MOL0     H21440  -2.800   2.035   9.679 -0.0084  0.5012 -1.0213
  159MOL0     H21441  -3.054   2.113   9.818  3.2265  1.7956  1.7791
  159MOL0     H21442  -3.029   2.104   9.643  3.1384 -0.8711 -0.7605
  159MOL0     H21443  -3.004   1.866   9.830  3.8963 -2.0348 -0.6189
  159MOL0     H21444  -2.945   1.857   9.674  0.3001 -1.8580  1.6394
  159MOL0     H21445  -3.163   1.927   9.578 -2.3656  2.1925  0.4948
  159MOL0     H21446  -3.237   1.951   9.734 -1.1095 -1.0508 -0.1579
  159MOL0     H21447  -2.305   2.356   9.804 -1.1929  4.1656  3.1712
  159MOL0     H21448  -2.097   2.304   9.720 -0.3395  0.3344  1.0441
  159MOL0     H21449  -1.765   2.271   9.514 -1.0548  0.3499  2.2736
  159MOL0     H21450  -1.545   2.226   9.431  1.2884 -0.5340  0.2050
  159MOL0     H21451   0.144   1.921  10.360  0.9952  0.0895 -0.7572
  159MOL0     H21452   0.335   1.887  10.492 -0.2756  0.7593 -0.3417
  159MOL0     H21453   0.816   1.842  10.383  2.0268  3.8261  0.5234
  159MOL0     H21454   1.036   1.864  10.455 -0.0815  1.8605  0.2717
  159MOL0     H21455   1.225   1.827  10.543  1.6599  1.0167 -0.5803
  159MOL0     H21456   1.209   1.990  10.622  0.0551  0.5443  0.2870
  159MOL0     H21457   1.357   1.751  10.744  3.4454  0.6607  2.2398
  159MOL0     H21458   1.374   1.923  10.789  0.5167  0.8947 -0.0831
  159MOL0     H21459   1.462   1.803  10.532 -3.8762  0.5897  1.2108
  159MOL0     H21460   1.562   1.799  10.685 -0.5009  1.8801  3.5741
  159MOL0     H21461   1.576   2.034  10.708 -0.5305  1.3298 -1.1797
  159MOL0     H21462   1.483   2.070  10.559  0.6286 -0.7258 -2.7104
  159MOL0     H21463   1.862   1.999  10.408 -0.6230 -2.0840 -0.5030
  159MOL0     H21464   0.920   1.737  10.858 -3.3506 -0.9431  1.6559
  159MOL0     H21465   0.696   1.698  10.783  2.8858 -1.6974  2.2202
  160MOL0     O21466   4.512   8.662   9.906  0.7273  0.5764 -0.1113
  160MOL0     C21467   4.533   8.555   9.966 -0.4540 -1.0371 -0.5118
  160MOL0     O21468   4.482   8.513  10.080 -0.3758 -0.0139  0.0422
  160MOL0     C21469   4.389   8.596  10.143 -0.4130 -1.0787 -0.2862
  160MOL0     C21470   4.391   8.610  10.284  0.5039 -0.2688 -0.2153
  160MOL0     C21471   4.289   8.685  10.351  0.0485  1.0607  0.1194
  160MOL0     C21472   4.204   8.770  10.273  0.1790  0.2239 -0.0711
  160MOL0     O21473   4.123   8.872  10.312 -0.0646 -0.1395 -0.0839
  160MOL0     C21474   4.075   8.872  10.450  0.1982  0.0226  0.2471
  160MOL0     C21475   3.972   8.764  10.494 -0.9875 -0.2995 -0.2741
  160MOL0     C21476   3.828   8.801  10.476 -0.5142 -0.0722  0.0578
  160MOL0     C21477   3.716   8.714  10.548 -0.0640 -0.1188 -0.2427
  160MOL0     C21478   3.694   8.579  10.483 -0.5264 -0.4085  0.2807
  160MOL0     C21479   3.639   8.580  10.336  0.8532  0.6295 -0.3623
  160MOL0     C21480   3.601   8.432  10.293  1.1238 -0.5595  0.3844
  160MOL0     C21481   3.717   8.342  10.237  0.0233 -1.2661  0.0779
  160MOL0     N21482   3.765   8.389  10.111 -0.2511 -0.1616 -0.3028
  160MOL0     C21483   3.697   8.394   9.993  0.2456  1.0902  0.4272
  160MOL0     C21484   3.771   8.477   9.920 -0.5815  0.3462  0.2174
  160MOL0     C21485   3.739   8.508   9.770 -0.1703 -0.3938  1.6135
  160MOL0     C21486   3.591   8.522   9.739  0.6179  1.1317 -0.0331
  160MOL0     C21487   3.531   8.646   9.816  0.8120  0.0584  0.1097
  160MOL0     C21488   3.393   8.601   9.864 -0.6584  0.3170 -0.4058
  160MOL0     O21489   3.299   8.568   9.761  0.1867 -0.1579 -0.2890
  160MOL0     C21490   3.174   8.525   9.804  0.2584 -0.1435 -0.0573
  160MOL0     C21491   3.071   8.540   9.709 -0.6554 -0.4796 -0.2720
  160MOL0     C21492   2.933   8.524   9.733  0.2979  0.6609  0.4352
  160MOL0     C21493   2.831   8.549   9.629  0.1153  0.5364 -0.3460
  160MOL0     C21494   2.896   8.486   9.864 -0.0725 -0.1034 -0.1439
  160MOL0     C21495   2.752   8.443   9.907 -0.4167  0.5833  0.4587
  160MOL0     O21496   2.727   8.402  10.038 -0.6817  0.1519  0.0620
  160MOL0     C21497   2.599   8.360  10.078  0.9501 -0.5015  0.5329
  160MOL0     C21498   2.571   8.230  10.120  0.4569  0.4329 -0.1624
  160MOL0     C21499   2.440   8.198  10.139 -0.6661 -0.0624  0.2293
  160MOL0     C21500   2.330   8.283  10.128  0.1859  0.3384 -0.3913
  160MOL0     O21501   2.206   8.237  10.166  1.0246 -0.6181 -0.4909
  160MOL0     C21502   2.090   8.313  10.138 -0.3415  0.1258  1.0242
  160MOL0     C21503   2.069   8.329   9.981 -0.5115  0.1945  0.1986
  160MOL0     C21504   1.959   8.425   9.944  0.0430  0.0190 -0.3185
  160MOL0     C21505   1.823   8.397  10.006  0.5839  0.4085  0.1188
  160MOL0     C21506   1.724   8.493   9.934 -0.1766  0.5421 -0.3983
  160MOL0     C21507   1.591   8.490  10.006 -0.1206 -0.9525  0.5997
  160MOL0     C21508   1.494   8.598   9.958 -0.3511 -0.0843 -0.8365
  160MOL0     C21509   1.350   8.564  10.004  0.2511 -0.8060 -0.0402
  160MOL0    Cl21510   1.348   8.543  10.183 -0.1679  0.0520 -0.4903
  160MOL0     C21511   2.358   8.414  10.097 -0.3439  0.0596 -0.0140
  160MOL0     C21512   2.488   8.453  10.070 -0.1143  0.1522  0.8033
  160MOL0     O21513   2.665   8.435   9.824  0.2114  0.4238 -0.2112
  160MOL0     C21514   3.000   8.476   9.962 -0.0995 -0.9689  0.5574
  160MOL0     C21515   3.138   8.489   9.937  0.6279 -0.2190  0.7535
  160MOL0     N21516   3.878   8.526   9.986  0.6331 -0.3441  0.3077
  160MOL0     N21517   3.874   8.466  10.106 -0.3958 -0.7648  0.2572
  160MOL0     C21518   4.196   8.751  10.135 -1.6922  0.1378  0.1901
  160MOL0     C21519   4.293   8.667  10.075  0.6160  0.5585  0.0764
  160MOL0     C21520   4.631   8.466   9.902 -0.1954 -0.3963  0.0925
  160MOL0     C21521   4.694   8.354   9.958  0.2788  0.3723 -0.1541
  160MOL0     C21522   4.784   8.271   9.887 -0.2685 -0.7361  0.0049
  160MOL0     C21523   4.825   8.302   9.751 -0.6651 -1.3329 -0.7477
  160MOL0     O21524   4.905   8.242   9.663  0.1631 -0.1989 -0.2099
  160MOL0     C21525   4.991   8.148   9.714  0.5941  0.6690 -0.1959
  160MOL0     C21526   4.924   8.005   9.715  0.3350 -0.2411 -0.6848
  160MOL0     C21527   4.902   7.940   9.572  0.1652 -0.5047  0.7198
  160MOL0     C21528   4.846   7.804   9.605 -0.1361  0.5782  0.4776
  160MOL0     C21529   4.809   7.744   9.473 -0.8922  0.6574  0.7634
  160MOL0     C21530   4.767   7.697   9.363 -1.1306 -0.1581 -0.1555
  160MOL0     C21531   4.761   8.411   9.698  0.3857  0.2069 -0.7671
  160MOL0     C21532   4.668   8.489   9.768  0.3633  1.0130  0.3138
  160MOL0     H21533   4.462   8.550  10.339 -0.8507 -1.9293 -0.1914
  160MOL0     H21534   4.284   8.683  10.460 -0.2201 -0.8638  0.1143
  160MOL0     H21535   4.164   8.870  10.512 -0.3439 -2.0000  1.0418
  160MOL0     H21536   4.030   8.970  10.469  0.7025  0.0860  1.1674
  160MOL0     H21537   3.984   8.661  10.459  0.2134  0.1929 -1.3916
  160MOL0     H21538   3.990   8.757  10.602  0.3088  0.8484 -0.3940
  160MOL0     H21539   3.818   8.904  10.510 -2.1582  1.3075 -3.9588
  160MOL0     H21540   3.812   8.805  10.368  1.8959  1.6785 -0.3317
  160MOL0     H21541   3.743   8.697  10.652 -0.0876 -2.2896 -0.5417
  160MOL0     H21542   3.616   8.759  10.553 -1.2819 -2.4694 -1.4345
  160MOL0     H21543   3.787   8.522  10.493  1.3570  2.1715 -1.1166
  160MOL0     H21544   3.630   8.529  10.555  1.3796  0.2391  2.5689
  160MOL0     H21545   3.554   8.647  10.325 -1.5885 -2.1490  0.1503
  160MOL0     H21546   3.714   8.611  10.263 -1.7222  0.4568 -3.2463
  160MOL0     H21547   3.552   8.392  10.382  0.6230  0.5513  0.6330
  160MOL0     H21548   3.521   8.444  10.219  2.2967  2.5105 -0.5393
  160MOL0     H21549   3.683   8.239  10.221 -2.6988 -0.4841  0.3047
  160MOL0     H21550   3.804   8.328  10.302  2.6776 -0.0013 -2.8955
  160MOL0     H21551   3.603   8.343   9.978 -1.6691  4.7866 -1.8396
  160MOL0     H21552   3.799   8.596   9.744 -2.3703  0.3322 -1.4959
  160MOL0     H21553   3.777   8.425   9.710 -0.3886  1.4607 -1.3105
  160MOL0     H21554   3.542   8.427   9.758  0.9177  0.8907 -0.4669
  160MOL0     H21555   3.572   8.529   9.632 -0.4776 -1.6909 -0.0914
  160MOL0     H21556   3.520   8.731   9.749  0.7600  0.5162  0.6870
  160MOL0     H21557   3.593   8.677   9.901  0.6818 -0.8998  0.5656
  160MOL0     H21558   3.353   8.682   9.926  4.0830  2.2526  0.5380
  160MOL0     H21559   3.402   8.511   9.926 -0.5398  0.2474 -0.5237
  160MOL0     H21560   3.092   8.571   9.607 -1.9268  2.8945  0.3749
  160MOL0     H21561   2.883   8.573   9.536  2.4617  0.1233  0.7808
  160MOL0     H21562   2.774   8.459   9.605  0.3786 -0.6103  2.8494
  160MOL0     H21563   2.777   8.640   9.656  1.5327  0.7597  2.0183
  160MOL0     H21564   2.643   8.150  10.130 -0.4588 -0.5313 -1.0857
  160MOL0     H21565   2.430   8.093  10.167  0.2017 -0.3903 -0.6019
  160MOL0     H21566   2.000   8.260  10.169 -0.4964 -0.5846 -0.5812
  160MOL0     H21567   2.102   8.408  10.191  3.5726  1.9020 -2.4288
  160MOL0     H21568   2.161   8.358   9.930 -0.4659  0.7859  0.6118
  160MOL0     H21569   2.043   8.231   9.939  0.5849  1.0927 -2.8713
  160MOL0     H21570   1.944   8.427   9.836 -1.9041 -1.0644 -0.0987
  160MOL0     H21571   1.992   8.524   9.974 -1.2831  0.4763 -0.3253
  160MOL0     H21572   1.804   8.290   9.988  5.4079 -0.8802  1.2587
  160MOL0     H21573   1.832   8.414  10.113  4.5840  0.2839 -0.0772
  160MOL0     H21574   1.721   8.457   9.831  1.0034 -0.0516 -0.2450
  160MOL0     H21575   1.756   8.598   9.925 -2.0557  1.2890  0.9808
  160MOL0     H21576   1.548   8.390   9.997  0.7247 -1.2295 -0.8027
  160MOL0     H21577   1.607   8.511  10.112 -1.9692  0.8643  0.5797
  160MOL0     H21578   1.479   8.608   9.850  0.3207  0.9243 -0.8515
  160MOL0     H21579   1.523   8.691  10.008  0.4365 -0.8930  0.2394
  160MOL0     H21580   1.300   8.481   9.953 -2.7030  1.1884 -0.6694
  160MOL0     H21581   1.284   8.647   9.975  0.0458 -1.0955 -0.4054
  160MOL0     H21582   2.286   8.491  10.123 -1.0814 -0.5370 -0.2335
  160MOL0     H21583   2.515   8.553  10.038 -1.7622  0.3145 -0.1483
  160MOL0     H21584   2.975   8.447  10.063 -1.4164  0.0307  0.5492
  160MOL0     H21585   3.206   8.480  10.021  1.0632  2.8704  0.8330
  160MOL0     H21586   4.112   8.778  10.072 -1.1318 -0.6125 -0.9103
  160MOL0     H21587   4.286   8.649   9.969 -1.3984  0.5772  0.1705
  160MOL0     H21588   4.640   8.326  10.048  0.5066 -1.0325 -0.4354
  160MOL0     H21589   4.821   8.176   9.924  1.7356  0.0451  0.1029
  160MOL0     H21590   5.076   8.146   9.645 -0.0958 -0.0783 -1.0568
  160MOL0     H21591   5.019   8.174   9.816 -2.3414  3.6945  0.0168
  160MOL0     H21592   4.826   8.010   9.762  0.0099 -5.7049 -0.0422
  160MOL0     H21593   4.981   7.943   9.786  0.8736  1.6947  0.6653
  160MOL0     H21594   4.991   7.920   9.511 -0.5824 -0.7643 -0.3114
  160MOL0     H21595   4.823   7.992   9.518 -1.5207 -0.9387  2.6399
  160MOL0     H21596   4.758   7.823   9.667 -0.6918  0.1918 -0.1752
  160MOL0     H21597   4.924   7.747   9.657  1.4320  1.1285 -1.1509
  160MOL0     H21598   4.721   7.649   9.279 -0.1263 -0.2965 -0.6437
  160MOL0     H21599   4.773   8.449   9.597 -0.6356 -1.0122 -1.3755
  160MOL0     H21600   4.640   8.580   9.716 -2.1486 -1.7786 -3.7968
  161MOL0     O21601   1.270   0.058  10.722  0.0686 -0.2583  0.0909
  161MOL0     C21602   1.303   0.052  10.840  0.2754  0.0071  0.0636
  161MOL0     O21603   1.230  -0.004  10.944 -0.5155  0.4498  0.1977
  161MOL0     C21604   1.118  -0.083  10.925  0.1659  0.2989 -0.5082
  161MOL0     C21605   1.119  -0.222  10.923 -0.2922 -0.1031  0.4907
  161MOL0     C21606   1.007  -0.295  10.879  0.6330  0.8502 -1.2753
  161MOL0     C21607   0.886  -0.241  10.846 -0.1373  0.5941 -0.8398
  161MOL0     O21608   0.779  -0.313  10.812 -0.0395  0.2914  0.2879
  161MOL0     C21609   0.710  -0.367  10.926 -0.1980  0.0560  0.0343
  161MOL0     C21610   0.572  -0.405  10.888  1.3888 -0.3786  0.2203
  161MOL0     C21611   0.500  -0.469  11.005  0.6256  0.7470 -0.3604
  161MOL0     C21612   0.426  -0.359  11.088 -0.0825 -0.1695 -0.4804
  161MOL0     C21613   0.344  -0.414  11.206 -0.6093 -0.9901 -0.1194
  161MOL0     C21614   0.247  -0.304  11.268 -0.1312  0.4962 -0.1351
  161MOL0     C21615   0.123  -0.375  11.318 -0.6334 -0.4571 -0.0591
  161MOL0     C21616   0.024  -0.274  11.361  0.1334 -0.1428 -0.3493
  161MOL0     N21617  -0.099  -0.341  11.396  0.3654 -0.4348  0.3006
  161MOL0     C21618  -0.197  -0.380  11.316 -0.2432  0.0159  0.3121
  161MOL0     C21619  -0.302  -0.437  11.393 -0.2321  0.0286  0.3344
  161MOL0     C21620  -0.436  -0.498  11.349 -0.5055 -0.2868  0.3256
  161MOL0     C21621  -0.560  -0.410  11.391 -0.5197 -0.6314  0.5596
  161MOL0     C21622  -0.638  -0.486  11.497  0.2880 -0.1028 -0.5781
  161MOL0     C21623  -0.765  -0.402  11.533  0.0730  0.1989  0.5460
  161MOL0     O21624  -0.863  -0.495  11.597 -0.0042 -0.6761  0.6334
  161MOL0     C21625  -0.952  -0.428  11.685 -0.7214  0.8397 -0.2665
  161MOL0     C21626  -0.933  -0.443  11.823  0.5143 -0.2867 -1.2262
  161MOL0     C21627  -1.052  -0.415  11.902  0.0956  0.1711 -0.8451
  161MOL0     C21628  -1.055  -0.468  12.046 -0.2795 -0.3661  0.0959
  161MOL0     C21629  -1.174  -0.364  11.850 -0.6906 -0.3110 -0.6822
  161MOL0     C21630  -1.300  -0.351  11.930  1.0601  0.1401 -0.7689
  161MOL0     O21631  -1.367  -0.230  11.913 -0.2746 -0.6381  1.0690
  161MOL0     C21632  -1.481  -0.198  11.974  0.6603  0.3765  0.0263
  161MOL0     C21633  -1.515  -0.223  12.111  0.6492 -0.3359  0.6631
  161MOL0     C21634  -1.640  -0.212  12.166  0.6483  0.4804 -0.4477
  161MOL0     C21635  -1.742  -0.167  12.080  0.7718 -0.3409  0.3671
  161MOL0     O21636  -1.866  -0.157  12.136 -0.2661 -0.8085  0.4375
  161MOL0     C21637  -1.975  -0.103  12.062 -0.7306 -0.4673 -0.1152
  161MOL0     C21638  -2.060  -0.019  12.156  1.4558 -0.4112  0.0824
  161MOL0     C21639  -2.141  -0.085  12.273 -0.2172 -0.1220  0.5128
  161MOL0     C21640  -2.255  -0.169  12.231  0.8107  0.5275 -0.3628
  161MOL0     C21641  -2.304  -0.258  12.342  0.0132 -0.5500 -0.7769
  161MOL0     C21642  -2.418  -0.343  12.317  0.5723 -0.7116 -0.7180
  161MOL0     C21643  -2.546  -0.254  12.321 -0.2877 -0.5769 -0.4126
  161MOL0     C21644  -2.664  -0.347  12.293 -0.6969  0.1570 -0.9492
  161MOL0    Cl21645  -2.701  -0.444  12.446 -0.1647 -0.0900  0.1577
  161MOL0     C21646  -1.716  -0.152  11.945 -0.4307  0.1508 -0.9951
  161MOL0     C21647  -1.591  -0.174  11.887  0.0658 -0.0632 -0.2703
  161MOL0     O21648  -1.332  -0.446  12.005  0.4237 -0.6514 -0.4466
  161MOL0     C21649  -1.172  -0.324  11.711  0.3628  0.7171 -0.7205
  161MOL0     C21650  -1.063  -0.360  11.634 -0.5608  0.7266 -0.4976
  161MOL0     N21651  -0.250  -0.440  11.517 -0.3609  0.1273 -0.7637
  161MOL0     N21652  -0.132  -0.385  11.513  0.8858 -1.6221 -1.3845
  161MOL0     C21653   0.886  -0.099  10.852 -0.3665  0.6772 -0.4889
  161MOL0     C21654   0.996  -0.019  10.899  0.7111  0.1061  0.1524
  161MOL0     C21655   1.426   0.128  10.875  0.0133  0.0402  0.6252
  161MOL0     C21656   1.468   0.159  11.002 -0.3038  0.3143  0.6821
  161MOL0     C21657   1.574   0.247  11.026 -0.1886  0.2953  0.2005
  161MOL0     C21658   1.652   0.300  10.924 -0.0777  0.3162 -1.2748
  161MOL0     O21659   1.770   0.373  10.934 -0.3502  0.5102 -0.1440
  161MOL0     C21660   1.849   0.378  11.055  0.3744  0.5805 -0.0320
  161MOL0     C21661   1.932   0.240  11.056 -0.1378 -1.8398 -0.0681
  161MOL0     C21662   2.014   0.239  11.192  0.0125  0.7235 -0.6428
  161MOL0     C21663   2.139   0.324  11.179  0.8517  1.2094 -0.7913
  161MOL0     C21664   2.212   0.309  11.302 -0.4995 -0.0743  0.1271
  161MOL0     C21665   2.278   0.276  11.402 -0.0816  0.1075 -0.1700
  161MOL0     C21666   1.610   0.265  10.792 -1.0751 -0.9719  0.0474
  161MOL0     C21667   1.504   0.181  10.769  0.0864 -0.4141  0.1886
  161MOL0     H21668   1.212  -0.270  10.953  0.5574  1.6806  0.8128
  161MOL0     H21669   1.025  -0.401  10.892 -1.2685  0.7387  1.1041
  161MOL0     H21670   0.762  -0.452  10.970 -2.6053 -1.2461  0.5436
  161MOL0     H21671   0.711  -0.288  11.002  2.3112  0.4934 -0.3721
  161MOL0     H21672   0.521  -0.314  10.854  3.0265  0.9962  1.2714
  161MOL0     H21673   0.569  -0.484  10.813 -0.7406  0.5469 -0.7680
  161MOL0     H21674   0.424  -0.539  10.971  1.8771 -1.3283  0.9328
  161MOL0     H21675   0.567  -0.529  11.068 -1.4231 -0.2099  0.9965
  161MOL0     H21676   0.497  -0.288  11.131  1.4106 -2.3690  0.9141
  161MOL0     H21677   0.357  -0.297  11.031 -0.3610  1.2244  1.2640
  161MOL0     H21678   0.286  -0.500  11.169 -0.9287 -0.0807 -1.8552
  161MOL0     H21679   0.413  -0.458  11.278  0.6704 -2.0268 -1.8890
  161MOL0     H21680   0.308  -0.243  11.336  3.2887 -0.5531 -2.0137
  161MOL0     H21681   0.225  -0.238  11.183  2.2177 -1.0728 -2.1130
  161MOL0     H21682   0.073  -0.428  11.237 -0.6848 -1.8399  0.8444
  161MOL0     H21683   0.138  -0.453  11.393  0.0348 -3.1260 -2.8122
  161MOL0     H21684   0.004  -0.197  11.286 -0.5043  1.6745  1.5657
  161MOL0     H21685   0.066  -0.233  11.453 -1.9966 -0.0807  0.6714
  161MOL0     H21686  -0.212  -0.379  11.209 -0.3361 -1.0149  0.2969
  161MOL0     H21687  -0.440  -0.494  11.240  1.7258  0.1148  0.2032
  161MOL0     H21688  -0.447  -0.598  11.391 -1.2888  0.0947  1.0523
  161MOL0     H21689  -0.626  -0.400  11.304 -1.4855  0.8454  1.4140
  161MOL0     H21690  -0.534  -0.307  11.418 -0.5253 -0.6741  0.7272
  161MOL0     H21691  -0.577  -0.516  11.582  2.9022  1.1745 -1.8597
  161MOL0     H21692  -0.673  -0.577  11.447 -2.1982 -0.4803  1.6580
  161MOL0     H21693  -0.812  -0.357  11.445 -2.4336  2.6780  2.9696
  161MOL0     H21694  -0.740  -0.325  11.606  0.9799  0.0989  0.3551
  161MOL0     H21695  -0.844  -0.492  11.863 -0.9742 -1.5772  0.6874
  161MOL0     H21696  -1.111  -0.394  12.104 -1.7526  1.6009 -3.4826
  161MOL0     H21697  -1.110  -0.562  12.053  0.4201 -0.7380  0.7311
  161MOL0     H21698  -0.953  -0.480  12.084  0.7142  2.0487 -1.5485
  161MOL0     H21699  -1.428  -0.260  12.162  1.5678 -0.1136 -0.6774
  161MOL0     H21700  -1.672  -0.228  12.269 -2.8229  1.1118 -1.2979
  161MOL0     H21701  -1.946  -0.036  11.981 -1.0872  0.1727  0.2781
  161MOL0     H21702  -2.043  -0.171  12.011 -0.9163 -0.2567 -0.1502
  161MOL0     H21703  -1.994   0.058  12.196  1.3997  0.1777 -0.9103
  161MOL0     H21704  -2.126   0.046  12.097  2.4860 -0.6177 -1.3624
  161MOL0     H21705  -2.188  -0.003  12.329 -0.9407  0.7785 -1.3227
  161MOL0     H21706  -2.070  -0.141  12.334 -0.4364 -1.0866 -0.0940
  161MOL0     H21707  -2.346  -0.117  12.201 -3.3256 -3.7105  3.2017
  161MOL0     H21708  -2.211  -0.228  12.150  2.5953  1.6060 -0.2430
  161MOL0     H21709  -2.332  -0.192  12.425 -2.5737 -2.4936  0.0330
  161MOL0     H21710  -2.220  -0.318  12.376  1.5853  1.9347 -0.0168
  161MOL0     H21711  -2.413  -0.392  12.220 -2.9771 -1.9581 -0.3969
  161MOL0     H21712  -2.427  -0.418  12.396 -1.5135  0.0193 -0.2023
  161MOL0     H21713  -2.530  -0.185  12.238  3.1054 -2.2447 -1.3230
  161MOL0     H21714  -2.562  -0.187  12.407 -2.0624 -0.8632 -0.4936
  161MOL0     H21715  -2.632  -0.418  12.217  0.2776 -0.3690 -0.0690
  161MOL0     H21716  -2.751  -0.296  12.252 -1.4259 -0.6663 -0.4781
  161MOL0     H21717  -1.799  -0.146  11.876 -3.0691  0.1682  1.9791
  161MOL0     H21718  -1.580  -0.193  11.781 -1.8678  1.0868 -0.7157
  161MOL0     H21719  -1.254  -0.272  11.664 -1.3199 -1.5043 -0.4018
  161MOL0     H21720  -1.081  -0.346  11.528 -2.8481  0.8030 -0.1536
  161MOL0     H21721   0.797  -0.048  10.817 -0.6182  0.6871  0.1372
  161MOL0     H21722   0.973   0.087  10.893 -0.1658 -0.1309 -0.8956
  161MOL0     H21723   1.415   0.128  11.092  0.9878 -2.7241  0.5102
  161MOL0     H21724   1.608   0.283  11.123 -1.2450  2.9326 -0.3093
  161MOL0     H21725   1.914   0.466  11.055  0.5040  0.4843  0.3945
  161MOL0     H21726   1.782   0.377  11.141 -1.9366 -2.3209 -1.6731
  161MOL0     H21727   2.002   0.226  10.973  0.9009  0.2616  0.3920
  161MOL0     H21728   1.861   0.156  11.049  0.3784 -2.2752 -0.1572
  161MOL0     H21729   2.039   0.136  11.221 -1.6101  0.7062  0.8745
  161MOL0     H21730   1.950   0.285  11.268 -1.2644  0.7472 -1.7033
  161MOL0     H21731   2.112   0.427  11.153 -2.0350  0.7285 -0.0167
  161MOL0     H21732   2.200   0.286  11.096  0.2407  2.8898 -2.0698
  161MOL0     H21733   2.341   0.258  11.487 -0.3215  0.7346  0.1376
  161MOL0     H21734   1.653   0.318  10.708 -0.6442 -0.2936  0.6741
  161MOL0     H21735   1.473   0.165  10.666  1.4493  0.7912 -0.4445
  162MOL0     O21736   7.126   6.032   7.247 -0.2230 -0.3720  0.4564
  162MOL0     C21737   7.223   6.093   7.212  0.3153 -0.6102 -0.6993
  162MOL0     O21738   7.235   6.194   7.111 -0.0980  0.1449  0.1449
  162MOL0     C21739   7.126   6.211   7.034  0.4847  0.2727  0.0996
  162MOL0     C21740   7.044   6.320   7.047 -0.4276 -0.0244 -1.0656
  162MOL0     C21741   6.930   6.341   6.977  0.1071  0.6832 -0.9454
  162MOL0     C21742   6.893   6.240   6.884  0.7576 -0.0792 -0.0048
  162MOL0     O21743   6.784   6.252   6.796 -0.3067  0.1135  1.0915
  162MOL0     C21744   6.669   6.325   6.849 -0.4313 -0.8799  0.0820
  162MOL0     C21745   6.535   6.298   6.770  0.5116 -0.6635 -0.8984
  162MOL0     C21746   6.550   6.279   6.616  0.3135  0.0781  1.1939
  162MOL0     C21747   6.407   6.278   6.555 -0.9830 -0.1577 -0.6643
  162MOL0     C21748   6.401   6.282   6.398  0.7768 -0.1949  0.2078
  162MOL0     C21749   6.265   6.232   6.338 -0.0708 -0.3998 -0.2321
  162MOL0     C21750   6.223   6.094   6.389 -0.0325 -0.1087  0.4065
  162MOL0     C21751   6.110   6.032   6.305  0.8703 -0.1002  0.6930
  162MOL0     N21752   5.990   6.113   6.268 -0.3391 -0.5449  0.1655
  162MOL0     C21753   5.911   6.156   6.367  0.5501 -0.0466  0.3694
  162MOL0     C21754   5.829   6.255   6.322 -0.2331 -0.3353 -0.4676
  162MOL0     C21755   5.737   6.350   6.395  0.0814  0.5764 -0.5480
  162MOL0     C21756   5.605   6.368   6.318  0.3935 -0.3948 -0.9400
  162MOL0     C21757   5.515   6.473   6.389 -0.0014  0.6976  0.2178
  162MOL0     C21758   5.377   6.489   6.323  0.1765  0.1865  0.0980
  162MOL0     O21759   5.297   6.369   6.320 -0.3384 -0.4092 -0.3192
  162MOL0     C21760   5.158   6.397   6.329  0.5110 -0.1951  0.1040
  162MOL0     C21761   5.099   6.521   6.325  0.2685  0.0584  0.1916
  162MOL0     C21762   4.963   6.539   6.328 -0.0672  0.1755 -1.3725
  162MOL0     C21763   4.896   6.680   6.326 -0.8144  0.1569  0.6207
  162MOL0     C21764   4.877   6.425   6.343  0.2291 -0.2621 -0.1200
  162MOL0     C21765   4.727   6.431   6.368 -0.6222 -0.9564  0.4416
  162MOL0     O21766   4.646   6.463   6.259 -0.9269 -0.3574 -0.0836
  162MOL0     C21767   4.513   6.452   6.288 -0.7124  0.6877  0.3023
  162MOL0     C21768   4.460   6.319   6.292  0.0590  0.0067  0.6509
  162MOL0     C21769   4.323   6.297   6.315  0.9051 -0.0519  0.6108
  162MOL0     C21770   4.232   6.400   6.313 -0.7042  0.5050  0.1843
  162MOL0     O21771   4.103   6.377   6.321  0.7526 -0.4784  0.0914
  162MOL0     C21772   4.005   6.474   6.338 -0.4165 -0.5617 -0.2208
  162MOL0     C21773   3.873   6.406   6.303 -0.5531  1.0226  0.0675
  162MOL0     C21774   3.823   6.323   6.418 -0.0024  0.3144  0.6799
  162MOL0     C21775   3.684   6.270   6.381 -0.4796 -0.0312  0.2949
  162MOL0     C21776   3.617   6.197   6.503 -0.3299 -0.0236  0.1275
  162MOL0     C21777   3.471   6.175   6.466 -0.2820  0.0190 -0.7088
  162MOL0     C21778   3.410   6.160   6.610  0.5811 -0.0018 -0.6888
  162MOL0     C21779   3.469   6.055   6.699  0.3459  0.2626 -0.2320
  162MOL0    Cl21780   3.349   6.037   6.836 -0.2281 -0.4145 -0.2219
  162MOL0     C21781   4.282   6.531   6.316  1.1486 -0.4945 -0.3879
  162MOL0     C21782   4.418   6.551   6.313 -0.5354 -0.1376 -0.3245
  162MOL0     O21783   4.695   6.389   6.476  0.3389 -0.2486  0.3443
  162MOL0     C21784   4.937   6.299   6.359  0.4026 -0.6814 -0.2577
  162MOL0     C21785   5.074   6.294   6.356  0.1077  0.3753  1.0170
  162MOL0     N21786   5.852   6.247   6.177 -0.0136  0.2292 -0.0707
  162MOL0     N21787   5.949   6.160   6.149 -0.6247  0.2094  1.1823
  162MOL0     C21788   6.970   6.129   6.866  0.7707 -0.4409 -1.5127
  162MOL0     C21789   7.089   6.113   6.932  1.2268  0.2041 -0.9911
  162MOL0     C21790   7.355   6.057   7.281  0.5112  0.3913  0.0701
  162MOL0     C21791   7.477   6.122   7.252  0.0853  0.4150  0.5081
  162MOL0     C21792   7.594   6.075   7.321  0.4118  0.3681  0.1359
  162MOL0     C21793   7.589   5.980   7.420  0.5241  0.3031 -0.3851
  162MOL0     O21794   7.706   5.935   7.484 -0.6002 -0.7884  0.1099
  162MOL0     C21795   7.716   5.953   7.621 -0.4251 -0.9034 -0.6352
  162MOL0     C21796   7.845   5.875   7.663  0.1176 -0.3930  0.7092
  162MOL0     C21797   7.971   5.952   7.635  0.1354 -0.1367 -0.9257
  162MOL0     C21798   8.116   5.891   7.676  0.2060  0.5183 -0.4108
  162MOL0     C21799   8.158   5.950   7.800  0.2280  0.3097  0.0329
  162MOL0     C21800   8.211   5.995   7.905 -0.1144 -0.4314  0.0386
  162MOL0     C21801   7.468   5.911   7.444 -0.1393  0.2880 -1.3251
  162MOL0     C21802   7.360   5.951   7.373  1.0219 -0.2450 -0.0635
  162MOL0     H21803   7.066   6.393   7.124 -3.4618  0.3844 -0.4846
  162MOL0     H21804   6.871   6.432   6.984  0.4387  1.0788 -2.9176
  162MOL0     H21805   6.666   6.311   6.957  0.7998  2.7475  0.7367
  162MOL0     H21806   6.687   6.433   6.838  1.3177 -1.3669 -3.3909
  162MOL0     H21807   6.501   6.207   6.819  1.1825 -1.3719 -1.7194
  162MOL0     H21808   6.464   6.380   6.785  2.3880  0.9912 -0.6259
  162MOL0     H21809   6.605   6.362   6.570  1.7181 -0.9546  0.9208
  162MOL0     H21810   6.595   6.182   6.590 -1.6872 -0.1127 -2.1609
  162MOL0     H21811   6.347   6.201   6.605  0.6643 -0.0237  1.7145
  162MOL0     H21812   6.354   6.369   6.585  0.1582  1.0295 -2.1348
  162MOL0     H21813   6.418   6.385   6.368 -1.0451  0.2069  0.4712
  162MOL0     H21814   6.483   6.219   6.361 -0.4969 -1.9283  0.2040
  162MOL0     H21815   6.185   6.301   6.369  2.8046  2.4450  1.5871
  162MOL0     H21816   6.283   6.220   6.231 -0.3141 -1.3971 -0.1690
  162MOL0     H21817   6.303   6.021   6.371 -0.6576 -0.4233 -1.3052
  162MOL0     H21818   6.196   6.097   6.494 -2.6486 -1.3181 -0.1509
  162MOL0     H21819   6.063   5.949   6.358  0.5736  0.5209  1.4384
  162MOL0     H21820   6.161   6.005   6.212  1.2872  2.4750  0.0707
  162MOL0     H21821   5.910   6.122   6.470 -2.1103  0.0949  0.4514
  162MOL0     H21822   5.707   6.309   6.492  0.5426  0.1269 -0.5910
  162MOL0     H21823   5.781   6.448   6.415  0.4824 -0.4025  5.0594
  162MOL0     H21824   5.563   6.267   6.304  0.9477 -0.9374  1.0354
  162MOL0     H21825   5.635   6.407   6.220  3.1450  0.9651  0.3469
  162MOL0     H21826   5.562   6.571   6.405  0.8341  0.0611  1.8686
  162MOL0     H21827   5.493   6.433   6.489 -3.0111 -0.8188 -0.9368
  162MOL0     H21828   5.384   6.522   6.219 -4.1095  2.7510  0.3669
  162MOL0     H21829   5.329   6.560   6.392 -0.5879 -1.5438  1.4334
  162MOL0     H21830   5.157   6.611   6.304  1.0054 -0.7879 -1.5715
  162MOL0     H21831   4.844   6.715   6.415  0.1130  1.8626  0.5496
  162MOL0     H21832   4.973   6.757   6.311 -0.4921  0.2659  2.5756
  162MOL0     H21833   4.827   6.696   6.243  0.1289 -0.1688 -0.2582
  162MOL0     H21834   4.531   6.240   6.268  2.6540  3.0132 -2.5811
  162MOL0     H21835   4.282   6.198   6.331  0.4310 -0.3129 -1.8677
  162MOL0     H21836   3.990   6.502   6.443 -2.1692 -1.0703 -0.3006
  162MOL0     H21837   4.008   6.559   6.270  0.8696 -0.0037  0.4996
  162MOL0     H21838   3.795   6.483   6.299 -0.8058  0.8257  1.0819
  162MOL0     H21839   3.869   6.330   6.225  0.1397  1.3103 -0.2566
  162MOL0     H21840   3.815   6.387   6.506 -1.8956  0.1548  0.6615
  162MOL0     H21841   3.879   6.232   6.443 -2.3261 -0.9318  1.6142
  162MOL0     H21842   3.615   6.336   6.327  1.3385  1.0506 -0.8370
  162MOL0     H21843   3.689   6.187   6.310 -1.4460 -1.2926  1.6479
  162MOL0     H21844   3.646   6.252   6.593  0.9291 -0.8438  0.2548
  162MOL0     H21845   3.651   6.093   6.512 -1.8850 -0.4309  1.8666
  162MOL0     H21846   3.431   6.258   6.407 -0.4243 -1.6145 -3.0230
  162MOL0     H21847   3.465   6.095   6.393 -0.4982 -0.5036 -0.1264
  162MOL0     H21848   3.308   6.123   6.592  0.8483 -0.3570 -1.5114
  162MOL0     H21849   3.422   6.254   6.664 -0.6851 -0.2864  0.1347
  162MOL0     H21850   3.566   6.089   6.737  0.1786 -2.7769  3.4788
  162MOL0     H21851   3.482   5.960   6.645  1.5233  0.9098 -1.1503
  162MOL0     H21852   4.214   6.615   6.304  1.8961  0.2979  0.6958
  162MOL0     H21853   4.451   6.655   6.313 -1.3115  0.1155  0.3639
  162MOL0     H21854   4.869   6.225   6.399 -0.6477  0.7192  0.6402
  162MOL0     H21855   5.113   6.196   6.382 -0.7435  0.1136  1.3445
  162MOL0     H21856   6.944   6.053   6.793  0.6658 -0.5663 -1.3451
  162MOL0     H21857   7.158   6.035   6.902  0.9248  0.5968 -2.7693
  162MOL0     H21858   7.467   6.203   7.181 -3.3902 -1.2117 -1.0874
  162MOL0     H21859   7.692   6.118   7.298  0.3802  0.2002 -0.3098
  162MOL0     H21860   7.708   6.056   7.657 -0.7899 -0.5327 -1.7314
  162MOL0     H21861   7.634   5.896   7.665 -1.1239 -0.4270 -1.2770
  162MOL0     H21862   7.844   5.783   7.605 -1.0125 -0.2500  0.4749
  162MOL0     H21863   7.841   5.850   7.770 -1.7195  0.6980  0.9337
  162MOL0     H21864   7.956   6.046   7.689 -0.6675 -0.5284 -0.4681
  162MOL0     H21865   7.970   5.977   7.528  2.0950 -1.7198 -1.3905
  162MOL0     H21866   8.178   5.913   7.589 -3.4620  2.0611 -2.8864
  162MOL0     H21867   8.106   5.782   7.681  0.8301  0.3068 -2.6275
  162MOL0     H21868   8.257   6.020   7.999  0.3458 -1.8304  0.2010
  162MOL0     H21869   7.461   5.823   7.506 -1.1469  0.3104 -1.3905
  162MOL0     H21870   7.268   5.900   7.402 -0.0118  1.1185 -0.8249
  163MOL0     O21871   9.215   1.455   9.418 -0.2068 -0.2184  0.5425
  163MOL0     C21872   9.250   1.570   9.381 -0.1072  0.0698  0.1751
  163MOL0     O21873   9.385   1.623   9.369 -0.4490 -0.0254  0.4211
  163MOL0     C21874   9.488   1.534   9.386 -0.5960 -0.4801  0.4046
  163MOL0     C21875   9.498   1.412   9.316  0.7599 -0.8773  0.2212
  163MOL0     C21876   9.615   1.342   9.320  0.6294 -0.3944  0.5364
  163MOL0     C21877   9.722   1.375   9.400  0.1567 -0.4425  0.7185
  163MOL0     O21878   9.819   1.286   9.409 -0.0057 -0.0982 -0.4897
  163MOL0     C21879   9.946   1.325   9.374 -0.3518 -0.1990 -0.7927
  163MOL0     C21880  10.055   1.238   9.442 -0.1428 -0.2800 -0.0731
  163MOL0     C21881  10.195   1.300   9.444 -0.7533 -0.8471 -1.3888
  163MOL0     C21882  10.249   1.296   9.309 -0.4033  0.0315 -0.1633
  163MOL0     C21883  10.396   1.350   9.319  0.0963  0.5086  0.0333
  163MOL0     C21884  10.394   1.509   9.323  0.2506  0.3393  0.5395
  163MOL0     C21885  10.542   1.552   9.368 -0.2757 -1.0558  0.0516
  163MOL0     C21886  10.571   1.519   9.514 -0.6916  0.9317  0.0603
  163MOL0     N21887  10.469   1.557   9.610 -0.8862 -0.3844  0.9600
  163MOL0     C21888  10.446   1.684   9.642 -0.3033  0.2125  0.0194
  163MOL0     C21889  10.341   1.679   9.733 -0.6452  0.4953  0.3833
  163MOL0     C21890  10.294   1.795   9.816 -0.6815  0.0943 -0.4350
  163MOL0     C21891  10.217   1.904   9.733  0.3877  0.7595  0.6445
  163MOL0     C21892  10.105   1.851   9.636 -0.4900  0.7167 -0.1028
  163MOL0     C21893  10.063   1.957   9.532 -0.6546 -0.1728  0.1411
  163MOL0     O21894   9.953   1.904   9.448 -0.0415 -0.0395 -0.6612
  163MOL0     C21895   9.814   1.924   9.468  0.1724  0.1683  0.7054
  163MOL0     C21896   9.720   1.913   9.361  0.5677 -0.9175 -0.8752
  163MOL0     C21897   9.581   1.938   9.368 -1.2833 -0.3617  0.1342
  163MOL0     C21898   9.496   1.924   9.251 -0.2008  1.0327 -0.1937
  163MOL0     C21899   9.531   1.973   9.497 -0.6100 -0.0196 -0.3023
  163MOL0     C21900   9.386   1.998   9.530  0.5757  0.1874 -0.3568
  163MOL0     O21901   9.359   2.039   9.656 -0.4696 -0.1968 -0.1286
  163MOL0     C21902   9.241   2.018   9.719  0.3072 -0.3548 -0.6507
  163MOL0     C21903   9.125   2.029   9.651  0.8477  0.5860  0.2875
  163MOL0     C21904   9.003   2.007   9.720  0.4637  0.4146 -0.6264
  163MOL0     C21905   8.991   1.977   9.854 -0.3955  0.8579 -0.6313
  163MOL0     O21906   8.867   1.965   9.909 -0.0240  0.5165 -0.3305
  163MOL0     C21907   8.856   1.903  10.045  0.0036 -0.4303 -0.2132
  163MOL0     C21908   8.709   1.901  10.078 -0.6760  0.7905  0.0256
  163MOL0     C21909   8.685   1.792  10.169 -0.1301  0.2124 -1.1974
  163MOL0     C21910   8.535   1.802  10.228 -0.8346  0.4334  0.6628
  163MOL0     C21911   8.523   1.693  10.336  0.5251 -0.5666 -0.1734
  163MOL0     C21912   8.386   1.711  10.398  0.7033 -0.9696 -0.2830
  163MOL0     C21913   8.365   1.626  10.522 -0.9249 -0.0981  0.6705
  163MOL0     C21914   8.226   1.650  10.592 -0.3158 -0.0050 -0.9769
  163MOL0    Cl21915   8.089   1.612  10.493  0.1180 -0.1144 -0.0590
  163MOL0     C21916   9.114   1.958   9.925  0.7880  0.3209  0.4074
  163MOL0     C21917   9.237   1.977   9.856 -0.2542  0.2440  0.1772
  163MOL0     O21918   9.298   1.967   9.447  0.4301  0.0952  0.1742
  163MOL0     C21919   9.621   1.971   9.609  0.4434  0.4110  0.5787
  163MOL0     C21920   9.757   1.947   9.595 -0.8942  0.7268  0.1857
  163MOL0     N21921  10.297   1.547   9.739 -0.2151  0.2119  0.9790
  163MOL0     N21922  10.376   1.477   9.672 -1.2544 -0.5372 -0.5531
  163MOL0     C21923   9.714   1.493   9.478  0.3169 -0.1197 -0.6562
  163MOL0     C21924   9.600   1.575   9.467  0.1778 -0.5685  0.2132
  163MOL0     C21925   9.147   1.664   9.371  0.4030 -0.2586 -0.6686
  163MOL0     C21926   9.147   1.770   9.280 -0.0687  0.1216 -0.1455
  163MOL0     C21927   9.046   1.866   9.281 -0.3785  0.7780  0.5281
  163MOL0     C21928   8.937   1.853   9.374 -0.5143 -1.1219  0.0988
  163MOL0     O21929   8.837   1.946   9.393 -0.3035 -0.0760 -0.7657
  163MOL0     C21930   8.804   2.048   9.292 -0.5639 -0.4560 -0.2864
  163MOL0     C21931   8.655   2.065   9.308 -0.1357 -0.5940  0.2207
  163MOL0     C21932   8.571   1.952   9.265  0.9457  0.0568  0.2978
  163MOL0     C21933   8.426   1.987   9.309 -0.1974 -0.2488  0.3711
  163MOL0     C21934   8.341   1.885   9.258  0.6052  0.5539 -0.1556
  163MOL0     C21935   8.269   1.785   9.227 -0.5148  0.2894  0.0876
  163MOL0     C21936   8.931   1.739   9.451 -0.8255 -0.3545  0.9646
  163MOL0     C21937   9.031   1.648   9.454  0.0354 -0.1566 -0.1442
  163MOL0     H21938   9.421   1.387   9.244  2.5846 -2.6248 -1.2631
  163MOL0     H21939   9.619   1.247   9.267 -3.6329 -2.5049  3.3994
  163MOL0     H21940   9.958   1.316   9.266  0.8677 -0.0900 -0.6846
  163MOL0     H21941   9.967   1.427   9.410  1.1654  0.4989 -3.3803
  163MOL0     H21942  10.043   1.211   9.547  1.4600 -2.8415 -0.4631
  163MOL0     H21943  10.060   1.150   9.377  2.8122  0.3539 -0.8218
  163MOL0     H21944  10.195   1.405   9.475  0.8512 -0.6099 -2.0844
  163MOL0     H21945  10.269   1.261   9.514  3.3590  1.9273 -3.7704
  163MOL0     H21946  10.261   1.195   9.270 -0.6465  0.1195 -0.4714
  163MOL0     H21947  10.189   1.355   9.239  0.1880 -1.4169 -1.9386
  163MOL0     H21948  10.449   1.311   9.406  0.3968  3.1910  1.1517
  163MOL0     H21949  10.457   1.322   9.232  1.4071 -0.9938  1.3828
  163MOL0     H21950  10.359   1.551   9.228 -1.3928 -3.4981 -0.7657
  163MOL0     H21951  10.328   1.553   9.399  4.2894  2.8571  2.9060
  163MOL0     H21952  10.607   1.495   9.301  0.1324  0.4741 -0.9233
  163MOL0     H21953  10.543   1.660   9.349  1.7009 -1.3610 -1.9982
  163MOL0     H21954  10.664   1.574   9.533 -1.2600  1.5362  1.1653
  163MOL0     H21955  10.591   1.412   9.528 -1.2919  1.0924  2.7722
  163MOL0     H21956  10.500   1.770   9.604 -0.8736  1.1220  1.1670
  163MOL0     H21957  10.233   1.755   9.898 -0.4720 -2.0106 -1.2550
  163MOL0     H21958  10.380   1.851   9.854  1.0350 -2.4528 -0.3053
  163MOL0     H21959  10.297   1.942   9.668  0.3528 -1.3011 -0.6882
  163MOL0     H21960  10.179   1.985   9.796  2.0927  1.4585  0.8425
  163MOL0     H21961  10.026   1.800   9.691  0.2928 -1.1618 -0.6226
  163MOL0     H21962  10.142   1.768   9.575 -2.1534  2.6011 -4.0644
  163MOL0     H21963  10.157   1.969   9.476 -0.1947 -1.9143  0.4789
  163MOL0     H21964  10.032   2.058   9.560 -0.6236 -0.0466 -0.2745
  163MOL0     H21965   9.755   1.874   9.266  1.7876 -3.7440  0.5993
  163MOL0     H21966   9.564   1.930   9.166 -2.0504 -0.8305 -1.9234
  163MOL0     H21967   9.446   1.827   9.245 -0.5964  1.1680  0.7576
  163MOL0     H21968   9.416   2.000   9.253 -0.6802  0.6309 -2.0098
  163MOL0     H21969   9.106   2.060   9.549 -0.6590  0.8743  0.6336
  163MOL0     H21970   8.905   2.018   9.673  0.0255  3.6917  0.7422
  163MOL0     H21971   8.898   1.802  10.049 -0.3195 -0.5833 -0.5532
  163MOL0     H21972   8.906   1.963  10.122 -0.7942 -1.5020  1.1709
  163MOL0     H21973   8.689   2.003  10.114  2.8493  2.1696 -1.4285
  163MOL0     H21974   8.657   1.876   9.985  0.7167 -0.5603 -0.4433
  163MOL0     H21975   8.757   1.810  10.249  0.8228 -0.7855 -1.8088
  163MOL0     H21976   8.688   1.692  10.125 -2.6585 -0.2300 -0.5068
  163MOL0     H21977   8.501   1.901  10.259 -0.4127  0.6302  0.5111
  163MOL0     H21978   8.469   1.783  10.143  0.5660  0.5488 -0.4919
  163MOL0     H21979   8.614   1.699  10.397  0.9890  1.0056 -0.9525
  163MOL0     H21980   8.515   1.593  10.293  0.1851  0.4249 -2.6192
  163MOL0     H21981   8.367   1.812  10.437 -0.9308 -1.4328  0.2102
  163MOL0     H21982   8.303   1.698  10.328  1.0766  1.3830 -1.2807
  163MOL0     H21983   8.441   1.644  10.599 -1.6114  0.7633  1.1680
  163MOL0     H21984   8.369   1.518  10.508 -1.2981 -0.2006  1.3465
  163MOL0     H21985   8.211   1.749  10.637 -2.6379 -0.7104 -0.0519
  163MOL0     H21986   8.224   1.586  10.680  3.4272  2.2400  1.0156
  163MOL0     H21987   9.105   1.920  10.026 -0.6514  2.2416  1.0517
  163MOL0     H21988   9.331   1.976   9.911  0.6651 -1.6038 -1.2903
  163MOL0     H21989   9.571   1.976   9.705 -0.3098 -1.5338  0.3335
  163MOL0     H21990   9.820   1.942   9.683 -0.9165  1.1239  0.2256
  163MOL0     H21991   9.790   1.534   9.543  1.2551 -0.2244 -1.6625
  163MOL0     H21992   9.596   1.672   9.517 -0.1231 -0.6592  0.3659
  163MOL0     H21993   9.230   1.793   9.214  2.2158 -0.3325  2.3921
  163MOL0     H21994   9.059   1.946   9.210 -2.7024  0.4673 -0.3583
  163MOL0     H21995   8.859   2.138   9.320 -4.5286  2.3415 -0.6199
  163MOL0     H21996   8.820   2.039   9.185 -0.0049  4.1595 -0.7787
  163MOL0     H21997   8.628   2.146   9.240  2.4462  0.9590  0.9052
  163MOL0     H21998   8.636   2.095   9.412 -1.2844 -0.8075  0.0819
  163MOL0     H21999   8.615   1.856   9.296  1.9687  1.0126  1.8996
  163MOL0     H22000   8.567   1.944   9.156 -0.5192 -1.1220  0.4022
  163MOL0     H22001   8.403   2.092   9.290 -1.3428 -0.5827 -0.2457
  163MOL0     H22002   8.428   1.980   9.418 -1.4250  0.9455  0.5039
  163MOL0     H22003   8.198   1.710   9.198 -1.0145  0.5894  0.5250
  163MOL0     H22004   8.847   1.723   9.517 -2.3093  1.1698 -0.4554
  163MOL0     H22005   9.036   1.564   9.522 -1.6548 -0.7084 -0.6497
  164MOL0     O22006  10.615   8.912   8.619 -0.1291  0.0846  0.4133
  164MOL0     C22007  10.707   8.886   8.702 -0.4872 -0.0849 -0.1714
  164MOL0     O22008  10.707   8.765   8.774  0.1714 -0.7319 -0.5002
  164MOL0     C22009  10.619   8.667   8.727  0.5403  0.2682 -0.1578
  164MOL0     C22010  10.486   8.664   8.783  0.1724 -0.2268  0.4409
  164MOL0     C22011  10.398   8.559   8.755  0.3513  0.2591  0.7137
  164MOL0     C22012  10.443   8.459   8.661 -1.1246 -0.0401 -1.0331
  164MOL0     O22013  10.370   8.350   8.639  0.0722  0.3831  0.0052
  164MOL0     C22014  10.224   8.354   8.637 -0.6284  0.2183 -0.6170
  164MOL0     C22015  10.175   8.239   8.551  0.1534 -0.5929 -0.5633
  164MOL0     C22016  10.018   8.228   8.546 -0.1593  0.2775 -0.2110
  164MOL0     C22017   9.936   8.326   8.469  0.2654  0.0643  0.7355
  164MOL0     C22018   9.780   8.333   8.495 -0.4933 -0.1960  0.3051
  164MOL0     C22019   9.716   8.200   8.467  0.4058  0.7112 -0.4608
  164MOL0     C22020   9.573   8.183   8.512  0.1764 -1.4643  1.1738
  164MOL0     C22021   9.525   8.043   8.483 -0.1250  0.2523  0.7933
  164MOL0     N22022   9.381   8.049   8.487  0.5326 -0.6799 -0.7323
  164MOL0     C22023   9.308   8.118   8.394  0.5020  0.3332  0.5818
  164MOL0     C22024   9.178   8.109   8.431 -0.3515  0.3876  0.4915
  164MOL0     C22025   9.056   8.158   8.349  0.0832  0.2983 -0.5734
  164MOL0     C22026   8.931   8.070   8.368  0.2535 -0.4245  0.5685
  164MOL0     C22027   8.813   8.130   8.291  0.6191  0.1086 -0.3626
  164MOL0     C22028   8.695   8.038   8.282  0.6464 -0.0539 -1.6892
  164MOL0     O22029   8.643   8.034   8.411  0.3483  0.7997  0.2861
  164MOL0     C22030   8.511   7.993   8.425  0.8153 -0.2518  0.6532
  164MOL0     C22031   8.463   7.872   8.366  0.2442 -0.0266 -1.2799
  164MOL0     C22032   8.325   7.840   8.381  0.0593  0.1943  0.2675
  164MOL0     C22033   8.285   7.720   8.293 -0.7266  0.6073 -0.2449
  164MOL0     C22034   8.240   7.920   8.469 -0.6560  0.8632  0.3185
  164MOL0     C22035   8.093   7.888   8.479  0.1986 -0.4569 -0.5589
  164MOL0     O22036   8.011   7.991   8.508  0.5992  0.3667 -0.5323
  164MOL0     C22037   7.871   7.966   8.500 -0.5673  0.0206  0.3047
  164MOL0     C22038   7.814   7.871   8.584  1.3849 -0.3785  0.1412
  164MOL0     C22039   7.676   7.847   8.580 -0.6919  0.3340  0.6026
  164MOL0     C22040   7.595   7.921   8.493  0.3666  0.8759  0.3301
  164MOL0     O22041   7.457   7.922   8.495  0.0615  0.2912 -0.2417
  164MOL0     C22042   7.393   7.802   8.545 -0.3736 -1.0249  0.1038
  164MOL0     C22043   7.242   7.820   8.559  0.0015 -0.0525  1.0318
  164MOL0     C22044   7.167   7.777   8.424  0.5961  0.1217  0.2300
  164MOL0     C22045   7.026   7.722   8.453 -0.3758  0.0038  0.2250
  164MOL0     C22046   6.946   7.689   8.321 -0.7550  0.8737 -0.6061
  164MOL0     C22047   6.812   7.615   8.344 -0.2378 -0.2140 -0.1416
  164MOL0     C22048   6.716   7.624   8.222  0.3435  0.3555 -0.1075
  164MOL0     C22049   6.578   7.556   8.256 -0.2758  0.3154 -0.1780
  164MOL0    Cl22050   6.464   7.597   8.125 -0.7150  0.3594  0.2406
  164MOL0     C22051   7.641   8.022   8.405 -0.0480 -0.2043 -0.6920
  164MOL0     C22052   7.780   8.040   8.413 -1.0531  0.1200 -0.3506
  164MOL0     O22053   8.059   7.769   8.478 -0.3676 -0.4606  0.7645
  164MOL0     C22054   8.286   8.043   8.521 -0.8184 -0.1674  0.1776
  164MOL0     C22055   8.421   8.078   8.506 -0.3170  0.5319  0.3104
  164MOL0     N22056   9.174   8.037   8.549 -0.8582 -0.4703 -0.2033
  164MOL0     N22057   9.293   8.001   8.576  0.0478  0.2614 -0.4583
  164MOL0     C22058  10.570   8.483   8.592 -0.4716  0.5994 -0.9154
  164MOL0     C22059  10.664   8.570   8.640  0.2727  0.2479 -0.6277
  164MOL0     C22060  10.834   8.967   8.714  0.1324  0.2611 -0.7938
  164MOL0     C22061  10.844   9.089   8.649 -0.5207  0.1404 -0.1360
  164MOL0     C22062  10.963   9.165   8.648 -0.3711 -0.6804  0.2328
  164MOL0     C22063  11.081   9.115   8.705  0.4512 -0.1447 -0.9802
  164MOL0     O22064  11.201   9.179   8.708  0.5331 -0.1868  0.0827
  164MOL0     C22065  11.233   9.274   8.606 -0.3716 -0.3684 -0.2043
  164MOL0     C22066  11.388   9.283   8.576  0.5265 -0.0503  0.0291
  164MOL0     C22067  11.424   9.397   8.481 -0.2221 -0.4472  0.4788
  164MOL0     C22068  11.577   9.425   8.499  0.1647 -0.0801 -0.5923
  164MOL0     C22069  11.631   9.514   8.397  1.0293 -0.6523  0.2055
  164MOL0     C22070  11.682   9.576   8.308  0.0385  0.4747 -0.0350
  164MOL0     C22071  11.060   8.999   8.784 -0.9533 -0.4713  0.4614
  164MOL0     C22072  10.942   8.918   8.786  0.0515  0.3821  0.6922
  164MOL0     H22073  10.447   8.745   8.843  0.4008 -2.1348  3.4109
  164MOL0     H22074  10.298   8.547   8.797  0.0346  1.7664  0.4745
  164MOL0     H22075  10.185   8.344   8.738  3.8283  0.5679  1.3752
  164MOL0     H22076  10.190   8.451   8.598  0.4493  0.7870 -0.1889
  164MOL0     H22077  10.212   8.248   8.449 -0.6674 -1.9344 -1.0018
  164MOL0     H22078  10.210   8.145   8.596 -0.7279 -0.2331  0.9617
  164MOL0     H22079  10.001   8.123   8.523  2.0799  0.2885 -2.2323
  164MOL0     H22080   9.991   8.238   8.652  0.1678  1.4656 -0.2182
  164MOL0     H22081   9.983   8.424   8.476 -1.6107  1.1761 -1.1451
  164MOL0     H22082   9.953   8.296   8.365  1.2252  0.0991  0.8702
  164MOL0     H22083   9.751   8.359   8.597  0.1998 -2.0372  1.0195
  164MOL0     H22084   9.734   8.400   8.422  0.1303  0.3737  0.4221
  164MOL0     H22085   9.706   8.189   8.359 -1.1584 -0.6430 -0.2236
  164MOL0     H22086   9.777   8.120   8.510 -0.3103  1.1883  1.5731
  164MOL0     H22087   9.566   8.197   8.620  0.4049  5.1313  0.7283
  164MOL0     H22088   9.516   8.266   8.469  0.8110 -1.4784  0.2651
  164MOL0     H22089   9.555   7.974   8.562  1.0013  0.9506  0.9953
  164MOL0     H22090   9.565   8.020   8.383 -2.6824  1.2363 -0.5565
  164MOL0     H22091   9.349   8.175   8.311 -0.0139  0.6384  0.5268
  164MOL0     H22092   9.030   8.263   8.366  2.2867  0.9425 -0.8234
  164MOL0     H22093   9.081   8.154   8.242  2.7443 -0.5302  0.0105
  164MOL0     H22094   8.911   8.047   8.473  2.0355  1.1478  1.3048
  164MOL0     H22095   8.947   7.976   8.315 -1.3164  0.5030 -1.6850
  164MOL0     H22096   8.857   8.148   8.193  0.1533  1.1087 -0.4089
  164MOL0     H22097   8.779   8.229   8.323  0.2305  0.8282 -2.8104
  164MOL0     H22098   8.735   7.939   8.259  0.1102 -1.2095  1.7383
  164MOL0     H22099   8.631   8.061   8.197  2.6469  0.9224 -2.9998
  164MOL0     H22100   8.523   7.809   8.301  0.4966 -0.8038 -0.3117
  164MOL0     H22101   8.182   7.724   8.255 -0.3951  1.8446 -1.0526
  164MOL0     H22102   8.351   7.717   8.206  1.0524  0.6138  1.0511
  164MOL0     H22103   8.300   7.628   8.351 -0.2758  1.2023  0.6042
  164MOL0     H22104   7.875   7.802   8.642  0.7123 -0.6322  0.5533
  164MOL0     H22105   7.638   7.762   8.635  0.4594  0.8078  2.1858
  164MOL0     H22106   7.426   7.715   8.488 -1.7993 -0.4815 -1.6452
  164MOL0     H22107   7.430   7.780   8.645  1.3779 -1.3268 -0.5760
  164MOL0     H22108   7.207   7.753   8.638 -0.5934  0.3623  1.1200
  164MOL0     H22109   7.228   7.927   8.575  0.8231  0.4165 -1.0594
  164MOL0     H22110   7.222   7.698   8.372  1.2604  0.4371  0.4416
  164MOL0     H22111   7.161   7.864   8.358  2.5082  0.4750  0.4546
  164MOL0     H22112   7.033   7.629   8.510  3.8476 -0.9180 -1.3862
  164MOL0     H22113   6.980   7.803   8.509 -1.1550 -0.9584  0.9966
  164MOL0     H22114   6.998   7.615   8.259 -3.1968 -0.2981 -1.3995
  164MOL0     H22115   6.938   7.777   8.257 -0.1694  2.5439  1.4988
  164MOL0     H22116   6.840   7.512   8.368  0.3662 -0.0380 -0.0762
  164MOL0     H22117   6.770   7.677   8.424  0.3043  2.2505 -1.6370
  164MOL0     H22118   6.741   7.565   8.133 -1.2073 -0.2058 -0.1923
  164MOL0     H22119   6.694   7.727   8.192  0.7292  0.4245 -0.1675
  164MOL0     H22120   6.538   7.604   8.346  0.7932  0.8993 -0.0021
  164MOL0     H22121   6.588   7.447   8.260  4.3976  0.2548 -4.0858
  164MOL0     H22122   7.573   8.084   8.347  0.5100  2.1847  1.0451
  164MOL0     H22123   7.828   8.123   8.363  1.1911  0.4128  2.0561
  164MOL0     H22124   8.214   8.105   8.574 -2.7860 -1.2009 -1.1525
  164MOL0     H22125   8.457   8.170   8.551 -1.8676  0.4843  1.7362
  164MOL0     H22126  10.586   8.413   8.510  1.1864  0.5590 -0.5819
  164MOL0     H22127  10.764   8.578   8.597  0.4536 -0.3727 -0.3279
  164MOL0     H22128  10.758   9.115   8.588  0.0371  1.1345 -0.5058
  164MOL0     H22129  10.967   9.257   8.590 -2.0042 -0.0510  1.0580
  164MOL0     H22130  11.176   9.262   8.513  0.8397  2.5294 -1.4364
  164MOL0     H22131  11.187   9.372   8.625  3.0634  2.1042 -3.2047
  164MOL0     H22132  11.417   9.190   8.525 -0.2497  0.2985 -1.0942
  164MOL0     H22133  11.448   9.296   8.666 -0.6276  3.0227  0.4724
  164MOL0     H22134  11.374   9.491   8.503  0.3174 -0.3792  1.4544
  164MOL0     H22135  11.402   9.358   8.381 -0.8813  2.3359 -0.5576
  164MOL0     H22136  11.628   9.329   8.487  0.0674 -0.2722  0.4322
  164MOL0     H22137  11.600   9.463   8.599 -0.7472 -0.0763 -0.3790
  164MOL0     H22138  11.759   9.638   8.266 -1.8438  3.4679  0.6650
  164MOL0     H22139  11.145   8.967   8.843  0.8177  0.9931 -1.1498
  164MOL0     H22140  10.934   8.824   8.839 -3.1167 -0.4045 -0.9100
  165MOL0     O22141   8.695   6.231   8.869  0.1450 -0.5081  0.4269
  165MOL0     C22142   8.760   6.251   8.761 -0.2913  0.1756 -0.0506
  165MOL0     O22143   8.731   6.199   8.634  0.0486 -0.0930 -0.5310
  165MOL0     C22144   8.608   6.161   8.591 -0.3760  0.4637  0.6151
  165MOL0     C22145   8.493   6.129   8.675  0.4752  0.1935  0.5523
  165MOL0     C22146   8.369   6.082   8.626 -0.6914  0.0378  0.1520
  165MOL0     C22147   8.347   6.077   8.490 -0.2091  0.3789  0.2579
  165MOL0     O22148   8.235   6.029   8.443  0.9895  0.2159  0.1352
  165MOL0     C22149   8.110   6.034   8.521 -0.6539 -0.0485  0.0470
  165MOL0     C22150   8.007   5.969   8.427 -0.6880 -0.3211  0.3979
  165MOL0     C22151   7.868   5.926   8.487 -0.1240  0.9656 -0.6425
  165MOL0     C22152   7.774   5.853   8.395  0.3624  0.0395 -0.0447
  165MOL0     C22153   7.639   5.807   8.453 -0.2221 -0.7813 -0.3530
  165MOL0     C22154   7.543   5.788   8.343 -0.5910  0.0844  0.8577
  165MOL0     C22155   7.424   5.696   8.371  0.7005 -0.5490 -0.5523
  165MOL0     C22156   7.327   5.697   8.249  0.3638 -0.1006 -0.0540
  165MOL0     N22157   7.214   5.608   8.292 -0.1294  0.0333 -0.7903
  165MOL0     C22158   7.092   5.639   8.340  0.4933  0.0480  0.4682
  165MOL0     C22159   7.025   5.518   8.346 -0.2228  0.0167 -0.3165
  165MOL0     C22160   6.886   5.495   8.396 -0.5285 -0.3304  0.0183
  165MOL0     C22161   6.803   5.395   8.315 -0.0922  0.0841 -0.3185
  165MOL0     C22162   6.658   5.382   8.369 -1.0283  0.1593 -0.1730
  165MOL0     C22163   6.579   5.276   8.301 -0.5129 -1.2927 -0.2205
  165MOL0     O22164   6.461   5.288   8.365 -0.1501 -0.4822 -0.4844
  165MOL0     C22165   6.362   5.191   8.363 -0.5965 -0.3772  0.4114
  165MOL0     C22166   6.256   5.217   8.444 -0.5245 -0.1264 -0.7122
  165MOL0     C22167   6.149   5.134   8.460 -0.0131  0.2774 -1.2397
  165MOL0     C22168   6.043   5.161   8.573 -0.6098 -0.6170 -0.4635
  165MOL0     C22169   6.150   5.010   8.384 -1.1615  0.2895 -0.4082
  165MOL0     C22170   6.031   4.914   8.369 -0.6220  0.3980  0.6470
  165MOL0     O22171   6.037   4.820   8.270 -0.4784  0.4083 -0.0301
  165MOL0     C22172   5.915   4.762   8.239 -0.5765 -0.9892  0.1696
  165MOL0     C22173   5.888   4.631   8.273  0.1702 -0.1009  0.4128
  165MOL0     C22174   5.764   4.569   8.249  0.2372  0.2105 -0.3373
  165MOL0     C22175   5.653   4.648   8.201  0.7238  0.2416  0.6037
  165MOL0     O22176   5.544   4.575   8.193  0.2916 -0.2731  0.0953
  165MOL0     C22177   5.430   4.633   8.136 -0.2903 -0.3703 -0.0712
  165MOL0     C22178   5.308   4.544   8.180 -0.1308  0.1614 -0.0746
  165MOL0     C22179   5.160   4.586   8.121 -0.6761  0.2981 -0.4502
  165MOL0     C22180   5.154   4.738   8.103  0.0860 -0.4783  0.6914
  165MOL0     C22181   5.015   4.781   8.081 -0.2349 -0.8696  0.7276
  165MOL0     C22182   4.953   4.729   7.947  0.4866 -0.6309  0.1451
  165MOL0     C22183   5.016   4.784   7.818 -0.0527  0.1565  0.2088
  165MOL0     C22184   4.962   4.719   7.687 -0.8712  0.8936  0.0762
  165MOL0    Cl22185   4.797   4.768   7.685 -0.1890  0.4302 -0.0886
  165MOL0     C22186   5.684   4.781   8.157  0.4447 -0.6354 -0.8257
  165MOL0     C22187   5.809   4.838   8.182  0.0941 -0.0352  0.8116
  165MOL0     O22188   5.927   4.948   8.426 -0.8492 -0.3733  0.3330
  165MOL0     C22189   6.259   4.981   8.301 -0.5521 -0.1600  0.2698
  165MOL0     C22190   6.363   5.071   8.295 -1.1397 -0.0106 -0.2594
  165MOL0     N22191   7.120   5.416   8.331 -0.4510 -0.1298  1.2676
  165MOL0     N22192   7.230   5.478   8.289 -0.1842 -0.1913  0.3191
  165MOL0     C22193   8.459   6.102   8.400 -1.0912 -0.6623  0.2316
  165MOL0     C22194   8.580   6.150   8.450 -0.2193 -0.0645 -1.2194
  165MOL0     C22195   8.896   6.299   8.764  0.2557 -0.1639  0.0408
  165MOL0     C22196   8.990   6.302   8.658  0.1758 -0.0327 -0.7328
  165MOL0     C22197   9.123   6.345   8.671  0.2198  0.0819 -0.3787
  165MOL0     C22198   9.161   6.397   8.795  0.0859 -1.3938  0.1256
  165MOL0     O22199   9.285   6.448   8.818  0.3884 -0.4247  0.2858
  165MOL0     C22200   9.391   6.433   8.722  0.2143  0.1003  0.3041
  165MOL0     C22201   9.525   6.471   8.779  0.7176 -0.5145 -0.4483
  165MOL0     C22202   9.646   6.434   8.689  0.8967  0.2235 -0.2930
  165MOL0     C22203   9.671   6.527   8.570 -0.1057  0.6703 -0.4743
  165MOL0     C22204   9.803   6.511   8.517  0.2967 -0.2052  1.6057
  165MOL0     C22205   9.915   6.486   8.472  0.4831  0.5125 -0.8961
  165MOL0     C22206   9.073   6.397   8.899  0.1189 -0.5825  0.4024
  165MOL0     C22207   8.940   6.354   8.889  0.5124  0.4252  0.1426
  165MOL0     H22208   8.504   6.139   8.783 -1.1308  1.2746  0.6442
  165MOL0     H22209   8.292   6.055   8.697 -2.0852 -1.1288 -1.7007
  165MOL0     H22210   8.110   5.986   8.620 -0.0363 -1.4800 -0.6213
  165MOL0     H22211   8.090   6.141   8.531 -0.0868 -0.0967  2.2449
  165MOL0     H22212   7.988   6.039   8.345  2.4047 -2.5521 -2.4923
  165MOL0     H22213   8.057   5.888   8.375  1.8981  1.2137  0.2972
  165MOL0     H22214   7.882   5.862   8.574 -0.4688  1.0008 -0.5582
  165MOL0     H22215   7.816   6.014   8.526 -1.3744 -1.3614  3.4410
  165MOL0     H22216   7.756   5.916   8.308  3.2608  0.9140 -0.0949
  165MOL0     H22217   7.826   5.767   8.352 -4.8298 -2.6388 -1.7832
  165MOL0     H22218   7.644   5.710   8.502  1.9215 -1.5503 -1.9105
  165MOL0     H22219   7.606   5.882   8.525  2.2024 -0.3725  0.4110
  165MOL0     H22220   7.510   5.885   8.303 -0.7792 -0.2814  0.1013
  165MOL0     H22221   7.592   5.754   8.251 -1.7402 -2.6588  1.1455
  165MOL0     H22222   7.456   5.593   8.392  0.1463 -0.5130  0.5134
  165MOL0     H22223   7.382   5.731   8.465  0.2990  1.3086 -1.3759
  165MOL0     H22224   7.381   5.663   8.160  0.2048  0.6965 -0.4686
  165MOL0     H22225   7.299   5.797   8.215  1.8217 -0.4372 -2.4521
  165MOL0     H22226   7.049   5.738   8.351 -0.5593  0.1034 -2.9345
  165MOL0     H22227   6.897   5.454   8.496  1.3733  2.7772  1.2452
  165MOL0     H22228   6.832   5.589   8.413 -1.7707 -1.0181 -0.0307
  165MOL0     H22229   6.847   5.296   8.329  2.0128  1.2929  2.6920
  165MOL0     H22230   6.811   5.425   8.210 -0.1260  0.9227 -0.0917
  165MOL0     H22231   6.605   5.472   8.339 -0.2642  0.1474 -1.6472
  165MOL0     H22232   6.657   5.352   8.475 -0.0217  0.2413 -0.1231
  165MOL0     H22233   6.623   5.177   8.311 -0.2307 -1.4801 -2.7077
  165MOL0     H22234   6.563   5.308   8.197 -2.6882  2.8774  1.1435
  165MOL0     H22235   6.258   5.307   8.505  2.4593 -1.3867  1.2581
  165MOL0     H22236   5.951   5.200   8.530 -0.3891  0.1020 -0.2976
  165MOL0     H22237   5.999   5.075   8.624 -2.8530  1.8145  2.0191
  165MOL0     H22238   6.084   5.224   8.653  0.3276 -1.3919 -0.3108
  165MOL0     H22239   5.968   4.577   8.322  0.7909  0.8488  0.4597
  165MOL0     H22240   5.739   4.469   8.281  0.9579  0.4328  0.9673
  165MOL0     H22241   5.416   4.736   8.170  0.5297  0.0347 -0.9185
  165MOL0     H22242   5.448   4.635   8.028 -0.2788  3.2472 -0.1446
  165MOL0     H22243   5.316   4.440   8.149 -0.0055  0.3628 -0.7447
  165MOL0     H22244   5.304   4.554   8.288 -1.2387  1.9431 -0.2371
  165MOL0     H22245   5.084   4.555   8.193 -0.5634  0.9007 -0.0679
  165MOL0     H22246   5.144   4.523   8.033  3.4898 -0.9386 -0.5793
  165MOL0     H22247   5.193   4.796   8.188  0.6842  2.4587 -1.4351
  165MOL0     H22248   5.218   4.779   8.024  1.1867  1.5549  2.5162
  165MOL0     H22249   5.025   4.889   8.067  1.4799 -1.3567 -3.5137
  165MOL0     H22250   4.955   4.762   8.170  1.1681 -4.2468  1.1274
  165MOL0     H22251   4.952   4.620   7.953  1.5589 -0.5735  1.9671
  165MOL0     H22252   4.849   4.764   7.946  1.1473  1.7820  2.8797
  165MOL0     H22253   5.125   4.770   7.817 -0.2168 -1.3858 -1.2694
  165MOL0     H22254   5.003   4.892   7.817  4.1584  0.9222 -3.5734
  165MOL0     H22255   4.986   4.613   7.684  0.6340  1.2430 -0.9495
  165MOL0     H22256   4.999   4.769   7.597 -1.8926  1.2598 -0.1676
  165MOL0     H22257   5.611   4.852   8.119  0.5934 -0.6473 -1.1356
  165MOL0     H22258   5.831   4.940   8.152  1.2977 -0.5694 -0.2128
  165MOL0     H22259   6.256   4.898   8.231  0.5042 -0.7933  0.9603
  165MOL0     H22260   6.444   5.041   8.230 -0.4353 -0.9504  1.0096
  165MOL0     H22261   8.442   6.087   8.293  0.6557 -2.3889  0.1478
  165MOL0     H22262   8.653   6.169   8.372  0.4107 -2.1938 -1.2173
  165MOL0     H22263   8.967   6.260   8.560  1.6769  0.1786 -1.1948
  165MOL0     H22264   9.193   6.345   8.588  2.2374  0.5458  1.2310
  165MOL0     H22265   9.389   6.329   8.687 -1.4225  0.7475 -1.7221
  165MOL0     H22266   9.382   6.496   8.633  0.7456 -1.9192 -1.2573
  165MOL0     H22267   9.526   6.412   8.871 -1.5320  1.7606  1.1610
  165MOL0     H22268   9.533   6.572   8.819  1.5749 -0.3364 -1.0185
  165MOL0     H22269   9.621   6.334   8.652  1.8707 -0.3342  0.5089
  165MOL0     H22270   9.733   6.428   8.755  0.0264  2.0638  1.1448
  165MOL0     H22271   9.660   6.631   8.603 -3.3481 -0.2626  1.8549
  165MOL0     H22272   9.592   6.497   8.500 -0.5824  0.7630  0.0140
  165MOL0     H22273  10.008   6.455   8.429  0.2550 -0.3506 -0.8022
  165MOL0     H22274   9.116   6.447   8.986  0.8608  0.7079 -0.6721
  165MOL0     H22275   8.873   6.354   8.974 -1.7113 -1.0102 -1.4759
  166MOL0     O22276   6.710   5.364   4.784 -0.3107  0.1984  0.2293
  166MOL0     C22277   6.832   5.369   4.784 -0.9321 -0.2324  0.5149
  166MOL0     O22278   6.920   5.271   4.742  0.0474 -0.4224  0.2851
  166MOL0     C22279   6.873   5.155   4.690 -0.0548 -0.4141 -0.7689
  166MOL0     C22280   6.789   5.152   4.578  0.9268  0.2542 -0.6551
  166MOL0     C22281   6.738   5.034   4.524 -0.7673  0.2199 -0.2676
  166MOL0     C22282   6.769   4.911   4.587 -0.6447  0.4527 -0.2707
  166MOL0     O22283   6.723   4.794   4.533  0.2124  0.3541  0.0967
  166MOL0     C22284   6.647   4.711   4.619 -0.1618 -0.2594 -0.7758
  166MOL0     C22285   6.602   4.578   4.553  0.5100 -0.6672  0.4084
  166MOL0     C22286   6.497   4.590   4.451  0.8419  0.0903  0.6295
  166MOL0     C22287   6.557   4.590   4.315  0.5672  0.6497  0.5058
  166MOL0     C22288   6.464   4.655   4.220  0.2357  0.8213 -0.5467
  166MOL0     C22289   6.475   4.805   4.225  0.0464 -0.0269 -0.8914
  166MOL0     C22290   6.358   4.868   4.139 -0.1903  0.1349  0.6389
  166MOL0     C22291   6.393   5.016   4.113  0.3130  0.1271  0.2037
  166MOL0     N22292   6.275   5.073   4.061  0.0437  0.1413 -0.0150
  166MOL0     C22293   6.267   5.120   3.933  0.3136 -0.1407  0.1298
  166MOL0     C22294   6.154   5.178   3.933 -0.3981 -1.1742  0.4121
  166MOL0     C22295   6.104   5.241   3.808 -1.0097 -0.5212 -0.4852
  166MOL0     C22296   5.948   5.209   3.793  0.1731  0.1487  0.1775
  166MOL0     C22297   5.920   5.071   3.737 -0.5139  1.4996  0.6514
  166MOL0     C22298   5.980   5.049   3.593 -0.0016 -0.0891 -0.2771
  166MOL0     O22299   5.997   5.159   3.511 -0.4930 -0.2322 -0.1668
  166MOL0     C22300   5.895   5.221   3.446  0.6465  0.0738 -0.4062
  166MOL0     C22301   5.915   5.290   3.325 -0.7697 -0.3700  0.8216
  166MOL0     C22302   5.817   5.362   3.262 -0.8329 -0.0185  1.1240
  166MOL0     C22303   5.861   5.470   3.154  0.2344  0.5192 -0.2757
  166MOL0     C22304   5.684   5.361   3.316  0.8238  0.4114 -0.4029
  166MOL0     C22305   5.555   5.420   3.253  0.4215  0.1314  0.1322
  166MOL0     O22306   5.447   5.439   3.335  0.3194 -0.3596 -0.4070
  166MOL0     C22307   5.335   5.496   3.283  0.2414 -0.6941  0.3659
  166MOL0     C22308   5.331   5.626   3.223  0.0924  0.4692  0.7057
  166MOL0     C22309   5.219   5.676   3.161 -0.1316  0.5725 -0.5874
  166MOL0     C22310   5.092   5.608   3.162 -0.2062 -0.2570 -0.8256
  166MOL0     O22311   4.995   5.660   3.091 -0.2891 -0.2863  0.2639
  166MOL0     C22312   4.864   5.632   3.147 -0.5108  0.1725  0.1526
  166MOL0     C22313   4.758   5.727   3.087  0.3337 -0.0452 -0.9869
  166MOL0     C22314   4.798   5.869   3.080 -0.1626 -0.0763  0.4893
  166MOL0     C22315   4.679   5.959   3.038 -0.4177 -1.0736  0.1447
  166MOL0     C22316   4.716   6.107   3.072 -0.5497  0.0781 -0.3105
  166MOL0     C22317   4.602   6.207   3.025 -0.6450  0.2213  0.0021
  166MOL0     C22318   4.647   6.350   3.042 -0.1254  1.0067 -0.0383
  166MOL0     C22319   4.549   6.446   2.969  0.7070 -0.8919 -0.6111
  166MOL0    Cl22320   4.390   6.440   3.055 -0.0677 -0.1561 -0.4228
  166MOL0     C22321   5.095   5.477   3.226  0.6769 -0.3468 -0.1261
  166MOL0     C22322   5.215   5.428   3.279 -0.5759 -0.0978 -0.2560
  166MOL0     O22323   5.558   5.442   3.129  0.2691  0.6823 -0.1062
  166MOL0     C22324   5.651   5.284   3.431 -1.3260  0.4955  0.1865
  166MOL0     C22325   5.759   5.224   3.488 -0.1354 -0.4818  0.2821
  166MOL0     N22326   6.088   5.171   4.045  0.2112 -0.8235 -1.1778
  166MOL0     N22327   6.163   5.104   4.128  0.7243  0.8056 -0.1056
  166MOL0     C22328   6.856   4.916   4.700  0.9245 -0.7216  0.1760
  166MOL0     C22329   6.900   5.039   4.755 -0.0407  0.1607 -0.1815
  166MOL0     C22330   6.890   5.491   4.832  0.9703  0.2589  0.0060
  166MOL0     C22331   6.820   5.583   4.915  0.5671 -0.0288 -0.3470
  166MOL0     C22332   6.868   5.718   4.935 -0.0304  0.0373 -0.4086
  166MOL0     C22333   6.996   5.761   4.895 -0.7201  1.4710 -0.2223
  166MOL0     O22334   7.052   5.881   4.921  0.5283 -0.5280 -0.0273
  166MOL0     C22335   6.985   5.972   5.007 -1.1914  0.8351 -0.1837
  166MOL0     C22336   7.021   5.931   5.146 -1.0792  1.1716 -0.3002
  166MOL0     C22337   7.168   5.961   5.187  0.7531  0.8312 -0.3945
  166MOL0     C22338   7.164   6.080   5.282 -0.0356 -0.4278 -0.4747
  166MOL0     C22339   7.296   6.115   5.337 -0.5682 -0.0252  0.8004
  166MOL0     C22340   7.407   6.149   5.380  0.6248 -0.1475  0.8765
  166MOL0     C22341   7.065   5.667   4.816  0.3343  0.4811  0.7630
  166MOL0     C22342   7.014   5.540   4.784 -0.0660 -0.1144  0.3081
  166MOL0     H22343   6.750   5.247   4.543  0.4529  0.8202  1.2868
  166MOL0     H22344   6.676   5.042   4.435  0.2667 -0.0815 -1.0333
  166MOL0     H22345   6.710   4.695   4.707  1.4601  0.4070 -1.7632
  166MOL0     H22346   6.555   4.762   4.649  0.1240 -1.7102  3.0540
  166MOL0     H22347   6.693   4.524   4.527 -0.1937 -3.1915  2.6754
  166MOL0     H22348   6.556   4.510   4.625 -1.1821 -1.1917 -1.0954
  166MOL0     H22349   6.433   4.502   4.461 -0.9286  1.2085 -0.3940
  166MOL0     H22350   6.425   4.671   4.464  0.8775  0.7172 -2.4478
  166MOL0     H22351   6.656   4.635   4.308  1.8004 -2.1348 -2.5017
  166MOL0     H22352   6.567   4.486   4.284  2.6813  0.8978  0.2530
  166MOL0     H22353   6.488   4.625   4.117  1.3458 -0.7584  0.1362
  166MOL0     H22354   6.365   4.623   4.253  1.0163 -1.3484 -0.1305
  166MOL0     H22355   6.482   4.838   4.329 -0.3116 -1.7322 -0.2849
  166MOL0     H22356   6.570   4.831   4.178 -0.3071 -0.5277 -1.9085
  166MOL0     H22357   6.337   4.821   4.043  0.3125 -0.6865  0.9241
  166MOL0     H22358   6.266   4.859   4.198 -0.6697 -2.2341 -0.3555
  166MOL0     H22359   6.462   5.009   4.028  1.5414 -0.3455  1.1959
  166MOL0     H22360   6.436   5.056   4.206  1.8324  0.2624 -0.5219
  166MOL0     H22361   6.346   5.121   3.858  0.7966 -0.0464  0.6296
  166MOL0     H22362   6.121   5.349   3.803 -2.3070 -0.3434 -2.3327
  166MOL0     H22363   6.152   5.184   3.727  0.0505  0.0882 -0.3075
  166MOL0     H22364   5.919   5.297   3.735  1.5691  1.3752  1.2451
  166MOL0     H22365   5.894   5.209   3.888  0.5478  2.5318  0.4746
  166MOL0     H22366   5.811   5.062   3.736 -0.4430  0.5351 -0.1059
  166MOL0     H22367   5.962   4.990   3.796  0.2819 -0.8211 -2.7811
  166MOL0     H22368   5.913   4.976   3.545 -2.0751  1.0498  0.7523
  166MOL0     H22369   6.073   4.994   3.610 -1.5818 -2.1185  2.6700
  166MOL0     H22370   6.016   5.291   3.287 -1.2798 -3.7843 -1.1283
  166MOL0     H22371   5.782   5.527   3.104  1.2888  0.2387 -2.3739
  166MOL0     H22372   5.920   5.543   3.211  0.6883  1.8477 -2.3601
  166MOL0     H22373   5.909   5.421   3.069 -1.0660  1.4587 -1.6064
  166MOL0     H22374   5.429   5.671   3.221  0.9970 -1.1724  3.4639
  166MOL0     H22375   5.228   5.775   3.116 -1.7817  1.0871  0.1121
  166MOL0     H22376   4.831   5.534   3.112  0.9462 -0.3338  0.1350
  166MOL0     H22377   4.860   5.638   3.256 -0.1623  3.4845  0.1045
  166MOL0     H22378   4.729   5.690   2.988 -0.2242  0.5014 -1.0300
  166MOL0     H22379   4.668   5.718   3.149  0.1344 -0.0659 -1.2786
  166MOL0     H22380   4.882   5.877   3.010  0.1019 -1.0918  0.6855
  166MOL0     H22381   4.838   5.897   3.178 -0.6953 -0.8781  0.9447
  166MOL0     H22382   4.667   5.954   2.929 -0.6944  0.3394  0.0953
  166MOL0     H22383   4.583   5.931   3.081 -1.0453 -0.1727 -0.6370
  166MOL0     H22384   4.811   6.118   3.019 -2.0821 -1.6039 -3.6811
  166MOL0     H22385   4.728   6.117   3.180 -0.6424 -1.6497 -0.1128
  166MOL0     H22386   4.592   6.190   2.918 -0.3793 -0.2663  0.0531
  166MOL0     H22387   4.517   6.180   3.089  1.0074  1.5389  2.9885
  166MOL0     H22388   4.746   6.347   2.995  1.0381  1.3471  2.2574
  166MOL0     H22389   4.656   6.380   3.146  1.0523  1.3973 -0.2314
  166MOL0     H22390   4.544   6.423   2.863 -1.3090  3.1882 -1.6182
  166MOL0     H22391   4.584   6.549   2.983 -4.3185  0.8795  1.6829
  166MOL0     H22392   5.010   5.411   3.237  0.5731 -0.2263 -0.2084
  166MOL0     H22393   5.208   5.334   3.332 -1.7638 -1.1566 -2.1888
  166MOL0     H22394   5.551   5.274   3.473 -1.5693  1.9152  0.0002
  166MOL0     H22395   5.725   5.162   3.570 -0.2524 -0.8205 -0.0238
  166MOL0     H22396   6.892   4.827   4.750  0.7931 -1.1950 -0.5592
  166MOL0     H22397   6.956   5.047   4.848 -1.8279 -1.1230  1.0956
  166MOL0     H22398   6.717   5.572   4.950  0.9385  0.9698  1.1418
  166MOL0     H22399   6.797   5.781   4.988  0.7419  0.3867  0.2348
  166MOL0     H22400   7.028   6.070   4.985  0.1837  0.7663  1.8927
  166MOL0     H22401   6.877   5.980   4.994 -1.2112 -1.1676 -1.6627
  166MOL0     H22402   7.014   5.822   5.151 -0.6428  0.9813 -2.8059
  166MOL0     H22403   6.947   5.970   5.217 -1.6314  2.3215 -1.4793
  166MOL0     H22404   7.230   5.989   5.101  0.4662  1.5194 -0.3913
  166MOL0     H22405   7.211   5.876   5.239  1.6179  2.0982  1.0440
  166MOL0     H22406   7.105   6.062   5.371 -1.2939  1.1418 -0.9312
  166MOL0     H22407   7.123   6.173   5.240  2.3056  1.3412  0.9284
  166MOL0     H22408   7.502   6.184   5.416  1.1657  1.4834 -1.8862
  166MOL0     H22409   7.165   5.691   4.780  1.0256 -2.3777  0.5489
  166MOL0     H22410   7.075   5.490   4.710 -1.2493  1.7259 -2.0323
  167MOL0     O22411   0.479  11.196   1.491  0.3513 -0.4969  0.5896
  167MOL0     C22412   0.540  11.091   1.463  0.7540  0.3586 -0.5172
  167MOL0     O22413   0.484  10.979   1.402 -1.1308  0.3668  0.0474
  167MOL0     C22414   0.370  11.014   1.330  0.1251 -0.2635  0.1487
  167MOL0     C22415   0.250  10.945   1.356 -0.4813 -0.5459 -0.4927
  167MOL0     C22416   0.134  10.987   1.280  0.7325  0.3909  0.2190
  167MOL0     C22417   0.153  11.074   1.170  0.3118 -0.5317 -0.6267
  167MOL0     O22418   0.042  11.111   1.105 -1.0173 -0.4177 -0.8009
  167MOL0     C22419   0.038  11.104   0.963 -0.6971  0.3445 -0.5359
  167MOL0     C22420  -0.115  11.095   0.911 -0.3025  0.2070 -0.6425
  167MOL0     C22421  -0.213  11.026   1.014 -0.1469  0.7821  0.3372
  167MOL0     C22422  -0.335  10.973   0.941 -0.3265  0.6024  0.8960
  167MOL0     C22423  -0.450  10.946   1.029 -0.6251 -0.3632 -0.1247
  167MOL0     C22424  -0.590  10.907   0.971  0.1351 -0.4612  0.2259
  167MOL0     C22425  -0.682  10.854   1.075 -0.0362  0.6356 -0.4719
  167MOL0     C22426  -0.701  10.950   1.202 -0.1964 -1.1577 -0.1761
  167MOL0     N22427  -0.786  11.060   1.148  0.6029 -0.0380 -0.3844
  167MOL0     C22428  -0.917  11.047   1.097  0.2212 -0.3894  0.5868
  167MOL0     C22429  -0.974  11.175   1.102 -0.1805  0.2481  0.5891
  167MOL0     C22430  -1.113  11.195   1.062 -0.4949  1.1284  0.1706
  167MOL0     C22431  -1.219  11.134   1.157  0.0111  0.0505  0.3224
  167MOL0     C22432  -1.361  11.123   1.099 -0.6573 -0.1028 -0.1167
  167MOL0     C22433  -1.463  11.138   1.213 -0.4748  0.4805  0.6939
  167MOL0     O22434  -1.595  11.118   1.159  0.4276 -0.4740 -0.5678
  167MOL0     C22435  -1.710  11.125   1.229  0.0231 -1.0481  0.0957
  167MOL0     C22436  -1.705  11.168   1.367  0.3319  0.3510 -0.2405
  167MOL0     C22437  -1.827  11.186   1.435  0.1750  0.0687  0.5231
  167MOL0     C22438  -1.810  11.258   1.562  1.1433 -0.0445  0.2156
  167MOL0     C22439  -1.956  11.164   1.363  0.4725  0.7154 -0.4809
  167MOL0     C22440  -2.090  11.188   1.418  0.2093  0.1791 -0.6818
  167MOL0     O22441  -2.192  11.103   1.369  1.0804 -0.0342  0.1537
  167MOL0     C22442  -2.308  11.081   1.451  0.1621  0.5356  0.9949
  167MOL0     C22443  -2.411  11.011   1.382  0.4133 -0.1054 -0.2420
  167MOL0     C22444  -2.526  10.975   1.450 -0.1550 -0.0582  0.0401
  167MOL0     C22445  -2.542  11.011   1.576  0.5872  0.5788  0.5483
  167MOL0     O22446  -2.664  10.981   1.629  0.6032 -0.3171  0.3395
  167MOL0     C22447  -2.697  10.979   1.768 -0.4273  0.3473  0.3428
  167MOL0     C22448  -2.670  10.836   1.826  0.6785  0.3143 -1.1656
  167MOL0     C22449  -2.726  10.835   1.968  1.1281  0.5207  0.2136
  167MOL0     C22450  -2.878  10.853   1.986  0.6958  0.2677 -0.1196
  167MOL0     C22451  -2.923  10.829   2.124 -0.5689  1.3695 -0.8937
  167MOL0     C22452  -3.073  10.824   2.142 -0.4789  0.3341  0.4986
  167MOL0     C22453  -3.129  10.962   2.157  0.1570 -0.4435 -0.2960
  167MOL0     C22454  -3.275  10.967   2.204  0.6525 -0.1514 -0.0017
  167MOL0    Cl22455  -3.326  11.130   2.229  0.1906 -0.4298  0.7072
  167MOL0     C22456  -2.445  11.080   1.648  0.0650 -0.3733  0.4127
  167MOL0     C22457  -2.324  11.107   1.585  0.7468  0.3092 -0.4561
  167MOL0     O22458  -2.117  11.283   1.489  0.2762  0.9693 -0.5346
  167MOL0     C22459  -1.947  11.127   1.230 -0.2081  0.3735  0.3010
  167MOL0     C22460  -1.829  11.108   1.163  0.3950  0.1099  0.9244
  167MOL0     N22461  -0.876  11.256   1.153  1.0540 -0.1212  0.1954
  167MOL0     N22462  -0.774  11.190   1.182  0.4574 -0.2728 -1.3353
  167MOL0     C22463   0.276  11.129   1.137  0.2249 -0.1458 -0.3006
  167MOL0     C22464   0.385  11.105   1.224 -0.1275  0.2983  1.2224
  167MOL0     C22465   0.686  11.078   1.493  0.5975 -0.1458 -0.4766
  167MOL0     C22466   0.745  11.157   1.591 -0.2450  0.1679  0.9304
  167MOL0     C22467   0.881  11.137   1.621  0.0343  0.7761  0.3005
  167MOL0     C22468   0.957  11.039   1.556  1.1884 -0.8879 -0.5223
  167MOL0     O22469   1.091  11.030   1.591 -0.0748  0.1956 -0.2936
  167MOL0     C22470   1.172  10.971   1.488 -0.1480  0.1331 -0.4846
  167MOL0     C22471   1.319  10.998   1.509 -0.0403  0.3954 -0.7777
  167MOL0     C22472   1.357  11.000   1.655  0.9539 -0.0705  0.1891
  167MOL0     C22473   1.506  11.006   1.679  0.5590 -0.7033  0.5414
  167MOL0     C22474   1.582  10.893   1.621 -0.2923  0.7165 -0.3068
  167MOL0     C22475   1.646  10.795   1.592  0.1680  0.4206 -0.8497
  167MOL0     C22476   0.894  10.963   1.457 -0.4878  0.7734  0.8630
  167MOL0     C22477   0.765  10.985   1.416 -0.2458 -0.6749  0.4691
  167MOL0     H22478   0.234  10.852   1.410 -0.5202 -0.6316 -0.6526
  167MOL0     H22479   0.040  10.934   1.287 -0.4298  1.7737 -3.0837
  167MOL0     H22480   0.080  11.194   0.920  1.3420 -0.8560 -1.1683
  167MOL0     H22481   0.091  11.014   0.930 -0.9028 -0.6999  1.7836
  167MOL0     H22482  -0.161  11.193   0.898 -2.9336 -0.9321 -0.4426
  167MOL0     H22483  -0.123  11.053   0.810  0.0058  2.7774 -1.8135
  167MOL0     H22484  -0.168  10.940   1.063 -1.0871  1.1102  1.8810
  167MOL0     H22485  -0.241  11.085   1.102  1.1150  2.7776 -0.5310
  167MOL0     H22486  -0.374  11.044   0.866 -2.0727 -3.0091 -1.9263
  167MOL0     H22487  -0.317  10.878   0.890 -1.5651 -0.1445  1.8027
  167MOL0     H22488  -0.417  10.879   1.109  0.1211  1.0874  0.8308
  167MOL0     H22489  -0.478  11.043   1.071  0.0752 -0.1017 -0.2561
  167MOL0     H22490  -0.639  10.985   0.912  0.0551 -2.6766 -2.9501
  167MOL0     H22491  -0.570  10.828   0.897 -1.5185  0.1391 -0.9225
  167MOL0     H22492  -0.781  10.824   1.038  0.1212  1.7446 -1.9163
  167MOL0     H22493  -0.631  10.764   1.109  0.4611  1.3761  0.8280
  167MOL0     H22494  -0.609  10.991   1.244  0.5937 -1.2470 -1.7173
  167MOL0     H22495  -0.758  10.896   1.278  0.2734  1.4760  2.2120
  167MOL0     H22496  -0.969  10.952   1.090  1.0805 -0.8003 -0.3463
  167MOL0     H22497  -1.137  11.297   1.031  1.5510  0.9779 -2.2011
  167MOL0     H22498  -1.134  11.143   0.968 -0.1407 -1.3926  1.3965
  167MOL0     H22499  -1.222  11.192   1.250 -0.3764  0.8981 -0.1974
  167MOL0     H22500  -1.202  11.032   1.193 -4.7730  0.5179  5.0852
  167MOL0     H22501  -1.368  11.028   1.046  1.4123  0.4928 -1.5778
  167MOL0     H22502  -1.381  11.201   1.026  1.8665 -0.0611 -0.8405
  167MOL0     H22503  -1.461  11.240   1.252 -0.7741  0.4721  0.7348
  167MOL0     H22504  -1.432  11.075   1.296  1.0257  1.2012  0.6963
  167MOL0     H22505  -1.610  11.193   1.413 -0.8930  2.5616  1.2891
  167MOL0     H22506  -1.771  11.357   1.537 -1.8720  0.8060 -1.7159
  167MOL0     H22507  -1.895  11.279   1.628  1.6654  0.9850  0.5903
  167MOL0     H22508  -1.737  11.211   1.628  2.5629  1.9110  0.1176
  167MOL0     H22509  -2.421  11.003   1.275  1.8027  1.8485 -0.5687
  167MOL0     H22510  -2.599  10.920   1.392 -1.0492 -1.4850  2.3940
  167MOL0     H22511  -2.649  11.059   1.824  2.0290 -0.1873 -0.8688
  167MOL0     H22512  -2.803  11.006   1.763 -0.1144  1.4389 -0.6222
  167MOL0     H22513  -2.734  10.769   1.768  1.9434 -0.2107 -2.0012
  167MOL0     H22514  -2.563  10.817   1.818  0.8689  0.1219  1.1567
  167MOL0     H22515  -2.678  10.908   2.033 -4.6597  2.8127  2.5670
  167MOL0     H22516  -2.708  10.736   2.012 -3.0053 -0.2461  0.6715
  167MOL0     H22517  -2.901  10.958   1.963  0.0273  0.2590  0.4920
  167MOL0     H22518  -2.937  10.792   1.917  3.2896 -0.4568 -1.8692
  167MOL0     H22519  -2.883  10.898   2.198  1.7964 -1.1158  0.3352
  167MOL0     H22520  -2.873  10.736   2.154 -2.1133  1.1217  1.1860
  167MOL0     H22521  -3.114  10.777   2.052 -0.2278  0.3438  0.3784
  167MOL0     H22522  -3.089  10.760   2.230 -1.0855 -0.8006 -0.4003
  167MOL0     H22523  -3.114  11.009   2.060 -1.3583  0.8228  0.0478
  167MOL0     H22524  -3.070  11.024   2.225  0.3338 -3.7757  2.9323
  167MOL0     H22525  -3.287  10.922   2.303  3.8887  1.2016  1.1446
  167MOL0     H22526  -3.341  10.933   2.125 -1.0257  0.6151  1.0158
  167MOL0     H22527  -2.462  11.101   1.753 -0.3679  1.1159  0.0605
  167MOL0     H22528  -2.243  11.145   1.646 -1.0662  0.3203  2.1085
  167MOL0     H22529  -2.036  11.100   1.174  0.4531 -3.2469  0.7585
  167MOL0     H22530  -1.828  11.083   1.058  0.6208  0.3296  0.8732
  167MOL0     H22531   0.295  11.187   1.047  1.5326  0.1334  0.1257
  167MOL0     H22532   0.476  11.163   1.210  0.3017 -0.8386 -1.1913
  167MOL0     H22533   0.682  11.228   1.643 -0.1416  1.8562 -1.1233
  167MOL0     H22534   0.939  11.194   1.693  1.1736  1.0430 -0.7882
  167MOL0     H22535   1.150  10.864   1.498  0.5166 -0.1635 -1.9173
  167MOL0     H22536   1.149  11.011   1.389 -2.5413 -1.4609 -0.6773
  167MOL0     H22537   1.344  11.095   1.464  0.1043  0.6167 -0.2238
  167MOL0     H22538   1.378  10.924   1.454 -0.3094  0.2539 -0.8795
  167MOL0     H22539   1.335  10.907   1.708  1.9848  0.9299  2.4854
  167MOL0     H22540   1.302  11.081   1.702  0.9548 -0.5686  1.0739
  167MOL0     H22541   1.520  11.014   1.787 -0.6290  0.1986  0.6534
  167MOL0     H22542   1.548  11.095   1.629 -0.7504 -0.9004 -0.9900
  167MOL0     H22543   1.688  10.701   1.565  3.0792  0.6316  2.3960
  167MOL0     H22544   0.952  10.891   1.402 -0.5287  1.0900  0.4009
  167MOL0     H22545   0.732  10.930   1.328  1.6562  0.2911 -0.9235
  168MOL0     O22546  10.477   1.102   9.080  0.1382  0.1830  0.2111
  168MOL0     C22547  10.404   1.034   9.002  0.5856  0.0955  0.1657
  168MOL0     O22548  10.307   0.945   9.041 -1.4134  0.2286 -0.3263
  168MOL0     C22549  10.291   0.917   9.175 -0.4552 -0.4772 -1.0827
  168MOL0     C22550  10.381   0.928   9.284 -0.2211  0.5562 -0.1090
  168MOL0     C22551  10.345   0.921   9.417 -0.5603 -0.6825  0.1938
  168MOL0     C22552  10.217   0.911   9.451  0.5399  0.3511 -0.5867
  168MOL0     O22553  10.174   0.907   9.582  0.4807 -0.1282 -0.3316
  168MOL0     C22554  10.257   0.973   9.678  0.2990  0.4842 -0.1649
  168MOL0     C22555  10.188   0.973   9.817 -1.0401  0.4868  0.2277
  168MOL0     C22556  10.092   1.090   9.841  0.2997 -0.4275 -0.1190
  168MOL0     C22557   9.954   1.067   9.776 -0.6231  0.1100 -1.1309
  168MOL0     C22558   9.859   1.185   9.800 -0.0930  0.4417  0.4840
  168MOL0     C22559   9.729   1.183   9.718 -0.0111  0.0223  1.0817
  168MOL0     C22560   9.623   1.090   9.781 -0.0588 -0.2070 -0.6397
  168MOL0     C22561   9.568   1.145   9.921  0.3400  0.6360 -0.1580
  168MOL0     N22562   9.436   1.087   9.945  0.0145 -0.4170  0.3871
  168MOL0     C22563   9.354   0.999   9.871  0.2241 -0.1662  0.4950
  168MOL0     C22564   9.268   0.943   9.962 -0.7713 -0.7251  0.2702
  168MOL0     C22565   9.179   0.825   9.914 -0.1745 -0.5802 -0.4552
  168MOL0     C22566   9.079   0.882   9.822  0.7052 -0.1588  0.2177
  168MOL0     C22567   8.986   0.770   9.783  0.3372 -0.0338 -0.0913
  168MOL0     C22568   8.866   0.834   9.713  0.1878 -0.2709 -0.6458
  168MOL0     O22569   8.776   0.904   9.798 -0.8125  0.9924 -0.2540
  168MOL0     C22570   8.654   0.939   9.755  0.6254  0.0479 -0.3879
  168MOL0     C22571   8.575   1.004   9.847  0.4653  0.5502  0.1971
  168MOL0     C22572   8.450   1.054   9.818  0.2461 -0.9731  0.3598
  168MOL0     C22573   8.392   1.137   9.933 -0.5840  0.4361 -0.5290
  168MOL0     C22574   8.393   1.022   9.700 -1.0909  0.1450 -0.6189
  168MOL0     C22575   8.258   1.033   9.656  0.3900  0.0658  0.2360
  168MOL0     O22576   8.219   1.021   9.525  0.2519  0.1235  0.6261
  168MOL0     C22577   8.090   1.024   9.492 -0.0620 -0.3337  0.5993
  168MOL0     C22578   8.037   0.935   9.402 -0.3427 -0.6866 -0.0018
  168MOL0     C22579   7.899   0.941   9.380  0.1941 -0.1606 -0.1424
  168MOL0     C22580   7.808   1.020   9.455  0.0064  0.1952 -1.0669
  168MOL0     O22581   7.679   1.014   9.415 -0.2470  0.1306  0.1396
  168MOL0     C22582   7.589   0.976   9.522 -0.6270 -0.5150 -0.3738
  168MOL0     C22583   7.455   0.929   9.476 -0.1476 -0.6709  0.3727
  168MOL0     C22584   7.374   1.047   9.440  0.6005  0.2051  0.6713
  168MOL0     C22585   7.247   1.006   9.366 -0.0989 -0.2913  0.2427
  168MOL0     C22586   7.154   1.123   9.342  0.5297 -0.1440 -0.0435
  168MOL0     C22587   7.112   1.197   9.469 -0.8730 -0.1007 -0.8425
  168MOL0     C22588   7.016   1.309   9.426  0.1964  0.2375 -0.6349
  168MOL0     C22589   7.001   1.421   9.525  0.2199 -0.7213  0.6716
  168MOL0    Cl22590   6.911   1.567   9.450 -0.1372 -0.0114 -0.2956
  168MOL0     C22591   7.865   1.120   9.540 -0.5045  0.2718 -0.1472
  168MOL0     C22592   8.007   1.117   9.555  0.2235 -0.2796 -0.1484
  168MOL0     O22593   8.181   1.041   9.751  0.0955 -0.9379 -1.5701
  168MOL0     C22594   8.475   0.962   9.594  0.4183  0.1929 -0.2853
  168MOL0     C22595   8.599   0.914   9.630  0.4720 -0.1988 -0.4602
  168MOL0     N22596   9.302   0.997  10.087  0.1648 -0.0339 -0.2127
  168MOL0     N22597   9.396   1.078  10.072 -0.1407 -0.1862  0.2668
  168MOL0     C22598  10.122   0.908   9.352  0.0062 -0.3084 -0.2622
  168MOL0     C22599  10.162   0.914   9.222 -0.2638  0.2604 -0.2524
  168MOL0     C22600  10.433   1.060   8.861  0.2372  0.8316 -0.0835
  168MOL0     C22601  10.556   1.112   8.815  0.2320 -0.5204 -0.8713
  168MOL0     C22602  10.570   1.150   8.682  0.7312  0.9509  1.1323
  168MOL0     C22603  10.461   1.128   8.592 -0.8099 -0.3748 -0.6088
  168MOL0     O22604  10.461   1.170   8.463 -0.0480  0.5509 -0.0287
  168MOL0     C22605  10.591   1.185   8.402  0.0215  0.6787  0.0412
  168MOL0     C22606  10.574   1.192   8.254 -0.1719 -0.2224  0.5402
  168MOL0     C22607  10.521   1.330   8.220  0.6103  0.2988 -0.6106
  168MOL0     C22608  10.534   1.364   8.067  0.7259  0.5173 -0.5153
  168MOL0     C22609  10.450   1.482   8.034 -0.4183  0.4860 -0.6376
  168MOL0     C22610  10.376   1.573   7.992 -0.0717  1.2868 -0.3911
  168MOL0     C22611  10.336   1.076   8.630  0.3890  1.1391 -0.6161
  168MOL0     C22612  10.329   1.044   8.765 -0.4677  0.6877  0.1252
  168MOL0     H22613  10.488   0.923   9.267 -0.1982  1.1785 -0.1520
  168MOL0     H22614  10.415   0.902   9.497 -0.1324 -0.2078 -0.0635
  168MOL0     H22615  10.352   0.921   9.691  0.1158  0.0881 -0.3753
  168MOL0     H22616  10.278   1.077   9.651  1.2901  0.7688  1.5483
  168MOL0     H22617  10.132   0.880   9.830 -0.3429 -0.0697 -0.5815
  168MOL0     H22618  10.264   0.981   9.895 -0.5593 -0.6495 -0.0959
  168MOL0     H22619  10.076   1.110   9.947  0.9686  3.7642 -0.6547
  168MOL0     H22620  10.124   1.183   9.794 -0.9387 -1.0855 -2.4443
  168MOL0     H22621   9.964   1.056   9.668  2.2284  1.3755 -1.0851
  168MOL0     H22622   9.919   0.971   9.815 -1.3625  1.7214  2.6223
  168MOL0     H22623   9.833   1.203   9.905 -0.3562 -0.8595  0.6621
  168MOL0     H22624   9.914   1.276   9.773 -0.4677  0.7242  0.6549
  168MOL0     H22625   9.688   1.284   9.709  1.1975  0.4884  0.6188
  168MOL0     H22626   9.752   1.138   9.621 -1.5818 -0.0238  0.7027
  168MOL0     H22627   9.541   1.082   9.709 -1.4855 -1.2387  1.0473
  168MOL0     H22628   9.676   0.995   9.796 -2.8946 -1.5357  2.0769
  168MOL0     H22629   9.563   1.254   9.929  0.8286  0.5421  1.9543
  168MOL0     H22630   9.631   1.109  10.003  0.0197 -0.4463 -0.3769
  168MOL0     H22631   9.348   0.965   9.768  2.0658  2.2921 -0.5295
  168MOL0     H22632   9.233   0.753   9.852  0.6032  2.0945 -3.0676
  168MOL0     H22633   9.138   0.770   9.999  1.1807 -0.1216  0.5252
  168MOL0     H22634   9.123   0.932   9.735  0.4351  2.6885  1.5963
  168MOL0     H22635   9.027   0.967   9.866  1.3496 -0.4970  1.7044
  168MOL0     H22636   8.950   0.713   9.870 -1.4539 -0.0441 -0.8133
  168MOL0     H22637   9.031   0.707   9.705  0.3133 -0.3702  0.1617
  168MOL0     H22638   8.805   0.749   9.681  0.4542 -0.8333  0.2875
  168MOL0     H22639   8.896   0.893   9.626 -2.0436 -0.5274 -1.6538
  168MOL0     H22640   8.619   1.033   9.942 -0.5936  1.3862  0.4586
  168MOL0     H22641   8.312   1.203   9.899  0.8969  2.2631 -0.6116
  168MOL0     H22642   8.350   1.064  10.002 -1.0441  1.3323  0.1518
  168MOL0     H22643   8.467   1.203   9.978  1.9807 -1.3939 -1.8351
  168MOL0     H22644   8.099   0.873   9.338 -1.3503 -3.9966  1.9721
  168MOL0     H22645   7.852   0.881   9.302  0.0611  0.4474 -0.5321
  168MOL0     H22646   7.631   0.890   9.574  1.2342 -1.2714 -2.9195
  168MOL0     H22647   7.572   1.050   9.601  0.2006  0.5967 -1.1955
  168MOL0     H22648   7.463   0.854   9.397 -2.0343 -0.5031 -0.0219
  168MOL0     H22649   7.406   0.881   9.562 -1.5814 -1.9232 -1.0723
  168MOL0     H22650   7.426   1.113   9.370 -2.3817  2.1012  0.0731
  168MOL0     H22651   7.371   1.107   9.531  0.4836  0.4790  0.4875
  168MOL0     H22652   7.269   0.940   9.281 -1.8547 -3.5546  2.1448
  168MOL0     H22653   7.199   0.925   9.422 -0.9944 -1.9908 -2.7277
  168MOL0     H22654   7.060   1.079   9.305 -0.4990  1.3953  0.6606
  168MOL0     H22655   7.184   1.190   9.260  1.0890 -2.8300 -2.1879
  168MOL0     H22656   7.068   1.137   9.549 -1.4717 -0.0981 -1.1630
  168MOL0     H22657   7.202   1.236   9.518 -3.0641  2.8396  1.1756
  168MOL0     H22658   6.921   1.264   9.394  1.4725 -2.7778 -0.5523
  168MOL0     H22659   7.053   1.356   9.335  0.2428  2.9187  0.6786
  168MOL0     H22660   7.098   1.457   9.561  0.3687 -0.8264  0.3740
  168MOL0     H22661   6.952   1.380   9.614 -0.3980  1.2310  1.2768
  168MOL0     H22662   7.802   1.199   9.582 -1.5724 -1.3010  1.3260
  168MOL0     H22663   8.044   1.181   9.635  0.3169 -1.9939  1.2459
  168MOL0     H22664   8.448   0.942   9.491  3.5400  0.9160 -1.3494
  168MOL0     H22665   8.661   0.860   9.560  1.0244 -0.6810  0.3827
  168MOL0     H22666  10.018   0.892   9.377 -0.2158 -1.0176 -1.5676
  168MOL0     H22667  10.083   0.907   9.147  0.4059 -3.1694 -0.8263
  168MOL0     H22668  10.642   1.137   8.876  0.8893  0.3978 -2.1260
  168MOL0     H22669  10.659   1.195   8.641  0.5884  1.0425  0.9198
  168MOL0     H22670  10.634   1.277   8.443  0.2820  0.8491 -0.6074
  168MOL0     H22671  10.654   1.103   8.439 -0.7110  0.0510 -0.0686
  168MOL0     H22672  10.492   1.125   8.226  0.9173 -0.7707 -1.5647
  168MOL0     H22673  10.663   1.165   8.196 -1.1562  2.0103 -2.3056
  168MOL0     H22674  10.562   1.404   8.289 -1.0283  0.2571  0.4677
  168MOL0     H22675  10.414   1.336   8.243  0.9980  3.5612  0.9565
  168MOL0     H22676  10.497   1.276   8.013 -1.7217  0.5456  0.9297
  168MOL0     H22677  10.640   1.381   8.049  1.3426 -3.0888 -1.0898
  168MOL0     H22678  10.309   1.648   7.956  1.1114  2.1107 -0.9336
  168MOL0     H22679  10.251   1.081   8.562 -1.2921  1.1959  1.4000
  168MOL0     H22680  10.233   1.003   8.797  0.1625 -0.8481  0.1207
  169MOL0     O22681   0.639  10.689   3.882  0.4892  0.3799  0.3478
  169MOL0     C22682   0.592  10.780   3.962 -0.4448  0.0155 -0.5691
  169MOL0     O22683   0.656  10.881   4.015 -1.0627  0.2577  0.5295
  169MOL0     C22684   0.790  10.877   3.978 -1.0203 -0.5609 -0.0258
  169MOL0     C22685   0.887  10.769   3.995  0.8923  0.1057  0.3978
  169MOL0     C22686   1.024  10.778   3.952  0.2452  0.6542  0.0702
  169MOL0     C22687   1.072  10.900   3.902  0.8992  0.5215 -0.9211
  169MOL0     O22688   1.195  10.934   3.865  0.3353  0.1059  0.3247
  169MOL0     C22689   1.295  10.833   3.880 -0.3328  0.9122 -0.7726
  169MOL0     C22690   1.430  10.893   3.826 -0.7672 -0.1869 -0.5250
  169MOL0     C22691   1.551  10.803   3.848 -0.2133  0.0193  0.2322
  169MOL0     C22692   1.669  10.857   3.767  0.1504  1.2537 -0.9600
  169MOL0     C22693   1.793  10.770   3.777 -0.2981  1.0453 -0.6465
  169MOL0     C22694   1.872  10.786   3.914  0.2540 -0.5469  0.9331
  169MOL0     C22695   1.987  10.681   3.919 -0.5575  1.2561  0.6487
  169MOL0     C22696   2.027  10.661   4.060  0.0346 -0.3746 -0.3746
  169MOL0     N22697   2.168  10.625   4.067  0.5854  0.8234 -0.7673
  169MOL0     C22698   2.269  10.678   4.004 -1.0491 -0.2631 -0.1018
  169MOL0     C22699   2.371  10.594   4.032 -0.7689  0.2379  0.9339
  169MOL0     C22700   2.512  10.605   3.976 -0.0062 -0.5853  0.0255
  169MOL0     C22701   2.626  10.590   4.080  0.0787 -0.3318  0.1826
  169MOL0     C22702   2.691  10.723   4.113 -0.1844 -1.2857  1.0457
  169MOL0     C22703   2.592  10.830   4.166 -1.4314  0.1428 -0.4913
  169MOL0     O22704   2.492  10.779   4.253 -0.2319  0.3800 -0.3725
  169MOL0     C22705   2.375  10.842   4.275  0.2592  0.0863  0.0301
  169MOL0     C22706   2.355  10.971   4.242  0.2486  0.1059 -0.3847
  169MOL0     C22707   2.234  11.043   4.276 -1.0089 -0.3035  0.6240
  169MOL0     C22708   2.234  11.193   4.248  0.5249  1.1023  0.6814
  169MOL0     C22709   2.127  10.969   4.343 -0.1416 -0.8008  0.4454
  169MOL0     C22710   1.992  11.021   4.352  0.2834 -0.9024  0.8532
  169MOL0     O22711   1.888  10.934   4.360  0.1594 -0.2234  0.0301
  169MOL0     C22712   1.757  10.971   4.341 -0.0704 -1.1989 -0.0471
  169MOL0     C22713   1.661  10.910   4.423 -0.3173  0.3608  0.4081
  169MOL0     C22714   1.524  10.919   4.399  0.8092  0.3057 -0.4508
  169MOL0     C22715   1.484  11.019   4.306 -0.3741 -0.6640 -0.0460
  169MOL0     O22716   1.350  11.030   4.277 -0.6632 -0.8649  0.8516
  169MOL0     C22717   1.303  11.111   4.169  0.1127 -0.0709  0.5187
  169MOL0     C22718   1.154  11.120   4.167  0.0172  0.2995 -0.8898
  169MOL0     C22719   1.097  11.216   4.268 -0.0607 -0.6519 -0.0017
  169MOL0     C22720   0.946  11.226   4.236 -0.7991 -0.0198 -0.6105
  169MOL0     C22721   0.881  11.307   4.343  0.0289 -0.3854 -0.1054
  169MOL0     C22722   0.728  11.289   4.340 -0.3315  0.3185 -0.1474
  169MOL0     C22723   0.657  11.378   4.433  0.7759 -0.4216 -0.8843
  169MOL0     C22724   0.634  11.521   4.375  0.6876 -0.7095 -0.1372
  169MOL0    Cl22725   0.538  11.618   4.497  0.0999 -0.1030  0.1950
  169MOL0     C22726   1.580  11.094   4.238 -0.7416 -0.6092  0.7703
  169MOL0     C22727   1.715  11.066   4.248 -0.4875 -0.9073 -0.0520
  169MOL0     O22728   1.975  11.146   4.349 -0.0809 -0.2278 -0.3440
  169MOL0     C22729   2.153  10.833   4.370  0.4152  0.1822 -1.1532
  169MOL0     C22730   2.277  10.776   4.334 -0.5374 -0.2612  0.0393
  169MOL0     N22731   2.328  10.499   4.118 -0.2461 -0.2115  0.0817
  169MOL0     N22732   2.203  10.522   4.146  0.0364 -0.2340 -0.0025
  169MOL0     C22733   0.983  11.012   3.896 -0.9029  0.5148 -0.8198
  169MOL0     C22734   0.853  10.999   3.948  0.3151 -0.4555  0.8538
  169MOL0     C22735   0.448  10.759   3.987  0.1667  0.1457 -0.1020
  169MOL0     C22736   0.377  10.646   3.939 -0.3187  0.5803 -0.7236
  169MOL0     C22737   0.243  10.618   3.967 -0.1945 -0.1299  0.2674
  169MOL0     C22738   0.165  10.713   4.035  0.3787  0.0504  0.6461
  169MOL0     O22739   0.027  10.694   4.045  0.2769 -0.6987  0.5813
  169MOL0     C22740  -0.050  10.777   4.132  0.2033 -0.3307 -0.7454
  169MOL0     C22741  -0.180  10.716   4.165 -0.5662  0.6627  0.1191
  169MOL0     C22742  -0.182  10.594   4.256  0.0086  0.5432  0.3732
  169MOL0     C22743  -0.137  10.472   4.187  0.1253 -0.3042 -0.1412
  169MOL0     C22744  -0.225  10.415   4.081  0.8287 -0.1213  0.9847
  169MOL0     C22745  -0.296  10.387   3.984  0.9735  0.8101 -0.8064
  169MOL0     C22746   0.230  10.829   4.081 -0.9922  0.2508  0.1697
  169MOL0     C22747   0.371  10.853   4.057  0.4418 -0.8255  0.0480
  169MOL0     H22748   0.857  10.672   4.032  2.0029 -0.3386  0.1852
  169MOL0     H22749   1.092  10.694   3.946  0.7525  1.1584 -3.1839
  169MOL0     H22750   1.319  10.811   3.984  0.5737 -0.1965 -1.1948
  169MOL0     H22751   1.267  10.742   3.825  1.7691 -0.5274  0.3971
  169MOL0     H22752   1.415  10.919   3.721  0.5891 -0.5502 -0.8403
  169MOL0     H22753   1.453  10.987   3.876 -0.7118 -2.3898  4.2090
  169MOL0     H22754   1.581  10.805   3.954 -1.4844  0.4088  0.6025
  169MOL0     H22755   1.533  10.706   3.802  0.0658  0.8909 -1.8336
  169MOL0     H22756   1.634  10.870   3.664 -0.4744  1.5936 -0.7118
  169MOL0     H22757   1.686  10.958   3.806 -0.2423  1.1011 -0.3777
  169MOL0     H22758   1.774  10.663   3.764 -3.1869  1.3022  0.6851
  169MOL0     H22759   1.871  10.800   3.707 -0.1128  0.4365 -0.7072
  169MOL0     H22760   1.904  10.890   3.911  0.7298 -0.7107 -2.0482
  169MOL0     H22761   1.797  10.756   3.988 -2.1618 -2.1143 -1.9442
  169MOL0     H22762   1.965  10.585   3.872  0.5551  1.3337 -0.0613
  169MOL0     H22763   2.060  10.729   3.854 -0.6004  0.4573  0.0064
  169MOL0     H22764   1.966  10.589   4.116 -0.0784 -0.2376 -0.3210
  169MOL0     H22765   2.009  10.752   4.117 -2.2384 -1.8074  1.4127
  169MOL0     H22766   2.283  10.763   3.938  1.0833  0.1590  0.7874
  169MOL0     H22767   2.511  10.522   3.904  0.5654 -0.6069  0.0372
  169MOL0     H22768   2.528  10.694   3.915  0.1198 -2.4170 -2.8150
  169MOL0     H22769   2.696  10.513   4.043  0.3971  0.6738 -1.4195
  169MOL0     H22770   2.574  10.535   4.159 -0.8075 -0.8583 -0.7407
  169MOL0     H22771   2.734  10.762   4.020 -0.0848  1.3894  2.1301
  169MOL0     H22772   2.774  10.710   4.184 -0.1848 -1.2387  1.0551
  169MOL0     H22773   2.554  10.880   4.076 -1.6534 -1.8236 -1.5342
  169MOL0     H22774   2.658  10.892   4.228  1.2619 -0.9878 -2.0281
  169MOL0     H22775   2.440  11.030   4.208 -2.1793  3.2481 -1.5579
  169MOL0     H22776   2.235  11.254   4.339  2.9650 -0.2294  1.6314
  169MOL0     H22777   2.319  11.223   4.185 -0.2332  0.2747 -0.7925
  169MOL0     H22778   2.149  11.212   4.182 -0.1001 -2.3597  0.3361
  169MOL0     H22779   1.698  10.841   4.498  2.4257  2.8213  1.5040
  169MOL0     H22780   1.446  10.855   4.441 -0.1241  0.7363 -1.4862
  169MOL0     H22781   1.352  11.208   4.165  1.6132 -0.8207 -0.2798
  169MOL0     H22782   1.335  11.056   4.080  2.3812 -3.0860  2.9579
  169MOL0     H22783   1.125  11.167   4.072 -0.9405 -0.0820 -0.7909
  169MOL0     H22784   1.113  11.019   4.173 -0.7397  0.6773  3.4960
  169MOL0     H22785   1.135  11.319   4.268 -1.4037 -0.1096 -1.3933
  169MOL0     H22786   1.105  11.169   4.366 -1.8167  0.7792  0.8890
  169MOL0     H22787   0.931  11.266   4.136 -0.3196 -1.0837 -1.1160
  169MOL0     H22788   0.892  11.131   4.231 -1.2477 -0.0555  2.5668
  169MOL0     H22789   0.904  11.414   4.337  0.4169 -0.1865  3.3932
  169MOL0     H22790   0.917  11.283   4.443 -0.6971  1.0658  0.5428
  169MOL0     H22791   0.694  11.312   4.238 -1.8488 -3.2873 -0.6164
  169MOL0     H22792   0.707  11.185   4.366  1.4597 -0.0817 -0.1613
  169MOL0     H22793   0.705  11.386   4.530  1.7444 -2.5993 -1.1150
  169MOL0     H22794   0.554  11.346   4.453  0.2074  1.8955  0.1405
  169MOL0     H22795   0.572  11.502   4.287  2.1188 -0.5698 -1.2053
  169MOL0     H22796   0.732  11.566   4.357 -0.1426  0.9125 -0.7688
  169MOL0     H22797   1.563  11.173   4.166  2.4568 -0.2659  0.2528
  169MOL0     H22798   1.784  11.125   4.189  0.3771 -1.1688  0.6760
  169MOL0     H22799   2.074  10.766   4.400  1.1713  0.5400  1.9774
  169MOL0     H22800   2.302  10.673   4.357  1.8277  0.2004 -0.2476
  169MOL0     H22801   1.027  11.102   3.854  1.7794  0.6313  1.9169
  169MOL0     H22802   0.781  11.080   3.957 -1.3899 -1.4294 -2.4086
  169MOL0     H22803   0.436  10.566   3.895 -4.3846 -1.9420 -2.1958
  169MOL0     H22804   0.203  10.525   3.927  3.3038 -2.8592  2.5261
  169MOL0     H22805  -0.011  10.799   4.233 -1.2972  2.1395 -0.6212
  169MOL0     H22806  -0.070  10.869   4.078 -4.2267 -2.2876 -2.9064
  169MOL0     H22807  -0.231  10.691   4.071  0.7204 -0.5189 -0.2961
  169MOL0     H22808  -0.240  10.792   4.217  0.7554  0.7996  1.4890
  169MOL0     H22809  -0.285  10.579   4.291  0.6355  0.5702  2.3492
  169MOL0     H22810  -0.116  10.606   4.342  1.7510  0.6040 -0.9322
  169MOL0     H22811  -0.134  10.396   4.266 -0.7446 -0.1672  0.0285
  169MOL0     H22812  -0.038  10.490   4.143  0.6088  1.2860  1.4859
  169MOL0     H22813  -0.359  10.350   3.906 -0.4073 -0.0549  0.6469
  169MOL0     H22814   0.175  10.912   4.124  0.9455  1.0007  1.3552
  169MOL0     H22815   0.426  10.937   4.098 -0.1548 -0.7367  0.6854
  170MOL0     O22816  10.411   2.206   6.509 -0.0153  0.2698 -0.6492
  170MOL0     C22817  10.481   2.183   6.412  0.0929  0.1299 -0.2078
  170MOL0     O22818  10.481   2.257   6.301 -0.9215  0.4049  0.7982
  170MOL0     C22819  10.375   2.334   6.282 -0.4429  0.3360 -0.0767
  170MOL0     C22820  10.257   2.269   6.229  0.0270 -1.0122 -0.5963
  170MOL0     C22821  10.142   2.352   6.205 -0.2921  0.4937 -0.3551
  170MOL0     C22822  10.147   2.491   6.226 -0.8956  1.0759 -0.0302
  170MOL0     O22823  10.038   2.575   6.211 -0.1291  0.3404  1.0612
  170MOL0     C22824   9.988   2.588   6.077  0.5298 -0.3873  0.1010
  170MOL0     C22825   9.859   2.679   6.078 -0.4364 -0.0107  0.4851
  170MOL0     C22826   9.819   2.734   5.941  0.7725  0.0806  0.5789
  170MOL0     C22827   9.730   2.857   5.956 -0.3058 -0.1320 -0.7189
  170MOL0     C22828   9.587   2.846   5.907  0.5889 -0.4036  0.5069
  170MOL0     C22829   9.501   2.974   5.927  0.1405 -0.5700  0.4987
  170MOL0     C22830   9.350   2.943   5.928  0.5338  0.2825  0.3635
  170MOL0     C22831   9.295   2.908   5.791 -0.8157 -0.8649  0.5695
  170MOL0     N22832   9.303   3.021   5.699 -0.2449  0.1732 -0.4250
  170MOL0     C22833   9.209   3.123   5.705  0.4038  0.5179  0.3309
  170MOL0     C22834   9.244   3.212   5.614  0.1061  0.6893  0.4188
  170MOL0     C22835   9.172   3.348   5.593 -0.3728  0.7621  0.7781
  170MOL0     C22836   9.125   3.366   5.447  0.7455  0.5313  0.3291
  170MOL0     C22837   9.009   3.260   5.415  0.9883  0.4757  0.3745
  170MOL0     C22838   8.923   3.315   5.287 -0.0167 -1.0276 -0.3509
  170MOL0     O22839   8.808   3.232   5.262  0.7884  0.5283 -0.3470
  170MOL0     C22840   8.704   3.286   5.181  0.5889  0.0133 -1.0551
  170MOL0     C22841   8.577   3.238   5.209 -0.3147  1.2527  0.1198
  170MOL0     C22842   8.467   3.274   5.137 -0.6049  0.5972 -0.1347
  170MOL0     C22843   8.331   3.225   5.185  0.2162  0.3527 -0.6999
  170MOL0     C22844   8.485   3.369   5.029 -0.4436 -0.0720 -0.3215
  170MOL0     C22845   8.379   3.393   4.934  0.5202 -0.2995  0.6722
  170MOL0     O22846   8.355   3.521   4.891 -0.2464 -0.3604 -0.0091
  170MOL0     C22847   8.252   3.538   4.800 -0.4997 -0.2760  0.6631
  170MOL0     C22848   8.123   3.482   4.809 -0.2562 -0.0961  0.7325
  170MOL0     C22849   8.023   3.509   4.719  0.0193 -0.0543  0.4088
  170MOL0     C22850   8.053   3.606   4.626  0.0007  0.3316 -1.2953
  170MOL0     O22851   7.958   3.640   4.534  0.6746 -0.0663  0.2944
  170MOL0     C22852   7.919   3.786   4.536 -0.1094  0.4689 -1.2396
  170MOL0     C22853   7.775   3.803   4.480 -0.4499  0.4068 -0.0226
  170MOL0     C22854   7.733   3.952   4.481  0.1054  0.2083 -0.3736
  170MOL0     C22855   7.585   3.966   4.446 -1.1143  0.5536 -0.3215
  170MOL0     C22856   7.562   4.103   4.383 -0.1410  0.5399  0.1777
  170MOL0     C22857   7.537   4.215   4.487 -0.0494  0.1876 -0.3542
  170MOL0     C22858   7.660   4.282   4.529 -0.4683 -0.6157 -0.0808
  170MOL0     C22859   7.650   4.388   4.637 -0.1095  0.2657  0.4638
  170MOL0    Cl22860   7.557   4.533   4.597 -0.3146  0.1239 -0.2368
  170MOL0     C22861   8.174   3.677   4.614  0.2921  0.9862 -0.6837
  170MOL0     C22862   8.278   3.632   4.694  0.4837  0.7910 -0.2915
  170MOL0     O22863   8.315   3.294   4.897  0.1381  0.5383  0.1112
  170MOL0     C22864   8.614   3.422   5.005  0.9093 -0.0243  0.0040
  170MOL0     C22865   8.721   3.394   5.086  0.5767  0.0719  0.1994
  170MOL0     N22866   9.367   3.172   5.558  0.7886 -0.1121 -0.9522
  170MOL0     N22867   9.406   3.058   5.609 -0.1428 -0.4364 -0.1516
  170MOL0     C22868  10.259   2.551   6.274  0.0023 -0.1908  0.2596
  170MOL0     C22869  10.377   2.477   6.298  0.2691  0.6826  0.0660
  170MOL0     C22870  10.590   2.081   6.434 -0.6274 -0.3539 -0.2024
  170MOL0     C22871  10.680   2.055   6.326  0.7417  0.4731 -0.2277
  170MOL0     C22872  10.796   1.984   6.346 -0.4158  0.6543  0.0133
  170MOL0     C22873  10.814   1.903   6.468  0.1225  0.4122  0.4196
  170MOL0     O22874  10.923   1.817   6.488  0.2038  0.0218  0.6970
  170MOL0     C22875  11.035   1.830   6.398 -0.9206 -0.0318 -0.9721
  170MOL0     C22876  11.157   1.767   6.465 -0.2450 -0.0907 -0.5978
  170MOL0     C22877  11.211   1.858   6.570 -0.6120  0.1811  0.3804
  170MOL0     C22878  11.353   1.814   6.619 -0.3252  0.2998  0.8588
  170MOL0     C22879  11.448   1.921   6.611 -0.1083  0.3588  0.7556
  170MOL0     C22880  11.506   2.022   6.612  0.4566 -0.0371  0.5332
  170MOL0     C22881  10.717   1.921   6.565 -0.3426  0.5691  0.1579
  170MOL0     C22882  10.607   2.016   6.556  0.0188  1.2912  0.4746
  170MOL0     H22883  10.258   2.162   6.212 -0.5586 -0.9165 -1.2615
  170MOL0     H22884  10.051   2.304   6.170  0.4789 -0.2108 -1.4480
  170MOL0     H22885  10.061   2.623   6.004 -1.5026  0.8952 -1.4179
  170MOL0     H22886   9.954   2.491   6.039  1.1074  0.4242 -2.7552
  170MOL0     H22887   9.770   2.645   6.132 -1.5289  0.1181 -1.1874
  170MOL0     H22888   9.897   2.773   6.121 -1.8221  0.6020  0.4376
  170MOL0     H22889   9.907   2.767   5.885  0.0653 -0.3258 -0.8407
  170MOL0     H22890   9.768   2.662   5.875  0.3031  0.5290  0.4476
  170MOL0     H22891   9.749   2.895   6.056 -0.6904 -0.7853 -0.3941
  170MOL0     H22892   9.769   2.932   5.886 -1.1135  1.2249  0.2581
  170MOL0     H22893   9.596   2.824   5.800  0.7854 -1.3701  0.7198
  170MOL0     H22894   9.539   2.757   5.948  1.7721 -0.5257  1.6653
  170MOL0     H22895   9.530   3.031   6.016 -1.6787 -0.1320  0.8591
  170MOL0     H22896   9.511   3.047   5.846  0.8908 -0.3805  0.7508
  170MOL0     H22897   9.329   2.860   5.997 -0.4224 -2.1496 -2.5829
  170MOL0     H22898   9.294   3.029   5.965 -1.0128 -1.1626  1.5934
  170MOL0     H22899   9.194   2.869   5.806 -1.7564  0.9102 -0.6893
  170MOL0     H22900   9.358   2.827   5.753 -0.9921 -1.9230  2.3889
  170MOL0     H22901   9.123   3.129   5.771  0.4367 -2.5762  0.7994
  170MOL0     H22902   9.083   3.345   5.657 -1.6342  4.0328 -0.5629
  170MOL0     H22903   9.234   3.436   5.612  0.5653  0.6573 -1.4664
  170MOL0     H22904   9.215   3.334   5.394  2.1374 -1.2577  3.4911
  170MOL0     H22905   9.098   3.467   5.415 -1.6729 -0.5630 -1.4912
  170MOL0     H22906   8.933   3.254   5.493 -0.9337 -0.0139 -1.4445
  170MOL0     H22907   9.045   3.159   5.396  0.4496 -0.1774  2.5334
  170MOL0     H22908   8.986   3.325   5.199 -1.9673 -0.9094 -1.8044
  170MOL0     H22909   8.896   3.419   5.306 -0.2380 -1.4243  1.7166
  170MOL0     H22910   8.569   3.164   5.287  2.9294  2.8411  2.1846
  170MOL0     H22911   8.286   3.287   5.263  3.6144 -1.2711  2.9311
  170MOL0     H22912   8.271   3.205   5.096  1.4090  1.2946 -1.7624
  170MOL0     H22913   8.336   3.132   5.242  2.5373  1.9405  1.9590
  170MOL0     H22914   8.106   3.409   4.888  0.3867 -0.2739  0.7126
  170MOL0     H22915   7.924   3.465   4.723  0.1812 -0.3706  0.9974
  170MOL0     H22916   7.919   3.823   4.639 -1.2685  3.6960 -2.2779
  170MOL0     H22917   7.989   3.839   4.470  2.3867 -0.6440  0.3786
  170MOL0     H22918   7.777   3.768   4.376  7.1365 -1.5365  0.2200
  170MOL0     H22919   7.708   3.744   4.543 -1.5227  2.8466  1.2681
  170MOL0     H22920   7.804   4.005   4.417  0.9772  0.4306  0.7392
  170MOL0     H22921   7.747   3.984   4.584  1.1958 -0.6369 -0.2380
  170MOL0     H22922   7.573   3.892   4.366  3.0046 -1.7422  0.9024
  170MOL0     H22923   7.524   3.933   4.531 -0.6756  4.2551  1.6244
  170MOL0     H22924   7.472   4.083   4.325 -0.9277  0.3194  1.4511
  170MOL0     H22925   7.645   4.134   4.318  0.7779  0.5010  1.3040
  170MOL0     H22926   7.476   4.294   4.443  0.7800  1.3979  0.5897
  170MOL0     H22927   7.474   4.178   4.568  0.1861 -1.7638 -0.9988
  170MOL0     H22928   7.698   4.329   4.438 -1.8966 -0.3767 -0.5814
  170MOL0     H22929   7.737   4.209   4.558  0.4704 -0.1955 -1.4188
  170MOL0     H22930   7.752   4.419   4.661  0.2367  2.5810 -3.2298
  170MOL0     H22931   7.595   4.351   4.724 -1.8536  1.1852 -0.1962
  170MOL0     H22932   8.198   3.753   4.541  0.6729  1.8370  0.2997
  170MOL0     H22933   8.375   3.681   4.698 -0.7758  3.5032 -0.8213
  170MOL0     H22934   8.624   3.493   4.923 -0.1295  1.4506  1.0803
  170MOL0     H22935   8.817   3.439   5.062  0.9939 -0.1301  1.4037
  170MOL0     H22936  10.260   2.659   6.279  3.8722  0.1523 -3.0870
  170MOL0     H22937  10.471   2.526   6.322  0.1487 -0.7087  3.9731
  170MOL0     H22938  10.672   2.111   6.234 -1.5086  2.0527  0.8477
  170MOL0     H22939  10.861   1.966   6.261 -1.3339 -2.3103 -0.1388
  170MOL0     H22940  11.011   1.797   6.296 -1.0851  1.5086 -1.4657
  170MOL0     H22941  11.063   1.935   6.382  0.9298 -0.1394  1.0559
  170MOL0     H22942  11.234   1.754   6.389  1.0291  2.8107  0.0711
  170MOL0     H22943  11.135   1.667   6.503  0.6343 -0.3546 -0.7514
  170MOL0     H22944  11.145   1.855   6.657 -2.3795 -0.6361 -0.9211
  170MOL0     H22945  11.220   1.965   6.547 -0.9080 -0.0938 -1.1441
  170MOL0     H22946  11.403   1.742   6.554 -0.5886  1.3154 -0.5237
  170MOL0     H22947  11.359   1.772   6.720  2.0636 -1.1733  0.1880
  170MOL0     H22948  11.551   2.119   6.620 -0.7527  0.4691  1.2781
  170MOL0     H22949  10.729   1.876   6.663  2.1858  2.2072  0.6968
  170MOL0     H22950  10.540   2.031   6.640 -1.6760 -0.1172 -0.5216
  171MOL0     O22951   3.721  10.064   8.381 -0.2691  0.3266 -0.2842
  171MOL0     C22952   3.726   9.960   8.311  0.0397 -0.6466  0.2017
  171MOL0     O22953   3.619   9.893   8.262 -0.1011 -0.9499 -0.4847
  171MOL0     C22954   3.497   9.927   8.309 -0.3201  0.0342  0.8155
  171MOL0     C22955   3.413  10.007   8.239 -0.0496 -0.7032 -0.0089
  171MOL0     C22956   3.288  10.040   8.287 -0.9348 -0.0870 -0.5093
  171MOL0     C22957   3.242   9.984   8.408 -0.5869 -0.6996 -0.0646
  171MOL0     O22958   3.110  10.003   8.458 -1.2546 -0.5824 -0.2644
  171MOL0     C22959   2.999  10.011   8.364 -0.0953 -0.9322  0.1806
  171MOL0     C22960   2.867   9.990   8.444 -0.0393  0.3473 -0.3398
  171MOL0     C22961   2.740   9.979   8.350 -0.3245 -0.2445  0.6291
  171MOL0     C22962   2.623   9.931   8.447 -0.2771 -0.8399  0.6179
  171MOL0     C22963   2.566  10.035   8.537 -0.6381  0.5553  0.3901
  171MOL0     C22964   2.435   9.985   8.604  0.4271 -0.0011  0.5232
  171MOL0     C22965   2.322   9.956   8.505  0.6465  0.0357  0.2112
  171MOL0     C22966   2.178   9.953   8.565  0.1148 -0.1832 -0.7144
  171MOL0     N22967   2.081   9.889   8.469  0.0593 -0.1178  0.9536
  171MOL0     C22968   1.972   9.953   8.411 -0.6526 -0.5037 -0.1438
  171MOL0     C22969   1.923   9.863   8.328 -0.5853  0.3178  0.2439
  171MOL0     C22970   1.821   9.880   8.228 -0.5274 -0.0380  0.6197
  171MOL0     C22971   1.673   9.862   8.274  0.0812 -0.2904 -0.2060
  171MOL0     C22972   1.617   9.916   8.414 -0.5700 -1.1438 -0.1088
  171MOL0     C22973   1.464   9.926   8.419 -0.9559  0.5010  0.4125
  171MOL0     O22974   1.397   9.800   8.405 -0.2465  0.2978 -0.1186
  171MOL0     C22975   1.257   9.804   8.424 -0.5557 -0.1482  0.0057
  171MOL0     C22976   1.187   9.921   8.452  0.2319  0.4812 -0.6977
  171MOL0     C22977   1.042   9.916   8.466 -0.2984  0.9097 -0.1807
  171MOL0     C22978   0.973  10.048   8.483 -0.9473  0.6913 -0.2865
  171MOL0     C22979   0.978   9.792   8.439  0.5678  0.2067 -0.3299
  171MOL0     C22980   0.836   9.773   8.473 -0.1247 -0.5965  0.6500
  171MOL0     O22981   0.791   9.830   8.597  0.2720  0.4756  0.4085
  171MOL0     C22982   0.654   9.847   8.616 -0.0598 -0.0511  0.5348
  171MOL0     C22983   0.587   9.970   8.605 -0.5613  0.2212 -0.3469
  171MOL0     C22984   0.447   9.981   8.605  0.0251 -0.0726  0.1714
  171MOL0     C22985   0.367   9.868   8.622  0.0697  0.7975  0.2811
  171MOL0     O22986   0.228   9.869   8.637 -0.4534  0.3030  0.0884
  171MOL0     C22987   0.156   9.779   8.552 -0.0474 -0.1228  0.7369
  171MOL0     C22988   0.009   9.820   8.547  0.7522  0.4454  1.0672
  171MOL0     C22989  -0.045   9.831   8.693  0.5351 -0.1834 -0.8200
  171MOL0     C22990  -0.189   9.807   8.706 -0.4583 -0.1146 -0.0441
  171MOL0     C22991  -0.224   9.659   8.751 -0.6955  0.0046  0.2679
  171MOL0     C22992  -0.368   9.654   8.790  0.3372  0.4189  0.2833
  171MOL0     C22993  -0.399   9.514   8.846  0.3703  0.1473  1.1752
  171MOL0     C22994  -0.518   9.510   8.938  0.2309  0.5428  0.2574
  171MOL0    Cl22995  -0.585   9.340   8.948 -0.1183  0.3214 -0.4116
  171MOL0     C22996   0.439   9.745   8.651 -0.0535  0.6669  0.6188
  171MOL0     C22997   0.580   9.736   8.644 -0.4888 -0.2765 -0.0496
  171MOL0     O22998   0.769   9.705   8.395 -0.4745  0.0745  0.7476
  171MOL0     C22999   1.053   9.680   8.395 -0.2733  0.2399  0.3837
  171MOL0     C23000   1.190   9.692   8.399  0.0116 -0.7076 -0.2614
  171MOL0     N23001   2.004   9.746   8.342  0.8947 -0.0629 -0.7536
  171MOL0     N23002   2.094   9.771   8.426 -0.1718  0.4206  0.2233
  171MOL0     C23003   3.329   9.903   8.480 -0.7985  0.4710  0.1475
  171MOL0     C23004   3.455   9.875   8.431  0.4519  0.0264  0.3623
  171MOL0     C23005   3.855   9.912   8.280 -0.1209  0.1809  0.8225
  171MOL0     C23006   3.876   9.840   8.158 -0.4217 -0.5345 -0.3169
  171MOL0     C23007   4.002   9.797   8.114 -0.3364 -0.0785 -0.3054
  171MOL0     C23008   4.115   9.835   8.183 -0.8843 -1.4190 -0.3495
  171MOL0     O23009   4.240   9.810   8.138  0.9099  1.1041  0.1707
  171MOL0     C23010   4.260   9.730   8.013 -0.5255  0.5443  0.3972
  171MOL0     C23011   4.406   9.681   8.016 -0.2646  0.1989 -0.2918
  171MOL0     C23012   4.434   9.572   7.908 -0.6647  0.5110 -0.5247
  171MOL0     C23013   4.582   9.524   7.903 -0.0844 -0.7229  0.4283
  171MOL0     C23014   4.648   9.597   7.789 -0.6644 -0.0754 -0.5116
  171MOL0     C23015   4.705   9.655   7.692  0.3411  0.0540  0.7686
  171MOL0     C23016   4.106   9.908   8.301  0.3620 -0.5701 -0.4384
  171MOL0     C23017   3.975   9.943   8.355 -0.6140 -0.5676  0.4305
  171MOL0     H23018   3.460  10.053   8.153  1.5513 -2.5920 -0.1971
  171MOL0     H23019   3.217  10.107   8.239 -1.3627  1.5112  2.1260
  171MOL0     H23020   3.007  10.111   8.321 -0.6356 -0.1388  1.8105
  171MOL0     H23021   3.013   9.925   8.298 -2.0432 -2.3365  1.4905
  171MOL0     H23022   2.887   9.908   8.514 -1.0243  0.9288  0.6687
  171MOL0     H23023   2.852  10.070   8.517  0.2879 -0.3627  0.5287
  171MOL0     H23024   2.716  10.073   8.299 -0.5408  0.0634  1.2783
  171MOL0     H23025   2.759   9.904   8.273  4.9642  0.2236  1.1221
  171MOL0     H23026   2.543   9.898   8.381  0.0501  1.2794 -0.9387
  171MOL0     H23027   2.653   9.849   8.512  0.9402 -1.4265 -0.6424
  171MOL0     H23028   2.642  10.045   8.615  3.0123 -3.6135 -2.2180
  171MOL0     H23029   2.548  10.129   8.482 -0.8884  0.3569  0.1323
  171MOL0     H23030   2.460   9.894   8.659  0.3303 -0.9341 -0.9184
  171MOL0     H23031   2.409  10.064   8.675  2.1830 -0.6589  1.9659
  171MOL0     H23032   2.325  10.030   8.424 -1.9212 -2.2272 -2.2016
  171MOL0     H23033   2.340   9.856   8.463  1.5531 -1.6259  4.1044
  171MOL0     H23034   2.150  10.054   8.596  2.0174  0.3821 -0.6556
  171MOL0     H23035   2.181   9.884   8.650 -0.4654  1.1726  0.4514
  171MOL0     H23036   1.955  10.059   8.429  1.4116 -0.5605  3.0030
  171MOL0     H23037   1.834   9.977   8.178 -0.8878 -1.2689 -2.0834
  171MOL0     H23038   1.834   9.804   8.150  1.2100 -2.0739  2.7893
  171MOL0     H23039   1.672   9.753   8.284 -0.9191 -0.1842  1.2382
  171MOL0     H23040   1.620   9.892   8.183 -0.0917  0.8697  0.2598
  171MOL0     H23041   1.671  10.009   8.434 -0.2507 -1.4979  0.6937
  171MOL0     H23042   1.645   9.847   8.494 -0.5494 -0.0152  0.8694
  171MOL0     H23043   1.423   9.992   8.342 -1.2031  1.3081  1.2118
  171MOL0     H23044   1.433   9.962   8.518 -2.5152 -0.5838  0.3547
  171MOL0     H23045   1.242  10.014   8.456  0.0991  0.5927 -1.4205
  171MOL0     H23046   0.891  10.031   8.554  2.7770  0.7962  4.5411
  171MOL0     H23047   1.040  10.110   8.544 -1.9231  0.8817  0.6294
  171MOL0     H23048   0.947  10.098   8.389  1.0322 -0.0265 -1.2731
  171MOL0     H23049   0.649  10.056   8.584 -0.3436  0.2642  0.4454
  171MOL0     H23050   0.390  10.073   8.598  3.4144  2.2739  0.7991
  171MOL0     H23051   0.183   9.781   8.447  2.2908  0.6675  1.2940
  171MOL0     H23052   0.156   9.677   8.592 -0.8501 -1.0359 -1.4504
  171MOL0     H23053  -0.003   9.910   8.486 -0.4885 -0.1331  0.4074
  171MOL0     H23054  -0.045   9.738   8.499  4.4668 -1.0408 -1.0111
  171MOL0     H23055  -0.047   9.934   8.729 -4.0870 -0.7220  1.1363
  171MOL0     H23056   0.009   9.770   8.765 -0.9001  1.2567  1.6406
  171MOL0     H23057  -0.239   9.877   8.774  0.4611  1.3896 -0.8520
  171MOL0     H23058  -0.250   9.837   8.619 -1.1126  1.4033  0.9013
  171MOL0     H23059  -0.169   9.634   8.843 -0.0619  0.4423  0.0157
  171MOL0     H23060  -0.189   9.584   8.680 -0.6483 -0.3055  0.6122
  171MOL0     H23061  -0.383   9.731   8.866 -2.3061  0.9610 -0.6797
  171MOL0     H23062  -0.434   9.675   8.705 -1.5956  4.2435  2.4434
  171MOL0     H23063  -0.315   9.459   8.890 -1.1515  0.7123  5.1289
  171MOL0     H23064  -0.433   9.448   8.765  1.1239 -0.7758  1.5839
  171MOL0     H23065  -0.593   9.580   8.901  0.0451 -0.0717 -0.5527
  171MOL0     H23066  -0.491   9.544   9.039 -0.5773  0.2014  0.5933
  171MOL0     H23067   0.375   9.658   8.644 -0.5872  1.1769 -2.4496
  171MOL0     H23068   0.641   9.647   8.655  0.9242 -0.0507 -4.2799
  171MOL0     H23069   1.005   9.583   8.379 -0.2689  0.5381 -1.6375
  171MOL0     H23070   1.242   9.598   8.386 -1.8291 -1.7733 -0.2366
  171MOL0     H23071   3.286   9.871   8.574 -0.6448  0.8995  0.3643
  171MOL0     H23072   3.515   9.801   8.484  0.4634  1.2513  2.1255
  171MOL0     H23073   3.791   9.818   8.094  1.5426 -1.4385 -2.7747
  171MOL0     H23074   4.000   9.756   8.014 -3.0736 -1.6109  0.2464
  171MOL0     H23075   4.195   9.642   8.004  0.9370 -0.4035 -1.7544
  171MOL0     H23076   4.253   9.799   7.928 -0.7207 -0.8351 -0.7457
  171MOL0     H23077   4.444   9.656   8.115 -0.8565  0.3236 -0.0296
  171MOL0     H23078   4.466   9.767   7.984 -0.7962  0.3966 -0.7983
  171MOL0     H23079   4.398   9.618   7.816 -0.8943  2.7365  0.6031
  171MOL0     H23080   4.372   9.485   7.929  0.1164 -0.4344 -1.9526
  171MOL0     H23081   4.583   9.419   7.873  1.9576 -0.9270  1.0709
  171MOL0     H23082   4.641   9.536   7.995 -0.1196  1.9423  0.1761
  171MOL0     H23083   4.748   9.700   7.605  0.1622  0.5950  0.9508
  171MOL0     H23084   4.198   9.944   8.345  0.4606 -0.6808 -0.5542
  171MOL0     H23085   3.978  10.009   8.441  2.6464  1.1829 -0.8668
  172MOL0     O23086   8.326   4.885   9.006 -0.2007  0.7086  0.2946
  172MOL0     C23087   8.318   5.002   9.030 -0.2601 -0.1055  1.1076
  172MOL0     O23088   8.217   5.073   9.068  0.3810  0.5390 -0.3445
  172MOL0     C23089   8.098   5.022   9.121 -0.2775  1.0809  0.0843
  172MOL0     C23090   8.010   5.128   9.155 -0.0717  0.1002 -0.1863
  172MOL0     C23091   7.877   5.100   9.196 -0.2186 -0.6329 -0.0913
  172MOL0     C23092   7.840   4.971   9.215  0.5977  0.8757 -0.0024
  172MOL0     O23093   7.719   4.933   9.271  0.7622  0.1948 -0.4252
  172MOL0     C23094   7.711   4.943   9.416 -0.4521 -0.2713 -0.3869
  172MOL0     C23095   7.640   4.825   9.491  1.2472  0.3710  1.3106
  172MOL0     C23096   7.726   4.703   9.476  0.5224 -0.8924  0.2720
  172MOL0     C23097   7.667   4.585   9.537  0.0400 -0.3346  0.1923
  172MOL0     C23098   7.542   4.542   9.463  0.0671  0.4248  0.1372
  172MOL0     C23099   7.502   4.396   9.514  0.1517 -0.3985 -0.9374
  172MOL0     C23100   7.441   4.381   9.650 -0.1365  0.1278 -0.9988
  172MOL0     C23101   7.309   4.298   9.644 -0.0079  0.0181  0.3324
  172MOL0     N23102   7.327   4.156   9.638 -0.0660 -0.3605 -0.1998
  172MOL0     C23103   7.440   4.083   9.625  0.7187 -0.4361 -1.0569
  172MOL0     C23104   7.408   3.955   9.605  0.3670  0.1737 -0.0870
  172MOL0     C23105   7.506   3.839   9.575  0.0211 -0.5671  0.5039
  172MOL0     C23106   7.499   3.731   9.679  0.5299  0.5316  0.1589
  172MOL0     C23107   7.370   3.642   9.680 -0.1890 -0.1611 -0.1211
  172MOL0     C23108   7.372   3.499   9.615 -0.6782  0.3574  0.9452
  172MOL0     O23109   7.417   3.513   9.476  0.9553  0.0179 -0.2856
  172MOL0     C23110   7.434   3.394   9.413  0.4180  0.2924 -0.2106
  172MOL0     C23111   7.325   3.325   9.377 -0.7649  0.7518  0.4567
  172MOL0     C23112   7.335   3.199   9.316  0.9821 -0.0691 -0.0434
  172MOL0     C23113   7.212   3.129   9.263  0.1162  0.1845  0.1472
  172MOL0     C23114   7.467   3.156   9.280 -0.8096  1.1501  0.2540
  172MOL0     C23115   7.490   3.018   9.218  0.1304 -0.3669  0.3758
  172MOL0     O23116   7.587   2.949   9.285  0.3409  0.3330  0.5199
  172MOL0     C23117   7.615   2.815   9.252 -0.5923 -0.7314  1.3420
  172MOL0     C23118   7.517   2.722   9.218  0.0173 -0.7889 -0.2237
  172MOL0     C23119   7.558   2.589   9.187  0.1538  0.1805 -0.0710
  172MOL0     C23120   7.695   2.557   9.189  0.0742  0.6773  0.3456
  172MOL0     O23121   7.719   2.422   9.181 -0.3856 -0.2847  0.1399
  172MOL0     C23122   7.845   2.363   9.233  0.1963 -0.4928  0.7675
  172MOL0     C23123   7.822   2.204   9.257 -0.9164 -0.2260 -1.2816
  172MOL0     C23124   7.934   2.162   9.339  0.1896  0.7990  0.1474
  172MOL0     C23125   7.941   2.011   9.382 -0.7395  0.3809  0.3484
  172MOL0     C23126   7.866   1.986   9.518  0.2491 -0.4422 -0.5815
  172MOL0     C23127   7.854   1.832   9.539 -0.6586 -0.6721 -0.2656
  172MOL0     C23128   7.802   1.799   9.681  0.2102 -0.1621 -0.0798
  172MOL0     C23129   7.796   1.649   9.691  0.2442 -0.5292 -0.0509
  172MOL0    Cl23130   7.716   1.602   9.839 -0.3739  0.4296 -0.1704
  172MOL0     C23131   7.790   2.650   9.227  0.5703  0.2001  0.5985
  172MOL0     C23132   7.748   2.778   9.254  0.0531 -0.1270 -0.2101
  172MOL0     O23133   7.408   2.982   9.132  0.2103 -0.2131  0.6592
  172MOL0     C23134   7.582   3.225   9.315  0.8154  0.3828 -0.7700
  172MOL0     C23135   7.565   3.349   9.380  0.6782  0.1853 -0.2855
  172MOL0     N23136   7.268   3.945   9.620  0.4323  0.4645 -0.3812
  172MOL0     N23137   7.226   4.068   9.633  1.0676  0.3024  0.5336
  172MOL0     C23138   7.931   4.866   9.187  0.1632  1.3085  0.2652
  172MOL0     C23139   8.062   4.895   9.137  0.3979 -0.0029 -0.3593
  172MOL0     C23140   8.436   5.085   8.994  0.9403 -0.7017 -0.6996
  172MOL0     C23141   8.530   5.046   8.900 -1.0823 -0.5922 -1.1150
  172MOL0     C23142   8.653   5.111   8.894 -0.0758  0.5849 -0.5598
  172MOL0     C23143   8.674   5.234   8.948 -0.7448 -0.3984 -0.3639
  172MOL0     O23144   8.793   5.293   8.922  0.6018  0.4164 -0.5191
  172MOL0     C23145   8.816   5.423   8.963  0.3861 -0.9195 -0.3178
  172MOL0     C23146   8.960   5.448   8.917  0.0113  0.5492 -0.4698
  172MOL0     C23147   9.033   5.574   8.979 -0.2495  0.2189 -0.6655
  172MOL0     C23148   9.182   5.567   8.959 -0.0146  0.0727 -0.2368
  172MOL0     C23149   9.210   5.554   8.818  0.2350 -0.7111  0.9451
  172MOL0     C23150   9.250   5.570   8.699  0.5267 -0.5326  0.6127
  172MOL0     C23151   8.579   5.279   9.036  0.2553  0.1619  0.0740
  172MOL0     C23152   8.452   5.214   9.057  0.2076  0.5378 -0.3304
  172MOL0     H23153   8.036   5.231   9.136  2.3188 -0.2956  0.6288
  172MOL0     H23154   7.806   5.182   9.207  2.9176  3.3953 -5.1079
  172MOL0     H23155   7.813   4.951   9.455 -0.8702 -1.2941  1.0124
  172MOL0     H23156   7.660   5.038   9.434 -0.1282 -0.5547  2.5076
  172MOL0     H23157   7.627   4.856   9.595  0.8899  1.9753  0.8162
  172MOL0     H23158   7.544   4.808   9.443  0.3954  2.5888  2.0989
  172MOL0     H23159   7.740   4.690   9.369  3.9182 -3.7595  0.8627
  172MOL0     H23160   7.819   4.705   9.534 -1.0707 -2.5835  3.1530
  172MOL0     H23161   7.744   4.507   9.532 -1.9929 -2.4601  0.3169
  172MOL0     H23162   7.630   4.598   9.639 -2.3520  0.4357 -0.7071
  172MOL0     H23163   7.458   4.607   9.489  0.3448  1.1018 -0.6297
  172MOL0     H23164   7.560   4.548   9.355  0.5824 -0.8473  0.1375
  172MOL0     H23165   7.433   4.358   9.438 -2.3510 -0.7058  1.3454
  172MOL0     H23166   7.597   4.342   9.522  1.6024  2.2236  2.1614
  172MOL0     H23167   7.510   4.335   9.722 -0.8901  2.9905  1.8017
  172MOL0     H23168   7.421   4.481   9.688  0.2016  1.8173 -4.8457
  172MOL0     H23169   7.237   4.326   9.566 -2.8794  2.7295  3.6310
  172MOL0     H23170   7.248   4.330   9.729 -1.3410  0.9038 -0.9100
  172MOL0     H23171   7.541   4.123   9.628  0.5207  0.0661 -1.1157
  172MOL0     H23172   7.476   3.801   9.477  4.5924 -2.4505 -0.3782
  172MOL0     H23173   7.612   3.860   9.562 -0.1916  1.7725  1.8919
  172MOL0     H23174   7.504   3.776   9.779 -0.3371 -0.4259  0.6480
  172MOL0     H23175   7.589   3.669   9.683  0.1318  0.0117  2.4634
  172MOL0     H23176   7.296   3.695   9.619 -0.9420  0.3379  1.1949
  172MOL0     H23177   7.333   3.637   9.783  1.4422  1.1455  0.5635
  172MOL0     H23178   7.271   3.457   9.617 -1.1291  1.4617  2.6580
  172MOL0     H23179   7.438   3.428   9.666  0.0837 -0.1222 -0.6079
  172MOL0     H23180   7.228   3.373   9.390 -1.7169 -1.2502  1.0451
  172MOL0     H23181   7.121   3.186   9.287 -0.0876 -0.5321  1.1746
  172MOL0     H23182   7.220   3.111   9.156  1.9844 -1.9698  0.5659
  172MOL0     H23183   7.198   3.032   9.312 -0.7608 -0.0380 -0.5195
  172MOL0     H23184   7.409   2.736   9.221  0.0541 -0.2842 -0.9832
  172MOL0     H23185   7.486   2.519   9.145 -0.3190  0.5102  0.1873
  172MOL0     H23186   7.921   2.375   9.155 -2.0137 -0.2697 -1.4970
  172MOL0     H23187   7.881   2.406   9.326  1.5391 -3.0247  1.5349
  172MOL0     H23188   7.729   2.195   9.313 -0.4717  0.7150 -0.3642
  172MOL0     H23189   7.795   2.148   9.167  0.5186 -0.1457 -1.7844
  172MOL0     H23190   7.935   2.221   9.431 -1.7473 -0.7020  1.1817
  172MOL0     H23191   8.025   2.186   9.281 -0.5519  0.5243 -1.1723
  172MOL0     H23192   7.889   1.943   9.313 -0.5140  1.0144 -0.4706
  172MOL0     H23193   8.046   1.981   9.374 -0.8513  0.4093 -4.0899
  172MOL0     H23194   7.766   2.031   9.523 -0.1536 -1.4555  1.4119
  172MOL0     H23195   7.918   2.029   9.604  2.8994 -2.7307 -0.8880
  172MOL0     H23196   7.794   1.796   9.455  1.4208 -1.0879 -1.6546
  172MOL0     H23197   7.939   1.767   9.518 -1.6951 -2.2064  0.1435
  172MOL0     H23198   7.697   1.829   9.694  0.4568  0.8500 -0.3619
  172MOL0     H23199   7.868   1.842   9.757 -0.3327  1.2068 -0.3392
  172MOL0     H23200   7.896   1.605   9.695  0.7108  0.5472  1.0551
  172MOL0     H23201   7.731   1.604   9.616 -4.3867  1.4090  2.3788
  172MOL0     H23202   7.894   2.620   9.241  0.7422 -2.2233 -4.0320
  172MOL0     H23203   7.824   2.853   9.271 -0.6369  0.4919  0.1874
  172MOL0     H23204   7.680   3.186   9.288  1.0072  1.5991 -1.9338
  172MOL0     H23205   7.653   3.410   9.401 -0.4772  2.5509 -1.8573
  172MOL0     H23206   7.900   4.764   9.209  1.8267  0.4166 -1.2464
  172MOL0     H23207   8.119   4.806   9.118 -0.8639 -0.8698 -0.2166
  172MOL0     H23208   8.537   4.946   8.858  0.8481 -1.0324  0.1334
  172MOL0     H23209   8.733   5.074   8.830 -0.6100  0.0512 -0.9394
  172MOL0     H23210   8.747   5.495   8.919  0.9475  1.1240  1.9029
  172MOL0     H23211   8.809   5.442   9.070 -1.3624  2.4611 -0.8879
  172MOL0     H23212   8.960   5.461   8.809 -3.2180  0.2481 -0.5877
  172MOL0     H23213   9.013   5.355   8.939  0.0950  1.2341  2.8326
  172MOL0     H23214   9.027   5.564   9.088  2.3950  1.2803 -0.3405
  172MOL0     H23215   8.984   5.663   8.939 -3.5145 -0.5048  1.2905
  172MOL0     H23216   9.232   5.488   9.014  1.2503  1.5947  0.8827
  172MOL0     H23217   9.220   5.659   9.006 -0.0800 -0.3313  0.6135
  172MOL0     H23218   9.286   5.571   8.598 -0.1408 -0.2120  0.3747
  172MOL0     H23219   8.603   5.367   9.095  2.5438 -0.7002  0.5113
  172MOL0     H23220   8.384   5.257   9.130 -0.6830  1.5109 -1.6904
  173MOL0     O23221   3.035   6.272   4.373  0.1437 -0.0519  0.3327
  173MOL0     C23222   3.117   6.300   4.462  1.2395 -1.0143 -0.4923
  173MOL0     O23223   3.164   6.423   4.467 -0.7842 -0.3076  0.2854
  173MOL0     C23224   3.113   6.523   4.384  0.2377 -0.3033 -0.1605
  173MOL0     C23225   3.002   6.598   4.414  0.4283 -0.0761 -1.5474
  173MOL0     C23226   2.966   6.718   4.345 -0.6083 -0.1197 -0.4110
  173MOL0     C23227   3.035   6.753   4.231  0.1666  0.1048  0.1047
  173MOL0     O23228   3.008   6.880   4.180  0.2092  0.0349  0.4534
  173MOL0     C23229   2.991   6.894   4.034 -0.3950 -0.7146 -0.5079
  173MOL0     C23230   3.082   7.007   3.977 -0.1386 -0.3637  0.5682
  173MOL0     C23231   3.081   7.009   3.835 -0.2956 -0.4362  1.4843
  173MOL0     C23232   3.200   7.084   3.777 -0.5477  0.2600 -0.0345
  173MOL0     C23233   3.197   7.075   3.627 -0.9169 -0.1845 -0.0118
  173MOL0     C23234   3.308   7.156   3.555  0.6447 -0.1361  0.9182
  173MOL0     C23235   3.276   7.154   3.404 -0.4868 -0.5627  0.5056
  173MOL0     C23236   3.274   7.019   3.345 -0.0254  0.5780  0.1527
  173MOL0     N23237   3.286   7.035   3.195 -1.0961 -0.4623 -0.4075
  173MOL0     C23238   3.282   6.930   3.101  0.0222  0.0032 -0.0910
  173MOL0     C23239   3.288   6.990   2.979  0.6723  0.0305  0.4908
  173MOL0     C23240   3.269   6.917   2.843  0.1254 -0.9500 -0.8866
  173MOL0     C23241   3.158   6.812   2.857 -0.7227 -0.2606 -0.6047
  173MOL0     C23242   3.080   6.799   2.727 -0.3506 -0.2526  0.6820
  173MOL0     C23243   3.170   6.736   2.614 -0.4867 -0.2081 -0.2971
  173MOL0     O23244   3.188   6.595   2.649 -0.1774 -0.2051  0.0584
  173MOL0     C23245   3.090   6.508   2.668  0.1339  1.2290  0.7855
  173MOL0     C23246   3.096   6.414   2.773  0.7897  0.6177  1.4496
  173MOL0     C23247   2.992   6.326   2.796  0.1784  0.6165 -0.5001
  173MOL0     C23248   3.008   6.241   2.921 -0.0447  0.0296  0.4114
  173MOL0     C23249   2.873   6.328   2.709 -0.7483 -0.2890 -0.7033
  173MOL0     C23250   2.767   6.233   2.721 -0.1511 -0.3746 -0.0757
  173MOL0     O23251   2.799   6.115   2.775 -0.2275 -0.1562  0.2257
  173MOL0     C23252   2.690   6.041   2.811 -0.4454  0.2355  0.7361
  173MOL0     C23253   2.668   6.042   2.952  0.6759 -0.0707  0.2176
  173MOL0     C23254   2.559   5.976   3.004  0.0240  0.4065  1.0833
  173MOL0     C23255   2.477   5.904   2.923 -0.0859  0.5576  0.6698
  173MOL0     O23256   2.363   5.829   2.955  0.3368 -0.3267 -0.3795
  173MOL0     C23257   2.347   5.802   3.095  0.2253 -0.4065 -0.0763
  173MOL0     C23258   2.257   5.689   3.127 -0.2078 -1.4455  0.1661
  173MOL0     C23259   2.126   5.721   3.074  0.0838  0.7084  0.4667
  173MOL0     C23260   2.039   5.615   3.133 -0.0676 -1.0373  0.1875
  173MOL0     C23261   1.898   5.605   3.054 -0.5907  0.1526  0.5389
  173MOL0     C23262   1.823   5.746   3.054  0.3478  0.6716 -0.2562
  173MOL0     C23263   1.676   5.724   3.008  0.6624 -0.7547  0.3710
  173MOL0     C23264   1.644   5.763   2.866 -0.0448  0.1516 -0.0621
  173MOL0    Cl23265   1.732   5.677   2.733 -0.3195  0.2917 -0.3069
  173MOL0     C23266   2.499   5.900   2.784 -0.4624  0.2599  0.5244
  173MOL0     C23267   2.606   5.967   2.730  1.0545 -0.9293 -0.3877
  173MOL0     O23268   2.649   6.267   2.680  0.1272 -0.2349 -0.2006
  173MOL0     C23269   2.872   6.423   2.607 -0.8565 -0.0820  0.1281
  173MOL0     C23270   2.984   6.507   2.580 -0.4814  0.6163 -1.0165
  173MOL0     N23271   3.315   7.123   2.997  0.0846 -0.2195  0.1669
  173MOL0     N23272   3.308   7.150   3.124 -0.2913 -0.4275 -0.2049
  173MOL0     C23273   3.141   6.666   4.189 -1.0007  0.2668  0.2911
  173MOL0     C23274   3.188   6.554   4.267  0.4740 -0.7153 -0.2935
  173MOL0     C23275   3.164   6.209   4.569 -0.0562  0.0981 -0.2025
  173MOL0     C23276   3.259   6.250   4.662  0.1939  0.9288 -0.0889
  173MOL0     C23277   3.300   6.158   4.760  0.1945  0.1194  0.1563
  173MOL0     C23278   3.230   6.035   4.791  0.4472 -1.1934  0.3057
  173MOL0     O23279   3.259   5.954   4.897  0.3905  0.2925  0.1665
  173MOL0     C23280   3.356   5.987   4.986 -0.3373 -0.7864 -0.0482
  173MOL0     C23281   3.347   5.885   5.100  0.2331  0.3730 -0.3297
  173MOL0     C23282   3.390   5.748   5.070 -0.5469 -0.4805 -0.9205
  173MOL0     C23283   3.375   5.650   5.194 -1.1662  0.1338 -0.0455
  173MOL0     C23284   3.239   5.654   5.242 -0.0920 -1.3068 -0.2183
  173MOL0     C23285   3.133   5.681   5.298 -0.6349 -0.3734 -1.2089
  173MOL0     C23286   3.121   6.010   4.706  0.2322  0.1223  0.3149
  173MOL0     C23287   3.096   6.088   4.589 -0.3243 -0.3536 -0.6946
  173MOL0     H23288   2.927   6.562   4.483  2.0789 -0.3919  0.1818
  173MOL0     H23289   2.879   6.775   4.374 -1.2722  0.3241 -3.0296
  173MOL0     H23290   3.005   6.807   3.969  1.1883  0.8125 -2.3215
  173MOL0     H23291   2.888   6.929   4.025 -0.6276 -0.8135  1.3195
  173MOL0     H23292   3.049   7.105   4.015  0.1332 -0.7055  1.7122
  173MOL0     H23293   3.178   6.986   4.025  0.5815  1.9019  0.2464
  173MOL0     H23294   3.086   6.908   3.793  0.2406 -0.1906  0.9346
  173MOL0     H23295   2.992   7.056   3.791  0.2441 -2.2770 -1.9482
  173MOL0     H23296   3.187   7.189   3.804 -1.1463 -0.1744  1.4551
  173MOL0     H23297   3.293   7.032   3.805 -1.6524 -2.9063 -1.6821
  173MOL0     H23298   3.205   6.970   3.595 -0.6201  0.2106 -1.2822
  173MOL0     H23299   3.096   7.103   3.595 -0.4032 -1.0718 -2.6521
  173MOL0     H23300   3.296   7.261   3.583 -2.1855  0.4154 -1.8042
  173MOL0     H23301   3.405   7.109   3.572  0.7997 -1.3724 -2.5949
  173MOL0     H23302   3.186   7.211   3.381  0.9829  0.9964 -2.0065
  173MOL0     H23303   3.365   7.204   3.363 -1.2084  1.2289  1.0391
  173MOL0     H23304   3.175   6.975   3.359  0.3240 -1.2902 -2.6070
  173MOL0     H23305   3.353   6.954   3.382 -0.8828 -0.2172  0.6369
  173MOL0     H23306   3.260   6.826   3.121  0.9735 -0.4887 -1.4015
  173MOL0     H23307   3.246   6.983   2.759  3.1025 -0.5694 -1.5204
  173MOL0     H23308   3.367   6.877   2.814  0.3779 -1.2608  0.3576
  173MOL0     H23309   3.085   6.849   2.930  0.9544  1.8410  0.1099
  173MOL0     H23310   3.201   6.714   2.876 -0.6755 -0.8669 -3.3842
  173MOL0     H23311   3.046   6.892   2.680 -1.5683 -1.5414 -1.1491
  173MOL0     H23312   2.985   6.745   2.735 -0.7830  0.4548  0.4933
  173MOL0     H23313   3.264   6.793   2.618 -1.9211  2.3645 -0.8872
  173MOL0     H23314   3.120   6.748   2.517 -3.0399 -2.4708  0.6290
  173MOL0     H23315   3.181   6.403   2.839  0.2996 -0.7311  1.8823
  173MOL0     H23316   3.106   6.273   2.958  0.0092 -1.3507  1.5158
  173MOL0     H23317   2.933   6.263   2.996  0.8857  1.5748  0.9373
  173MOL0     H23318   3.007   6.132   2.905  0.8968  0.2157 -1.1684
  173MOL0     H23319   2.731   6.086   3.029  0.9471 -0.3077  0.1319
  173MOL0     H23320   2.552   5.969   3.112  0.1810 -2.8796  0.9855
  173MOL0     H23321   2.444   5.769   3.134  0.3210 -1.6898 -1.2953
  173MOL0     H23322   2.298   5.881   3.152  2.4495  0.0176  1.3753
  173MOL0     H23323   2.284   5.594   3.080 -0.5469  0.2117 -3.7298
  173MOL0     H23324   2.244   5.680   3.235  0.9560  2.1420  0.7342
  173MOL0     H23325   2.130   5.709   2.966  2.5022 -0.2546  0.5994
  173MOL0     H23326   2.086   5.821   3.096 -3.2724 -0.1910 -0.9686
  173MOL0     H23327   2.096   5.522   3.116  2.1867  0.0268  1.4310
  173MOL0     H23328   2.023   5.632   3.240  1.8112  1.9591  0.1140
  173MOL0     H23329   1.826   5.540   3.105 -1.3204  1.1140  0.7775
  173MOL0     H23330   1.911   5.568   2.952 -0.7340  2.3110 -0.3194
  173MOL0     H23331   1.827   5.784   3.156  0.9347  1.9832 -0.7394
  173MOL0     H23332   1.881   5.818   2.994  3.0890  2.1943  3.7977
  173MOL0     H23333   1.617   5.789   3.073 -0.8675 -1.9025  0.1971
  173MOL0     H23334   1.635   5.622   3.015 -0.1085 -1.0417 -4.3710
  173MOL0     H23335   1.677   5.867   2.862  3.2087 -0.4416  3.9735
  173MOL0     H23336   1.536   5.768   2.849 -0.5667 -1.0338  2.4400
  173MOL0     H23337   2.430   5.850   2.717 -0.9553  4.4396 -2.4648
  173MOL0     H23338   2.621   5.964   2.623 -1.1794  2.0497 -0.8891
  173MOL0     H23339   2.785   6.429   2.542 -0.5565  1.9481 -0.1301
  173MOL0     H23340   2.991   6.573   2.494  4.1125  1.6019 -0.2021
  173MOL0     H23341   3.197   6.688   4.098  0.3128  1.4057  1.3168
  173MOL0     H23342   3.274   6.495   4.238  0.2588 -0.9939 -0.3772
  173MOL0     H23343   3.321   6.337   4.648 -0.5581  1.0880 -3.3383
  173MOL0     H23344   3.390   6.186   4.814  0.2906  2.0512 -0.9066
  173MOL0     H23345   3.455   5.984   4.939  1.0032  0.9512  2.4115
  173MOL0     H23346   3.343   6.087   5.029 -0.8171 -0.4478 -0.9644
  173MOL0     H23347   3.244   5.898   5.136  0.2216 -0.1566 -0.1687
  173MOL0     H23348   3.411   5.918   5.183  1.2406 -1.0534 -0.5103
  173MOL0     H23349   3.498   5.747   5.050  0.4246  0.8263  3.2929
  173MOL0     H23350   3.337   5.712   4.981  0.3572 -0.5410 -1.4467
  173MOL0     H23351   3.448   5.678   5.271 -1.7917  1.3762  0.1166
  173MOL0     H23352   3.385   5.544   5.168 -1.1246  0.5934 -1.9923
  173MOL0     H23353   3.048   5.703   5.360  0.5298  1.2295 -0.0998
  173MOL0     H23354   3.064   5.921   4.733  0.4141 -0.9817 -2.4930
  173MOL0     H23355   3.023   6.055   4.517 -1.6801  1.2001 -0.0946
  174MOL0     O23356   8.432   7.185   9.921  0.1493 -0.2301  0.4871
  174MOL0     C23357   8.397   7.101  10.002 -1.0972 -0.2515 -0.8566
  174MOL0     O23358   8.273   7.090  10.062 -0.2640  0.2046  0.9056
  174MOL0     C23359   8.161   7.123   9.989 -0.3154  0.6752 -0.6963
  174MOL0     C23360   8.054   7.174  10.062  0.0508 -0.2857 -0.1372
  174MOL0     C23361   7.931   7.199   9.992 -0.0049  0.9026  0.0779
  174MOL0     C23362   7.919   7.197   9.856  0.3611 -0.1925  0.3080
  174MOL0     O23363   7.802   7.228   9.790 -0.4290 -0.4481 -0.1035
  174MOL0     C23364   7.786   7.195   9.654  0.6591  0.2684  0.4042
  174MOL0     C23365   7.648   7.235   9.605  0.6408  0.5647 -0.1495
  174MOL0     C23366   7.547   7.138   9.672  0.4412 -0.1292 -0.2943
  174MOL0     C23367   7.403   7.194   9.665 -0.0751 -0.5800 -0.2089
  174MOL0     C23368   7.330   7.157   9.793  0.8327 -0.3970  0.0366
  174MOL0     C23369   7.211   7.256   9.820 -0.5721  0.4918  0.1095
  174MOL0     C23370   7.112   7.267   9.706  0.1678  0.3689 -1.0037
  174MOL0     C23371   6.980   7.343   9.748  0.1314 -0.3754 -0.6454
  174MOL0     N23372   6.907   7.262   9.847  0.0193 -0.3492 -0.2191
  174MOL0     C23373   6.918   7.285   9.986  0.5010 -0.6152 -0.1196
  174MOL0     C23374   6.824   7.196  10.046  0.4179  0.2691  0.4449
  174MOL0     C23375   6.793   7.181  10.191 -0.7779  0.2835 -0.0322
  174MOL0     C23376   6.733   7.299  10.263  0.5622  1.1298 -0.4741
  174MOL0     C23377   6.586   7.326  10.222  0.4069 -0.1447  0.0823
  174MOL0     C23378   6.529   7.442  10.298 -0.4469  0.3900 -0.6536
  174MOL0     O23379   6.385   7.429  10.282  0.5388  0.1120 -0.2291
  174MOL0     C23380   6.305   7.522  10.330  0.2047  0.2155  0.0893
  174MOL0     C23381   6.327   7.609  10.442 -0.1112  0.5653 -0.0333
  174MOL0     C23382   6.219   7.683  10.491 -0.2744 -0.4015  0.5419
  174MOL0     C23383   6.265   7.767  10.617 -0.6661 -0.1875 -0.3810
  174MOL0     C23384   6.090   7.674  10.428 -0.3116  0.2227 -0.3723
  174MOL0     C23385   5.975   7.763  10.483  1.0909  0.0328  0.7893
  174MOL0     O23386   5.862   7.771  10.401 -0.3140 -0.3921  0.1607
  174MOL0     C23387   5.753   7.836  10.440  0.4593  0.7796 -0.7425
  174MOL0     C23388   5.640   7.757  10.477  0.0574  0.1550 -0.2156
  174MOL0     C23389   5.521   7.818  10.521  0.2381  0.1724  0.9808
  174MOL0     C23390   5.510   7.961  10.510  0.1333 -0.9482 -0.1023
  174MOL0     O23391   5.393   8.015  10.551 -0.3134 -0.7041 -0.0377
  174MOL0     C23392   5.400   8.160  10.566 -0.6143  0.4825 -0.5807
  174MOL0     C23393   5.273   8.214  10.630 -0.1354  0.1528  0.3631
  174MOL0     C23394   5.134   8.190  10.554  0.0276  0.8176 -0.3210
  174MOL0     C23395   5.007   8.263  10.610 -0.7494 -0.0365  0.3781
  174MOL0     C23396   4.874   8.182  10.590 -0.1220 -0.9910  0.2113
  174MOL0     C23397   4.794   8.245  10.475  0.3479 -0.8270 -0.1118
  174MOL0     C23398   4.665   8.168  10.473  0.6249  0.3673  0.0297
  174MOL0     C23399   4.573   8.212  10.356  0.9899  0.0578 -0.5903
  174MOL0    Cl23400   4.619   8.137  10.207  0.2421 -0.4434 -0.3518
  174MOL0     C23401   5.621   8.035  10.461  0.4286 -1.0443 -0.4889
  174MOL0     C23402   5.741   7.973  10.420  0.6954  0.0639  0.0320
  174MOL0     O23403   5.987   7.813  10.599 -0.5003 -0.0377  0.2597
  174MOL0     C23404   6.073   7.593  10.318 -0.2790 -0.3393  0.5210
  174MOL0     C23405   6.179   7.522  10.268 -0.2062  0.9924 -0.7436
  174MOL0     N23406   6.764   7.128   9.945  0.0294 -0.0455 -0.1249
  174MOL0     N23407   6.821   7.156   9.830  0.4975 -0.5190  0.1620
  174MOL0     C23408   8.027   7.160   9.781 -1.3525  0.3251 -0.3009
  174MOL0     C23409   8.144   7.112   9.851  0.0984  0.1527  0.1181
  174MOL0     C23410   8.517   7.024  10.067  0.5450  0.4693 -0.0077
  174MOL0     C23411   8.654   7.074  10.053  0.6684  0.3705  1.2008
  174MOL0     C23412   8.755   7.013  10.132  0.1446  0.5020 -0.1707
  174MOL0     C23413   8.723   6.905  10.220 -0.0516  0.3943  0.0109
  174MOL0     O23414   8.816   6.856  10.303  0.3320  0.6719  0.2351
  174MOL0     C23415   8.923   6.789  10.233 -0.3597  0.3869  0.1675
  174MOL0     C23416   9.056   6.849  10.258  0.8816  0.5418 -0.6079
  174MOL0     C23417   9.121   6.797  10.385 -0.7066 -0.4867  1.2263
  174MOL0     C23418   9.266   6.855  10.414  1.0441  0.2553  0.4574
  174MOL0     C23419   9.348   6.819  10.303  0.0577 -0.3774  0.8431
  174MOL0     C23420   9.423   6.780  10.217  0.4635  0.3761 -0.0249
  174MOL0     C23421   8.594   6.865  10.235 -0.1860  0.3596 -0.2478
  174MOL0     C23422   8.495   6.918  10.161  0.1947  0.4058 -0.8220
  174MOL0     H23423   8.063   7.161  10.169 -2.1453 -2.3418 -0.1351
  174MOL0     H23424   7.837   7.208  10.044 -1.3305  0.6321 -2.1282
  174MOL0     H23425   7.854   7.233   9.577 -0.8500  0.5281 -0.8516
  174MOL0     H23426   7.799   7.087   9.643 -0.2128  0.2495 -0.5655
  174MOL0     H23427   7.627   7.338   9.637 -0.8831  0.7610 -1.6043
  174MOL0     H23428   7.636   7.224   9.497 -1.6190  0.6941  0.0341
  174MOL0     H23429   7.541   7.032   9.643 -1.3660 -0.6747  1.7468
  174MOL0     H23430   7.565   7.134   9.780 -0.6941  0.8845 -0.0403
  174MOL0     H23431   7.400   7.303   9.658 -0.0740 -0.6616 -1.9257
  174MOL0     H23432   7.358   7.171   9.568  1.3277  2.0664 -1.6026
  174MOL0     H23433   7.306   7.051   9.783 -1.1484  0.1077 -1.1521
  174MOL0     H23434   7.393   7.178   9.880 -2.2213  2.7530  1.7283
  174MOL0     H23435   7.156   7.224   9.909 -4.4067  1.3219 -1.7599
  174MOL0     H23436   7.252   7.355   9.841 -0.4151  0.1279  1.6535
  174MOL0     H23437   7.162   7.325   9.628  3.2563 -2.1846 -1.1039
  174MOL0     H23438   7.092   7.163   9.682  0.4757  0.5502 -2.0765
  174MOL0     H23439   6.924   7.349   9.655  2.1019  4.1171 -1.8080
  174MOL0     H23440   6.986   7.446   9.785 -0.7644 -0.1347 -1.1562
  174MOL0     H23441   6.986   7.351  10.039  0.7688 -2.7860  2.4239
  174MOL0     H23442   6.734   7.092  10.214 -0.6244  0.5349  1.4321
  174MOL0     H23443   6.889   7.160  10.239 -1.8806 -1.1225  1.6710
  174MOL0     H23444   6.797   7.387  10.253  0.1489  1.4597 -0.2999
  174MOL0     H23445   6.732   7.267  10.367  1.6633 -2.1702 -1.3769
  174MOL0     H23446   6.524   7.238  10.242  1.0359 -0.4894  0.5373
  174MOL0     H23447   6.587   7.346  10.114  1.1396  2.3979  0.4933
  174MOL0     H23448   6.565   7.536  10.255  0.3723 -0.1186 -1.1066
  174MOL0     H23449   6.548   7.431  10.405  1.3664 -1.2581 -1.0956
  174MOL0     H23450   6.429   7.609  10.479 -0.7493  0.8049  1.8184
  174MOL0     H23451   6.224   7.722  10.707  2.6607 -0.3385  1.2002
  174MOL0     H23452   6.373   7.766  10.630 -0.8276  0.2973  1.1375
  174MOL0     H23453   6.230   7.871  10.611 -1.4140 -0.4148  0.0074
  174MOL0     H23454   5.650   7.649  10.476  3.1532  0.3116  1.2843
  174MOL0     H23455   5.434   7.768  10.564 -2.5395  3.6380 -0.0879
  174MOL0     H23456   5.492   8.191  10.615 -0.5112  0.3717 -0.7045
  174MOL0     H23457   5.403   8.200  10.464  0.1188  1.2321 -0.2783
  174MOL0     H23458   5.258   8.179  10.732  0.9275 -2.4062 -0.2782
  174MOL0     H23459   5.302   8.320  10.639  0.2454 -0.0001  0.9706
  174MOL0     H23460   5.115   8.084  10.573 -2.2384  1.2560  0.0665
  174MOL0     H23461   5.142   8.212  10.447  1.3564 -0.6504 -0.5580
  174MOL0     H23462   5.025   8.267  10.718 -1.8574  0.1213  0.5596
  174MOL0     H23463   4.996   8.363  10.567  0.7910  2.1396  4.4101
  174MOL0     H23464   4.818   8.188  10.684 -1.4362 -0.1055 -0.6008
  174MOL0     H23465   4.898   8.079  10.561 -0.3705 -0.6608 -1.2618
  174MOL0     H23466   4.779   8.352  10.490 -1.0377 -1.2530  2.1178
  174MOL0     H23467   4.844   8.229  10.379  2.7656  2.0788  0.5036
  174MOL0     H23468   4.620   8.189  10.570  0.8741  1.7478 -0.1298
  174MOL0     H23469   4.685   8.062  10.455  0.3505  0.6904 -2.4521
  174MOL0     H23470   4.551   8.319  10.348  0.2744 -0.1603 -1.7976
  174MOL0     H23471   4.475   8.168  10.374  0.4865  0.3697 -2.3702
  174MOL0     H23472   5.624   8.143  10.449 -3.1089 -0.6512  0.9800
  174MOL0     H23473   5.825   8.035  10.389  1.6821  0.2599  2.8111
  174MOL0     H23474   5.982   7.600  10.259 -0.4748  3.0615  1.0253
  174MOL0     H23475   6.154   7.457  10.186 -2.9117  1.0996 -0.0782
  174MOL0     H23476   8.016   7.141   9.675 -1.5374  0.3448 -0.2848
  174MOL0     H23477   8.214   7.056   9.790  1.9192  3.3497 -0.9358
  174MOL0     H23478   8.677   7.162   9.995 -0.6021  0.2505  0.4865
  174MOL0     H23479   8.856   7.051  10.128  0.9379 -1.4590  0.2086
  174MOL0     H23480   8.921   6.683  10.261  0.2259  0.7936  1.8481
  174MOL0     H23481   8.907   6.791  10.125  2.5728  1.1211 -0.3244
  174MOL0     H23482   9.061   6.956  10.234 -0.2307  0.9017  0.6762
  174MOL0     H23483   9.120   6.818  10.174  4.2549  3.4645  0.6091
  174MOL0     H23484   9.128   6.692  10.357  1.0841  0.3421 -1.9206
  174MOL0     H23485   9.054   6.805  10.471 -1.3097 -2.1635  0.9381
  174MOL0     H23486   9.304   6.801  10.501  0.3294  0.5170  0.9495
  174MOL0     H23487   9.261   6.960  10.444  1.0977 -0.4390  3.1314
  174MOL0     H23488   9.490   6.742  10.143 -0.5334  2.7714 -2.3184
  174MOL0     H23489   8.566   6.786  10.304  0.7725  0.7323  0.5907
  174MOL0     H23490   8.396   6.883  10.189  0.7567 -0.1470  0.5264
  175MOL0     O23491   4.518   9.004  11.355  0.1477 -0.5336  0.0139
  175MOL0     C23492   4.539   9.124  11.352  0.5143 -0.8092  0.1443
  175MOL0     O23493   4.457   9.225  11.360 -1.3765  0.5549  0.1208
  175MOL0     C23494   4.324   9.200  11.364  0.3941  0.4305 -0.5053
  175MOL0     C23495   4.244   9.159  11.249 -0.5790  1.0305 -0.6155
  175MOL0     C23496   4.108   9.135  11.255 -0.7775  0.6520 -0.1612
  175MOL0     C23497   4.050   9.145  11.380 -0.1319 -0.0569  0.8778
  175MOL0     O23498   3.915   9.122  11.379  0.2805  0.0465  0.0896
  175MOL0     C23499   3.844   9.156  11.503 -0.2194  0.2093 -0.7589
  175MOL0     C23500   3.692   9.150  11.482  0.9526  0.6111  0.2744
  175MOL0     C23501   3.640   9.006  11.501 -0.9369  0.1409  0.1036
  175MOL0     C23502   3.493   9.004  11.448  0.8346 -0.0672 -0.0372
  175MOL0     C23503   3.385   9.020  11.555 -0.0230  0.8698  0.2972
  175MOL0     C23504   3.239   9.010  11.504  0.7151  0.0478 -0.2090
  175MOL0     C23505   3.131   8.976  11.617 -0.9793 -0.6036 -0.1148
  175MOL0     C23506   2.984   8.993  11.564  0.8252  0.2712 -0.3825
  175MOL0     N23507   2.877   9.021  11.667  0.4014  0.6269 -0.4923
  175MOL0     C23508   2.845   8.921  11.759  0.6337 -0.2621  0.3734
  175MOL0     C23509   2.749   8.982  11.837  0.5387 -0.1701  1.6751
  175MOL0     C23510   2.676   8.924  11.955  0.7193  0.2368  0.2073
  175MOL0     C23511   2.567   8.817  11.935  0.2130 -0.2905 -0.3369
  175MOL0     C23512   2.448   8.878  11.873  0.4671 -0.8413  0.3658
  175MOL0     C23513   2.345   8.781  11.826 -0.6965  0.6055  0.1059
  175MOL0     O23514   2.301   8.703  11.941  0.2854 -0.2804  0.6324
  175MOL0     C23515   2.204   8.606  11.927 -0.0354 -0.1802  0.3860
  175MOL0     C23516   2.153   8.564  11.808 -0.4943  0.0761 -0.0455
  175MOL0     C23517   2.046   8.473  11.798  0.7915 -0.4893  0.4610
  175MOL0     C23518   2.004   8.446  11.659 -0.8919  0.2206 -0.6361
  175MOL0     C23519   1.985   8.415  11.912 -0.2236 -1.2677 -0.0584
  175MOL0     C23520   1.887   8.308  11.914 -0.5805  0.1106 -0.6991
  175MOL0     O23521   1.814   8.299  12.029  0.0415 -0.1027  0.2334
  175MOL0     C23522   1.728   8.195  12.044 -0.0703  0.4756 -0.1597
  175MOL0     C23523   1.602   8.219  12.087 -0.1181  0.3313 -0.7154
  175MOL0     C23524   1.512   8.112  12.110 -0.8244 -0.2343  0.0696
  175MOL0     C23525   1.544   7.975  12.088  0.4536  0.3140 -0.7115
  175MOL0     O23526   1.444   7.878  12.119 -0.1095 -0.3900 -0.4533
  175MOL0     C23527   1.461   7.748  12.076 -0.4914 -0.2002  0.0874
  175MOL0     C23528   1.336   7.683  12.031  0.2624  0.3388 -0.1177
  175MOL0     C23529   1.237   7.647  12.147 -0.1583  0.2903 -0.5541
  175MOL0     C23530   1.173   7.770  12.211  1.3248  0.7125  1.3728
  175MOL0     C23531   1.037   7.747  12.291  0.0403  0.5268  0.3171
  175MOL0     C23532   0.911   7.726  12.206 -0.7293  0.4384  0.0660
  175MOL0     C23533   0.788   7.771  12.282  0.0208 -0.0666  0.4103
  175MOL0     C23534   0.655   7.723  12.225 -0.3020 -0.3933  0.2930
  175MOL0    Cl23535   0.633   7.555  12.226 -0.5022 -0.0157  0.0180
  175MOL0     C23536   1.679   7.950  12.048  0.0625  0.6678  0.8612
  175MOL0     C23537   1.763   8.058  12.032  0.0020  0.6978  0.8330
  175MOL0     O23538   1.862   8.245  11.813  0.1144 -0.0262  0.3771
  175MOL0     C23539   2.020   8.480  12.035  0.1265  0.3621  0.4465
  175MOL0     C23540   2.133   8.559  12.045  0.3008  0.3177  0.1575
  175MOL0     N23541   2.719   9.107  11.793  1.3799  0.3034  0.5528
  175MOL0     N23542   2.782   9.124  11.690 -0.7699  0.3702  0.4430
  175MOL0     C23543   4.122   9.183  11.495 -0.4346  0.8698  0.0084
  175MOL0     C23544   4.258   9.211  11.484 -0.9849 -0.4687  0.9464
  175MOL0     C23545   4.685   9.165  11.342 -0.6591 -0.4994  0.4218
  175MOL0     C23546   4.783   9.075  11.299  0.1712  0.3171  0.3898
  175MOL0     C23547   4.915   9.118  11.293 -0.8102  0.7710 -0.4800
  175MOL0     C23548   4.956   9.251  11.324  0.2573 -0.1350  0.1575
  175MOL0     O23549   5.084   9.302  11.316  0.0773  0.0769 -0.9325
  175MOL0     C23550   5.172   9.250  11.220 -0.6269  0.3346  0.3782
  175MOL0     C23551   5.315   9.300  11.242 -0.5396  0.4727 -0.3113
  175MOL0     C23552   5.402   9.237  11.136 -0.3120  0.5685  0.9860
  175MOL0     C23553   5.542   9.298  11.125  0.2965 -0.1880 -0.6772
  175MOL0     C23554   5.612   9.292  11.254 -0.1616  0.9007 -0.1806
  175MOL0     C23555   5.671   9.292  11.362 -0.1591 -0.2860 -0.9561
  175MOL0     C23556   4.850   9.342  11.365  0.8053 -0.1601  0.7289
  175MOL0     C23557   4.720   9.301  11.370 -0.0862  0.4340 -0.7708
  175MOL0     H23558   4.293   9.137  11.155  2.8628 -1.5854  1.5727
  175MOL0     H23559   4.066   9.115  11.156 -2.7246  1.6425  0.4055
  175MOL0     H23560   3.871   9.102  11.594  0.5758  1.6000 -0.1328
  175MOL0     H23561   3.863   9.261  11.526 -3.1834  0.4170  1.2965
  175MOL0     H23562   3.648   9.217  11.556  0.1395  0.6866 -0.2634
  175MOL0     H23563   3.677   9.176  11.377 -0.8172 -2.5473 -0.4149
  175MOL0     H23564   3.708   8.932  11.457 -1.2142 -0.5576  0.8408
  175MOL0     H23565   3.645   8.992  11.609  2.9972 -0.9591 -0.0689
  175MOL0     H23566   3.486   9.094  11.387  0.7754 -0.0535 -0.0097
  175MOL0     H23567   3.469   8.926  11.375  1.1311  1.9654 -2.4344
  175MOL0     H23568   3.395   8.940  11.629  2.1709  2.0680  1.3818
  175MOL0     H23569   3.395   9.119  11.600 -3.7058  0.9746  1.2063
  175MOL0     H23570   3.214   9.105  11.455  1.3165  0.2080 -0.2160
  175MOL0     H23571   3.229   8.940  11.420 -2.3977 -3.2896  2.6123
  175MOL0     H23572   3.142   8.881  11.672 -0.3297 -1.7180 -2.0863
  175MOL0     H23573   3.146   9.059  11.687  0.1436 -0.7881 -0.1250
  175MOL0     H23574   2.961   8.902  11.508 -2.5900 -0.6090  2.1440
  175MOL0     H23575   2.992   9.082  11.500  0.1402 -0.7426 -1.9345
  175MOL0     H23576   2.881   8.819  11.768  2.3504 -0.1770 -3.5465
  175MOL0     H23577   2.757   8.872  12.007  2.5937  1.1933 -1.6793
  175MOL0     H23578   2.636   9.007  12.015  1.5551  0.9787 -0.2483
  175MOL0     H23579   2.544   8.767  12.030  1.3697  0.3570  0.3103
  175MOL0     H23580   2.611   8.735  11.877 -1.9333 -1.6454 -0.1879
  175MOL0     H23581   2.475   8.933  11.783 -2.5397 -2.7871 -1.9240
  175MOL0     H23582   2.402   8.951  11.941 -0.8182  0.1211 -1.4484
  175MOL0     H23583   2.389   8.724  11.743 -0.4060  3.3778 -1.7545
  175MOL0     H23584   2.260   8.837  11.786  0.1411  1.6913 -0.2160
  175MOL0     H23585   2.186   8.623  11.723  1.8436  2.0107  2.0409
  175MOL0     H23586   2.047   8.520  11.591  2.0796 -0.0561  0.7775
  175MOL0     H23587   2.035   8.344  11.634 -2.1568 -1.1358  2.7340
  175MOL0     H23588   1.895   8.453  11.650 -1.2462 -1.3569  1.5682
  175MOL0     H23589   1.566   8.321  12.094 -0.3622  0.2379 -0.6102
  175MOL0     H23590   1.407   8.122  12.134 -0.6581 -0.9439  1.1826
  175MOL0     H23591   1.515   7.737  11.982 -3.3679 -1.1021 -1.5989
  175MOL0     H23592   1.498   7.682  12.156 -1.9691 -0.5149  0.5413
  175MOL0     H23593   1.282   7.748  11.960 -1.0395 -1.9073 -1.2972
  175MOL0     H23594   1.353   7.601  11.961 -0.0074  1.1999 -1.2373
  175MOL0     H23595   1.284   7.599  12.233 -1.7978  1.7700  1.2505
  175MOL0     H23596   1.163   7.577  12.109  2.4277 -3.0871  0.1742
  175MOL0     H23597   1.241   7.818  12.282 -0.5927  1.9488  2.4742
  175MOL0     H23598   1.149   7.837  12.129  0.5841 -1.4754 -0.2947
  175MOL0     H23599   1.016   7.835  12.352 -2.9194  0.4096 -0.3972
  175MOL0     H23600   1.059   7.656  12.346  2.0030 -0.7113 -2.2676
  175MOL0     H23601   0.916   7.793  12.119  0.8086 -0.0891 -0.2899
  175MOL0     H23602   0.895   7.620  12.184 -2.7199  0.7547 -0.2105
  175MOL0     H23603   0.784   7.880  12.281 -0.1220 -0.0696  0.5590
  175MOL0     H23604   0.790   7.730  12.383 -2.7693  0.6015  0.8317
  175MOL0     H23605   0.652   7.768  12.125  2.3855 -2.2072 -0.7318
  175MOL0     H23606   0.577   7.763  12.289 -2.4085  0.1324 -2.4246
  175MOL0     H23607   1.712   7.847  12.036  1.6788  1.3141 -0.7277
  175MOL0     H23608   1.866   8.022  12.029 -1.0114 -2.5192  0.7783
  175MOL0     H23609   1.981   8.452  12.132 -1.4591 -0.7781 -0.4712
  175MOL0     H23610   2.174   8.591  12.140  1.4339 -1.8137  0.4622
  175MOL0     H23611   4.088   9.187  11.597 -1.9776 -1.0506 -0.3612
  175MOL0     H23612   4.329   9.240  11.560 -1.7952  0.4486  1.3734
  175MOL0     H23613   4.772   8.974  11.262  0.3728  0.6999 -0.7538
  175MOL0     H23614   4.993   9.049  11.264 -2.8259 -2.7224  1.7228
  175MOL0     H23615   5.168   9.140  11.222 -1.6702  0.1499 -3.2287
  175MOL0     H23616   5.133   9.280  11.122 -1.0162  0.9349  0.7142
  175MOL0     H23617   5.349   9.276  11.343  0.3382  0.5337 -0.5913
  175MOL0     H23618   5.314   9.409  11.236  0.0040  0.6654  2.0814
  175MOL0     H23619   5.350   9.251  11.041 -0.6467  1.0694  1.2405
  175MOL0     H23620   5.423   9.130  11.145  1.9410  0.3108 -4.1946
  175MOL0     H23621   5.523   9.405  11.112 -0.7116  0.0274  1.8692
  175MOL0     H23622   5.601   9.255  11.044  1.5427 -0.7484  0.4778
  175MOL0     H23623   5.714   9.290  11.460  0.3894 -1.2342 -1.2011
  175MOL0     H23624   4.880   9.444  11.387  4.1309 -0.9471  0.4607
  175MOL0     H23625   4.645   9.374  11.396  1.6935  2.5307 -1.1946
  176MOL0     O23626   7.651  11.287   2.565  0.5025  0.2971  0.2150
  176MOL0     C23627   7.707  11.306   2.670  0.1605 -0.0487 -0.1668
  176MOL0     O23628   7.645  11.329   2.787  0.2337 -0.3455 -0.1982
  176MOL0     C23629   7.508  11.296   2.783 -0.0315  0.3001 -0.4173
  176MOL0     C23630   7.419  11.393   2.823  0.8935  0.3671  0.2420
  176MOL0     C23631   7.284  11.369   2.828 -0.1245 -1.0150 -0.0348
  176MOL0     C23632   7.238  11.246   2.795 -0.6949 -0.5127 -0.5777
  176MOL0     O23633   7.108  11.212   2.815  0.0108  0.6034  0.2602
  176MOL0     C23634   7.025  11.263   2.717  0.0909 -0.2659  0.3458
  176MOL0     C23635   6.902  11.168   2.698 -0.3560 -0.7276 -0.1102
  176MOL0     C23636   6.801  11.225   2.592  0.0224 -0.7101  0.6781
  176MOL0     C23637   6.658  11.167   2.596  0.2593 -0.5659  0.1324
  176MOL0     C23638   6.572  11.243   2.487  0.0220 -0.0112 -0.3140
  176MOL0     C23639   6.430  11.181   2.479 -0.0840  0.5571  1.2333
  176MOL0     C23640   6.343  11.252   2.378 -1.2307 -0.4002 -0.4227
  176MOL0     C23641   6.216  11.164   2.357  0.1795  0.4158  0.7627
  176MOL0     N23642   6.123  11.222   2.249 -0.0838  0.7025 -0.0221
  176MOL0     C23643   6.056  11.148   2.148  0.3399  0.1851  1.1089
  176MOL0     C23644   5.960  11.229   2.098 -0.2358  0.9836 -0.2692
  176MOL0     C23645   5.859  11.195   1.992  0.2482 -1.0594 -0.7078
  176MOL0     C23646   5.737  11.118   2.050 -0.4960  0.5638 -0.2415
  176MOL0     C23647   5.633  11.093   1.947 -0.1331  0.3590 -0.0381
  176MOL0     C23648   5.510  11.029   2.000  0.2510 -0.2926 -0.6362
  176MOL0     O23649   5.428  11.004   1.876 -0.0737  0.2416 -0.6561
  176MOL0     C23650   5.306  10.946   1.892 -0.4139 -0.4897  0.0153
  176MOL0     C23651   5.249  10.902   1.771  0.1936  0.7404  0.3917
  176MOL0     C23652   5.116  10.848   1.764  0.1062 -0.1746 -0.2372
  176MOL0     C23653   5.065  10.796   1.630 -0.2479  0.2884 -0.1306
  176MOL0     C23654   5.035  10.854   1.870  0.3471 -0.1506  0.3917
  176MOL0     C23655   4.898  10.792   1.876  0.6206  0.1036 -0.8460
  176MOL0     O23656   4.845  10.788   2.000  0.0093 -0.1291  0.3830
  176MOL0     C23657   4.717  10.749   2.026 -0.0824  0.0191  0.0976
  176MOL0     C23658   4.667  10.623   1.989  0.1852 -0.1783 -0.1620
  176MOL0     C23659   4.528  10.599   2.002  0.9541  0.7730 -0.8038
  176MOL0     C23660   4.431  10.692   2.032 -0.7228 -0.3958  1.0531
  176MOL0     O23661   4.296  10.654   2.031  0.3588 -0.5734 -0.5795
  176MOL0     C23662   4.189  10.753   2.036 -0.8265  0.0807  0.4917
  176MOL0     C23663   4.070  10.676   2.092  0.4287 -0.7245 -0.7788
  176MOL0     C23664   3.999  10.742   2.213 -0.3169 -0.1494  0.3290
  176MOL0     C23665   3.874  10.667   2.263 -1.0826 -0.3259  1.1753
  176MOL0     C23666   3.819  10.745   2.388 -1.2100  0.1694 -0.5983
  176MOL0     C23667   3.671  10.695   2.408  0.1562 -0.1085 -0.1472
  176MOL0     C23668   3.586  10.754   2.290 -0.1780  0.4362 -0.5860
  176MOL0     C23669   3.445  10.776   2.337  0.7016  0.2609  0.2795
  176MOL0    Cl23670   3.344  10.859   2.216 -0.5887 -0.1856  0.6437
  176MOL0     C23671   4.478  10.827   2.055 -1.0234  0.6180 -0.8290
  176MOL0     C23672   4.619  10.848   2.059  0.3344  0.2252  1.0544
  176MOL0     O23673   4.837  10.764   1.772 -0.1603  0.3395  1.1122
  176MOL0     C23674   5.095  10.892   1.995 -0.6091 -0.9975 -0.1171
  176MOL0     C23675   5.226  10.945   2.009  0.2410  0.8056  0.2737
  176MOL0     N23676   5.993  11.356   2.150  0.7020  0.5184 -0.9400
  176MOL0     N23677   6.086  11.354   2.238  0.8211  0.0572  0.0803
  176MOL0     C23678   7.327  11.140   2.758  0.2886 -0.2166 -0.5802
  176MOL0     C23679   7.462  11.170   2.755  0.1522  1.1014 -0.2668
  176MOL0     C23680   7.849  11.325   2.663 -0.1586 -0.2892 -0.7385
  176MOL0     C23681   7.921  11.245   2.570 -0.5079 -0.3739  0.6417
  176MOL0     C23682   8.062  11.231   2.581 -0.6163 -0.1278  0.4574
  176MOL0     C23683   8.128  11.315   2.678  1.2168 -1.2830  0.5685
  176MOL0     O23684   8.268  11.314   2.670  0.4131 -0.2467  0.3852
  176MOL0     C23685   8.326  11.386   2.773 -0.4024  0.4703  0.1384
  176MOL0     C23686   8.478  11.361   2.792  0.1837 -0.5228 -0.3660
  176MOL0     C23687   8.528  11.367   2.940 -0.0712  0.0351 -0.2725
  176MOL0     C23688   8.525  11.515   2.993 -0.5206  0.6352  0.4840
  176MOL0     C23689   8.601  11.603   2.907  0.5334  1.8620 -0.6045
  176MOL0     C23690   8.667  11.684   2.847 -0.0910  0.3732  0.3792
  176MOL0     C23691   8.048  11.390   2.771  0.1689 -0.0346  0.1531
  176MOL0     C23692   7.914  11.395   2.766  0.5201  0.3576  0.5599
  176MOL0     H23693   7.456  11.484   2.869  1.1282  1.4108 -1.8669
  176MOL0     H23694   7.224  11.452   2.867  2.4994  1.5918 -1.1773
  176MOL0     H23695   6.986  11.362   2.742  2.7843  1.2608 -1.0378
  176MOL0     H23696   7.075  11.274   2.620 -0.9592  1.6880 -0.0479
  176MOL0     H23697   6.943  11.070   2.672  2.2952  0.1572  0.3354
  176MOL0     H23698   6.847  11.163   2.793 -0.4861  2.3004  0.0852
  176MOL0     H23699   6.807  11.330   2.622 -1.2496  0.1806 -1.9031
  176MOL0     H23700   6.841  11.216   2.490 -0.0785 -0.7663  0.6436
  176MOL0     H23701   6.662  11.060   2.574  0.2357 -0.3408 -1.0332
  176MOL0     H23702   6.619  11.185   2.697 -1.4779  0.3657 -0.6519
  176MOL0     H23703   6.551  11.345   2.521 -1.0677 -1.0239  2.3084
  176MOL0     H23704   6.627  11.237   2.392 -0.8679  0.2445 -0.8631
  176MOL0     H23705   6.450  11.078   2.447  0.7906  1.1506 -0.2057
  176MOL0     H23706   6.377  11.178   2.575 -0.8530 -2.2591  0.8221
  176MOL0     H23707   6.323  11.348   2.427  1.2180 -0.0872  0.0929
  176MOL0     H23708   6.398  11.281   2.288  3.5086  1.1295  2.5178
  176MOL0     H23709   6.151  11.159   2.445  0.3463 -1.4619  0.8165
  176MOL0     H23710   6.247  11.067   2.317  0.6692  0.9138 -0.0853
  176MOL0     H23711   6.070  11.044   2.119  2.0269  0.3898  1.0671
  176MOL0     H23712   5.825  11.292   1.956 -3.2499 -1.7547  0.3726
  176MOL0     H23713   5.902  11.140   1.907  0.7607 -0.2360 -0.9902
  176MOL0     H23714   5.688  11.184   2.122 -0.5226  1.5686 -1.1526
  176MOL0     H23715   5.752  11.017   2.089 -1.1980  0.3300 -0.5632
  176MOL0     H23716   5.674  11.019   1.878 -1.2487 -0.5220  0.2097
  176MOL0     H23717   5.611  11.187   1.896  2.4930  1.8848  1.3928
  176MOL0     H23718   5.458  11.090   2.075  1.1681 -0.9547  0.5806
  176MOL0     H23719   5.535  10.932   2.044 -0.2358  0.0586  0.4567
  176MOL0     H23720   5.306  10.904   1.678 -3.3962  1.9736 -1.9780
  176MOL0     H23721   5.030  10.693   1.630  1.4863 -0.3668  1.7749
  176MOL0     H23722   4.981  10.858   1.597  0.5010  0.8488 -1.0688
  176MOL0     H23723   5.141  10.808   1.552  0.5731  0.0914  0.6195
  176MOL0     H23724   4.734  10.540   1.969 -1.9839 -1.9851 -0.3194
  176MOL0     H23725   4.505  10.497   1.976  1.9792  0.3259 -0.0257
  176MOL0     H23726   4.208  10.845   2.093  1.5109 -1.7554  2.9501
  176MOL0     H23727   4.181  10.775   1.930  0.0176 -3.4830 -0.4450
  176MOL0     H23728   3.995  10.653   2.016  0.2241  1.4182 -1.3063
  176MOL0     H23729   4.120  10.588   2.134  0.4958  0.9072  3.0020
  176MOL0     H23730   3.969  10.842   2.178  1.1275  0.6578  1.2736
  176MOL0     H23731   4.072  10.753   2.293 -2.3337  2.0909  2.0013
  176MOL0     H23732   3.802  10.671   2.180  4.6059 -2.3088 -4.6879
  176MOL0     H23733   3.895  10.561   2.281  2.2347 -0.1853 -0.9764
  176MOL0     H23734   3.817  10.853   2.368  0.1730  0.7010  1.7550
  176MOL0     H23735   3.878  10.737   2.479 -2.3137  0.3018  0.1418
  176MOL0     H23736   3.645  10.589   2.407 -2.7074  0.4585  1.8147
  176MOL0     H23737   3.634  10.729   2.505  0.9254 -1.4699  0.6699
  176MOL0     H23738   3.580  10.683   2.206 -1.3082 -1.0385  0.6726
  176MOL0     H23739   3.629  10.850   2.260 -0.0596  0.1670 -1.3101
  176MOL0     H23740   3.445  10.826   2.435  0.2112  0.5780  0.1194
  176MOL0     H23741   3.400  10.679   2.357 -0.8133  0.8088 -0.3643
  176MOL0     H23742   4.420  10.909   2.096 -0.9383 -0.1643  0.9745
  176MOL0     H23743   4.661  10.946   2.077  0.9433 -0.0073  0.9397
  176MOL0     H23744   5.036  10.862   2.081  0.4903 -0.7926  0.7339
  176MOL0     H23745   5.263  10.986   2.102  1.6268  1.5410 -0.5731
  176MOL0     H23746   7.310  11.034   2.744 -2.4526  0.3329 -2.1477
  176MOL0     H23747   7.532  11.087   2.746  1.2540  2.0194 -0.3563
  176MOL0     H23748   7.867  11.177   2.505  0.7117  1.3998 -2.4702
  176MOL0     H23749   8.118  11.169   2.512 -0.5810  0.5676 -0.1627
  176MOL0     H23750   8.298  11.491   2.760 -3.6802 -0.2272  0.7236
  176MOL0     H23751   8.279  11.364   2.869  0.7957 -0.1490  0.6112
  176MOL0     H23752   8.530  11.429   2.724  0.4032  0.3558  0.6597
  176MOL0     H23753   8.495  11.258   2.761 -0.6262 -0.7981  0.0749
  176MOL0     H23754   8.631  11.330   2.930 -0.4930 -1.6519  1.1285
  176MOL0     H23755   8.475  11.299   3.007  0.0487 -0.0898 -0.3031
  176MOL0     H23756   8.573  11.509   3.091 -2.2833 -2.8504  1.3348
  176MOL0     H23757   8.422  11.544   3.015 -0.2642 -0.9280  4.9716
  176MOL0     H23758   8.710  11.763   2.788  1.7526 -1.5198 -0.9235
  176MOL0     H23759   8.086  11.452   2.851  0.0055  4.3349 -2.7683
  176MOL0     H23760   7.859  11.462   2.833 -1.8221 -0.2775 -0.5995
  177MOL0     O23761  10.090   3.162   4.423 -0.4328  0.0914  0.9103
  177MOL0     C23762  10.087   3.266   4.368  0.5868 -0.3323 -0.5717
  177MOL0     O23763  10.016   3.299   4.254  0.3645  0.2414  0.1745
  177MOL0     C23764   9.947   3.206   4.176 -0.0947 -0.0122 -0.3854
  177MOL0     C23765   9.918   3.268   4.046  0.0365 -0.5749 -0.9068
  177MOL0     C23766   9.859   3.192   3.942 -0.0557 -0.4885  0.0281
  177MOL0     C23767   9.843   3.059   3.950  0.1853  0.5344  0.3125
  177MOL0     O23768   9.797   2.981   3.847 -0.4748  0.0460  0.4315
  177MOL0     C23769   9.671   3.028   3.794 -0.1518 -0.9384  0.0241
  177MOL0     C23770   9.599   2.916   3.722  0.0115 -0.1896  0.4306
  177MOL0     C23771   9.457   2.947   3.678 -0.2093  1.1764  0.0663
  177MOL0     C23772   9.350   2.872   3.769  0.1949 -0.1075  0.4383
  177MOL0     C23773   9.228   2.850   3.682 -0.2384  0.2490 -0.4565
  177MOL0     C23774   9.122   2.776   3.765 -0.8190 -0.3595  0.0276
  177MOL0     C23775   8.998   2.768   3.691 -0.0689 -0.3877  0.0939
  177MOL0     C23776   8.895   2.721   3.792 -0.4266  0.0563  0.9563
  177MOL0     N23777   8.767   2.715   3.727  0.1429  0.0999  0.2835
  177MOL0     C23778   8.737   2.690   3.596 -0.2700  0.4206  0.3304
  177MOL0     C23779   8.603   2.686   3.598  0.4134  0.7620  0.0939
  177MOL0     C23780   8.528   2.653   3.468 -0.1749  0.8689  0.6502
  177MOL0     C23781   8.397   2.571   3.498 -0.0696  0.2436  0.6412
  177MOL0     C23782   8.317   2.547   3.378 -0.1843 -1.3870  0.3974
  177MOL0     C23783   8.209   2.456   3.402  0.1182 -0.0471  0.4847
  177MOL0     O23784   8.107   2.523   3.482  1.2771 -0.6068  0.1178
  177MOL0     C23785   7.989   2.547   3.408  0.2781 -0.2768  0.4484
  177MOL0     C23786   7.892   2.438   3.400  0.4751  0.1479  0.0535
  177MOL0     C23787   7.771   2.447   3.332  0.4469 -0.1830  0.6927
  177MOL0     C23788   7.694   2.319   3.324 -0.6152  0.8345  0.1619
  177MOL0     C23789   7.742   2.567   3.261  0.5664  0.6034 -0.3388
  177MOL0     C23790   7.613   2.588   3.189  0.1146 -0.1055  0.1524
  177MOL0     O23791   7.618   2.691   3.098 -0.1601  0.2851  0.0223
  177MOL0     C23792   7.511   2.727   3.016  0.5343 -0.1411 -0.5085
  177MOL0     C23793   7.462   2.857   3.027 -0.1395  0.4327 -0.1154
  177MOL0     C23794   7.348   2.896   2.953  0.2412 -0.4940 -0.4633
  177MOL0     C23795   7.277   2.803   2.868 -0.1145 -0.7920 -0.3391
  177MOL0     O23796   7.168   2.851   2.809  0.4659  0.4474 -0.4535
  177MOL0     C23797   7.058   2.759   2.824 -0.0452 -0.0890  0.1495
  177MOL0     C23798   6.924   2.839   2.843  0.0762  0.6696  0.0473
  177MOL0     C23799   6.806   2.752   2.835 -0.2647  0.5446  0.2313
  177MOL0     C23800   6.680   2.821   2.882 -0.1033 -0.0617  0.3311
  177MOL0     C23801   6.627   2.936   2.795 -0.3023  0.2329 -0.2609
  177MOL0     C23802   6.475   2.980   2.830  0.0264  0.3527  0.1677
  177MOL0     C23803   6.439   3.113   2.763  0.6490 -0.0382  0.9259
  177MOL0     C23804   6.461   3.111   2.612 -0.4968  0.3998 -0.1718
  177MOL0    Cl23805   6.372   2.981   2.537  0.2396  0.6479 -0.1176
  177MOL0     C23806   7.328   2.674   2.868  0.0107 -0.2628 -0.0172
  177MOL0     C23807   7.437   2.640   2.943  0.1129  1.1080 -0.1918
  177MOL0     O23808   7.519   2.507   3.211  0.0806  0.2746 -0.6847
  177MOL0     C23809   7.844   2.663   3.258  0.9408  0.6179  0.3775
  177MOL0     C23810   7.968   2.658   3.329 -0.7808  0.6251  0.0607
  177MOL0     N23811   8.554   2.718   3.721 -0.2145  0.6393 -0.2170
  177MOL0     N23812   8.653   2.738   3.801 -0.0192 -0.9742  0.7179
  177MOL0     C23813   9.873   3.003   4.075 -0.4842 -0.8504 -0.2327
  177MOL0     C23814   9.916   3.071   4.192 -0.4672  0.2509  0.0521
  177MOL0     C23815  10.155   3.373   4.448  0.6022 -0.2760 -0.1541
  177MOL0     C23816  10.173   3.367   4.593  1.1168  0.0871 -1.1096
  177MOL0     C23817  10.220   3.476   4.659  1.3664  0.0021  0.6114
  177MOL0     C23818  10.270   3.592   4.599 -0.9033  0.4478 -0.4293
  177MOL0     O23819  10.317   3.698   4.680  0.1186  0.0114  0.2909
  177MOL0     C23820  10.461   3.703   4.667  0.1406 -1.0020 -0.1636
  177MOL0     C23821  10.518   3.819   4.746  0.2836  0.2985  0.7473
  177MOL0     C23822  10.509   3.781   4.899  0.1710  0.1243  0.5506
  177MOL0     C23823  10.554   3.880   5.003  0.1247 -0.1711 -0.4087
  177MOL0     C23824  10.698   3.866   5.010 -0.1781 -1.1287  0.4038
  177MOL0     C23825  10.813   3.836   5.019 -0.6510 -0.6735 -0.4307
  177MOL0     C23826  10.273   3.593   4.458 -0.1486 -0.3509  0.0469
  177MOL0     C23827  10.215   3.489   4.379  0.2629  0.4232 -0.4995
  177MOL0     H23828   9.950   3.371   4.032  0.3859 -0.4171  0.7898
  177MOL0     H23829   9.852   3.234   3.842  0.9793 -0.6354 -0.1081
  177MOL0     H23830   9.603   3.067   3.871  1.2582  0.4659  0.6017
  177MOL0     H23831   9.685   3.113   3.726 -1.9386 -0.8654 -0.3039
  177MOL0     H23832   9.652   2.890   3.631 -1.5475 -0.3036 -0.4892
  177MOL0     H23833   9.593   2.829   3.788 -0.7006  0.4789  1.2911
  177MOL0     H23834   9.428   3.051   3.690 -1.6962  1.2526 -3.1043
  177MOL0     H23835   9.443   2.921   3.573 -1.2253 -1.7305  0.8240
  177MOL0     H23836   9.392   2.780   3.811  1.1489  1.1965  2.5095
  177MOL0     H23837   9.319   2.938   3.850 -0.7503  1.4477 -1.1125
  177MOL0     H23838   9.175   2.940   3.652  0.0274  0.9465  1.0863
  177MOL0     H23839   9.276   2.791   3.603  2.2337  0.4419  0.7981
  177MOL0     H23840   9.156   2.676   3.794 -2.1260 -0.3733  1.6055
  177MOL0     H23841   9.104   2.825   3.860 -1.6409 -4.8557  2.4999
  177MOL0     H23842   8.959   2.860   3.647 -1.2502 -2.1074 -2.7764
  177MOL0     H23843   9.006   2.687   3.618  2.4051  1.5149 -1.8956
  177MOL0     H23844   8.898   2.785   3.880  0.2667 -0.0606  1.0233
  177MOL0     H23845   8.928   2.620   3.821  0.8668  0.8374  2.3314
  177MOL0     H23846   8.796   2.681   3.505 -1.3726  1.5257 -0.5444
  177MOL0     H23847   8.511   2.749   3.418  1.0831  2.4306  3.0408
  177MOL0     H23848   8.595   2.586   3.412 -1.6813 -1.1983  1.2047
  177MOL0     H23849   8.336   2.625   3.571  2.1481  1.6261  1.5741
  177MOL0     H23850   8.433   2.483   3.551 -0.5187  0.1122  0.7341
  177MOL0     H23851   8.382   2.499   3.304  0.8758  1.3284 -0.5432
  177MOL0     H23852   8.279   2.643   3.342  0.9256 -0.5026  1.4941
  177MOL0     H23853   8.232   2.362   3.453 -0.7734 -1.1854 -1.1247
  177MOL0     H23854   8.174   2.434   3.301  1.0852 -0.8533  0.3081
  177MOL0     H23855   7.909   2.345   3.454 -0.1738 -0.6598 -1.1142
  177MOL0     H23856   7.651   2.295   3.226 -0.5690 -0.2364  0.3887
  177MOL0     H23857   7.761   2.236   3.348  0.7877  2.1630  1.0089
  177MOL0     H23858   7.616   2.321   3.400 -0.3767 -0.0371  0.4477
  177MOL0     H23859   7.522   2.922   3.089  2.4510 -1.6201 -0.2534
  177MOL0     H23860   7.304   2.995   2.963 -4.7908 -2.2677 -1.9514
  177MOL0     H23861   7.050   2.690   2.739 -0.4104  1.7989 -1.4203
  177MOL0     H23862   7.067   2.702   2.917  1.0377  1.1428  0.8308
  177MOL0     H23863   6.931   2.895   2.936  4.5665  0.2625  0.1477
  177MOL0     H23864   6.914   2.919   2.768 -2.7252  1.1721  0.8167
  177MOL0     H23865   6.820   2.676   2.913  1.6314  2.1864  1.5783
  177MOL0     H23866   6.790   2.715   2.734 -1.3580  1.8655 -0.1148
  177MOL0     H23867   6.607   2.742   2.902 -0.4238 -0.8725 -3.3191
  177MOL0     H23868   6.696   2.864   2.982  0.5696  0.1182  0.1517
  177MOL0     H23869   6.628   2.914   2.688  1.4385 -2.3141  0.1677
  177MOL0     H23870   6.694   3.022   2.806  0.0220  0.1115 -1.1814
  177MOL0     H23871   6.415   2.896   2.793  0.8553  0.7245 -2.2073
  177MOL0     H23872   6.465   2.986   2.939 -1.9684 -0.5760  0.0774
  177MOL0     H23873   6.503   3.191   2.806 -0.5593  0.8039  1.2462
  177MOL0     H23874   6.336   3.142   2.783  0.5760 -0.9056  1.8478
  177MOL0     H23875   6.568   3.100   2.592  0.1473  0.3738  2.8671
  177MOL0     H23876   6.422   3.200   2.561 -2.4250  0.2268  0.8774
  177MOL0     H23877   7.288   2.596   2.804  0.0503 -2.1228  2.0873
  177MOL0     H23878   7.463   2.535   2.930 -0.6168  0.9732 -0.6665
  177MOL0     H23879   7.822   2.751   3.198  0.7096 -0.8542 -1.8068
  177MOL0     H23880   8.042   2.737   3.337 -1.7763  1.5686  0.2538
  177MOL0     H23881   9.863   2.895   4.083  0.1380 -1.0082 -1.3671
  177MOL0     H23882   9.940   3.019   4.284  1.2946  2.4816  0.9513
  177MOL0     H23883  10.138   3.282   4.649  1.9787 -0.2636 -1.0935
  177MOL0     H23884  10.215   3.478   4.767  0.1896 -1.1509  0.6012
  177MOL0     H23885  10.509   3.609   4.696  1.2713 -0.7340 -1.0614
  177MOL0     H23886  10.488   3.716   4.561  0.2505 -0.0986 -0.0361
  177MOL0     H23887  10.476   3.916   4.719 -1.1241 -0.8148 -1.3540
  177MOL0     H23888  10.624   3.824   4.718 -0.2994  0.8911 -1.5476
  177MOL0     H23889  10.553   3.683   4.916 -0.5298 -0.0170  1.6632
  177MOL0     H23890  10.402   3.769   4.922 -0.2910  0.3021 -1.3259
  177MOL0     H23891  10.521   3.859   5.106 -0.2056 -1.2818 -0.7329
  177MOL0     H23892  10.526   3.982   4.974  0.7057  1.1984  3.2721
  177MOL0     H23893  10.910   3.794   5.038 -0.3007  0.3562  0.1312
  177MOL0     H23894  10.312   3.683   4.412 -1.2523 -1.0114 -2.3533
  177MOL0     H23895  10.205   3.479   4.271 -0.1975 -2.5946 -0.2635
  178MOL0     O23896   4.979   6.767   1.539 -0.2239  0.6089  0.4825
  178MOL0     C23897   5.024   6.797   1.431 -0.1383  0.2714  0.1661
  178MOL0     O23898   5.003   6.727   1.311 -0.4137  0.2704  0.0329
  178MOL0     C23899   4.917   6.630   1.283  0.2231 -0.1969 -0.3521
  178MOL0     C23900   4.804   6.592   1.361  1.0224  0.1277 -0.3849
  178MOL0     C23901   4.723   6.475   1.327 -0.5069 -0.1661 -0.4832
  178MOL0     C23902   4.756   6.400   1.220  0.6799  0.8792  0.7791
  178MOL0     O23903   4.688   6.279   1.187  0.9958  0.0123  0.8397
  178MOL0     C23904   4.586   6.236   1.273 -0.2403  0.2449 -0.5327
  178MOL0     C23905   4.538   6.094   1.231  0.2500 -0.7946  0.1102
  178MOL0     C23906   4.435   6.100   1.129  0.0892 -0.0886  0.8713
  178MOL0     C23907   4.403   5.958   1.065  0.0470  0.1812  0.5710
  178MOL0     C23908   4.291   5.955   0.962 -1.0446 -0.7989 -0.3402
  178MOL0     C23909   4.234   5.815   0.928  0.7540 -0.8089  0.2403
  178MOL0     C23910   4.152   5.757   1.048  0.2120 -0.3062  0.2847
  178MOL0     C23911   4.104   5.608   1.034 -0.0090  0.2782  0.7323
  178MOL0     N23912   4.003   5.580   0.919  0.7377 -0.4251 -0.3299
  178MOL0     C23913   3.877   5.632   0.897  0.4267  0.6720 -0.3762
  178MOL0     C23914   3.832   5.578   0.779 -0.0992  0.0480  0.2292
  178MOL0     C23915   3.704   5.601   0.713 -0.5214 -0.0264 -0.3917
  178MOL0     C23916   3.631   5.464   0.735  0.5307 -0.9434 -0.0115
  178MOL0     C23917   3.486   5.480   0.674 -0.6118  0.0952 -0.3203
  178MOL0     C23918   3.468   5.503   0.521  0.5469  0.4685  0.5110
  178MOL0     O23919   3.352   5.587   0.497 -0.1357 -0.3075  0.0931
  178MOL0     C23920   3.225   5.549   0.528  0.9058  0.0584  0.4508
  178MOL0     C23921   3.128   5.648   0.524 -0.6159 -0.2797  0.1663
  178MOL0     C23922   3.001   5.631   0.541  0.1088 -0.5613 -0.3239
  178MOL0     C23923   2.907   5.748   0.559  0.5846  1.1770 -0.5703
  178MOL0     C23924   2.950   5.504   0.582 -0.5087 -0.2452 -0.0726
  178MOL0     C23925   2.807   5.475   0.614 -0.3643 -0.0693  0.0180
  178MOL0     O23926   2.790   5.377   0.711 -0.2663  0.2100 -0.5494
  178MOL0     C23927   2.663   5.344   0.734  0.3015 -0.7130  0.7582
  178MOL0     C23928   2.581   5.284   0.636 -0.0699  0.0091 -0.4927
  178MOL0     C23929   2.455   5.235   0.674  0.1883 -0.4912  0.1035
  178MOL0     C23930   2.411   5.246   0.803 -0.5468 -0.1981 -0.2058
  178MOL0     O23931   2.308   5.178   0.855 -0.3875 -0.1637  0.4974
  178MOL0     C23932   2.192   5.142   0.783 -0.0458  0.3243  0.2699
  178MOL0     C23933   2.137   5.028   0.864  0.5459 -0.1856  0.8449
  178MOL0     C23934   2.084   5.077   1.000  0.2636  0.5667 -0.4661
  178MOL0     C23935   1.973   5.176   0.988 -0.5370  0.1404  0.0301
  178MOL0     C23936   1.876   5.161   1.103  0.0394  0.1115  0.4833
  178MOL0     C23937   1.947   5.176   1.239  0.4601  0.0207 -0.0231
  178MOL0     C23938   1.829   5.202   1.334  0.0085  0.3188 -0.2176
  178MOL0     C23939   1.883   5.264   1.462 -0.2215  0.2447 -0.6953
  178MOL0    Cl23940   1.987   5.411   1.445  0.2210  0.5944  0.2813
  178MOL0     C23941   2.490   5.301   0.902  0.0218 -0.5027  0.5519
  178MOL0     C23942   2.618   5.359   0.869  0.0928  0.9993  0.4886
  178MOL0     O23943   2.715   5.537   0.563 -0.1856  0.0282 -0.0127
  178MOL0     C23944   3.043   5.397   0.593  0.9949 -0.5778 -0.3491
  178MOL0     C23945   3.181   5.417   0.556  0.0641 -0.0140  0.2079
  178MOL0     N23946   3.944   5.504   0.732 -0.1825  0.1615  0.9066
  178MOL0     N23947   4.045   5.508   0.813 -0.9934  0.6321 -0.5031
  178MOL0     C23948   4.858   6.437   1.134 -0.1615  0.3062  0.4064
  178MOL0     C23949   4.939   6.548   1.167 -0.3865  1.0636  0.0828
  178MOL0     C23950   5.104   6.926   1.427  0.2018 -0.1810 -0.6583
  178MOL0     C23951   5.148   6.977   1.305  0.0171 -0.9112 -0.7848
  178MOL0     C23952   5.193   7.112   1.299  0.4558  0.2115  0.1053
  178MOL0     C23953   5.189   7.200   1.400 -0.0298  0.1344 -0.7779
  178MOL0     O23954   5.221   7.331   1.393  0.5033  0.3540 -0.7937
  178MOL0     C23955   5.343   7.362   1.464  0.0887 -0.2803  0.2275
  178MOL0     C23956   5.376   7.514   1.459  0.6519  0.4509 -0.4634
  178MOL0     C23957   5.493   7.558   1.548 -0.0938  0.2735  0.0874
  178MOL0     C23958   5.452   7.543   1.697 -0.1268  0.5237 -0.0929
  178MOL0     C23959   5.551   7.462   1.765  0.2793  0.2689 -0.3973
  178MOL0     C23960   5.634   7.397   1.819 -0.5596  0.2203 -1.1003
  178MOL0     C23961   5.146   7.148   1.524 -0.4612 -0.0946  0.1720
  178MOL0     C23962   5.109   7.014   1.542 -0.4878 -0.1001 -0.4844
  178MOL0     H23963   4.773   6.643   1.452 -2.9006 -1.7702 -0.4409
  178MOL0     H23964   4.642   6.452   1.395  1.4299 -1.5176  1.5166
  178MOL0     H23965   4.628   6.232   1.375 -0.3941 -3.6362 -0.4434
  178MOL0     H23966   4.506   6.310   1.263 -1.7945 -1.5987 -2.9050
  178MOL0     H23967   4.622   6.034   1.195  0.4196 -0.9282  0.7114
  178MOL0     H23968   4.496   6.054   1.324  1.1551  2.4885  2.0830
  178MOL0     H23969   4.344   6.152   1.159  0.7106  1.2724  0.4898
  178MOL0     H23970   4.478   6.157   1.045 -2.3282  3.5914  1.8895
  178MOL0     H23971   4.498   5.920   1.026 -1.3663 -4.4019  1.0527
  178MOL0     H23972   4.365   5.900   1.149  1.7408 -0.2727  1.0797
  178MOL0     H23973   4.215   6.021   1.005 -0.1195 -1.4420  2.5123
  178MOL0     H23974   4.334   5.993   0.868  1.3047 -2.0090  0.1669
  178MOL0     H23975   4.166   5.832   0.845  0.6868  3.7958  1.0147
  178MOL0     H23976   4.324   5.756   0.906  0.6354 -1.5495  1.6202
  178MOL0     H23977   4.229   5.755   1.126  4.5244  0.7062 -3.5557
  178MOL0     H23978   4.067   5.819   1.078  1.0389 -0.9660  4.6897
  178MOL0     H23979   4.058   5.580   1.129  1.5622  2.0960  2.1070
  178MOL0     H23980   4.191   5.543   1.017  1.1492  1.9632 -0.1687
  178MOL0     H23981   3.833   5.708   0.960 -0.0909 -0.5484  0.7702
  178MOL0     H23982   3.656   5.674   0.779 -0.3652 -0.6853  0.4667
  178MOL0     H23983   3.709   5.638   0.610  2.5250  1.9300  0.3384
  178MOL0     H23984   3.610   5.432   0.838 -3.0418 -2.9517 -1.1885
  178MOL0     H23985   3.677   5.376   0.690 -0.3873 -0.8191 -1.2100
  178MOL0     H23986   3.439   5.565   0.723  0.5295  1.0938 -0.9008
  178MOL0     H23987   3.427   5.391   0.696 -0.2363  0.1673  1.0332
  178MOL0     H23988   3.440   5.409   0.472 -1.3981  1.7399 -0.9437
  178MOL0     H23989   3.559   5.538   0.473 -1.1596  2.1962 -1.6773
  178MOL0     H23990   3.167   5.750   0.529  1.2607 -1.0075  2.1541
  178MOL0     H23991   2.967   5.833   0.524  1.2500  1.9448  2.2127
  178MOL0     H23992   2.808   5.745   0.513 -1.2711  0.3042  3.1228
  178MOL0     H23993   2.875   5.763   0.662  0.1950  0.8236 -0.6372
  178MOL0     H23994   2.613   5.269   0.533  1.4113 -0.4168  0.0153
  178MOL0     H23995   2.409   5.163   0.607 -0.6431 -1.6141  1.7859
  178MOL0     H23996   2.130   5.228   0.759 -1.8238 -1.6895 -3.0742
  178MOL0     H23997   2.207   5.102   0.682  0.7712  2.1435 -0.3818
  178MOL0     H23998   2.057   4.992   0.798  2.2084  0.8334 -1.8900
  178MOL0     H23999   2.200   4.939   0.869  1.1059  0.0272 -1.1699
  178MOL0     H24000   2.162   5.108   1.069 -0.9070 -0.0352  1.2037
  178MOL0     H24001   2.039   4.986   1.040 -1.0302  1.3647 -0.0318
  178MOL0     H24002   2.012   5.278   0.992 -0.8683  0.2307  1.1350
  178MOL0     H24003   1.918   5.176   0.893  0.0552  1.3502 -0.3281
  178MOL0     H24004   1.823   5.067   1.089  1.8031 -0.6847 -1.3154
  178MOL0     H24005   1.805   5.244   1.090  0.5148  0.2502 -1.5147
  178MOL0     H24006   2.006   5.086   1.261  1.0922  0.2789 -0.6095
  178MOL0     H24007   2.004   5.269   1.225 -2.1126  1.5577 -0.8562
  178MOL0     H24008   1.784   5.105   1.359 -1.4653 -0.0081 -3.5391
  178MOL0     H24009   1.757   5.273   1.292 -0.0133  0.8096  0.6350
  178MOL0     H24010   1.937   5.184   1.514 -0.0480  0.9815  0.2640
  178MOL0     H24011   1.803   5.297   1.528 -0.3212 -0.9597 -0.1900
  178MOL0     H24012   2.452   5.298   1.003  0.4706 -1.2259  0.7009
  178MOL0     H24013   2.683   5.384   0.953  0.5422  0.8120  0.2005
  178MOL0     H24014   3.011   5.294   0.608  1.1730 -0.3314  2.2410
  178MOL0     H24015   3.244   5.329   0.560 -2.5602 -2.0294  0.1135
  178MOL0     H24016   4.883   6.383   1.043  3.3513 -0.3952  1.6521
  178MOL0     H24017   5.032   6.573   1.117  0.9681  1.2509  2.5839
  178MOL0     H24018   5.163   6.910   1.220  0.9683 -1.9397  0.1673
  178MOL0     H24019   5.231   7.146   1.203  2.2471  2.5170  1.5131
  178MOL0     H24020   5.342   7.323   1.566  1.3762  3.1883  1.7092
  178MOL0     H24021   5.425   7.311   1.412  0.4200 -0.5933  1.0501
  178MOL0     H24022   5.288   7.570   1.490  0.1754  0.9992 -2.6161
  178MOL0     H24023   5.401   7.542   1.356  0.2276  0.9162 -0.4405
  178MOL0     H24024   5.505   7.666   1.533 -1.5882  0.5269  0.6215
  178MOL0     H24025   5.586   7.506   1.520  2.7079  3.6870  2.1296
  178MOL0     H24026   5.357   7.491   1.709  0.0836  0.0998 -0.2568
  178MOL0     H24027   5.453   7.638   1.752  0.2276  0.8573 -0.6645
  178MOL0     H24028   5.704   7.323   1.855 -0.1893  0.1051 -2.0441
  178MOL0     H24029   5.145   7.199   1.620  1.2776 -0.9452  0.6890
  178MOL0     H24030   5.081   6.980   1.642 -0.5615 -0.3127 -0.5759
  179MOL0     O24031   8.640   8.024   4.053 -0.3368 -0.1335  0.5893
  179MOL0     C24032   8.636   7.905   4.076  0.0421  0.2300 -0.6312
  179MOL0     O24033   8.554   7.815   4.018 -0.6520  0.1776 -0.4136
  179MOL0     C24034   8.441   7.867   3.961 -0.3290  0.0512 -0.3914
  179MOL0     C24035   8.324   7.840   4.027 -0.2503 -0.0731 -0.1980
  179MOL0     C24036   8.201   7.872   3.977 -0.2851 -0.8580 -0.1532
  179MOL0     C24037   8.192   7.937   3.859  0.3119 -0.1965  0.8072
  179MOL0     O24038   8.060   7.975   3.831  0.0391 -0.0320  0.0487
  179MOL0     C24039   8.030   8.043   3.713 -0.1422 -0.0396  0.4348
  179MOL0     C24040   7.883   8.054   3.717 -0.2623 -0.1995  0.2599
  179MOL0     C24041   7.830   8.150   3.835  0.1274 -0.1651  0.1173
  179MOL0     C24042   7.692   8.198   3.804  0.7542 -0.2114  0.3402
  179MOL0     C24043   7.648   8.312   3.897  0.0025  0.0266  0.3588
  179MOL0     C24044   7.495   8.340   3.883 -0.7966  1.2963 -0.5740
  179MOL0     C24045   7.443   8.447   3.985  0.1984  0.0529 -1.1284
  179MOL0     C24046   7.292   8.451   3.972  0.5304 -0.2619 -0.3509
  179MOL0     N24047   7.236   8.555   4.063  0.3107  0.1387 -1.1329
  179MOL0     C24048   7.198   8.542   4.197  0.3056  0.3889 -0.3516
  179MOL0     C24049   7.133   8.654   4.228 -0.0516 -0.1048 -0.2473
  179MOL0     C24050   7.095   8.693   4.367  0.1185  0.3356 -0.6855
  179MOL0     C24051   6.957   8.632   4.395 -0.0930  0.3240  0.5277
  179MOL0     C24052   6.891   8.707   4.505  0.5719 -0.2024 -0.6798
  179MOL0     C24053   6.741   8.667   4.529 -0.2323 -0.6524 -0.0578
  179MOL0     O24054   6.656   8.739   4.436  0.1377 -0.7064  0.1994
  179MOL0     C24055   6.585   8.843   4.485 -0.0577  0.7622  0.6838
  179MOL0     C24056   6.611   8.901   4.608 -0.3779 -1.5110  0.1631
  179MOL0     C24057   6.527   8.997   4.662 -0.6407  0.2492 -0.1082
  179MOL0     C24058   6.559   9.064   4.792 -0.1588 -0.3371  0.7479
  179MOL0     C24059   6.418   9.044   4.583  1.1122  0.0671 -0.3984
  179MOL0     C24060   6.315   9.141   4.630 -0.8392 -0.4691 -0.0334
  179MOL0     O24061   6.190   9.118   4.581  0.6786 -0.6142  0.0075
  179MOL0     C24062   6.096   9.215   4.597 -0.5464 -0.6540  0.6425
  179MOL0     C24063   6.016   9.222   4.712 -0.8562  0.2876 -0.0407
  179MOL0     C24064   5.927   9.323   4.738  0.4423  0.0691 -0.1789
  179MOL0     C24065   5.916   9.437   4.644 -0.4155 -0.1376 -0.7439
  179MOL0     O24066   5.815   9.525   4.658  0.2183 -0.1961  0.1129
  179MOL0     C24067   5.680   9.488   4.698  0.0308  0.1942 -0.4350
  179MOL0     C24068   5.580   9.599   4.680 -0.8854  0.9342  0.3165
  179MOL0     C24069   5.453   9.582   4.762 -0.4078  0.6199  0.0525
  179MOL0     C24070   5.332   9.564   4.658  0.1951 -0.0326  0.1140
  179MOL0     C24071   5.203   9.618   4.724  0.9480  0.2374  0.4108
  179MOL0     C24072   5.092   9.642   4.621 -0.4730 -0.0080 -0.1893
  179MOL0     C24073   4.962   9.683   4.684  0.7907  0.1810  0.6814
  179MOL0     C24074   4.869   9.755   4.586  0.4624  0.3597 -0.8056
  179MOL0    Cl24075   4.825   9.642   4.457  0.0940  0.0186  0.3835
  179MOL0     C24076   6.009   9.440   4.541  0.5138  0.7791  0.3919
  179MOL0     C24077   6.093   9.329   4.514 -0.3557  0.7422  0.1444
  179MOL0     O24078   6.342   9.239   4.699 -0.2473  0.0893 -0.4249
  179MOL0     C24079   6.401   8.990   4.454  1.0815  0.9478 -0.1963
  179MOL0     C24080   6.481   8.895   4.412 -0.2759  0.0083  0.5429
  179MOL0     N24081   7.144   8.741   4.117 -0.3148  0.9013 -0.0898
  179MOL0     N24082   7.199   8.673   4.015  0.1095  0.1274  0.9689
  179MOL0     C24083   8.311   7.965   3.779  0.1838  0.2716  0.2695
  179MOL0     C24084   8.433   7.929   3.833 -0.3433 -0.2595 -0.1964
  179MOL0     C24085   8.746   7.855   4.159  0.7092  1.1744 -0.2451
  179MOL0     C24086   8.836   7.941   4.216 -0.2113 -0.3449 -0.3341
  179MOL0     C24087   8.935   7.891   4.312 -0.3090  0.4068  0.1978
  179MOL0     C24088   8.939   7.748   4.346  0.1595 -0.2429  0.3908
  179MOL0     O24089   9.017   7.698   4.451 -0.6071  0.4092  0.3707
  179MOL0     C24090   9.129   7.772   4.497  0.6285  0.3371  0.2049
  179MOL0     C24091   9.227   7.686   4.586  0.4585 -1.0113  0.0039
  179MOL0     C24092   9.154   7.616   4.702  0.1732  0.0678 -0.9776
  179MOL0     C24093   9.067   7.702   4.798 -0.5079 -0.3821 -0.4484
  179MOL0     C24094   9.006   7.616   4.903  0.2816  0.0607  0.0204
  179MOL0     C24095   8.970   7.544   4.997  0.5808 -0.6157  0.4285
  179MOL0     C24096   8.853   7.668   4.272 -1.0675  0.5495  0.2656
  179MOL0     C24097   8.764   7.712   4.172 -1.1630  0.2463 -0.8718
  179MOL0     H24098   8.324   7.799   4.127 -2.4523 -0.3364 -0.2656
  179MOL0     H24099   8.113   7.859   4.039 -0.7953  2.0045 -0.1479
  179MOL0     H24100   8.075   8.142   3.716  0.8483 -0.4996  0.9009
  179MOL0     H24101   8.072   7.985   3.630  1.0956 -0.9225  1.6436
  179MOL0     H24102   7.849   8.092   3.620 -1.0961 -1.9689 -0.1960
  179MOL0     H24103   7.834   7.956   3.718  0.1232 -0.4557 -1.6217
  179MOL0     H24104   7.829   8.097   3.931 -1.3094 -0.4502 -0.0395
  179MOL0     H24105   7.892   8.239   3.846  0.1662 -0.1338 -0.3293
  179MOL0     H24106   7.667   8.239   3.705  0.9939  2.1717  1.2089
  179MOL0     H24107   7.630   8.109   3.816 -0.6742  0.8929  1.5028
  179MOL0     H24108   7.675   8.277   3.997  0.2011  0.4554  0.4576
  179MOL0     H24109   7.695   8.408   3.872  0.4044 -0.5534 -1.1923
  179MOL0     H24110   7.475   8.379   3.782 -0.5798  3.4767  0.1636
  179MOL0     H24111   7.437   8.249   3.901  4.7184 -2.3520  1.0029
  179MOL0     H24112   7.474   8.416   4.085  1.3753 -1.8768 -2.0454
  179MOL0     H24113   7.478   8.545   3.950 -2.5459  1.2041 -0.9460
  179MOL0     H24114   7.256   8.350   3.997  2.7694 -0.2050  4.1920
  179MOL0     H24115   7.267   8.490   3.873 -1.5650  1.2195  0.6870
  179MOL0     H24116   7.223   8.467   4.270  0.8776  0.5469 -0.3800
  179MOL0     H24117   7.165   8.655   4.441 -0.5094 -2.5722 -1.4565
  179MOL0     H24118   7.093   8.802   4.376 -0.5485  0.6794 -3.8560
  179MOL0     H24119   6.978   8.527   4.417  2.4237  1.0815  2.2049
  179MOL0     H24120   6.893   8.644   4.307  0.9719 -1.3487 -0.5164
  179MOL0     H24121   6.908   8.813   4.486  1.5549 -0.2872 -0.3423
  179MOL0     H24122   6.938   8.678   4.599  0.5813 -3.6059 -1.5884
  179MOL0     H24123   6.701   8.676   4.631 -1.2134 -0.0294 -0.4718
  179MOL0     H24124   6.730   8.559   4.517 -0.1149 -0.8622  1.4780
  179MOL0     H24125   6.707   8.891   4.658 -0.7429  1.1311  1.6109
  179MOL0     H24126   6.499   9.023   4.874  1.5537 -1.9207  1.2741
  179MOL0     H24127   6.657   9.025   4.821 -0.3506 -1.6129 -0.2246
  179MOL0     H24128   6.571   9.172   4.806  1.2075 -0.4452  0.5436
  179MOL0     H24129   6.033   9.145   4.787 -0.8035  1.3012  1.0244
  179MOL0     H24130   5.868   9.312   4.828 -0.0497 -0.9910 -0.6139
  179MOL0     H24131   5.647   9.404   4.636  2.0415 -2.2641  1.6390
  179MOL0     H24132   5.680   9.468   4.805  2.9724  1.9799  0.0072
  179MOL0     H24133   5.637   9.688   4.709 -3.1468  1.5193  3.4490
  179MOL0     H24134   5.561   9.609   4.573 -0.5663 -0.6567  0.0786
  179MOL0     H24135   5.432   9.683   4.799 -5.6885  1.1606 -3.2840
  179MOL0     H24136   5.456   9.508   4.842  0.0401 -1.7390 -2.0018
  179MOL0     H24137   5.360   9.630   4.576  0.6768 -0.3147  0.0449
  179MOL0     H24138   5.335   9.458   4.630 -1.5626 -0.9519  2.8869
  179MOL0     H24139   5.229   9.712   4.772  0.7911  1.3840 -1.6443
  179MOL0     H24140   5.165   9.559   4.808  1.7176  3.4966  3.2733
  179MOL0     H24141   5.118   9.729   4.561  0.6078 -0.4069 -0.3273
  179MOL0     H24142   5.076   9.550   4.564 -3.4409 -0.3220  1.0048
  179MOL0     H24143   4.979   9.744   4.773 -0.4463 -1.1637  1.9111
  179MOL0     H24144   4.908   9.594   4.720 -0.5878  0.4745 -0.5646
  179MOL0     H24145   4.922   9.842   4.547 -0.4160  1.2726 -0.0325
  179MOL0     H24146   4.779   9.787   4.639  1.4837 -0.5163  1.5786
  179MOL0     H24147   6.016   9.523   4.472  0.9149  0.0518 -0.4658
  179MOL0     H24148   6.139   9.320   4.416  0.3756 -2.2357  0.6717
  179MOL0     H24149   6.329   9.019   4.377  0.9657 -0.5403 -0.6817
  179MOL0     H24150   6.456   8.852   4.315 -2.3589 -1.2864  1.5652
  179MOL0     H24151   8.312   8.003   3.677 -1.1458  2.0521  0.8665
  179MOL0     H24152   8.525   7.950   3.780 -1.6557  1.1312 -2.0638
  179MOL0     H24153   8.830   8.049   4.204 -1.0161 -0.1742  1.2766
  179MOL0     H24154   9.013   7.947   4.361 -0.2203 -0.4793  1.0940
  179MOL0     H24155   9.189   7.814   4.415 -1.4213 -1.4253 -2.3349
  179MOL0     H24156   9.082   7.844   4.565 -1.4307 -1.2201  0.5245
  179MOL0     H24157   9.312   7.744   4.622  0.2812 -0.9218  0.2870
  179MOL0     H24158   9.276   7.610   4.525  0.7768 -1.2134  0.5042
  179MOL0     H24159   9.219   7.556   4.767 -2.0380 -1.1466  0.2306
  179MOL0     H24160   9.087   7.539   4.660 -1.4954  2.5185 -3.1550
  179MOL0     H24161   8.990   7.754   4.740  0.6568  0.5363 -1.2283
  179MOL0     H24162   9.132   7.785   4.828  0.1570 -1.1407  0.2522
  179MOL0     H24163   8.965   7.502   5.096  4.8438  0.0357  1.0820
  179MOL0     H24164   8.871   7.561   4.277 -2.7196  0.1773 -1.0079
  179MOL0     H24165   8.690   7.647   4.125 -0.1928 -0.3552 -1.6266
  180MOL0     O24166   1.269   7.973   4.588 -0.1631 -0.1723 -0.0953
  180MOL0     C24167   1.175   7.986   4.672  0.2596  0.5101 -0.1392
  180MOL0     O24168   1.039   7.993   4.650 -0.3574 -0.5549 -0.3989
  180MOL0     C24169   0.969   7.980   4.529  0.5980  0.2225  0.6153
  180MOL0     C24170   1.025   7.968   4.393 -0.1007  0.5261 -0.7257
  180MOL0     C24171   0.937   7.961   4.285  0.5229  0.8487 -0.7095
  180MOL0     C24172   0.803   7.950   4.309  0.1781 -0.2141 -0.4743
  180MOL0     O24173   0.727   7.921   4.194 -0.5874  0.4393  0.1074
  180MOL0     C24174   0.606   7.848   4.191  0.7092  0.2556  0.5216
  180MOL0     C24175   0.645   7.695   4.194 -0.1978 -0.0271 -0.0847
  180MOL0     C24176   0.731   7.632   4.302  1.1697 -0.8512 -1.1327
  180MOL0     C24177   0.640   7.604   4.426 -0.7865 -0.2684 -0.3019
  180MOL0     C24178   0.736   7.531   4.526 -0.1330 -0.1900 -0.1360
  180MOL0     C24179   0.665   7.509   4.659  0.6947  0.6655  0.3470
  180MOL0     C24180   0.756   7.447   4.772  0.0978 -0.1580  0.4565
  180MOL0     C24181   0.683   7.394   4.901 -0.5039 -0.3102 -1.7187
  180MOL0     N24182   0.774   7.323   4.998  0.7376  0.1165 -0.0190
  180MOL0     C24183   0.836   7.200   4.978  0.4392 -0.2423  1.0926
  180MOL0     C24184   0.927   7.199   5.078  0.1598  0.6263 -0.3948
  180MOL0     C24185   1.033   7.099   5.101 -0.1061 -0.1179 -0.6158
  180MOL0     C24186   1.145   7.087   4.994  0.2844  0.7142  0.0256
  180MOL0     C24187   1.226   6.952   4.993  0.4998 -0.2144 -0.1688
  180MOL0     C24188   1.271   6.904   4.849 -0.1668  0.2611  0.0510
  180MOL0     O24189   1.144   6.867   4.769 -0.6905  0.3149 -0.0970
  180MOL0     C24190   1.148   6.821   4.641  0.4970  0.6892  0.0433
  180MOL0     C24191   1.028   6.789   4.577 -0.4054  0.0894 -0.1076
  180MOL0     C24192   1.034   6.728   4.450 -0.5329  0.1624  0.9460
  180MOL0     C24193   0.899   6.680   4.392 -0.2505  0.2692  0.0117
  180MOL0     C24194   1.150   6.711   4.377 -1.1954 -0.1343  0.0744
  180MOL0     C24195   1.158   6.656   4.242  0.7138  0.6305  0.1823
  180MOL0     O24196   1.275   6.604   4.210 -0.3529  0.1965  0.2980
  180MOL0     C24197   1.301   6.588   4.076 -0.3986  0.4403 -0.1165
  180MOL0     C24198   1.370   6.676   4.003  0.3421 -0.6783  0.3581
  180MOL0     C24199   1.394   6.660   3.865  0.3731  0.0396  0.2214
  180MOL0     C24200   1.375   6.535   3.797 -0.2774 -0.4333 -1.1954
  180MOL0     O24201   1.408   6.508   3.665  0.1874 -0.3649  0.7380
  180MOL0     C24202   1.321   6.415   3.600  0.4153 -0.4838  0.2326
  180MOL0     C24203   1.343   6.424   3.454 -0.7482 -0.1848 -0.4447
  180MOL0     C24204   1.462   6.346   3.424 -0.0608  0.6190 -0.1547
  180MOL0     C24205   1.502   6.343   3.286 -0.0955 -0.3699  0.5496
  180MOL0     C24206   1.617   6.238   3.261 -0.0100 -0.7032 -0.1735
  180MOL0     C24207   1.625   6.239   3.099  1.2284 -0.3456 -0.5875
  180MOL0     C24208   1.749   6.166   3.050 -0.5630 -0.3187 -0.3830
  180MOL0     C24209   1.744   6.136   2.904  0.4899 -0.8334  0.1381
  180MOL0    Cl24210   1.776   6.267   2.796  0.5364  0.2436 -0.1030
  180MOL0     C24211   1.310   6.439   3.879  0.0627 -0.2409 -0.2539
  180MOL0     C24212   1.276   6.460   4.012  0.5366  0.4337 -0.2030
  180MOL0     O24213   1.057   6.658   4.163 -0.2859  0.2423 -0.2219
  180MOL0     C24214   1.267   6.756   4.442  0.1348  0.6029  0.2585
  180MOL0     C24215   1.272   6.801   4.573  0.0176  0.1392 -0.6862
  180MOL0     N24216   0.907   7.305   5.166  0.0470  0.2141 -0.0732
  180MOL0     N24217   0.813   7.375   5.114 -0.4434 -0.6112 -0.0013
  180MOL0     C24218   0.752   7.957   4.442  0.2277  0.5402 -0.2727
  180MOL0     C24219   0.835   7.976   4.547  0.2407 -0.4519 -0.5694
  180MOL0     C24220   1.203   7.978   4.817 -0.7341 -0.0414 -0.8426
  180MOL0     C24221   1.113   7.968   4.922  0.0327 -0.3785  0.4879
  180MOL0     C24222   1.163   7.980   5.054 -0.4261 -0.3880  0.5073
  180MOL0     C24223   1.294   8.000   5.089  0.3370 -0.6296 -0.2791
  180MOL0     O24224   1.330   8.010   5.219 -0.2553 -0.1185 -0.3487
  180MOL0     C24225   1.304   7.896   5.293 -0.2801 -0.1451 -0.1401
  180MOL0     C24226   1.413   7.884   5.402  0.5790  0.2694 -1.4306
  180MOL0     C24227   1.391   8.001   5.504  0.3497  0.0564 -0.1096
  180MOL0     C24228   1.519   8.038   5.585  0.6987 -0.0336 -0.2469
  180MOL0     C24229   1.637   8.074   5.503  0.7780  0.2856  0.0612
  180MOL0     C24230   1.743   8.104   5.448 -0.4237 -0.7160  0.0093
  180MOL0     C24231   1.386   7.998   4.984  0.2650  0.8823  0.2927
  180MOL0     C24232   1.343   7.990   4.849  0.2375  0.1256  0.1362
  180MOL0     H24233   1.132   7.961   4.404 -0.1428  0.9662  0.0155
  180MOL0     H24234   0.965   7.944   4.181 -0.1164 -1.2535 -0.5833
  180MOL0     H24235   0.542   7.878   4.274 -0.4432 -1.7776  0.4345
  180MOL0     H24236   0.548   7.878   4.104 -0.8768  4.5108  2.7713
  180MOL0     H24237   0.548   7.644   4.192  0.0715 -0.5282 -0.6683
  180MOL0     H24238   0.695   7.675   4.098  0.1396  1.9214 -0.3593
  180MOL0     H24239   0.771   7.536   4.271  1.3006 -1.1993  0.0701
  180MOL0     H24240   0.811   7.698   4.336 -0.3536  0.2211  0.5945
  180MOL0     H24241   0.608   7.700   4.467  2.2063  0.2097  1.2288
  180MOL0     H24242   0.553   7.540   4.412 -1.1350 -0.0822  0.9453
  180MOL0     H24243   0.768   7.434   4.489  2.9723 -0.7027  3.2925
  180MOL0     H24244   0.821   7.598   4.540  0.1809 -0.8666  1.3711
  180MOL0     H24245   0.613   7.599   4.695 -0.4105 -0.3938  1.5126
  180MOL0     H24246   0.580   7.443   4.639  1.8892 -0.3656 -1.5209
  180MOL0     H24247   0.819   7.368   4.730 -1.1230 -0.6529 -0.5148
  180MOL0     H24248   0.827   7.521   4.809  1.8337 -1.8190  0.5575
  180MOL0     H24249   0.618   7.315   4.863  0.7398 -2.7583  0.9174
  180MOL0     H24250   0.635   7.474   4.958  1.8326  0.4889 -0.7454
  180MOL0     H24251   0.805   7.130   4.901 -2.1662  1.3004  0.6082
  180MOL0     H24252   1.079   7.111   5.199 -2.0843 -0.3786  0.3914
  180MOL0     H24253   0.980   7.003   5.097 -1.1796  0.4896 -1.4878
  180MOL0     H24254   1.218   7.168   5.001  1.3784 -0.1258 -1.1745
  180MOL0     H24255   1.101   7.094   4.894 -0.1547 -1.5758  0.0080
  180MOL0     H24256   1.165   6.867   5.024 -0.4573  0.4933 -0.0830
  180MOL0     H24257   1.314   6.957   5.058 -0.6247  0.3384  1.3688
  180MOL0     H24258   1.329   6.811   4.861 -1.7953 -1.0535 -1.6163
  180MOL0     H24259   1.331   6.976   4.793 -0.6347 -1.1551 -2.4298
  180MOL0     H24260   0.944   6.786   4.645 -0.0006 -0.1313  0.3916
  180MOL0     H24261   0.862   6.741   4.309 -0.8997 -0.1785 -0.0371
  180MOL0     H24262   0.897   6.578   4.353  0.2744  0.3075 -0.1320
  180MOL0     H24263   0.821   6.682   4.469 -2.2588  1.0221 -1.9538
  180MOL0     H24264   1.401   6.758   4.066 -4.7961  1.0215  1.1967
  180MOL0     H24265   1.425   6.737   3.795  2.7843 -1.6904 -0.7497
  180MOL0     H24266   1.333   6.314   3.639  0.5216 -0.4892  0.1844
  180MOL0     H24267   1.219   6.445   3.628  0.0056 -0.6269 -1.0713
  180MOL0     H24268   1.263   6.385   3.390  0.4272  0.5696 -2.4445
  180MOL0     H24269   1.344   6.529   3.425 -0.4757 -0.2531 -0.6805
  180MOL0     H24270   1.430   6.246   3.456 -2.7705  1.1796 -0.8180
  180MOL0     H24271   1.552   6.376   3.478 -0.5602  0.8719  0.5523
  180MOL0     H24272   1.417   6.332   3.218 -1.4380 -0.0814  2.1264
  180MOL0     H24273   1.532   6.444   3.254 -4.5624  1.3928  1.2697
  180MOL0     H24274   1.586   6.139   3.295 -3.9311  1.0972  2.3343
  180MOL0     H24275   1.713   6.262   3.307 -0.1803 -0.4754  0.0702
  180MOL0     H24276   1.536   6.198   3.051  1.2226 -0.4521 -0.4857
  180MOL0     H24277   1.632   6.343   3.065 -0.6392  0.3399  0.9575
  180MOL0     H24278   1.749   6.072   3.105 -0.2683  0.1806  0.4959
  180MOL0     H24279   1.833   6.236   3.061 -1.9867  1.6922 -1.4727
  180MOL0     H24280   1.642   6.106   2.880 -0.1967 -0.5867  2.5210
  180MOL0     H24281   1.816   6.055   2.887  0.8106 -0.2778 -1.2635
  180MOL0     H24282   1.278   6.343   3.840  0.4470 -1.8091  2.9220
  180MOL0     H24283   1.229   6.374   4.061  3.5743  0.4381  3.1160
  180MOL0     H24284   1.359   6.761   4.385  0.0179  1.2857  0.1107
  180MOL0     H24285   1.363   6.836   4.620 -0.7667 -0.1709  1.1162
  180MOL0     H24286   0.646   7.961   4.462  0.6159 -0.2499  2.2768
  180MOL0     H24287   0.791   7.989   4.646 -0.0497 -0.6529 -0.6712
  180MOL0     H24288   1.006   7.969   4.907  0.1418 -0.6113 -0.4098
  180MOL0     H24289   1.090   7.953   5.129  1.2354 -3.8416  1.0882
  180MOL0     H24290   1.202   7.893   5.333  0.9405  0.0644  3.3033
  180MOL0     H24291   1.323   7.808   5.230  2.8917  0.6879 -0.5215
  180MOL0     H24292   1.507   7.896   5.347  3.2038  0.9015  2.7915
  180MOL0     H24293   1.412   7.785   5.448 -1.1575  1.3154  0.9926
  180MOL0     H24294   1.322   7.955   5.575  0.5932 -3.3052 -1.8292
  180MOL0     H24295   1.352   8.092   5.457 -1.6588  0.6152  2.4427
  180MOL0     H24296   1.536   7.946   5.642 -1.1026  0.8670  1.8569
  180MOL0     H24297   1.507   8.114   5.663  0.1719 -1.2821  0.9402
  180MOL0     H24298   1.833   8.145   5.405  0.3230 -0.6362  1.5476
  180MOL0     H24299   1.491   8.006   5.010  0.4102 -0.0436  0.0247
  180MOL0     H24300   1.421   7.995   4.773  1.1707 -1.0000  0.9853
  181MOL0     O24301   2.580   0.068   7.594  0.4254 -0.1345 -0.1705
  181MOL0     C24302   2.575  -0.035   7.529  0.0282  0.1037  0.0520
  181MOL0     O24303   2.511  -0.150   7.562 -0.0121  0.5685 -0.4720
  181MOL0     C24304   2.452  -0.157   7.680 -0.1665 -0.2137 -0.3290
  181MOL0     C24305   2.520  -0.174   7.805  0.3017 -0.4368 -0.2098
  181MOL0     C24306   2.443  -0.173   7.925 -0.0199  0.5337  0.4321
  181MOL0     C24307   2.304  -0.162   7.924  0.1699 -0.4866  0.1197
  181MOL0     O24308   2.240  -0.170   8.048 -0.2898 -0.3182  0.2639
  181MOL0     C24309   2.126  -0.076   8.031 -0.0191 -0.0267 -1.1304
  181MOL0     C24310   2.095  -0.026   8.173  0.3431 -0.4897 -0.5065
  181MOL0     C24311   2.036  -0.129   8.273  1.6131 -0.0500 -0.2203
  181MOL0     C24312   2.008  -0.071   8.417 -0.5301 -0.1702  0.1364
  181MOL0     C24313   2.027  -0.175   8.519  0.3150 -0.3367 -0.2915
  181MOL0     C24314   1.914  -0.283   8.499  0.0958  0.3994 -0.3565
  181MOL0     C24315   1.931  -0.392   8.608  0.5378 -0.5458 -0.4169
  181MOL0     C24316   1.865  -0.525   8.575  0.5559  0.4768 -0.4337
  181MOL0     N24317   1.720  -0.512   8.577 -0.1322 -0.3914 -0.2773
  181MOL0     C24318   1.647  -0.491   8.469  0.7544 -0.3520 -0.4660
  181MOL0     C24319   1.521  -0.516   8.506 -0.0010 -0.3593 -0.7958
  181MOL0     C24320   1.404  -0.517   8.408 -0.9941  0.4268 -0.5652
  181MOL0     C24321   1.321  -0.390   8.410  0.2552  0.7649 -0.3537
  181MOL0     C24322   1.237  -0.377   8.286 -0.2952  0.0490  0.6719
  181MOL0     C24323   1.168  -0.244   8.269  0.2821  0.3692  0.5089
  181MOL0     O24324   1.102  -0.260   8.136  0.1007 -0.6915 -0.2897
  181MOL0     C24325   0.976  -0.297   8.145  0.6377  0.2375  0.1996
  181MOL0     C24326   0.931  -0.426   8.118  0.3757 -0.3798  0.6924
  181MOL0     C24327   0.792  -0.454   8.121 -0.4367  0.1600 -0.7531
  181MOL0     C24328   0.743  -0.595   8.077  0.0318  1.0098 -0.2434
  181MOL0     C24329   0.707  -0.354   8.161  0.8454  0.5194  0.0776
  181MOL0     C24330   0.563  -0.386   8.177 -0.0147 -0.2933 -0.1364
  181MOL0     O24331   0.524  -0.510   8.228 -0.6582  0.4068  0.0533
  181MOL0     C24332   0.392  -0.545   8.207 -0.2520  0.6932  0.3470
  181MOL0     C24333   0.326  -0.626   8.296 -0.1379 -0.9987 -0.1160
  181MOL0     C24334   0.190  -0.655   8.290  1.3701  0.0254 -0.3518
  181MOL0     C24335   0.119  -0.621   8.175 -0.8069 -0.5202  0.2766
  181MOL0     O24336  -0.011  -0.665   8.158  0.1188  0.2709 -0.6862
  181MOL0     C24337  -0.037  -0.800   8.197  1.1094  0.1712  0.4078
  181MOL0     C24338  -0.176  -0.845   8.149 -1.1718 -0.2286  0.7726
  181MOL0     C24339  -0.205  -0.821   8.004 -0.2603 -0.6665  0.3922
  181MOL0     C24340  -0.318  -0.914   7.954  0.2187 -0.5465 -0.5276
  181MOL0     C24341  -0.363  -0.884   7.810 -0.3717 -0.0216 -0.0672
  181MOL0     C24342  -0.262  -0.943   7.701  0.1894 -0.2735 -0.3964
  181MOL0     C24343  -0.152  -0.847   7.647  0.7702  0.1163 -0.4761
  181MOL0     C24344  -0.098  -0.896   7.515 -0.5383 -0.9522  0.3775
  181MOL0    Cl24345  -0.205  -0.887   7.377 -0.2814 -0.0246  0.3347
  181MOL0     C24346   0.184  -0.552   8.078 -0.0868  0.3611  0.0909
  181MOL0     C24347   0.321  -0.525   8.085  0.6359  0.5039 -0.9495
  181MOL0     O24348   0.481  -0.300   8.139 -0.0086 -0.5934 -0.3897
  181MOL0     C24349   0.749  -0.225   8.177  0.1129 -0.4543 -0.3532
  181MOL0     C24350   0.886  -0.190   8.171  0.4600  0.7977 -0.1988
  181MOL0     N24351   1.513  -0.543   8.639 -1.2337  0.1275 -0.1690
  181MOL0     N24352   1.634  -0.543   8.679  0.1792  0.0089  0.0113
  181MOL0     C24353   2.244  -0.180   7.798  0.2283 -0.3181 -0.1438
  181MOL0     C24354   2.312  -0.178   7.676  0.2146  0.1819  0.0403
  181MOL0     C24355   2.643  -0.049   7.398 -0.8364 -0.5028 -0.1860
  181MOL0     C24356   2.731   0.050   7.351 -0.6372 -0.5696 -0.5611
  181MOL0     C24357   2.798   0.044   7.239  0.3189  0.0525  0.5232
  181MOL0     C24358   2.786  -0.071   7.157  0.3176 -0.3482 -0.0241
  181MOL0     O24359   2.870  -0.087   7.048  0.4593 -0.1292  0.0940
  181MOL0     C24360   2.999  -0.097   7.097 -0.3487 -0.7698 -0.0412
  181MOL0     C24361   3.100  -0.160   7.002  0.0428 -0.4232 -0.0399
  181MOL0     C24362   3.233  -0.205   7.084  0.7879 -0.5811  0.5817
  181MOL0     C24363   3.306  -0.087   7.133 -0.7806  0.4477  0.4153
  181MOL0     C24364   3.431  -0.146   7.186 -0.4486 -0.1946  0.3344
  181MOL0     C24365   3.525  -0.205   7.229 -0.5986 -0.3802  0.4800
  181MOL0     C24366   2.705  -0.172   7.202  0.0896 -0.9404 -0.4228
  181MOL0     C24367   2.632  -0.165   7.318 -0.6959  0.3849  0.1352
  181MOL0     H24368   2.627  -0.195   7.803  0.2962 -0.6030  0.8136
  181MOL0     H24369   2.491  -0.194   8.020  0.5834 -0.4262 -0.0730
  181MOL0     H24370   2.157   0.002   7.962  1.7606 -0.0836 -0.4732
  181MOL0     H24371   2.037  -0.133   8.001 -0.3515  0.8673 -1.8677
  181MOL0     H24372   2.191   0.009   8.212 -0.0248  0.1406 -0.1381
  181MOL0     H24373   2.023   0.055   8.157 -0.1483 -0.4529  1.6012
  181MOL0     H24374   1.943  -0.169   8.232  1.3116  0.4726 -0.0720
  181MOL0     H24375   2.112  -0.207   8.281  0.1295 -1.8614 -2.5969
  181MOL0     H24376   2.076   0.014   8.433  0.7937 -1.2952  0.6982
  181MOL0     H24377   1.905  -0.039   8.400 -0.2712 -0.6593 -3.1060
  181MOL0     H24378   2.125  -0.221   8.511 -0.2153 -2.0786  1.9457
  181MOL0     H24379   2.017  -0.129   8.618 -0.9684  1.2147 -1.0900
  181MOL0     H24380   1.815  -0.238   8.508 -0.5226 -0.1306 -3.3338
  181MOL0     H24381   1.925  -0.336   8.404  1.9450 -4.0274  2.0692
  181MOL0     H24382   2.037  -0.402   8.632  0.6436  1.6944  0.2984
  181MOL0     H24383   1.884  -0.361   8.702 -0.2135 -4.2212  0.5657
  181MOL0     H24384   1.902  -0.601   8.645  3.0291  2.2482  0.3486
  181MOL0     H24385   1.903  -0.553   8.476 -1.1223  0.6222 -1.1484
  181MOL0     H24386   1.685  -0.462   8.371 -3.2082 -1.9979 -2.7262
  181MOL0     H24387   1.445  -0.529   8.307 -0.5386  2.3521 -0.6383
  181MOL0     H24388   1.343  -0.606   8.424  0.6812 -0.8384 -0.9349
  181MOL0     H24389   1.386  -0.302   8.402 -0.0266  0.8458 -2.1414
  181MOL0     H24390   1.255  -0.375   8.496 -1.1785 -4.8500 -0.1369
  181MOL0     H24391   1.165  -0.460   8.287 -0.7045  0.3715 -0.3065
  181MOL0     H24392   1.304  -0.384   8.200 -0.8730 -3.5157  0.3653
  181MOL0     H24393   1.249  -0.171   8.266  1.8709 -1.3109  0.7823
  181MOL0     H24394   1.095  -0.220   8.347 -1.3883  1.8843 -1.3801
  181MOL0     H24395   0.992  -0.504   8.073 -1.7231  0.5218 -4.3980
  181MOL0     H24396   0.652  -0.574   8.021  0.9707  0.2505 -2.1689
  181MOL0     H24397   0.804  -0.645   8.001 -0.5459  0.0657 -0.0933
  181MOL0     H24398   0.717  -0.656   8.163 -1.3166 -0.9008 -1.9014
  181MOL0     H24399   0.375  -0.654   8.388 -2.1635 -2.0996  0.7081
  181MOL0     H24400   0.140  -0.699   8.376  1.9596  2.5919  1.4179
  181MOL0     H24401   0.030  -0.871   8.149  0.6218 -0.6617  0.9322
  181MOL0     H24402  -0.024  -0.808   8.306 -2.1807 -0.4367  0.8715
  181MOL0     H24403  -0.179  -0.953   8.166  0.5070 -0.6910 -1.3972
  181MOL0     H24404  -0.240  -0.788   8.217  1.6155  0.6865  2.8306
  181MOL0     H24405  -0.113  -0.838   7.947 -0.6401  0.6091 -0.6624
  181MOL0     H24406  -0.230  -0.716   7.985  1.3046 -0.6496 -1.9032
  181MOL0     H24407  -0.283  -1.018   7.961 -0.0058 -0.9675 -3.8545
  181MOL0     H24408  -0.403  -0.902   8.020 -1.1320 -1.9357 -1.9204
  181MOL0     H24409  -0.371  -0.776   7.795 -0.3983 -0.0585 -0.3295
  181MOL0     H24410  -0.459  -0.927   7.780 -1.2402  1.5022  0.4496
  181MOL0     H24411  -0.212  -1.034   7.735  1.7375  0.8490  0.4067
  181MOL0     H24412  -0.331  -0.976   7.622 -1.1038 -0.7903  0.9024
  181MOL0     H24413  -0.062  -0.834   7.707  1.5977 -0.5873 -1.5327
  181MOL0     H24414  -0.195  -0.747   7.638 -1.4281 -0.5516  1.5411
  181MOL0     H24415  -0.056  -0.997   7.523  1.4791 -0.3399 -1.4925
  181MOL0     H24416  -0.014  -0.830   7.495  0.1484 -1.1093  2.4630
  181MOL0     H24417   0.125  -0.536   7.988  1.3935 -2.9862 -1.6446
  181MOL0     H24418   0.385  -0.492   8.004  0.2705  2.7036 -0.4120
  181MOL0     H24419   0.685  -0.140   8.196 -0.0832 -0.9717  1.5197
  181MOL0     H24420   0.920  -0.089   8.192 -2.4338  1.5031  1.6421
  181MOL0     H24421   2.136  -0.188   7.799  0.2217 -0.4086  1.6409
  181MOL0     H24422   2.268  -0.190   7.578  0.9677  3.3444 -0.7996
  181MOL0     H24423   2.752   0.144   7.402  4.2730 -1.8502  0.2748
  181MOL0     H24424   2.864   0.126   7.214  1.9424 -0.1891  3.5017
  181MOL0     H24425   3.034   0.003   7.123  3.2286 -2.3151  1.8194
  181MOL0     H24426   2.993  -0.149   7.193 -1.4068 -0.7551 -0.0882
  181MOL0     H24427   3.128  -0.084   6.927  1.4088  0.2742  1.1266
  181MOL0     H24428   3.059  -0.249   6.954  0.1639 -1.6893  2.0630
  181MOL0     H24429   3.298  -0.247   7.006  0.1442 -0.4503 -0.0398
  181MOL0     H24430   3.200  -0.262   7.172 -0.6751  1.2612  1.2899
  181MOL0     H24431   3.252  -0.031   7.211 -0.5294 -0.7994  1.5194
  181MOL0     H24432   3.328  -0.018   7.051 -0.9470  0.9423  0.7807
  181MOL0     H24433   3.623  -0.231   7.261  0.0732  1.0791 -0.2569
  181MOL0     H24434   2.712  -0.265   7.148  1.0514 -0.7020 -0.7375
  181MOL0     H24435   2.579  -0.255   7.344  0.3472 -1.0653 -2.3985
  182MOL0     O24436   9.243   7.717  11.043 -0.3031 -0.4676  0.9907
  182MOL0     C24437   9.340   7.764  11.104  0.7722 -0.1602  0.8921
  182MOL0     O24438   9.326   7.843  11.209  0.4178 -0.1039  0.8457
  182MOL0     C24439   9.194   7.888  11.227 -0.9967 -0.7685 -0.4257
  182MOL0     C24440   9.117   7.832  11.331 -0.4428  0.4894  0.6298
  182MOL0     C24441   8.989   7.888  11.351 -0.0630  0.1012  0.1693
  182MOL0     C24442   8.932   7.980  11.262  0.6310 -1.0543  1.0747
  182MOL0     O24443   8.793   8.003  11.282 -0.4023  0.3706  0.4957
  182MOL0     C24444   8.725   8.022  11.155 -0.0299  0.2210  0.5764
  182MOL0     C24445   8.573   8.022  11.184 -0.1913 -0.8071 -0.2257
  182MOL0     C24446   8.508   7.886  11.229 -0.1207  0.1211  0.2257
  182MOL0     C24447   8.359   7.907  11.272 -0.8938  0.5558  0.5669
  182MOL0     C24448   8.259   7.928  11.155  0.6746 -0.1880 -0.2735
  182MOL0     C24449   8.153   8.030  11.196 -0.1265  0.6854  0.5260
  182MOL0     C24450   8.086   8.092  11.076 -0.1583 -0.3658 -0.5246
  182MOL0     C24451   7.952   8.021  11.044  0.0838  0.4877 -0.1444
  182MOL0     N24452   7.848   8.048  11.140 -0.1067  0.4211  0.2255
  182MOL0     C24453   7.783   7.963  11.216 -0.0308  0.9239 -0.9791
  182MOL0     C24454   7.716   8.034  11.306  0.2057 -0.5621 -0.8300
  182MOL0     C24455   7.647   7.994  11.423  1.0905  0.6030 -0.0483
  182MOL0     C24456   7.493   8.027  11.415 -0.0779  0.0681 -0.1177
  182MOL0     C24457   7.456   8.172  11.439  1.0062  0.0117 -0.3452
  182MOL0     C24458   7.306   8.186  11.475 -0.8518 -0.3415  0.4170
  182MOL0     O24459   7.220   8.121  11.383 -0.0485  0.3609  0.0903
  182MOL0     C24460   7.085   8.165  11.383 -0.1131  2.0300 -0.8952
  182MOL0     C24461   7.028   8.237  11.485  0.1257 -0.2929 -0.9606
  182MOL0     C24462   6.896   8.288  11.476 -0.5713  0.1277 -0.6126
  182MOL0     C24463   6.843   8.385  11.580 -0.6561 -0.0708 -0.2201
  182MOL0     C24464   6.809   8.251  11.366 -0.0943  0.1023 -0.9535
  182MOL0     C24465   6.668   8.277  11.343 -0.4305 -0.2226  0.0978
  182MOL0     O24466   6.615   8.385  11.410  0.2809  0.6407  0.5553
  182MOL0     C24467   6.479   8.417  11.417  0.5355  0.3110 -0.2333
  182MOL0     C24468   6.448   8.545  11.453  0.3660  0.7179  0.5930
  182MOL0     C24469   6.315   8.585  11.438  0.8244  0.7035 -1.0435
  182MOL0     C24470   6.214   8.493  11.410  0.1683 -0.1986 -0.0429
  182MOL0     O24471   6.086   8.517  11.414 -0.1146 -0.4695 -0.1230
  182MOL0     C24472   6.021   8.550  11.293  0.5322 -0.2832  0.2364
  182MOL0     C24473   5.869   8.551  11.316  0.1030  0.1281  0.0810
  182MOL0     C24474   5.793   8.589  11.189  1.0130  0.7247 -0.2633
  182MOL0     C24475   5.801   8.736  11.149 -0.6106 -0.7196 -0.4929
  182MOL0     C24476   5.738   8.765  11.015 -0.1110  0.2651  0.3000
  182MOL0     C24477   5.775   8.905  10.955 -0.1024 -0.5374  0.2614
  182MOL0     C24478   5.721   8.939  10.809 -0.8107  0.2099  0.2412
  182MOL0     C24479   5.680   9.081  10.788 -0.3641  0.2278  0.6348
  182MOL0    Cl24480   5.511   9.118  10.828 -0.1639 -0.0642 -0.3677
  182MOL0     C24481   6.254   8.360  11.403  0.0383 -0.1744 -0.1217
  182MOL0     C24482   6.384   8.319  11.395  0.3075  0.0951 -0.2381
  182MOL0     O24483   6.619   8.227  11.252 -0.5073  0.0834 -0.1226
  182MOL0     C24484   6.878   8.168  11.265  0.2137  0.0196  0.0063
  182MOL0     C24485   7.010   8.137  11.275 -0.0099 -0.4034 -0.7230
  182MOL0     N24486   7.747   8.165  11.282 -0.4048  0.2462  0.4136
  182MOL0     N24487   7.830   8.172  11.187 -0.8159 -0.3405 -0.3459
  182MOL0     C24488   9.017   8.037  11.168  0.5612  0.0841  0.2016
  182MOL0     C24489   9.149   7.999  11.153  0.7218 -0.0108  0.7785
  182MOL0     C24490   9.476   7.723  11.075  0.4682 -0.1631 -0.6963
  182MOL0     C24491   9.510   7.635  10.969  0.3206  0.7763  0.3710
  182MOL0     C24492   9.642   7.605  10.948 -0.3353 -0.2611 -0.2109
  182MOL0     C24493   9.746   7.655  11.027  0.3265  0.5703  0.5989
  182MOL0     O24494   9.871   7.602  10.995  0.2554 -0.1452  0.2736
  182MOL0     C24495   9.981   7.661  11.068  0.4733 -0.3881  0.2292
  182MOL0     C24496  10.110   7.622  11.009 -0.2305 -0.5245  0.2851
  182MOL0     C24497  10.233   7.678  11.092 -0.3703  0.6588  0.4270
  182MOL0     C24498  10.359   7.649  11.016 -0.2261 -0.0897  0.6899
  182MOL0     C24499  10.474   7.704  11.094  0.0420  0.2874  0.3021
  182MOL0     C24500  10.565   7.741  11.159 -0.1482  0.2790 -0.2989
  182MOL0     C24501   9.713   7.738  11.137  0.0137 -0.3941 -0.4559
  182MOL0     C24502   9.578   7.774  11.158  0.3569  1.0825 -0.7563
  182MOL0     H24503   9.157   7.742  11.377  0.1741  0.0308 -0.7674
  182MOL0     H24504   8.918   7.835  11.413 -0.6177  2.8840  2.1173
  182MOL0     H24505   8.744   8.117  11.105  1.0315 -0.9247 -1.3001
  182MOL0     H24506   8.754   7.940  11.088  0.5140  1.3981 -0.6620
  182MOL0     H24507   8.558   8.096  11.264  0.0424  0.2170 -1.1057
  182MOL0     H24508   8.513   8.070  11.106 -1.5139  0.5859  1.5431
  182MOL0     H24509   8.516   7.812  11.149  3.1226 -1.0777  1.4920
  182MOL0     H24510   8.560   7.856  11.321  0.1503  2.2863  0.8373
  182MOL0     H24511   8.330   7.812  11.317 -3.1714 -0.0072 -1.8414
  182MOL0     H24512   8.358   7.987  11.347 -0.9183  1.3984 -0.3174
  182MOL0     H24513   8.305   7.982  11.072 -1.9250  1.4902 -0.7450
  182MOL0     H24514   8.214   7.834  11.121 -2.1663  0.6788  0.7526
  182MOL0     H24515   8.084   7.991  11.272 -0.8513 -0.9454 -0.9027
  182MOL0     H24516   8.211   8.115  11.234  0.4546  0.6491 -0.2604
  182MOL0     H24517   8.078   8.200  11.089 -1.7307 -0.6909  1.5965
  182MOL0     H24518   8.150   8.079  10.988 -1.4358 -0.1612 -1.5204
  182MOL0     H24519   7.975   7.914  11.049 -0.6594  0.3755  3.4490
  182MOL0     H24520   7.921   8.043  10.941  1.1844 -0.8500 -0.7939
  182MOL0     H24521   7.811   7.858  11.222  0.1482  1.0142  4.2892
  182MOL0     H24522   7.672   7.888  11.434 -1.5362 -0.0605  0.1764
  182MOL0     H24523   7.707   8.036  11.504  2.4561 -0.2750 -0.5717
  182MOL0     H24524   7.435   7.982  11.496  0.2640  2.9251  1.8671
  182MOL0     H24525   7.458   8.004  11.313  3.6321 -0.6093 -1.3620
  182MOL0     H24526   7.471   8.242  11.357  0.9179  1.3796  0.7663
  182MOL0     H24527   7.519   8.210  11.520  1.9026 -1.5451 -0.2753
  182MOL0     H24528   7.287   8.293  11.480  1.4535  0.0986  1.0533
  182MOL0     H24529   7.294   8.146  11.576  1.8844 -2.2155  0.1156
  182MOL0     H24530   7.085   8.265  11.573 -2.5200  2.2401  0.1349
  182MOL0     H24531   6.912   8.391  11.664  0.4044 -0.2571 -1.0618
  182MOL0     H24532   6.854   8.478  11.524  1.9447 -0.5352 -0.5881
  182MOL0     H24533   6.745   8.364  11.624 -0.5399 -0.6397 -0.2258
  182MOL0     H24534   6.530   8.615  11.464  1.1501 -0.1432  0.2784
  182MOL0     H24535   6.297   8.692  11.440 -3.2975  0.1860  0.9660
  182MOL0     H24536   6.053   8.651  11.265 -1.4661  0.8460  1.7928
  182MOL0     H24537   6.048   8.474  11.219  0.4203  1.6899 -1.9514
  182MOL0     H24538   5.841   8.450  11.348  2.1506 -0.9262 -1.2180
  182MOL0     H24539   5.847   8.618  11.399  2.8122  1.4672 -0.1751
  182MOL0     H24540   5.687   8.574  11.209  0.8669 -0.9596 -1.9594
  182MOL0     H24541   5.831   8.523  11.110 -1.0586  1.0179 -1.5662
  182MOL0     H24542   5.780   8.802  11.234  4.7284  0.9159 -0.0618
  182MOL0     H24543   5.907   8.759  11.139 -0.3451 -2.3955 -2.0429
  182MOL0     H24544   5.631   8.742  11.012  0.0804 -0.6146 -0.0362
  182MOL0     H24545   5.764   8.686  10.944 -3.4583 -0.1822 -0.6090
  182MOL0     H24546   5.739   8.987  11.018  4.8953  1.8168  0.4742
  182MOL0     H24547   5.883   8.919  10.960 -0.2760  0.7543  4.1403
  182MOL0     H24548   5.623   8.892  10.799 -1.0768  0.3940  1.8406
  182MOL0     H24549   5.806   8.912  10.745 -0.0807 -0.7540  1.5715
  182MOL0     H24550   5.683   9.098  10.680 -1.5485  1.7371  0.7978
  182MOL0     H24551   5.744   9.148  10.847 -1.7925 -0.3130  2.9186
  182MOL0     H24552   6.179   8.287  11.375 -0.6019  1.6562 -3.7817
  182MOL0     H24553   6.411   8.216  11.378  2.0402 -0.1609  3.1662
  182MOL0     H24554   6.831   8.148  11.170 -0.1004  0.9264 -0.0437
  182MOL0     H24555   7.069   8.103  11.190 -0.6416  0.7141 -1.6393
  182MOL0     H24556   8.974   8.104  11.094 -1.8327 -2.4468 -0.8936
  182MOL0     H24557   9.207   8.048  11.076 -2.0096  0.8160 -0.9045
  182MOL0     H24558   9.445   7.580  10.902  1.2738 -0.7404  0.6204
  182MOL0     H24559   9.662   7.527  10.876 -0.4406 -1.7759  1.3179
  182MOL0     H24560   9.975   7.770  11.065  3.6329 -0.0897  1.1656
  182MOL0     H24561   9.976   7.620  11.169  3.0892  0.6583  0.8664
  182MOL0     H24562  10.112   7.662  10.908 -2.6506 -0.0092  0.3879
  182MOL0     H24563  10.106   7.513  11.009  2.3295 -0.7536  2.7101
  182MOL0     H24564  10.250   7.621  11.183 -2.7520 -2.1089 -0.6914
  182MOL0     H24565  10.215   7.784  11.115 -0.6924  0.1319  2.8425
  182MOL0     H24566  10.358   7.707  10.924 -1.7292 -0.9134  0.1590
  182MOL0     H24567  10.361   7.545  10.984 -1.4831  0.3381 -0.9035
  182MOL0     H24568  10.646   7.772  11.222 -1.0386 -0.5572  1.3079
  182MOL0     H24569   9.786   7.772  11.209 -0.8823  1.1520 -0.2324
  182MOL0     H24570   9.567   7.836  11.247 -2.2900 -2.0277  1.3070
  183MOL0     O24571   5.531   2.231   4.461 -0.3931 -0.2061  0.1956
  183MOL0     C24572   5.429   2.291   4.506  0.7114  0.9457  1.0296
  183MOL0     O24573   5.425   2.427   4.540  0.4363  0.1526  0.2104
  183MOL0     C24574   5.549   2.480   4.546 -0.2607 -0.0020 -0.3078
  183MOL0     C24575   5.572   2.592   4.466 -0.5281 -0.2527  0.8001
  183MOL0     C24576   5.700   2.665   4.461  0.8757  0.3967 -0.1547
  183MOL0     C24577   5.803   2.610   4.535  0.7327  0.0645 -0.2069
  183MOL0     O24578   5.924   2.680   4.531  0.3018  0.5888  0.2360
  183MOL0     C24579   6.018   2.664   4.642 -0.1469  0.6112  0.4837
  183MOL0     C24580   6.120   2.762   4.583  0.0502 -0.5465 -0.3010
  183MOL0     C24581   6.254   2.752   4.652 -0.3657 -0.4543  0.1416
  183MOL0     C24582   6.269   2.824   4.781  0.6369 -0.7546 -0.1615
  183MOL0     C24583   6.413   2.811   4.824  0.3710 -0.4039  0.2369
  183MOL0     C24584   6.436   2.843   4.974  0.2383 -0.0318  0.3058
  183MOL0     C24585   6.584   2.864   5.006 -0.2102  0.8295 -0.3507
  183MOL0     C24586   6.648   2.993   4.948  0.0763  0.4891 -0.0547
  183MOL0     N24587   6.757   3.031   5.042 -0.7041 -0.9384 -0.1808
  183MOL0     C24588   6.877   2.968   5.038 -1.0470  0.5817  0.3421
  183MOL0     C24589   6.936   2.986   5.151  0.3177 -0.5221 -0.6747
  183MOL0     C24590   7.060   2.916   5.204  0.0961  0.3313  0.2173
  183MOL0     C24591   7.044   2.759   5.199  0.5090  0.6481  0.0871
  183MOL0     C24592   6.949   2.699   5.295 -0.1250 -0.3321 -0.4091
  183MOL0     C24593   6.951   2.538   5.293 -0.6672 -0.0883 -0.0098
  183MOL0     O24594   6.917   2.500   5.161 -0.2831  0.3865 -0.8640
  183MOL0     C24595   6.783   2.475   5.136 -0.4809  0.9373  0.3803
  183MOL0     C24596   6.676   2.523   5.208 -0.2857 -0.0220  0.3196
  183MOL0     C24597   6.543   2.487   5.168  0.0122  0.9605  0.6695
  183MOL0     C24598   6.423   2.526   5.259 -1.2964  0.1579  0.4853
  183MOL0     C24599   6.518   2.416   5.046 -0.3086  0.5775 -0.0249
  183MOL0     C24600   6.388   2.403   4.989  0.4791 -1.0011 -0.9453
  183MOL0     O24601   6.383   2.296   4.902 -0.7228  0.3095 -0.6639
  183MOL0     C24602   6.270   2.238   4.852  0.2803 -0.0173  0.1717
  183MOL0     C24603   6.277   2.165   4.735  0.1218  0.1203 -0.0429
  183MOL0     C24604   6.172   2.121   4.659  0.1649 -0.1620 -0.0793
  183MOL0     C24605   6.048   2.146   4.699  0.1151  0.1953 -0.2457
  183MOL0     O24606   5.929   2.097   4.646 -0.1081  0.2749  0.4989
  183MOL0     C24607   5.949   2.005   4.536  0.5548 -0.1333 -0.3354
  183MOL0     C24608   5.825   1.950   4.475  0.0445 -1.0491 -0.0638
  183MOL0     C24609   5.743   1.857   4.572 -1.4173 -1.1836  0.2983
  183MOL0     C24610   5.685   1.918   4.704  0.0654  0.7532  0.5500
  183MOL0     C24611   5.596   1.807   4.754 -0.1963  0.3867  0.5371
  183MOL0     C24612   5.571   1.834   4.901  0.1235 -1.0980 -0.1850
  183MOL0     C24613   5.473   1.731   4.968  0.2866 -0.4070 -1.2007
  183MOL0     C24614   5.322   1.750   4.934 -0.1053 -0.3696 -0.9235
  183MOL0    Cl24615   5.225   1.629   5.026 -0.1453  0.1960 -0.2178
  183MOL0     C24616   6.026   2.228   4.821 -0.0101  0.0701 -0.5487
  183MOL0     C24617   6.138   2.266   4.903 -0.4014  0.1512 -0.1095
  183MOL0     O24618   6.293   2.474   5.016  0.0375  0.2914 -0.3686
  183MOL0     C24619   6.640   2.374   4.973  0.0677 -0.1940  0.1166
  183MOL0     C24620   6.768   2.398   5.024 -0.7348 -0.3227  0.0646
  183MOL0     N24621   6.850   3.067   5.234  0.4743 -1.1447  0.8989
  183MOL0     N24622   6.750   3.094   5.159  0.4183  1.0122  0.2491
  183MOL0     C24623   5.779   2.501   4.621  0.6174 -0.4637  0.2099
  183MOL0     C24624   5.654   2.448   4.629  0.7566  0.5209 -0.2114
  183MOL0     C24625   5.311   2.199   4.529 -0.3317 -0.4401 -0.7914
  183MOL0     C24626   5.300   2.073   4.479 -0.5979 -0.1662  0.9955
  183MOL0     C24627   5.177   2.004   4.494 -0.3803  1.0874  1.1255
  183MOL0     C24628   5.069   2.058   4.559  0.6843  0.0349 -0.8787
  183MOL0     O24629   4.957   1.978   4.573 -0.7391 -0.2936 -0.3619
  183MOL0     C24630   4.846   2.018   4.654  0.1646  0.2859  0.1653
  183MOL0     C24631   4.755   1.899   4.671 -0.3354  0.2525 -0.0021
  183MOL0     C24632   4.658   1.872   4.560 -0.4757 -0.5471 -0.1034
  183MOL0     C24633   4.705   1.843   4.418  0.1106  0.4475  0.1458
  183MOL0     C24634   4.757   1.707   4.420  0.4682 -0.9080 -0.1105
  183MOL0     C24635   4.772   1.584   4.422  0.0229 -0.2611  0.4606
  183MOL0     C24636   5.081   2.181   4.611  0.4109 -0.7976  0.0705
  183MOL0     C24637   5.197   2.261   4.593  0.1346 -0.0276 -0.5269
  183MOL0     H24638   5.488   2.630   4.408  0.7031  1.2369 -0.0862
  183MOL0     H24639   5.703   2.745   4.387 -1.7494  1.3438  0.6340
  183MOL0     H24640   5.976   2.701   4.736 -2.6979 -1.1922  0.1728
  183MOL0     H24641   6.054   2.561   4.636  2.8811  1.6154 -4.4489
  183MOL0     H24642   6.136   2.740   4.477 -0.6170  0.0059 -0.5217
  183MOL0     H24643   6.080   2.864   4.586 -2.6704 -1.5239  0.4053
  183MOL0     H24644   6.283   2.648   4.668  2.3212  0.1787 -0.0117
  183MOL0     H24645   6.325   2.793   4.580  1.1329 -2.9050  0.1085
  183MOL0     H24646   6.249   2.932   4.774  2.5442 -0.3752 -0.2589
  183MOL0     H24647   6.202   2.791   4.861 -1.4223 -0.3713 -1.6538
  183MOL0     H24648   6.453   2.714   4.792 -0.4058  0.3083 -3.2955
  183MOL0     H24649   6.475   2.882   4.768  0.7913  0.7315  2.0506
  183MOL0     H24650   6.376   2.927   5.010 -0.0200 -0.3143  0.5462
  183MOL0     H24651   6.411   2.748   5.023  1.5725 -1.1424 -1.0497
  183MOL0     H24652   6.589   2.875   5.115  0.2836 -1.1167 -0.1446
  183MOL0     H24653   6.649   2.787   4.964  2.3953  1.5674  1.9858
  183MOL0     H24654   6.569   3.070   4.948 -0.0667  0.4002  1.7893
  183MOL0     H24655   6.683   2.994   4.845 -0.4941 -0.1580 -0.2586
  183MOL0     H24656   6.912   2.904   4.957  1.4106  1.3154  0.7267
  183MOL0     H24657   7.149   2.936   5.145  1.5346 -2.5558  1.2637
  183MOL0     H24658   7.074   2.951   5.307 -1.4483 -0.4112  0.7220
  183MOL0     H24659   7.138   2.704   5.210  0.1290  0.1414  0.9359
  183MOL0     H24660   7.010   2.742   5.097 -2.1289 -0.8192  1.1363
  183MOL0     H24661   6.847   2.730   5.267 -0.5535 -2.1626 -0.9917
  183MOL0     H24662   6.975   2.747   5.390 -0.3737 -0.8215 -0.0911
  183MOL0     H24663   6.875   2.507   5.365 -2.8263  1.3145 -1.5376
  183MOL0     H24664   7.050   2.496   5.313 -1.1106 -1.6290 -0.8379
  183MOL0     H24665   6.673   2.585   5.298 -2.2676  0.1713  0.1656
  183MOL0     H24666   6.371   2.431   5.273 -1.0762  0.0690  0.6892
  183MOL0     H24667   6.457   2.559   5.358  0.2563  0.9484 -0.2691
  183MOL0     H24668   6.370   2.608   5.210 -0.3424 -1.5985 -3.9971
  183MOL0     H24669   6.376   2.138   4.698 -0.4428 -0.4336 -1.1998
  183MOL0     H24670   6.184   2.054   4.574 -1.5753 -1.8205  0.9030
  183MOL0     H24671   5.999   2.055   4.453  0.2326 -0.2084 -0.5751
  183MOL0     H24672   6.009   1.922   4.574 -0.6911 -1.1566 -0.5257
  183MOL0     H24673   5.766   2.038   4.449  0.0847 -0.5732  1.3544
  183MOL0     H24674   5.847   1.894   4.384  3.5046  1.6134 -1.0600
  183MOL0     H24675   5.808   1.771   4.590 -1.2075 -1.4895 -1.6829
  183MOL0     H24676   5.660   1.832   4.505 -0.0268  1.7235 -2.8008
  183MOL0     H24677   5.769   1.928   4.773  1.8996 -2.1251 -1.0164
  183MOL0     H24678   5.631   2.011   4.687 -1.8475 -0.6673 -1.9189
  183MOL0     H24679   5.648   1.711   4.744 -1.9883 -0.6610  0.8260
  183MOL0     H24680   5.504   1.799   4.695 -0.7647 -0.2178  1.4815
  183MOL0     H24681   5.657   1.832   4.968 -0.0710 -1.6656  0.0515
  183MOL0     H24682   5.528   1.934   4.912  1.5112 -0.3211 -1.4636
  183MOL0     H24683   5.474   1.746   5.077  1.6275 -2.5411 -0.8531
  183MOL0     H24684   5.502   1.626   4.958 -2.1596 -1.5090  1.7416
  183MOL0     H24685   5.308   1.726   4.828 -0.5636 -3.0572 -0.3234
  183MOL0     H24686   5.296   1.853   4.960  3.4112  0.3109  0.4785
  183MOL0     H24687   5.923   2.249   4.850 -0.5360 -0.3665 -1.9943
  183MOL0     H24688   6.126   2.319   4.997 -0.5811  2.0907 -1.1755
  183MOL0     H24689   6.625   2.328   4.876  0.7353  1.1351 -0.6393
  183MOL0     H24690   6.854   2.354   4.974  0.6329  2.2886 -0.0526
  183MOL0     H24691   5.857   2.467   4.690  1.6015  1.3438  0.0325
  183MOL0     H24692   5.644   2.365   4.698  3.6078  0.2022 -0.0506
  183MOL0     H24693   5.392   2.026   4.447 -0.3903 -1.5616  3.4535
  183MOL0     H24694   5.164   1.903   4.459 -2.7202  1.3290  1.1562
  183MOL0     H24695   4.888   2.051   4.749 -0.0967  0.8226  0.0937
  183MOL0     H24696   4.790   2.095   4.601 -2.3300 -0.7113  1.2104
  183MOL0     H24697   4.691   1.914   4.759 -0.2868 -1.2257  0.3032
  183MOL0     H24698   4.810   1.810   4.703  0.8588  1.5777  1.7802
  183MOL0     H24699   4.591   1.958   4.556 -1.1637 -1.0562  0.2723
  183MOL0     H24700   4.591   1.794   4.598 -2.2666  1.4239  0.9928
  183MOL0     H24701   4.782   1.907   4.374 -0.9425  0.7163 -1.3622
  183MOL0     H24702   4.624   1.858   4.346 -1.7846 -1.1898  1.8204
  183MOL0     H24703   4.762   1.480   4.447  1.4597  0.4076  4.5163
  183MOL0     H24704   4.995   2.224   4.663  2.0478  1.6769  0.9454
  183MOL0     H24705   5.196   2.364   4.627 -0.5689 -0.6176  1.3522
  184MOL0     O24706   6.490   1.054   8.770 -0.4862 -0.7715  0.7385
  184MOL0     C24707   6.601   1.033   8.812 -0.2194 -0.3003  0.4150
  184MOL0     O24708   6.706   0.983   8.742  0.6861  0.2565  0.0990
  184MOL0     C24709   6.676   0.883   8.646  0.8914  1.0592 -0.0580
  184MOL0     C24710   6.566   0.879   8.551 -0.2936 -0.1085  0.5141
  184MOL0     C24711   6.560   0.776   8.457 -0.0302 -0.3436 -0.7779
  184MOL0     C24712   6.655   0.678   8.468 -0.4612 -0.0808  0.1308
  184MOL0     O24713   6.665   0.585   8.372 -0.3467  0.5946  0.5523
  184MOL0     C24714   6.552   0.490   8.365  0.2841  0.4167 -0.5761
  184MOL0     C24715   6.585   0.361   8.434 -0.1981 -0.3630  0.3662
  184MOL0     C24716   6.489   0.250   8.397 -0.2236  0.0381  0.3440
  184MOL0     C24717   6.346   0.286   8.439 -0.0852 -0.0240 -0.1451
  184MOL0     C24718   6.238   0.170   8.412  0.5907  0.9234  0.2115
  184MOL0     C24719   6.097   0.214   8.467 -1.0519  0.6161 -0.0377
  184MOL0     C24720   6.000   0.098   8.456 -1.0147 -0.1120  0.1370
  184MOL0     C24721   5.871   0.159   8.515 -0.4551 -0.2276  0.0223
  184MOL0     N24722   5.751   0.074   8.497  0.6866 -0.1741  0.1989
  184MOL0     C24723   5.712   0.042   8.371  0.5264 -0.2807 -0.0888
  184MOL0     C24724   5.625  -0.061   8.386  0.6174  0.9231 -0.4864
  184MOL0     C24725   5.548  -0.124   8.278 -0.6200  0.3687 -0.2455
  184MOL0     C24726   5.404  -0.156   8.332 -0.6343  0.7927 -0.6219
  184MOL0     C24727   5.308  -0.040   8.354  0.0650 -0.8152  0.2939
  184MOL0     C24728   5.170  -0.065   8.307  0.2732 -0.4047 -0.2223
  184MOL0     O24729   5.113  -0.171   8.384 -0.1426 -0.2351 -0.0426
  184MOL0     C24730   4.992  -0.214   8.343  0.1276  0.6559  0.4030
  184MOL0     C24731   4.918  -0.160   8.234  1.3309 -0.3081  0.3885
  184MOL0     C24732   4.778  -0.190   8.205 -0.2827  0.4775 -0.5452
  184MOL0     C24733   4.719  -0.120   8.084 -1.0244  0.7075  0.3052
  184MOL0     C24734   4.721  -0.294   8.282  0.5061  0.7040  0.3853
  184MOL0     C24735   4.579  -0.357   8.254 -0.8140 -0.7654 -0.1901
  184MOL0     O24736   4.551  -0.485   8.306 -0.4140  0.5310  0.4172
  184MOL0     C24737   4.455  -0.568   8.252  0.4831  0.0820 -0.1416
  184MOL0     C24738   4.398  -0.566   8.120  0.6358  0.7155 -0.6344
  184MOL0     C24739   4.292  -0.641   8.087  0.1064  0.5829 -0.0094
  184MOL0     C24740   4.223  -0.730   8.179 -0.7876 -0.3015 -0.1662
  184MOL0     O24741   4.123  -0.816   8.154  0.5372 -0.2290 -0.8739
  184MOL0     C24742   4.024  -0.761   8.059 -0.5898 -0.2672 -0.9644
  184MOL0     C24743   3.945  -0.642   8.105  0.8561 -0.6060 -0.0070
  184MOL0     C24744   3.897  -0.665   8.242 -0.6741 -0.4411  0.4640
  184MOL0     C24745   3.834  -0.529   8.286 -0.1913  0.0036  0.3425
  184MOL0     C24746   3.791  -0.526   8.435  0.0880 -0.7807 -0.1964
  184MOL0     C24747   3.826  -0.373   8.467  0.1965  0.6870 -0.5018
  184MOL0     C24748   3.783  -0.345   8.611 -1.2798 -0.4748 -0.3571
  184MOL0     C24749   3.798  -0.194   8.635 -0.2526 -0.3649  0.0317
  184MOL0    Cl24750   3.972  -0.143   8.632 -0.1164 -0.1741  0.2652
  184MOL0     C24751   4.277  -0.737   8.310 -0.3000 -0.4882 -0.8016
  184MOL0     C24752   4.388  -0.655   8.347  0.0416  0.4767  0.1571
  184MOL0     O24753   4.504  -0.287   8.175 -0.4583 -0.5140  0.6385
  184MOL0     C24754   4.795  -0.351   8.385  0.7147  0.3161 -0.8677
  184MOL0     C24755   4.931  -0.318   8.413 -0.5339 -0.4063 -0.5710
  184MOL0     N24756   5.600  -0.092   8.522 -0.1989 -0.2117 -0.6775
  184MOL0     N24757   5.695  -0.019   8.589 -0.6410  0.3508  0.2461
  184MOL0     C24758   6.763   0.689   8.553 -0.2460 -0.6139  0.6250
  184MOL0     C24759   6.776   0.786   8.650  0.0574  1.0528 -0.4067
  184MOL0     C24760   6.626   1.079   8.947 -0.5691  0.5708  1.5247
  184MOL0     C24761   6.518   1.091   9.030  0.8061  0.4883  0.7686
  184MOL0     C24762   6.533   1.165   9.152 -0.4539  0.4048  0.4894
  184MOL0     C24763   6.658   1.205   9.196  0.0995 -0.5139  0.2040
  184MOL0     O24764   6.689   1.273   9.312  0.3315 -0.5139  0.9897
  184MOL0     C24765   6.585   1.337   9.393  1.0385 -0.5295 -0.1918
  184MOL0     C24766   6.636   1.364   9.540  0.3925 -0.8824 -0.3819
  184MOL0     C24767   6.523   1.418   9.632  0.8114 -0.7408  0.0966
  184MOL0     C24768   6.557   1.442   9.783 -0.1036 -0.4403 -0.1955
  184MOL0     C24769   6.594   1.318   9.845  0.8679 -0.1228 -0.6800
  184MOL0     C24770   6.614   1.214   9.898 -0.1192  1.2352 -0.3378
  184MOL0     C24771   6.764   1.182   9.114  0.1334 -0.0702 -0.2914
  184MOL0     C24772   6.750   1.127   8.991 -0.2615 -0.4159 -0.4379
  184MOL0     H24773   6.490   0.956   8.555 -1.3969 -1.2239  2.3474
  184MOL0     H24774   6.481   0.769   8.384 -1.0853 -0.3066  0.3195
  184MOL0     H24775   6.464   0.523   8.422  1.6367  0.4112  1.6608
  184MOL0     H24776   6.523   0.466   8.263 -0.3587 -1.1455 -0.0519
  184MOL0     H24777   6.688   0.340   8.403 -0.0377 -0.9468  1.2475
  184MOL0     H24778   6.590   0.390   8.540  0.8820  0.8286  0.0181
  184MOL0     H24779   6.495   0.226   8.291  0.6613  2.5248 -0.2511
  184MOL0     H24780   6.511   0.157   8.450  1.9262  0.2313 -0.0849
  184MOL0     H24781   6.358   0.312   8.544 -2.9199 -2.8314  1.0459
  184MOL0     H24782   6.312   0.378   8.391 -0.8895 -0.4781 -0.4787
  184MOL0     H24783   6.219   0.166   8.304 -2.6534  1.5919  0.6419
  184MOL0     H24784   6.277   0.075   8.449 -1.4171 -1.0037 -2.2171
  184MOL0     H24785   6.117   0.235   8.573  2.4916  0.7325 -0.6062
  184MOL0     H24786   6.056   0.302   8.419 -1.5464  0.6309  0.4054
  184MOL0     H24787   5.975   0.074   8.352 -1.4465 -1.3756  0.5187
  184MOL0     H24788   6.030   0.003   8.503 -0.5914 -0.5371 -0.9674
  184MOL0     H24789   5.855   0.263   8.488  1.4229  0.1876  0.3650
  184MOL0     H24790   5.894   0.165   8.622  0.1761  2.0352 -0.2024
  184MOL0     H24791   5.752   0.063   8.273  2.6356  0.1159  0.8017
  184MOL0     H24792   5.552  -0.058   8.191  1.0617  3.4222  1.9774
  184MOL0     H24793   5.596  -0.213   8.236 -0.8820  0.0714  0.0725
  184MOL0     H24794   5.406  -0.219   8.422 -3.0077 -1.4529 -1.9957
  184MOL0     H24795   5.368  -0.220   8.250 -0.3481 -1.4359  0.8794
  184MOL0     H24796   5.339   0.054   8.307 -3.2426  0.0193 -0.4961
  184MOL0     H24797   5.291  -0.016   8.459 -0.3084 -1.7080  0.4482
  184MOL0     H24798   5.185  -0.079   8.200 -0.7885  0.8216 -0.5567
  184MOL0     H24799   5.098   0.015   8.327 -2.5683 -2.8936  0.2277
  184MOL0     H24800   4.960  -0.082   8.171 -1.8889 -0.0734 -1.7313
  184MOL0     H24801   4.690  -0.200   8.016 -1.0222 -0.0999  1.2226
  184MOL0     H24802   4.627  -0.071   8.115 -0.7163  1.4676  0.0347
  184MOL0     H24803   4.788  -0.043   8.048 -2.8870  0.5081 -4.2872
  184MOL0     H24804   4.437  -0.499   8.043  1.7184 -1.6265 -2.2607
  184MOL0     H24805   4.259  -0.618   7.986  1.4767  2.7888 -0.0242
  184MOL0     H24806   4.070  -0.752   7.960  0.6573 -1.8572 -0.5763
  184MOL0     H24807   3.948  -0.840   8.049 -2.2328  1.3735 -2.0786
  184MOL0     H24808   4.007  -0.552   8.096 -0.4034  0.4100  1.0876
  184MOL0     H24809   3.860  -0.633   8.037  2.4491 -0.0521 -2.0197
  184MOL0     H24810   3.975  -0.683   8.316  1.6939  1.3321 -1.4189
  184MOL0     H24811   3.834  -0.754   8.252 -1.0831 -0.2649 -0.3947
  184MOL0     H24812   3.903  -0.450   8.256  1.6656 -2.4963 -2.5924
  184MOL0     H24813   3.744  -0.530   8.224  0.1351  3.0709 -0.3135
  184MOL0     H24814   3.857  -0.592   8.493  1.3161 -0.2868 -1.0001
  184MOL0     H24815   3.688  -0.554   8.458  0.1994 -0.5465  0.6064
  184MOL0     H24816   3.933  -0.350   8.459  0.5600 -0.8130 -0.3076
  184MOL0     H24817   3.776  -0.309   8.394  3.3502 -0.2979 -3.8357
  184MOL0     H24818   3.848  -0.404   8.677 -0.6475 -0.4559 -0.9463
  184MOL0     H24819   3.681  -0.383   8.623 -1.4095  0.0854  0.3457
  184MOL0     H24820   3.759  -0.178   8.736  1.7935  0.7741  0.6780
  184MOL0     H24821   3.741  -0.130   8.567  0.5440  1.3072  0.8947
  184MOL0     H24822   4.245  -0.794   8.397 -1.2027  1.7805  0.4488
  184MOL0     H24823   4.418  -0.653   8.451 -2.4207  4.7386  1.0063
  184MOL0     H24824   4.754  -0.438   8.434 -3.1865  2.2509 -0.3025
  184MOL0     H24825   4.997  -0.359   8.488  0.3234  0.2234 -0.9715
  184MOL0     H24826   6.831   0.604   8.549  0.3895 -0.1980  2.0754
  184MOL0     H24827   6.867   0.786   8.709 -0.0236 -1.9052 -0.0900
  184MOL0     H24828   6.418   1.056   9.006  1.1136  0.9299 -1.3817
  184MOL0     H24829   6.439   1.164   9.205 -1.0165 -2.3051 -0.4378
  184MOL0     H24830   6.559   1.426   9.335 -1.1184 -0.6652  0.4745
  184MOL0     H24831   6.498   1.271   9.405 -0.4911  1.2285 -1.1733
  184MOL0     H24832   6.705   1.449   9.538 -1.0673  0.3428 -2.7383
  184MOL0     H24833   6.683   1.275   9.581  0.1593 -0.2110  1.4383
  184MOL0     H24834   6.427   1.366   9.625 -1.0393  2.3900  0.0551
  184MOL0     H24835   6.505   1.519   9.593 -0.4553 -0.9374  0.1376
  184MOL0     H24836   6.470   1.487   9.831 -0.0978  0.9912 -1.4497
  184MOL0     H24837   6.650   1.499   9.795  1.2089 -1.8923 -2.7083
  184MOL0     H24838   6.623   1.129   9.963  1.5327  0.2749 -1.7249
  184MOL0     H24839   6.859   1.234   9.118  1.1680 -1.8782  0.1689
  184MOL0     H24840   6.844   1.127   8.937  0.2481  4.2225 -0.0155
  185MOL0     O24841   4.780   1.907  11.160  0.1323  1.3374  0.2389
  185MOL0     C24842   4.827   1.963  11.258 -0.1146  0.1709  0.4107
  185MOL0     O24843   4.768   2.066  11.325 -0.0303 -0.7019 -0.4590
  185MOL0     C24844   4.634   2.088  11.284  0.0721 -0.9244  0.0648
  185MOL0     C24845   4.529   2.041  11.357 -0.3216  0.6888  0.0545
  185MOL0     C24846   4.398   2.071  11.323  0.1453 -0.5567 -0.4575
  185MOL0     C24847   4.374   2.144  11.208 -1.5374 -0.5091  0.7982
  185MOL0     O24848   4.242   2.156  11.170 -0.4845  0.3360 -0.1682
  185MOL0     C24849   4.181   2.272  11.231  0.1195 -0.4867  0.4303
  185MOL0     C24850   4.042   2.265  11.170  0.4295  0.2013 -0.3241
  185MOL0     C24851   3.954   2.381  11.238 -0.3716 -0.3568  0.6511
  185MOL0     C24852   3.803   2.370  11.213  0.3844  0.1147 -0.2578
  185MOL0     C24853   3.731   2.494  11.264  0.8256 -0.4823  0.3237
  185MOL0     C24854   3.580   2.490  11.259  0.6343 -0.3050 -0.0205
  185MOL0     C24855   3.518   2.472  11.124  0.2967  0.3347  0.0289
  185MOL0     C24856   3.565   2.555  11.006 -0.5663 -0.5126 -0.6440
  185MOL0     N24857   3.559   2.696  11.046 -0.6921  0.1389  0.2875
  185MOL0     C24858   3.439   2.760  11.046  0.6044 -0.0753 -0.6936
  185MOL0     C24859   3.468   2.890  11.077  0.8247 -0.2560 -0.2416
  185MOL0     C24860   3.359   2.991  11.110 -0.2690 -0.6517 -0.2118
  185MOL0     C24861   3.412   3.137  11.165  0.4882  1.0619  0.2078
  185MOL0     C24862   3.301   3.235  11.208  0.4900 -0.0475 -0.1861
  185MOL0     C24863   3.258   3.227  11.359 -0.9261 -0.6156 -0.0561
  185MOL0     O24864   3.365   3.281  11.443 -0.0960 -0.0558 -0.7349
  185MOL0     C24865   3.350   3.323  11.574 -0.2343  0.2045  0.1715
  185MOL0     C24866   3.453   3.394  11.632  0.6283  0.0977  0.7641
  185MOL0     C24867   3.446   3.447  11.759  0.5941 -0.4161  0.3729
  185MOL0     C24868   3.560   3.553  11.799 -0.0898 -0.1312 -0.4088
  185MOL0     C24869   3.332   3.415  11.833  0.6331 -0.3534  0.1505
  185MOL0     C24870   3.306   3.466  11.972 -0.4267  0.4241  0.1275
  185MOL0     O24871   3.194   3.404  12.040  0.1212 -0.3955 -0.1291
  185MOL0     C24872   3.127   3.454  12.155  0.3011  0.0479 -0.8317
  185MOL0     C24873   3.120   3.593  12.190 -0.9806 -0.1592  0.2605
  185MOL0     C24874   3.036   3.650  12.288  0.3174 -0.0129  0.2287
  185MOL0     C24875   2.950   3.561  12.358  0.4750 -0.1978 -0.2393
  185MOL0     O24876   2.846   3.595  12.447  0.7090 -0.4826  0.8584
  185MOL0     C24877   2.824   3.738  12.477 -1.1226 -0.6541 -0.2787
  185MOL0     C24878   2.730   3.762  12.599  0.4905  0.6335  0.1922
  185MOL0     C24879   2.816   3.712  12.716  0.2954  0.1453  0.4340
  185MOL0     C24880   2.751   3.722  12.856  0.2172 -0.1456  0.1258
  185MOL0     C24881   2.839   3.651  12.958 -0.4757 -0.4520  0.2627
  185MOL0     C24882   2.790   3.687  13.102 -0.2561  0.3064  0.5283
  185MOL0     C24883   2.860   3.597  13.208 -0.0772  0.3450  0.4210
  185MOL0     C24884   2.830   3.612  13.360  0.3659 -0.1135  0.6946
  185MOL0    Cl24885   2.653   3.596  13.396 -0.1115  0.1984  0.3330
  185MOL0     C24886   2.969   3.422  12.345  0.1844  0.2810  0.1236
  185MOL0     C24887   3.054   3.371  12.243  0.4338 -0.3295  0.1494
  185MOL0     O24888   3.380   3.557  12.024 -0.0416  0.9701  0.3151
  185MOL0     C24889   3.242   3.319  11.781  0.1320 -0.0028 -1.1395
  185MOL0     C24890   3.241   3.276  11.649 -0.1528 -0.7030  0.4638
  185MOL0     N24891   3.603   2.902  11.106 -0.3294 -0.7126  0.2453
  185MOL0     N24892   3.660   2.788  11.073  0.4688  0.5482 -0.1222
  185MOL0     C24893   4.478   2.204  11.137  0.0458 -0.4982  0.3448
  185MOL0     C24894   4.606   2.180  11.179 -0.4350  0.5895 -0.1939
  185MOL0     C24895   4.967   1.930  11.301 -1.1231 -0.1765 -0.0360
  185MOL0     C24896   5.042   1.826  11.242  0.5352  1.1417 -0.5975
  185MOL0     C24897   5.180   1.804  11.271 -0.9073  0.3055  0.1667
  185MOL0     C24898   5.244   1.892  11.365 -0.1430  0.9757  0.7757
  185MOL0     O24899   5.374   1.855  11.392 -0.6665 -0.1689  0.7205
  185MOL0     C24900   5.435   1.900  11.518  0.0309  0.2405  0.2980
  185MOL0     C24901   5.542   1.791  11.538 -0.2286  0.8373  0.4145
  185MOL0     C24902   5.609   1.808  11.671 -0.1217  0.6730 -0.2598
  185MOL0     C24903   5.742   1.744  11.687  0.4420  1.2103 -0.3267
  185MOL0     C24904   5.804   1.764  11.825 -0.3801  0.1673  0.4452
  185MOL0     C24905   5.837   1.795  11.935  0.1866  0.0082  0.2455
  185MOL0     C24906   5.169   1.992  11.429  0.5517 -0.0208 -0.0154
  185MOL0     C24907   5.033   2.014  11.395 -0.5076  0.0537 -0.5971
  185MOL0     H24908   4.556   1.963  11.427  0.3537 -1.9893 -2.9444
  185MOL0     H24909   4.306   2.028  11.361 -1.5940  1.8831 -1.5894
  185MOL0     H24910   4.170   2.273  11.339 -0.2567  2.2629  0.4335
  185MOL0     H24911   4.235   2.364  11.207 -2.2876  1.8927  3.2154
  185MOL0     H24912   4.045   2.281  11.062  0.2447 -2.3136 -0.7505
  185MOL0     H24913   3.999   2.166  11.189  2.1587 -0.9282 -1.9154
  185MOL0     H24914   3.963   2.385  11.347 -0.1524  1.6058  0.5997
  185MOL0     H24915   3.976   2.481  11.200 -2.4052 -0.8633 -2.1442
  185MOL0     H24916   3.785   2.351  11.107  0.7653 -1.6798 -0.0465
  185MOL0     H24917   3.760   2.283  11.263 -1.7651  1.5325  0.4660
  185MOL0     H24918   3.753   2.501  11.371  0.4988 -3.5759  0.7110
  185MOL0     H24919   3.764   2.586  11.217 -1.0762  0.3528  0.5021
  185MOL0     H24920   3.550   2.412  11.329 -0.1558  1.9475  2.3184
  185MOL0     H24921   3.541   2.582  11.305  0.1211 -0.9583  0.8716
  185MOL0     H24922   3.521   2.367  11.093  1.7549  0.0848  0.9174
  185MOL0     H24923   3.411   2.495  11.135  0.7784  2.2785  1.0551
  185MOL0     H24924   3.505   2.535  10.918 -2.3108 -1.0692  0.6177
  185MOL0     H24925   3.663   2.519  10.972 -0.0183 -0.0822  0.4322
  185MOL0     H24926   3.339   2.720  11.031  0.5772 -0.3116  0.0604
  185MOL0     H24927   3.298   2.994  11.019 -1.9765  0.6983  0.9360
  185MOL0     H24928   3.293   2.946  11.185  0.0902 -1.4911 -0.3860
  185MOL0     H24929   3.490   3.177  11.099  2.5825 -3.3626 -0.4080
  185MOL0     H24930   3.471   3.107  11.253 -1.7362 -1.4856  0.9640
  185MOL0     H24931   3.220   3.211  11.139  0.3285  0.3510 -0.1340
  185MOL0     H24932   3.326   3.337  11.178  1.4426 -0.7770 -2.0580
  185MOL0     H24933   3.241   3.120  11.378  2.0834 -1.0324  0.8037
  185MOL0     H24934   3.168   3.287  11.371  0.0032  0.4884  1.7907
  185MOL0     H24935   3.542   3.407  11.571  1.0500 -0.5585  1.2300
  185MOL0     H24936   3.621   3.507  11.877 -1.7366 -1.3389  0.2364
  185MOL0     H24937   3.610   3.592  11.710 -1.2748  3.8890  0.4551
  185MOL0     H24938   3.508   3.639  11.842 -1.4029 -0.4033 -1.3938
  185MOL0     H24939   3.155   3.669  12.121 -4.0501  1.7711  0.6287
  185MOL0     H24940   3.032   3.758  12.282 -0.6837 -0.0816 -0.5803
  185MOL0     H24941   2.922   3.782  12.495 -1.9226 -0.0418  3.3882
  185MOL0     H24942   2.785   3.791  12.389 -0.5798 -0.8424 -0.6374
  185MOL0     H24943   2.696   3.866  12.593 -2.2291 -0.1594  0.3730
  185MOL0     H24944   2.646   3.697  12.572  0.2527  1.7553 -2.0498
  185MOL0     H24945   2.912   3.766  12.720  0.9095 -0.9332  0.8484
  185MOL0     H24946   2.846   3.609  12.698  2.5285  0.4690  1.8039
  185MOL0     H24947   2.738   3.830  12.870  2.1667  0.1019  0.3268
  185MOL0     H24948   2.658   3.666  12.847  1.4501 -2.4398  0.6768
  185MOL0     H24949   2.943   3.684  12.951  0.2473 -2.4404  0.9299
  185MOL0     H24950   2.844   3.543  12.940 -1.7202 -0.3532 -0.7872
  185MOL0     H24951   2.820   3.789  13.131 -1.6183  0.4035  1.7072
  185MOL0     H24952   2.683   3.671  13.116 -0.0498  0.4555  2.5221
  185MOL0     H24953   2.969   3.598  13.199 -0.0866 -0.8177  0.0559
  185MOL0     H24954   2.832   3.495  13.179  1.7201  0.1600 -0.8342
  185MOL0     H24955   2.875   3.708  13.387  2.2800 -1.1297  1.2936
  185MOL0     H24956   2.880   3.529  13.410  1.3337 -1.2721 -1.9971
  185MOL0     H24957   2.913   3.354  12.407  0.2184  0.5809  0.4869
  185MOL0     H24958   3.050   3.264  12.231 -1.6077 -0.3905  0.8867
  185MOL0     H24959   3.151   3.292  11.832 -1.3044 -1.4646 -4.2482
  185MOL0     H24960   3.169   3.208  11.605  2.2229 -2.4195 -1.0282
  185MOL0     H24961   4.451   2.270  11.055 -0.8003  1.9907  2.4644
  185MOL0     H24962   4.679   2.231  11.117  1.6636 -1.8869  0.0572
  185MOL0     H24963   4.993   1.757  11.174 -0.4737 -1.8730  2.8849
  185MOL0     H24964   5.243   1.723  11.237 -0.1724  0.7618  0.4309
  185MOL0     H24965   5.482   1.997  11.499 -0.1539 -0.2699 -3.4330
  185MOL0     H24966   5.357   1.910  11.594  0.3061  2.1912  0.3689
  185MOL0     H24967   5.608   1.800  11.451  1.0178 -0.6118  1.1768
  185MOL0     H24968   5.501   1.690  11.536  1.0483  0.1929  2.9100
  185MOL0     H24969   5.539   1.767  11.744 -0.5313 -0.6921 -1.3774
  185MOL0     H24970   5.622   1.915  11.690  0.6667  0.3169  1.3753
  185MOL0     H24971   5.814   1.776  11.611  0.4772 -0.8372 -1.2047
  185MOL0     H24972   5.726   1.637  11.676 -1.3511  1.7129 -4.2675
  185MOL0     H24973   5.876   1.826  12.030  0.9162  0.4726 -0.1989
  185MOL0     H24974   5.210   2.046  11.514  0.3691  0.4759 -0.2343
  185MOL0     H24975   4.975   2.097  11.434 -1.3865 -0.0999 -1.5184
  186MOL0     O24976   0.678   3.790   0.896 -0.2333  0.1762  0.8069
  186MOL0     C24977   0.745   3.716   0.963  0.9635 -0.3356  0.0871
  186MOL0     O24978   0.692   3.618   1.040  0.7274  0.5228 -0.6342
  186MOL0     C24979   0.556   3.600   1.042 -0.1241  0.5341  0.3682
  186MOL0     C24980   0.474   3.640   1.150 -0.3196  0.0971 -0.8303
  186MOL0     C24981   0.337   3.633   1.141  0.8700 -0.4038  0.0351
  186MOL0     C24982   0.283   3.577   1.035  0.0860 -0.0047  0.8757
  186MOL0     O24983   0.149   3.558   1.023 -0.1201 -0.0188 -0.3523
  186MOL0     C24984   0.058   3.617   1.122 -0.3421 -0.2457 -0.3015
  186MOL0     C24985  -0.090   3.581   1.083  0.1124 -0.1724 -0.0442
  186MOL0     C24986  -0.193   3.639   1.188 -0.1687 -0.1446  0.1046
  186MOL0     C24987  -0.340   3.619   1.143  0.4207  0.8828  0.2601
  186MOL0     C24988  -0.431   3.690   1.248 -0.2886 -0.5590  0.2065
  186MOL0     C24989  -0.580   3.676   1.223 -0.7865  1.1322  0.7925
  186MOL0     C24990  -0.636   3.751   1.099  0.1442 -0.3330 -0.9685
  186MOL0     C24991  -0.768   3.690   1.053  0.0701  0.6130 -0.9587
  186MOL0     N24992  -0.868   3.697   1.159 -0.0426 -0.3973  0.1751
  186MOL0     C24993  -0.948   3.590   1.189  0.4558 -0.0037  0.3590
  186MOL0     C24994  -1.041   3.639   1.264 -0.0916  0.2629 -0.5667
  186MOL0     C24995  -1.137   3.535   1.334 -0.3491 -0.7282  0.2710
  186MOL0     C24996  -1.241   3.611   1.421  0.5496  0.3389 -0.8729
  186MOL0     C24997  -1.345   3.685   1.333  0.1740  0.0458  0.2565
  186MOL0     C24998  -1.451   3.769   1.405 -0.0386  0.1543 -0.1926
  186MOL0     O24999  -1.551   3.683   1.457 -0.2495 -0.5183 -1.3594
  186MOL0     C25000  -1.633   3.745   1.546 -0.6466 -0.4714 -0.9746
  186MOL0     C25001  -1.668   3.665   1.650  0.7430  0.5695  0.1893
  186MOL0     C25002  -1.743   3.717   1.762  0.8100  0.2507 -0.1209
  186MOL0     C25003  -1.776   3.618   1.868 -0.4937 -0.0851  0.5907
  186MOL0     C25004  -1.789   3.851   1.761  0.5387  0.5652  0.3813
  186MOL0     C25005  -1.878   3.913   1.865 -0.3507 -0.8204  0.5581
  186MOL0     O25006  -1.894   3.847   1.985  0.1387  1.0269 -0.1893
  186MOL0     C25007  -1.964   3.915   2.084 -1.5492 -0.2341  0.3190
  186MOL0     C25008  -1.901   3.982   2.187 -0.8168  0.8020  0.9284
  186MOL0     C25009  -1.974   4.031   2.288  0.6070  0.3135 -0.2058
  186MOL0     C25010  -2.113   4.020   2.291 -0.6469  0.0078 -0.5842
  186MOL0     O25011  -2.175   4.098   2.399  0.6270 -0.3229  0.4995
  186MOL0     C25012  -2.114   4.089   2.527  0.1350 -0.5736 -0.7121
  186MOL0     C25013  -2.224   4.098   2.628 -0.2535  0.1435 -1.4065
  186MOL0     C25014  -2.305   4.237   2.622  0.3955  0.1762 -0.1810
  186MOL0     C25015  -2.428   4.228   2.723  0.0761 -0.3798  0.0605
  186MOL0     C25016  -2.506   4.356   2.727  0.4466 -0.1045 -0.3437
  186MOL0     C25017  -2.637   4.322   2.803 -0.0674  1.3519  0.3435
  186MOL0     C25018  -2.717   4.442   2.854  0.0205  0.8910  0.8127
  186MOL0     C25019  -2.752   4.551   2.746 -0.8088  0.7677 -0.1983
  186MOL0    Cl25020  -2.897   4.632   2.794 -0.0712 -0.2577 -0.5440
  186MOL0     C25021  -2.184   3.962   2.180  0.5174 -0.8879 -0.5842
  186MOL0     C25022  -2.103   3.902   2.076  0.0571  0.4795 -0.9296
  186MOL0     O25023  -1.921   4.027   1.839  0.1789 -0.1890 -0.2836
  186MOL0     C25024  -1.750   3.929   1.645  0.2299  0.3567 -0.5234
  186MOL0     C25025  -1.676   3.878   1.543  0.0528  0.0364  0.7844
  186MOL0     N25026  -1.028   3.776   1.264  0.0721 -0.1231 -0.2010
  186MOL0     N25027  -0.924   3.811   1.193 -0.3087 -0.8661  0.2084
  186MOL0     C25028   0.362   3.510   0.934  0.2415  0.1962  0.6762
  186MOL0     C25029   0.494   3.527   0.941 -0.8741  0.1026 -0.0711
  186MOL0     C25030   0.899   3.738   0.971  0.0180  0.4442  0.2374
  186MOL0     C25031   0.962   3.846   0.904 -1.1841 -0.7251 -1.0007
  186MOL0     C25032   1.100   3.855   0.907 -0.1667 -0.9301  0.5069
  186MOL0     C25033   1.177   3.774   0.983 -0.5243 -0.3003 -0.0015
  186MOL0     O25034   1.306   3.810   0.979  0.5530  0.5028 -0.4715
  186MOL0     C25035   1.387   3.754   1.092 -0.4829  0.4027 -0.6643
  186MOL0     C25036   1.511   3.842   1.104  0.0027  0.0430 -0.9409
  186MOL0     C25037   1.614   3.808   0.999 -1.5089  0.0491  1.6398
  186MOL0     C25038   1.580   3.810   0.845 -0.4247  0.7351 -0.3457
  186MOL0     C25039   1.698   3.800   0.762 -0.3160  0.1000 -0.0329
  186MOL0     C25040   1.799   3.784   0.695  0.0376  0.2568 -0.4570
  186MOL0     C25041   1.121   3.658   1.040  0.1595  0.9243  0.4681
  186MOL0     C25042   0.981   3.637   1.036 -0.8137 -0.1940  0.0173
  186MOL0     H25043   0.512   3.687   1.240 -1.5185 -0.3996 -0.0428
  186MOL0     H25044   0.276   3.671   1.223 -1.7563 -1.0934 -1.4601
  186MOL0     H25045   0.083   3.578   1.221  0.5071  2.1509  0.4890
  186MOL0     H25046   0.065   3.725   1.133  0.7998 -0.4543  1.4639
  186MOL0     H25047  -0.114   3.609   0.980 -4.0993  1.0922  1.0677
  186MOL0     H25048  -0.100   3.473   1.088  1.3280 -0.2655  1.1010
  186MOL0     H25049  -0.177   3.575   1.275  1.0636 -0.8262 -0.5854
  186MOL0     H25050  -0.165   3.739   1.223 -0.0104 -0.7468  1.8043
  186MOL0     H25051  -0.356   3.669   1.047 -1.0704 -1.5623 -0.8470
  186MOL0     H25052  -0.374   3.517   1.124 -0.4689  1.2667 -0.2335
  186MOL0     H25053  -0.407   3.634   1.338  3.3857  1.0838  0.4106
  186MOL0     H25054  -0.412   3.798   1.252 -0.1370 -0.3774 -2.9388
  186MOL0     H25055  -0.588   3.569   1.201  0.8936  1.3813 -1.4685
  186MOL0     H25056  -0.634   3.705   1.313 -5.2538 -0.4957 -1.0625
  186MOL0     H25057  -0.651   3.853   1.135  1.2000 -0.6006  0.3478
  186MOL0     H25058  -0.570   3.746   1.012  2.9103 -1.6101  1.0297
  186MOL0     H25059  -0.755   3.585   1.025  1.3875  0.4019  0.3093
  186MOL0     H25060  -0.811   3.736   0.963 -1.4154  1.0738 -0.0454
  186MOL0     H25061  -0.923   3.486   1.175 -1.1886 -0.3629 -0.2051
  186MOL0     H25062  -1.166   3.468   1.253  2.3027 -1.8954  0.1977
  186MOL0     H25063  -1.072   3.480   1.403  1.3122  0.6340 -0.1437
  186MOL0     H25064  -1.197   3.680   1.494 -3.5033  3.1829 -0.7858
  186MOL0     H25065  -1.290   3.536   1.483  2.3506 -0.8133 -0.7577
  186MOL0     H25066  -1.395   3.617   1.264 -2.9560  3.4626 -1.1188
  186MOL0     H25067  -1.291   3.758   1.272  1.4694 -0.4395  0.7820
  186MOL0     H25068  -1.500   3.831   1.330 -3.2534 -2.2545 -0.3084
  186MOL0     H25069  -1.398   3.827   1.481  0.4486 -0.6895  0.1286
  186MOL0     H25070  -1.639   3.561   1.646  0.1237  0.3755  0.5786
  186MOL0     H25071  -1.713   3.530   1.860 -4.2541 -2.9006 -1.3101
  186MOL0     H25072  -1.767   3.656   1.970  0.2102  0.3657  0.3655
  186MOL0     H25073  -1.875   3.574   1.850 -0.5116 -0.5430  1.6917
  186MOL0     H25074  -1.792   3.986   2.184 -0.5708  0.7931  5.0037
  186MOL0     H25075  -1.913   4.068   2.370  3.3525  0.0903 -2.0251
  186MOL0     H25076  -2.057   3.998   2.547  2.7092  1.0680 -0.1625
  186MOL0     H25077  -2.053   4.177   2.549 -1.5557  1.0762 -2.3811
  186MOL0     H25078  -2.296   4.016   2.616  0.7684 -1.1585  0.6986
  186MOL0     H25079  -2.174   4.083   2.724 -2.8428  0.9779  0.1702
  186MOL0     H25080  -2.342   4.237   2.519  1.8234  0.1210 -0.7104
  186MOL0     H25081  -2.229   4.313   2.640  0.3954 -0.1372  1.2779
  186MOL0     H25082  -2.496   4.151   2.687 -2.5246  0.3501  2.9861
  186MOL0     H25083  -2.400   4.204   2.825  1.4457 -1.4518 -0.5327
  186MOL0     H25084  -2.528   4.406   2.633  1.8881 -0.1231 -0.7127
  186MOL0     H25085  -2.446   4.428   2.784 -0.1540  1.0149 -1.1104
  186MOL0     H25086  -2.708   4.281   2.730  1.5607  0.1586 -0.6588
  186MOL0     H25087  -2.621   4.249   2.883 -2.5541 -1.5835 -1.5913
  186MOL0     H25088  -2.653   4.476   2.934  1.4759  1.3019 -0.4819
  186MOL0     H25089  -2.807   4.401   2.901 -1.5121  3.0461 -0.0959
  186MOL0     H25090  -2.763   4.497   2.652 -1.5314  2.9901 -1.4781
  186MOL0     H25091  -2.672   4.626   2.742 -0.7292  0.7432  0.6683
  186MOL0     H25092  -2.290   3.948   2.195  0.9399 -1.3419  3.0563
  186MOL0     H25093  -2.145   3.826   2.011  0.6291 -0.1760 -0.5478
  186MOL0     H25094  -1.763   4.036   1.644  3.3013  1.0017  3.3574
  186MOL0     H25095  -1.647   3.939   1.458 -0.5880  0.5271  0.9089
  186MOL0     H25096   0.328   3.462   0.843  0.6758  0.5027  0.3503
  186MOL0     H25097   0.558   3.498   0.859  0.4011 -0.4998  1.0862
  186MOL0     H25098   0.910   3.933   0.866  1.7149  1.1748 -0.9934
  186MOL0     H25099   1.130   3.951   0.867 -1.6496 -0.4809  0.4228
  186MOL0     H25100   1.340   3.778   1.189  1.5115  0.7746  0.2577
  186MOL0     H25101   1.410   3.648   1.085  1.4799  0.5930  1.5886
  186MOL0     H25102   1.550   3.814   1.203 -3.7227 -1.2901  0.3099
  186MOL0     H25103   1.480   3.946   1.093 -0.9672 -0.1427 -0.1383
  186MOL0     H25104   1.660   3.713   1.025 -2.1761 -0.7926 -0.1222
  186MOL0     H25105   1.692   3.884   1.005  1.4994 -2.6728  0.0837
  186MOL0     H25106   1.521   3.895   0.811 -1.5870 -1.1292 -3.3934
  186MOL0     H25107   1.527   3.719   0.816  1.5069 -2.1664  4.0130
  186MOL0     H25108   1.891   3.766   0.642 -0.2753  1.6169 -1.4993
  186MOL0     H25109   1.186   3.584   1.085 -2.4454 -2.6785 -1.2058
  186MOL0     H25110   0.941   3.545   1.077  0.7829 -1.5039 -1.2082
  187MOL0     O25111   9.962   3.515  11.236  0.0444 -0.2641 -0.2771
  187MOL0     C25112   9.975   3.399  11.196 -0.0321 -1.0014  0.2203
  187MOL0     O25113   9.869   3.306  11.187  0.5523  1.0395  0.2742
  187MOL0     C25114   9.737   3.357  11.183 -0.4742  0.1479  1.1015
  187MOL0     C25115   9.651   3.312  11.287 -0.2852  0.6893 -0.9499
  187MOL0     C25116   9.511   3.333  11.275  0.4796 -0.4820  0.6356
  187MOL0     C25117   9.459   3.406  11.161 -0.6295 -0.2308  0.2176
  187MOL0     O25118   9.328   3.416  11.142  0.2322  0.0826  0.1343
  187MOL0     C25119   9.275   3.545  11.111  0.5578  0.3369 -0.4286
  187MOL0     C25120   9.225   3.525  10.961 -1.1462 -0.6582 -0.2757
  187MOL0     C25121   9.086   3.467  10.961 -0.9192  0.3505  0.0361
  187MOL0     C25122   8.973   3.574  10.984 -0.3341  0.7554 -0.1385
  187MOL0     C25123   8.839   3.529  11.017 -0.2428 -0.7598  0.1736
  187MOL0     C25124   8.748   3.643  11.059  0.3093 -0.0503  0.1993
  187MOL0     C25125   8.605   3.600  11.072  0.2241 -0.6526 -0.3895
  187MOL0     C25126   8.516   3.697  11.147 -0.4269 -0.5657  0.4199
  187MOL0     N25127   8.377   3.653  11.136  0.9773 -0.3509  0.7892
  187MOL0     C25128   8.326   3.571  11.229  0.3400  0.1926 -0.4966
  187MOL0     C25129   8.192   3.564  11.197 -0.4354  0.6311  0.1800
  187MOL0     C25130   8.103   3.471  11.285 -0.7114  0.1116  0.1345
  187MOL0     C25131   7.991   3.413  11.200  0.8645 -0.1053 -0.0043
  187MOL0     C25132   7.887   3.368  11.308  0.7654  0.0203  0.8945
  187MOL0     C25133   7.913   3.229  11.359 -0.5722  0.4427  0.6579
  187MOL0     O25134   7.899   3.137  11.251 -0.9182 -0.5508  0.3807
  187MOL0     C25135   7.776   3.106  11.203 -0.2983 -0.2823  0.2238
  187MOL0     C25136   7.777   3.024  11.098  0.3570  0.4922  0.0292
  187MOL0     C25137   7.662   2.961  11.045 -0.8429 -0.0785  0.2514
  187MOL0     C25138   7.687   2.852  10.950 -0.6832  0.6729 -0.3910
  187MOL0     C25139   7.539   2.997  11.092 -0.0301 -0.0494 -0.2898
  187MOL0     C25140   7.411   2.935  11.055  0.0418  0.1127 -0.3857
  187MOL0     O25141   7.400   2.903  10.931 -0.9515 -1.4557 -0.5478
  187MOL0     C25142   7.307   2.808  10.895  0.5086 -0.9749  0.6012
  187MOL0     C25143   7.178   2.848  10.857  0.1504  1.1141 -0.4156
  187MOL0     C25144   7.086   2.746  10.818  0.1623 -0.6705 -0.0801
  187MOL0     C25145   7.124   2.611  10.804 -0.2758  0.9952 -0.0511
  187MOL0     O25146   7.034   2.514  10.755 -0.0418 -0.1948  0.3346
  187MOL0     C25147   6.934   2.560  10.664  0.3311  0.4756 -0.8041
  187MOL0     C25148   6.843   2.438  10.646  0.3461 -0.5309  0.4634
  187MOL0     C25149   6.696   2.461  10.629  0.3468  0.5505  0.5957
  187MOL0     C25150   6.653   2.532  10.497  0.5634  0.4099 -0.1288
  187MOL0     C25151   6.510   2.525  10.453  0.6634 -0.5256 -0.1467
  187MOL0     C25152   6.476   2.573  10.310 -0.1656 -0.6101  0.0740
  187MOL0     C25153   6.516   2.467  10.210 -0.4813  0.2637 -0.0666
  187MOL0     C25154   6.479   2.500  10.069 -0.3459  0.1855  0.1444
  187MOL0    Cl25155   6.309   2.529  10.063 -0.2194  0.3255  0.5454
  187MOL0     C25156   7.256   2.581  10.845  0.4673  0.2568 -0.0035
  187MOL0     C25157   7.347   2.674  10.891  0.0010 -0.6773 -0.0346
  187MOL0     O25158   7.322   2.919  11.138 -0.2328 -0.5177 -0.4431
  187MOL0     C25159   7.539   3.083  11.207  0.3060  0.5350 -0.3613
  187MOL0     C25160   7.651   3.139  11.257  0.9863 -0.3286  0.9716
  187MOL0     N25161   8.163   3.652  11.094  0.7269 -1.0430 -0.0187
  187MOL0     N25162   8.280   3.699  11.058  0.6700 -0.0392  0.7221
  187MOL0     C25163   9.551   3.458  11.070  0.1441  0.3730  0.8222
  187MOL0     C25164   9.690   3.438  11.076  0.2260 -0.2809  0.3100
  187MOL0     C25165  10.118   3.370  11.162  0.4190  0.0254 -0.2861
  187MOL0     C25166  10.131   3.242  11.120 -0.2233  0.6688 -0.5089
  187MOL0     C25167  10.249   3.196  11.070  0.8985 -0.3291  1.0181
  187MOL0     C25168  10.364   3.278  11.068  0.6102  0.3273 -0.2861
  187MOL0     O25169  10.486   3.229  11.018  0.0799  0.4108 -0.2591
  187MOL0     C25170  10.483   3.150  10.892 -0.5394  0.7333 -0.6126
  187MOL0     C25171  10.598   3.201  10.805 -1.1718  0.6035  0.5376
  187MOL0     C25172  10.601   3.158  10.656  0.6686 -0.7013  0.1621
  187MOL0     C25173  10.686   3.251  10.574 -0.8364  0.9357 -0.3701
  187MOL0     C25174  10.827   3.258  10.608  0.7931 -0.1822 -0.6168
  187MOL0     C25175  10.944   3.268  10.626  0.0085 -0.4201  0.0018
  187MOL0     C25176  10.353   3.404  11.126 -0.5607 -0.6711 -0.9462
  187MOL0     C25177  10.225   3.455  11.163 -0.3275 -0.4128  0.2359
  187MOL0     H25178   9.696   3.252  11.366  2.4636  2.4038 -1.0946
  187MOL0     H25179   9.436   3.316  11.352 -0.5626  3.1585  0.5877
  187MOL0     H25180   9.195   3.573  11.180  1.1501 -1.2714  0.9775
  187MOL0     H25181   9.338   3.634  11.111 -0.7990  1.4570 -3.5435
  187MOL0     H25182   9.211   3.622  10.913 -0.5328 -1.0299 -1.2439
  187MOL0     H25183   9.308   3.475  10.911 -0.0380  1.5361 -0.7462
  187MOL0     H25184   9.071   3.426  10.860 -1.0099  2.2999 -0.7754
  187MOL0     H25185   9.079   3.384  11.032 -0.3495  2.0977  2.2282
  187MOL0     H25186   9.007   3.648  11.057  0.5462  0.1772  0.0559
  187MOL0     H25187   8.957   3.623  10.888  2.1081  1.1620 -0.3906
  187MOL0     H25188   8.799   3.471  10.932 -5.5423  1.6616  0.6008
  187MOL0     H25189   8.855   3.462  11.102  2.9961  0.9018  1.0122
  187MOL0     H25190   8.777   3.674  11.160 -2.5834 -0.8813  1.3846
  187MOL0     H25191   8.752   3.730  10.993  2.4869 -0.2285  0.0181
  187MOL0     H25192   8.562   3.591  10.972  0.4239  1.3701 -0.7012
  187MOL0     H25193   8.600   3.499  11.115 -0.7777 -1.1097 -1.5254
  187MOL0     H25194   8.519   3.798  11.105 -1.3799 -0.3608  0.8292
  187MOL0     H25195   8.558   3.720  11.245 -2.0914 -0.4615  1.1392
  187MOL0     H25196   8.380   3.540  11.318  2.2265  3.3277 -0.4005
  187MOL0     H25197   8.154   3.385  11.329  2.1491  2.3077  1.5007
  187MOL0     H25198   8.062   3.536  11.363  0.0417  0.2831  0.3925
  187MOL0     H25199   8.026   3.348  11.120 -0.5070  0.5609 -1.2040
  187MOL0     H25200   7.935   3.492  11.148 -1.0822 -0.7237  1.0678
  187MOL0     H25201   7.786   3.378  11.269  0.2551 -0.6960  1.9981
  187MOL0     H25202   7.880   3.426  11.401 -1.5361 -0.8350  1.3212
  187MOL0     H25203   7.829   3.207  11.426 -3.2535  1.0408 -2.2247
  187MOL0     H25204   8.008   3.228  11.412  1.1616  5.2353 -1.7576
  187MOL0     H25205   7.874   2.988  11.067  1.0058  0.5120  1.9146
  187MOL0     H25206   7.789   2.813  10.941 -0.3679  1.5855 -0.9119
  187MOL0     H25207   7.638   2.763  10.991  1.3814  0.1049  0.9997
  187MOL0     H25208   7.647   2.874  10.850  1.1215 -1.1569 -1.5796
  187MOL0     H25209   7.152   2.953  10.859  1.2950  1.3964  0.5655
  187MOL0     H25210   6.985   2.772  10.788  0.0321 -0.0107  0.9142
  187MOL0     H25211   6.866   2.633  10.708 -1.8665 -1.9027  0.0244
  187MOL0     H25212   6.980   2.592  10.570  1.6267  1.1451  0.0275
  187MOL0     H25213   6.879   2.388  10.556  2.2258  3.8475 -1.5344
  187MOL0     H25214   6.850   2.370  10.731  1.9139 -1.8895 -0.6955
  187MOL0     H25215   6.659   2.522  10.712 -0.4531  0.6915  0.1454
  187MOL0     H25216   6.642   2.366  10.633  1.4740 -0.0901  1.2032
  187MOL0     H25217   6.679   2.638  10.503 -0.2356  0.7148 -1.6227
  187MOL0     H25218   6.713   2.484  10.419 -0.3154 -2.9366  1.0618
  187MOL0     H25219   6.455   2.596  10.515  2.6251  2.2950 -1.4254
  187MOL0     H25220   6.466   2.425  10.460  0.7277 -0.5221  0.2904
  187MOL0     H25221   6.368   2.591  10.314 -0.5583 -2.1457 -1.9163
  187MOL0     H25222   6.536   2.662  10.288  0.3868 -0.8332  0.6649
  187MOL0     H25223   6.486   2.366  10.238 -1.4010  1.0789  2.0701
  187MOL0     H25224   6.626   2.465  10.213 -0.4757  0.8339  0.1973
  187MOL0     H25225   6.515   2.416  10.009 -2.6281 -0.7501 -0.0059
  187MOL0     H25226   6.537   2.587  10.037  0.0990 -0.4327 -0.7744
  187MOL0     H25227   7.278   2.476  10.833  1.8868  0.6857 -1.4292
  187MOL0     H25228   7.447   2.640  10.915  0.8826  0.5696 -1.7417
  187MOL0     H25229   7.444   3.116  11.249 -0.5909  1.1389 -2.6659
  187MOL0     H25230   7.641   3.209  11.339  1.4578  0.3829  0.4367
  187MOL0     H25231   9.531   3.529  10.990  0.6066 -0.2027  0.1855
  187MOL0     H25232   9.747   3.473  10.990 -2.4004  0.2747 -1.3077
  187MOL0     H25233  10.062   3.159  11.131 -1.1683  1.3230 -1.3103
  187MOL0     H25234  10.251   3.095  11.030 -1.7789  0.3432 -1.0565
  187MOL0     H25235  10.503   3.046  10.916  1.8572  1.1045 -0.7673
  187MOL0     H25236  10.388   3.165  10.841  0.3512  0.0513 -2.5691
  187MOL0     H25237  10.697   3.179  10.845 -2.3992 -0.8173  2.9883
  187MOL0     H25238  10.589   3.310  10.803 -0.2009  0.6839  0.0959
  187MOL0     H25239  10.501   3.152  10.613  1.2137 -2.3750 -0.9769
  187MOL0     H25240  10.639   3.056  10.645 -1.5155 -1.5017 -0.4863
  187MOL0     H25241  10.648   3.354  10.580  1.2204  1.7396 -0.0962
  187MOL0     H25242  10.681   3.219  10.469 -2.2141  1.9349 -0.6504
  187MOL0     H25243  11.047   3.280  10.654  0.0649 -0.1326 -0.3296
  187MOL0     H25244  10.446   3.459  11.139 -0.7828 -0.5081  0.0396
  187MOL0     H25245  10.213   3.554  11.207 -1.1759 -1.5215  2.7063
  188MOL0     O25246   5.259   9.765   2.675  0.3230 -0.0392 -0.4426
  188MOL0     C25247   5.356   9.691   2.647 -0.3001  0.6385 -0.0480
  188MOL0     O25248   5.345   9.560   2.619  0.1050  0.5037  0.3224
  188MOL0     C25249   5.226   9.494   2.632  0.7623  0.5294  0.1041
  188MOL0     C25250   5.115   9.535   2.709 -0.0000 -0.3093 -0.5799
  188MOL0     C25251   5.000   9.455   2.719 -0.8889 -0.3355  0.5875
  188MOL0     C25252   4.990   9.340   2.648  0.4731 -0.2398 -0.2048
  188MOL0     O25253   4.870   9.276   2.662  0.6080  0.6225  0.8980
  188MOL0     C25254   4.790   9.251   2.544  0.1122 -0.2465 -0.3856
  188MOL0     C25255   4.654   9.198   2.584 -0.9027 -0.0248  0.0152
  188MOL0     C25256   4.542   9.195   2.478 -0.8957 -0.2832 -0.0318
  188MOL0     C25257   4.593   9.108   2.363 -1.1555 -1.6305 -0.0022
  188MOL0     C25258   4.504   9.108   2.238  0.6945 -0.0327 -0.1555
  188MOL0     C25259   4.372   9.040   2.275 -0.2946 -0.2785 -0.2449
  188MOL0     C25260   4.290   8.990   2.152  0.2575 -0.8546 -0.2808
  188MOL0     C25261   4.245   9.103   2.063  0.1314  0.2529  0.3067
  188MOL0     N25262   4.124   9.070   1.986 -0.1345 -0.5209  0.5782
  188MOL0     C25263   3.999   9.140   2.014 -0.6170 -0.1492  0.5353
  188MOL0     C25264   3.913   9.092   1.924 -0.2332 -0.5805  1.0886
  188MOL0     C25265   3.775   9.152   1.917 -0.4195  0.2118 -0.7078
  188MOL0     C25266   3.679   9.055   1.997  0.4825 -0.2948  0.4837
  188MOL0     C25267   3.532   9.090   1.970 -0.0173 -0.0965  0.1050
  188MOL0     C25268   3.438   9.003   2.062 -0.7838 -0.4713  0.1680
  188MOL0     O25269   3.490   8.872   2.090 -0.0922 -0.2901  0.4557
  188MOL0     C25270   3.407   8.764   2.130  0.1903  0.0361  0.0672
  188MOL0     C25271   3.458   8.637   2.130  0.0315  0.3485 -0.3208
  188MOL0     C25272   3.373   8.531   2.158 -0.5779  0.9761 -0.1091
  188MOL0     C25273   3.436   8.395   2.152  0.7118  0.5330 -0.1560
  188MOL0     C25274   3.242   8.553   2.199 -0.4489  1.0043  0.1417
  188MOL0     C25275   3.154   8.441   2.229 -0.0626 -0.1972  0.2321
  188MOL0     O25276   3.073   8.455   2.336  1.1655 -0.3455 -0.2161
  188MOL0     C25277   2.997   8.348   2.385 -0.7471 -0.3051  0.1717
  188MOL0     C25278   3.054   8.229   2.422  0.5906  0.0959 -1.2114
  188MOL0     C25279   2.964   8.127   2.470  0.1571 -0.5793 -0.3468
  188MOL0     C25280   2.825   8.154   2.471 -0.0570  0.4925  0.2101
  188MOL0     O25281   2.729   8.077   2.517 -0.2481  0.0583  0.4125
  188MOL0     C25282   2.768   7.968   2.591 -0.1018 -0.2732 -0.1372
  188MOL0     C25283   2.650   7.934   2.679 -1.2423 -0.2426 -0.6804
  188MOL0     C25284   2.667   7.810   2.760  0.3434  1.2295 -0.3727
  188MOL0     C25285   2.537   7.743   2.805  0.3641  0.5526 -0.3708
  188MOL0     C25286   2.573   7.616   2.891 -0.2022 -0.9169  0.0515
  188MOL0     C25287   2.612   7.647   3.038  0.4228 -0.7170 -0.4291
  188MOL0     C25288   2.627   7.520   3.120 -0.1810  0.3862 -0.2432
  188MOL0     C25289   2.650   7.538   3.267 -0.3210 -0.6722 -0.6040
  188MOL0    Cl25290   2.510   7.505   3.372 -0.4050 -0.0696 -0.5126
  188MOL0     C25291   2.783   8.278   2.438 -0.9639 -1.0074  0.3323
  188MOL0     C25292   2.860   8.383   2.396  0.1420  0.0289 -0.2440
  188MOL0     O25293   3.144   8.344   2.151 -0.5740  0.1356  0.5024
  188MOL0     C25294   3.196   8.681   2.214 -0.0618  0.2432  0.4186
  188MOL0     C25295   3.272   8.790   2.171 -0.5236 -0.2278  1.1495
  188MOL0     N25296   3.982   9.009   1.827  0.7000 -0.1772  0.0829
  188MOL0     N25297   4.105   9.006   1.867  0.2125 -0.7366  0.6022
  188MOL0     C25298   5.093   9.303   2.564 -0.0164 -0.3185  0.1019
  188MOL0     C25299   5.214   9.372   2.569  0.2630  0.2608 -0.7108
  188MOL0     C25300   5.478   9.753   2.629 -0.4079 -0.3573  0.5676
  188MOL0     C25301   5.499   9.881   2.696 -0.6657  0.2222  0.6468
  188MOL0     C25302   5.624   9.946   2.678 -0.3328 -0.3874 -0.0328
  188MOL0     C25303   5.722   9.896   2.596 -0.4828 -0.1880  0.0327
  188MOL0     O25304   5.837   9.971   2.568  0.1025  0.1593  0.0020
  188MOL0     C25305   5.968   9.909   2.570  0.0997  0.7418  0.5987
  188MOL0     C25306   6.050   9.954   2.449 -0.4840  0.5015  0.1461
  188MOL0     C25307   6.200   9.940   2.481 -0.4845 -0.5282  0.2085
  188MOL0     C25308   6.287   9.996   2.366 -0.0534  0.5595  0.7016
  188MOL0     C25309   6.425   9.935   2.376 -0.8942 -0.5638  0.0932
  188MOL0     C25310   6.547   9.917   2.398  0.6044 -0.9402  1.3965
  188MOL0     C25311   5.704   9.774   2.529  0.4250 -0.6210  0.7224
  188MOL0     C25312   5.581   9.703   2.545 -0.4499 -0.0239 -0.3017
  188MOL0     H25313   5.106   9.621   2.774 -2.7171 -0.7701 -0.2300
  188MOL0     H25314   4.921   9.482   2.788  0.7844  1.8527  1.7537
  188MOL0     H25315   4.777   9.334   2.475  0.7110  0.4881  0.3607
  188MOL0     H25316   4.846   9.175   2.489  0.6438 -0.6172  0.6273
  188MOL0     H25317   4.680   9.097   2.615 -0.2322 -0.9867 -3.2360
  188MOL0     H25318   4.615   9.250   2.671  0.8531 -0.2545  0.9866
  188MOL0     H25319   4.450   9.153   2.519  0.5426 -2.6527  0.9714
  188MOL0     H25320   4.515   9.293   2.437 -0.1920 -0.8955 -2.1175
  188MOL0     H25321   4.695   9.138   2.335 -1.0354 -0.8998  1.1443
  188MOL0     H25322   4.599   9.007   2.407 -0.9782 -1.1097  1.2150
  188MOL0     H25323   4.492   9.210   2.201  2.3411  0.0956 -0.4073
  188MOL0     H25324   4.545   9.049   2.156 -0.2758 -1.3888  0.3120
  188MOL0     H25325   4.372   8.962   2.351 -2.5781  0.4037  0.5540
  188MOL0     H25326   4.307   9.120   2.312 -0.9576 -0.3000 -1.3024
  188MOL0     H25327   4.350   8.922   2.091  0.8730  0.0167 -0.6612
  188MOL0     H25328   4.203   8.934   2.188 -2.5278  1.2767 -3.1156
  188MOL0     H25329   4.328   9.119   1.994 -0.6430  2.8284 -0.1476
  188MOL0     H25330   4.228   9.183   2.136  2.0431 -1.2440  2.5340
  188MOL0     H25331   3.964   9.213   2.086 -1.9314  0.6176 -0.8262
  188MOL0     H25332   3.777   9.252   1.963  0.6482  1.8413 -3.9561
  188MOL0     H25333   3.741   9.156   1.813  2.7962 -1.3239 -1.9335
  188MOL0     H25334   3.702   9.059   2.104  3.0385  0.1823 -0.0212
  188MOL0     H25335   3.710   8.952   1.978 -1.1994 -0.4689 -1.7488
  188MOL0     H25336   3.492   9.074   1.869 -1.7619 -2.3635  1.0647
  188MOL0     H25337   3.517   9.198   1.985  3.7655  0.4240  1.1468
  188MOL0     H25338   3.341   9.008   2.011 -0.2725 -0.2424 -0.7830
  188MOL0     H25339   3.424   9.058   2.156  2.1870  1.2121 -0.2527
  188MOL0     H25340   3.563   8.623   2.105 -0.4344 -0.7615 -1.7755
  188MOL0     H25341   3.390   8.308   2.200  1.5580 -2.5770 -4.3852
  188MOL0     H25342   3.430   8.363   2.047  0.9238 -2.7011  0.6881
  188MOL0     H25343   3.544   8.405   2.165  0.4464  2.0092  1.0769
  188MOL0     H25344   3.158   8.216   2.395  0.8359 -1.4856  0.3121
  188MOL0     H25345   3.006   8.032   2.504 -0.1244 -0.5617  0.0593
  188MOL0     H25346   2.777   7.880   2.527 -1.1140 -0.9573  0.6113
  188MOL0     H25347   2.852   7.991   2.658  0.2303 -2.1783  0.1665
  188MOL0     H25348   2.622   8.020   2.740 -3.3809 -2.1214  1.2214
  188MOL0     H25349   2.571   7.918   2.605 -0.7717  0.8212 -1.4179
  188MOL0     H25350   2.720   7.838   2.851 -0.3564 -0.0477  0.4478
  188MOL0     H25351   2.718   7.729   2.706 -1.9607 -1.1658  0.8451
  188MOL0     H25352   2.472   7.812   2.858  0.2473 -2.1619  3.4021
  188MOL0     H25353   2.481   7.714   2.715  0.1093  0.1485 -0.0884
  188MOL0     H25354   2.655   7.555   2.852  1.2604 -0.5434  2.3521
  188MOL0     H25355   2.482   7.556   2.883 -1.4663 -0.0674  4.8832
  188MOL0     H25356   2.699   7.713   3.039 -0.2371  0.1885 -1.0680
  188MOL0     H25357   2.534   7.705   3.089  1.6204 -1.3541  2.2896
  188MOL0     H25358   2.717   7.473   3.080 -0.8184 -1.1990  0.0875
  188MOL0     H25359   2.540   7.456   3.103 -0.0066  0.7579 -2.9941
  188MOL0     H25360   2.690   7.636   3.293  2.9651 -1.9315 -0.4324
  188MOL0     H25361   2.730   7.469   3.297 -0.7320 -1.3529 -1.0367
  188MOL0     H25362   2.678   8.304   2.435 -1.2332 -2.0750 -0.9199
  188MOL0     H25363   2.821   8.483   2.381 -0.0678  0.4323  2.4912
  188MOL0     H25364   3.106   8.688   2.273  1.0418 -2.6359  2.7133
  188MOL0     H25365   3.240   8.893   2.159  2.6144  0.7075 -0.3857
  188MOL0     H25366   5.088   9.217   2.497 -2.1204 -1.6418  1.8332
  188MOL0     H25367   5.295   9.336   2.506 -0.0300  0.5312 -1.2543
  188MOL0     H25368   5.416   9.918   2.755 -1.6987 -0.6441 -0.2114
  188MOL0     H25369   5.651  10.039   2.727  3.5805 -2.2692  1.7688
  188MOL0     H25370   6.023   9.932   2.662 -0.1446  2.5774  0.3249
  188MOL0     H25371   5.970   9.800   2.566 -0.5256  0.7585 -2.9158
  188MOL0     H25372   6.024  10.058   2.427 -0.5512  0.5192  0.3062
  188MOL0     H25373   6.027   9.886   2.367  3.3309 -1.3531  0.3786
  188MOL0     H25374   6.228   9.835   2.499 -0.5633 -0.2256  2.3550
  188MOL0     H25375   6.216  10.003   2.568 -0.1517 -1.0590  0.5396
  188MOL0     H25376   6.301  10.104   2.370  0.2959  0.9456 -4.2147
  188MOL0     H25377   6.253   9.977   2.263  0.3648 -0.1266  0.6810
  188MOL0     H25378   6.653   9.900   2.387  0.4752 -0.1856 -2.1957
  188MOL0     H25379   5.775   9.740   2.454  1.9084  2.1643  0.7239
  188MOL0     H25380   5.565   9.610   2.492 -0.7331 -0.5061  0.6079
  189MOL0     O25381   3.294   2.976   0.685  0.0143  0.3807  0.4325
  189MOL0     C25382   3.344   2.973   0.574  0.2196  0.4688  0.5724
  189MOL0     O25383   3.273   2.932   0.463  0.1067  0.3285  0.1528
  189MOL0     C25384   3.151   2.864   0.475 -0.8312  0.0670  0.5021
  189MOL0     C25385   3.040   2.924   0.434  0.3675 -0.0767 -0.0789
  189MOL0     C25386   2.916   2.860   0.452 -0.1477 -0.5519  0.6081
  189MOL0     C25387   2.911   2.747   0.527  0.4696  0.2643 -0.6800
  189MOL0     O25388   2.781   2.706   0.552  0.3351  0.0195  0.4257
  189MOL0     C25389   2.708   2.749   0.669  0.3916 -0.3048  0.0305
  189MOL0     C25390   2.675   2.626   0.746  0.6194  0.2678 -0.6238
  189MOL0     C25391   2.775   2.503   0.745 -0.0715  0.1456 -0.2708
  189MOL0     C25392   2.709   2.376   0.811 -0.6943 -0.9922  0.7539
  189MOL0     C25393   2.812   2.271   0.826 -0.3719 -0.2555 -0.4191
  189MOL0     C25394   2.867   2.231   0.683 -0.5539  0.6481  0.4406
  189MOL0     C25395   2.900   2.081   0.686  0.1570  0.6802  0.6947
  189MOL0     C25396   2.987   2.036   0.803  0.8969  0.7623  0.4156
  189MOL0     N25397   2.987   1.889   0.786 -0.0847 -0.3920  0.3429
  189MOL0     C25398   2.898   1.800   0.856  0.0090 -0.1823 -0.3626
  189MOL0     C25399   2.929   1.682   0.806 -0.6655  0.1232 -0.3396
  189MOL0     C25400   2.856   1.546   0.842 -0.3138 -0.3712 -0.4721
  189MOL0     C25401   2.846   1.513   0.998 -0.3281 -0.5820  1.0818
  189MOL0     C25402   2.745   1.391   1.012  0.4384 -0.4690 -0.3837
  189MOL0     C25403   2.813   1.251   1.019  1.1877 -0.6241  0.7496
  189MOL0     O25404   2.731   1.172   0.937 -0.3121  0.1400 -0.6092
  189MOL0     C25405   2.622   1.111   0.999 -0.5367 -0.0717 -0.1228
  189MOL0     C25406   2.631   1.039   1.116 -0.0168 -0.7879 -0.2229
  189MOL0     C25407   2.518   0.965   1.163 -0.4623  1.9319 -1.5918
  189MOL0     C25408   2.541   0.880   1.292 -0.1846 -0.8628 -0.3854
  189MOL0     C25409   2.396   0.968   1.099 -0.1485  0.3677  1.5196
  189MOL0     C25410   2.278   0.891   1.151  0.0756  0.2010  0.8251
  189MOL0     O25411   2.286   0.784   1.238 -0.1323 -0.2315  0.7541
  189MOL0     C25412   2.165   0.730   1.273 -0.3320  0.4298 -0.5126
  189MOL0     C25413   2.090   0.650   1.187 -0.5245  0.5155 -0.2589
  189MOL0     C25414   1.979   0.576   1.222 -0.2463  0.0349 -0.8949
  189MOL0     C25415   1.949   0.580   1.357 -0.0737 -0.0765 -0.0668
  189MOL0     O25416   1.849   0.507   1.416 -0.4556  0.2178  0.4110
  189MOL0     C25417   1.782   0.416   1.327  0.1169 -0.5803  0.3591
  189MOL0     C25418   1.654   0.374   1.398 -0.9091 -0.2697 -0.3101
  189MOL0     C25419   1.670   0.302   1.529  0.9101 -0.1847 -0.1749
  189MOL0     C25420   1.760   0.175   1.542 -0.1346 -0.3703 -0.7178
  189MOL0     C25421   1.781   0.118   1.681  0.5675 -0.3905 -0.3026
  189MOL0     C25422   1.867  -0.014   1.675  0.0233 -0.9868 -0.8059
  189MOL0     C25423   1.894  -0.067   1.821  0.2608 -0.5490  0.9603
  189MOL0     C25424   1.949  -0.218   1.822  0.7825 -0.2403  0.3390
  189MOL0    Cl25425   2.127  -0.230   1.783  0.5256 -0.2751  0.1378
  189MOL0     C25426   2.027   0.660   1.448 -0.0671  0.0584 -0.8938
  189MOL0     C25427   2.128   0.745   1.406  0.6197  0.6560 -1.0611
  189MOL0     O25428   2.181   0.922   1.079 -0.3612 -0.5094 -0.7216
  189MOL0     C25429   2.385   1.052   0.986  0.7215 -0.8391  1.0429
  189MOL0     C25430   2.502   1.108   0.930  0.2709 -0.1261 -0.6249
  189MOL0     N25431   3.016   1.692   0.699 -0.8819 -0.0816  0.3275
  189MOL0     N25432   3.046   1.821   0.680  0.2652  0.0169 -1.4114
  189MOL0     C25433   3.032   2.685   0.567  0.6812 -0.0515 -0.4098
  189MOL0     C25434   3.153   2.746   0.547  0.0812 -0.6721 -0.1652
  189MOL0     C25435   3.475   3.039   0.550 -0.1416 -0.0285  0.1380
  189MOL0     C25436   3.543   3.101   0.661  0.6745 -0.4505  0.3180
  189MOL0     C25437   3.652   3.183   0.631  0.4473  0.2855  0.6532
  189MOL0     C25438   3.708   3.185   0.506 -0.0718 -0.1643  0.6165
  189MOL0     O25439   3.825   3.260   0.491  1.0127  0.3212  0.0755
  189MOL0     C25440   3.899   3.292   0.370  0.6207  0.2022  1.0410
  189MOL0     C25441   4.029   3.351   0.417 -0.8737  0.2492  1.1082
  189MOL0     C25442   4.012   3.485   0.490  0.0782  0.1497 -0.1074
  189MOL0     C25443   4.141   3.562   0.517 -0.4607  0.1231  0.4203
  189MOL0     C25444   4.129   3.695   0.560  0.2729 -0.1559 -0.4015
  189MOL0     C25445   4.107   3.811   0.602  0.5599  1.0032 -0.2719
  189MOL0     C25446   3.651   3.112   0.405 -0.2858 -0.1074 -0.3747
  189MOL0     C25447   3.537   3.040   0.425  0.3343 -0.6863 -1.1940
  189MOL0     H25448   3.046   3.021   0.387  2.3602 -0.5818 -0.9967
  189MOL0     H25449   2.830   2.919   0.421  1.8858  1.8318 -0.8092
  189MOL0     H25450   2.777   2.817   0.720  1.2652 -1.5410  0.5454
  189MOL0     H25451   2.615   2.801   0.644 -0.1242 -1.0098  0.4661
  189MOL0     H25452   2.649   2.647   0.850 -0.2937  0.1244 -0.8184
  189MOL0     H25453   2.574   2.594   0.720  0.7006 -1.6847  1.1664
  189MOL0     H25454   2.803   2.474   0.644  3.9942  1.9797  0.1462
  189MOL0     H25455   2.863   2.527   0.805 -2.3451  3.1984  2.1919
  189MOL0     H25456   2.676   2.401   0.912 -0.7056 -2.7993  1.2329
  189MOL0     H25457   2.621   2.361   0.748 -0.5040  0.4028  0.1130
  189MOL0     H25458   2.885   2.298   0.903 -2.4596  0.0661  1.5694
  189MOL0     H25459   2.756   2.184   0.864  0.8435 -1.0717 -0.4353
  189MOL0     H25460   2.789   2.234   0.606 -0.4504 -0.3965  0.2822
  189MOL0     H25461   2.949   2.299   0.662 -1.4831  2.0354  1.1324
  189MOL0     H25462   2.806   2.025   0.680 -1.1329  2.8082 -0.1015
  189MOL0     H25463   2.952   2.055   0.593 -0.6409  0.9385  0.1699
  189MOL0     H25464   2.942   2.072   0.896 -1.2094  2.4986 -1.1689
  189MOL0     H25465   3.083   2.088   0.793  1.1022 -0.0289 -2.9346
  189MOL0     H25466   2.823   1.810   0.933 -1.2300 -4.6273 -0.7634
  189MOL0     H25467   2.753   1.548   0.806 -0.5021  1.1255  0.0603
  189MOL0     H25468   2.917   1.471   0.792  1.6175  0.7840  0.0098
  189MOL0     H25469   2.813   1.602   1.052  2.8938 -0.3349  2.8448
  189MOL0     H25470   2.949   1.484   1.018  0.9754  2.3165 -0.8325
  189MOL0     H25471   2.670   1.394   0.933 -0.4102  1.8124  0.4060
  189MOL0     H25472   2.688   1.396   1.106  1.6977 -2.4988  0.5616
  189MOL0     H25473   2.825   1.219   1.123  2.1774 -0.1924  0.7847
  189MOL0     H25474   2.911   1.241   0.971  1.9425  2.4098  1.4458
  189MOL0     H25475   2.726   1.034   1.168  0.0741  0.0457 -0.2882
  189MOL0     H25476   2.563   0.778   1.260 -1.9949 -1.6235  0.6342
  189MOL0     H25477   2.621   0.923   1.353 -0.2982 -2.2267  0.8073
  189MOL0     H25478   2.454   0.878   1.359  1.0551 -2.3822  1.3035
  189MOL0     H25479   2.130   0.643   1.086  3.1224  2.7676  0.8342
  189MOL0     H25480   1.928   0.521   1.144 -0.5551  2.5415 -2.5829
  189MOL0     H25481   1.741   0.469   1.241  1.2604  1.2906  0.8894
  189MOL0     H25482   1.860   0.343   1.304  4.1459  3.4541 -0.1575
  189MOL0     H25483   1.583   0.456   1.416  0.2091  0.7294 -0.2904
  189MOL0     H25484   1.604   0.291   1.348  0.9936 -3.3702  2.5377
  189MOL0     H25485   1.566   0.284   1.558 -1.0783 -0.1769 -6.0043
  189MOL0     H25486   1.720   0.374   1.594 -0.5923  1.8097 -1.1332
  189MOL0     H25487   1.720   0.089   1.487 -1.5822 -0.7994  0.8830
  189MOL0     H25488   1.857   0.201   1.500  1.5829 -2.3631  1.7206
  189MOL0     H25489   1.683   0.095   1.724 -0.2304 -3.2001 -3.1947
  189MOL0     H25490   1.830   0.187   1.750  0.5570  0.4643 -1.1287
  189MOL0     H25491   1.823  -0.096   1.617  0.3898 -1.6612 -0.1360
  189MOL0     H25492   1.960   0.018   1.629  1.4414  0.1458  2.5397
  189MOL0     H25493   1.799  -0.054   1.875  0.3650  0.0505  1.0129
  189MOL0     H25494   1.965  -0.002   1.873  0.6015  0.0970 -0.2733
  189MOL0     H25495   1.894  -0.273   1.745  1.9414 -0.9683  0.0030
  189MOL0     H25496   1.941  -0.264   1.921 -0.1085  1.4425  1.0853
  189MOL0     H25497   2.001   0.669   1.553  0.0751  0.3828 -0.8864
  189MOL0     H25498   2.169   0.817   1.475  0.8052  0.6497 -1.1645
  189MOL0     H25499   2.295   1.064   0.926  0.9353 -1.4651  0.5913
  189MOL0     H25500   2.491   1.146   0.829 -4.1096  0.0780 -0.2436
  189MOL0     H25501   3.047   2.593   0.622  0.7272 -0.4315 -1.0394
  189MOL0     H25502   3.247   2.707   0.585 -0.6563 -1.3864  0.9873
  189MOL0     H25503   3.501   3.101   0.761  1.3031  4.3176  0.7781
  189MOL0     H25504   3.697   3.243   0.710  2.8333  1.9093 -1.7211
  189MOL0     H25505   3.923   3.200   0.316 -1.6252  0.2494 -0.1360
  189MOL0     H25506   3.844   3.356   0.301  1.0445 -0.4014  0.1144
  189MOL0     H25507   4.087   3.364   0.325 -0.2897  0.7504  1.5312
  189MOL0     H25508   4.079   3.273   0.476  0.0447 -0.1149 -0.1210
  189MOL0     H25509   3.956   3.465   0.582 -2.8608  2.5036 -1.2167
  189MOL0     H25510   3.945   3.554   0.437  1.1216  1.0885 -0.2485
  189MOL0     H25511   4.193   3.571   0.421 -0.6384  2.4710  0.5069
  189MOL0     H25512   4.212   3.506   0.578  0.0426 -2.9587 -2.6688
  189MOL0     H25513   4.072   3.902   0.646 -1.9356 -0.3687  0.8634
  189MOL0     H25514   3.691   3.109   0.304  1.4902 -1.6768  0.3178
  189MOL0     H25515   3.492   2.983   0.344 -1.9440  1.9034 -1.9029
  190MOL0     O25516   8.376   2.477   6.228 -0.3590 -0.3362  0.6439
  190MOL0     C25517   8.397   2.582   6.160 -0.3098 -0.3107 -0.0127
  190MOL0     O25518   8.304   2.681   6.127 -0.7361  0.1252  0.1130
  190MOL0     C25519   8.171   2.657   6.171 -0.0887 -0.5322 -0.5504
  190MOL0     C25520   8.132   2.676   6.304 -1.0151  0.1041 -0.7129
  190MOL0     C25521   8.009   2.631   6.344 -0.2305  0.6975  0.0123
  190MOL0     C25522   7.918   2.575   6.250 -0.2284 -0.3937  0.8433
  190MOL0     O25523   7.786   2.543   6.277 -0.6657  0.2529 -0.8621
  190MOL0     C25524   7.757   2.538   6.422 -0.3151  0.4890 -0.3522
  190MOL0     C25525   7.602   2.521   6.445  0.4230  0.8107  0.3921
  190MOL0     C25526   7.514   2.641   6.412  0.1708  0.0262  0.6136
  190MOL0     C25527   7.551   2.718   6.280 -0.0940 -0.5467  0.1685
  190MOL0     C25528   7.453   2.838   6.271  0.8814 -0.5206  0.2444
  190MOL0     C25529   7.495   2.922   6.154 -0.5185 -0.0138  1.0894
  190MOL0     C25530   7.405   3.037   6.131  0.6125  0.0517  0.6473
  190MOL0     C25531   7.454   3.134   6.030  0.1033 -0.2995  0.1209
  190MOL0     N25532   7.376   3.256   6.035 -0.0417 -0.4922  0.0943
  190MOL0     C25533   7.423   3.378   6.078  0.0532 -0.3195  0.0634
  190MOL0     C25534   7.321   3.463   6.064  0.1445  0.4466  0.8472
  190MOL0     C25535   7.313   3.605   6.099 -0.8982  0.2153 -0.6065
  190MOL0     C25536   7.261   3.602   6.245  0.2051  0.2843 -0.1867
  190MOL0     C25537   7.149   3.708   6.274  0.1305  0.1863  0.7502
  190MOL0     C25538   7.024   3.682   6.194 -0.8161 -0.5907  0.4387
  190MOL0     O25539   6.917   3.734   6.267  0.1486 -0.2202  0.4108
  190MOL0     C25540   6.798   3.767   6.210  0.5034 -0.5724 -0.3661
  190MOL0     C25541   6.711   3.834   6.286 -0.3168  0.1832  0.7153
  190MOL0     C25542   6.591   3.882   6.231  0.5360 -0.4619 -0.1824
  190MOL0     C25543   6.509   3.967   6.338  0.0466 -0.4844  1.2259
  190MOL0     C25544   6.549   3.841   6.103  0.2347  0.4683 -0.2587
  190MOL0     C25545   6.411   3.879   6.055 -0.4178  0.0569  0.1789
  190MOL0     O25546   6.340   3.782   5.989  0.2119 -0.2410  0.2199
  190MOL0     C25547   6.204   3.792   5.979  0.5021  0.2839 -0.4525
  190MOL0     C25548   6.145   3.739   5.862 -0.0563 -0.0445 -0.4629
  190MOL0     C25549   6.002   3.758   5.848  0.6560  0.6736  0.2197
  190MOL0     C25550   5.921   3.827   5.943 -0.2011 -0.2000  1.3002
  190MOL0     O25551   5.804   3.872   5.894 -0.0419 -0.2494  0.3692
  190MOL0     C25552   5.688   3.869   5.981  0.3795  0.0607 -0.6302
  190MOL0     C25553   5.615   4.004   5.976 -0.7382 -0.3505 -1.0364
  190MOL0     C25554   5.710   4.108   6.032 -0.6780 -0.1402  0.2322
  190MOL0     C25555   5.634   4.246   6.043  1.0410 -0.1149 -0.3254
  190MOL0     C25556   5.715   4.354   6.112 -0.0459 -0.8502 -0.0925
  190MOL0     C25557   5.643   4.487   6.126 -0.3695 -0.1349  0.6739
  190MOL0     C25558   5.621   4.565   5.991  0.0147 -0.1423  0.1961
  190MOL0     C25559   5.718   4.549   5.868  0.2136  0.6704  0.0116
  190MOL0    Cl25560   5.878   4.598   5.911 -0.0844 -0.1319  0.1287
  190MOL0     C25561   5.985   3.874   6.062 -0.1369  0.4663 -0.1861
  190MOL0     C25562   6.119   3.842   6.079 -0.2892 -0.3311 -0.4795
  190MOL0     O25563   6.375   3.993   6.076  0.6524  0.2229  0.0031
  190MOL0     C25564   6.635   3.763   6.028  0.0230  0.1375  0.1532
  190MOL0     C25565   6.763   3.728   6.079 -0.6230  0.6794 -0.7133
  190MOL0     N25566   7.214   3.402   6.010  0.7148 -0.1477  0.1195
  190MOL0     N25567   7.247   3.280   5.991 -0.7024  0.0692  0.5980
  190MOL0     C25568   7.959   2.553   6.120 -0.1339  0.1078  0.2237
  190MOL0     C25569   8.089   2.586   6.082  0.8430  0.3024 -0.4178
  190MOL0     C25570   8.539   2.616   6.137 -0.0419  0.1435 -0.0999
  190MOL0     C25571   8.654   2.537   6.189 -0.8244 -0.7009 -0.2259
  190MOL0     C25572   8.779   2.595   6.167  0.3363 -0.8003 -0.1504
  190MOL0     C25573   8.808   2.704   6.088 -0.5195 -1.5762 -0.9602
  190MOL0     O25574   8.937   2.773   6.065  0.6238  0.0065  0.1570
  190MOL0     C25575   9.054   2.685   6.080 -0.1244  0.1594  0.5385
  190MOL0     C25576   9.122   2.704   6.213 -0.0667  0.3940 -0.8049
  190MOL0     C25577   9.133   2.841   6.251 -0.4934 -0.2590  0.5304
  190MOL0     C25578   9.010   2.893   6.320 -0.3882 -0.5406  0.0335
  190MOL0     C25579   9.057   3.008   6.402 -0.1161  0.0935  0.0935
  190MOL0     C25580   9.102   3.113   6.446  0.5729 -0.0736  0.3192
  190MOL0     C25581   8.701   2.767   6.035  0.1370 -0.4511 -0.1925
  190MOL0     C25582   8.569   2.732   6.063 -0.0465  0.1412  0.4324
  190MOL0     H25583   8.197   2.716   6.380  0.7493 -0.3594 -1.9312
  190MOL0     H25584   7.985   2.634   6.449  1.2906 -5.3701  0.9300
  190MOL0     H25585   7.808   2.455   6.471 -1.3609  0.5762  0.9554
  190MOL0     H25586   7.786   2.628   6.477  0.1202  0.5969 -0.7545
  190MOL0     H25587   7.581   2.437   6.379 -0.5480  0.7949  0.7024
  190MOL0     H25588   7.578   2.486   6.546 -0.3118  2.4071  0.8006
  190MOL0     H25589   7.410   2.611   6.397 -1.1548  3.3450  2.2005
  190MOL0     H25590   7.511   2.704   6.502 -2.5408 -0.5300  1.0117
  190MOL0     H25591   7.652   2.758   6.287 -1.0149  1.9575 -0.0669
  190MOL0     H25592   7.559   2.662   6.186 -2.6362 -1.7265  0.5607
  190MOL0     H25593   7.346   2.814   6.263  0.3689  0.7690  2.3792
  190MOL0     H25594   7.464   2.892   6.366 -0.4642 -0.2610  0.2836
  190MOL0     H25595   7.596   2.956   6.176 -0.3297  0.0095  0.2144
  190MOL0     H25596   7.503   2.863   6.062 -0.5357 -0.5116  1.4029
  190MOL0     H25597   7.303   3.009   6.103  0.5785  0.6377  0.1739
  190MOL0     H25598   7.391   3.094   6.223 -2.5573 -0.7657  0.8051
  190MOL0     H25599   7.447   3.096   5.927 -0.7509  2.8167 -1.0754
  190MOL0     H25600   7.556   3.163   6.056 -0.5169  0.8034  1.3939
  190MOL0     H25601   7.524   3.400   6.112 -0.7308  1.3777  1.4551
  190MOL0     H25602   7.416   3.642   6.095  0.7930 -3.8692 -0.1845
  190MOL0     H25603   7.253   3.664   6.029 -1.8073 -2.3083 -2.1038
  190MOL0     H25604   7.343   3.605   6.318 -0.1382 -2.2131  0.3862
  190MOL0     H25605   7.206   3.508   6.258  0.1324 -0.0046 -2.2549
  190MOL0     H25606   7.194   3.806   6.255  1.7825 -0.8697 -1.0686
  190MOL0     H25607   7.121   3.704   6.380  1.1378  0.7244  1.0516
  190MOL0     H25608   7.028   3.576   6.168  3.5833 -1.1699  2.6666
  190MOL0     H25609   7.033   3.742   6.103  3.9899  2.0862  2.3374
  190MOL0     H25610   6.747   3.851   6.387  0.1558  1.5966  0.3420
  190MOL0     H25611   6.560   4.063   6.329 -0.6342 -0.2866 -1.2409
  190MOL0     H25612   6.402   3.978   6.321  0.1002 -0.0260  1.1701
  190MOL0     H25613   6.509   3.920   6.437 -1.6642 -0.2591  1.3490
  190MOL0     H25614   6.196   3.699   5.776 -1.4313  2.7912 -2.7723
  190MOL0     H25615   5.957   3.731   5.753 -1.6669 -4.0649  2.2728
  190MOL0     H25616   5.625   3.784   5.954 -1.7181  1.1688  0.5460
  190MOL0     H25617   5.722   3.858   6.084 -0.4094  1.1023 -0.2374
  190MOL0     H25618   5.590   4.026   5.872  2.1882 -0.5422 -1.8687
  190MOL0     H25619   5.526   3.999   6.040 -0.9734 -2.0496 -1.4379
  190MOL0     H25620   5.800   4.121   5.969  1.0980  1.4027  2.8859
  190MOL0     H25621   5.746   4.073   6.129  0.0618 -1.2522 -0.4277
  190MOL0     H25622   5.607   4.287   5.946  2.5327 -1.1325 -1.2117
  190MOL0     H25623   5.541   4.239   6.100  1.9484 -0.6097  1.1685
  190MOL0     H25624   5.816   4.374   6.074  0.5942 -2.0581  0.9212
  190MOL0     H25625   5.746   4.318   6.210  1.7247  1.7200  0.3972
  190MOL0     H25626   5.544   4.472   6.170 -0.4565  0.1486  0.5778
  190MOL0     H25627   5.690   4.546   6.205 -1.8133  0.0592  1.4127
  190MOL0     H25628   5.608   4.671   6.016  0.7447 -0.3085  1.3553
  190MOL0     H25629   5.520   4.542   5.957 -0.3990  2.3991 -0.4979
  190MOL0     H25630   5.679   4.595   5.777  2.6733 -0.5487 -1.8123
  190MOL0     H25631   5.727   4.442   5.844  1.5088  1.0022 -1.0984
  190MOL0     H25632   5.929   3.916   6.146 -0.7198 -0.6562  0.0093
  190MOL0     H25633   6.157   3.873   6.176 -4.3611  0.1665  1.1403
  190MOL0     H25634   6.611   3.745   5.924 -1.3395  2.8370 -0.0902
  190MOL0     H25635   6.827   3.662   6.022 -0.7157 -1.6514  1.7094
  190MOL0     H25636   7.895   2.486   6.063  0.6444 -0.8409  0.4324
  190MOL0     H25637   8.133   2.552   5.988  0.1493 -4.1458  0.6213
  190MOL0     H25638   8.639   2.452   6.254 -1.0597  0.0375  0.7071
  190MOL0     H25639   8.864   2.556   6.221  1.8613 -0.8652 -2.4643
  190MOL0     H25640   9.035   2.581   6.054 -2.2101  0.9676 -1.5094
  190MOL0     H25641   9.125   2.715   6.002 -1.2528 -0.5165 -0.7749
  190MOL0     H25642   9.218   2.653   6.217 -1.8790 -3.3463  0.4563
  190MOL0     H25643   9.063   2.655   6.292  3.4753 -0.0135  1.8276
  190MOL0     H25644   9.170   2.901   6.167 -0.1324 -0.9104  0.2123
  190MOL0     H25645   9.203   2.846   6.335 -4.0025  2.4759  3.6531
  190MOL0     H25646   8.961   2.816   6.381 -0.0266  0.1588  1.2594
  190MOL0     H25647   8.933   2.934   6.254  1.8189  3.5864 -0.3163
  190MOL0     H25648   9.149   3.203   6.480  2.2238 -1.2945  1.4523
  190MOL0     H25649   8.710   2.853   5.970  1.6518 -1.3401 -1.2299
  190MOL0     H25650   8.488   2.795   6.026  1.3144  2.1865  0.7590
  191MOL0     O25651  11.093   8.632   8.419  0.3044  0.4941  0.0626
  191MOL0     C25652  11.163   8.658   8.320  0.2334 -0.4351  0.2242
  191MOL0     O25653  11.123   8.673   8.191  0.2811  0.2779  0.4978
  191MOL0     C25654  11.007   8.625   8.140  1.0130 -0.4117  0.0582
  191MOL0     C25655  10.894   8.563   8.208 -0.6225 -0.0359  0.2735
  191MOL0     C25656  10.798   8.500   8.142  1.0159  0.3185  0.6157
  191MOL0     C25657  10.785   8.478   8.002 -0.6345 -0.8985  0.0874
  191MOL0     O25658  10.672   8.422   7.949  0.1727 -0.2854  0.2690
  191MOL0     C25659  10.596   8.492   7.844  0.1122 -0.3369 -0.4093
  191MOL0     C25660  10.453   8.431   7.823 -1.1812  0.5046 -0.5503
  191MOL0     C25661  10.363   8.430   7.944 -0.5620 -1.4338 -0.4430
  191MOL0     C25662  10.228   8.366   7.900 -0.5157  0.4250 -0.1257
  191MOL0     C25663  10.120   8.352   8.013 -0.4998 -0.4320 -0.5667
  191MOL0     C25664   9.996   8.278   7.956  0.3406 -0.5247 -0.2692
  191MOL0     C25665   9.884   8.339   8.033 -0.9147  0.1275  0.0584
  191MOL0     C25666   9.754   8.261   8.013 -0.1261 -0.4766  0.4524
  191MOL0     N25667   9.630   8.327   8.050  0.5998 -0.4106  0.3807
  191MOL0     C25668   9.572   8.451   8.018 -0.8130  0.6881  0.7091
  191MOL0     C25669   9.467   8.469   8.097 -0.6313  0.0628  0.8251
  191MOL0     C25670   9.393   8.603   8.093  0.6676  0.0398 -0.7893
  191MOL0     C25671   9.298   8.637   8.215 -0.5017 -0.1059  0.4999
  191MOL0     C25672   9.179   8.537   8.238 -0.4813 -0.2164 -0.0737
  191MOL0     C25673   9.076   8.598   8.337 -0.6171  1.1739 -0.4205
  191MOL0     O25674   9.030   8.503   8.431 -0.5039  0.9751 -0.2937
  191MOL0     C25675   8.926   8.543   8.506  0.9784 -0.3983  0.1902
  191MOL0     C25676   8.915   8.657   8.587  0.5203 -0.2188 -0.7406
  191MOL0     C25677   8.797   8.702   8.654  0.1085 -0.1397  0.4671
  191MOL0     C25678   8.807   8.828   8.747 -0.1258  0.0100 -0.1855
  191MOL0     C25679   8.680   8.615   8.631  0.0723  0.2483 -0.5263
  191MOL0     C25680   8.547   8.652   8.662  0.5951  0.4709 -0.6760
  191MOL0     O25681   8.461   8.559   8.707  0.7273  0.0252  0.1796
  191MOL0     C25682   8.344   8.582   8.771  0.6023  0.2377  0.9889
  191MOL0     C25683   8.276   8.698   8.806 -0.3808 -0.2333  0.4758
  191MOL0     C25684   8.149   8.703   8.869  0.3925  0.3074 -0.4679
  191MOL0     C25685   8.093   8.580   8.904 -0.1978 -0.0874 -0.3672
  191MOL0     O25686   7.978   8.583   8.982  0.4605 -0.0194  0.0631
  191MOL0     C25687   7.950   8.466   9.067  1.0479 -0.3236  0.4141
  191MOL0     C25688   7.823   8.484   9.164 -0.6325  0.3474  0.4571
  191MOL0     C25689   7.699   8.543   9.105  0.1729 -0.1204  0.4172
  191MOL0     C25690   7.596   8.546   9.214  0.2023  0.5320  0.1498
  191MOL0     C25691   7.456   8.594   9.161 -0.1097 -0.0177 -0.1516
  191MOL0     C25692   7.460   8.750   9.135 -1.4959 -0.8408  0.1897
  191MOL0     C25693   7.343   8.819   9.059  0.0140  0.5733 -0.2755
  191MOL0     C25694   7.370   8.972   9.040  0.2515  0.8690  0.3868
  191MOL0    Cl25695   7.538   9.020   9.002 -0.2900 -0.2715  0.1084
  191MOL0     C25696   8.160   8.462   8.867  0.0261  0.2702  0.0236
  191MOL0     C25697   8.281   8.462   8.795  0.7186  0.5403 -0.5198
  191MOL0     O25698   8.517   8.769   8.636  0.0536  0.3901 -0.6996
  191MOL0     C25699   8.695   8.489   8.572  0.3317 -0.1373  0.2540
  191MOL0     C25700   8.821   8.456   8.508  1.1224  0.0821 -1.1873
  191MOL0     N25701   9.448   8.364   8.174  0.9220 -0.0716  0.8647
  191MOL0     N25702   9.540   8.276   8.144  0.6308  0.0361 -0.4584
  191MOL0     C25703  10.883   8.550   7.935 -1.0638  0.2360  0.8370
  191MOL0     C25704  10.984   8.625   8.001  0.1267 -0.0019 -1.2216
  191MOL0     C25705  11.299   8.703   8.350  0.5055  0.0420  1.4212
  191MOL0     C25706  11.405   8.699   8.254 -0.3326  0.4833 -0.3398
  191MOL0     C25707  11.524   8.754   8.278  0.5715 -0.3245  0.2870
  191MOL0     C25708  11.563   8.790   8.403  0.9113  0.1941  0.6169
  191MOL0     O25709  11.694   8.819   8.431 -0.1500 -0.1324 -0.1766
  191MOL0     C25710  11.786   8.836   8.322 -0.0526 -0.3366 -0.0189
  191MOL0     C25711  11.919   8.897   8.373 -0.2505  0.2117  0.0668
  191MOL0     C25712  11.908   9.044   8.420 -0.1529 -0.2299  0.2845
  191MOL0     C25713  12.056   9.100   8.408  0.4976  0.0156 -0.4629
  191MOL0     C25714  12.065   9.237   8.410 -0.1147 -0.3789 -1.0414
  191MOL0     C25715  12.051   9.354   8.413 -0.0674 -0.0755  0.0605
  191MOL0     C25716  11.463   8.795   8.503  0.3571  0.4591  0.3453
  191MOL0     C25717  11.327   8.756   8.475 -0.6499 -0.2112 -1.1483
  191MOL0     H25718  10.886   8.552   8.316  0.5302 -2.0587  0.1984
  191MOL0     H25719  10.732   8.449   8.212  1.7550 -0.8723  0.4606
  191MOL0     H25720  10.588   8.597   7.871  2.5368 -0.5762  1.6865
  191MOL0     H25721  10.642   8.478   7.746 -0.2421 -5.7233 -0.1219
  191MOL0     H25722  10.399   8.496   7.754  0.2866  0.1553 -2.1100
  191MOL0     H25723  10.459   8.335   7.773  2.4308  1.4649 -2.2859
  191MOL0     H25724  10.407   8.375   8.028 -1.6237 -1.5719  0.0420
  191MOL0     H25725  10.341   8.532   7.977  2.6279 -0.4441 -1.0658
  191MOL0     H25726  10.189   8.441   7.830  2.1523  2.1465  0.0546
  191MOL0     H25727  10.255   8.272   7.851 -0.7973  0.3778 -0.1907
  191MOL0     H25728  10.167   8.303   8.099  0.0678  2.2691  0.7676
  191MOL0     H25729  10.101   8.455   8.044  1.3193  0.7690 -3.0807
  191MOL0     H25730   9.992   8.290   7.847  0.6220  0.7995 -0.1591
  191MOL0     H25731   9.991   8.174   7.989  2.4343 -0.6101 -0.0910
  191MOL0     H25732   9.902   8.342   8.141  0.0689 -0.4127 -0.0761
  191MOL0     H25733   9.864   8.444   8.011  1.6182  0.8295  0.6926
  191MOL0     H25734   9.760   8.166   8.068 -2.7940  0.2485  2.1724
  191MOL0     H25735   9.748   8.237   7.907  1.0372  0.2673  0.1929
  191MOL0     H25736   9.612   8.518   7.943 -1.0213 -0.3534 -0.3644
  191MOL0     H25737   9.470   8.680   8.095  0.7683 -0.0513  1.6434
  191MOL0     H25738   9.335   8.602   8.000  1.8958 -1.9589 -1.5997
  191MOL0     H25739   9.269   8.740   8.191  1.7117  0.7892  1.4731
  191MOL0     H25740   9.354   8.640   8.308 -1.8166 -1.5640  1.3902
  191MOL0     H25741   9.219   8.444   8.280  3.0298  0.9749 -0.4232
  191MOL0     H25742   9.124   8.507   8.149  2.0753 -0.0184 -1.8322
  191MOL0     H25743   8.993   8.636   8.277 -1.7076 -1.0320 -0.4018
  191MOL0     H25744   9.113   8.691   8.382 -1.3107  0.7068  1.1610
  191MOL0     H25745   9.011   8.703   8.606  1.2366 -2.9759  3.5919
  191MOL0     H25746   8.824   8.919   8.689 -2.4749  0.0043 -0.9685
  191MOL0     H25747   8.715   8.860   8.797 -0.1947  2.5112 -1.7679
  191MOL0     H25748   8.883   8.815   8.825 -1.3650  1.9901  1.4560
  191MOL0     H25749   8.335   8.789   8.799  3.3010 -2.3285  1.4647
  191MOL0     H25750   8.104   8.795   8.904  2.4987  1.0581  0.4098
  191MOL0     H25751   7.923   8.387   8.996  0.9037 -2.0094  2.2409
  191MOL0     H25752   8.038   8.432   9.123  1.7833 -0.0293 -0.5416
  191MOL0     H25753   7.801   8.384   9.204  3.1288 -1.0853 -0.6310
  191MOL0     H25754   7.866   8.546   9.243  1.7819  1.2095 -1.4078
  191MOL0     H25755   7.660   8.488   9.019 -0.6364  2.6472 -1.1008
  191MOL0     H25756   7.724   8.641   9.062 -1.9510  0.9548  1.4793
  191MOL0     H25757   7.595   8.444   9.253 -2.6386  0.6740  0.7044
  191MOL0     H25758   7.625   8.615   9.294 -4.5605  2.0783  0.8749
  191MOL0     H25759   7.373   8.568   9.228 -1.5687  4.0488 -0.0684
  191MOL0     H25760   7.440   8.546   9.065 -1.7608 -0.5822  0.3754
  191MOL0     H25761   7.480   8.800   9.230  1.7948  0.3032 -0.9619
  191MOL0     H25762   7.548   8.768   9.074 -2.7208 -0.0651 -1.4356
  191MOL0     H25763   7.249   8.805   9.115  0.4475 -0.0708  0.3056
  191MOL0     H25764   7.342   8.769   8.962  2.0893  0.3750 -0.2234
  191MOL0     H25765   7.350   9.012   9.139 -2.3211  0.4170  0.1110
  191MOL0     H25766   7.301   9.020   8.969  1.3770  1.4339 -0.3577
  191MOL0     H25767   8.111   8.370   8.899 -1.9983  1.1690 -0.3045
  191MOL0     H25768   8.322   8.364   8.774  0.2587 -0.4293  2.5841
  191MOL0     H25769   8.611   8.422   8.560  0.5562 -0.0251 -2.7548
  191MOL0     H25770   8.826   8.356   8.466 -0.4214 -0.9400  0.8874
  191MOL0     H25771  10.875   8.563   7.828  0.1356  1.9819  0.9088
  191MOL0     H25772  11.069   8.666   7.947  2.7027  0.9408  3.0450
  191MOL0     H25773  11.401   8.648   8.158  1.8613  0.8971 -0.6973
  191MOL0     H25774  11.589   8.736   8.193  2.1403 -1.1687  1.6050
  191MOL0     H25775  11.800   8.744   8.266 -3.9537 -0.2608 -1.4303
  191MOL0     H25776  11.748   8.908   8.248  0.0057 -2.2922 -2.0474
  191MOL0     H25777  11.978   8.879   8.282 -1.5131 -1.2296 -0.4969
  191MOL0     H25778  11.972   8.839   8.449 -3.1413 -0.1809  1.9385
  191MOL0     H25779  11.863   9.046   8.519  1.5307 -0.9139  1.0993
  191MOL0     H25780  11.838   9.103   8.358  1.2506  0.0362 -1.1148
  191MOL0     H25781  12.108   9.065   8.318  2.7701  0.6760  0.5308
  191MOL0     H25782  12.111   9.063   8.494  0.5547  0.7685 -0.1660
  191MOL0     H25783  12.052   9.461   8.414 -1.9760  0.0025 -1.2703
  191MOL0     H25784  11.493   8.831   8.601  0.7404  1.7458 -0.2275
  191MOL0     H25785  11.255   8.749   8.556 -1.0268  0.6785 -1.4008
  192MOL0     O25786   0.644   2.970   4.997 -0.2326  0.2390  0.5417
  192MOL0     C25787   0.644   3.055   4.908  0.4331 -0.2318 -0.1959
  192MOL0     O25788   0.530   3.110   4.841 -0.0539  0.5278  0.5110
  192MOL0     C25789   0.409   3.057   4.879  0.4648 -0.7787 -0.0355
  192MOL0     C25790   0.375   2.918   4.878  0.1877 -0.1200 -0.5016
  192MOL0     C25791   0.251   2.870   4.928 -0.2629 -0.3586 -0.5134
  192MOL0     C25792   0.148   2.962   4.960  0.1149  0.5574 -0.1669
  192MOL0     O25793   0.022   2.920   4.978 -1.0982  0.4374  0.1169
  192MOL0     C25794  -0.083   3.000   4.936 -0.4190 -0.1575 -0.7954
  192MOL0     C25795  -0.212   2.924   4.958 -0.9370 -0.1843  1.0389
  192MOL0     C25796  -0.249   2.903   5.108 -0.0074 -0.9701  0.3248
  192MOL0     C25797  -0.347   3.015   5.151  0.1585 -1.0838 -0.6300
  192MOL0     C25798  -0.428   2.989   5.276  0.5423 -0.1388  0.9366
  192MOL0     C25799  -0.501   3.112   5.335  0.2776  0.4425 -0.6493
  192MOL0     C25800  -0.570   3.090   5.469  0.2039  0.1866  0.8381
  192MOL0     C25801  -0.662   2.968   5.473  0.3582  0.5372 -0.3677
  192MOL0     N25802  -0.772   2.970   5.376  1.0550 -0.7311 -0.0557
  192MOL0     C25803  -0.793   2.866   5.281 -0.0332 -0.1880 -0.0988
  192MOL0     C25804  -0.890   2.932   5.207 -0.3692  0.2230  0.0462
  192MOL0     C25805  -0.965   2.866   5.086 -0.0068  0.0923 -0.4302
  192MOL0     C25806  -1.105   2.823   5.132 -0.4133 -0.2638  0.2347
  192MOL0     C25807  -1.115   2.682   5.203  0.3349  0.8065  0.8180
  192MOL0     C25808  -1.272   2.652   5.238 -1.1144  0.9791  0.1191
  192MOL0     O25809  -1.340   2.638   5.112  0.5945  0.7453 -0.5906
  192MOL0     C25810  -1.458   2.701   5.098  0.6993 -0.4656  0.9305
  192MOL0     C25811  -1.548   2.735   5.202  0.2666 -0.2260 -0.5369
  192MOL0     C25812  -1.663   2.812   5.184  0.6327  0.4922  0.2746
  192MOL0     C25813  -1.752   2.824   5.309 -0.6598  0.0909 -0.7274
  192MOL0     C25814  -1.684   2.866   5.055  0.5444  0.3331 -0.2051
  192MOL0     C25815  -1.811   2.940   5.023  0.2060 -0.1959 -0.6025
  192MOL0     O25816  -1.928   2.923   5.098  0.3291 -0.3362  0.4406
  192MOL0     C25817  -2.051   2.959   5.055  0.0829 -0.2975  0.7895
  192MOL0     C25818  -2.092   2.958   4.918  0.0910 -0.3317 -0.3670
  192MOL0     C25819  -2.224   2.996   4.895  0.0868 -0.2427  0.0514
  192MOL0     C25820  -2.320   3.016   4.999  0.0975 -1.0316  0.3471
  192MOL0     O25821  -2.451   3.060   4.979 -0.4055 -0.5581  0.6347
  192MOL0     C25822  -2.488   3.076   4.839  0.1281  0.2468 -0.0710
  192MOL0     C25823  -2.625   3.136   4.823  0.4047 -0.8119  0.3372
  192MOL0     C25824  -2.693   3.099   4.692  0.5694 -0.4512 -0.1653
  192MOL0     C25825  -2.772   2.964   4.718 -0.3024 -1.1667  0.3363
  192MOL0     C25826  -2.788   2.882   4.600  0.9642  0.4447  0.2618
  192MOL0     C25827  -2.656   2.804   4.570  0.8285  0.6025  0.3818
  192MOL0     C25828  -2.674   2.709   4.450  0.5497 -0.2610  0.1117
  192MOL0     C25829  -2.551   2.686   4.368 -0.8789  0.7844  0.5855
  192MOL0    Cl25830  -2.417   2.634   4.491 -0.1539 -0.3151  0.1059
  192MOL0     C25831  -2.276   3.013   5.128  0.2192 -0.1702 -0.2369
  192MOL0     C25832  -2.146   2.987   5.157 -0.7704 -0.2642  0.0839
  192MOL0     O25833  -1.806   3.015   4.922  0.4458  0.0919 -0.4168
  192MOL0     C25834  -1.591   2.835   4.945  0.4831  0.6246 -1.5113
  192MOL0     C25835  -1.483   2.753   4.967 -0.1409  0.1060  0.2101
  192MOL0     N25836  -0.919   3.058   5.253  0.1824  0.1807 -0.0736
  192MOL0     N25837  -0.849   3.083   5.358 -0.6076  0.0034 -0.4212
  192MOL0     C25838   0.182   3.097   4.957  0.3374 -0.9963  0.2640
  192MOL0     C25839   0.312   3.142   4.918 -0.7312 -0.7366  0.8495
  192MOL0     C25840   0.770   3.095   4.854 -0.0212 -0.1358 -0.2697
  192MOL0     C25841   0.789   3.229   4.804 -0.3267  0.2082 -0.2819
  192MOL0     C25842   0.916   3.268   4.752 -0.2698 -0.4806 -0.4070
  192MOL0     C25843   1.027   3.190   4.756  0.5411  0.2828  0.3276
  192MOL0     O25844   1.147   3.226   4.717 -0.5307  0.1535  0.0015
  192MOL0     C25845   1.173   3.354   4.665  0.8159 -0.9761 -0.2306
  192MOL0     C25846   1.319   3.363   4.622  0.6487 -0.2389  0.1014
  192MOL0     C25847   1.379   3.500   4.641  0.0014 -0.1289  0.3953
  192MOL0     C25848   1.315   3.590   4.533 -0.0205 -0.0573 -0.6459
  192MOL0     C25849   1.397   3.593   4.400 -0.0797 -0.0102 -0.0049
  192MOL0     C25850   1.465   3.615   4.302  0.2668 -0.5747 -0.4557
  192MOL0     C25851   1.005   3.056   4.799 -0.7717 -0.1854 -0.0174
  192MOL0     C25852   0.880   3.008   4.846  0.5296 -1.0941 -0.6014
  192MOL0     H25853   0.451   2.850   4.840  0.8296  0.3132 -0.0163
  192MOL0     H25854   0.234   2.763   4.926 -0.7463 -0.2698 -1.6285
  192MOL0     H25855  -0.087   3.093   4.993  0.4301 -0.4930 -0.1606
  192MOL0     H25856  -0.059   3.030   4.833  0.7384  1.1948 -0.1646
  192MOL0     H25857  -0.293   2.969   4.900 -0.2115 -1.1276 -0.7883
  192MOL0     H25858  -0.201   2.832   4.900  1.3120  0.7972 -0.2209
  192MOL0     H25859  -0.305   2.810   5.124 -1.1563  0.1284  3.5139
  192MOL0     H25860  -0.157   2.903   5.167  0.0378 -0.7511  0.2520
  192MOL0     H25861  -0.280   3.101   5.167 -0.4058 -1.0697  2.1438
  192MOL0     H25862  -0.412   3.028   5.064  1.3935 -0.9141 -1.5688
  192MOL0     H25863  -0.502   2.919   5.238  0.1964  1.6979 -2.1053
  192MOL0     H25864  -0.364   2.949   5.355  0.9781  1.0404  1.2066
  192MOL0     H25865  -0.427   3.190   5.356 -1.5658  2.1405 -0.2022
  192MOL0     H25866  -0.569   3.151   5.258 -0.1295 -4.5137 -3.2407
  192MOL0     H25867  -0.487   3.079   5.539  0.6325 -2.1763  0.0526
  192MOL0     H25868  -0.631   3.174   5.502  1.2416  0.8943  1.0115
  192MOL0     H25869  -0.708   2.962   5.572  1.2634  1.0681  0.1037
  192MOL0     H25870  -0.604   2.875   5.468  2.0293  1.4990  0.2760
  192MOL0     H25871  -0.745   2.772   5.258  0.8132  0.4079 -0.8472
  192MOL0     H25872  -0.961   2.940   5.005  0.4051  1.8911  1.1550
  192MOL0     H25873  -0.910   2.779   5.047 -0.0845 -0.0842 -0.1453
  192MOL0     H25874  -1.155   2.813   5.035  2.1579 -0.3098 -1.1924
  192MOL0     H25875  -1.141   2.908   5.191  4.5353  1.3625  1.3824
  192MOL0     H25876  -1.048   2.682   5.289  0.6074 -0.6291  0.6272
  192MOL0     H25877  -1.083   2.601   5.137 -1.4495  0.3226  0.4890
  192MOL0     H25878  -1.309   2.722   5.313 -2.4734  1.3579 -0.8738
  192MOL0     H25879  -1.258   2.556   5.289  2.5897  0.6833 -1.0964
  192MOL0     H25880  -1.528   2.703   5.304 -1.3000 -0.3779 -0.2486
  192MOL0     H25881  -1.825   2.905   5.303  0.1879  0.9512  0.2029
  192MOL0     H25882  -1.815   2.739   5.334 -0.8209  0.1858 -0.8139
  192MOL0     H25883  -1.689   2.832   5.398 -0.9564 -2.5203 -0.1907
  192MOL0     H25884  -2.019   2.947   4.838  1.5477  0.9705  0.7155
  192MOL0     H25885  -2.264   3.011   4.795  1.1278 -2.5705 -0.7946
  192MOL0     H25886  -2.418   3.142   4.787  1.8409 -1.2087  0.2575
  192MOL0     H25887  -2.491   2.973   4.802 -1.3102 -0.5901  2.1697
  192MOL0     H25888  -2.694   3.096   4.897 -1.6864 -1.0155 -1.5966
  192MOL0     H25889  -2.625   3.243   4.842 -0.4363 -0.8613  0.6589
  192MOL0     H25890  -2.616   3.079   4.617  0.6576  0.7418 -0.4245
  192MOL0     H25891  -2.767   3.170   4.656  0.6660 -0.4635 -0.3889
  192MOL0     H25892  -2.722   2.907   4.797 -0.4425 -1.0722  0.4961
  192MOL0     H25893  -2.873   2.984   4.756 -0.6878  0.0534 -1.2358
  192MOL0     H25894  -2.822   2.946   4.518  1.1578  1.2179  0.7698
  192MOL0     H25895  -2.860   2.804   4.622  1.4723 -0.6789 -1.8208
  192MOL0     H25896  -2.584   2.881   4.541  1.3045  0.7712  1.9187
  192MOL0     H25897  -2.619   2.741   4.652  2.6357 -0.9820 -1.5450
  192MOL0     H25898  -2.746   2.747   4.377 -0.6634 -1.6105  0.5521
  192MOL0     H25899  -2.717   2.613   4.480 -0.9775  0.0785 -0.8655
  192MOL0     H25900  -2.527   2.772   4.304  2.0931  2.1895  3.3128
  192MOL0     H25901  -2.569   2.603   4.299 -2.5761  1.4754  0.1302
  192MOL0     H25902  -2.359   3.037   5.195  0.2671 -1.4656  0.3211
  192MOL0     H25903  -2.117   2.964   5.259 -1.4255 -1.6441 -0.0135
  192MOL0     H25904  -1.618   2.867   4.845 -0.2373 -3.6918 -2.9079
  192MOL0     H25905  -1.411   2.740   4.886  0.3370  0.0948  0.6291
  192MOL0     H25906   0.102   3.170   4.960  0.8820 -0.3434 -0.5777
  192MOL0     H25907   0.326   3.249   4.911  0.9703 -0.9768  0.0720
  192MOL0     H25908   0.701   3.293   4.798 -1.3416 -1.2656 -2.4359
  192MOL0     H25909   0.918   3.368   4.710 -0.1659  0.0302  0.7736
  192MOL0     H25910   1.105   3.385   4.585  0.3433 -0.0421  0.5098
  192MOL0     H25911   1.151   3.428   4.743  0.1336 -0.2222 -1.1175
  192MOL0     H25912   1.341   3.327   4.521  3.1189 -2.4373  1.2966
  192MOL0     H25913   1.387   3.299   4.680  0.6260  1.0796  1.6824
  192MOL0     H25914   1.484   3.502   4.611 -0.5679  1.7698 -1.7505
  192MOL0     H25915   1.367   3.540   4.742  1.1782  2.4677 -0.4310
  192MOL0     H25916   1.303   3.690   4.575  0.9319  0.8556 -2.4489
  192MOL0     H25917   1.214   3.554   4.508 -0.2893 -1.0743  1.6602
  192MOL0     H25918   1.535   3.639   4.226  0.7827 -0.2804  0.1040
  192MOL0     H25919   1.085   2.982   4.797  1.1612  1.7990 -2.3990
  192MOL0     H25920   0.868   2.901   4.863  0.2699 -1.3883 -2.4265
  193MOL0     O25921   7.291   4.011   6.556  0.0024  0.4021 -0.6157
  193MOL0     C25922   7.365   4.040   6.463 -0.3190 -1.0423 -0.8961
  193MOL0     O25923   7.334   4.128   6.361 -0.4037 -0.2424 -0.5338
  193MOL0     C25924   7.214   4.195   6.364  0.2753 -0.4877 -0.5839
  193MOL0     C25925   7.101   4.149   6.315  0.2864 -0.3545 -0.6454
  193MOL0     C25926   6.983   4.232   6.315  0.1939 -0.0686  0.2486
  193MOL0     C25927   6.977   4.359   6.386 -0.1208 -0.6342  0.3163
  193MOL0     O25928   6.861   4.442   6.412 -0.5397  1.0053  0.3361
  193MOL0     C25929   6.739   4.395   6.349  0.4095  0.0413 -0.1681
  193MOL0     C25930   6.627   4.501   6.353  0.4436 -0.1383  0.6710
  193MOL0     C25931   6.658   4.650   6.322 -0.1285  0.1609 -0.6071
  193MOL0     C25932   6.533   4.725   6.290  0.0968  0.4013  0.7215
  193MOL0     C25933   6.445   4.757   6.414  0.5764 -0.1121  0.4014
  193MOL0     C25934   6.306   4.812   6.377  0.3977  0.3344  1.2902
  193MOL0     C25935   6.203   4.834   6.497 -0.0642 -0.0944  0.7066
  193MOL0     C25936   6.259   4.886   6.624  0.6314  0.0801 -0.5680
  193MOL0     N25937   6.146   4.904   6.721 -1.0438 -0.5464  1.1072
  193MOL0     C25938   6.144   4.872   6.851  0.4006  0.1672 -0.1870
  193MOL0     C25939   6.034   4.938   6.898 -0.4235 -0.5101 -0.1533
  193MOL0     C25940   5.987   4.928   7.048  0.9187  0.1366 -0.0546
  193MOL0     C25941   5.846   4.880   7.071  0.4620  0.4512  0.4161
  193MOL0     C25942   5.725   4.960   7.029  0.1875  0.2790  0.8571
  193MOL0     C25943   5.596   4.931   7.111 -0.3122  0.1872 -0.2091
  193MOL0     O25944   5.489   5.030   7.081 -0.4830  0.4984 -0.2078
  193MOL0     C25945   5.371   5.012   7.147  0.1661  0.0434  1.0487
  193MOL0     C25946   5.334   4.899   7.223  0.5997  0.3726  0.1148
  193MOL0     C25947   5.213   4.902   7.299 -0.1304  0.3613 -0.8962
  193MOL0     C25948   5.175   4.780   7.389  0.7340  0.4695  0.7269
  193MOL0     C25949   5.122   5.010   7.285 -0.1488 -0.1570  0.8702
  193MOL0     C25950   4.983   5.032   7.349  0.4964  0.1639 -0.7782
  193MOL0     O25951   4.962   5.154   7.406  0.3660 -0.0366 -0.2371
  193MOL0     C25952   4.841   5.194   7.457  0.2967 -1.5971  0.4792
  193MOL0     C25953   4.742   5.117   7.494  0.3689 -0.0478 -0.7397
  193MOL0     C25954   4.627   5.180   7.559  0.5533 -0.1398  1.2456
  193MOL0     C25955   4.620   5.317   7.573 -0.4678  0.1803 -0.0849
  193MOL0     O25956   4.511   5.375   7.633  0.4634  0.5388 -0.3940
  193MOL0     C25957   4.388   5.294   7.650  0.1262 -0.1139  0.6058
  193MOL0     C25958   4.273   5.396   7.679 -0.3790 -0.0792  0.5089
  193MOL0     C25959   4.275   5.457   7.817  0.3130  0.3870  0.6720
  193MOL0     C25960   4.144   5.535   7.836  0.9735  0.3452 -0.9995
  193MOL0     C25961   4.117   5.579   7.981  0.4190 -0.0596  0.0879
  193MOL0     C25962   3.969   5.634   7.990 -0.3195 -0.0451  0.4922
  193MOL0     C25963   3.930   5.687   8.124 -0.5397  0.3218  0.2844
  193MOL0     C25964   4.020   5.805   8.169 -0.6696  0.1298  0.0236
  193MOL0    Cl25965   4.073   5.916   8.038  0.5456 -0.4990  0.5088
  193MOL0     C25966   4.730   5.398   7.539  0.9217  0.5628  0.3216
  193MOL0     C25967   4.837   5.327   7.490 -0.9450  0.5043  0.2679
  193MOL0     O25968   4.898   4.943   7.340  0.4533 -0.3805  1.0693
  193MOL0     C25969   5.163   5.121   7.208 -0.4387 -0.0506  0.3793
  193MOL0     C25970   5.284   5.120   7.137  0.5741 -0.5214  0.4236
  193MOL0     N25971   5.981   5.015   6.796 -0.0019 -0.1841  0.7093
  193MOL0     N25972   6.052   4.997   6.695  0.1432 -0.3590  0.4443
  193MOL0     C25973   7.098   4.395   6.439 -0.1007 -0.0486 -0.5792
  193MOL0     C25974   7.214   4.317   6.434  1.1548  0.5541 -0.2677
  193MOL0     C25975   7.498   3.987   6.464  0.4340  0.1683 -0.4423
  193MOL0     C25976   7.576   3.997   6.352  0.4553  0.4391 -0.1355
  193MOL0     C25977   7.704   3.953   6.346  1.0288  0.5185  0.5785
  193MOL0     C25978   7.765   3.887   6.459  0.7378 -0.3547 -0.1811
  193MOL0     O25979   7.900   3.862   6.449 -0.2114  0.5697  0.4179
  193MOL0     C25980   7.962   3.775   6.549  1.0556  0.0579  0.1157
  193MOL0     C25981   8.112   3.814   6.558  0.3398 -0.1736  0.3445
  193MOL0     C25982   8.189   3.728   6.458 -0.6334  0.0567 -1.1065
  193MOL0     C25983   8.329   3.786   6.433  0.6411 -0.1757 -0.4008
  193MOL0     C25984   8.423   3.734   6.528  0.5863  0.3272 -0.2534
  193MOL0     C25985   8.496   3.709   6.618 -0.0594 -0.2442  0.1367
  193MOL0     C25986   7.685   3.870   6.572 -0.0357 -1.3033  0.5964
  193MOL0     C25987   7.550   3.916   6.572  0.5968  0.6037  0.0793
  193MOL0     H25988   7.095   4.053   6.265 -0.8171 -1.4450  1.4802
  193MOL0     H25989   6.893   4.193   6.268  0.1271 -1.9706  1.8212
  193MOL0     H25990   6.755   4.369   6.244  0.9584  0.4840 -0.2013
  193MOL0     H25991   6.704   4.299   6.389  2.7806  1.1663  5.6449
  193MOL0     H25992   6.565   4.478   6.266  1.5779 -4.2294  0.7705
  193MOL0     H25993   6.573   4.486   6.447  1.2598 -1.9985  0.8797
  193MOL0     H25994   6.697   4.699   6.412 -5.3252 -0.7924  2.6683
  193MOL0     H25995   6.726   4.646   6.237 -0.2045 -0.5362 -0.6433
  193MOL0     H25996   6.545   4.823   6.242 -1.1477 -0.7492 -2.1806
  193MOL0     H25997   6.483   4.676   6.206  1.9091  1.2462 -0.9449
  193MOL0     H25998   6.430   4.667   6.474  3.9540 -2.8346 -2.3684
  193MOL0     H25999   6.505   4.827   6.473  0.5324  0.7463 -0.5502
  193MOL0     H26000   6.302   4.907   6.323  0.0130  0.0741  0.8505
  193MOL0     H26001   6.264   4.735   6.311 -1.3046 -0.3267  3.0574
  193MOL0     H26002   6.128   4.903   6.457 -2.7698 -2.3772  1.5236
  193MOL0     H26003   6.150   4.742   6.526  1.0268 -0.4365  1.6950
  193MOL0     H26004   6.314   4.980   6.621 -3.5504  2.8382  0.2439
  193MOL0     H26005   6.318   4.806   6.670 -3.0027 -1.0470  2.7073
  193MOL0     H26006   6.210   4.801   6.899 -0.6250  0.6103  2.0038
  193MOL0     H26007   6.057   4.853   7.086  2.4959  1.8606  0.5334
  193MOL0     H26008   5.996   5.026   7.095 -0.0679  0.6741 -0.9269
  193MOL0     H26009   5.836   4.862   7.178 -1.4648  1.0590  0.3767
  193MOL0     H26010   5.837   4.781   7.025 -0.7045  1.4253 -1.6027
  193MOL0     H26011   5.697   4.940   6.925  2.0769 -2.7443  0.8029
  193MOL0     H26012   5.757   5.065   7.036  2.0117 -0.0694 -1.0396
  193MOL0     H26013   5.622   4.929   7.217  1.6029 -0.5581 -0.6653
  193MOL0     H26014   5.550   4.834   7.092 -1.1635  0.5663 -0.1733
  193MOL0     H26015   5.397   4.816   7.256  0.5057  1.4400  3.3810
  193MOL0     H26016   5.067   4.766   7.380  1.0620 -1.1027 -2.3045
  193MOL0     H26017   5.221   4.688   7.352  0.6895  1.8262 -3.1372
  193MOL0     H26018   5.218   4.800   7.487 -2.0112  0.0800  2.1038
  193MOL0     H26019   4.737   5.009   7.481 -1.4915  0.0740 -1.3192
  193MOL0     H26020   4.549   5.108   7.583 -0.9147  0.3876 -1.6259
  193MOL0     H26021   4.370   5.246   7.553 -0.2547  2.0821 -0.4735
  193MOL0     H26022   4.397   5.225   7.735  2.6433  0.9828  1.3233
  193MOL0     H26023   4.289   5.473   7.603  0.5867 -1.5065 -0.7807
  193MOL0     H26024   4.176   5.350   7.654 -1.2178  2.1398 -0.5600
  193MOL0     H26025   4.355   5.531   7.825 -2.1229  3.7869 -2.7856
  193MOL0     H26026   4.279   5.374   7.889 -0.8451  1.3575  1.8978
  193MOL0     H26027   4.141   5.619   7.766 -2.9194 -0.5809 -2.1601
  193MOL0     H26028   4.064   5.467   7.807  2.6983 -2.7868  1.1015
  193MOL0     H26029   4.183   5.659   8.017  0.2265  1.2429 -2.2585
  193MOL0     H26030   4.123   5.498   8.055  1.2895 -0.1973 -0.1171
  193MOL0     H26031   3.948   5.710   7.914  3.5016 -0.0019 -0.7342
  193MOL0     H26032   3.896   5.556   7.965  0.5528 -0.7578  0.1000
  193MOL0     H26033   3.950   5.612   8.201  0.7964 -1.6379 -1.8319
  193MOL0     H26034   3.824   5.710   8.111 -0.0974  1.3145 -2.2354
  193MOL0     H26035   4.102   5.753   8.220 -0.8523 -1.3413 -1.1235
  193MOL0     H26036   3.978   5.871   8.246  2.3364  0.2328  1.7562
  193MOL0     H26037   4.716   5.506   7.550 -1.5656  0.2628  0.6757
  193MOL0     H26038   4.927   5.385   7.474  0.0379 -0.2783  2.5890
  193MOL0     H26039   5.087   5.195   7.185 -0.2352 -0.2177 -0.9182
  193MOL0     H26040   5.315   5.199   7.070 -0.4237  0.1141  0.6880
  193MOL0     H26041   7.105   4.495   6.480  1.9528 -1.4012  2.8102
  193MOL0     H26042   7.306   4.364   6.467  1.8922 -0.4582 -0.8146
  193MOL0     H26043   7.549   4.038   6.255 -2.9571 -1.7258 -0.2708
  193MOL0     H26044   7.758   3.971   6.253 -0.4172 -0.0974 -0.4298
  193MOL0     H26045   7.908   3.788   6.643  0.8353  1.5822 -0.2008
  193MOL0     H26046   7.962   3.671   6.516 -0.7420 -0.0160  0.2386
  193MOL0     H26047   8.148   3.797   6.660 -1.1511 -0.4182  0.8594
  193MOL0     H26048   8.118   3.921   6.537 -0.4930 -0.0081  0.8814
  193MOL0     H26049   8.142   3.728   6.359 -0.4878  1.2965 -1.1929
  193MOL0     H26050   8.211   3.627   6.492  3.9620  2.1499  3.6494
  193MOL0     H26051   8.324   3.893   6.456  0.2167 -0.0024 -1.2604
  193MOL0     H26052   8.363   3.775   6.330 -0.1903 -4.1178 -0.4006
  193MOL0     H26053   8.558   3.661   6.691 -0.8792 -3.0532 -0.8591
  193MOL0     H26054   7.712   3.827   6.668 -1.8885 -3.0104  0.4238
  193MOL0     H26055   7.496   3.896   6.664  1.6012 -1.5972  0.2570
  194MOL0     O26056   5.782   4.359   0.314 -0.5280  0.8744 -0.2653
  194MOL0     C26057   5.796   4.448   0.228 -0.0723 -0.2881 -1.2837
  194MOL0     O26058   5.701   4.501   0.156 -0.1945  0.0767 -0.4948
  194MOL0     C26059   5.573   4.496   0.200 -0.2802  0.5490 -0.2361
  194MOL0     C26060   5.500   4.612   0.236 -0.8951 -0.2992  0.0469
  194MOL0     C26061   5.371   4.593   0.291  0.8437  0.2879 -0.3810
  194MOL0     C26062   5.303   4.472   0.301 -0.4725 -1.2228  0.1501
  194MOL0     O26063   5.172   4.482   0.330 -0.1845  1.0073  0.2601
  194MOL0     C26064   5.081   4.467   0.215  0.0084  0.5424 -0.7157
  194MOL0     C26065   4.950   4.546   0.232  0.3983 -0.4201 -0.8686
  194MOL0     C26066   4.982   4.692   0.203 -0.0058  0.0090 -0.2516
  194MOL0     C26067   4.881   4.794   0.255 -0.6312 -0.3540  1.1040
  194MOL0     C26068   4.738   4.745   0.215 -0.2284  0.3639  0.1603
  194MOL0     C26069   4.648   4.862   0.255  0.0426 -0.2486  0.1320
  194MOL0     C26070   4.622   4.883   0.411 -0.1686  0.0176  1.1936
  194MOL0     C26071   4.474   4.903   0.457  0.1246 -0.0247  0.1347
  194MOL0     N26072   4.400   4.778   0.442  0.0588  0.1460 -0.0131
  194MOL0     C26073   4.424   4.666   0.511  0.4268  0.0920  0.0337
  194MOL0     C26074   4.324   4.576   0.485 -0.3771 -0.2734 -0.4034
  194MOL0     C26075   4.309   4.445   0.554  0.2779 -0.7675 -0.8372
  194MOL0     C26076   4.247   4.457   0.687 -0.3237 -0.0177 -0.8347
  194MOL0     C26077   4.196   4.312   0.728  0.0063 -0.6625  0.0517
  194MOL0     C26078   4.153   4.312   0.876 -0.2158 -0.0983 -0.0104
  194MOL0     O26079   4.099   4.438   0.921  0.0361  0.4585 -0.0407
  194MOL0     C26080   3.971   4.445   0.967  0.0602 -0.1955  0.1359
  194MOL0     C26081   3.906   4.566   0.950 -0.4489  0.2790 -0.3589
  194MOL0     C26082   3.772   4.590   0.993 -0.2786  0.3532 -0.8366
  194MOL0     C26083   3.726   4.728   0.983 -0.2291  0.1798 -0.5264
  194MOL0     C26084   3.705   4.480   1.063  0.2898 -0.4197  0.3302
  194MOL0     C26085   3.573   4.506   1.111  0.6923 -1.1701 -1.1177
  194MOL0     O26086   3.487   4.578   1.026  0.5098  0.4666  0.7553
  194MOL0     C26087   3.353   4.570   1.059 -0.0872 -0.2998 -0.1556
  194MOL0     C26088   3.275   4.695   1.060 -0.5955  0.0112 -0.5349
  194MOL0     C26089   3.138   4.696   1.102 -0.2569  0.8075  0.0923
  194MOL0     C26090   3.064   4.576   1.099  0.2636  0.7417  0.5155
  194MOL0     O26091   2.932   4.580   1.112 -0.4690  0.1611  0.0685
  194MOL0     C26092   2.861   4.526   0.998  0.6373 -0.5491 -0.0335
  194MOL0     C26093   2.700   4.516   1.019 -0.4428 -0.1399 -0.5991
  194MOL0     C26094   2.640   4.661   1.024 -1.0971  0.0733  0.8131
  194MOL0     C26095   2.494   4.648   1.037 -0.6126 -0.3200 -0.4885
  194MOL0     C26096   2.423   4.786   1.026 -0.9465  0.9171  0.1712
  194MOL0     C26097   2.290   4.772   1.091 -0.3121  0.2460 -0.0605
  194MOL0     C26098   2.207   4.670   1.021  0.7422 -0.5275  0.2364
  194MOL0     C26099   2.060   4.686   1.052  0.5228 -0.9916  0.3773
  194MOL0    Cl26100   1.954   4.618   0.926 -0.0581 -0.2544  0.3983
  194MOL0     C26101   3.139   4.456   1.086 -0.4731 -0.1164  1.2419
  194MOL0     C26102   3.281   4.456   1.073 -0.4885  0.3144 -0.2681
  194MOL0     O26103   3.553   4.466   1.230 -0.3278 -0.0221  0.1802
  194MOL0     C26104   3.770   4.363   1.083  0.1376 -0.0105  0.1465
  194MOL0     C26105   3.902   4.346   1.035  0.6565 -0.4973  0.3306
  194MOL0     N26106   4.240   4.648   0.400 -0.4512 -0.3886  0.5557
  194MOL0     N26107   4.286   4.766   0.371  0.5750  0.6106  0.6294
  194MOL0     C26108   5.373   4.356   0.260  0.0947 -0.0751 -0.5497
  194MOL0     C26109   5.503   4.366   0.214 -0.0497 -0.1927  0.5229
  194MOL0     C26110   5.940   4.496   0.205  0.3167 -0.2777 -0.1886
  194MOL0     C26111   5.965   4.603   0.114  0.5544  0.2401  0.3268
  194MOL0     C26112   6.098   4.652   0.094 -1.1559  0.4147  0.0591
  194MOL0     C26113   6.210   4.607   0.172 -0.4646 -0.4889 -0.0094
  194MOL0     O26114   6.333   4.645   0.132  0.0249 -0.0466 -0.7118
  194MOL0     C26115   6.450   4.573   0.165 -0.5022 -0.3642 -0.3969
  194MOL0     C26116   6.518   4.633   0.285 -0.2197  0.4758 -0.2964
  194MOL0     C26117   6.673   4.589   0.306 -0.4588  0.0742 -0.0576
  194MOL0     C26118   6.774   4.633   0.203 -0.2065  0.1808  0.0546
  194MOL0     C26119   6.891   4.543   0.202 -0.0630  0.4968  0.1246
  194MOL0     C26120   6.994   4.478   0.197  0.3131  0.1432  0.0911
  194MOL0     C26121   6.182   4.500   0.259 -0.0926  0.5794  0.0653
  194MOL0     C26122   6.051   4.450   0.277  0.8928  0.2814  0.9429
  194MOL0     H26123   5.546   4.710   0.229  0.9165 -1.1200 -0.1427
  194MOL0     H26124   5.313   4.678   0.324 -0.5708 -0.2158 -1.4705
  194MOL0     H26125   5.116   4.498   0.116 -2.3727  2.5507 -1.0298
  194MOL0     H26126   5.042   4.366   0.201 -1.1677  1.0925 -1.5503
  194MOL0     H26127   4.876   4.499   0.167  1.0188 -4.6176  1.1345
  194MOL0     H26128   4.922   4.526   0.336  2.1045 -0.6262 -0.4209
  194MOL0     H26129   5.074   4.723   0.253  0.4576 -1.3225 -0.2414
  194MOL0     H26130   4.984   4.701   0.094  0.0462  1.2903 -0.1581
  194MOL0     H26131   4.891   4.802   0.364  0.0679 -0.4164  1.0495
  194MOL0     H26132   4.911   4.889   0.210 -0.2049 -1.3621 -0.8386
  194MOL0     H26133   4.734   4.730   0.107  0.3941 -2.7721  0.4895
  194MOL0     H26134   4.710   4.650   0.261 -1.4433  1.5958  2.1200
  194MOL0     H26135   4.700   4.952   0.222 -0.7836 -0.1338 -0.9426
  194MOL0     H26136   4.553   4.843   0.203  0.1827  2.2806 -1.1946
  194MOL0     H26137   4.669   4.796   0.458 -2.0053 -2.5916 -1.4244
  194MOL0     H26138   4.664   4.977   0.447  1.4938  0.2937 -1.2322
  194MOL0     H26139   4.439   4.982   0.391  0.8809 -0.4937 -0.8553
  194MOL0     H26140   4.460   4.928   0.563 -2.5372 -1.6560  0.2624
  194MOL0     H26141   4.511   4.652   0.574  0.8527 -0.9483 -0.7352
  194MOL0     H26142   4.245   4.382   0.491 -0.1764  0.7735 -1.9809
  194MOL0     H26143   4.409   4.402   0.561  0.7048  0.4721  1.7717
  194MOL0     H26144   4.172   4.536   0.691 -1.8471 -1.4467  1.5657
  194MOL0     H26145   4.322   4.486   0.760 -1.6209  1.1600  0.0849
  194MOL0     H26146   4.275   4.238   0.710  2.4240  1.9410 -0.7367
  194MOL0     H26147   4.109   4.283   0.668 -1.3647  3.8884 -0.4981
  194MOL0     H26148   4.242   4.287   0.935 -1.1673  0.2450  1.6257
  194MOL0     H26149   4.093   4.225   0.900 -0.8238  0.3770  0.2113
  194MOL0     H26150   3.949   4.657   0.910 -1.5217  1.0185  0.1336
  194MOL0     H26151   3.656   4.752   1.065 -0.1136  1.3043 -0.7372
  194MOL0     H26152   3.815   4.790   1.000  1.7208 -2.8017  0.8676
  194MOL0     H26153   3.675   4.751   0.889 -3.3838  0.6611  1.1372
  194MOL0     H26154   3.324   4.791   1.042 -0.8291  0.3395  0.5152
  194MOL0     H26155   3.086   4.792   1.108 -0.4347  0.8226 -1.2829
  194MOL0     H26156   2.874   4.595   0.914 -2.5510 -1.0090 -1.0729
  194MOL0     H26157   2.897   4.427   0.969  0.2586 -0.2937 -1.5042
  194MOL0     H26158   2.657   4.469   0.930  0.1257  3.7957 -3.2686
  194MOL0     H26159   2.666   4.467   1.110 -1.3965  3.4942  1.2214
  194MOL0     H26160   2.653   4.719   0.932 -3.1227 -0.4345  0.1499
  194MOL0     H26161   2.675   4.721   1.108  2.7769 -0.7386 -0.0048
  194MOL0     H26162   2.450   4.587   0.958 -1.8287 -0.9648  0.6244
  194MOL0     H26163   2.472   4.598   1.132  0.3691  1.3406  0.6578
  194MOL0     H26164   2.422   4.809   0.920  1.8664 -1.1063 -0.4224
  194MOL0     H26165   2.490   4.854   1.080  3.7361 -3.0711  0.1115
  194MOL0     H26166   2.300   4.736   1.194 -2.1578  1.3351  0.5515
  194MOL0     H26167   2.241   4.870   1.101 -3.1214 -0.9811 -0.9649
  194MOL0     H26168   2.244   4.578   1.068  1.9956  0.6671  1.6799
  194MOL0     H26169   2.232   4.680   0.915  0.4961  0.8731  0.2905
  194MOL0     H26170   2.038   4.793   1.058  0.7639 -0.8232 -1.2035
  194MOL0     H26171   2.032   4.640   1.147 -0.6386  1.1767  1.1443
  194MOL0     H26172   3.096   4.356   1.085 -1.0196  0.0765 -0.9085
  194MOL0     H26173   3.320   4.360   1.040 -1.3686 -0.6210  1.2811
  194MOL0     H26174   3.724   4.276   1.128  2.7600 -0.2109  2.7139
  194MOL0     H26175   3.939   4.245   1.042 -0.0117 -0.6921  1.3913
  194MOL0     H26176   5.325   4.260   0.271  3.7521 -1.8546  1.8598
  194MOL0     H26177   5.561   4.283   0.175  2.0892  0.5411  1.9506
  194MOL0     H26178   5.882   4.651   0.062 -0.3212 -2.0499 -0.5621
  194MOL0     H26179   6.110   4.727   0.016 -0.7544 -1.0812 -1.3804
  194MOL0     H26180   6.435   4.464   0.170 -0.0662 -0.3893  2.5297
  194MOL0     H26181   6.526   4.583   0.087  0.4645  1.4487  0.7110
  194MOL0     H26182   6.453   4.598   0.366  0.4434 -1.4027 -0.5156
  194MOL0     H26183   6.525   4.742   0.282 -0.7710  0.4887 -1.9115
  194MOL0     H26184   6.670   4.479   0.302 -0.0283  0.0745 -0.4382
  194MOL0     H26185   6.711   4.618   0.405 -2.8334 -0.5955  1.1536
  194MOL0     H26186   6.799   4.738   0.216 -0.9168  0.4130 -0.3970
  194MOL0     H26187   6.725   4.627   0.105 -1.8235  0.7182  0.7837
  194MOL0     H26188   7.071   4.403   0.199  0.9657  0.7451 -0.9726
  194MOL0     H26189   6.257   4.447   0.316  1.5381  2.1514 -0.5272
  194MOL0     H26190   6.033   4.372   0.351 -0.5187 -0.5242 -0.2054
  195MOL0     O26191   5.984   2.563   3.742 -0.2955  0.1195  0.0407
  195MOL0     C26192   6.076   2.484   3.715  0.3245 -0.3084  0.5419
  195MOL0     O26193   6.064   2.347   3.717 -0.1015  1.0573  0.2662
  195MOL0     C26194   5.935   2.296   3.700  0.3027  0.2960  0.2026
  195MOL0     C26195   5.886   2.202   3.789 -0.6771 -0.3877  0.9088
  195MOL0     C26196   5.758   2.145   3.773  0.5130 -0.4117  0.6488
  195MOL0     C26197   5.675   2.173   3.661  0.7733 -0.5514  0.5342
  195MOL0     O26198   5.553   2.123   3.638 -0.0350  0.3600  0.5380
  195MOL0     C26199   5.477   2.055   3.734  0.3115  0.5384 -0.0939
  195MOL0     C26200   5.341   2.023   3.663  0.3382  0.0507  0.1266
  195MOL0     C26201   5.214   2.066   3.737  0.9874 -0.9636 -0.3486
  195MOL0     C26202   5.097   2.080   3.645  0.3483  0.6944 -0.0918
  195MOL0     C26203   4.960   2.078   3.717 -0.3860  0.6558  0.8252
  195MOL0     C26204   4.852   2.115   3.608 -0.9780 -0.0736 -0.2965
  195MOL0     C26205   4.710   2.127   3.669 -0.0210 -1.3543 -0.4933
  195MOL0     C26206   4.697   2.279   3.710 -0.5403 -0.8955  1.1335
  195MOL0     N26207   4.562   2.310   3.755  0.2439  0.1766 -0.0684
  195MOL0     C26208   4.484   2.253   3.857  0.2205  0.4026 -0.0075
  195MOL0     C26209   4.370   2.324   3.842  0.2144  0.8236  0.5809
  195MOL0     C26210   4.246   2.300   3.928 -0.1882 -0.5828  0.2385
  195MOL0     C26211   4.172   2.160   3.922 -0.3093 -0.8974  0.8040
  195MOL0     C26212   4.107   2.130   3.781 -0.1464  0.0207  0.5445
  195MOL0     C26213   4.047   2.263   3.725 -0.0037  0.2433 -0.4935
  195MOL0     O26214   3.927   2.225   3.649 -0.7380 -0.0404  0.2105
  195MOL0     C26215   3.808   2.194   3.697 -0.0950  0.2466 -0.8233
  195MOL0     C26216   3.772   2.215   3.833  0.4503  0.0526 -0.3172
  195MOL0     C26217   3.648   2.172   3.887 -0.4846 -0.1751 -0.3621
  195MOL0     C26218   3.608   2.205   4.033  0.5063  0.0261  0.4251
  195MOL0     C26219   3.552   2.116   3.806 -0.8302  1.1578  0.7521
  195MOL0     C26220   3.413   2.078   3.849 -0.8931  0.2603  0.4169
  195MOL0     O26221   3.367   1.951   3.798 -0.3803  0.2894 -0.2620
  195MOL0     C26222   3.255   1.890   3.851 -0.0951 -0.9665 -0.8396
  195MOL0     C26223   3.131   1.931   3.802 -0.1668 -0.0912 -0.2548
  195MOL0     C26224   3.015   1.862   3.853  0.3561 -0.6976 -0.4131
  195MOL0     C26225   3.021   1.755   3.932 -0.1441  0.3862 -0.2149
  195MOL0     O26226   2.907   1.691   3.978  0.1259 -0.7384 -0.1604
  195MOL0     C26227   2.835   1.765   4.086 -1.1502 -0.3544 -0.0690
  195MOL0     C26228   2.694   1.787   4.038 -0.6281 -0.9525 -0.3037
  195MOL0     C26229   2.626   1.883   4.137 -0.4353  0.3225  0.1399
  195MOL0     C26230   2.483   1.886   4.089 -0.1920  0.6770  0.3936
  195MOL0     C26231   2.386   1.974   4.167  0.2183 -0.0235  0.3930
  195MOL0     C26232   2.254   1.961   4.101 -0.1537 -0.2524  0.5741
  195MOL0     C26233   2.146   2.027   4.190 -0.4004 -0.7735 -0.9978
  195MOL0     C26234   2.021   2.060   4.112 -0.1424  1.0166  0.7826
  195MOL0    Cl26235   1.924   2.162   4.237  0.4701 -0.0520 -0.2293
  195MOL0     C26236   3.150   1.724   3.990  0.4126  0.5922 -0.1769
  195MOL0     C26237   3.264   1.796   3.946  0.3228 -0.4342 -0.0207
  195MOL0     O26238   3.340   2.163   3.904  0.2530 -0.1042  0.3131
  195MOL0     C26239   3.584   2.081   3.671 -1.1784 -1.3474 -0.2416
  195MOL0     C26240   3.708   2.131   3.620  0.0934 -0.3307 -0.1211
  195MOL0     N26241   4.377   2.429   3.743 -0.3579  0.8045  0.1979
  195MOL0     N26242   4.498   2.410   3.690  0.2122  0.1899  1.0849
  195MOL0     C26243   5.717   2.264   3.574 -0.4645  0.5668  0.8385
  195MOL0     C26244   5.850   2.321   3.588 -0.2814  0.1497 -0.6643
  195MOL0     C26245   6.208   2.538   3.701 -0.7622  0.0509 -0.0128
  195MOL0     C26246   6.331   2.465   3.728 -0.0068 -0.1215 -0.1318
  195MOL0     C26247   6.461   2.518   3.725  0.7041 -0.1034  0.6813
  195MOL0     C26248   6.477   2.646   3.687 -0.0808  0.4914  0.1589
  195MOL0     O26249   6.598   2.701   3.694  0.6237  0.1017 -0.6731
  195MOL0     C26250   6.665   2.719   3.825  0.6145  0.6120  0.8187
  195MOL0     C26251   6.808   2.759   3.782 -0.2469 -0.4063  0.0547
  195MOL0     C26252   6.907   2.659   3.841  0.3011  0.0854 -0.1395
  195MOL0     C26253   7.029   2.650   3.748  0.1711 -0.5176  0.0977
  195MOL0     C26254   7.000   2.575   3.635 -0.1621  0.6117  0.6959
  195MOL0     C26255   6.983   2.486   3.544  0.6022 -0.2421 -0.4064
  195MOL0     C26256   6.366   2.722   3.651 -0.5429 -0.6260  0.1092
  195MOL0     C26257   6.234   2.674   3.669 -0.1158  0.6080  0.2289
  195MOL0     H26258   5.935   2.172   3.881 -1.4125  1.1441  1.8512
  195MOL0     H26259   5.728   2.090   3.861  0.1965 -1.8580 -0.3212
  195MOL0     H26260   5.524   1.959   3.757 -0.5817  0.5556  2.0503
  195MOL0     H26261   5.454   2.107   3.828 -2.6135 -0.2918 -0.2543
  195MOL0     H26262   5.354   2.084   3.573 -0.2834  0.7184  0.4793
  195MOL0     H26263   5.346   1.916   3.645 -0.0936 -0.2398  1.5939
  195MOL0     H26264   5.197   2.005   3.826  1.4756  0.0129  0.4470
  195MOL0     H26265   5.223   2.168   3.776 -0.6425 -1.8329  2.6809
  195MOL0     H26266   5.108   2.168   3.581 -2.7362  0.1215 -1.6392
  195MOL0     H26267   5.096   1.988   3.584  1.2721  0.9606 -0.5226
  195MOL0     H26268   4.949   1.980   3.763  3.0857 -1.9270 -3.0062
  195MOL0     H26269   4.968   2.155   3.793 -1.0114  0.0146  1.5537
  195MOL0     H26270   4.882   2.209   3.560  0.4105 -1.3134 -2.0095
  195MOL0     H26271   4.858   2.036   3.532  1.6021  0.3737 -0.6333
  195MOL0     H26272   4.649   2.091   3.586  0.0300 -4.4738  0.7158
  195MOL0     H26273   4.695   2.059   3.753  0.7439  2.4373  3.0922
  195MOL0     H26274   4.731   2.338   3.625  0.9586 -0.7169  1.8237
  195MOL0     H26275   4.764   2.296   3.795 -1.7655  2.0072  1.6340
  195MOL0     H26276   4.521   2.187   3.934  1.6851  1.9528  0.6812
  195MOL0     H26277   4.270   2.320   4.032  1.1655  0.3129 -0.2281
  195MOL0     H26278   4.189   2.388   3.896  0.3471 -0.2829  0.1050
  195MOL0     H26279   4.091   2.171   3.995  1.9316  2.7993  3.0518
  195MOL0     H26280   4.228   2.078   3.966  0.8739 -0.7976 -0.4317
  195MOL0     H26281   4.020   2.068   3.801 -0.5046  0.7277  1.2296
  195MOL0     H26282   4.176   2.092   3.705 -1.7166  0.9869 -1.4648
  195MOL0     H26283   4.121   2.315   3.662 -1.0391  3.5248  0.7953
  195MOL0     H26284   4.014   2.327   3.807  2.3960  0.4090  0.4192
  195MOL0     H26285   3.846   2.251   3.903  0.7503  1.8930 -1.5146
  195MOL0     H26286   3.548   2.124   4.076  0.4692 -1.0454 -1.5204
  195MOL0     H26287   3.703   2.222   4.085  1.1132 -0.4137 -0.4918
  195MOL0     H26288   3.547   2.295   4.031 -1.1278 -0.9664  2.1754
  195MOL0     H26289   3.114   2.011   3.731 -3.8706 -0.6376 -0.1586
  195MOL0     H26290   2.916   1.892   3.822  0.7294  1.0334 -0.0608
  195MOL0     H26291   2.844   1.708   4.179  0.2310  1.0201  0.6696
  195MOL0     H26292   2.878   1.863   4.103 -3.4024  0.3150  2.5083
  195MOL0     H26293   2.699   1.833   3.940 -1.8686  1.0558  0.5117
  195MOL0     H26294   2.643   1.690   4.041  0.2401 -1.4079  0.0936
  195MOL0     H26295   2.677   1.980   4.142  0.1587  0.0474 -0.4216
  195MOL0     H26296   2.620   1.845   4.240 -1.1774  1.6106  0.5960
  195MOL0     H26297   2.485   1.918   3.985 -2.3963  0.5183  0.2551
  195MOL0     H26298   2.443   1.786   4.074  2.0165 -0.1875 -0.1647
  195MOL0     H26299   2.420   2.078   4.163  1.5490 -0.3343  2.1913
  195MOL0     H26300   2.396   1.953   4.274  1.8901  2.5807  0.8396
  195MOL0     H26301   2.262   2.007   4.002 -2.1691 -1.9533 -0.4628
  195MOL0     H26302   2.227   1.857   4.081  1.0143 -0.3993 -0.3116
  195MOL0     H26303   2.189   2.118   4.232 -2.9337  0.2577 -0.4475
  195MOL0     H26304   2.129   1.972   4.283 -1.9758 -1.3248 -1.5747
  195MOL0     H26305   1.988   1.959   4.086  1.2052  1.5694 -4.1541
  195MOL0     H26306   2.024   2.121   4.021  1.2252  2.2220  1.5978
  195MOL0     H26307   3.145   1.657   4.075 -2.6807  0.6943 -0.1736
  195MOL0     H26308   3.361   1.774   3.992  0.5929 -0.4130 -0.5731
  195MOL0     H26309   3.525   2.028   3.597 -1.0358  0.2055 -1.5379
  195MOL0     H26310   3.722   2.107   3.515  0.3768 -0.0992 -0.1386
  195MOL0     H26311   5.652   2.296   3.493  0.9311 -0.2375 -0.6606
  195MOL0     H26312   5.885   2.382   3.506 -0.5382  0.9892 -0.1623
  195MOL0     H26313   6.320   2.359   3.751 -0.3186 -0.4021 -1.4772
  195MOL0     H26314   6.541   2.446   3.740  1.5212  0.3880 -0.9800
  195MOL0     H26315   6.627   2.797   3.892  1.1925  0.9452  0.7608
  195MOL0     H26316   6.664   2.626   3.883  1.2888  0.9509  1.3929
  195MOL0     H26317   6.824   2.861   3.820 -1.0768 -0.8192  1.5918
  195MOL0     H26318   6.812   2.760   3.673 -1.3157 -1.4666 -0.0241
  195MOL0     H26319   6.869   2.558   3.852  1.0415 -0.1521  0.3041
  195MOL0     H26320   6.948   2.695   3.936  1.4104  0.1661 -0.6300
  195MOL0     H26321   7.117   2.605   3.796  0.8695 -0.6796 -1.2846
  195MOL0     H26322   7.070   2.747   3.718 -1.2520 -0.6546 -2.5644
  195MOL0     H26323   6.982   2.409   3.469  0.0888  0.2437 -0.9066
  195MOL0     H26324   6.374   2.824   3.613  1.3952 -0.0791  1.8164
  195MOL0     H26325   6.145   2.734   3.655 -0.6195 -0.5009 -1.7245
  196MOL0     O26326   1.047   0.552   2.353  0.8144 -0.3902 -0.3427
  196MOL0     C26327   1.065   0.540   2.475  0.9776 -0.1586  0.1009
  196MOL0     O26328   1.164   0.482   2.537 -0.2937 -0.3578  0.0354
  196MOL0     C26329   1.268   0.424   2.461  0.1583  0.5079  0.4860
  196MOL0     C26330   1.339   0.493   2.357 -0.4813  0.7530 -0.6266
  196MOL0     C26331   1.447   0.431   2.296  0.5304 -0.3518  0.2670
  196MOL0     C26332   1.488   0.312   2.328 -0.6183  0.5686 -0.1731
  196MOL0     O26333   1.610   0.280   2.264 -0.3752 -0.2213 -1.0384
  196MOL0     C26334   1.667   0.147   2.298  0.6457  0.1112  1.0956
  196MOL0     C26335   1.794   0.111   2.220  0.4118 -0.8584  0.3933
  196MOL0     C26336   1.903   0.208   2.226 -0.2753 -0.4146 -0.3009
  196MOL0     C26337   2.034   0.152   2.156  0.1372  0.7741  0.3503
  196MOL0     C26338   2.153   0.247   2.161 -0.3995  0.3762  0.3261
  196MOL0     C26339   2.276   0.182   2.094  0.2724 -0.0776 -0.4846
  196MOL0     C26340   2.378   0.290   2.054  0.6869  0.7333 -0.4619
  196MOL0     C26341   2.484   0.233   1.958  0.4754 -0.6992 -0.0776
  196MOL0     N26342   2.606   0.319   1.961 -0.4489  0.2731 -0.1402
  196MOL0     C26343   2.692   0.323   2.072  0.2229  0.0725 -1.0320
  196MOL0     C26344   2.811   0.364   2.020  0.0190  0.2713 -0.3554
  196MOL0     C26345   2.930   0.406   2.095 -0.3719  0.6989 -0.0531
  196MOL0     C26346   3.030   0.287   2.107 -0.5031  0.3097  0.3255
  196MOL0     C26347   3.056   0.217   1.974  0.5667 -0.5672 -0.6357
  196MOL0     C26348   3.157   0.104   1.981 -0.4347  0.0602  0.4005
  196MOL0     O26349   3.271   0.152   1.907 -0.2992  0.2600 -0.7185
  196MOL0     C26350   3.395   0.086   1.899  0.8756 -0.6017  1.3881
  196MOL0     C26351   3.410  -0.045   1.947 -0.6245 -0.3351 -0.1085
  196MOL0     C26352   3.535  -0.108   1.941 -0.6665  0.4313  0.3957
  196MOL0     C26353   3.535  -0.262   1.970  0.5297  0.3960 -0.6364
  196MOL0     C26354   3.649  -0.049   1.885 -0.4808  0.1635 -0.4303
  196MOL0     C26355   3.779  -0.118   1.864  0.6383 -0.1903 -0.5406
  196MOL0     O26356   3.888  -0.053   1.915 -0.2533 -0.5722  0.5429
  196MOL0     C26357   4.006  -0.111   1.894 -0.0403 -0.4352  0.1105
  196MOL0     C26358   4.080  -0.169   1.997  0.2864  0.1257  0.2165
  196MOL0     C26359   4.205  -0.225   1.981 -1.0495 -1.0597 -0.7286
  196MOL0     C26360   4.252  -0.236   1.850 -0.1566  0.2881  0.3049
  196MOL0     O26361   4.374  -0.292   1.841  0.1292 -0.1456  0.3635
  196MOL0     C26362   4.427  -0.350   1.720  0.3272  0.2490  0.3222
  196MOL0     C26363   4.542  -0.263   1.670  0.5628 -0.1363 -0.4749
  196MOL0     C26364   4.576  -0.308   1.530 -0.5720 -0.7338  0.3063
  196MOL0     C26365   4.710  -0.252   1.490  0.4640  0.2867  0.3111
  196MOL0     C26366   4.721  -0.240   1.331  0.0197  0.0974  0.1514
  196MOL0     C26367   4.846  -0.169   1.271 -1.4037 -0.0708 -0.8406
  196MOL0     C26368   4.986  -0.240   1.328 -0.1505 -0.4715 -0.4446
  196MOL0     C26369   4.985  -0.396   1.289 -0.1671  0.4574  0.2359
  196MOL0    Cl26370   4.957  -0.432   1.110 -0.1012 -0.2605  0.3373
  196MOL0     C26371   4.180  -0.198   1.743 -0.8434 -0.0872  0.5208
  196MOL0     C26372   4.059  -0.126   1.761  0.1870 -0.0217  0.1222
  196MOL0     O26373   3.780  -0.221   1.792 -0.4110 -0.1594 -0.0345
  196MOL0     C26374   3.634   0.093   1.860 -0.1329  0.1811 -0.2728
  196MOL0     C26375   3.509   0.159   1.869 -0.3935  0.2950  0.5356
  196MOL0     N26376   2.797   0.376   1.884 -0.0475 -0.1252  0.2371
  196MOL0     N26377   2.681   0.339   1.847 -0.6176  0.6755 -0.3088
  196MOL0     C26378   1.413   0.227   2.417 -0.2668 -0.0743  0.5959
  196MOL0     C26379   1.302   0.289   2.485 -0.1069 -0.0905  0.6174
  196MOL0     C26380   0.964   0.599   2.572  0.7994  0.3560 -0.2814
  196MOL0     C26381   0.917   0.515   2.673  0.3399 -0.2099  0.6518
  196MOL0     C26382   0.804   0.548   2.751  0.4635  0.4368  1.6701
  196MOL0     C26383   0.734   0.668   2.731  0.7419 -0.3307 -0.0854
  196MOL0     O26384   0.632   0.698   2.818 -0.6484  0.4649  0.6053
  196MOL0     C26385   0.563   0.821   2.800 -0.9267 -0.1619  0.1745
  196MOL0     C26386   0.450   0.815   2.899 -0.5103  0.3066  1.0864
  196MOL0     C26387   0.367   0.948   2.888  0.1638 -0.2532  0.3487
  196MOL0     C26388   0.242   0.935   2.981 -0.0626  0.5915  0.0082
  196MOL0     C26389   0.132   0.851   2.931 -0.2788  0.3965 -0.5673
  196MOL0     C26390   0.040   0.780   2.901  0.5082  0.5036  0.5374
  196MOL0     C26391   0.787   0.759   2.642  0.7571 -0.1690  0.1237
  196MOL0     C26392   0.899   0.722   2.559 -0.1435 -0.3552 -0.3038
  196MOL0     H26393   1.310   0.593   2.327  0.7101  1.2061 -0.2931
  196MOL0     H26394   1.498   0.497   2.226  0.0741  0.4211  0.6557
  196MOL0     H26395   1.690   0.137   2.404 -3.0585 -3.1156  1.8229
  196MOL0     H26396   1.593   0.072   2.271  0.7748  0.4816 -0.3762
  196MOL0     H26397   1.829   0.013   2.255  0.5144 -0.3186  1.8799
  196MOL0     H26398   1.760   0.102   2.117 -2.5061  1.2951  1.0393
  196MOL0     H26399   1.873   0.302   2.179 -0.0875  1.1350  2.4449
  196MOL0     H26400   1.932   0.238   2.327  2.0127  2.2575 -1.6113
  196MOL0     H26401   2.075   0.060   2.199 -1.7141 -1.6154 -2.6233
  196MOL0     H26402   2.016   0.137   2.049  3.0035 -0.8817 -0.0193
  196MOL0     H26403   2.132   0.335   2.099  0.7738  0.0366 -0.5948
  196MOL0     H26404   2.173   0.287   2.260 -4.6387  4.3096 -0.0655
  196MOL0     H26405   2.315   0.117   2.173 -3.9264 -0.3801  1.6569
  196MOL0     H26406   2.243   0.120   2.011  0.0824  0.7283 -1.0259
  196MOL0     H26407   2.332   0.376   2.004 -1.4683  2.0051  3.3030
  196MOL0     H26408   2.423   0.336   2.143  1.2966  2.5577 -1.6651
  196MOL0     H26409   2.437   0.234   1.859 -0.8323 -2.4869  0.4725
  196MOL0     H26410   2.516   0.132   1.983 -0.2675 -1.3486 -1.5877
  196MOL0     H26411   2.655   0.298   2.170  1.0164  0.9674 -0.4879
  196MOL0     H26412   2.980   0.495   2.055  4.0787 -0.1870  2.8622
  196MOL0     H26413   2.898   0.436   2.195 -1.0665  2.1016 -0.6757
  196MOL0     H26414   2.988   0.216   2.178 -1.7624  1.8882  1.2175
  196MOL0     H26415   3.121   0.330   2.150 -1.1785 -0.3973  2.5553
  196MOL0     H26416   3.087   0.293   1.901 -3.2025 -0.1460 -2.0372
  196MOL0     H26417   2.966   0.175   1.930  1.1351 -4.0476  1.1732
  196MOL0     H26418   3.118   0.019   1.924 -1.4479  0.3325  0.6755
  196MOL0     H26419   3.182   0.078   2.084 -1.6506 -0.4467  0.5827
  196MOL0     H26420   3.329  -0.108   1.981 -2.1943  0.9324 -1.3825
  196MOL0     H26421   3.631  -0.291   2.013 -0.3397 -0.4674  0.8509
  196MOL0     H26422   3.449  -0.280   2.036  1.9794  2.5674  2.0560
  196MOL0     H26423   3.530  -0.322   1.879  2.3105 -3.6928  1.6739
  196MOL0     H26424   4.038  -0.165   2.097 -2.1800 -0.7238 -0.7255
  196MOL0     H26425   4.261  -0.271   2.061 -0.1205 -1.1844 -1.4321
  196MOL0     H26426   4.446  -0.449   1.765  0.2174  0.9975  2.1251
  196MOL0     H26427   4.351  -0.368   1.643  1.4413 -0.4790 -0.6402
  196MOL0     H26428   4.513  -0.158   1.674  1.6590  0.1952  2.9705
  196MOL0     H26429   4.635  -0.277   1.726  0.8714 -0.1469 -0.9849
  196MOL0     H26430   4.500  -0.271   1.461 -0.4860 -2.6670 -0.8994
  196MOL0     H26431   4.575  -0.418   1.538 -0.4014 -0.6519  1.8181
  196MOL0     H26432   4.729  -0.153   1.533  0.1240  0.0512  1.0078
  196MOL0     H26433   4.792  -0.314   1.528 -0.4930 -0.9645  0.3805
  196MOL0     H26434   4.628  -0.186   1.310 -0.7776 -0.1801  2.5941
  196MOL0     H26435   4.703  -0.333   1.276 -0.1893  0.1677  0.0983
  196MOL0     H26436   4.838  -0.188   1.164 -0.6951  4.5038 -1.9236
  196MOL0     H26437   4.841  -0.063   1.299  1.4172  0.0821 -0.5976
  196MOL0     H26438   4.995  -0.222   1.436  1.4902 -0.7338 -0.5066
  196MOL0     H26439   5.076  -0.202   1.279  0.1965 -0.3626  0.2532
  196MOL0     H26440   4.920  -0.455   1.355 -0.5932  0.2243 -0.3884
  196MOL0     H26441   5.088  -0.427   1.309 -0.3453 -0.5570 -0.3373
  196MOL0     H26442   4.224  -0.187   1.644  0.7724  1.1722  1.3348
  196MOL0     H26443   4.014  -0.083   1.673  0.0725 -3.2852 -1.5571
  196MOL0     H26444   3.717   0.157   1.831  2.3590 -2.6488  0.0994
  196MOL0     H26445   3.505   0.261   1.833  0.7466 -0.0328 -0.5740
  196MOL0     H26446   1.443   0.126   2.441  1.3187  0.0480 -0.7047
  196MOL0     H26447   1.241   0.241   2.560 -2.8165 -1.0710 -2.0395
  196MOL0     H26448   0.972   0.425   2.698  2.2105  1.1913  1.8532
  196MOL0     H26449   0.765   0.467   2.813  0.1466  0.6673  1.7777
  196MOL0     H26450   0.633   0.904   2.815 -0.1883 -0.8140  0.4036
  196MOL0     H26451   0.534   0.843   2.697  1.4828  0.8738 -0.3296
  196MOL0     H26452   0.493   0.799   2.998  0.3518 -0.6322  0.5824
  196MOL0     H26453   0.395   0.732   2.853  2.4411 -0.2885 -1.7158
  196MOL0     H26454   0.339   0.966   2.784  0.3369  1.0483  0.5163
  196MOL0     H26455   0.439   1.023   2.922 -0.0047 -0.1906  0.5674
  196MOL0     H26456   0.192   1.030   3.001 -0.5464 -0.1644  2.8210
  196MOL0     H26457   0.264   0.885   3.076 -1.6011 -1.6151 -0.7143
  196MOL0     H26458  -0.040   0.711   2.883  0.4274 -0.0597  2.7108
  196MOL0     H26459   0.752   0.861   2.630  0.3052 -0.1860  1.2110
  196MOL0     H26460   0.952   0.772   2.478  0.4908 -0.9591 -0.2678
  197MOL0     O26461   8.761   2.437   8.227  0.5405 -1.3729  0.2052
  197MOL0     C26462   8.765   2.558   8.265 -0.3742  0.8934 -0.4278
  197MOL0     O26463   8.656   2.631   8.303 -1.1080  0.8912  0.4885
  197MOL0     C26464   8.539   2.573   8.333  0.2079 -0.0453 -0.1396
  197MOL0     C26465   8.426   2.657   8.337  0.1751  0.2884  0.1470
  197MOL0     C26466   8.301   2.603   8.372  0.1260 -0.1275  0.2923
  197MOL0     C26467   8.273   2.474   8.418 -0.3405  0.8631 -0.0139
  197MOL0     O26468   8.150   2.438   8.467  0.1346 -0.0877  0.1511
  197MOL0     C26469   8.137   2.305   8.510  0.0785  0.1498 -0.4325
  197MOL0     C26470   7.991   2.276   8.556  0.4017  0.1157  0.5019
  197MOL0     C26471   7.901   2.273   8.431  0.6004 -0.4453 -0.2819
  197MOL0     C26472   7.845   2.411   8.393  0.1579 -0.0434  0.1318
  197MOL0     C26473   7.780   2.401   8.256 -0.0746 -0.2472 -0.7491
  197MOL0     C26474   7.633   2.344   8.266 -0.3577 -0.8969  0.4789
  197MOL0     C26475   7.575   2.350   8.129 -0.7217 -0.6310  0.0644
  197MOL0     C26476   7.432   2.394   8.143 -0.1188  0.2814 -0.4004
  197MOL0     N26477   7.334   2.290   8.174 -0.2932 -0.5340 -0.3249
  197MOL0     C26478   7.348   2.175   8.244 -0.0640 -0.2821  1.1606
  197MOL0     C26479   7.227   2.117   8.240  0.2976 -0.6133 -0.7665
  197MOL0     C26480   7.185   1.989   8.301  0.2450  0.2680 -0.9157
  197MOL0     C26481   7.085   1.901   8.224 -1.8916 -0.8921  0.2447
  197MOL0     C26482   6.944   1.959   8.205 -0.3580 -0.0854  0.2887
  197MOL0     C26483   6.839   1.861   8.140  0.0798  0.1155 -0.2583
  197MOL0     O26484   6.707   1.920   8.113  0.3645 -0.4382 -0.5805
  197MOL0     C26485   6.591   1.850   8.109  0.7359  0.6997  0.5840
  197MOL0     C26486   6.589   1.714   8.128 -0.3960 -0.0561 -0.3450
  197MOL0     C26487   6.467   1.642   8.120 -0.7106  0.1150 -0.0300
  197MOL0     C26488   6.493   1.488   8.142 -0.0648  0.1823 -0.1266
  197MOL0     C26489   6.345   1.710   8.100 -0.0857 -0.2739 -0.3586
  197MOL0     C26490   6.218   1.652   8.116  0.7931 -0.0019 -0.2826
  197MOL0     O26491   6.099   1.723   8.077 -0.5904  0.3381 -0.0991
  197MOL0     C26492   5.986   1.652   8.074  0.8257  0.2574  0.1068
  197MOL0     C26493   5.963   1.531   8.009  0.0917  0.3240  0.0930
  197MOL0     C26494   5.830   1.487   7.983 -0.5686  1.0374  0.2752
  197MOL0     C26495   5.724   1.565   8.003  0.5320 -0.8294 -0.0042
  197MOL0     O26496   5.593   1.542   7.986  0.0180 -0.0811  0.6812
  197MOL0     C26497   5.549   1.421   7.928  0.3472 -0.1767 -0.4166
  197MOL0     C26498   5.399   1.413   7.949  0.0276 -0.0761 -0.2811
  197MOL0     C26499   5.312   1.521   7.888  0.4640 -0.7411 -0.1655
  197MOL0     C26500   5.275   1.520   7.729  0.2684 -0.4014 -0.3697
  197MOL0     C26501   5.162   1.417   7.691 -0.5249 -0.1700  0.1200
  197MOL0     C26502   5.042   1.429   7.793  0.0369  0.2673  0.1019
  197MOL0     C26503   4.925   1.347   7.742  0.6132 -0.1010 -0.0498
  197MOL0     C26504   4.823   1.341   7.852 -0.1493  0.8347  0.4274
  197MOL0    Cl26505   4.677   1.227   7.812  0.0410  0.2331 -0.1823
  197MOL0     C26506   5.742   1.689   8.068  0.0112 -1.2862  0.7352
  197MOL0     C26507   5.876   1.729   8.111 -0.3182 -1.1952 -0.5164
  197MOL0     O26508   6.212   1.541   8.163  0.5360 -0.0497  0.1854
  197MOL0     C26509   6.350   1.849   8.096  1.1679 -0.1234  0.0003
  197MOL0     C26510   6.472   1.915   8.108 -0.1760  0.1182 -0.1673
  197MOL0     N26511   7.136   2.214   8.186  0.2199  0.2977  0.3041
  197MOL0     N26512   7.201   2.309   8.142  0.1772  0.0636 -0.1658
  197MOL0     C26513   8.381   2.391   8.395  0.2560 -0.8646  0.1386
  197MOL0     C26514   8.519   2.442   8.364  0.5159  0.4053 -0.5121
  197MOL0     C26515   8.902   2.608   8.286 -0.6012  0.8925  0.6649
  197MOL0     C26516   8.924   2.732   8.349  0.1385  0.0827  0.4759
  197MOL0     C26517   9.047   2.795   8.353 -0.6754  0.1357 -0.1983
  197MOL0     C26518   9.155   2.727   8.291 -0.1921 -0.2532  0.0213
  197MOL0     O26519   9.277   2.784   8.276 -0.5478  0.0906 -0.0674
  197MOL0     C26520   9.306   2.909   8.333 -0.4352  0.4036  0.5830
  197MOL0     C26521   9.254   3.021   8.240 -0.1867 -0.7992  0.5353
  197MOL0     C26522   9.264   2.985   8.087  0.2272  0.2168 -0.6266
  197MOL0     C26523   9.198   3.099   8.004 -0.1630  0.3183 -0.7262
  197MOL0     C26524   9.174   3.067   7.870  0.0011 -0.4603  0.1970
  197MOL0     C26525   9.155   3.024   7.755 -0.6809  0.2600  0.7166
  197MOL0     C26526   9.138   2.604   8.232  0.6298  0.0513  0.1954
  197MOL0     C26527   9.014   2.546   8.217  0.1532 -0.4900 -0.2751
  197MOL0     H26528   8.435   2.760   8.303 -1.0914  0.1213 -0.7604
  197MOL0     H26529   8.212   2.664   8.357 -2.0359 -3.9202 -7.0150
  197MOL0     H26530   8.156   2.243   8.423 -1.7089  0.0156 -0.7785
  197MOL0     H26531   8.216   2.290   8.584  1.7185 -0.0185 -2.1707
  197MOL0     H26532   7.983   2.178   8.603 -1.5126 -0.3004 -0.5820
  197MOL0     H26533   7.953   2.348   8.629 -1.6323 -0.2823 -0.0793
  197MOL0     H26534   7.959   2.240   8.344  0.9509 -2.2823  0.5926
  197MOL0     H26535   7.814   2.208   8.444 -1.2674  1.7779 -0.9255
  197MOL0     H26536   7.776   2.444   8.471  2.3222 -0.2105  2.2197
  197MOL0     H26537   7.924   2.487   8.395  0.7443 -0.5895  2.9281
  197MOL0     H26538   7.770   2.503   8.217  0.5486  0.6326  1.2796
  197MOL0     H26539   7.842   2.345   8.185  0.3484  1.3580 -1.6997
  197MOL0     H26540   7.633   2.241   8.302 -0.6777 -0.7778  0.8199
  197MOL0     H26541   7.574   2.400   8.339  0.7062 -1.3421  1.7230
  197MOL0     H26542   7.624   2.423   8.065 -2.4204 -0.8401 -1.5859
  197MOL0     H26543   7.582   2.253   8.079  0.5778 -1.3575  1.5972
  197MOL0     H26544   7.395   2.462   8.066  0.6423  2.6437  1.2073
  197MOL0     H26545   7.423   2.457   8.232  0.8284 -0.0019 -0.0938
  197MOL0     H26546   7.443   2.143   8.285 -0.4683 -2.0651  0.7557
  197MOL0     H26547   7.268   1.923   8.326 -1.0841 -0.7256  1.1246
  197MOL0     H26548   7.153   2.007   8.404  3.3205 -1.0441  0.3880
  197MOL0     H26549   7.076   1.802   8.269 -2.1442  0.1106  2.5051
  197MOL0     H26550   7.130   1.891   8.124  0.8399  0.7421  1.1950
  197MOL0     H26551   6.941   2.040   8.132  0.8925 -1.1165 -0.9648
  197MOL0     H26552   6.922   1.993   8.306 -1.8692  0.0513 -0.0647
  197MOL0     H26553   6.835   1.766   8.195 -0.1460  0.3798  0.1912
  197MOL0     H26554   6.872   1.819   8.045 -1.0631 -2.0953  0.2314
  197MOL0     H26555   6.686   1.669   8.145  0.9980  2.9043  0.1994
  197MOL0     H26556   6.595   1.449   8.139 -0.3049 -1.0319  3.3506
  197MOL0     H26557   6.471   1.456   8.244  1.3461  2.1066  0.8720
  197MOL0     H26558   6.434   1.429   8.071 -2.5190  0.9407  1.1781
  197MOL0     H26559   6.047   1.472   7.976 -1.5426 -2.5165  0.7038
  197MOL0     H26560   5.811   1.399   7.922 -2.4349  0.4370  1.6130
  197MOL0     H26561   5.562   1.419   7.819  1.5173 -0.1844 -0.2884
  197MOL0     H26562   5.599   1.335   7.974 -2.5677 -1.0250  1.4193
  197MOL0     H26563   5.356   1.320   7.911 -1.6487  0.4621  0.2464
  197MOL0     H26564   5.385   1.411   8.057 -0.0127 -2.8244 -0.2687
  197MOL0     H26565   5.359   1.618   7.907  3.3141 -2.0642  0.1739
  197MOL0     H26566   5.223   1.525   7.950 -0.6448 -2.2136 -1.5461
  197MOL0     H26567   5.240   1.621   7.706  0.7393 -0.6356 -2.3359
  197MOL0     H26568   5.362   1.506   7.664  1.5447  1.2280  0.9049
  197MOL0     H26569   5.197   1.313   7.693 -2.3963 -0.8437  0.2138
  197MOL0     H26570   5.129   1.444   7.590  1.4826  1.8263 -0.0694
  197MOL0     H26571   5.066   1.381   7.888  0.6309  0.6380  0.1438
  197MOL0     H26572   5.004   1.530   7.806 -0.9056 -0.4463  4.2493
  197MOL0     H26573   4.947   1.241   7.730  0.7139 -0.0637 -0.1943
  197MOL0     H26574   4.889   1.389   7.647  0.8027 -1.2574 -0.6437
  197MOL0     H26575   4.781   1.439   7.875 -1.3104  0.2066  1.0820
  197MOL0     H26576   4.879   1.311   7.941  2.0646 -0.8520 -1.4141
  197MOL0     H26577   5.657   1.754   8.087 -0.6095 -2.7026  3.2733
  197MOL0     H26578   5.898   1.829   8.148 -4.2659  1.7237 -4.9363
  197MOL0     H26579   6.259   1.909   8.093  1.6845  0.7846  1.3770
  197MOL0     H26580   6.477   2.021   8.083  0.4473 -0.0802 -0.9440
  197MOL0     H26581   8.378   2.283   8.396  2.1517 -1.0386 -2.4091
  197MOL0     H26582   8.592   2.363   8.354 -0.4420 -0.4086 -1.1954
  197MOL0     H26583   8.836   2.766   8.402 -0.0753 -0.8685  0.7481
  197MOL0     H26584   9.068   2.876   8.422 -0.1487  0.8224 -1.1427
  197MOL0     H26585   9.279   2.902   8.439 -0.2131 -1.2549  0.5550
  197MOL0     H26586   9.415   2.922   8.327 -0.0497 -2.1560  1.1082
  197MOL0     H26587   9.296   3.120   8.260 -0.5796 -0.2086 -1.3749
  197MOL0     H26588   9.147   3.036   8.253 -0.3998 -0.5670 -1.2297
  197MOL0     H26589   9.211   2.893   8.062  0.4697 -0.4104  1.0302
  197MOL0     H26590   9.371   2.981   8.061 -0.0174  3.1238 -2.6350
  197MOL0     H26591   9.263   3.186   8.016  1.5824 -1.2290  2.3909
  197MOL0     H26592   9.104   3.133   8.049 -0.8004 -1.9584 -0.1762
  197MOL0     H26593   9.145   2.982   7.657 -0.4771  1.7361  0.0425
  197MOL0     H26594   9.229   2.557   8.196  0.6601 -0.7935  1.3448
  197MOL0     H26595   9.004   2.456   8.157  0.3297 -0.3169 -0.5621
  198MOL0     O26596   3.531   0.534   4.828 -0.0161 -0.3703 -0.2779
  198MOL0     C26597   3.411   0.507   4.809  0.1649  0.2702  0.7339
  198MOL0     O26598   3.346   0.384   4.830 -0.1050 -0.1266 -0.7476
  198MOL0     C26599   3.419   0.275   4.862  0.8325 -0.4420  0.9072
  198MOL0     C26600   3.472   0.269   4.985  0.2825 -0.8348 -0.4018
  198MOL0     C26601   3.541   0.152   5.028  0.2529  0.5639 -0.3499
  198MOL0     C26602   3.550   0.043   4.938 -0.3319  0.1749 -0.6715
  198MOL0     O26603   3.613  -0.069   4.986 -0.3454  0.1449 -0.0136
  198MOL0     C26604   3.554  -0.194   4.958 -0.0712  0.6975  0.5512
  198MOL0     C26605   3.477  -0.244   5.077 -0.7376 -0.1954  1.4479
  198MOL0     C26606   3.336  -0.189   5.068  0.5947 -0.6256  0.1447
  198MOL0     C26607   3.248  -0.241   5.189 -0.7709  0.4965  0.4842
  198MOL0     C26608   3.102  -0.240   5.134 -0.7546  0.5775 -0.0545
  198MOL0     C26609   3.053  -0.103   5.107 -0.5117 -0.3131  0.7689
  198MOL0     C26610   2.903  -0.098   5.073 -0.4666 -0.1608  0.3026
  198MOL0     C26611   2.792  -0.085   5.182  0.4237  0.2951 -0.7179
  198MOL0     N26612   2.656  -0.087   5.135 -0.7921  0.3505  0.2841
  198MOL0     C26613   2.608   0.013   5.052  0.1925 -0.1415 -0.0539
  198MOL0     C26614   2.481  -0.024   5.043 -0.1941 -0.4228 -0.2712
  198MOL0     C26615   2.388   0.046   4.948 -0.3609 -0.8321  0.9358
  198MOL0     C26616   2.399   0.199   4.956 -0.0955  0.6199  0.1323
  198MOL0     C26617   2.364   0.255   5.096 -1.4755  0.0720 -0.3640
  198MOL0     C26618   2.236   0.210   5.154  0.0464 -0.1771  0.3251
  198MOL0     O26619   2.141   0.231   5.051 -0.1920 -0.7506 -0.8435
  198MOL0     C26620   2.008   0.247   5.085  0.1223 -0.2266  1.0136
  198MOL0     C26621   1.954   0.251   5.209  0.0172 -0.5045 -0.5272
  198MOL0     C26622   1.819   0.276   5.244  0.2974 -0.4425 -0.5441
  198MOL0     C26623   1.788   0.269   5.391  0.9379 -1.0332  0.1704
  198MOL0     C26624   1.724   0.309   5.144 -0.0693 -0.3845  1.0721
  198MOL0     C26625   1.579   0.343   5.163  0.4875 -0.5835 -0.6691
  198MOL0     O26626   1.508   0.374   5.048 -0.5808 -0.1934  0.2095
  198MOL0     C26627   1.374   0.398   5.036 -0.4358 -0.5492 -0.5431
  198MOL0     C26628   1.321   0.423   4.911 -0.4977  0.0181 -0.0085
  198MOL0     C26629   1.189   0.435   4.892 -0.5135  0.4157  0.3330
  198MOL0     C26630   1.095   0.404   4.993  0.1006 -0.3928  0.1068
  198MOL0     O26631   0.956   0.407   4.962  0.2567  0.0520 -0.7837
  198MOL0     C26632   0.854   0.423   5.066 -0.5082 -0.3900  0.1004
  198MOL0     C26633   0.867   0.551   5.147 -0.1256  0.2338 -0.1590
  198MOL0     C26634   0.759   0.573   5.252 -0.2479  0.2394 -0.0449
  198MOL0     C26635   0.627   0.616   5.189 -0.0044 -0.4994 -0.2121
  198MOL0     C26636   0.525   0.631   5.305  0.6202  0.1618  0.1132
  198MOL0     C26637   0.384   0.687   5.266 -1.2583 -0.4958  0.1362
  198MOL0     C26638   0.386   0.832   5.216  0.4109  0.6598 -0.0656
  198MOL0     C26639   0.427   0.939   5.328  0.1670 -0.6866 -0.4784
  198MOL0    Cl26640   0.334   0.948   5.487 -0.2929 -0.4946  0.3509
  198MOL0     C26641   1.143   0.371   5.121 -0.2637 -0.0395 -0.7967
  198MOL0     C26642   1.280   0.372   5.141 -0.3373  0.4144  0.5924
  198MOL0     O26643   1.530   0.338   5.277  0.1704 -0.2379  0.2111
  198MOL0     C26644   1.767   0.292   5.017 -0.5685 -1.2640 -0.1169
  198MOL0     C26645   1.911   0.272   4.988 -0.1084 -0.3702 -0.0457
  198MOL0     N26646   2.456  -0.142   5.111 -0.1206 -0.2483 -0.1977
  198MOL0     N26647   2.562  -0.177   5.167 -0.7639  0.2026 -0.0075
  198MOL0     C26648   3.499   0.053   4.805 -0.8399 -0.0059 -0.6536
  198MOL0     C26649   3.438   0.174   4.767  0.2779 -0.0844 -0.7833
  198MOL0     C26650   3.332   0.619   4.764  0.3555  0.1500 -0.1841
  198MOL0     C26651   3.194   0.603   4.736 -0.0995  0.1129 -0.6449
  198MOL0     C26652   3.113   0.705   4.681  0.0772  0.5542 -0.3253
  198MOL0     C26653   3.171   0.839   4.677  0.2896 -0.4080 -0.2297
  198MOL0     O26654   3.086   0.934   4.624  0.3666 -0.3110  0.2618
  198MOL0     C26655   3.069   1.039   4.725 -0.2505 -0.4332 -0.1178
  198MOL0     C26656   3.003   1.169   4.675 -0.9047  1.3855  0.9184
  198MOL0     C26657   2.858   1.136   4.621 -0.0252 -0.1741  0.4221
  198MOL0     C26658   2.781   1.271   4.621  0.0520  0.1475  0.8019
  198MOL0     C26659   2.642   1.250   4.591 -0.1947  0.1844 -0.1604
  198MOL0     C26660   2.529   1.255   4.560  0.2458 -0.3555 -0.6380
  198MOL0     C26661   3.313   0.856   4.696  0.2424 -0.0698  0.1072
  198MOL0     C26662   3.386   0.748   4.733  0.2618  0.2693 -0.3906
  198MOL0     H26663   3.454   0.351   5.053 -1.3377 -1.7635  0.3369
  198MOL0     H26664   3.577   0.135   5.129  3.5646 -0.7569 -1.6149
  198MOL0     H26665   3.488  -0.185   4.871 -0.2565  0.2944  0.6491
  198MOL0     H26666   3.630  -0.267   4.927  0.6364  0.9234  1.6743
  198MOL0     H26667   3.475  -0.352   5.063 -0.4175  0.0896 -1.4495
  198MOL0     H26668   3.535  -0.216   5.166 -0.4361 -2.7270  2.1109
  198MOL0     H26669   3.343  -0.080   5.067  1.4083 -0.6760 -0.1534
  198MOL0     H26670   3.291  -0.226   4.975 -1.8036 -1.9577  1.7090
  198MOL0     H26671   3.277  -0.337   5.231 -2.0785 -0.2681 -0.3130
  198MOL0     H26672   3.266  -0.162   5.263  1.5515  1.9167 -1.4116
  198MOL0     H26673   3.099  -0.311   5.051  1.3029  0.4638 -0.0879
  198MOL0     H26674   3.028  -0.279   5.205  1.4611 -2.1507  0.9518
  198MOL0     H26675   3.068  -0.032   5.188  1.0610  0.9176 -0.5470
  198MOL0     H26676   3.099  -0.068   5.015  0.1235  3.0591  2.2375
  198MOL0     H26677   2.889  -0.004   5.019 -1.0750  1.2683  2.7927
  198MOL0     H26678   2.890  -0.175   4.996  0.2837  2.8779 -3.1156
  198MOL0     H26679   2.801   0.008   5.239  0.0282  0.3669 -0.7713
  198MOL0     H26680   2.810  -0.168   5.252 -0.6338 -1.1770 -2.1150
  198MOL0     H26681   2.641   0.111   5.020 -1.4768  0.2765 -0.5836
  198MOL0     H26682   2.419   0.019   4.846  2.1441  2.0486  0.7941
  198MOL0     H26683   2.287   0.010   4.969 -0.1326 -2.5073 -0.5211
  198MOL0     H26684   2.330   0.250   4.889 -1.2485 -0.1275  0.7183
  198MOL0     H26685   2.495   0.233   4.915  1.9771 -0.2352  3.8465
  198MOL0     H26686   2.364   0.364   5.088  3.5923  0.3418 -0.1179
  198MOL0     H26687   2.451   0.232   5.158  0.6213  0.8425 -2.8184
  198MOL0     H26688   2.206   0.265   5.243  0.6762  3.6829 -1.6482
  198MOL0     H26689   2.244   0.106   5.187 -0.8784  0.6561  3.5325
  198MOL0     H26690   2.018   0.237   5.296  0.6372  3.7216 -0.0938
  198MOL0     H26691   1.705   0.197   5.392  0.0763 -0.0745  1.9146
  198MOL0     H26692   1.867   0.234   5.458  0.9038 -0.1580  0.6750
  198MOL0     H26693   1.757   0.362   5.439 -0.7156 -0.2959 -2.1226
  198MOL0     H26694   1.393   0.435   4.831  0.6371  0.6246  1.0795
  198MOL0     H26695   1.154   0.453   4.791  1.3253  1.3416 -0.1802
  198MOL0     H26696   0.755   0.428   5.019 -0.7966  1.5521  0.8144
  198MOL0     H26697   0.863   0.330   5.122  1.9382 -0.6711 -0.6016
  198MOL0     H26698   0.958   0.538   5.205  0.0694  0.7847 -0.3438
  198MOL0     H26699   0.860   0.633   5.076  0.7608 -0.5899 -1.2386
  198MOL0     H26700   0.794   0.653   5.318 -0.0994  0.1214  0.0177
  198MOL0     H26701   0.738   0.480   5.305  0.8212  1.0335  1.8915
  198MOL0     H26702   0.637   0.718   5.149 -0.4808 -0.0920  0.6834
  198MOL0     H26703   0.583   0.546   5.117 -1.5188  0.1445  0.0386
  198MOL0     H26704   0.562   0.699   5.383  3.0328  1.1297 -1.7402
  198MOL0     H26705   0.513   0.532   5.349 -2.6802 -0.2176 -1.3857
  198MOL0     H26706   0.337   0.628   5.186 -0.9334  2.1469 -2.1849
  198MOL0     H26707   0.310   0.692   5.346 -0.6022 -0.0166  0.7251
  198MOL0     H26708   0.287   0.860   5.180  0.6118  3.6904  1.4062
  198MOL0     H26709   0.446   0.824   5.125 -1.3871  0.1201 -1.2710
  198MOL0     H26710   0.420   1.039   5.285 -2.8849 -0.1193  1.0022
  198MOL0     H26711   0.528   0.920   5.366  0.4343  2.0988  0.4815
  198MOL0     H26712   1.089   0.329   5.205  0.7057 -2.0505 -1.1283
  198MOL0     H26713   1.316   0.333   5.236  0.6230  0.1073  0.1109
  198MOL0     H26714   1.699   0.288   4.933  0.8468 -0.7271 -1.3264
  198MOL0     H26715   1.950   0.268   4.887 -1.3641 -2.4562 -0.4975
  198MOL0     H26716   3.517  -0.020   4.726  0.4952 -0.4993  0.0723
  198MOL0     H26717   3.394   0.182   4.668 -0.2971 -1.5391 -0.6690
  198MOL0     H26718   3.150   0.506   4.755 -0.8001  0.5709  0.1333
  198MOL0     H26719   3.009   0.683   4.660  0.1678  1.3063 -1.7242
  198MOL0     H26720   2.996   1.004   4.799 -0.9972 -1.2197 -1.1952
  198MOL0     H26721   3.164   1.067   4.772 -0.1823  2.4069 -1.7543
  198MOL0     H26722   3.067   1.209   4.597 -1.6898  0.1677 -0.4063
  198MOL0     H26723   2.999   1.240   4.758  1.7939  2.0065  0.6111
  198MOL0     H26724   2.815   1.071   4.698 -2.1134  0.2712 -0.3201
  198MOL0     H26725   2.856   1.087   4.523  1.0087 -1.1230  0.8431
  198MOL0     H26726   2.820   1.335   4.541 -0.9236  2.8098  2.3449
  198MOL0     H26727   2.806   1.320   4.715  2.1231 -1.0689  0.9499
  198MOL0     H26728   2.429   1.260   4.521  0.0023 -1.7778 -0.2277
  198MOL0     H26729   3.368   0.947   4.676  0.9533 -0.3643  0.6624
  198MOL0     H26730   3.493   0.762   4.742  0.6706  0.3396 -4.0498
  199MOL0     O26731  10.802   9.229   4.747  0.0423  0.0769 -0.2214
  199MOL0     C26732  10.830   9.119   4.703 -0.2613 -0.5534  0.1133
  199MOL0     O26733  10.741   9.017   4.677 -0.0348  0.0092 -0.1852
  199MOL0     C26734  10.607   9.032   4.695 -0.7696 -1.2624  1.5282
  199MOL0     C26735  10.565   9.082   4.820 -0.3634 -1.3846 -0.2652
  199MOL0     C26736  10.427   9.111   4.840  0.2507  0.2680 -0.0179
  199MOL0     C26737  10.333   9.075   4.736  0.1268  1.1480 -0.3219
  199MOL0     O26738  10.198   9.098   4.738 -0.2159  0.1127 -0.1492
  199MOL0     C26739  10.141   9.149   4.862 -0.4588  0.1312 -0.0055
  199MOL0     C26740   9.996   9.183   4.842  0.3841  0.6883 -0.1065
  199MOL0     C26741   9.934   9.215   4.976  0.0906 -0.4930 -0.4321
  199MOL0     C26742   9.967   9.349   5.046 -0.9225  0.4582 -0.1912
  199MOL0     C26743   9.890   9.372   5.181  0.6486  0.3002 -0.9562
  199MOL0     C26744   9.750   9.432   5.154 -0.4029  0.0741  0.1027
  199MOL0     C26745   9.648   9.443   5.277  0.4894 -0.7972  0.1830
  199MOL0     C26746   9.525   9.525   5.232  0.6606 -0.9184  0.3082
  199MOL0     N26747   9.460   9.460   5.120 -0.0634  0.9141  0.2444
  199MOL0     C26748   9.409   9.522   5.013  0.2070  0.4060  0.3451
  199MOL0     C26749   9.319   9.446   4.961  0.0543  0.3289 -0.2464
  199MOL0     C26750   9.223   9.476   4.856  0.5275  0.0476  0.7962
  199MOL0     C26751   9.230   9.622   4.799 -0.2622 -0.8742 -0.6521
  199MOL0     C26752   9.124   9.644   4.699 -0.1883 -0.0395 -0.2242
  199MOL0     C26753   9.157   9.769   4.625 -0.8561 -0.2022  0.7337
  199MOL0     O26754   9.179   9.892   4.698 -0.2211 -0.8166 -0.3801
  199MOL0     C26755   9.078   9.934   4.791 -0.6632 -1.3583 -0.0881
  199MOL0     C26756   9.113   9.973   4.920 -0.1367 -0.2240 -0.0606
  199MOL0     C26757   9.017  10.013   5.014 -0.1007 -0.0737 -0.3252
  199MOL0     C26758   9.063  10.036   5.156  1.1927 -0.0955 -0.2957
  199MOL0     C26759   8.879  10.010   4.976 -0.1961 -0.1521  0.2055
  199MOL0     C26760   8.774  10.046   5.072 -0.0162 -0.4355  0.6151
  199MOL0     O26761   8.792  10.156   5.159 -0.2355 -0.2423  0.8991
  199MOL0     C26762   8.688  10.191   5.241 -1.2623 -0.5419 -1.1663
  199MOL0     C26763   8.721  10.222   5.371 -0.6560  0.7940 -1.3409
  199MOL0     C26764   8.627  10.243   5.470  0.1184 -0.7460  0.1728
  199MOL0     C26765   8.490  10.236   5.442 -0.1290  0.3373  0.9550
  199MOL0     O26766   8.406  10.257   5.543  0.2730 -0.3110 -0.2264
  199MOL0     C26767   8.364  10.394   5.566  0.2394 -0.9436 -0.2232
  199MOL0     C26768   8.230  10.411   5.503 -0.2948  0.1917  0.3853
  199MOL0     C26769   8.162  10.552   5.522  0.2290 -0.3696  0.1048
  199MOL0     C26770   8.118  10.575   5.669  0.0604 -0.6261  1.2257
  199MOL0     C26771   8.005  10.663   5.697  0.9703  0.5115  0.5397
  199MOL0     C26772   7.963  10.769   5.597 -0.0213  0.0434 -0.5078
  199MOL0     C26773   7.851  10.714   5.505 -1.1965 -0.1109 -0.4449
  199MOL0     C26774   7.778  10.839   5.442 -0.2949  0.2216  0.4690
  199MOL0    Cl26775   7.896  10.925   5.333 -0.1058  0.1202 -0.2158
  199MOL0     C26776   8.450  10.215   5.314 -0.8971  0.8770 -0.1187
  199MOL0     C26777   8.550  10.192   5.219 -0.3720 -0.1148 -0.4005
  199MOL0     O26778   8.672   9.977   5.063 -0.2848  0.0638 -0.0812
  199MOL0     C26779   8.846   9.976   4.847 -0.1686  0.1295  0.1248
  199MOL0     C26780   8.945   9.948   4.754  0.8984  0.4190 -0.4777
  199MOL0     N26781   9.312   9.335   5.034  0.2336  0.2168  0.3614
  199MOL0     N26782   9.397   9.346   5.130  0.1411  0.9838  1.3699
  199MOL0     C26783  10.374   9.013   4.614 -0.5956  0.6987 -0.8392
  199MOL0     C26784  10.515   8.999   4.588 -0.8094 -0.2359 -0.3716
  199MOL0     C26785  10.971   9.075   4.682 -0.4770 -0.9884  0.0989
  199MOL0     C26786  11.015   8.962   4.614 -0.7892  0.5553 -0.8409
  199MOL0     C26787  11.148   8.921   4.607  0.7695 -0.7960  0.3761
  199MOL0     C26788  11.245   9.004   4.660  0.0004  0.5010 -0.3074
  199MOL0     O26789  11.370   8.966   4.630  0.0818 -0.0220  0.2642
  199MOL0     C26790  11.493   9.041   4.678  0.2633  1.0114  0.0610
  199MOL0     C26791  11.516   9.160   4.579  0.6781  0.2239  0.0550
  199MOL0     C26792  11.660   9.199   4.550 -1.1990  0.6987 -0.0175
  199MOL0     C26793  11.680   9.317   4.455  1.1376 -0.0670  0.5607
  199MOL0     C26794  11.619   9.442   4.512 -0.6667 -0.1287  0.3558
  199MOL0     C26795  11.579   9.548   4.570 -0.4368 -0.3826 -0.0858
  199MOL0     C26796  11.208   9.105   4.749 -0.7598 -0.2751 -0.4791
  199MOL0     C26797  11.072   9.139   4.756  0.1002  0.0397 -0.2968
  199MOL0     H26798  10.634   9.089   4.903 -2.1631 -1.1540  1.2710
  199MOL0     H26799  10.399   9.149   4.937  1.4418  2.2526 -0.3883
  199MOL0     H26800  10.142   9.060   4.925 -0.3942 -0.2371 -0.5224
  199MOL0     H26801  10.195   9.235   4.904 -4.9969  2.9359  0.7828
  199MOL0     H26802   9.987   9.267   4.772 -0.5354 -0.1414 -1.0365
  199MOL0     H26803   9.944   9.098   4.796 -0.1368  1.6330 -1.3090
  199MOL0     H26804   9.825   9.220   4.968  0.1873 -0.8391 -2.7495
  199MOL0     H26805   9.950   9.134   5.048 -2.1508 -1.1079 -0.5299
  199MOL0     H26806  10.075   9.355   5.064 -1.0934  0.6070  0.8075
  199MOL0     H26807   9.943   9.431   4.978  0.0092  2.6438  1.9789
  199MOL0     H26808   9.871   9.275   5.229  1.6030  2.0456  3.3342
  199MOL0     H26809   9.950   9.434   5.247 -0.2131 -1.8918  2.1163
  199MOL0     H26810   9.767   9.518   5.089  1.1876 -0.5420 -0.3478
  199MOL0     H26811   9.707   9.359   5.086 -0.0351  1.3553 -1.5775
  199MOL0     H26812   9.601   9.350   5.309  0.3325 -0.4462  1.0062
  199MOL0     H26813   9.694   9.482   5.368 -0.7721 -1.4226  1.1172
  199MOL0     H26814   9.550   9.625   5.197 -0.1412 -1.3145 -1.5389
  199MOL0     H26815   9.461   9.526   5.320  3.3286 -1.4848  2.3784
  199MOL0     H26816   9.434   9.625   4.989  0.2741  0.4833  0.7342
  199MOL0     H26817   9.233   9.406   4.773 -2.3738  2.0451 -1.4357
  199MOL0     H26818   9.129   9.453   4.906  1.0503  1.0850  2.3373
  199MOL0     H26819   9.324   9.625   4.744 -1.5573 -1.2971 -3.0119
  199MOL0     H26820   9.236   9.693   4.882  0.8676 -0.1380 -1.3465
  199MOL0     H26821   9.031   9.667   4.752  1.9727  1.3540  3.3607
  199MOL0     H26822   9.121   9.557   4.633  1.6774 -1.6233  1.6144
  199MOL0     H26823   9.074   9.773   4.554  0.4160 -1.0413 -0.8664
  199MOL0     H26824   9.249   9.758   4.567 -0.5182  2.2071  0.7361
  199MOL0     H26825   9.216   9.955   4.948  0.0050 -0.6461 -0.8263
  199MOL0     H26826   9.019   9.958   5.219  1.4389  0.7928  1.0248
  199MOL0     H26827   9.172  10.032   5.165  1.2068  2.0527  1.3827
  199MOL0     H26828   9.022  10.133   5.189 -1.3220 -1.2209  0.1656
  199MOL0     H26829   8.829  10.225   5.383 -0.4249  1.8356 -3.2948
  199MOL0     H26830   8.669  10.267   5.567  3.0026  2.1793 -1.5864
  199MOL0     H26831   8.352  10.417   5.672 -2.2931  0.2317 -0.6973
  199MOL0     H26832   8.438  10.471   5.542 -0.8185  1.1199  2.5919
  199MOL0     H26833   8.238  10.395   5.395 -2.5783  0.2460  0.1626
  199MOL0     H26834   8.156  10.334   5.526 -0.2169  0.0617  0.2112
  199MOL0     H26835   8.069  10.551   5.465  1.2041 -0.8408 -1.5290
  199MOL0     H26836   8.226  10.633   5.486 -1.8573  1.1114 -0.4773
  199MOL0     H26837   8.092  10.479   5.714 -0.8563 -0.9423  0.0985
  199MOL0     H26838   8.201  10.626   5.717  0.4421  1.0885 -1.0594
  199MOL0     H26839   8.016  10.714   5.794  1.1258 -1.2601  1.4904
  199MOL0     H26840   7.915  10.602   5.708 -0.0881  1.9659  0.2447
  199MOL0     H26841   7.925  10.858   5.649  1.1219  1.1580 -1.4774
  199MOL0     H26842   8.046  10.810   5.537 -1.1637  1.4958 -1.1727
  199MOL0     H26843   7.778  10.670   5.574 -0.3447  0.1552  0.6493
  199MOL0     H26844   7.878  10.646   5.424  1.0338 -0.3251  0.4109
  199MOL0     H26845   7.732  10.895   5.524 -0.1869 -1.3493  1.6426
  199MOL0     H26846   7.693  10.809   5.380  1.5931  0.4384 -2.4201
  199MOL0     H26847   8.349  10.221   5.276 -0.2427  1.9036 -1.8163
  199MOL0     H26848   8.529  10.152   5.120  1.6477  3.9161 -2.7188
  199MOL0     H26849   8.742   9.985   4.818  0.1351  2.3214 -0.4449
  199MOL0     H26850   8.920   9.921   4.652 -2.5718  0.3212  0.2726
  199MOL0     H26851  10.306   8.985   4.534  2.2165 -0.8466 -2.8473
  199MOL0     H26852  10.559   8.956   4.499 -0.3796 -0.0031 -0.2744
  199MOL0     H26853  10.947   8.895   4.563  3.5261 -3.7076 -1.7636
  199MOL0     H26854  11.170   8.838   4.541  2.5997  1.0776 -1.5637
  199MOL0     H26855  11.479   9.076   4.780 -0.4957 -2.2378  1.1846
  199MOL0     H26856  11.580   8.975   4.683 -0.7999 -0.6452 -1.6186
  199MOL0     H26857  11.457   9.241   4.624  1.6344  0.7598  0.3617
  199MOL0     H26858  11.467   9.139   4.483 -0.5909 -0.4609  0.8203
  199MOL0     H26859  11.723   9.121   4.506  0.3851  0.1322  2.9641
  199MOL0     H26860  11.698   9.234   4.647  0.6031 -0.5366 -0.2222
  199MOL0     H26861  11.629   9.294   4.361  0.9979  0.0171  0.6167
  199MOL0     H26862  11.788   9.331   4.441  2.0208 -4.1433  2.0040
  199MOL0     H26863  11.544   9.633   4.625  3.2197  3.2736 -2.7447
  199MOL0     H26864  11.280   9.175   4.791  0.5166 -1.1914 -1.0831
  199MOL0     H26865  11.049   9.224   4.819  0.4327 -0.2450  0.2121
  200MOL0     O26866   7.575  11.263   4.646 -0.3896 -0.1954  0.2123
  200MOL0     C26867   7.697  11.241   4.651  0.2265 -0.4323 -0.7292
  200MOL0     O26868   7.789  11.333   4.665  0.0529 -0.6413  0.5519
  200MOL0     C26869   7.745  11.462   4.689 -0.5826  0.3781  0.8763
  200MOL0     C26870   7.668  11.495   4.796 -0.1577  0.0922 -0.2766
  200MOL0     C26871   7.625  11.632   4.824 -0.2676  0.3220  0.1027
  200MOL0     C26872   7.666  11.727   4.731  0.0334 -0.0319 -0.2652
  200MOL0     O26873   7.622  11.853   4.764 -0.7516  0.1294  0.6687
  200MOL0     C26874   7.651  11.962   4.671  0.3796  0.1091 -0.0022
  200MOL0     C26875   7.596  12.090   4.736  0.0491 -0.5237  0.5953
  200MOL0     C26876   7.629  12.208   4.642  0.1146  1.3148 -0.0199
  200MOL0     C26877   7.764  12.271   4.695  0.8896 -0.7898  0.1116
  200MOL0     C26878   7.816  12.389   4.604 -0.0619  0.3988 -0.2047
  200MOL0     C26879   7.916  12.460   4.675 -0.1900  0.1271 -0.4616
  200MOL0     C26880   7.982  12.578   4.599 -0.0180 -0.2127 -0.6069
  200MOL0     C26881   8.077  12.670   4.696 -0.7301 -0.4800 -0.1031
  200MOL0     N26882   8.001  12.767   4.771  0.3754 -0.0545 -0.5096
  200MOL0     C26883   8.054  12.883   4.815 -0.3216  0.1304  0.2050
  200MOL0     C26884   7.960  12.950   4.895 -0.3673  1.0651  0.4995
  200MOL0     C26885   7.979  13.081   4.957  0.2040 -0.0799  0.2427
  200MOL0     C26886   7.909  13.196   4.873  0.9838  0.0305 -0.3425
  200MOL0     C26887   7.761  13.219   4.890  0.4434 -0.5195  0.0858
  200MOL0     C26888   7.702  13.212   5.038  0.1205 -0.1161  0.6358
  200MOL0     O26889   7.562  13.246   5.026 -0.0250 -0.2949  0.1121
  200MOL0     C26890   7.472  13.153   4.974 -0.0756 -0.3274 -0.1032
  200MOL0     C26891   7.499  13.016   4.942  0.0588  0.1278  0.4950
  200MOL0     C26892   7.393  12.935   4.897 -0.5775 -0.6187 -0.8616
  200MOL0     C26893   7.431  12.792   4.877 -0.1939  0.7208  0.2903
  200MOL0     C26894   7.271  12.984   4.873 -0.8060  0.0566  0.3933
  200MOL0     C26895   7.164  12.913   4.790 -0.6856 -0.0062 -0.3785
  200MOL0     O26896   7.051  12.983   4.778 -0.0539 -0.3434  0.1652
  200MOL0     C26897   6.953  12.931   4.697 -0.1294 -0.0463  0.2914
  200MOL0     C26898   6.963  12.935   4.561 -0.4456  0.3173  0.6122
  200MOL0     C26899   6.855  12.899   4.473  0.7941 -0.9542 -0.6031
  200MOL0     C26900   6.730  12.880   4.527 -0.9806 -0.0099  0.5766
  200MOL0     O26901   6.619  12.839   4.455 -0.6331  0.6371 -0.0064
  200MOL0     C26902   6.628  12.812   4.317 -0.2717 -0.3425 -0.0120
  200MOL0     C26903   6.483  12.774   4.275  0.3954  0.8225 -0.3069
  200MOL0     C26904   6.413  12.662   4.357 -0.2339  0.5200  0.0819
  200MOL0     C26905   6.314  12.590   4.271  0.0644 -0.4774  0.3530
  200MOL0     C26906   6.230  12.500   4.358  0.1351  0.2263 -0.6096
  200MOL0     C26907   6.166  12.398   4.262  1.1797 -0.3653  0.2903
  200MOL0     C26908   6.086  12.280   4.328 -0.3092  0.1555 -0.3406
  200MOL0     C26909   6.066  12.157   4.235 -0.6528 -0.5361 -0.7549
  200MOL0    Cl26910   5.952  12.175   4.082 -0.0983 -0.0954 -0.0493
  200MOL0     C26911   6.721  12.875   4.665  0.2494  0.3495 -0.4470
  200MOL0     C26912   6.828  12.898   4.753 -0.5326 -0.8932  0.0462
  200MOL0     O26913   7.180  12.796   4.750  0.2995 -0.6899 -0.2182
  200MOL0     C26914   7.253  13.121   4.894 -0.6482  0.3106 -0.0786
  200MOL0     C26915   7.345  13.196   4.955  0.5554 -0.6108  0.2772
  200MOL0     N26916   7.853  12.855   4.909  0.3971  0.2985 -0.4901
  200MOL0     N26917   7.876  12.747   4.832  0.4033 -0.6667  0.4188
  200MOL0     C26918   7.756  11.698   4.627  0.3677 -0.1977  0.4304
  200MOL0     C26919   7.788  11.560   4.604 -0.7868 -0.8623  0.3077
  200MOL0     C26920   7.752  11.107   4.651 -0.1475  0.1284  0.2390
  200MOL0     C26921   7.892  11.083   4.668  1.2252 -0.8348  0.3729
  200MOL0     C26922   7.950  10.950   4.655  0.8516 -0.5147  0.4124
  200MOL0     C26923   7.859  10.849   4.619  0.3450  0.8017 -0.4022
  200MOL0     O26924   7.903  10.726   4.582 -0.2157  0.3351  0.0971
  200MOL0     C26925   8.028  10.698   4.513 -0.2220  0.1467 -0.1242
  200MOL0     C26926   8.115  10.619   4.613 -0.1359  0.5885 -0.6570
  200MOL0     C26927   8.262  10.629   4.567 -0.4039  0.0901 -0.0628
  200MOL0     C26928   8.329  10.767   4.575 -0.7730  0.0953  0.2207
  200MOL0     C26929   8.362  10.795   4.714  0.8244 -0.0809  0.3030
  200MOL0     C26930   8.370  10.821   4.834 -0.0263 -0.8516 -0.2946
  200MOL0     C26931   7.722  10.866   4.605 -1.0486  0.4886 -0.1279
  200MOL0     C26932   7.673  10.998   4.616  0.3387  0.9027 -0.7770
  200MOL0     H26933   7.623  11.423   4.863  0.7129 -0.2131 -0.0098
  200MOL0     H26934   7.557  11.657   4.905 -2.2796 -1.3486 -0.9466
  200MOL0     H26935   7.759  11.968   4.654  0.2358 -1.6781 -2.0187
  200MOL0     H26936   7.621  11.935   4.569  0.0306 -1.4454  0.4867
  200MOL0     H26937   7.488  12.079   4.751 -0.3603  3.8188  2.2481
  200MOL0     H26938   7.622  12.110   4.840  0.9554  1.3455  0.0548
  200MOL0     H26939   7.648  12.181   4.538  1.7586  0.0821  0.5644
  200MOL0     H26940   7.545  12.279   4.642 -1.5283 -0.4511 -2.4165
  200MOL0     H26941   7.750  12.300   4.800  2.3218 -0.0672  0.1330
  200MOL0     H26942   7.835  12.188   4.697  2.5454  0.5986  1.5259
  200MOL0     H26943   7.868  12.356   4.513 -0.7307  1.2433 -0.9053
  200MOL0     H26944   7.728  12.449   4.578 -1.2160 -1.6304 -1.1511
  200MOL0     H26945   7.870  12.496   4.768  1.7644  2.4013 -0.2707
  200MOL0     H26946   8.000  12.397   4.704  2.5012  1.6098 -4.3323
  200MOL0     H26947   8.046  12.539   4.520 -0.4828 -0.6464 -0.7766
  200MOL0     H26948   7.913  12.641   4.542 -1.2172 -1.2683 -0.3723
  200MOL0     H26949   8.156  12.720   4.640  1.6344  0.6417  3.8461
  200MOL0     H26950   8.121  12.597   4.765 -1.7876  1.4853  2.8755
  200MOL0     H26951   8.149  12.916   4.774 -1.1738  0.5037 -1.5475
  200MOL0     H26952   7.948  13.078   5.062  1.1079 -1.4111  0.5070
  200MOL0     H26953   8.085  13.108   4.968 -0.2487  2.1357 -0.3575
  200MOL0     H26954   7.944  13.164   4.774  0.4338  1.3686 -0.9989
  200MOL0     H26955   7.950  13.297   4.889  0.2909 -0.1381  3.4181
  200MOL0     H26956   7.720  13.138   4.829  3.1134 -0.7822 -1.4753
  200MOL0     H26957   7.726  13.317   4.855 -0.7700 -1.0240 -0.1633
  200MOL0     H26958   7.746  13.293   5.096  1.9596 -1.2873  0.9685
  200MOL0     H26959   7.709  13.112   5.083  1.0528 -0.4843 -0.2728
  200MOL0     H26960   7.601  12.983   4.955  1.6036  4.5324  0.9523
  200MOL0     H26961   7.367  12.719   4.927 -0.4293  2.4654  2.7103
  200MOL0     H26962   7.445  12.766   4.772  2.0792  0.1576  0.6638
  200MOL0     H26963   7.528  12.767   4.923  1.7456  1.9855 -2.7982
  200MOL0     H26964   7.058  12.955   4.513 -0.5252 -1.0159 -0.1654
  200MOL0     H26965   6.871  12.886   4.367 -1.1791 -1.4428 -0.8814
  200MOL0     H26966   6.659  12.900   4.261  0.1834  0.2386  1.1107
  200MOL0     H26967   6.685  12.725   4.283 -0.2990  0.2195 -1.5368
  200MOL0     H26968   6.433  12.871   4.278  0.8777  1.0682  2.1785
  200MOL0     H26969   6.489  12.754   4.168 -0.8060  3.5485 -0.9746
  200MOL0     H26970   6.358  12.710   4.439  2.7883 -1.1478  3.3434
  200MOL0     H26971   6.485  12.588   4.391 -0.3707  0.7641  0.9280
  200MOL0     H26972   6.251  12.664   4.221 -0.2514 -0.5165  0.6916
  200MOL0     H26973   6.368  12.532   4.195 -2.8319 -2.9439 -0.0266
  200MOL0     H26974   6.163  12.551   4.428  0.9171  0.1519  0.2090
  200MOL0     H26975   6.284  12.427   4.419 -0.7505 -4.1315 -4.5222
  200MOL0     H26976   6.095  12.454   4.200  1.3045  2.2034  2.3058
  200MOL0     H26977   6.236  12.349   4.192  0.4977  0.6558 -1.1646
  200MOL0     H26978   5.982  12.306   4.351 -0.7598 -0.8116 -1.1773
  200MOL0     H26979   6.149  12.233   4.404  0.4480 -0.1685 -1.1539
  200MOL0     H26980   6.033  12.070   4.292  0.0918 -1.4847 -1.7143
  200MOL0     H26981   6.162  12.115   4.204 -0.6226 -1.1958  0.2053
  200MOL0     H26982   6.630  12.831   4.706  1.5677 -3.5074 -1.2421
  200MOL0     H26983   6.812  12.888   4.859  0.3769  1.2336  0.4426
  200MOL0     H26984   7.164  13.175   4.863 -1.3059  0.4123  1.8367
  200MOL0     H26985   7.321  13.299   4.979  2.1341  0.0687 -0.8534
  200MOL0     H26986   7.785  11.776   4.557 -5.0395  2.8714  1.0628
  200MOL0     H26987   7.853  11.526   4.523 -0.2233 -0.8851  0.7609
  200MOL0     H26988   7.953  11.163   4.708 -1.6834  1.1266  1.1963
  200MOL0     H26989   8.056  10.931   4.672  0.8688 -1.4707 -0.6342
  200MOL0     H26990   8.021  10.632   4.427  1.0513  1.2380 -1.1107
  200MOL0     H26991   8.070  10.792   4.476 -0.4880  0.6262  0.7583
  200MOL0     H26992   8.082  10.515   4.606  1.2561 -0.2267  3.0449
  200MOL0     H26993   8.108  10.652   4.717 -0.2079 -0.5298 -0.2882
  200MOL0     H26994   8.253  10.608   4.460  2.7777 -1.9590 -0.0585
  200MOL0     H26995   8.316  10.543   4.607 -0.1122 -0.9800 -2.6066
  200MOL0     H26996   8.267  10.847   4.534 -2.2119 -0.0028  2.0446
  200MOL0     H26997   8.418  10.756   4.513  0.3294 -2.5467  2.0636
  200MOL0     H26998   8.373  10.864   4.932 -2.2020  3.1216 -1.7314
  200MOL0     H26999   7.656  10.779   4.602  0.4680 -0.7257  0.1341
  200MOL0     H27000   7.565  11.008   4.608  0.5994  3.9288 -1.6663
  201MOL0     O27001   9.899   0.566  11.113  0.1022  0.1476  0.0504
  201MOL0     C27002   9.960   0.502  11.027  0.6214 -0.3058 -1.2684
  201MOL0     O27003   9.918   0.392  10.961  0.1412 -0.5390  0.4536
  201MOL0     C27004   9.803   0.327  11.005 -0.2944  0.3049 -0.5126
  201MOL0     C27005   9.805   0.192  11.050  0.5897 -0.3042 -0.2081
  201MOL0     C27006   9.690   0.128  11.090  0.6710 -0.0422  0.0814
  201MOL0     C27007   9.564   0.192  11.099  0.0560 -0.1442 -0.1933
  201MOL0     O27008   9.453   0.122  11.138 -0.0518 -0.2313 -0.2626
  201MOL0     C27009   9.326   0.197  11.165  0.5018  0.3832 -0.4827
  201MOL0     C27010   9.247   0.116  11.277 -0.5550 -0.3891  0.0325
  201MOL0     C27011   9.103   0.164  11.268  0.5897  0.3812 -0.2183
  201MOL0     C27012   9.018   0.087  11.368  0.2670 -0.7795 -0.1426
  201MOL0     C27013   8.885   0.159  11.401 -0.4800 -0.7259 -0.1775
  201MOL0     C27014   8.784   0.170  11.289  1.6179 -0.8411  0.2907
  201MOL0     C27015   8.656   0.230  11.351  0.5887 -0.0865  0.3791
  201MOL0     C27016   8.541   0.221  11.254 -0.0952  0.0973 -0.7005
  201MOL0     N27017   8.432   0.314  11.293  1.2845  0.8598  0.0289
  201MOL0     C27018   8.329   0.270  11.383 -0.1336 -0.4093  0.4689
  201MOL0     C27019   8.240   0.371  11.381  0.5898  0.1516  0.3909
  201MOL0     C27020   8.120   0.369  11.471  0.0804  0.5780 -0.5704
  201MOL0     C27021   7.994   0.391  11.384  0.7129  0.1279  0.0126
  201MOL0     C27022   7.946   0.269  11.298 -1.2112 -0.4906  0.0276
  201MOL0     C27023   8.005   0.279  11.158  0.2862  0.3875  0.1719
  201MOL0     O27024   7.975   0.152  11.097 -0.2950 -0.4114  0.2932
  201MOL0     C27025   7.847   0.123  11.052 -0.1144 -0.1668 -0.1188
  201MOL0     C27026   7.819  -0.008  11.024 -0.2112  0.4887  0.2453
  201MOL0     C27027   7.701  -0.061  10.980 -0.2685 -0.0480 -0.0570
  201MOL0     C27028   7.688  -0.213  10.952  0.5870  0.8473  0.1963
  201MOL0     C27029   7.587   0.027  10.987 -0.6733  0.5925  0.5672
  201MOL0     C27030   7.446  -0.010  10.947 -0.8887 -0.2919  0.1272
  201MOL0     O27031   7.422  -0.087  10.832 -0.1193 -0.3791 -0.1786
  201MOL0     C27032   7.295  -0.103  10.787  0.3068 -0.4195  0.2004
  201MOL0     C27033   7.280  -0.198  10.683  0.2299 -0.2074 -0.8969
  201MOL0     C27034   7.155  -0.227  10.634 -0.2978  0.3133  0.6942
  201MOL0     C27035   7.042  -0.155  10.661  1.2133  0.2139 -0.4707
  201MOL0     O27036   6.922  -0.177  10.608 -0.8281  0.2332 -0.2857
  201MOL0     C27037   6.913  -0.283  10.507 -0.4426  0.2462 -0.1968
  201MOL0     C27038   6.769  -0.311  10.484  0.2629 -0.2468 -0.0324
  201MOL0     C27039   6.689  -0.187  10.445  0.1989 -0.0905 -0.0267
  201MOL0     C27040   6.548  -0.212  10.402  0.3784  0.3034  0.1030
  201MOL0     C27041   6.488  -0.098  10.318 -0.8074  0.2346 -0.4492
  201MOL0     C27042   6.327  -0.105  10.313 -0.1459 -0.7311 -0.4230
  201MOL0     C27043   6.254  -0.017  10.210  0.8161 -0.4905  0.6187
  201MOL0     C27044   6.285  -0.057  10.070 -0.1604 -1.1304 -0.8233
  201MOL0    Cl27045   6.188   0.047   9.968 -0.4862  0.4587  0.0584
  201MOL0     C27046   7.055  -0.052  10.754  0.2685 -0.1482  1.1836
  201MOL0     C27047   7.180  -0.018  10.812  0.7120  0.5561  0.4843
  201MOL0     O27048   7.364   0.024  11.031 -0.2087  0.0842  0.2118
  201MOL0     C27049   7.607   0.163  11.027 -0.1118  0.1404 -0.2545
  201MOL0     C27050   7.738   0.215  11.060  0.7147  0.6094 -0.6645
  201MOL0     N27051   8.292   0.475  11.301  0.0762 -0.7710  0.7220
  201MOL0     N27052   8.409   0.436  11.261 -0.2732 -0.0669  0.6796
  201MOL0     C27053   9.564   0.328  11.053 -0.5091 -0.1130 -0.6197
  201MOL0     C27054   9.680   0.391  11.013  1.1299 -0.9999  0.0201
  201MOL0     C27055  10.089   0.561  10.974  0.6052 -0.3472 -0.2171
  201MOL0     C27056  10.139   0.527  10.843  0.3140 -0.6416  0.0926
  201MOL0     C27057  10.243   0.602  10.786 -0.7485 -0.3876  0.1466
  201MOL0     C27058  10.323   0.683  10.875 -1.0071  0.1707 -0.0846
  201MOL0     O27059  10.445   0.732  10.840  0.0354 -0.4441 -0.1135
  201MOL0     C27060  10.506   0.679  10.721  1.0025  0.3628 -0.4002
  201MOL0     C27061  10.644   0.747  10.719  0.8592  0.5096 -1.0811
  201MOL0     C27062  10.732   0.741  10.849 -0.1191  0.0315 -0.1006
  201MOL0     C27063  10.850   0.846  10.838 -0.5545 -0.1675 -0.0242
  201MOL0     C27064  10.812   0.993  10.816 -0.5119 -0.4272  0.7492
  201MOL0     C27065  10.785   1.115  10.808 -0.2207  0.2269 -0.9536
  201MOL0     C27066  10.275   0.715  10.999  0.1860 -0.1647 -0.1931
  201MOL0     C27067  10.159   0.658  11.049 -0.4467  0.3989 -0.1669
  201MOL0     H27068   9.904   0.148  11.047  0.3007 -0.9840  0.1115
  201MOL0     H27069   9.691   0.029  11.134 -1.3394  1.3054  3.6068
  201MOL0     H27070   9.347   0.295  11.208  1.4732  0.0124 -0.1043
  201MOL0     H27071   9.263   0.205  11.075 -2.2564 -1.2855  1.1617
  201MOL0     H27072   9.249   0.007  11.268  1.9457 -0.4451  0.5880
  201MOL0     H27073   9.289   0.140  11.376  3.2553 -1.5396 -1.1421
  201MOL0     H27074   9.102   0.271  11.292 -0.0743  0.0497  1.3926
  201MOL0     H27075   9.054   0.157  11.170  3.8866 -1.1518 -1.9083
  201MOL0     H27076   8.997  -0.008  11.319  2.7360 -2.7667  2.2853
  201MOL0     H27077   9.073   0.055  11.457  0.8396 -1.5444 -0.7607
  201MOL0     H27078   8.834   0.111  11.485 -2.1365  1.7738  0.3802
  201MOL0     H27079   8.914   0.259  11.436 -0.3020 -0.4329 -1.1468
  201MOL0     H27080   8.813   0.248  11.218 -1.4828  1.9651  1.8018
  201MOL0     H27081   8.763   0.081  11.230 -0.9499  0.3343 -0.7465
  201MOL0     H27082   8.627   0.171  11.438 -1.0664  1.8101  1.1987
  201MOL0     H27083   8.676   0.335  11.374  1.0470  0.4377 -2.0836
  201MOL0     H27084   8.494   0.122  11.249 -3.7121  1.4368  2.0208
  201MOL0     H27085   8.577   0.255  11.157  4.1983 -2.4200 -0.2340
  201MOL0     H27086   8.321   0.176  11.438  2.3431  0.1246  1.9023
  201MOL0     H27087   8.127   0.277  11.529 -0.7307  1.7893  1.5718
  201MOL0     H27088   8.126   0.443  11.552  2.1458 -0.2058  0.0444
  201MOL0     H27089   8.012   0.473  11.314 -2.2057  2.4962  1.7841
  201MOL0     H27090   7.912   0.423  11.448  1.9850  1.1149  1.2020
  201MOL0     H27091   7.836   0.267  11.293 -1.2351 -4.1674 -0.3966
  201MOL0     H27092   7.983   0.179  11.347 -2.4368 -0.1596  1.6646
  201MOL0     H27093   8.114   0.288  11.163  0.3406  2.7742 -2.6092
  201MOL0     H27094   7.967   0.373  11.115 -1.7305 -0.1241  0.7557
  201MOL0     H27095   7.901  -0.078  11.036 -0.8825 -0.8074 -2.0867
  201MOL0     H27096   7.648  -0.234  10.853 -0.6173 -1.2284  1.0624
  201MOL0     H27097   7.781  -0.269  10.962  0.2532  0.1601 -0.4972
  201MOL0     H27098   7.617  -0.264  11.018 -0.7820  0.0357 -1.8182
  201MOL0     H27099   7.373  -0.253  10.673  0.8252 -0.3271  3.4349
  201MOL0     H27100   7.145  -0.304  10.557  0.4745  0.8598  0.0315
  201MOL0     H27101   6.949  -0.247  10.410 -1.0118 -0.9571 -0.8853
  201MOL0     H27102   6.952  -0.379  10.543 -4.7711 -2.0845 -1.0257
  201MOL0     H27103   6.758  -0.384  10.404 -2.0887 -2.9855  2.5628
  201MOL0     H27104   6.717  -0.358  10.568 -1.3551  3.1224  1.0278
  201MOL0     H27105   6.741  -0.139  10.361 -0.8149  2.6157  0.7677
  201MOL0     H27106   6.692  -0.116  10.528  0.4135 -1.3588  1.0639
  201MOL0     H27107   6.558  -0.292  10.327  0.0305  0.1358  0.2321
  201MOL0     H27108   6.482  -0.245  10.483 -0.7000 -0.5404 -1.0745
  201MOL0     H27109   6.530  -0.108  10.218  3.0766 -3.2642  1.1924
  201MOL0     H27110   6.512   0.005  10.346 -1.1247  0.2395 -0.1776
  201MOL0     H27111   6.303  -0.211  10.297  1.4119 -1.2312  0.3293
  201MOL0     H27112   6.283  -0.071  10.407 -4.5251  3.2519 -3.4797
  201MOL0     H27113   6.292   0.086  10.219  2.8270 -1.1101 -0.1908
  201MOL0     H27114   6.148  -0.022  10.234  1.0714  0.3575  2.0723
  201MOL0     H27115   6.242  -0.156  10.050  2.0764 -1.9179 -2.0676
  201MOL0     H27116   6.388  -0.041  10.040  1.3471 -1.0465  3.6052
  201MOL0     H27117   6.967   0.009  10.775 -0.6126 -0.7340 -0.6226
  201MOL0     H27118   7.180   0.066  10.881 -1.3757  2.0351 -1.1698
  201MOL0     H27119   7.529   0.238  11.024  1.7860  2.3993  1.7949
  201MOL0     H27120   7.758   0.315  11.098  2.9920 -0.7829  2.2261
  201MOL0     H27121   9.473   0.384  11.039 -1.1401 -1.1048 -0.5964
  201MOL0     H27122   9.685   0.492  10.973  1.5688  0.1100  2.6627
  201MOL0     H27123  10.081   0.461  10.779 -2.6715  1.2809  0.5878
  201MOL0     H27124  10.300   0.577  10.697  4.5059  3.4299  1.9134
  201MOL0     H27125  10.517   0.570  10.714  0.6839  0.3990 -1.7232
  201MOL0     H27126  10.447   0.708  10.634  1.9807 -0.8001 -1.4922
  201MOL0     H27127  10.620   0.854  10.709 -1.2360  0.3181  1.0749
  201MOL0     H27128  10.707   0.717  10.635 -0.7608 -0.6234 -1.9336
  201MOL0     H27129  10.779   0.642  10.855  0.8753  0.4959 -0.1027
  201MOL0     H27130  10.669   0.769  10.934 -0.1638 -4.1887  1.5062
  201MOL0     H27131  10.912   0.816  10.753 -2.6634 -0.3960 -1.5517
  201MOL0     H27132  10.913   0.847  10.928 -3.4698  0.2840  2.1770
  201MOL0     H27133  10.750   1.216  10.817 -2.5579 -0.5633 -0.5705
  201MOL0     H27134  10.340   0.785  11.051 -0.3837  2.4459 -2.6944
  201MOL0     H27135  10.129   0.683  11.151  0.0664  3.2052 -0.6163
  202MOL0     O27136   7.879   9.380   4.488 -0.3481  0.3760  0.5904
  202MOL0     C27137   7.917   9.439   4.590  0.1547 -0.2113 -0.9521
  202MOL0     O27138   7.837   9.516   4.675 -0.3397  0.0891  0.3727
  202MOL0     C27139   7.700   9.526   4.671 -0.4918  0.1884  0.4572
  202MOL0     C27140   7.638   9.649   4.685  0.5396  0.0109 -0.4053
  202MOL0     C27141   7.500   9.664   4.699  0.1348 -0.8581 -0.7784
  202MOL0     C27142   7.415   9.555   4.712 -0.5728  0.3903  0.2600
  202MOL0     O27143   7.281   9.550   4.733  0.5733 -0.3904 -0.7856
  202MOL0     C27144   7.206   9.677   4.734 -0.2521  0.3993 -0.0331
  202MOL0     C27145   7.054   9.645   4.740 -0.8735 -0.3283  0.6601
  202MOL0     C27146   7.024   9.592   4.880  0.0182 -1.0609  0.2281
  202MOL0     C27147   6.882   9.535   4.894  0.6388 -0.4986 -0.0788
  202MOL0     C27148   6.841   9.505   5.039  0.1143  0.3675  0.0745
  202MOL0     C27149   6.714   9.421   5.053 -0.0968 -0.4891 -0.3358
  202MOL0     C27150   6.612   9.455   5.159  0.4152  0.4057  0.1888
  202MOL0     C27151   6.494   9.363   5.132 -0.3455  0.4466 -0.2978
  202MOL0     N27152   6.390   9.364   5.224 -0.1378 -0.5431  0.0573
  202MOL0     C27153   6.319   9.481   5.259 -0.2242  0.4787 -1.0532
  202MOL0     C27154   6.229   9.429   5.351 -0.9351 -0.2185  1.2236
  202MOL0     C27155   6.114   9.491   5.414  0.4138  0.1099  0.7638
  202MOL0     C27156   6.140   9.590   5.517 -1.1529 -0.6179 -0.2848
  202MOL0     C27157   6.008   9.631   5.592  0.0352  0.5279 -1.0918
  202MOL0     C27158   5.915   9.694   5.482  0.2426  0.0571 -0.1731
  202MOL0     O27159   5.796   9.734   5.544 -0.8016  0.1541  0.3379
  202MOL0     C27160   5.728   9.839   5.488  0.3272 -0.0705  0.0579
  202MOL0     C27161   5.622   9.893   5.566 -0.8451 -0.7738  0.4061
  202MOL0     C27162   5.540   9.993   5.522 -0.3960 -0.8636  0.1563
  202MOL0     C27163   5.433  10.029   5.624 -0.7966 -1.4652  0.3520
  202MOL0     C27164   5.556  10.058   5.394 -0.1835 -0.6881  0.4782
  202MOL0     C27165   5.465  10.165   5.345 -1.0714 -0.6153 -0.4024
  202MOL0     O27166   5.327  10.157   5.373  0.6545  0.0567 -0.2530
  202MOL0     C27167   5.236  10.227   5.312  0.9731 -0.3514  0.7313
  202MOL0     C27168   5.118  10.250   5.381 -0.4318 -0.1085  0.8803
  202MOL0     C27169   5.014  10.315   5.321  0.4916  0.0853 -0.2029
  202MOL0     C27170   5.016  10.339   5.180 -0.0116 -0.0959  0.8502
  202MOL0     O27171   4.912  10.405   5.117 -0.2528  0.2475  0.4396
  202MOL0     C27172   4.929  10.440   4.975  0.2750  0.5892 -0.2708
  202MOL0     C27173   4.800  10.492   4.931 -0.2599 -0.2041 -0.2007
  202MOL0     C27174   4.757  10.631   4.989  0.3397  0.4308 -0.7365
  202MOL0     C27175   4.611  10.668   4.945  0.0795 -0.0747 -0.3986
  202MOL0     C27176   4.572  10.812   4.987  0.1355  0.0624 -0.5371
  202MOL0     C27177   4.430  10.858   4.935  0.2512  0.2118 -0.2912
  202MOL0     C27178   4.313  10.771   4.978 -1.3357 -0.0911 -0.3824
  202MOL0     C27179   4.286  10.752   5.124  0.3006  0.3365 -0.4196
  202MOL0    Cl27180   4.290  10.905   5.204  0.1162 -0.1095  0.4619
  202MOL0     C27181   5.138  10.316   5.107  1.3239  0.0331 -1.0405
  202MOL0     C27182   5.243  10.260   5.174  0.2918 -0.4824  0.1596
  202MOL0     O27183   5.517  10.249   5.267  0.6685  0.2216  0.5344
  202MOL0     C27184   5.671  10.022   5.330  0.0518  0.6912  0.0298
  202MOL0     C27185   5.744   9.907   5.363 -0.2242  0.0747 -0.1312
  202MOL0     N27186   6.248   9.290   5.364  0.1935  0.9529  0.3542
  202MOL0     N27187   6.341   9.249   5.287 -0.4026 -0.3565  0.5075
  202MOL0     C27188   7.473   9.429   4.667 -0.4243 -0.0277  0.2554
  202MOL0     C27189   7.612   9.420   4.655 -0.7230  0.9754 -0.0489
  202MOL0     C27190   8.063   9.421   4.630 -0.3594  0.4665  0.9386
  202MOL0     C27191   8.156   9.380   4.527  0.2141 -0.2485 -0.4476
  202MOL0     C27192   8.292   9.367   4.556  0.0547 -0.4275  0.0162
  202MOL0     C27193   8.333   9.359   4.695 -0.1797 -0.0907  0.1776
  202MOL0     O27194   8.450   9.306   4.735  0.1552  0.2396  0.1350
  202MOL0     C27195   8.468   9.165   4.732  0.1804 -0.5694 -0.0797
  202MOL0     C27196   8.598   9.121   4.681 -0.8301 -0.0828 -0.2423
  202MOL0     C27197   8.645   9.189   4.556 -0.7899  0.0956 -0.5075
  202MOL0     C27198   8.773   9.123   4.498 -0.7977 -0.0814 -0.1704
  202MOL0     C27199   8.898   9.174   4.549 -0.3600 -0.1884 -0.7149
  202MOL0     C27200   8.998   9.222   4.597  0.1268 -0.3645 -0.0301
  202MOL0     C27201   8.239   9.387   4.790  0.1921 -0.6732 -0.3478
  202MOL0     C27202   8.108   9.423   4.760 -0.0472 -0.0123 -0.2092
  202MOL0     H27203   7.699   9.739   4.679  1.3112 -0.5562 -1.3545
  202MOL0     H27204   7.461   9.764   4.716 -1.2983 -1.2792 -1.4886
  202MOL0     H27205   7.244   9.738   4.816 -1.5595 -0.6870  1.4498
  202MOL0     H27206   7.217   9.747   4.651  0.4453  3.1242  2.1916
  202MOL0     H27207   6.993   9.731   4.712 -1.3110 -0.7373  0.3478
  202MOL0     H27208   7.028   9.571   4.664 -0.7883  0.2534  0.0509
  202MOL0     H27209   7.093   9.510   4.898 -0.4078 -1.0342  2.1968
  202MOL0     H27210   7.043   9.661   4.963  2.9537 -0.5730 -0.7500
  202MOL0     H27211   6.805   9.603   4.857 -0.8108 -2.5929 -1.0852
  202MOL0     H27212   6.886   9.445   4.833 -0.6826 -2.0010  1.9376
  202MOL0     H27213   6.929   9.459   5.083  0.0967  2.3405  2.3289
  202MOL0     H27214   6.821   9.602   5.084 -2.5182  2.1270 -4.2387
  202MOL0     H27215   6.663   9.425   4.956 -1.8952 -1.6905  0.5027
  202MOL0     H27216   6.746   9.316   5.057  0.2107 -0.3977 -0.3790
  202MOL0     H27217   6.649   9.429   5.258 -2.3753 -0.5446  1.0755
  202MOL0     H27218   6.572   9.557   5.159 -2.4211 -0.5293  3.4307
  202MOL0     H27219   6.530   9.260   5.131 -2.4499 -0.3674  0.8833
  202MOL0     H27220   6.459   9.393   5.033  0.2024  1.2468 -0.2517
  202MOL0     H27221   6.324   9.586   5.232 -0.7071  1.6713  2.7779
  202MOL0     H27222   6.059   9.541   5.334  1.7925  1.7124  0.7703
  202MOL0     H27223   6.051   9.410   5.451  1.7328 -0.9140  0.8581
  202MOL0     H27224   6.194   9.676   5.478  1.2962 -1.7953  0.3182
  202MOL0     H27225   6.219   9.563   5.587  1.0196  2.8355 -1.1445
  202MOL0     H27226   6.024   9.704   5.672 -1.6648 -0.1203 -0.0941
  202MOL0     H27227   5.955   9.547   5.638  1.7703  0.0311  0.1009
  202MOL0     H27228   5.878   9.615   5.417  1.5337 -0.1874 -0.6394
  202MOL0     H27229   5.970   9.767   5.421 -0.8394  1.2322  0.1980
  202MOL0     H27230   5.604   9.855   5.666  0.6080 -1.6912  0.3561
  202MOL0     H27231   5.452   9.993   5.726 -2.1184  0.2257  1.2597
  202MOL0     H27232   5.445  10.137   5.634 -0.1563 -1.6593  1.9837
  202MOL0     H27233   5.334   9.995   5.592  0.4767 -3.8991 -1.3071
  202MOL0     H27234   5.106  10.216   5.484  0.6938  0.4440  1.2197
  202MOL0     H27235   4.926  10.341   5.379  0.5042  1.2379 -0.6855
  202MOL0     H27236   5.012  10.510   4.965 -0.5873  1.9313  1.4480
  202MOL0     H27237   4.943  10.351   4.914  0.3693 -0.3681  1.0960
  202MOL0     H27238   4.806  10.494   4.821  0.6508 -0.5664 -0.1648
  202MOL0     H27239   4.718  10.426   4.961  1.1208 -1.1751  1.6085
  202MOL0     H27240   4.816  10.716   4.952  0.2890  0.6909 -0.2262
  202MOL0     H27241   4.744  10.623   5.097 -1.7569  0.8993 -0.9202
  202MOL0     H27242   4.603  10.656   4.837  2.5397 -4.8847 -0.3288
  202MOL0     H27243   4.538  10.597   4.985  1.3397 -0.8645  0.5842
  202MOL0     H27244   4.645  10.886   4.954 -2.1052  2.4602 -0.4146
  202MOL0     H27245   4.586  10.816   5.096 -0.0492 -1.5976 -0.4324
  202MOL0     H27246   4.400  10.958   4.965 -0.6781 -0.4426  1.0721
  202MOL0     H27247   4.431  10.856   4.826  0.2712  2.9985 -0.4067
  202MOL0     H27248   4.337  10.673   4.936  1.7906  0.1583  0.6124
  202MOL0     H27249   4.220  10.813   4.937 -2.9035 -1.3187  1.7440
  202MOL0     H27250   4.364  10.692   5.170  0.7629 -0.0724 -1.6798
  202MOL0     H27251   4.198  10.691   5.146  1.7516 -1.4899  0.6515
  202MOL0     H27252   5.155  10.342   5.003  1.3636 -3.3975 -2.0048
  202MOL0     H27253   5.332  10.249   5.113  1.6288 -1.0125  2.1150
  202MOL0     H27254   5.699  10.068   5.236  0.5900  0.1116 -0.0996
  202MOL0     H27255   5.807   9.865   5.285  0.5572  1.6991 -0.4109
  202MOL0     H27256   7.416   9.338   4.655 -0.1852  0.1582 -3.6818
  202MOL0     H27257   7.661   9.324   4.641 -0.3192  1.2989 -0.9672
  202MOL0     H27258   8.122   9.368   4.424  1.4997 -1.1746 -0.7936
  202MOL0     H27259   8.373   9.357   4.484 -0.2553  0.0303 -0.4030
  202MOL0     H27260   8.459   9.125   4.834  1.0963 -0.7549 -0.0678
  202MOL0     H27261   8.388   9.123   4.671 -0.2944  0.2109 -0.0205
  202MOL0     H27262   8.597   9.012   4.668  1.6404 -0.3577  1.2191
  202MOL0     H27263   8.674   9.137   4.758  0.8900 -1.3679 -1.5727
  202MOL0     H27264   8.665   9.292   4.585  0.5901  0.5127 -2.7584
  202MOL0     H27265   8.563   9.188   4.484  0.1882 -0.9919 -1.6441
  202MOL0     H27266   8.788   9.154   4.394 -0.0044 -1.3979 -0.4620
  202MOL0     H27267   8.771   9.014   4.503 -3.2216 -0.0910  0.2540
  202MOL0     H27268   9.083   9.279   4.629 -0.6315 -0.3773  2.1444
  202MOL0     H27269   8.280   9.385   4.891  1.1850 -1.6042 -0.7463
  202MOL0     H27270   8.039   9.450   4.840 -1.7765 -1.6038 -1.0843
  203MOL0     O27271   4.128   0.005  10.424 -1.0108 -0.0820  0.0741
  203MOL0     C27272   4.127   0.102  10.498 -0.0833 -1.2280 -0.4721
  203MOL0     O27273   4.035   0.196  10.501  0.1852  0.2401  0.3939
  203MOL0     C27274   3.914   0.164  10.449  1.2125  0.1899  0.0993
  203MOL0     C27275   3.883   0.160  10.310 -0.0788  0.4077 -0.3446
  203MOL0     C27276   3.754   0.126  10.263 -0.3974 -0.1093  0.3744
  203MOL0     C27277   3.659   0.105  10.354  0.9129  0.0403 -0.9940
  203MOL0     O27278   3.537   0.083  10.297  0.1684  0.1977 -0.3838
  203MOL0     C27279   3.424   0.076  10.387 -1.0819  0.1778  0.5524
  203MOL0     C27280   3.294   0.068  10.307 -0.2224  0.6996 -0.3037
  203MOL0     C27281   3.167   0.021  10.382 -0.0668 -0.2458 -0.0384
  203MOL0     C27282   3.046   0.054  10.308  0.1275  1.1710  0.7614
  203MOL0     C27283   2.921  -0.008  10.375  0.6959 -0.4666  0.3864
  203MOL0     C27284   2.793   0.013  10.297 -0.2680  0.7396  0.0487
  203MOL0     C27285   2.679  -0.056  10.369 -0.2154  0.7861  0.4677
  203MOL0     C27286   2.557  -0.026  10.284  0.5837 -0.2970  0.3443
  203MOL0     N27287   2.432  -0.054  10.348  0.9217  0.0326  0.4168
  203MOL0     C27288   2.378  -0.178  10.380 -1.0039 -0.5271  0.2259
  203MOL0     C27289   2.260  -0.142  10.439 -0.3697  0.7363  0.1009
  203MOL0     C27290   2.168  -0.256  10.481 -1.3186  0.1011 -0.5926
  203MOL0     C27291   2.059  -0.295  10.374  0.7140 -0.1557 -0.2639
  203MOL0     C27292   1.982  -0.429  10.397 -0.2297 -1.3919 -1.1111
  203MOL0     C27293   1.882  -0.424  10.517 -0.2884 -0.1310  0.2315
  203MOL0     O27294   1.765  -0.349  10.488  0.0779 -0.1521  0.7285
  203MOL0     C27295   1.675  -0.406  10.402 -0.4806 -0.1841 -0.5635
  203MOL0     C27296   1.577  -0.317  10.364 -0.3753 -0.4606  0.3291
  203MOL0     C27297   1.470  -0.362  10.285 -0.1275 -1.3362  0.4880
  203MOL0     C27298   1.374  -0.250  10.260  0.3561 -0.0191 -0.3056
  203MOL0     C27299   1.461  -0.485  10.237 -0.0172  0.8183  0.3362
  203MOL0     C27300   1.352  -0.538  10.153 -0.0315  0.5481  0.5488
  203MOL0     O27301   1.343  -0.676  10.135  0.5572  0.5588  0.1517
  203MOL0     C27302   1.218  -0.732  10.099  0.7448 -1.0892  0.2359
  203MOL0     C27303   1.087  -0.691  10.133 -0.1678 -0.5002  0.3467
  203MOL0     C27304   0.982  -0.765  10.079  0.2445 -0.2056 -0.7364
  203MOL0     C27305   0.996  -0.885  10.008 -0.2867  0.4915 -0.0842
  203MOL0     O27306   0.886  -0.953   9.967 -0.1989 -0.4160  0.1982
  203MOL0     C27307   0.889  -1.089   9.930  0.4304  0.9413 -0.7846
  203MOL0     C27308   0.756  -1.160   9.992 -0.1120 -0.0832  0.3700
  203MOL0     C27309   0.625  -1.124   9.924  0.8454 -0.3358  0.7896
  203MOL0     C27310   0.498  -1.201   9.966  0.4368 -0.6451 -0.0789
  203MOL0     C27311   0.377  -1.195   9.875  0.6275  0.1299  0.2095
  203MOL0     C27312   0.403  -1.267   9.739 -0.0417 -0.4047 -0.2660
  203MOL0     C27313   0.389  -1.418   9.749  0.0626  0.0023  0.1952
  203MOL0     C27314   0.523  -1.501   9.752  0.2298  0.5119  0.5488
  203MOL0    Cl27315   0.502  -1.669   9.706  0.3575 -0.0843 -0.1122
  203MOL0     C27316   1.127  -0.923   9.982 -0.9581 -0.2247  0.2202
  203MOL0     C27317   1.237  -0.847  10.027 -0.1390 -0.9053 -0.7678
  203MOL0     O27318   1.285  -0.459  10.089  0.2403  0.0111  0.3321
  203MOL0     C27319   1.564  -0.571  10.272 -0.0497 -0.5449 -0.2139
  203MOL0     C27320   1.669  -0.538  10.356 -0.3980 -0.5239 -1.0298
  203MOL0     N27321   2.247  -0.012  10.444  0.3645  0.0672 -0.6440
  203MOL0     N27322   2.347   0.044  10.391 -0.3331 -0.3384 -0.1800
  203MOL0     C27323   3.685   0.105  10.496  0.2140 -0.7707 -0.3836
  203MOL0     C27324   3.812   0.138  10.544  0.1962  0.6664  0.0572
  203MOL0     C27325   4.240   0.130  10.593 -0.2081 -0.5108 -0.7038
  203MOL0     C27326   4.255   0.247  10.667  0.0038  0.2424 -0.9727
  203MOL0     C27327   4.365   0.271  10.758  0.3785  0.6686  0.3277
  203MOL0     C27328   4.466   0.169  10.760 -0.2476 -1.1532  0.2432
  203MOL0     O27329   4.577   0.196  10.825 -0.3951 -0.2293  0.0062
  203MOL0     C27330   4.616   0.102  10.928 -0.5288  0.1107 -0.0456
  203MOL0     C27331   4.552   0.131  11.061 -0.3883 -0.2850 -1.0511
  203MOL0     C27332   4.591   0.011  11.150 -0.4724 -0.4615  0.2319
  203MOL0     C27333   4.732   0.036  11.204  0.2701  0.0499  0.0431
  203MOL0     C27334   4.841  -0.023  11.123 -0.6041 -0.3710 -0.1313
  203MOL0     C27335   4.938  -0.065  11.061 -0.1615 -0.3006 -0.1017
  203MOL0     C27336   4.443   0.049  10.697 -0.2421  0.4402 -0.5514
  203MOL0     C27337   4.347   0.034  10.605  0.7897 -0.2470 -0.1045
  203MOL0     H27338   3.968   0.188  10.248  0.6511  2.8717  1.6517
  203MOL0     H27339   3.730   0.130  10.157  2.7449  1.6582 -0.3916
  203MOL0     H27340   3.445  -0.002  10.460  5.3787  0.9629  0.0644
  203MOL0     H27341   3.429   0.170  10.444  0.1561 -0.1732  1.0624
  203MOL0     H27342   3.280   0.170  10.272  1.5769  0.5658 -1.5126
  203MOL0     H27343   3.313  -0.004  10.226  1.3023 -0.3487  0.9254
  203MOL0     H27344   3.179  -0.087  10.393 -1.3682 -0.2952  1.0047
  203MOL0     H27345   3.164   0.067  10.481 -0.4146  3.7620 -1.7384
  203MOL0     H27346   3.024   0.161  10.304  0.0520  1.1709  1.1145
  203MOL0     H27347   3.055   0.023  10.203  3.8118  1.2681  0.9063
  203MOL0     H27348   2.927  -0.115  10.393  0.1974 -0.3316  1.4516
  203MOL0     H27349   2.913   0.042  10.473  2.4930  1.8491 -0.5489
  203MOL0     H27350   2.772   0.121  10.293 -3.7878  0.2449  1.2686
  203MOL0     H27351   2.798  -0.029  10.196 -2.2773  2.4241 -0.8429
  203MOL0     H27352   2.694  -0.164  10.364  1.8195  1.0780 -4.1234
  203MOL0     H27353   2.665  -0.028  10.474  1.0708 -0.6622  1.0683
  203MOL0     H27354   2.577  -0.085  10.194  2.3824  1.6299 -0.6428
  203MOL0     H27355   2.555   0.082  10.263  1.0613 -0.0359  1.5522
  203MOL0     H27356   2.422  -0.276  10.361 -1.1337 -0.4060 -0.7477
  203MOL0     H27357   2.221  -0.349  10.501  1.2076  1.8743  1.7741
  203MOL0     H27358   2.120  -0.226  10.575  0.9820 -2.3318  1.5172
  203MOL0     H27359   2.113  -0.302  10.280 -0.4558 -2.7589 -0.8398
  203MOL0     H27360   1.985  -0.215  10.362  1.0155 -0.1558 -2.4273
  203MOL0     H27361   2.051  -0.511  10.417  2.7879  1.2610  0.1888
  203MOL0     H27362   1.930  -0.458  10.305 -0.0118 -0.6677 -1.4700
  203MOL0     H27363   1.938  -0.370  10.594  0.4799 -0.5948  0.0102
  203MOL0     H27364   1.868  -0.526  10.554 -1.5559  0.8752  2.8472
  203MOL0     H27365   1.592  -0.215  10.397 -3.2397 -0.9180  3.6420
  203MOL0     H27366   1.417  -0.208  10.168  1.6251 -0.8470 -0.1204
  203MOL0     H27367   1.268  -0.277  10.261 -0.3728  2.5319  0.7633
  203MOL0     H27368   1.386  -0.172  10.336 -0.9797 -1.4852  1.4815
  203MOL0     H27369   1.084  -0.605  10.199  2.5187  0.8833 -1.1606
  203MOL0     H27370   0.885  -0.724  10.106  2.1565  3.1961  1.8876
  203MOL0     H27371   0.886  -1.103   9.822 -2.3730  0.5021 -0.7358
  203MOL0     H27372   0.972  -1.140   9.979  0.4441  1.7078  0.0194
  203MOL0     H27373   0.778  -1.267   9.979  0.8892  0.3720 -2.5547
  203MOL0     H27374   0.742  -1.151  10.100 -0.5787  3.3260  0.1210
  203MOL0     H27375   0.638  -1.144   9.817  0.6744 -4.4899  1.3518
  203MOL0     H27376   0.609  -1.019   9.949  0.0572  0.2285 -1.7826
  203MOL0     H27377   0.526  -1.306   9.981  0.9968 -0.3490  0.9705
  203MOL0     H27378   0.464  -1.150  10.056 -3.3510 -0.3013 -1.4904
  203MOL0     H27379   0.339  -1.095   9.850  0.2651  0.0548  0.4449
  203MOL0     H27380   0.290  -1.232   9.930  1.4831 -0.4160  1.2110
  203MOL0     H27381   0.332  -1.231   9.664 -0.3120 -0.0754  0.1442
  203MOL0     H27382   0.497  -1.241   9.689 -1.8184  2.5087 -2.3646
  203MOL0     H27383   0.339  -1.448   9.656 -0.3236  0.5894  0.2101
  203MOL0     H27384   0.323  -1.454   9.828 -2.4536  0.7019 -1.4600
  203MOL0     H27385   0.559  -1.508   9.855 -1.8897 -2.0522  1.2446
  203MOL0     H27386   0.596  -1.454   9.686  1.1656  0.0022  1.1944
  203MOL0     H27387   1.149  -1.011   9.922  1.1773 -0.0173  0.6158
  203MOL0     H27388   1.339  -0.869   9.999 -0.1338  0.7413 -2.1846
  203MOL0     H27389   1.575  -0.675  10.241  3.2687 -0.2578 -0.4140
  203MOL0     H27390   1.747  -0.608  10.384  0.2697  1.2077  1.7198
  203MOL0     H27391   3.600   0.100  10.564  1.0773  0.1800  0.7979
  203MOL0     H27392   3.827   0.147  10.651  1.0532 -2.8710  0.3521
  203MOL0     H27393   4.173   0.316  10.655 -0.4288 -0.2292 -0.7348
  203MOL0     H27394   4.385   0.363  10.811  1.9114 -0.2527  1.4461
  203MOL0     H27395   4.592  -0.000  10.898  2.9525 -0.0900 -2.7512
  203MOL0     H27396   4.725   0.102  10.938 -0.6968 -2.5657  4.5884
  203MOL0     H27397   4.446   0.156  11.066 -0.1846  0.3561  2.2245
  203MOL0     H27398   4.597   0.226  11.092  1.3487 -1.2182 -0.5864
  203MOL0     H27399   4.597  -0.081  11.091  0.5126  0.9826 -2.0862
  203MOL0     H27400   4.524   0.007  11.236  0.7122  3.6604  1.5363
  203MOL0     H27401   4.728  -0.017  11.299 -2.6723  0.6107  0.3098
  203MOL0     H27402   4.742   0.142  11.229 -2.7971  0.2760  0.6906
  203MOL0     H27403   5.031  -0.094  11.015 -0.4316 -1.5204  0.1109
  203MOL0     H27404   4.522  -0.025  10.699 -2.1022 -1.6192  0.5729
  203MOL0     H27405   4.343  -0.064  10.558 -2.5976  0.0447 -0.6516
  204MOL0     O27406  10.330   8.612   0.276  0.6900 -0.3022 -0.3419
  204MOL0     C27407  10.337   8.730   0.299  0.5103  0.1631 -0.2836
  204MOL0     O27408  10.224   8.811   0.299  0.5129  0.2523  0.2328
  204MOL0     C27409  10.104   8.773   0.247 -0.9788 -0.3007 -0.2881
  204MOL0     C27410  10.086   8.704   0.128  0.4518 -0.5006  0.5437
  204MOL0     C27411   9.961   8.684   0.076  0.0980  0.2654  0.4556
  204MOL0     C27412   9.844   8.730   0.136 -0.6766 -0.3245 -0.2795
  204MOL0     O27413   9.732   8.696   0.068  0.0800  0.7148  0.2959
  204MOL0     C27414   9.607   8.710   0.132 -0.3690  0.1586  0.2872
  204MOL0     C27415   9.538   8.845   0.120  0.4557 -0.5957  0.5952
  204MOL0     C27416   9.412   8.839   0.210 -0.2853 -0.5572  0.4628
  204MOL0     C27417   9.289   8.800   0.135 -0.4547 -0.2382  0.4498
  204MOL0     C27418   9.172   8.790   0.230  0.7711  0.2122 -0.2398
  204MOL0     C27419   9.050   8.739   0.150 -0.8177  0.3396 -0.7987
  204MOL0     C27420   8.927   8.754   0.231  0.1539  0.3950  0.6231
  204MOL0     C27421   8.821   8.684   0.133  0.1692 -0.4638 -0.8097
  204MOL0     N27422   8.688   8.676   0.198 -0.0010  0.3984 -0.5833
  204MOL0     C27423   8.603   8.781   0.232  0.2947 -0.1350 -0.7984
  204MOL0     C27424   8.506   8.719   0.302  0.3001  0.7240 -0.8985
  204MOL0     C27425   8.385   8.786   0.373 -0.0531  0.6412  0.1284
  204MOL0     C27426   8.316   8.860   0.256  0.0925  0.2014 -0.0025
  204MOL0     C27427   8.168   8.914   0.303 -0.0515  0.3944  0.0566
  204MOL0     C27428   8.077   8.797   0.344  0.7249 -0.1406 -0.0097
  204MOL0     O27429   7.940   8.836   0.352  0.2876 -0.1842  0.3834
  204MOL0     C27430   7.890   8.920   0.449  0.0155 -0.0393 -0.0706
  204MOL0     C27431   7.967   8.974   0.559  0.5049  0.0766  0.2469
  204MOL0     C27432   7.912   9.063   0.655  1.2723  0.2332  0.1805
  204MOL0     C27433   8.007   9.099   0.767 -0.4430  0.1143  0.0745
  204MOL0     C27434   7.771   9.100   0.634 -0.9796 -0.3117 -0.7727
  204MOL0     C27435   7.704   9.185   0.727  0.5093  0.6548 -0.1448
  204MOL0     O27436   7.591   9.240   0.689 -0.1694  0.7053 -0.3433
  204MOL0     C27437   7.518   9.315   0.778  0.5740 -0.0951  0.2075
  204MOL0     C27438   7.514   9.303   0.913  0.3883  1.1995 -0.0776
  204MOL0     C27439   7.416   9.380   0.986 -0.7864 -0.7997 -0.5190
  204MOL0     C27440   7.337   9.467   0.922 -0.3044  0.7359  1.1446
  204MOL0     O27441   7.240   9.557   0.974  0.1378 -0.6146  0.2984
  204MOL0     C27442   7.203   9.541   1.113 -0.1832 -0.1455  0.3801
  204MOL0     C27443   7.241   9.637   1.225 -0.5315 -0.0682  0.3272
  204MOL0     C27444   7.399   9.633   1.234  0.0747 -0.2115  0.4345
  204MOL0     C27445   7.436   9.743   1.333  0.3018 -0.0268 -0.1504
  204MOL0     C27446   7.378   9.729   1.480  0.1413 -1.0202 -0.1336
  204MOL0     C27447   7.405   9.600   1.566  0.0963  0.2500  0.9964
  204MOL0     C27448   7.361   9.621   1.711  0.4560  0.6342  0.2738
  204MOL0     C27449   7.433   9.525   1.809  0.6021 -0.4397  0.2412
  204MOL0    Cl27450   7.384   9.351   1.769 -0.0526  0.4411 -0.2684
  204MOL0     C27451   7.344   9.478   0.784  0.6666  0.2160  0.3682
  204MOL0     C27452   7.431   9.394   0.711  0.1373 -0.6663  0.2441
  204MOL0     O27453   7.755   9.196   0.839 -0.1224  0.7308 -0.0941
  204MOL0     C27454   7.702   9.039   0.532  1.1861 -0.6622  0.3704
  204MOL0     C27455   7.758   8.957   0.441 -0.4006  0.3386  0.3204
  204MOL0     N27456   8.537   8.587   0.317 -0.4646 -0.5527  1.1898
  204MOL0     N27457   8.643   8.560   0.246 -0.0961  0.0042  0.1933
  204MOL0     C27458   9.851   8.792   0.264 -1.1955  0.2669  0.1721
  204MOL0     C27459   9.987   8.817   0.313  0.6475 -0.7717  0.3811
  204MOL0     C27460  10.469   8.793   0.309 -0.7755 -0.0825  0.0529
  204MOL0     C27461  10.484   8.930   0.281 -0.7916 -0.1115 -0.1426
  204MOL0     C27462  10.610   8.983   0.266 -0.0862 -0.0255  0.5310
  204MOL0     C27463  10.725   8.907   0.276 -0.2218 -1.1952  0.8241
  204MOL0     O27464  10.849   8.972   0.259  0.6058  0.0424  0.1473
  204MOL0     C27465  10.951   8.885   0.217 -1.0052 -0.3668 -0.4285
  204MOL0     C27466  11.068   8.965   0.147  0.4439 -0.0565 -0.0383
  204MOL0     C27467  11.029   9.038   0.016 -0.1317  0.2765 -0.1948
  204MOL0     C27468  11.146   9.021  -0.100  0.3855  0.8142  0.6060
  204MOL0     C27469  11.289   9.048  -0.069 -0.0481 -0.3111 -0.6167
  204MOL0     C27470  11.405   9.055  -0.041  0.0443  0.2937 -0.3295
  204MOL0     C27471  10.711   8.770   0.311  0.5937 -0.0821  0.9292
  204MOL0     C27472  10.586   8.715   0.334 -0.1049  0.2587 -0.2451
  204MOL0     H27473  10.164   8.661   0.066 -0.3651 -0.4202 -0.5565
  204MOL0     H27474   9.959   8.634  -0.020 -1.2011 -0.0680  0.6297
  204MOL0     H27475   9.536   8.639   0.090 -3.0726  1.6432  2.0845
  204MOL0     H27476   9.622   8.676   0.235  0.4969 -0.4827 -0.0320
  204MOL0     H27477   9.602   8.930   0.142  2.0554 -1.2303 -1.2852
  204MOL0     H27478   9.506   8.854   0.016 -0.8717 -2.3687  0.8003
  204MOL0     H27479   9.435   8.766   0.288  4.2424 -3.0043 -2.7312
  204MOL0     H27480   9.397   8.942   0.244 -2.1622 -0.6277  0.0042
  204MOL0     H27481   9.261   8.878   0.064 -2.3438  1.0892  2.5013
  204MOL0     H27482   9.308   8.703   0.087 -0.4274 -0.9360  1.8254
  204MOL0     H27483   9.197   8.710   0.300  2.6193  1.0965  0.1852
  204MOL0     H27484   9.159   8.886   0.280  1.7348 -0.3438  1.1381
  204MOL0     H27485   9.039   8.794   0.056 -1.7502 -0.5792 -1.2520
  204MOL0     H27486   9.069   8.633   0.129 -1.5838 -0.3159  1.4790
  204MOL0     H27487   8.925   8.693   0.321 -2.3839  1.8049  1.6256
  204MOL0     H27488   8.908   8.860   0.245 -1.6133  0.5164 -2.0463
  204MOL0     H27489   8.855   8.587   0.096  0.5365  1.0083 -4.8184
  204MOL0     H27490   8.804   8.752   0.049  1.0843 -2.1778 -2.4533
  204MOL0     H27491   8.606   8.888   0.210  1.0834  0.7990  3.1091
  204MOL0     H27492   8.308   8.711   0.395  0.8395 -1.4552 -3.2578
  204MOL0     H27493   8.413   8.855   0.454 -0.8221  0.5144  0.5126
  204MOL0     H27494   8.307   8.791   0.172 -1.9129  1.8632 -1.2531
  204MOL0     H27495   8.373   8.944   0.213 -4.5397  2.8260 -1.6927
  204MOL0     H27496   8.116   8.976   0.230 -0.9594  1.4992  1.5999
  204MOL0     H27497   8.191   8.981   0.386  3.1666  0.2807 -0.5921
  204MOL0     H27498   8.114   8.739   0.429 -0.4302 -1.5758 -0.4416
  204MOL0     H27499   8.091   8.728   0.260  0.4266  0.3711 -0.4845
  204MOL0     H27500   8.060   8.921   0.578  0.0687  0.1094  2.9627
  204MOL0     H27501   7.995   9.206   0.786 -0.9223  0.0409  0.1963
  204MOL0     H27502   7.980   9.044   0.857  2.3285  0.3786  1.1498
  204MOL0     H27503   8.109   9.077   0.733 -0.2879  0.9158 -0.0097
  204MOL0     H27504   7.575   9.237   0.973  1.6052  1.4440 -0.9985
  204MOL0     H27505   7.419   9.381   1.095 -0.8703  0.2620 -0.5153
  204MOL0     H27506   7.094   9.547   1.106 -0.2989 -1.4366  0.8379
  204MOL0     H27507   7.235   9.440   1.139  0.1192 -0.4756 -1.1599
  204MOL0     H27508   7.199   9.738   1.221  0.5332  0.4552  1.6390
  204MOL0     H27509   7.194   9.595   1.314 -0.7551 -1.7483 -0.5341
  204MOL0     H27510   7.458   9.647   1.143 -2.4324 -2.7914 -1.7702
  204MOL0     H27511   7.438   9.541   1.280 -0.4867 -0.8579 -0.3553
  204MOL0     H27512   7.544   9.757   1.343  0.1093  2.6749 -1.1383
  204MOL0     H27513   7.407   9.839   1.290  0.4222 -0.0053 -0.1857
  204MOL0     H27514   7.271   9.752   1.475  0.1985 -0.8392 -0.5960
  204MOL0     H27515   7.426   9.803   1.545 -2.2509 -1.3956  2.2463
  204MOL0     H27516   7.347   9.520   1.518 -2.5189  1.6067  1.7118
  204MOL0     H27517   7.507   9.562   1.569  0.0057 -0.1924 -0.6217
  204MOL0     H27518   7.253   9.611   1.720  0.5030  0.8484  1.2133
  204MOL0     H27519   7.376   9.723   1.748  1.0339  1.0237 -0.9746
  204MOL0     H27520   7.396   9.536   1.912  0.6391  1.7921  0.0539
  204MOL0     H27521   7.541   9.539   1.804  0.7109 -1.5864 -1.6749
  204MOL0     H27522   7.277   9.544   0.730 -0.3197 -0.2323  1.0148
  204MOL0     H27523   7.423   9.395   0.603 -1.9168  0.4865  0.3481
  204MOL0     H27524   7.596   9.058   0.525  1.2897  0.6971  1.8847
  204MOL0     H27525   7.705   8.924   0.352 -1.5456 -0.5221  1.3016
  204MOL0     H27526   9.760   8.811   0.320 -1.2416  1.9902 -0.4165
  204MOL0     H27527  10.003   8.880   0.400 -3.3134  2.4071 -0.8795
  204MOL0     H27528  10.406   9.006   0.280  0.8471  1.6992 -2.9086
  204MOL0     H27529  10.621   9.085   0.230 -0.3664 -0.7137 -1.6176
  204MOL0     H27530  10.997   8.835   0.303  1.4299  1.0772 -0.7794
  204MOL0     H27531  10.926   8.803   0.150 -1.1902 -2.1627  1.7497
  204MOL0     H27532  11.148   8.894   0.123  0.1652  0.0525 -1.3439
  204MOL0     H27533  11.114   9.048   0.202 -1.5243  2.8180 -2.4160
  204MOL0     H27534  11.031   9.146   0.033  1.8021  0.6343 -2.1704
  204MOL0     H27535  10.935   8.994  -0.020  0.5117 -0.5628 -0.8723
  204MOL0     H27536  11.116   9.086  -0.183 -1.9696  0.7783  1.3554
  204MOL0     H27537  11.140   8.920  -0.141  0.9375 -0.4829  3.5015
  204MOL0     H27538  11.506   9.057  -0.005  0.5651 -1.2517 -1.6003
  204MOL0     H27539  10.794   8.702   0.328 -0.8727 -1.7049  1.9648
  204MOL0     H27540  10.573   8.615   0.373  0.6607  0.1566 -0.2417
  205MOL0     O27541   2.372  11.366   2.761  0.1954  0.8996 -0.0194
  205MOL0     C27542   2.357  11.486   2.788  0.2330  0.6102  0.0169
  205MOL0     O27543   2.417  11.590   2.730 -0.9883 -0.9460  0.6245
  205MOL0     C27544   2.503  11.562   2.629 -0.1462  0.3121 -0.0377
  205MOL0     C27545   2.643  11.557   2.646  0.6264 -0.9800  0.0182
  205MOL0     C27546   2.728  11.524   2.537  0.1630  0.0454  0.3587
  205MOL0     C27547   2.677  11.482   2.416 -0.6093  0.8761  0.1154
  205MOL0     O27548   2.769  11.449   2.318 -0.2848  0.5180 -0.5945
  205MOL0     C27549   2.745  11.336   2.233 -0.7508  0.5905 -0.0186
  205MOL0     C27550   2.859  11.275   2.150  0.2566  0.4922 -0.5832
  205MOL0     C27551   2.970  11.205   2.237 -0.5305  0.1220 -0.7063
  205MOL0     C27552   2.930  11.080   2.311 -0.1421 -0.6850  0.3621
  205MOL0     C27553   3.022  10.969   2.271  0.2093  0.2507  0.4279
  205MOL0     C27554   3.018  10.918   2.131  0.8946 -0.1626  0.0541
  205MOL0     C27555   2.875  10.859   2.101  0.0270  0.7529 -0.4562
  205MOL0     C27556   2.886  10.786   1.962  0.1837 -0.3233 -0.6433
  205MOL0     N27557   2.751  10.735   1.935  0.6329  0.2540 -0.7596
  205MOL0     C27558   2.642  10.816   1.900  0.2171  0.4213 -0.8788
  205MOL0     C27559   2.537  10.726   1.890  0.3211  0.0877  0.1351
  205MOL0     C27560   2.386  10.761   1.892 -0.5138  0.4200 -0.1439
  205MOL0     C27561   2.307  10.717   2.018  0.0991 -0.4262 -0.4582
  205MOL0     C27562   2.362  10.801   2.138 -0.1671 -0.4339  0.6001
  205MOL0     C27563   2.264  10.795   2.262  0.9218 -1.1171  0.4821
  205MOL0     O27564   2.147  10.878   2.226  0.7448  0.6907  0.1835
  205MOL0     C27565   2.019  10.829   2.237 -0.2290  0.3415 -0.2665
  205MOL0     C27566   1.939  10.864   2.129  0.4272 -0.1387 -0.6939
  205MOL0     C27567   1.801  10.841   2.136  0.2790 -0.1220  0.0038
  205MOL0     C27568   1.716  10.912   2.026 -0.1491 -0.7641 -0.2138
  205MOL0     C27569   1.749  10.774   2.247  1.1336 -0.4718 -0.2609
  205MOL0     C27570   1.611  10.758   2.278 -0.0672  0.4165  0.3017
  205MOL0     O27571   1.575  10.734   2.408 -0.1101 -0.1692  0.1238
  205MOL0     C27572   1.441  10.743   2.449 -0.1348  0.8320 -0.5359
  205MOL0     C27573   1.327  10.767   2.369  0.6543 -0.0983 -0.6830
  205MOL0     C27574   1.207  10.791   2.429  0.6496  1.2288 -0.1154
  205MOL0     C27575   1.189  10.795   2.574  0.0712 -0.0282  0.0467
  205MOL0     O27576   1.067  10.810   2.638 -0.7015  0.3120  1.2190
  205MOL0     C27577   1.043  10.884   2.760  0.2898 -0.5982  0.2235
  205MOL0     C27578   0.924  10.980   2.745 -0.9712 -0.1998 -0.5478
  205MOL0     C27579   0.800  10.916   2.687  0.4080  0.2069 -0.1205
  205MOL0     C27580   0.688  11.005   2.640  0.3096 -0.4545 -0.4461
  205MOL0     C27581   0.575  10.918   2.587 -0.6111 -0.0150  0.1278
  205MOL0     C27582   0.458  10.996   2.534  0.1956  0.8089 -0.0503
  205MOL0     C27583   0.334  10.905   2.519 -0.0427 -0.2374  0.1967
  205MOL0     C27584   0.215  10.989   2.487 -0.7830 -0.3109 -0.7555
  205MOL0    Cl27585   0.072  10.886   2.479  0.2105 -0.1023  0.2214
  205MOL0     C27586   1.304  10.781   2.655 -0.2366 -0.8367 -0.1910
  205MOL0     C27587   1.420  10.743   2.591 -0.0472 -0.2679 -0.3116
  205MOL0     O27588   1.538  10.730   2.186 -0.1672  0.3328  1.1031
  205MOL0     C27589   1.832  10.725   2.349 -0.8816  0.7019  0.2787
  205MOL0     C27590   1.967  10.759   2.347 -0.4037 -0.5972  0.2438
  205MOL0     N27591   2.583  10.598   1.921  0.2762 -0.1944  0.1616
  205MOL0     N27592   2.707  10.607   1.954  0.4711 -0.4182 -0.3786
  205MOL0     C27593   2.539  11.478   2.394  1.4528 -0.8333 -0.2108
  205MOL0     C27594   2.458  11.518   2.507  0.3288  0.3605 -0.3912
  205MOL0     C27595   2.269  11.510   2.905 -0.3161  0.8103 -0.3257
  205MOL0     C27596   2.249  11.634   2.960  1.0201  0.5733 -0.3467
  205MOL0     C27597   2.177  11.667   3.073 -0.3036  0.3479  0.6150
  205MOL0     C27598   2.098  11.564   3.124  0.5838  0.2945 -0.2328
  205MOL0     O27599   2.013  11.597   3.227  0.4176 -0.5740 -0.0478
  205MOL0     C27600   1.936  11.503   3.298 -0.0272 -0.5252 -0.2447
  205MOL0     C27601   1.841  11.580   3.395  0.5611 -0.0063 -0.2011
  205MOL0     C27602   1.923  11.665   3.493 -0.3136 -0.4652 -0.0222
  205MOL0     C27603   1.851  11.697   3.621  0.4187 -0.0678 -0.4701
  205MOL0     C27604   1.946  11.750   3.719 -0.1693  0.4293 -0.3590
  205MOL0     C27605   2.032  11.769   3.802  0.2100 -0.3571 -0.5433
  205MOL0     C27606   2.110  11.428   3.076 -0.3438 -0.8002 -0.0861
  205MOL0     C27607   2.197  11.407   2.968  0.4637  0.2691  1.2400
  205MOL0     H27608   2.684  11.571   2.746  0.9138 -1.4694 -0.0291
  205MOL0     H27609   2.834  11.511   2.554  0.1977  0.8379  0.8143
  205MOL0     H27610   2.711  11.259   2.303  1.9403  2.6554  3.9555
  205MOL0     H27611   2.662  11.368   2.169  0.1057  2.5670 -0.2210
  205MOL0     H27612   2.820  11.192   2.091 -1.8357  0.6543  0.4944
  205MOL0     H27613   2.903  11.355   2.089  0.7347  1.1872  0.6237
  205MOL0     H27614   3.047  11.185   2.161 -1.3664  3.0654 -2.5192
  205MOL0     H27615   3.020  11.275   2.304  0.4962 -2.3264  1.2217
  205MOL0     H27616   2.944  11.102   2.417  2.1268  0.5149 -0.1188
  205MOL0     H27617   2.825  11.049   2.309  0.1439 -1.6724 -0.6208
  205MOL0     H27618   3.122  11.007   2.290  1.0173 -1.4182 -0.2822
  205MOL0     H27619   3.008  10.882   2.336  1.5799  0.1715  0.6404
  205MOL0     H27620   3.035  10.993   2.053 -0.5494  1.3840  1.1512
  205MOL0     H27621   3.094  10.840   2.117 -1.2485 -2.2697 -0.4690
  205MOL0     H27622   2.856  10.784   2.179  2.3540 -0.6552 -1.1430
  205MOL0     H27623   2.794  10.932   2.093 -1.1604 -0.6972 -3.5554
  205MOL0     H27624   2.959  10.705   1.963 -0.5355 -0.9842 -0.3782
  205MOL0     H27625   2.905  10.863   1.886 -3.7448 -0.4656 -2.0296
  205MOL0     H27626   2.639  10.924   1.896  2.4668  0.4986 -1.5370
  205MOL0     H27627   2.369  10.868   1.879 -1.0768 -0.0122 -4.1327
  205MOL0     H27628   2.345  10.723   1.798 -0.2083  1.0113 -0.5167
  205MOL0     H27629   2.328  10.612   2.040  0.8215 -0.1161  0.4003
  205MOL0     H27630   2.200  10.719   1.998  0.0216 -2.4402 -0.4466
  205MOL0     H27631   2.383  10.906   2.113 -0.9606 -0.5005 -0.3823
  205MOL0     H27632   2.455  10.749   2.163 -0.7130 -1.4775  0.5205
  205MOL0     H27633   2.310  10.841   2.350  1.3170 -0.2155 -0.1834
  205MOL0     H27634   2.237  10.692   2.285 -1.0636 -0.3807  1.6513
  205MOL0     H27635   1.975  10.936   2.058 -1.5372 -0.3179 -1.9500
  205MOL0     H27636   1.625  10.953   2.070 -0.0279 -0.8300  0.0967
  205MOL0     H27637   1.765  11.002   1.988  1.5993 -0.9755  1.3865
  205MOL0     H27638   1.682  10.846   1.945  0.9772  1.4112 -2.6161
  205MOL0     H27639   1.331  10.785   2.262  0.4006 -0.7704 -0.8107
  205MOL0     H27640   1.121  10.811   2.366  1.4891  0.6018 -1.5146
  205MOL0     H27641   1.029  10.805   2.835 -0.8031 -0.7199 -0.0843
  205MOL0     H27642   1.128  10.947   2.785 -0.0518 -0.4014  0.9138
  205MOL0     H27643   0.914  11.019   2.846 -0.0554  1.1159 -0.9451
  205MOL0     H27644   0.964  11.063   2.686 -1.6666  0.9260  0.5152
  205MOL0     H27645   0.759  10.841   2.756  0.5092 -0.4519 -0.7729
  205MOL0     H27646   0.837  10.864   2.598  1.4938  0.8282 -0.0451
  205MOL0     H27647   0.670  11.068   2.727  1.0495 -0.4024 -0.3232
  205MOL0     H27648   0.717  11.075   2.561 -0.0633  0.2309  0.0216
  205MOL0     H27649   0.538  10.850   2.664 -2.3453  0.6060 -0.1047
  205MOL0     H27650   0.615  10.855   2.506  1.1934  0.1850  0.8066
  205MOL0     H27651   0.441  11.076   2.607 -1.9753  1.1807 -0.8861
  205MOL0     H27652   0.484  11.041   2.437 -1.1265 -0.3834 -1.0071
  205MOL0     H27653   0.308  10.846   2.608 -2.2714  2.0421  1.1677
  205MOL0     H27654   0.348  10.836   2.435 -1.2279  0.8738 -0.9383
  205MOL0     H27655   0.239  11.017   2.383  1.6125 -1.0357 -0.4759
  205MOL0     H27656   0.197  11.074   2.553  0.5939 -0.5816  0.0054
  205MOL0     H27657   1.307  10.793   2.762 -1.1843  0.5636 -0.3027
  205MOL0     H27658   1.503  10.727   2.658  1.2377  2.3299 -1.1190
  205MOL0     H27659   1.795  10.679   2.439  0.2040  0.1685  0.4676
  205MOL0     H27660   2.025  10.745   2.438 -0.9855  1.2914  0.9581
  205MOL0     H27661   2.494  11.455   2.298  1.9973  0.0890 -0.7046
  205MOL0     H27662   2.351  11.506   2.488  0.8241 -1.0044 -2.6487
  205MOL0     H27663   2.300  11.714   2.908 -1.9297  1.3864 -2.2383
  205MOL0     H27664   2.178  11.771   3.104  2.5183  0.6186 -0.0817
  205MOL0     H27665   1.885  11.436   3.229  1.1045 -0.8969 -0.7506
  205MOL0     H27666   2.012  11.445   3.351  3.1653  1.8748 -1.7721
  205MOL0     H27667   1.783  11.513   3.461 -0.3403 -0.9785 -1.9148
  205MOL0     H27668   1.779  11.638   3.327  2.5833 -0.4653 -2.5841
  205MOL0     H27669   1.932  11.762   3.442  1.4082 -0.8351 -0.4869
  205MOL0     H27670   2.021  11.623   3.518  0.2071  1.2180  0.9307
  205MOL0     H27671   1.808  11.602   3.655 -1.6765  0.1011 -2.3690
  205MOL0     H27672   1.776  11.775   3.607 -0.3647 -0.6179  0.4583
  205MOL0     H27673   2.116  11.774   3.868  0.2260 -1.3450 -0.4730
  205MOL0     H27674   2.061  11.349   3.132 -0.1933 -0.2890  0.7696
  205MOL0     H27675   2.208  11.308   2.925 -1.1068  0.7547 -0.4510
  206MOL0     O27676  10.700   4.771   1.634 -0.6878 -0.5260 -0.5666
  206MOL0     C27677  10.688   4.767   1.514 -0.4529  0.4997 -0.4722
  206MOL0     O27678  10.572   4.759   1.443 -0.3063 -0.7903 -0.3851
  206MOL0     C27679  10.456   4.748   1.512  0.3688 -0.4872  0.4781
  206MOL0     C27680  10.428   4.853   1.596 -0.0613 -0.5906  0.3716
  206MOL0     C27681  10.307   4.864   1.666 -0.2213 -0.5269 -0.0861
  206MOL0     C27682  10.206   4.765   1.648  1.3948 -0.4538 -0.3286
  206MOL0     O27683  10.098   4.783   1.730  0.8785  0.0250  0.0914
  206MOL0     C27684   9.975   4.715   1.699 -0.5815 -0.1704  0.8558
  206MOL0     C27685   9.871   4.759   1.797  0.4261  0.1117 -0.5158
  206MOL0     C27686   9.744   4.722   1.736 -0.2500 -0.8496 -0.0945
  206MOL0     C27687   9.626   4.754   1.821  0.5543 -0.1773 -0.0980
  206MOL0     C27688   9.500   4.711   1.749 -0.8166 -0.4013  0.2371
  206MOL0     C27689   9.372   4.739   1.840  0.4573  0.5445  0.4151
  206MOL0     C27690   9.326   4.884   1.819  0.7725 -0.1599 -0.3469
  206MOL0     C27691   9.258   4.911   1.682 -0.3002 -0.3461  0.7443
  206MOL0     N27692   9.218   5.049   1.678  0.0434 -0.7205  0.3691
  206MOL0     C27693   9.101   5.099   1.720 -0.6808 -0.7229 -0.6707
  206MOL0     C27694   9.104   5.225   1.678 -0.3108  0.1358  0.5463
  206MOL0     C27695   8.974   5.296   1.696 -0.5499  0.0033 -0.2879
  206MOL0     C27696   8.917   5.351   1.563 -0.3249 -0.3734 -0.9028
  206MOL0     C27697   8.777   5.416   1.577 -0.7351 -0.4714  0.2463
  206MOL0     C27698   8.765   5.535   1.680 -0.0512 -0.3711  0.2235
  206MOL0     O27699   8.629   5.588   1.673 -0.5093  0.6677 -0.4598
  206MOL0     C27700   8.535   5.513   1.737  0.3761  0.1500  0.3409
  206MOL0     C27701   8.420   5.477   1.661 -0.0891 -0.0604  0.4740
  206MOL0     C27702   8.317   5.395   1.714 -0.4611 -0.2681 -0.4255
  206MOL0     C27703   8.215   5.375   1.606  1.0417  0.9730 -0.1161
  206MOL0     C27704   8.326   5.356   1.845 -0.6974 -0.1004  0.0382
  206MOL0     C27705   8.220   5.274   1.914 -1.2564 -0.4232  0.4080
  206MOL0     O27706   8.260   5.187   2.003  0.4958  0.0252 -0.8868
  206MOL0     C27707   8.160   5.096   2.028 -0.7427  0.4740  0.1117
  206MOL0     C27708   8.084   5.117   2.142 -0.5668 -0.8737  0.5702
  206MOL0     C27709   7.988   5.026   2.173  0.7766  1.0375  0.4015
  206MOL0     C27710   7.961   4.908   2.097  1.0304 -0.1209 -0.1024
  206MOL0     O27711   7.859   4.823   2.127 -1.0266  0.4907 -0.2617
  206MOL0     C27712   7.878   4.725   2.230 -0.3089  0.5188  0.4379
  206MOL0     C27713   7.996   4.630   2.178  0.4236  0.2803 -1.0117
  206MOL0     C27714   8.041   4.534   2.294  0.4029  0.1105  0.7533
  206MOL0     C27715   8.185   4.578   2.349  0.4000 -0.8903  0.7964
  206MOL0     C27716   8.194   4.734   2.403  0.8484 -0.0948  0.2892
  206MOL0     C27717   8.340   4.784   2.417 -0.9778 -0.5511  0.0316
  206MOL0     C27718   8.348   4.928   2.474 -0.3187  0.7649 -0.2117
  206MOL0     C27719   8.493   4.979   2.496  1.4976 -0.0950  0.7444
  206MOL0    Cl27720   8.486   5.151   2.543  0.4673  0.4057 -0.3961
  206MOL0     C27721   8.038   4.891   1.984  0.8953  0.7598 -0.5046
  206MOL0     C27722   8.150   4.975   1.956  0.4225  1.2546  0.1815
  206MOL0     O27723   8.109   5.293   1.870  1.2658 -0.4127  0.3919
  206MOL0     C27724   8.440   5.383   1.921 -0.0969  0.0558  0.8410
  206MOL0     C27725   8.543   5.469   1.875 -0.5089 -0.6540  0.2306
  206MOL0     N27726   9.228   5.252   1.628  0.4333  0.4382 -0.7191
  206MOL0     N27727   9.294   5.141   1.624 -0.2153  0.0660 -0.5512
  206MOL0     C27728  10.232   4.658   1.559 -0.1462 -1.2383  0.8182
  206MOL0     C27729  10.362   4.648   1.496  0.1252  0.1388  0.1155
  206MOL0     C27730  10.818   4.735   1.445  0.2457  0.1105  0.0340
  206MOL0     C27731  10.824   4.735   1.307  0.4954 -0.1250 -0.0051
  206MOL0     C27732  10.943   4.738   1.244 -0.1962  0.2509 -0.3998
  206MOL0     C27733  11.066   4.714   1.308 -0.0591  0.4500 -0.1280
  206MOL0     O27734  11.186   4.720   1.237 -0.6303 -0.6849 -0.1003
  206MOL0     C27735  11.202   4.631   1.128 -0.7194  0.3520 -0.8819
  206MOL0     C27736  11.176   4.697   0.994  0.2637 -0.5731  0.5358
  206MOL0     C27737  11.286   4.797   0.940 -0.4105 -0.3290 -0.5873
  206MOL0     C27738  11.274   4.847   0.792  0.5310  0.3981 -0.6172
  206MOL0     C27739  11.313   4.745   0.698  0.0432  0.8760  0.9839
  206MOL0     C27740  11.359   4.656   0.625 -0.1312 -0.5969 -0.2708
  206MOL0     C27741  11.060   4.710   1.447  0.4988 -0.0880 -0.2048
  206MOL0     C27742  10.940   4.729   1.519  0.9552 -0.6464  0.0649
  206MOL0     H27743  10.495   4.939   1.602  0.1409 -0.7985  1.1091
  206MOL0     H27744  10.295   4.936   1.746 -2.1017 -0.7642 -0.0968
  206MOL0     H27745   9.947   4.733   1.595  5.1916  1.5842 -0.7764
  206MOL0     H27746   9.984   4.606   1.709 -4.2203 -1.0086 -2.7036
  206MOL0     H27747   9.882   4.706   1.893 -1.3612 -1.2169 -0.9962
  206MOL0     H27748   9.869   4.868   1.807 -2.3717 -0.0541  2.4597
  206MOL0     H27749   9.729   4.780   1.645 -0.4773 -1.2807 -0.3386
  206MOL0     H27750   9.743   4.614   1.715  1.1843 -1.6892  3.4978
  206MOL0     H27751   9.627   4.684   1.905 -4.2304 -2.1453 -1.3906
  206MOL0     H27752   9.641   4.852   1.867  1.3501 -0.2171 -0.2540
  206MOL0     H27753   9.494   4.758   1.651  3.2689 -0.4465 -0.1939
  206MOL0     H27754   9.513   4.603   1.742 -2.1440 -0.5635  0.0060
  206MOL0     H27755   9.287   4.675   1.814  1.4588 -0.1405 -1.3979
  206MOL0     H27756   9.404   4.717   1.942  1.3267 -1.0631 -0.1618
  206MOL0     H27757   9.259   4.918   1.899 -0.3414 -2.1985 -0.3565
  206MOL0     H27758   9.410   4.955   1.819 -0.4180  1.3478 -2.2882
  206MOL0     H27759   9.167   4.851   1.669  0.1701 -0.8651 -0.3203
  206MOL0     H27760   9.331   4.892   1.603  1.9175  1.5570  2.2160
  206MOL0     H27761   9.018   5.047   1.767 -0.5744 -0.2169  0.0895
  206MOL0     H27762   8.907   5.226   1.748  0.0970  1.6042  2.9028
  206MOL0     H27763   8.987   5.375   1.771  1.0751 -1.1053  0.6577
  206MOL0     H27764   8.898   5.270   1.493 -4.4105 -0.9611  0.6443
  206MOL0     H27765   8.986   5.428   1.525 -0.8829  1.6209  1.7700
  206MOL0     H27766   8.702   5.341   1.605 -0.1892 -1.4320 -0.7437
  206MOL0     H27767   8.739   5.438   1.477 -0.5080 -1.3779 -0.0581
  206MOL0     H27768   8.840   5.610   1.657  2.2503 -1.9026  2.2519
  206MOL0     H27769   8.786   5.494   1.779 -0.9107  0.9538  0.9887
  206MOL0     H27770   8.424   5.512   1.558  0.7601  2.7557  1.3702
  206MOL0     H27771   8.123   5.425   1.638  0.6135  2.1276 -2.8469
  206MOL0     H27772   8.237   5.430   1.514  0.2403  0.5556 -0.5766
  206MOL0     H27773   8.186   5.270   1.593 -0.5360  1.3966 -0.2999
  206MOL0     H27774   8.104   5.210   2.193 -3.0587 -0.7624  1.5106
  206MOL0     H27775   7.928   5.050   2.260 -0.2934 -0.0746 -0.0022
  206MOL0     H27776   7.906   4.786   2.316 -1.8696 -0.1212  1.4441
  206MOL0     H27777   7.790   4.662   2.250 -0.6560  0.0314 -2.2189
  206MOL0     H27778   7.954   4.573   2.094 -3.6983 -1.1307  1.7199
  206MOL0     H27779   8.085   4.674   2.132 -0.3493  0.2381 -2.6324
  206MOL0     H27780   8.045   4.429   2.263  1.3901  0.0351  1.0924
  206MOL0     H27781   7.972   4.535   2.379 -3.1936 -1.0922 -1.9160
  206MOL0     H27782   8.206   4.511   2.433 -0.0269 -3.0432 -0.7225
  206MOL0     H27783   8.252   4.561   2.264  0.7360 -1.1901  1.1157
  206MOL0     H27784   8.144   4.739   2.500 -1.3157 -2.9960 -0.5137
  206MOL0     H27785   8.146   4.807   2.337  0.1067  0.0407  0.9599
  206MOL0     H27786   8.389   4.709   2.479 -2.0401 -2.3754 -1.2254
  206MOL0     H27787   8.393   4.778   2.321 -1.4572  0.4458 -0.3055
  206MOL0     H27788   8.308   4.925   2.576  2.2292  1.3791  0.8861
  206MOL0     H27789   8.296   4.997   2.406 -0.4286 -0.9298 -1.9060
  206MOL0     H27790   8.555   4.962   2.407  0.8703 -2.7985  0.7465
  206MOL0     H27791   8.532   4.915   2.575 -2.9577 -1.2328  2.2905
  206MOL0     H27792   8.024   4.804   1.921  0.4513 -1.0429  1.9384
  206MOL0     H27793   8.214   4.941   1.875 -1.5579 -0.5559 -0.7142
  206MOL0     H27794   8.452   5.357   2.026  1.0871 -0.4660  0.5960
  206MOL0     H27795   8.634   5.497   1.927 -0.0383 -0.7657 -0.5064
  206MOL0     H27796  10.154   4.586   1.536  0.6536 -1.7911 -0.2699
  206MOL0     H27797  10.387   4.564   1.432 -2.6738 -1.7808  1.3770
  206MOL0     H27798  10.730   4.737   1.253  1.0212 -0.4739 -0.9598
  206MOL0     H27799  10.935   4.741   1.136  0.1366 -0.4309 -0.4451
  206MOL0     H27800  11.306   4.597   1.125  0.1195  2.4117  1.4168
  206MOL0     H27801  11.149   4.536   1.135  0.3496 -0.2318 -0.2958
  206MOL0     H27802  11.075   4.740   0.992  0.6032  0.2152 -0.6253
  206MOL0     H27803  11.175   4.610   0.928  0.7798  1.1624 -1.9050
  206MOL0     H27804  11.387   4.758   0.955  0.9594  1.3387 -4.1329
  206MOL0     H27805  11.281   4.892   0.994  1.7452 -1.5812  2.0633
  206MOL0     H27806  11.336   4.937   0.781  1.1190  0.1535  0.6157
  206MOL0     H27807  11.170   4.878   0.780 -0.1210 -1.5067 -0.2585
  206MOL0     H27808  11.412   4.586   0.564  0.3904  0.3041 -0.8885
  206MOL0     H27809  11.147   4.673   1.500  0.1584  0.4052  0.7268
  206MOL0     H27810  10.951   4.735   1.627  1.2645  0.6223 -0.0199
  207MOL0     O27811   5.581   8.592   9.447 -0.2225  0.0666  0.5315
  207MOL0     C27812   5.609   8.703   9.401 -0.2011  0.5201 -0.0680
  207MOL0     O27813   5.528   8.813   9.405  0.1056  0.0951 -0.0748
  207MOL0     C27814   5.395   8.786   9.407 -0.0861  0.3458 -0.5881
  207MOL0     C27815   5.326   8.732   9.299  0.9431 -0.2422  0.4282
  207MOL0     C27816   5.187   8.704   9.306 -0.0148 -1.0839 -0.3521
  207MOL0     C27817   5.116   8.742   9.421  0.4316 -0.0917 -0.3952
  207MOL0     O27818   4.988   8.708   9.421  0.3188 -1.1012 -0.0286
  207MOL0     C27819   4.896   8.817   9.457 -0.6320 -0.3897  0.7887
  207MOL0     C27820   4.759   8.775   9.405 -0.0835 -0.0396 -1.1184
  207MOL0     C27821   4.648   8.881   9.426 -0.6395 -0.6656 -0.5556
  207MOL0     C27822   4.513   8.824   9.439 -0.6873 -0.3000 -0.6653
  207MOL0     C27823   4.456   8.763   9.313 -0.3440  0.2154  0.3954
  207MOL0     C27824   4.484   8.613   9.280  0.5039  0.7309 -0.1305
  207MOL0     C27825   4.422   8.569   9.149  0.7223  0.8191 -0.5899
  207MOL0     C27826   4.449   8.416   9.122 -0.4216  0.0382 -0.2180
  207MOL0     N27827   4.409   8.394   8.984  0.1938  0.5113 -0.3044
  207MOL0     C27828   4.481   8.381   8.868  0.4104 -0.2238 -0.6592
  207MOL0     C27829   4.395   8.380   8.768  1.3633 -0.2055  0.0691
  207MOL0     C27830   4.422   8.387   8.620  0.4296 -0.9177 -0.2031
  207MOL0     C27831   4.388   8.520   8.552 -0.3455  0.7390 -0.8128
  207MOL0     C27832   4.471   8.631   8.605 -0.2863  0.2011  0.0105
  207MOL0     C27833   4.525   8.725   8.494  0.2716  0.4970 -0.9538
  207MOL0     O27834   4.520   8.862   8.535 -0.4716  0.1571  0.1474
  207MOL0     C27835   4.395   8.918   8.526  0.1046 -0.4912 -0.2700
  207MOL0     C27836   4.394   9.056   8.546  0.3143 -0.1544 -0.7365
  207MOL0     C27837   4.272   9.126   8.561 -0.7091 -0.1025  0.6215
  207MOL0     C27838   4.286   9.277   8.591  0.2525 -0.3145  0.4478
  207MOL0     C27839   4.148   9.054   8.551 -0.7071 -0.5182 -0.4257
  207MOL0     C27840   4.010   9.113   8.583  0.3172  0.4548  0.5337
  207MOL0     O27841   3.900   9.042   8.540 -0.2746 -0.1710 -0.2500
  207MOL0     C27842   3.784   9.090   8.582 -0.2440 -0.8574  0.6851
  207MOL0     C27843   3.703   9.171   8.495  0.7523  0.3367  0.1200
  207MOL0     C27844   3.585   9.210   8.545 -0.4379 -0.1092 -0.8441
  207MOL0     C27845   3.532   9.182   8.672 -0.2465 -0.2342 -0.1658
  207MOL0     O27846   3.406   9.224   8.704  0.2289 -0.1053  0.1473
  207MOL0     C27847   3.352   9.177   8.822 -0.3270 -0.9408 -0.0706
  207MOL0     C27848   3.215   9.244   8.841 -0.3592  0.5334  0.6298
  207MOL0     C27849   3.119   9.159   8.935 -1.0984 -0.8823 -0.1378
  207MOL0     C27850   2.973   9.221   8.951 -0.1990 -0.4341  0.1751
  207MOL0     C27851   2.973   9.334   9.056  0.5377  0.2731 -0.0249
  207MOL0     C27852   2.833   9.394   9.072  0.2090  0.2006 -0.3034
  207MOL0     C27853   2.831   9.539   9.122  1.3286 -0.1431  0.0505
  207MOL0     C27854   2.694   9.596   9.170 -0.1431 -0.5596 -0.5971
  207MOL0    Cl27855   2.644   9.502   9.311 -0.4175 -0.2764 -0.0174
  207MOL0     C27856   3.608   9.110   8.760  0.4661  0.8534  0.6787
  207MOL0     C27857   3.731   9.060   8.711 -0.2173  0.5332 -0.2996
  207MOL0     O27858   4.010   9.213   8.655  0.4533  0.9150 -0.2632
  207MOL0     C27859   4.152   8.921   8.514 -0.1698  0.4594  0.1623
  207MOL0     C27860   4.270   8.855   8.503 -0.3830  0.1526  0.1541
  207MOL0     N27861   4.267   8.375   8.822 -0.0295  0.5572  0.4153
  207MOL0     N27862   4.276   8.380   8.949  0.0979  0.2325 -0.6071
  207MOL0     C27863   5.183   8.803   9.523  0.1925 -0.2635  0.0662
  207MOL0     C27864   5.315   8.821   9.521  0.2827  0.4350 -0.4454
  207MOL0     C27865   5.743   8.717   9.344 -0.1442  0.0218  0.0323
  207MOL0     C27866   5.765   8.834   9.263  0.4530  0.1711 -0.2072
  207MOL0     C27867   5.894   8.860   9.208 -0.4618  0.0438  0.3403
  207MOL0     C27868   5.998   8.768   9.218  0.4456  0.5580  0.6455
  207MOL0     O27869   6.119   8.811   9.165  0.3287 -0.5779 -0.0397
  207MOL0     C27870   6.227   8.710   9.155  0.2413 -0.0920 -0.0943
  207MOL0     C27871   6.367   8.782   9.137 -0.3363  1.2277 -0.7891
  207MOL0     C27872   6.471   8.684   9.092 -0.1761 -0.1668 -0.3679
  207MOL0     C27873   6.605   8.751   9.052  0.4469  0.8000  0.2677
  207MOL0     C27874   6.731   8.676   9.057  0.1100  0.9840  0.4239
  207MOL0     C27875   6.839   8.621   9.059 -0.5218  0.3994  0.2632
  207MOL0     C27876   5.977   8.642   9.282  0.4981 -0.1588 -0.0272
  207MOL0     C27877   5.854   8.623   9.351  0.3576 -0.6811 -0.3041
  207MOL0     H27878   5.360   8.727   9.196 -3.6162  4.5360 -1.7883
  207MOL0     H27879   5.141   8.663   9.217 -0.6821  0.9103 -0.9749
  207MOL0     H27880   4.886   8.819   9.566 -3.6752 -0.8542  0.6063
  207MOL0     H27881   4.929   8.916   9.422  1.5579 -0.7005  1.8151
  207MOL0     H27882   4.768   8.747   9.300 -3.5085  0.4995 -1.6584
  207MOL0     H27883   4.736   8.681   9.456 -1.5548 -1.0301 -3.4483
  207MOL0     H27884   4.673   8.944   9.511 -0.2589  1.9981 -2.5010
  207MOL0     H27885   4.645   8.951   9.341 -0.3625 -1.1878 -1.0019
  207MOL0     H27886   4.512   8.751   9.521  1.4416 -0.8581 -1.0935
  207MOL0     H27887   4.442   8.904   9.463 -0.9753 -1.2852  2.0632
  207MOL0     H27888   4.347   8.765   9.322 -0.5994 -1.0540 -1.8126
  207MOL0     H27889   4.467   8.828   9.226  0.1671 -0.5883 -0.1474
  207MOL0     H27890   4.591   8.595   9.266  0.3201 -0.5816  0.0520
  207MOL0     H27891   4.452   8.552   9.364  0.8403  1.0070  0.1985
  207MOL0     H27892   4.316   8.583   9.169  0.6707 -2.6503  2.8127
  207MOL0     H27893   4.453   8.636   9.069  0.1498  0.5318 -1.0554
  207MOL0     H27894   4.378   8.363   9.185 -2.3052  1.7997 -0.7487
  207MOL0     H27895   4.548   8.373   9.142  0.1949  1.0836 -0.9080
  207MOL0     H27896   4.585   8.411   8.870  0.4688 -0.4458  0.8152
  207MOL0     H27897   4.529   8.372   8.601  0.6533 -0.8199  0.9591
  207MOL0     H27898   4.380   8.304   8.563 -2.0551  1.4411 -2.1069
  207MOL0     H27899   4.280   8.536   8.563 -0.7917 -0.9946 -2.2752
  207MOL0     H27900   4.403   8.518   8.444 -4.1598  0.6247 -1.4916
  207MOL0     H27901   4.560   8.590   8.652  1.2688  0.5200 -2.4747
  207MOL0     H27902   4.421   8.692   8.681 -1.4469 -1.9445  1.0637
  207MOL0     H27903   4.463   8.716   8.404  0.7587  2.0178 -1.4762
  207MOL0     H27904   4.624   8.687   8.469  0.6887  1.7673 -1.3352
  207MOL0     H27905   4.488   9.106   8.567 -0.2244 -0.0492  1.6530
  207MOL0     H27906   4.254   9.274   8.695 -1.0932  0.3950  0.0805
  207MOL0     H27907   4.390   9.310   8.583  0.7182 -0.7310  3.5284
  207MOL0     H27908   4.205   9.328   8.537 -1.5578 -3.4042 -0.0328
  207MOL0     H27909   3.722   9.192   8.390 -4.0607  2.3786 -0.6075
  207MOL0     H27910   3.526   9.269   8.476  0.9275 -0.9108 -2.7748
  207MOL0     H27911   3.352   9.068   8.830  1.0079 -0.9541 -0.0875
  207MOL0     H27912   3.416   9.214   8.902  1.6248 -0.2725 -1.8339
  207MOL0     H27913   3.223   9.350   8.865  4.3166  0.8948 -1.4423
  207MOL0     H27914   3.166   9.243   8.743  0.4390 -1.6410  0.1786
  207MOL0     H27915   3.168   9.143   9.031 -0.0445  2.3396 -0.0168
  207MOL0     H27916   3.104   9.060   8.890 -1.8377 -0.4212 -0.9392
  207MOL0     H27917   2.938   9.252   8.852 -0.5320  2.4564  1.1059
  207MOL0     H27918   2.911   9.141   8.994  3.8357 -3.9289  0.2114
  207MOL0     H27919   3.046   9.415   9.044  0.3384  0.3731 -0.5945
  207MOL0     H27920   2.989   9.290   9.155 -2.2317  0.8815  0.7834
  207MOL0     H27921   2.765   9.387   8.987  1.9076 -3.7268 -1.5673
  207MOL0     H27922   2.777   9.338   9.147 -1.8039  2.3509 -0.0782
  207MOL0     H27923   2.847   9.605   9.036 -0.8295  1.2401  0.6190
  207MOL0     H27924   2.905   9.557   9.201  1.3618 -1.2088  0.2746
  207MOL0     H27925   2.616   9.590   9.094 -0.1517  4.0231 -1.2280
  207MOL0     H27926   2.710   9.702   9.191 -2.2614  0.1129 -2.0203
  207MOL0     H27927   3.579   9.094   8.863  1.8975 -1.5813  0.7752
  207MOL0     H27928   3.791   9.000   8.778 -1.1398 -0.0265  0.0519
  207MOL0     H27929   4.065   8.858   8.500  1.1854 -0.9603 -2.8742
  207MOL0     H27930   4.255   8.755   8.464  1.3038  0.2408 -0.8371
  207MOL0     H27931   5.142   8.827   9.621  0.9593 -1.2452  0.6426
  207MOL0     H27932   5.364   8.861   9.610 -1.3932  1.4315  0.0619
  207MOL0     H27933   5.682   8.903   9.247  0.2287  0.2488  1.1295
  207MOL0     H27934   5.922   8.936   9.137  3.2264  0.4377  2.0083
  207MOL0     H27935   6.227   8.651   9.246 -0.7790  1.6772  1.1251
  207MOL0     H27936   6.211   8.650   9.065  0.3564  3.0897 -2.4236
  207MOL0     H27937   6.397   8.827   9.232  0.4811  0.2547 -0.5684
  207MOL0     H27938   6.346   8.854   9.057 -2.8662  2.4723  0.8873
  207MOL0     H27939   6.449   8.624   9.004  2.2169 -3.8224  1.2685
  207MOL0     H27940   6.482   8.626   9.184 -2.0390  3.9116  2.7763
  207MOL0     H27941   6.615   8.839   9.117  2.5811  0.7897  0.0245
  207MOL0     H27942   6.595   8.787   8.949  2.5995 -0.9120 -0.6136
  207MOL0     H27943   6.926   8.559   9.046 -1.9567 -2.0848  1.6822
  207MOL0     H27944   6.050   8.562   9.294  0.8218  0.1919  0.3518
  207MOL0     H27945   5.837   8.529   9.404  0.4496 -0.8821 -0.6277
  208MOL0     O27946   1.503   5.521   5.006  0.1366 -0.4101  0.1875
  208MOL0     C27947   1.571   5.524   4.900  0.1757  0.2116  0.4675
  208MOL0     O27948   1.517   5.523   4.776 -0.8163 -0.5707 -0.4399
  208MOL0     C27949   1.392   5.485   4.767 -0.8293  0.1027  0.1776
  208MOL0     C27950   1.360   5.354   4.771 -0.5939 -1.0380  0.7820
  208MOL0     C27951   1.229   5.309   4.757  0.1574 -1.2011 -0.7131
  208MOL0     C27952   1.130   5.401   4.719 -0.1105 -0.1435 -0.3155
  208MOL0     O27953   1.001   5.367   4.688 -0.2672 -0.3984 -0.3321
  208MOL0     C27954   0.971   5.239   4.639  0.1081 -0.5151  0.1299
  208MOL0     C27955   0.815   5.214   4.620  0.4106 -0.3501 -0.5890
  208MOL0     C27956   0.755   5.165   4.755 -0.3998 -0.4310  0.1018
  208MOL0     C27957   0.606   5.129   4.748 -0.3691 -0.9887  0.9992
  208MOL0     C27958   0.543   5.076   4.878 -0.8106  0.0709  0.3554
  208MOL0     C27959   0.393   5.062   4.873  0.2228  0.0495 -0.1773
  208MOL0     C27960   0.329   5.032   5.015  0.2083 -0.2912  0.3099
  208MOL0     C27961   0.319   5.154   5.113 -0.4349  0.2524 -0.8864
  208MOL0     N27962   0.213   5.240   5.076 -0.2765 -0.3421 -0.1783
  208MOL0     C27963   0.086   5.195   5.097 -0.7039  0.3833  0.7146
  208MOL0     C27964   0.016   5.308   5.101  0.3042  0.3704  0.5714
  208MOL0     C27965  -0.138   5.322   5.097 -0.5430  0.8677  0.0373
  208MOL0     C27966  -0.191   5.442   5.021 -0.2089  0.4031  0.0089
  208MOL0     C27967  -0.340   5.457   5.019 -0.6002  0.0703  0.6551
  208MOL0     C27968  -0.374   5.589   4.955 -0.0373  0.5651  0.4165
  208MOL0     O27969  -0.513   5.592   4.915 -0.4234  0.0517  0.5388
  208MOL0     C27970  -0.566   5.702   4.864 -0.7941  0.0816  0.2506
  208MOL0     C27971  -0.517   5.826   4.876 -0.0725 -0.0384 -0.2875
  208MOL0     C27972  -0.574   5.945   4.836  0.6864  0.2553  0.0853
  208MOL0     C27973  -0.482   6.068   4.860  0.7301 -0.2202  0.0627
  208MOL0     C27974  -0.704   5.938   4.777 -0.3110 -0.0921  0.5541
  208MOL0     C27975  -0.786   6.045   4.737  0.2845 -0.9396  0.1091
  208MOL0     O27976  -0.907   6.021   4.669 -0.4637 -0.0195  0.3379
  208MOL0     C27977  -0.993   6.122   4.630 -0.1187  0.1272 -0.4334
  208MOL0     C27978  -1.130   6.112   4.661 -0.4717 -1.2690  0.1873
  208MOL0     C27979  -1.217   6.222   4.618 -0.5768  1.0087  1.7487
  208MOL0     C27980  -1.172   6.322   4.531 -0.2123 -0.4117  0.9296
  208MOL0     O27981  -1.260   6.409   4.481 -0.1151  0.9854 -0.3670
  208MOL0     C27982  -1.398   6.427   4.522  0.1912 -0.2278  0.0543
  208MOL0     C27983  -1.442   6.569   4.476 -0.2629  0.6156 -0.0541
  208MOL0     C27984  -1.582   6.604   4.518  0.3734  0.8883  0.2620
  208MOL0     C27985  -1.689   6.483   4.514  0.3489  0.2808 -0.4849
  208MOL0     C27986  -1.832   6.532   4.567 -0.1752  0.5159 -0.4599
  208MOL0     C27987  -1.943   6.428   4.538 -0.0195 -0.1701 -0.3111
  208MOL0     C27988  -2.086   6.475   4.573 -1.3438 -0.8520  0.5137
  208MOL0     C27989  -2.194   6.385   4.543 -0.5634 -0.4288 -0.1976
  208MOL0    Cl27990  -2.247   6.402   4.378  0.0054  0.0409 -0.1750
  208MOL0     C27991  -1.042   6.321   4.486 -0.3960 -0.6159  0.2035
  208MOL0     C27992  -0.953   6.222   4.535 -0.1944 -0.1528 -0.5842
  208MOL0     O27993  -0.757   6.157   4.775  0.7662  0.3309  0.4203
  208MOL0     C27994  -0.759   5.805   4.766  0.0667 -0.5765  0.4785
  208MOL0     C27995  -0.688   5.691   4.800 -0.8479  0.0694 -0.5047
  208MOL0     N27996   0.100   5.416   5.084 -0.7107  0.1055  0.2464
  208MOL0     N27997   0.221   5.371   5.069  0.6009  0.1569  0.2223
  208MOL0     C27998   1.170   5.536   4.705  0.1414 -0.6305 -0.0158
  208MOL0     C27999   1.298   5.581   4.737  0.2835 -0.5809 -0.0971
  208MOL0     C28000   1.719   5.541   4.919  1.4065  0.0713  0.1198
  208MOL0     C28001   1.784   5.525   5.042 -0.1445  0.3509 -0.5376
  208MOL0     C28002   1.921   5.536   5.061  0.5139  0.1914 -0.0492
  208MOL0     C28003   2.005   5.563   4.954 -1.0512 -0.3542  0.2411
  208MOL0     O28004   2.144   5.555   4.977 -0.0736 -0.0809 -0.6248
  208MOL0     C28005   2.230   5.496   4.883 -0.0542  0.5989  0.8450
  208MOL0     C28006   2.288   5.608   4.805 -0.9423  0.1525  0.2724
  208MOL0     C28007   2.345   5.721   4.900  0.2223 -0.1580  0.6088
  208MOL0     C28008   2.435   5.829   4.836  0.2896 -0.9984 -0.4658
  208MOL0     C28009   2.445   5.941   4.924  0.6592  0.2451  0.2016
  208MOL0     C28010   2.435   6.045   4.987 -0.1362  0.4309 -0.0965
  208MOL0     C28011   1.948   5.575   4.821 -0.1444 -0.1376 -0.1864
  208MOL0     C28012   1.809   5.564   4.811 -0.6634 -0.0053 -0.3533
  208MOL0     H28013   1.436   5.278   4.779  0.5982 -0.0945 -1.0327
  208MOL0     H28014   1.203   5.205   4.768  1.3925 -1.4233  0.2181
  208MOL0     H28015   1.009   5.240   4.536 -2.6385  2.6943 -1.0397
  208MOL0     H28016   1.010   5.149   4.689  1.3270 -1.2586 -1.9991
  208MOL0     H28017   0.769   5.309   4.593 -0.5361 -0.9382 -1.1503
  208MOL0     H28018   0.798   5.142   4.539  1.7279 -0.9667 -0.3397
  208MOL0     H28019   0.807   5.074   4.788 -2.1919 -1.6271 -0.2161
  208MOL0     H28020   0.776   5.247   4.824  1.1364  0.0404 -0.8698
  208MOL0     H28021   0.561   5.222   4.712 -0.5473 -1.5195 -0.1854
  208MOL0     H28022   0.600   5.049   4.673  2.1629 -1.5527  1.3118
  208MOL0     H28023   0.606   4.995   4.917  1.0247  2.0310  1.7168
  208MOL0     H28024   0.564   5.151   4.955 -0.0570 -0.1694  0.3921
  208MOL0     H28025   0.351   5.148   4.819 -0.3386 -0.0209  0.1385
  208MOL0     H28026   0.373   4.975   4.811  4.0197 -1.3067  0.2596
  208MOL0     H28027   0.235   4.977   5.007 -0.0750  0.1755  0.3622
  208MOL0     H28028   0.388   4.952   5.060  1.4833 -0.0649 -0.9013
  208MOL0     H28029   0.404   5.222   5.100 -1.8409  1.9816 -1.5693
  208MOL0     H28030   0.304   5.120   5.216 -3.4674  0.1216 -1.2828
  208MOL0     H28031   0.055   5.091   5.099 -0.3285  0.2216 -0.6559
  208MOL0     H28032  -0.183   5.228   5.062  0.6020  0.2789  0.1025
  208MOL0     H28033  -0.177   5.325   5.199 -0.5980 -0.9117  0.1065
  208MOL0     H28034  -0.145   5.440   4.922 -1.7023 -2.2640 -0.7144
  208MOL0     H28035  -0.151   5.536   5.061 -0.7028  0.4563  0.3946
  208MOL0     H28036  -0.383   5.448   5.119 -1.1029  0.7478  0.5109
  208MOL0     H28037  -0.391   5.383   4.956 -1.0495  0.5249  0.4786
  208MOL0     H28038  -0.325   5.602   4.858 -0.3125 -2.4814 -0.2340
  208MOL0     H28039  -0.358   5.677   5.018  0.4108  0.4903  0.4115
  208MOL0     H28040  -0.428   5.849   4.932 -1.6250  1.5667  1.7011
  208MOL0     H28041  -0.525   6.151   4.803 -1.1062 -0.0984  1.5249
  208MOL0     H28042  -0.486   6.096   4.965  1.6800  1.6055 -0.3495
  208MOL0     H28043  -0.375   6.053   4.847  1.2252  4.3568 -3.8471
  208MOL0     H28044  -1.169   6.024   4.711  1.0658 -0.9882  1.9704
  208MOL0     H28045  -1.324   6.224   4.637 -1.2112  0.7667 -1.2515
  208MOL0     H28046  -1.466   6.351   4.485 -0.0928  1.0534 -2.2781
  208MOL0     H28047  -1.402   6.422   4.631 -0.8660 -0.6469  0.0045
  208MOL0     H28048  -1.372   6.646   4.507 -0.8882  0.4666  1.8585
  208MOL0     H28049  -1.448   6.572   4.367 -0.1354 -1.1463 -0.1346
  208MOL0     H28050  -1.632   6.674   4.450 -2.1489 -0.2416  0.8177
  208MOL0     H28051  -1.579   6.646   4.619 -0.5580  1.5035  0.0442
  208MOL0     H28052  -1.702   6.449   4.411 -0.2105 -0.0477 -0.3068
  208MOL0     H28053  -1.656   6.399   4.575 -1.3219 -0.9016 -1.1543
  208MOL0     H28054  -1.865   6.616   4.505  0.0761  2.6876  2.1620
  208MOL0     H28055  -1.830   6.565   4.671 -1.7802  1.2561 -0.6307
  208MOL0     H28056  -1.923   6.398   4.435  0.2791 -1.8740  0.2038
  208MOL0     H28057  -1.922   6.344   4.605 -0.9012  1.0525  1.5892
  208MOL0     H28058  -2.099   6.571   4.521 -0.3678 -2.2616 -2.5710
  208MOL0     H28059  -2.088   6.477   4.682  1.8558 -1.5764  0.6725
  208MOL0     H28060  -2.287   6.410   4.595 -0.3604 -1.7088  0.8113
  208MOL0     H28061  -2.161   6.283   4.563 -0.4652 -0.8565 -2.2441
  208MOL0     H28062  -0.996   6.392   4.419  0.6592 -1.3838  0.0772
  208MOL0     H28063  -0.850   6.242   4.506 -0.4896  1.1722 -0.7830
  208MOL0     H28064  -0.862   5.788   4.734  0.1451  0.6608 -0.4953
  208MOL0     H28065  -0.728   5.590   4.798  0.3445 -0.4190 -2.4721
  208MOL0     H28066   1.097   5.606   4.663 -0.0402 -0.9822 -0.2892
  208MOL0     H28067   1.318   5.687   4.724 -1.9685 -0.2906 -1.8987
  208MOL0     H28068   1.724   5.492   5.126  1.9481 -2.2680  0.0699
  208MOL0     H28069   1.974   5.515   5.153 -1.8975 -0.2339  1.3476
  208MOL0     H28070   2.305   5.436   4.934 -0.4539  0.6584  1.5190
  208MOL0     H28071   2.185   5.428   4.809  1.6905 -0.4088  0.6620
  208MOL0     H28072   2.214   5.651   4.738 -2.0498 -2.3896 -0.2339
  208MOL0     H28073   2.365   5.557   4.747 -2.4715 -0.4597 -1.2979
  208MOL0     H28074   2.408   5.666   4.970  1.6788  0.1369 -0.4274
  208MOL0     H28075   2.264   5.767   4.957 -0.7675 -0.3089 -0.6295
  208MOL0     H28076   2.392   5.874   4.746 -0.3742  0.7704  0.6931
  208MOL0     H28077   2.536   5.789   4.819  0.8060 -0.7758  1.7784
  208MOL0     H28078   2.433   6.130   5.051 -0.1714 -1.0550  1.9714
  208MOL0     H28079   2.012   5.595   4.736 -0.5293  1.0315 -0.2232
  208MOL0     H28080   1.755   5.565   4.716  4.0681  2.1064 -3.3969
  209MOL0     O28081   3.658   4.458   9.063  0.0917  0.4257 -0.0134
  209MOL0     C28082   3.695   4.562   9.006  0.3241 -0.1829  0.5111
  209MOL0     O28083   3.701   4.687   9.057 -0.2910 -0.3460  0.1616
  209MOL0     C28084   3.641   4.718   9.175 -0.0475 -0.4207  0.2298
  209MOL0     C28085   3.524   4.651   9.223  0.2144 -0.0535 -0.2219
  209MOL0     C28086   3.478   4.682   9.353  0.3830  0.4565  0.4450
  209MOL0     C28087   3.548   4.778   9.427  0.7087  0.1478 -0.1183
  209MOL0     O28088   3.489   4.803   9.549 -0.5181 -0.0180 -0.6094
  209MOL0     C28089   3.497   4.937   9.594 -0.8277 -0.9940  0.1066
  209MOL0     C28090   3.445   4.951   9.735  0.1044  0.5047 -0.5577
  209MOL0     C28091   3.548   4.890   9.839  0.7937  0.3219 -0.1516
  209MOL0     C28092   3.499   4.922   9.978  0.5952 -0.0664  0.5743
  209MOL0     C28093   3.564   4.844  10.078 -0.7481 -0.4725 -0.0181
  209MOL0     C28094   3.529   4.696  10.073 -0.2441  1.2258 -0.0336
  209MOL0     C28095   3.562   4.624  10.200  0.7263 -0.6081 -0.5788
  209MOL0     C28096   3.570   4.470  10.194  0.8286  0.0916  0.2750
  209MOL0     N28097   3.441   4.414  10.160 -0.4873  0.0429 -0.0976
  209MOL0     C28098   3.337   4.384  10.250  0.2734  0.5040 -0.0316
  209MOL0     C28099   3.248   4.312  10.186  0.0093  0.5512  0.6734
  209MOL0     C28100   3.130   4.239  10.248 -0.4055  0.2227  0.1497
  209MOL0     C28101   3.165   4.102  10.295  0.7042 -0.4786  0.6798
  209MOL0     C28102   3.042   4.017  10.328  0.4172 -0.2139  0.3770
  209MOL0     C28103   2.947   4.094  10.419 -0.2987  0.3218  0.3200
  209MOL0     O28104   2.844   4.010  10.467 -0.5254  0.1948  0.1950
  209MOL0     C28105   2.733   4.011  10.386 -0.1414  0.2213  0.4987
  209MOL0     C28106   2.630   4.103  10.401  0.4936 -0.4669 -0.6754
  209MOL0     C28107   2.507   4.091  10.338  0.0542 -0.0486 -1.1218
  209MOL0     C28108   2.402   4.199  10.368  0.2813  0.4119 -0.0050
  209MOL0     C28109   2.491   3.988  10.242 -0.1348 -0.4185 -0.5683
  209MOL0     C28110   2.375   3.975  10.162 -0.3708 -0.3383  0.8571
  209MOL0     O28111   2.348   4.076  10.073  0.5026 -0.2441  0.7460
  209MOL0     C28112   2.216   4.088  10.025 -0.9261 -0.1903 -0.5442
  209MOL0     C28113   2.105   4.120  10.102  0.4555  0.6771 -0.6201
  209MOL0     C28114   1.976   4.140  10.053 -0.0550 -0.6198 -0.4792
  209MOL0     C28115   1.955   4.137   9.920 -0.4675 -0.6599  0.3023
  209MOL0     O28116   1.840   4.166   9.855 -0.3524  0.2331 -0.5608
  209MOL0     C28117   1.747   4.056   9.839 -0.8803  0.1659  0.0669
  209MOL0     C28118   1.667   4.070   9.709 -0.1703  0.6785 -0.7108
  209MOL0     C28119   1.566   3.952   9.715 -0.3606 -0.5089 -0.8517
  209MOL0     C28120   1.451   3.974   9.613  0.0751  1.1285  0.0919
  209MOL0     C28121   1.321   3.892   9.648  0.3321  0.6046  0.3358
  209MOL0     C28122   1.356   3.744   9.672  0.5074 -0.3905 -0.0514
  209MOL0     C28123   1.234   3.658   9.688  0.2922  1.0861 -0.3333
  209MOL0     C28124   1.229   3.573   9.818  0.5769 -0.3757 -0.8781
  209MOL0    Cl28125   1.099   3.457   9.801  0.0525 -0.0903 -0.1498
  209MOL0     C28126   2.067   4.106   9.830  0.4592  0.1030 -0.2888
  209MOL0     C28127   2.199   4.083   9.886  0.0629 -0.7572  0.1846
  209MOL0     O28128   2.315   3.869  10.159  0.3431 -0.2681 -0.2765
  209MOL0     C28129   2.587   3.886  10.236 -0.0519  0.7073  0.8992
  209MOL0     C28130   2.710   3.899  10.303 -0.3149 -0.2363 -0.3539
  209MOL0     N28131   3.309   4.280  10.070  0.8645 -0.9455  0.3873
  209MOL0     N28132   3.420   4.344  10.048  0.0304 -0.7792 -0.2903
  209MOL0     C28133   3.658   4.846   9.372 -0.5416  0.4522 -0.2999
  209MOL0     C28134   3.703   4.814   9.245 -0.1626  0.0969  0.1073
  209MOL0     C28135   3.743   4.552   8.869  0.7676  0.0811 -0.0313
  209MOL0     C28136   3.727   4.658   8.770  0.0881  1.0798  0.2440
  209MOL0     C28137   3.787   4.646   8.641 -0.0162 -0.1867 -0.1064
  209MOL0     C28138   3.841   4.526   8.600 -0.5444 -0.1668  0.5170
  209MOL0     O28139   3.890   4.518   8.474  0.0506  0.4597 -0.2090
  209MOL0     C28140   4.015   4.590   8.455 -0.2690 -0.9086 -0.0026
  209MOL0     C28141   4.127   4.507   8.520  0.1269  0.5346  0.0235
  209MOL0     C28142   4.149   4.374   8.441 -0.0556  0.3345  1.1745
  209MOL0     C28143   4.251   4.281   8.513  0.3565  0.9180 -0.4578
  209MOL0     C28144   4.385   4.342   8.508 -0.9998 -0.1521  0.5423
  209MOL0     C28145   4.494   4.382   8.481 -0.0509 -0.0748  0.7157
  209MOL0     C28146   3.834   4.417   8.679 -0.0809  0.7691 -0.4435
  209MOL0     C28147   3.794   4.434   8.816  0.3141 -0.2102  0.0144
  209MOL0     H28148   3.473   4.567   9.178  1.6037 -1.0588  0.0299
  209MOL0     H28149   3.397   4.623   9.395  1.0971 -1.0713 -0.2679
  209MOL0     H28150   3.602   4.967   9.599 -0.8677 -0.8997  0.3714
  209MOL0     H28151   3.437   5.011   9.540 -2.8943 -0.3377  3.0537
  209MOL0     H28152   3.439   5.057   9.763  1.2831 -0.3314  3.4771
  209MOL0     H28153   3.350   4.896   9.739 -1.3483  2.9164  0.7628
  209MOL0     H28154   3.564   4.783   9.825  1.3656  0.0159  2.2826
  209MOL0     H28155   3.643   4.940   9.818  0.2790  1.3076 -0.2135
  209MOL0     H28156   3.517   5.030   9.985  1.8075 -0.2271  0.1307
  209MOL0     H28157   3.392   4.898   9.983  0.4752  0.3790  0.2258
  209MOL0     H28158   3.671   4.844  10.055 -1.5940 -1.2173 -5.1688
  209MOL0     H28159   3.535   4.889  10.174 -1.3588 -0.6582 -0.1120
  209MOL0     H28160   3.422   4.689  10.048 -0.0056 -0.6418 -0.7284
  209MOL0     H28161   3.568   4.644   9.984 -1.0761 -1.9717  1.3257
  209MOL0     H28162   3.655   4.668  10.238 -2.0384  2.6833  3.1852
  209MOL0     H28163   3.480   4.645  10.270  1.3472 -2.4976  0.7832
  209MOL0     H28164   3.599   4.435  10.294 -0.8029 -0.0801  0.7062
  209MOL0     H28165   3.650   4.444  10.123  2.4918  2.4886  1.1375
  209MOL0     H28166   3.310   4.425  10.347  1.9200  0.3508  0.5207
  209MOL0     H28167   3.103   4.302  10.334  2.9970  0.3067  1.3050
  209MOL0     H28168   3.047   4.235  10.178 -1.4423  1.0314  1.2930
  209MOL0     H28169   3.211   4.131  10.390 -3.3248  2.4328  2.0235
  209MOL0     H28170   3.236   4.049  10.231  0.5903  2.0361 -1.7180
  209MOL0     H28171   3.075   3.934  10.393  3.2340  1.1567  0.8848
  209MOL0     H28172   2.992   3.977  10.240  1.2822 -0.2791 -0.0965
  209MOL0     H28173   2.899   4.175  10.363 -1.1006 -0.5470 -0.2849
  209MOL0     H28174   3.005   4.144  10.497  2.6313 -0.1936 -1.3927
  209MOL0     H28175   2.633   4.196  10.456  1.1966  0.3005 -1.9598
  209MOL0     H28176   2.301   4.158  10.376 -1.8251  4.7759 -0.6927
  209MOL0     H28177   2.417   4.257  10.460 -0.9522 -0.8099  1.0035
  209MOL0     H28178   2.404   4.267  10.282  0.9652 -0.3467 -0.5995
  209MOL0     H28179   2.111   4.120  10.211  0.9661 -0.7374 -0.6342
  209MOL0     H28180   1.901   4.179  10.121  0.0651  1.0690 -1.2740
  209MOL0     H28181   1.806   3.964   9.834  1.2523  1.4170  0.9530
  209MOL0     H28182   1.673   4.056   9.919 -0.3057 -1.3223  0.6453
  209MOL0     H28183   1.611   4.161   9.730  0.1858  0.6576  0.3912
  209MOL0     H28184   1.738   4.081   9.627  0.2850 -0.5390 -0.5052
  209MOL0     H28185   1.524   3.940   9.816  1.8180  0.0673  0.1779
  209MOL0     H28186   1.622   3.863   9.686  1.5039 -0.7506  2.9424
  209MOL0     H28187   1.414   4.076   9.604 -0.4136  0.8957 -0.6633
  209MOL0     H28188   1.496   3.953   9.516  0.2691  0.6862  0.2727
  209MOL0     H28189   1.257   3.904   9.560  1.7032 -4.9859 -1.8839
  209MOL0     H28190   1.268   3.931   9.735  0.2581 -1.7716  1.4495
  209MOL0     H28191   1.402   3.714   9.577 -0.2106 -0.4587 -0.3915
  209MOL0     H28192   1.428   3.732   9.753  1.0738 -0.9776 -0.6206
  209MOL0     H28193   1.230   3.597   9.598 -1.8884  2.9921 -1.6253
  209MOL0     H28194   1.140   3.712   9.682 -0.2868 -0.0793 -3.3842
  209MOL0     H28195   1.204   3.644   9.898 -0.4655 -0.3284 -1.2289
  209MOL0     H28196   1.323   3.523   9.843  1.5593  1.4695 -0.7259
  209MOL0     H28197   2.053   4.102   9.723 -1.7461  4.5455 -0.4007
  209MOL0     H28198   2.286   4.063   9.825 -1.0199 -1.8039 -1.0936
  209MOL0     H28199   2.579   3.797  10.175  1.8722  1.6841 -0.9028
  209MOL0     H28200   2.788   3.831  10.268  0.2686 -0.5669  1.4865
  209MOL0     H28201   3.706   4.912   9.444  0.7975  0.2586 -0.9896
  209MOL0     H28202   3.779   4.876   9.199 -0.6988  1.9551  1.6062
  209MOL0     H28203   3.677   4.746   8.809  0.3058  2.1748 -1.8037
  209MOL0     H28204   3.776   4.738   8.585  1.7575  1.1948  1.6677
  209MOL0     H28205   4.031   4.594   8.347 -0.1194  0.2647  0.0494
  209MOL0     H28206   4.014   4.691   8.498 -1.3455 -0.8926 -0.0466
  209MOL0     H28207   4.112   4.489   8.627  0.3459  3.1128  0.5466
  209MOL0     H28208   4.216   4.570   8.513  0.0880  0.7944  1.4921
  209MOL0     H28209   4.197   4.387   8.343  2.3799  0.6922  2.3575
  209MOL0     H28210   4.052   4.328   8.417 -0.0954  1.2897 -0.6912
  209MOL0     H28211   4.239   4.177   8.480  0.4499  0.6379  0.3850
  209MOL0     H28212   4.227   4.279   8.619  1.2884  0.3362 -0.2509
  209MOL0     H28213   4.593   4.416   8.456 -0.1106 -0.5133 -0.1430
  209MOL0     H28214   3.864   4.320   8.641  0.8522  0.5269  0.8441
  209MOL0     H28215   3.809   4.353   8.887  2.2360  1.0577  1.1342
  210MOL0     O28216   2.900  10.238   1.762 -0.1417 -0.0690 -0.0649
  210MOL0     C28217   2.930  10.274   1.875 -1.0984 -0.0313  1.1236
  210MOL0     O28218   2.844  10.256   1.981  0.7898 -0.0138 -0.2195
  210MOL0     C28219   2.758  10.154   1.985  0.4114  0.7311  0.0035
  210MOL0     C28220   2.815  10.021   1.987  0.8282  0.0449  0.1255
  210MOL0     C28221   2.734   9.909   1.975  0.2323 -0.3326  0.0519
  210MOL0     C28222   2.593   9.916   1.978  0.0477  0.5941 -0.5448
  210MOL0     O28223   2.521   9.798   1.965  0.2288 -0.0742 -0.5568
  210MOL0     C28224   2.379   9.804   1.941  0.5395 -0.0318  0.3305
  210MOL0     C28225   2.319   9.656   1.950 -0.2643  1.1164  0.2531
  210MOL0     C28226   2.163   9.667   1.960  0.4056 -0.0257  0.7008
  210MOL0     C28227   2.087   9.665   1.829 -0.3442 -0.7140  0.2545
  210MOL0     C28228   1.948   9.730   1.809 -0.2011  0.7702 -0.0927
  210MOL0     C28229   1.906   9.725   1.657  0.6136 -0.1088 -0.5697
  210MOL0     C28230   1.856   9.587   1.600 -0.5833  0.6083 -0.1196
  210MOL0     C28231   1.731   9.521   1.659 -0.4271 -0.7922 -0.1591
  210MOL0     N28232   1.610   9.542   1.578  0.0490 -0.9355 -1.0213
  210MOL0     C28233   1.537   9.660   1.570 -0.4797 -0.1991  0.1674
  210MOL0     C28234   1.446   9.627   1.475  0.2572 -0.0129  0.5658
  210MOL0     C28235   1.323   9.711   1.448 -0.4152  0.0281 -0.6210
  210MOL0     C28236   1.229   9.721   1.570 -0.2779  0.1608 -0.7148
  210MOL0     C28237   1.155   9.586   1.593 -0.3151  0.8845 -0.0209
  210MOL0     C28238   1.245   9.486   1.667  1.0824  0.3873  0.0747
  210MOL0     O28239   1.170   9.369   1.725  0.3054 -0.4928 -0.3601
  210MOL0     C28240   1.063   9.406   1.810  0.7305 -0.6671  1.0182
  210MOL0     C28241   1.060   9.523   1.892 -0.2673 -0.9326  1.1642
  210MOL0     C28242   0.951   9.553   1.974 -0.7296 -0.5846 -0.0063
  210MOL0     C28243   0.951   9.677   2.052 -0.1367 -0.8549  0.6899
  210MOL0     C28244   0.838   9.474   1.961  0.4965  0.1846 -0.1302
  210MOL0     C28245   0.704   9.493   2.032  0.0627  0.2222  1.2120
  210MOL0     O28246   0.586   9.471   1.957 -0.2800  0.0444  0.5723
  210MOL0     C28247   0.471   9.444   2.027 -0.5273 -0.2528 -0.3460
  210MOL0     C28248   0.444   9.347   2.124 -0.3874 -0.1699 -0.5940
  210MOL0     C28249   0.324   9.332   2.192  0.7006 -0.1195  0.1202
  210MOL0     C28250   0.222   9.415   2.153  1.4593  0.0130 -0.1594
  210MOL0     O28251   0.101   9.380   2.215 -0.6576  0.0784  0.3080
  210MOL0     C28252  -0.015   9.448   2.177 -0.4348  0.1624  0.4309
  210MOL0     C28253  -0.130   9.361   2.221  0.4351 -0.6644 -0.2247
  210MOL0     C28254  -0.268   9.422   2.171  0.0934 -1.1776 -0.9933
  210MOL0     C28255  -0.384   9.337   2.217  0.3404  0.4423  0.0269
  210MOL0     C28256  -0.518   9.406   2.197  0.1491 -0.3487 -0.1159
  210MOL0     C28257  -0.646   9.313   2.214  0.5508 -0.5699 -0.0246
  210MOL0     C28258  -0.664   9.268   2.364 -0.0877 -0.2009 -0.1645
  210MOL0     C28259  -0.721   9.378   2.454  0.9420 -0.0665  0.3126
  210MOL0    Cl28260  -0.887   9.417   2.413 -0.2056 -0.0802  0.2892
  210MOL0     C28261   0.232   9.508   2.052  0.2250  0.7367  0.5085
  210MOL0     C28262   0.364   9.529   1.998 -0.5136 -0.7141  0.0326
  210MOL0     O28263   0.695   9.541   2.144 -0.2497 -0.7468 -0.8219
  210MOL0     C28264   0.838   9.362   1.875 -0.0115  0.4551  0.1064
  210MOL0     C28265   0.950   9.324   1.810  0.3011  0.0863  0.6735
  210MOL0     N28266   1.470   9.503   1.419 -0.7042  0.6225 -0.5913
  210MOL0     N28267   1.573   9.453   1.481  0.1267  0.1527 -0.1183
  210MOL0     C28268   2.533  10.049   1.973 -0.5083 -0.0562 -0.2385
  210MOL0     C28269   2.616  10.163   1.969  0.5814  0.4245  0.3389
  210MOL0     C28270   3.054  10.345   1.905 -0.2111  0.6462  0.0116
  210MOL0     C28271   3.147  10.366   1.806  0.4563  1.5408  0.2020
  210MOL0     C28272   3.262  10.439   1.825 -0.4529  0.4048 -0.1765
  210MOL0     C28273   3.273  10.515   1.944  0.3505 -0.2326 -0.3755
  210MOL0     O28274   3.369  10.607   1.979  0.2419  0.3686 -0.4608
  210MOL0     C28275   3.494  10.605   1.915 -0.1808  0.2985 -0.2473
  210MOL0     C28276   3.516  10.735   1.826 -0.0272 -0.2457 -0.1938
  210MOL0     C28277   3.633  10.729   1.736 -1.4202 -1.1612  0.0159
  210MOL0     C28278   3.767  10.695   1.809  0.0607 -0.1429 -0.1917
  210MOL0     C28279   3.875  10.781   1.749  0.5578 -1.0192  0.2328
  210MOL0     C28280   3.960  10.846   1.695  0.0616  0.3696 -0.0884
  210MOL0     C28281   3.174  10.489   2.042 -0.3928 -0.6568 -0.0477
  210MOL0     C28282   3.066  10.410   2.023 -0.1839  0.4366  0.2622
  210MOL0     H28283   2.923  10.011   1.989  0.8371  0.2592  1.1806
  210MOL0     H28284   2.770   9.808   1.958  2.0429  0.1673  0.6927
  210MOL0     H28285   2.336   9.867   2.020  0.6275 -2.6116  2.5736
  210MOL0     H28286   2.353   9.841   1.842 -0.4706 -2.3149 -0.3175
  210MOL0     H28287   2.351   9.586   1.873  1.4435 -0.8971  2.6224
  210MOL0     H28288   2.368   9.611   2.037 -0.8491  0.9902  0.5206
  210MOL0     H28289   2.129   9.578   2.015  1.5800 -0.2377  1.1146
  210MOL0     H28290   2.138   9.758   2.015  3.5144  2.2155 -1.3404
  210MOL0     H28291   2.155   9.715   1.760  0.0850 -0.6086  0.7550
  210MOL0     H28292   2.081   9.562   1.792 -1.9503 -0.2758 -0.8237
  210MOL0     H28293   1.879   9.678   1.876 -1.0301  2.0071  0.0380
  210MOL0     H28294   1.965   9.831   1.847  2.8935  0.1195  0.5433
  210MOL0     H28295   1.815   9.787   1.657  0.5533 -0.1624 -2.3989
  210MOL0     H28296   1.984   9.763   1.592  0.7622 -3.1617 -2.3849
  210MOL0     H28297   1.843   9.599   1.492 -1.9269  0.4042  0.0095
  210MOL0     H28298   1.941   9.519   1.616 -0.9121  0.4048  0.8232
  210MOL0     H28299   1.711   9.547   1.763  1.0214 -1.2228  0.2449
  210MOL0     H28300   1.743   9.413   1.652  0.4420 -0.7266  0.1876
  210MOL0     H28301   1.550   9.749   1.631  3.4057 -0.3962 -0.1255
  210MOL0     H28302   1.354   9.807   1.406 -0.2690  0.5823  0.7005
  210MOL0     H28303   1.265   9.651   1.377  1.0552 -0.2104 -1.6563
  210MOL0     H28304   1.150   9.796   1.565 -1.6643 -0.8957  2.6772
  210MOL0     H28305   1.287   9.743   1.659  2.7170 -0.6392 -2.3152
  210MOL0     H28306   1.124   9.540   1.499  0.2319 -1.2966  0.8002
  210MOL0     H28307   1.057   9.598   1.641 -1.5119 -0.1307 -2.0610
  210MOL0     H28308   1.297   9.539   1.747 -0.6420  0.6697  1.0553
  210MOL0     H28309   1.323   9.464   1.593 -0.3081  2.1077 -2.0483
  210MOL0     H28310   1.139   9.597   1.890 -1.1004 -0.0099 -1.3556
  210MOL0     H28311   1.046   9.729   2.040  1.6434 -3.8439  0.7421
  210MOL0     H28312   0.869   9.744   2.024  0.0534 -0.6585  0.5996
  210MOL0     H28313   0.930   9.664   2.158  0.4440  1.8382  1.2137
  210MOL0     H28314   0.515   9.270   2.153 -1.9201 -1.5338 -0.3011
  210MOL0     H28315   0.295   9.248   2.255 -1.2148 -1.5834 -2.4998
  210MOL0     H28316  -0.009   9.552   2.209 -2.6676  0.7049 -0.7662
  210MOL0     H28317  -0.026   9.446   2.068 -4.3849  0.6418  0.6651
  210MOL0     H28318  -0.121   9.265   2.170  1.7473  0.4354 -2.2239
  210MOL0     H28319  -0.138   9.351   2.330  1.0043 -0.5076 -0.1615
  210MOL0     H28320  -0.271   9.454   2.066 -1.4009  1.8125 -0.1415
  210MOL0     H28321  -0.279   9.515   2.227 -1.9778 -3.4829  2.8448
  210MOL0     H28322  -0.388   9.246   2.155 -2.3293  0.0840  0.6001
  210MOL0     H28323  -0.368   9.301   2.319  0.2484  0.2666 -0.0205
  210MOL0     H28324  -0.534   9.450   2.098 -0.7024 -1.5632 -0.5494
  210MOL0     H28325  -0.521   9.483   2.275  1.0351 -2.3546  2.0177
  210MOL0     H28326  -0.728   9.376   2.178  0.0912 -0.5510  1.0528
  210MOL0     H28327  -0.636   9.226   2.148 -1.7106 -1.2746  0.4803
  210MOL0     H28328  -0.566   9.235   2.400 -0.4393 -2.0350 -0.7693
  210MOL0     H28329  -0.742   9.192   2.370 -1.7139  1.2769 -1.5848
  210MOL0     H28330  -0.665   9.471   2.445  0.3524  0.2314 -0.3255
  210MOL0     H28331  -0.726   9.338   2.556  2.6340  2.8299  1.6425
  210MOL0     H28332   0.147   9.565   2.015 -1.2321 -1.8772 -0.4381
  210MOL0     H28333   0.378   9.605   1.921 -0.0728 -0.3480  0.4737
  210MOL0     H28334   0.752   9.294   1.879  0.7467 -0.4771  1.4729
  210MOL0     H28335   0.955   9.233   1.752 -0.5574  0.5618 -0.1859
  210MOL0     H28336   2.425  10.062   1.977 -0.8554 -2.5786  3.0815
  210MOL0     H28337   2.569  10.261   1.962  0.2455  0.2049 -0.7555
  210MOL0     H28338   3.147  10.319   1.708 -1.4293  4.2412 -1.2186
  210MOL0     H28339   3.343  10.438   1.753  0.1120 -2.4677  0.3644
  210MOL0     H28340   3.574  10.609   1.989  2.0210  1.6901 -2.5262
  210MOL0     H28341   3.519  10.519   1.853  0.5495 -0.2174  0.7397
  210MOL0     H28342   3.516  10.821   1.895 -3.1831 -0.1519 -0.1487
  210MOL0     H28343   3.427  10.734   1.763  1.3821 -3.9247 -2.4085
  210MOL0     H28344   3.645  10.828   1.692  2.3239 -2.2785 -1.8692
  210MOL0     H28345   3.623  10.663   1.649 -1.6428  0.5329 -1.2764
  210MOL0     H28346   3.777  10.586   1.802  1.3597  0.0001 -0.7638
  210MOL0     H28347   3.770  10.711   1.917 -0.6173  0.7052 -0.2777
  210MOL0     H28348   4.048  10.891   1.654 -0.4125  0.1547 -1.3785
  210MOL0     H28349   3.191  10.537   2.138  1.2013 -0.8324 -0.2227
  210MOL0     H28350   2.995  10.404   2.105  2.8214 -2.2347  2.9159
  211MOL0     O28351   5.623   9.999   4.363  0.2321  0.3204 -0.2155
  211MOL0     C28352   5.689   9.912   4.420 -0.2158 -0.5613 -1.1849
  211MOL0     O28353   5.688   9.773   4.401  0.5374 -0.8908  0.0863
  211MOL0     C28354   5.613   9.718   4.301  0.3324  0.0299 -0.1185
  211MOL0     C28355   5.556   9.595   4.307 -0.4644  0.0857 -0.5229
  211MOL0     C28356   5.485   9.530   4.203  0.3268  0.0160 -0.9115
  211MOL0     C28357   5.452   9.604   4.084  0.1473  0.1956  0.4460
  211MOL0     O28358   5.391   9.555   3.968 -0.1227  0.1703  0.0869
  211MOL0     C28359   5.263   9.488   3.997 -0.7946  0.1714 -0.9945
  211MOL0     C28360   5.146   9.581   4.040  0.0954 -0.3351  0.4489
  211MOL0     C28361   5.030   9.512   4.077  0.7599  0.3990  0.5252
  211MOL0     C28362   4.923   9.509   3.966  0.8795  0.3721 -0.0400
  211MOL0     C28363   4.810   9.409   3.990  0.6924  0.0277 -0.0301
  211MOL0     C28364   4.716   9.456   4.103  0.2740 -0.2518  0.6485
  211MOL0     C28365   4.596   9.370   4.124  0.5151 -0.1938  0.4889
  211MOL0     C28366   4.485   9.430   4.212 -0.1165  0.2457  0.0894
  211MOL0     N28367   4.423   9.557   4.171  0.9592 -0.3656 -0.2797
  211MOL0     C28368   4.310   9.569   4.095 -0.1316  0.7158 -1.3586
  211MOL0     C28369   4.286   9.701   4.090 -0.7564 -0.5700 -0.1549
  211MOL0     C28370   4.185   9.783   4.006  0.4731 -0.0323 -0.2796
  211MOL0     C28371   4.060   9.813   4.067  0.5130 -0.3643 -0.0939
  211MOL0     C28372   3.951   9.878   3.969  0.3076 -0.3931  0.6710
  211MOL0     C28373   3.808   9.877   4.031  0.3229 -0.2311  0.6637
  211MOL0     O28374   3.727   9.969   3.950 -0.4663  0.3897 -0.6323
  211MOL0     C28375   3.591   9.972   3.968  0.4556  0.6848 -0.6099
  211MOL0     C28376   3.524   9.920   4.084  0.3151 -0.1132 -0.2524
  211MOL0     C28377   3.382   9.925   4.100  0.5339  0.6963  0.4302
  211MOL0     C28378   3.312   9.858   4.218 -0.3000 -0.3236  0.0743
  211MOL0     C28379   3.313   9.978   3.990  0.1867 -0.4818 -0.1233
  211MOL0     C28380   3.165   9.988   3.976 -0.3413 -0.6515 -0.1289
  211MOL0     O28381   3.105  10.007   3.860 -0.0481 -0.2575  0.2610
  211MOL0     C28382   2.983  10.068   3.859 -0.0312 -0.2426 -0.1083
  211MOL0     C28383   2.874   9.992   3.881  0.8723 -0.5334  0.1909
  211MOL0     C28384   2.739  10.043   3.875 -0.6679 -0.5979 -1.1337
  211MOL0     C28385   2.718  10.173   3.845  0.3034  0.2185  0.0419
  211MOL0     O28386   2.595  10.231   3.839 -0.2212  0.0418 -0.2844
  211MOL0     C28387   2.477  10.152   3.825  0.6396 -0.2156  0.5202
  211MOL0     C28388   2.352  10.231   3.860 -0.4200 -1.0627 -0.0863
  211MOL0     C28389   2.316  10.324   3.737  0.7841 -0.5339  0.3099
  211MOL0     C28390   2.202  10.262   3.655  0.3800  0.3132  0.3800
  211MOL0     C28391   2.167  10.335   3.526  0.4225 -0.6080 -0.2794
  211MOL0     C28392   2.047  10.263   3.452 -0.3943 -0.2472  0.4415
  211MOL0     C28393   1.917  10.271   3.528 -0.0392  0.1511  0.0267
  211MOL0     C28394   1.803  10.216   3.441  0.5701 -0.1538  0.3249
  211MOL0    Cl28395   1.651  10.237   3.532 -0.3525 -0.3266 -0.4836
  211MOL0     C28396   2.820  10.257   3.805 -0.1976 -0.0378 -0.1986
  211MOL0     C28397   2.954  10.206   3.815 -0.0957  0.7035 -0.2596
  211MOL0     O28398   3.117  10.002   4.087  0.6317 -0.0344  0.0844
  211MOL0     C28399   3.380  10.030   3.876  0.0816  0.8377 -0.0884
  211MOL0     C28400   3.513  10.021   3.871  0.1709  0.0420 -0.1482
  211MOL0     N28401   4.396   9.766   4.149 -0.2279  0.0175 -1.1760
  211MOL0     N28402   4.477   9.683   4.193 -0.5055  0.6067  0.8498
  211MOL0     C28403   5.510   9.725   4.069  0.0822 -1.0149  0.3785
  211MOL0     C28404   5.587   9.785   4.178  0.0468 -0.5624  0.6151
  211MOL0     C28405   5.788   9.966   4.513  0.3054  0.1219  0.3733
  211MOL0     C28406   5.779  10.099   4.577  0.3668 -0.3529 -0.0406
  211MOL0     C28407   5.860  10.130   4.684  0.4258 -0.2878 -0.9475
  211MOL0     C28408   5.944  10.036   4.740 -1.3246 -0.1998  0.6006
  211MOL0     O28409   6.036  10.073   4.833  0.0488  0.2123 -0.3381
  211MOL0     C28410   6.051  10.201   4.888  0.4660 -0.6017  0.2643
  211MOL0     C28411   5.944  10.226   4.999  0.0604 -1.5879  0.5524
  211MOL0     C28412   5.960  10.378   5.032  0.3065 -0.4037  0.0422
  211MOL0     C28413   5.866  10.430   5.148  1.0281 -0.7058 -0.3361
  211MOL0     C28414   5.885  10.576   5.167 -0.8164  0.7516 -0.1218
  211MOL0     C28415   5.887  10.700   5.184  0.4662  0.2360 -0.3091
  211MOL0     C28416   5.959   9.912   4.676 -0.2688  0.3299 -0.3166
  211MOL0     C28417   5.886   9.876   4.557 -0.4092 -0.6408  0.3025
  211MOL0     H28418   5.572   9.532   4.394 -1.8676  2.4786  1.6487
  211MOL0     H28419   5.442   9.432   4.220 -1.1301  0.6180 -1.0053
  211MOL0     H28420   5.246   9.448   3.898 -0.3165 -1.5086 -0.4259
  211MOL0     H28421   5.284   9.415   4.076  1.9393  1.1568 -0.6902
  211MOL0     H28422   5.166   9.649   4.124  1.1219 -0.8560  0.6439
  211MOL0     H28423   5.127   9.646   3.954 -2.3517 -2.0155 -0.3536
  211MOL0     H28424   5.055   9.408   4.102  1.2707  0.4932  0.4168
  211MOL0     H28425   4.984   9.550   4.168  0.3342 -2.0135  1.4093
  211MOL0     H28426   4.874   9.607   3.967 -0.7621 -0.3745  2.1881
  211MOL0     H28427   4.968   9.486   3.869  1.8824 -0.7394  0.6519
  211MOL0     H28428   4.738   9.401   3.908  0.5752  1.2932 -0.0725
  211MOL0     H28429   4.845   9.309   4.015  1.1853  0.3996  0.8335
  211MOL0     H28430   4.757   9.466   4.204  0.1218  3.3615  0.4815
  211MOL0     H28431   4.683   9.556   4.076 -0.0070 -0.2723  0.9073
  211MOL0     H28432   4.555   9.339   4.027 -1.8803  1.0132  1.0465
  211MOL0     H28433   4.640   9.282   4.171  0.7885  0.5534  1.6540
  211MOL0     H28434   4.534   9.463   4.304  2.6552  0.1116 -1.2326
  211MOL0     H28435   4.414   9.353   4.242  0.1433 -0.6793 -1.5557
  211MOL0     H28436   4.251   9.489   4.052  3.5282 -4.4029  1.9818
  211MOL0     H28437   4.224   9.882   3.980 -2.7956  1.3968 -0.1870
  211MOL0     H28438   4.169   9.733   3.910  1.4280 -0.4380 -0.2388
  211MOL0     H28439   4.076   9.873   4.156  2.3224 -0.5762 -0.2496
  211MOL0     H28440   4.016   9.722   4.111 -1.3661 -0.1641 -1.4179
  211MOL0     H28441   3.939   9.822   3.876 -1.3211  0.6433  0.2201
  211MOL0     H28442   3.981   9.982   3.953  1.0180 -0.7502 -0.4425
  211MOL0     H28443   3.809   9.925   4.128 -2.5641  0.5593  0.4028
  211MOL0     H28444   3.764   9.776   4.026  2.6338 -1.3526 -5.2377
  211MOL0     H28445   3.578   9.877   4.167  0.4110  0.0762 -0.2175
  211MOL0     H28446   3.383   9.802   4.279 -0.6930 -0.4741  0.4004
  211MOL0     H28447   3.276   9.936   4.285  1.3144 -2.0924  3.2008
  211MOL0     H28448   3.230   9.792   4.187 -1.2453  0.2052  1.3589
  211MOL0     H28449   2.893   9.889   3.909 -0.7399 -1.1105 -0.6981
  211MOL0     H28450   2.662   9.975   3.907 -0.3621  0.6483  2.7384
  211MOL0     H28451   2.467  10.107   3.725 -1.3707 -0.3759  0.7528
  211MOL0     H28452   2.482  10.068   3.895  3.1960  0.8361  1.7202
  211MOL0     H28453   2.265  10.165   3.868  0.3498 -2.3575 -1.8344
  211MOL0     H28454   2.364  10.293   3.949 -0.8641 -0.9034 -0.1324
  211MOL0     H28455   2.409  10.334   3.680 -0.0498  1.0125 -0.8528
  211MOL0     H28456   2.282  10.423   3.769 -1.0925 -0.2680 -2.2104
  211MOL0     H28457   2.235  10.162   3.625 -0.0651  1.5112 -5.1805
  211MOL0     H28458   2.114  10.244   3.717  0.2848  1.0334  0.4633
  211MOL0     H28459   2.248  10.350   3.453 -2.2401  1.5991 -3.0876
  211MOL0     H28460   2.124  10.435   3.539 -1.7581 -1.5018 -0.2553
  211MOL0     H28461   2.030  10.306   3.353 -2.1049 -1.7807  0.0055
  211MOL0     H28462   2.072  10.157   3.441 -0.0223 -0.1433  0.2883
  211MOL0     H28463   1.903  10.376   3.557 -0.5006  0.1651 -0.2338
  211MOL0     H28464   1.929  10.220   3.624  2.3287  0.7268  0.0954
  211MOL0     H28465   1.821  10.112   3.414  0.4565  0.3789 -2.0003
  211MOL0     H28466   1.792  10.266   3.345 -0.7385 -0.9054  0.0633
  211MOL0     H28467   2.811  10.356   3.762  1.2735 -0.2108 -0.9602
  211MOL0     H28468   3.034  10.272   3.783  0.0180  0.4881 -0.4227
  211MOL0     H28469   3.322  10.058   3.789 -1.9009 -2.9846 -0.2319
  211MOL0     H28470   3.563  10.049   3.779  0.1233 -1.1742 -0.5635
  211MOL0     H28471   5.493   9.766   3.969 -3.3423 -0.7881  0.9343
  211MOL0     H28472   5.635   9.876   4.141 -0.7588  0.0234  0.9710
  211MOL0     H28473   5.697  10.168   4.560  0.7456 -0.0797 -0.8105
  211MOL0     H28474   5.863  10.233   4.717 -2.9658 -0.1199 -0.8603
  211MOL0     H28475   6.148  10.198   4.938 -0.6919  0.0964  2.6954
  211MOL0     H28476   6.052  10.277   4.810 -4.5668 -0.1849  0.3033
  211MOL0     H28477   5.958  10.158   5.084  0.6545 -3.9024 -1.2861
  211MOL0     H28478   5.840  10.215   4.966 -0.0001 -1.0900  0.5620
  211MOL0     H28479   5.938  10.434   4.941  0.1452  0.0209  0.3341
  211MOL0     H28480   6.059  10.398   5.074 -0.0246 -1.0416  1.1916
  211MOL0     H28481   5.874  10.382   5.246 -4.1194 -0.1317  0.6191
  211MOL0     H28482   5.762  10.404   5.127  0.4462  1.2257 -0.0749
  211MOL0     H28483   5.886  10.805   5.204 -0.5917  0.6330 -2.2225
  211MOL0     H28484   6.042   9.854   4.718  0.6840  2.1722  0.4475
  211MOL0     H28485   5.898   9.780   4.507 -1.0915 -0.6744  0.1881
  212MOL0     O28486   5.051  10.288   3.435  0.1448  0.8261 -0.8890
  212MOL0     C28487   5.121  10.185   3.420  0.0416 -0.7597  0.5555
  212MOL0     O28488   5.070  10.060   3.397 -0.5521 -0.2959 -0.3089
  212MOL0     C28489   4.936  10.053   3.362 -0.1887  0.7190 -0.2144
  212MOL0     C28490   4.902  10.082   3.233 -0.3231  1.2140  0.1155
  212MOL0     C28491   4.774  10.052   3.185 -0.4161 -0.5208 -0.0429
  212MOL0     C28492   4.678   9.993   3.265 -0.7495  0.7340  0.3945
  212MOL0     O28493   4.559   9.951   3.203 -0.7018 -0.0333 -0.1555
  212MOL0     C28494   4.458   9.870   3.259  0.0753  0.3084 -0.0897
  212MOL0     C28495   4.330   9.919   3.186  0.1165  0.0976 -0.0824
  212MOL0     C28496   4.214   9.821   3.224  0.0134  0.2043 -0.5065
  212MOL0     C28497   4.071   9.889   3.195  0.1836 -0.4183  0.6867
  212MOL0     C28498   3.964   9.786   3.236  0.1217 -0.7289  0.0466
  212MOL0     C28499   3.885   9.804   3.365 -0.8352 -0.1955  0.2037
  212MOL0     C28500   3.860   9.680   3.447  0.2315 -0.0537  0.2659
  212MOL0     C28501   3.793   9.712   3.583 -0.2765 -0.2510  0.1123
  212MOL0     N28502   3.648   9.730   3.578 -0.3322  0.7715  0.1970
  212MOL0     C28503   3.560   9.628   3.619  0.6466 -0.4485  0.0880
  212MOL0     C28504   3.445   9.693   3.645 -0.3172 -0.4451 -0.6190
  212MOL0     C28505   3.308   9.642   3.682 -0.1040 -0.4096  0.5904
  212MOL0     C28506   3.203   9.740   3.637  0.2107 -0.3565 -0.4673
  212MOL0     C28507   3.064   9.688   3.675 -0.7816 -0.0066 -0.6471
  212MOL0     C28508   2.951   9.775   3.633 -0.6185 -0.0454  0.4560
  212MOL0     O28509   2.836   9.714   3.686  0.7150  0.2024  1.2103
  212MOL0     C28510   2.708   9.747   3.640  0.4803  0.4766  0.2300
  212MOL0     C28511   2.681   9.871   3.588 -0.0848  0.0664 -0.1603
  212MOL0     C28512   2.559   9.903   3.537  0.4233 -0.6599 -1.5689
  212MOL0     C28513   2.546  10.038   3.476 -0.8799  0.6266 -0.0788
  212MOL0     C28514   2.452   9.804   3.530  0.8180 -0.1312  1.1037
  212MOL0     C28515   2.313   9.831   3.479  0.4736  0.1339 -0.1686
  212MOL0     O28516   2.239   9.719   3.450 -0.3265  0.4687 -0.4795
  212MOL0     C28517   2.123   9.732   3.378 -0.5679  0.2985  0.0870
  212MOL0     C28518   2.068   9.844   3.310  0.4539  0.0013 -0.1350
  212MOL0     C28519   1.940   9.832   3.240  0.1118  0.7792 -0.5879
  212MOL0     C28520   1.876   9.707   3.250 -0.6573 -0.0414  0.1434
  212MOL0     O28521   1.757   9.677   3.192  0.4729  0.4565  0.7003
  212MOL0     C28522   1.701   9.770   3.094  0.7276  0.4023  0.1849
  212MOL0     C28523   1.572   9.708   3.037  0.0106  0.5667 -0.4409
  212MOL0     C28524   1.530   9.746   2.893  0.6162  0.0795 -0.7306
  212MOL0     C28525   1.411   9.650   2.859 -0.3368  0.3973 -0.2184
  212MOL0     C28526   1.357   9.694   2.718  0.1661 -0.4074 -0.6248
  212MOL0     C28527   1.276   9.585   2.653  0.9012 -0.2770 -0.5769
  212MOL0     C28528   1.250   9.584   2.501  0.4939  0.1442 -0.3471
  212MOL0     C28529   1.154   9.687   2.445  0.2590 -0.0005  0.0898
  212MOL0    Cl28530   1.226   9.844   2.462  0.4150  0.0592 -0.1830
  212MOL0     C28531   1.940   9.598   3.314  0.2926 -0.5519  0.1527
  212MOL0     C28532   2.064   9.602   3.369 -0.1038 -0.0484  0.5269
  212MOL0     O28533   2.282   9.943   3.445 -0.9239 -0.8676  0.2898
  212MOL0     C28534   2.492   9.674   3.580  1.6682  0.3289 -0.2206
  212MOL0     C28535   2.616   9.645   3.635  1.2643  0.2183 -0.8011
  212MOL0     N28536   3.458   9.826   3.609 -0.1227  0.5688 -0.6126
  212MOL0     N28537   3.577   9.848   3.566  0.3105 -0.5054 -0.1217
  212MOL0     C28538   4.712   9.965   3.392 -0.5189  0.1819 -0.8235
  212MOL0     C28539   4.839   9.998   3.444  0.3379  0.1413  0.9430
  212MOL0     C28540   5.266  10.207   3.440 -0.1688 -0.4397 -0.9695
  212MOL0     C28541   5.326  10.333   3.473  0.7864  0.0625 -0.7111
  212MOL0     C28542   5.463  10.343   3.492  0.1033 -0.1159 -0.2585
  212MOL0     C28543   5.551  10.231   3.483  0.7627 -1.0695 -0.4779
  212MOL0     O28544   5.684  10.253   3.511  0.3605  0.1557  0.0814
  212MOL0     C28545   5.757  10.144   3.542  0.3416 -0.0623  0.2780
  212MOL0     C28546   5.899  10.201   3.599  1.0730 -0.6943 -0.0612
  212MOL0     C28547   5.990  10.230   3.479 -0.6852 -0.4604 -0.6033
  212MOL0     C28548   6.132  10.248   3.533 -0.9369  0.4265 -0.0307
  212MOL0     C28549   6.148  10.380   3.586  0.1524  0.1155 -0.5572
  212MOL0     C28550   6.172  10.480   3.642 -0.5611  0.9578  0.5684
  212MOL0     C28551   5.487  10.110   3.456  0.4318 -0.1186 -1.1002
  212MOL0     C28552   5.349  10.094   3.429  0.4799  0.3002  0.4829
  212MOL0     H28553   4.982  10.118   3.169  3.4129 -3.6052  1.4961
  212MOL0     H28554   4.756  10.069   3.080 -0.5839 -0.5191 -0.0134
  212MOL0     H28555   4.468   9.762   3.245 -0.9742 -0.2108  2.6303
  212MOL0     H28556   4.440   9.882   3.366  3.1232 -2.7026  0.8946
  212MOL0     H28557   4.301  10.020   3.214 -1.2786 -0.5342  0.9130
  212MOL0     H28558   4.349   9.896   3.081 -0.6837 -1.5727  0.0988
  212MOL0     H28559   4.242   9.726   3.177  3.7113  0.6370  0.5054
  212MOL0     H28560   4.210   9.803   3.332 -0.6614 -2.7122 -0.9259
  212MOL0     H28561   4.067   9.986   3.245  2.1009  0.0418  0.0307
  212MOL0     H28562   4.072   9.905   3.086  2.8306 -0.7079  0.6103
  212MOL0     H28563   3.883   9.780   3.162 -0.6748 -1.7257  0.9705
  212MOL0     H28564   4.004   9.685   3.229 -3.3882 -2.2617 -0.1368
  212MOL0     H28565   3.954   9.867   3.422 -1.8380  1.2460 -0.1324
  212MOL0     H28566   3.792   9.857   3.341 -0.4981 -1.0205 -3.6017
  212MOL0     H28567   3.807   9.598   3.398  1.4190 -1.8623  1.8542
  212MOL0     H28568   3.960   9.641   3.472  0.0556 -0.2150  0.7244
  212MOL0     H28569   3.840   9.799   3.629  0.0132  0.2034 -1.0101
  212MOL0     H28570   3.817   9.627   3.647  3.3387  1.4298  1.2452
  212MOL0     H28571   3.581   9.523   3.638 -0.2748 -0.8909 -1.2117
  212MOL0     H28572   3.298   9.549   3.625 -0.0795  1.7129 -3.1977
  212MOL0     H28573   3.299   9.614   3.788 -1.3032  0.2706  0.6880
  212MOL0     H28574   3.212   9.744   3.528 -1.1527 -0.1067 -0.5879
  212MOL0     H28575   3.218   9.840   3.679 -0.8205 -0.8556  1.1987
  212MOL0     H28576   3.062   9.682   3.784  4.9856 -0.7677 -0.2874
  212MOL0     H28577   3.049   9.596   3.618 -0.7970  0.7892 -1.9671
  212MOL0     H28578   2.955   9.780   3.524  1.3575  0.9987  0.5291
  212MOL0     H28579   2.962   9.879   3.664 -0.0145  1.6213 -4.4901
  212MOL0     H28580   2.757   9.949   3.586 -1.0900  1.0553 -0.7981
  212MOL0     H28581   2.550  10.039   3.366  1.5734  0.8590 -0.0437
  212MOL0     H28582   2.447  10.072   3.506 -1.7219 -2.4697  1.1040
  212MOL0     H28583   2.626  10.103   3.511 -1.0319  0.2344  1.0405
  212MOL0     H28584   2.104   9.946   3.316 -0.3102  0.2220  3.5436
  212MOL0     H28585   1.903   9.909   3.174  2.5889  1.4472 -1.3017
  212MOL0     H28586   1.692   9.875   3.126  0.9093  1.8434 -3.9026
  212MOL0     H28587   1.764   9.779   3.005 -1.1719  0.7084 -1.1912
  212MOL0     H28588   1.584   9.600   3.038  0.9639  0.4656  4.6192
  212MOL0     H28589   1.493   9.724   3.112  1.1231 -0.1162  0.9253
  212MOL0     H28590   1.611   9.729   2.822  1.6398 -0.9838  0.6485
  212MOL0     H28591   1.511   9.854   2.897  0.0088 -0.0582  2.7454
  212MOL0     H28592   1.436   9.543   2.859 -0.9700  0.2166 -1.5612
  212MOL0     H28593   1.334   9.659   2.935 -1.6424  0.9021 -1.5599
  212MOL0     H28594   1.436   9.733   2.654 -1.0146  3.5587  0.0143
  212MOL0     H28595   1.299   9.786   2.735  2.0079  0.7459 -0.3041
  212MOL0     H28596   1.342   9.500   2.677 -0.6773 -0.6232  3.2527
  212MOL0     H28597   1.184   9.570   2.710  1.7290  1.7808  1.4388
  212MOL0     H28598   1.224   9.482   2.469  2.5050 -0.6824  0.4756
  212MOL0     H28599   1.348   9.596   2.455  1.3571 -0.2249  1.2946
  212MOL0     H28600   1.060   9.691   2.501  1.0027 -0.4409  1.4340
  212MOL0     H28601   1.122   9.672   2.342 -1.5305  4.6839 -0.2524
  212MOL0     H28602   1.880   9.508   3.320  0.8332 -1.1613 -2.5490
  212MOL0     H28603   2.114   9.522   3.423  0.3328 -0.3210 -0.2704
  212MOL0     H28604   2.412   9.600   3.583  0.7036  1.3767  1.9127
  212MOL0     H28605   2.624   9.547   3.682  1.1017  1.3323  1.7199
  212MOL0     H28606   4.636   9.922   3.457 -2.0171  1.9064 -1.3286
  212MOL0     H28607   4.883   9.958   3.534  2.1981 -0.4046 -0.1604
  212MOL0     H28608   5.259  10.416   3.491  0.7794  0.0843 -0.8325
  212MOL0     H28609   5.503  10.442   3.507  0.2191 -0.1051 -0.6249
  212MOL0     H28610   5.715  10.092   3.629 -0.4476 -0.0894 -0.1168
  212MOL0     H28611   5.777  10.069   3.464  0.0012 -0.9076  0.9804
  212MOL0     H28612   5.927  10.114   3.659  0.4445 -0.2219  0.9445
  212MOL0     H28613   5.882  10.282   3.671  1.1741 -2.3312  1.8766
  212MOL0     H28614   5.956  10.327   3.444  0.5117 -0.3691 -1.5512
  212MOL0     H28615   5.979  10.156   3.399 -2.7638 -1.5138  0.5521
  212MOL0     H28616   6.208  10.237   3.455 -1.3286 -2.4795 -0.1157
  212MOL0     H28617   6.156  10.191   3.623 -1.1089  2.2075  1.1901
  212MOL0     H28618   6.195  10.572   3.691 -0.6035  0.5833  1.3012
  212MOL0     H28619   5.546  10.019   3.451 -0.1448 -0.5611 -0.1262
  212MOL0     H28620   5.307   9.998   3.401  1.6148 -0.6568  1.9342
  213MOL0     O28621   9.645   5.522   6.842 -0.3650 -0.4101  0.7356
  213MOL0     C28622   9.681   5.425   6.776  0.0180 -0.7296  1.2945
  213MOL0     O28623   9.808   5.392   6.742  0.3522  0.3631 -0.4209
  213MOL0     C28624   9.894   5.426   6.837  0.8240 -0.6210 -0.1129
  213MOL0     C28625   9.990   5.517   6.802  0.6743 -0.0079  0.6012
  213MOL0     C28626  10.082   5.564   6.890 -0.0706  0.0492  0.4516
  213MOL0     C28627  10.079   5.534   7.024  0.0757 -0.9101  0.2003
  213MOL0     O28628  10.175   5.595   7.107 -0.2944  0.4915  0.0132
  213MOL0     C28629  10.115   5.684   7.194  0.5795 -0.2704  0.1433
  213MOL0     C28630  10.130   5.644   7.337  1.2660 -0.3077 -0.0173
  213MOL0     C28631  10.279   5.647   7.377 -0.0610 -0.2793  0.0047
  213MOL0     C28632  10.278   5.658   7.529 -0.2750 -0.1004  0.0664
  213MOL0     C28633  10.408   5.607   7.598 -0.3877  0.6006  0.2488
  213MOL0     C28634  10.538   5.671   7.537 -0.2183 -0.5040 -0.6045
  213MOL0     C28635  10.678   5.614   7.592  0.3559 -0.3034 -0.1777
  213MOL0     C28636  10.791   5.713   7.555 -0.7885 -0.0932  0.2267
  213MOL0     N28637  10.915   5.657   7.611 -0.5011  0.5147  0.4135
  213MOL0     C28638  10.946   5.639   7.745 -0.7599  0.0752  0.3856
  213MOL0     C28639  11.071   5.596   7.756  1.0663 -1.0110 -0.2638
  213MOL0     C28640  11.149   5.573   7.882 -0.4111  0.1245  1.5207
  213MOL0     C28641  11.226   5.707   7.907 -0.0400  0.7980  0.3418
  213MOL0     C28642  11.350   5.681   7.993 -0.3924  0.5323 -0.0979
  213MOL0     C28643  11.312   5.658   8.137  0.2777  0.0766  0.4171
  213MOL0     O28644  11.242   5.778   8.182 -0.6456 -0.1031 -0.4098
  213MOL0     C28645  11.164   5.758   8.293  0.1190  0.2992  0.5814
  213MOL0     C28646  11.028   5.786   8.296  0.4235  0.8684  0.0876
  213MOL0     C28647  10.941   5.738   8.399  0.5101 -0.8164  0.3752
  213MOL0     C28648  10.795   5.740   8.385  0.5907 -0.2697 -0.1853
  213MOL0     C28649  11.004   5.685   8.512  0.2589  0.1182  0.0117
  213MOL0     C28650  10.930   5.634   8.634  0.6644 -0.5456 -0.7130
  213MOL0     O28651  11.017   5.590   8.731 -0.2236 -0.0135 -0.1654
  213MOL0     C28652  10.985   5.507   8.831 -0.3381 -0.4986 -0.4574
  213MOL0     C28653  11.059   5.395   8.850 -0.3077 -0.2840  0.4433
  213MOL0     C28654  11.037   5.307   8.955  0.1479 -0.1301 -0.2103
  213MOL0     C28655  10.936   5.330   9.047 -0.1170 -0.4308 -1.1628
  213MOL0     O28656  10.920   5.246   9.156 -0.0599 -0.8632  0.7019
  213MOL0     C28657  10.812   5.263   9.251 -0.0340 -0.6503  0.2395
  213MOL0     C28658  10.830   5.386   9.344  0.5713  0.0058  0.4116
  213MOL0     C28659  10.703   5.411   9.419 -0.3072  0.0462  0.1151
  213MOL0     C28660  10.574   5.444   9.341 -0.7156 -0.5913  0.4528
  213MOL0     C28661  10.462   5.345   9.373  0.7084 -0.9914  0.0049
  213MOL0     C28662  10.326   5.375   9.292  0.0539  0.2222  0.1539
  213MOL0     C28663  10.217   5.282   9.354  0.0142  0.0987 -0.5528
  213MOL0     C28664  10.085   5.302   9.277  0.1487  0.3413  0.0307
  213MOL0    Cl28665  10.007   5.463   9.273 -0.6678 -0.2564  0.2800
  213MOL0     C28666  10.851   5.436   9.019  0.0379  1.0334  1.1337
  213MOL0     C28667  10.876   5.524   8.912  0.3949  1.1521 -0.2406
  213MOL0     O28668  10.803   5.639   8.646 -0.1386 -0.0731 -0.7148
  213MOL0     C28669  11.148   5.677   8.521 -0.2432  0.8200 -0.6004
  213MOL0     C28670  11.221   5.700   8.405  0.2899  0.0406 -0.2739
  213MOL0     N28671  11.113   5.576   7.626  0.5910  0.0166 -0.4828
  213MOL0     N28672  11.018   5.595   7.540 -0.1738 -0.4638 -0.6552
  213MOL0     C28673   9.981   5.446   7.070  0.1215  0.5902  0.7563
  213MOL0     C28674   9.892   5.392   6.976 -0.3931 -0.6354 -0.3576
  213MOL0     C28675   9.574   5.362   6.701 -0.8164 -0.3929 -0.1004
  213MOL0     C28676   9.607   5.268   6.602  0.5630 -0.3700  0.2095
  213MOL0     C28677   9.502   5.211   6.531  1.2983  0.4614 -0.4722
  213MOL0     C28678   9.365   5.231   6.552  0.3142 -0.0130  0.9106
  213MOL0     O28679   9.272   5.161   6.476  0.4927  0.0251  1.8248
  213MOL0     C28680   9.137   5.178   6.516 -0.9387  1.1920  0.3109
  213MOL0     C28681   9.055   5.095   6.428  0.2538  0.8332 -0.2127
  213MOL0     C28682   8.905   5.099   6.446  1.1231  0.0543 -0.2096
  213MOL0     C28683   8.844   5.217   6.386  0.0592  0.0193  0.3724
  213MOL0     C28684   8.698   5.228   6.408  0.9021 -0.5017 -0.0128
  213MOL0     C28685   8.588   5.260   6.446  0.6408  0.3072 -0.9371
  213MOL0     C28686   9.340   5.338   6.644 -0.0968 -0.2074 -0.2030
  213MOL0     C28687   9.440   5.394   6.716 -0.1416  0.0280  0.1281
  213MOL0     H28688   9.981   5.548   6.699 -1.3164  0.3578  0.8483
  213MOL0     H28689  10.159   5.634   6.858  0.7025  0.5670  3.2276
  213MOL0     H28690  10.162   5.782   7.184  1.9166 -0.6401  2.1634
  213MOL0     H28691  10.015   5.709   7.157  0.7186  2.7371  1.5194
  213MOL0     H28692  10.072   5.714   7.398  2.1421 -0.6697  1.2627
  213MOL0     H28693  10.088   5.545   7.354  2.0969 -0.7713 -0.6344
  213MOL0     H28694  10.326   5.550   7.363 -0.2600 -0.3942  0.1210
  213MOL0     H28695  10.329   5.736   7.337 -1.3154  0.1526 -0.6570
  213MOL0     H28696  10.263   5.763   7.558 -0.8384  0.3922 -1.8264
  213MOL0     H28697  10.197   5.599   7.573 -0.9268 -0.2630 -1.2669
  213MOL0     H28698  10.411   5.629   7.705 -0.8450  1.6920  0.0500
  213MOL0     H28699  10.402   5.498   7.589 -1.5295  0.7427 -1.2059
  213MOL0     H28700  10.534   5.655   7.429 -2.4215  0.6890 -0.7463
  213MOL0     H28701  10.540   5.777   7.561 -0.1543 -0.8838  1.2625
  213MOL0     H28702  10.666   5.607   7.700 -1.9823 -0.6454 -0.4119
  213MOL0     H28703  10.689   5.514   7.548 -1.0953  0.1486 -1.6954
  213MOL0     H28704  10.773   5.812   7.598  1.1848  0.0679  0.7971
  213MOL0     H28705  10.806   5.725   7.448  0.1292  1.5877  0.5164
  213MOL0     H28706  10.879   5.663   7.827 -0.7107  1.7379 -0.0316
  213MOL0     H28707  11.086   5.534   7.963  1.7507 -2.8204  1.9540
  213MOL0     H28708  11.215   5.488   7.861 -2.0204 -0.9784  0.6498
  213MOL0     H28709  11.158   5.782   7.947 -1.3811 -0.1142 -0.1720
  213MOL0     H28710  11.268   5.743   7.812 -0.0348  0.2489  0.1317
  213MOL0     H28711  11.426   5.760   7.998 -0.2802  0.4121  0.1146
  213MOL0     H28712  11.408   5.596   7.955 -1.1729  1.0580 -2.6152
  213MOL0     H28713  11.390   5.640   8.212 -1.8749  1.0925  3.0678
  213MOL0     H28714  11.232   5.582   8.136  0.8676 -0.6142  1.9024
  213MOL0     H28715  10.988   5.825   8.202 -0.7775  0.1770  0.2918
  213MOL0     H28716  10.787   5.634   8.410  2.5306  0.0767  2.4439
  213MOL0     H28717  10.748   5.797   8.466 -1.2208 -1.6734 -0.1787
  213MOL0     H28718  10.751   5.768   8.289 -1.7858 -1.2838  0.5335
  213MOL0     H28719  11.127   5.378   8.767 -1.4956 -0.7965 -0.4401
  213MOL0     H28720  11.081   5.209   8.965  0.0723 -0.3436 -1.7877
  213MOL0     H28721  10.728   5.273   9.182 -1.2788 -0.3335  1.7492
  213MOL0     H28722  10.803   5.168   9.305 -2.7778  0.9876  3.0166
  213MOL0     H28723  10.911   5.375   9.416 -0.6320  2.1592  2.2020
  213MOL0     H28724  10.845   5.480   9.290 -3.8065  1.3057  1.1259
  213MOL0     H28725  10.721   5.492   9.490 -3.6676 -0.2980  1.5314
  213MOL0     H28726  10.680   5.325   9.483 -1.6332 -0.0903 -0.5223
  213MOL0     H28727  10.549   5.548   9.365 -0.1921  0.7329 -3.8377
  213MOL0     H28728  10.584   5.453   9.233 -0.3115  1.7838  0.6393
  213MOL0     H28729  10.446   5.340   9.481 -0.1787 -0.5059 -0.0936
  213MOL0     H28730  10.490   5.242   9.351  2.0193 -0.9803  1.4973
  213MOL0     H28731  10.302   5.480   9.304  0.7343  0.5018 -0.7669
  213MOL0     H28732  10.342   5.357   9.185  0.3219  0.3801  0.1685
  213MOL0     H28733  10.203   5.307   9.459 -0.8545  1.2220 -0.9018
  213MOL0     H28734  10.254   5.180   9.343 -0.1750 -0.1204  0.7434
  213MOL0     H28735  10.003   5.244   9.320  0.5713  0.5718  1.1724
  213MOL0     H28736  10.106   5.276   9.172  0.4038  0.8926 -0.0569
  213MOL0     H28737  10.764   5.463   9.077 -2.3563  0.3741 -1.9041
  213MOL0     H28738  10.823   5.618   8.901  4.5081  3.5935 -1.0463
  213MOL0     H28739  11.208   5.642   8.604  0.6978 -1.8576 -2.2867
  213MOL0     H28740  11.329   5.686   8.406  0.3989  0.5617  2.5699
  213MOL0     H28741   9.973   5.420   7.175 -1.0143 -1.6423  0.1802
  213MOL0     H28742   9.822   5.314   7.006 -2.5516  1.7095  1.1389
  213MOL0     H28743   9.712   5.252   6.580  0.6032  0.0187  0.1135
  213MOL0     H28744   9.515   5.126   6.464 -1.1069 -1.6317  1.4907
  213MOL0     H28745   9.125   5.141   6.618  1.1436  0.3735  0.3116
  213MOL0     H28746   9.106   5.282   6.521 -0.5521  1.4305 -1.4789
  213MOL0     H28747   9.093   4.994   6.445  0.1150  0.8258  0.0457
  213MOL0     H28748   9.073   5.122   6.323 -1.7623 -1.8930 -1.3696
  213MOL0     H28749   8.877   5.089   6.551 -0.2002  0.1618 -0.5369
  213MOL0     H28750   8.859   5.020   6.387  2.1257 -1.7721  1.3554
  213MOL0     H28751   8.856   5.203   6.279  0.5905 -0.6235  0.5067
  213MOL0     H28752   8.883   5.314   6.420 -0.4134  1.3383 -2.5829
  213MOL0     H28753   8.492   5.296   6.479  2.6424  3.1150  2.5421
  213MOL0     H28754   9.236   5.358   6.669 -0.8215 -1.4123 -2.0569
  213MOL0     H28755   9.407   5.469   6.788 -3.0266 -2.0002  1.1094
  214MOL0     O28756   5.225   3.407   7.378 -0.4988  0.3106  0.2568
  214MOL0     C28757   5.336   3.411   7.334 -1.0614  0.0629 -1.2076
  214MOL0     O28758   5.390   3.346   7.231 -0.6537  0.0985  0.7357
  214MOL0     C28759   5.320   3.244   7.165  0.1693 -0.1187 -0.4022
  214MOL0     C28760   5.392   3.207   7.054 -0.3836  0.2292  1.0787
  214MOL0     C28761   5.335   3.112   6.961  0.1101 -0.8056 -0.0419
  214MOL0     C28762   5.201   3.070   6.973  0.1389  0.2936  0.2581
  214MOL0     O28763   5.137   2.982   6.884 -0.0102  0.5184 -0.0333
  214MOL0     C28764   5.186   2.967   6.749  0.6078 -0.4274 -0.3457
  214MOL0     C28765   5.082   2.920   6.642  0.3186  0.2368  0.2498
  214MOL0     C28766   4.984   3.034   6.630 -0.0592  0.8559  0.0444
  214MOL0     C28767   4.881   2.999   6.528  0.4222 -0.3633 -0.8452
  214MOL0     C28768   4.788   3.123   6.502  0.0259 -0.5813 -0.1301
  214MOL0     C28769   4.651   3.096   6.443 -0.0759 -0.2600 -0.4029
  214MOL0     C28770   4.589   3.225   6.421  0.3430 -0.8215 -0.6329
  214MOL0     C28771   4.436   3.221   6.398  0.0211 -0.1240 -0.1610
  214MOL0     N28772   4.374   3.352   6.361  0.4607 -0.4948  0.2414
  214MOL0     C28773   4.323   3.438   6.455  1.0820  0.1210 -0.3655
  214MOL0     C28774   4.317   3.557   6.390  0.5533 -0.1817 -0.0204
  214MOL0     C28775   4.283   3.687   6.445  0.2172  0.5717  0.2547
  214MOL0     C28776   4.138   3.689   6.481 -0.0281  0.1480  0.0452
  214MOL0     C28777   4.098   3.832   6.520  0.5085 -0.0933  1.0236
  214MOL0     C28778   3.946   3.852   6.548 -0.1526  0.5853 -0.2057
  214MOL0     O28779   3.913   3.780   6.666  0.2235 -0.3419 -0.2286
  214MOL0     C28780   3.793   3.812   6.723 -0.5863  0.0573 -1.0309
  214MOL0     C28781   3.692   3.895   6.673 -0.1614 -0.2294  0.2389
  214MOL0     C28782   3.571   3.915   6.731  0.1008  0.9445  0.5417
  214MOL0     C28783   3.473   4.008   6.661 -0.3477  0.9615  0.2028
  214MOL0     C28784   3.539   3.863   6.861  0.0809  0.3617 -0.1966
  214MOL0     C28785   3.413   3.877   6.945 -0.1846 -0.0218 -0.0966
  214MOL0     O28786   3.406   3.805   7.059  0.2119 -0.2556 -0.2388
  214MOL0     C28787   3.285   3.801   7.118  0.5835  0.5012 -0.7198
  214MOL0     C28788   3.212   3.680   7.116  0.4085 -1.4776  0.2264
  214MOL0     C28789   3.091   3.678   7.198  0.2662  0.1623 -0.6138
  214MOL0     C28790   3.035   3.787   7.270  0.3522  0.0530  0.6677
  214MOL0     O28791   2.919   3.765   7.338  0.5310  0.0690  0.7137
  214MOL0     C28792   2.809   3.851   7.321  0.4405 -0.0272  1.2432
  214MOL0     C28793   2.679   3.807   7.391  0.5745 -0.2833 -0.6950
  214MOL0     C28794   2.566   3.872   7.324 -0.4298 -0.0292  0.8770
  214MOL0     C28795   2.439   3.828   7.390  0.3183  0.2783  0.2604
  214MOL0     C28796   2.322   3.911   7.342 -0.6102 -0.2740 -0.1459
  214MOL0     C28797   2.196   3.900   7.429  0.7657 -0.1010  0.2980
  214MOL0     C28798   2.202   3.944   7.580 -0.6221  0.7236 -0.2216
  214MOL0     C28799   2.236   4.081   7.599 -0.2934 -0.6539  0.1775
  214MOL0    Cl28800   2.089   4.184   7.579  0.5533 -0.0927  0.4254
  214MOL0     C28801   3.104   3.906   7.254 -0.5717 -0.3448 -0.7582
  214MOL0     C28802   3.230   3.911   7.190  0.0254  0.1931 -0.2090
  214MOL0     O28803   3.317   3.940   6.902 -0.3648 -0.0183 -0.0481
  214MOL0     C28804   3.646   3.792   6.926  0.6410  0.4840 -0.1409
  214MOL0     C28805   3.764   3.764   6.854 -0.0373 -0.2229  0.1611
  214MOL0     N28806   4.364   3.539   6.260  0.4153 -0.2617 -0.2074
  214MOL0     N28807   4.400   3.414   6.250  0.2823 -0.1664  0.9664
  214MOL0     C28808   5.123   3.121   7.077 -1.3113  0.7339  0.4060
  214MOL0     C28809   5.185   3.201   7.171 -0.9608  0.3539  0.8970
  214MOL0     C28810   5.429   3.472   7.426 -0.4873  0.5289  0.4763
  214MOL0     C28811   5.542   3.555   7.372  0.4154  0.3471 -0.0810
  214MOL0     C28812   5.622   3.624   7.462 -0.1930 -0.0152 -0.5272
  214MOL0     C28813   5.596   3.626   7.596  0.4381 -0.1495 -0.6740
  214MOL0     O28814   5.645   3.700   7.697 -0.0678  0.0602 -0.4752
  214MOL0     C28815   5.745   3.792   7.671  0.6124  1.1805  0.2541
  214MOL0     C28816   5.745   3.892   7.783  0.0788  0.4645 -0.6651
  214MOL0     C28817   5.748   3.835   7.922  0.1491 -0.7024 -0.0381
  214MOL0     C28818   5.854   3.725   7.947 -0.6868 -0.6018 -0.8565
  214MOL0     C28819   5.986   3.784   7.956  0.9901  0.3585 -0.0548
  214MOL0     C28820   6.092   3.837   7.977 -0.7974  0.0747 -0.3598
  214MOL0     C28821   5.496   3.536   7.643 -0.0508 -0.4103 -0.5903
  214MOL0     C28822   5.414   3.462   7.561 -0.3230  0.3424  0.0010
  214MOL0     H28823   5.488   3.252   7.032 -0.8514  0.9209  0.3720
  214MOL0     H28824   5.399   3.089   6.875 -0.9601 -0.9921 -0.8057
  214MOL0     H28825   5.207   3.062   6.699  2.0442 -0.1871  0.6357
  214MOL0     H28826   5.284   2.919   6.755  1.9370  2.1734  0.6262
  214MOL0     H28827   5.131   2.910   6.545 -0.1870 -0.1454  0.0277
  214MOL0     H28828   5.020   2.836   6.674  1.5214  0.0047  2.0866
  214MOL0     H28829   4.934   3.051   6.727  1.3197 -0.8674  1.1055
  214MOL0     H28830   5.034   3.122   6.589  0.6036  1.8481  2.7362
  214MOL0     H28831   4.929   2.969   6.434  1.9967  0.6762 -0.4172
  214MOL0     H28832   4.824   2.910   6.555 -0.4407  0.3594 -0.2468
  214MOL0     H28833   4.779   3.178   6.597 -2.0285 -1.0305 -0.0175
  214MOL0     H28834   4.840   3.196   6.439  2.5482 -1.9974  0.1835
  214MOL0     H28835   4.653   3.042   6.348 -2.1374  1.7932 -1.7306
  214MOL0     H28836   4.588   3.051   6.520 -1.5987  0.8646 -0.9423
  214MOL0     H28837   4.592   3.297   6.503 -2.6287  1.9659 -2.7313
  214MOL0     H28838   4.631   3.282   6.338  0.2712  2.4090  1.3971
  214MOL0     H28839   4.386   3.184   6.489 -2.1039  1.6655 -0.5079
  214MOL0     H28840   4.415   3.151   6.317  1.6064  1.1566 -1.7624
  214MOL0     H28841   4.307   3.410   6.559  1.1097 -0.2592 -0.4625
  214MOL0     H28842   4.335   3.702   6.540 -0.3891 -2.0423  1.0549
  214MOL0     H28843   4.308   3.767   6.374 -0.4976 -0.0915 -0.7739
  214MOL0     H28844   4.125   3.621   6.566 -2.1332 -1.4398 -1.4321
  214MOL0     H28845   4.068   3.666   6.400 -4.3598  1.1210  3.1503
  214MOL0     H28846   4.115   3.895   6.432 -3.2087 -1.2808 -0.7515
  214MOL0     H28847   4.159   3.867   6.604  2.2337  0.4295 -0.4027
  214MOL0     H28848   3.891   3.797   6.471  0.3871 -1.3118  0.6971
  214MOL0     H28849   3.921   3.958   6.546 -2.0424  0.2549  2.1620
  214MOL0     H28850   3.716   3.942   6.578 -0.5840  0.6693  0.5694
  214MOL0     H28851   3.529   4.055   6.580 -2.1609  4.3706  0.7238
  214MOL0     H28852   3.384   3.949   6.635 -0.5045  1.5010 -0.5229
  214MOL0     H28853   3.446   4.085   6.735  4.0411  1.5945  1.4103
  214MOL0     H28854   3.238   3.592   7.059  1.3640 -0.1030 -1.5490
  214MOL0     H28855   3.041   3.582   7.189 -0.3391  0.5486 -1.6611
  214MOL0     H28856   2.839   3.950   7.356  1.9423  0.3430 -0.8538
  214MOL0     H28857   2.791   3.856   7.213 -0.9906  0.0333  1.4748
  214MOL0     H28858   2.673   3.700   7.372  0.1424 -0.8257  2.0667
  214MOL0     H28859   2.685   3.825   7.499  2.8537 -1.7200 -0.5068
  214MOL0     H28860   2.569   3.847   7.217 -1.8181  0.1147  0.7855
  214MOL0     H28861   2.574   3.978   7.349 -2.0158 -0.1616  2.0855
  214MOL0     H28862   2.421   3.721   7.373  4.0041 -0.5131  0.4455
  214MOL0     H28863   2.445   3.838   7.499  3.9223 -2.5393  0.5095
  214MOL0     H28864   2.303   3.880   7.239 -0.4436 -2.9344  0.5526
  214MOL0     H28865   2.345   4.018   7.340 -1.2004 -0.0689  1.6732
  214MOL0     H28866   2.111   3.957   7.388  0.2036 -0.9012  0.3183
  214MOL0     H28867   2.149   3.802   7.429 -3.4526  1.6635 -1.3321
  214MOL0     H28868   2.279   3.890   7.636 -1.4132  0.2774  0.4556
  214MOL0     H28869   2.107   3.910   7.622  0.0974 -0.9500  0.1448
  214MOL0     H28870   2.309   4.109   7.523 -2.0776 -0.6702 -1.6359
  214MOL0     H28871   2.281   4.082   7.699 -0.5148 -0.0041  0.2753
  214MOL0     H28872   3.072   3.994   7.308  0.7462  0.1777 -0.7939
  214MOL0     H28873   3.276   4.008   7.180 -0.1451  0.1593 -1.6057
  214MOL0     H28874   3.645   3.755   7.028  0.3235  0.7059 -0.0628
  214MOL0     H28875   3.854   3.721   6.896  0.0690 -0.2066 -0.0498
  214MOL0     H28876   5.020   3.088   7.089 -0.9580 -0.3403  0.5757
  214MOL0     H28877   5.119   3.244   7.245  0.3998 -0.2390  2.5200
  214MOL0     H28878   5.567   3.552   7.267 -0.0018 -1.2719 -0.1678
  214MOL0     H28879   5.709   3.682   7.431  1.4465 -3.5746 -3.4423
  214MOL0     H28880   5.836   3.738   7.641  0.4355  1.3470 -0.5895
  214MOL0     H28881   5.716   3.856   7.588  1.3977  0.9886 -0.1826
  214MOL0     H28882   5.654   3.951   7.768 -0.7626 -0.7283 -0.4248
  214MOL0     H28883   5.844   3.937   7.769  1.1803 -1.8323 -0.6286
  214MOL0     H28884   5.651   3.789   7.943 -1.7897  3.3181  0.7636
  214MOL0     H28885   5.756   3.919   7.992 -3.0120 -1.3507  1.2607
  214MOL0     H28886   5.855   3.655   7.863 -0.4640  1.2053 -2.4438
  214MOL0     H28887   5.831   3.676   8.042  0.9578  1.2057  0.5634
  214MOL0     H28888   6.194   3.869   7.987 -0.5959 -0.3091 -1.0919
  214MOL0     H28889   5.485   3.517   7.750  0.5372 -2.5223 -0.8571
  214MOL0     H28890   5.336   3.400   7.605 -3.5210  1.2925 -3.7353
  215MOL0     O28891   7.982   9.510   5.350  0.1658  0.3191  0.4716
  215MOL0     C28892   8.033   9.612   5.313 -0.0010  0.3657 -0.6238
  215MOL0     O28893   7.990   9.737   5.339  0.8186  0.1671 -0.1106
  215MOL0     C28894   7.885   9.746   5.421  0.1455 -0.3472 -0.3694
  215MOL0     C28895   7.772   9.821   5.383 -0.1388 -0.0027  0.1814
  215MOL0     C28896   7.657   9.839   5.465 -0.4257  0.9352 -0.2263
  215MOL0     C28897   7.660   9.790   5.593  0.3106  0.0960  0.0062
  215MOL0     O28898   7.537   9.784   5.662  0.4925 -0.6859 -0.2403
  215MOL0     C28899   7.518   9.682   5.759 -0.0582 -0.2791 -1.0177
  215MOL0     C28900   7.544   9.742   5.904  0.8018 -0.3970  0.2227
  215MOL0     C28901   7.432   9.825   5.969 -0.6558  0.2202 -0.3446
  215MOL0     C28902   7.453   9.844   6.129 -0.1773 -0.7366  0.3861
  215MOL0     C28903   7.329   9.923   6.172 -0.5488  0.5439 -0.2815
  215MOL0     C28904   7.304  10.053   6.107 -0.0648  0.6335 -0.1704
  215MOL0     C28905   7.179  10.121   6.149 -0.1014  0.3587 -0.4836
  215MOL0     C28906   7.181  10.267   6.119  0.1989 -0.3775  0.5269
  215MOL0     N28907   7.064  10.330   6.183 -0.4649  0.6598  0.1552
  215MOL0     C28908   6.926  10.333   6.149 -0.3304 -0.9701 -0.4164
  215MOL0     C28909   6.870  10.413   6.241 -0.5230  0.1459  0.9956
  215MOL0     C28910   6.733  10.465   6.252 -0.0863  0.6937 -0.0884
  215MOL0     C28911   6.639  10.363   6.320  0.0584 -0.1077  0.0687
  215MOL0     C28912   6.699  10.280   6.443  0.9317 -1.3154  0.8754
  215MOL0     C28913   6.607  10.175   6.515 -0.0564 -0.5910  0.6824
  215MOL0     O28914   6.500  10.236   6.575  0.0208 -1.0021  0.4036
  215MOL0     C28915   6.409  10.163   6.640 -0.2256  0.8729 -0.7569
  215MOL0     C28916   6.405  10.022   6.630  0.3220 -0.0627 -0.0863
  215MOL0     C28917   6.313   9.950   6.709 -0.1881 -0.4464  1.1474
  215MOL0     C28918   6.299   9.804   6.688 -0.7827  1.4253  0.6072
  215MOL0     C28919   6.225  10.023   6.793 -0.3974  0.0260  0.1440
  215MOL0     C28920   6.123   9.961   6.888  0.7504  0.1215  0.6310
  215MOL0     O28921   6.028  10.048   6.934 -0.1263  0.1538 -0.4766
  215MOL0     C28922   5.908  10.008   6.992 -0.4886  0.0234  0.4555
  215MOL0     C28923   5.824  10.109   7.030 -0.0499  0.2866 -0.7634
  215MOL0     C28924   5.695  10.090   7.080  0.9919  0.7703  0.2821
  215MOL0     C28925   5.642   9.954   7.080 -0.1403  0.8465  0.1229
  215MOL0     O28926   5.515   9.933   7.129 -0.8585  0.1716 -0.0825
  215MOL0     C28927   5.472   9.819   7.200 -0.2704  0.3415 -0.2851
  215MOL0     C28928   5.467   9.840   7.351  0.3302 -0.2155  0.3207
  215MOL0     C28929   5.438   9.713   7.427  0.1319 -1.5721 -0.2820
  215MOL0     C28930   5.291   9.663   7.405 -0.0825 -0.1980 -0.0105
  215MOL0     C28931   5.179   9.760   7.461  0.2807 -0.0831 -0.2308
  215MOL0     C28932   5.044   9.723   7.401 -0.1563  0.1591 -0.3993
  215MOL0     C28933   5.032   9.761   7.260  0.3328  0.2107 -0.7383
  215MOL0     C28934   4.887   9.739   7.202 -0.1544  0.8849 -0.7870
  215MOL0    Cl28935   4.861   9.840   7.060  0.1865 -0.0935 -0.3765
  215MOL0     C28936   5.728   9.849   7.045  0.8039 -0.6543  0.6774
  215MOL0     C28937   5.858   9.876   6.999  0.0301  0.3870 -0.4101
  215MOL0     O28938   6.133   9.840   6.913  0.1179 -1.2482  0.1126
  215MOL0     C28939   6.230  10.168   6.798  0.4937  1.1212 -0.3904
  215MOL0     C28940   6.320  10.234   6.720  0.2389  0.3794  0.4214
  215MOL0     N28941   6.972  10.460   6.322 -0.1842  0.3702 -0.5929
  215MOL0     N28942   7.077  10.407   6.295 -0.3243  0.4277  0.3062
  215MOL0     C28943   7.786   9.737   5.642  0.4289 -0.5309 -0.2151
  215MOL0     C28944   7.896   9.717   5.556 -0.5737  0.3416 -0.0769
  215MOL0     C28945   8.154   9.601   5.227 -0.0834  0.8167 -0.3520
  215MOL0     C28946   8.216   9.717   5.174  0.5341 -0.4417  0.2789
  215MOL0     C28947   8.331   9.698   5.102 -0.1180 -0.1678  0.1533
  215MOL0     C28948   8.393   9.572   5.096 -0.6088  0.6573 -0.1561
  215MOL0     O28949   8.509   9.576   5.036 -0.0812 -0.4354  0.6955
  215MOL0     C28950   8.583   9.467   5.014 -0.2396  0.2111  0.2423
  215MOL0     C28951   8.695   9.506   4.915 -0.2767  0.1605 -1.0935
  215MOL0     C28952   8.836   9.503   4.978 -0.0276 -0.8398 -0.1127
  215MOL0     C28953   8.855   9.618   5.081 -0.4420  0.0616 -0.6026
  215MOL0     C28954   8.988   9.620   5.138 -0.2026  0.4460  0.9341
  215MOL0     C28955   9.100   9.611   5.182 -0.3981 -0.5426  0.0923
  215MOL0     C28956   8.329   9.461   5.145  0.0725  0.5470 -0.1760
  215MOL0     C28957   8.206   9.468   5.210  0.3415  0.0283  0.2688
  215MOL0     H28958   7.776   9.851   5.279 -1.4429  2.8435  0.8658
  215MOL0     H28959   7.569   9.889   5.425 -0.5452  0.1946 -0.9025
  215MOL0     H28960   7.415   9.647   5.763  0.8198 -3.0805 -0.1456
  215MOL0     H28961   7.577   9.592   5.737 -2.1812 -2.6905  2.2331
  215MOL0     H28962   7.580   9.663   5.972 -2.3062 -0.3499  2.1131
  215MOL0     H28963   7.628   9.812   5.897  1.4446 -1.2818 -1.8544
  215MOL0     H28964   7.428   9.923   5.921 -3.8657  0.7668  0.8403
  215MOL0     H28965   7.335   9.779   5.949 -1.2922  1.5540 -0.3911
  215MOL0     H28966   7.454   9.744   6.173  2.4811 -0.4839  1.0529
  215MOL0     H28967   7.550   9.886   6.158 -0.7543 -1.5441  3.8936
  215MOL0     H28968   7.243   9.860   6.143  0.0567 -0.2208 -0.4458
  215MOL0     H28969   7.333   9.943   6.279  0.9537  1.4391 -0.4822
  215MOL0     H28970   7.392  10.113   6.134  0.1832 -0.6088  1.9993
  215MOL0     H28971   7.295  10.047   5.998  0.1592 -2.7518 -0.0950
  215MOL0     H28972   7.096  10.064   6.106 -0.2989 -0.3993  0.8258
  215MOL0     H28973   7.184  10.109   6.258 -0.0238 -0.2842 -0.5559
  215MOL0     H28974   7.179  10.285   6.011  0.1204  0.6143  0.6812
  215MOL0     H28975   7.269  10.325   6.148 -0.7401  2.1482 -1.2943
  215MOL0     H28976   6.871  10.293   6.065  0.0174 -1.5161 -0.3883
  215MOL0     H28977   6.742  10.559   6.307  0.8868  0.0436  0.8923
  215MOL0     H28978   6.700  10.491   6.151  2.4283  2.4753 -0.5424
  215MOL0     H28979   6.629  10.290   6.239 -0.2255 -1.7908  1.5624
  215MOL0     H28980   6.542  10.404   6.348 -1.7307 -4.3886  0.8832
  215MOL0     H28981   6.737  10.354   6.514  2.5351 -1.1110 -0.1490
  215MOL0     H28982   6.786  10.225   6.405  1.6790 -2.3956  3.8545
  215MOL0     H28983   6.663  10.135   6.601  2.2904 -1.8003 -1.2883
  215MOL0     H28984   6.575  10.100   6.442  1.6119 -0.5908 -0.0865
  215MOL0     H28985   6.476   9.968   6.567  0.3733  0.2303 -0.2811
  215MOL0     H28986   6.201   9.769   6.655  1.3030 -2.9946 -1.7607
  215MOL0     H28987   6.368   9.763   6.613 -0.9989  2.8285 -0.3998
  215MOL0     H28988   6.325   9.757   6.783  1.4315 -1.1792 -1.1428
  215MOL0     H28989   5.863  10.210   7.024  0.4848  0.0112 -2.8140
  215MOL0     H28990   5.638  10.173   7.121  0.0911  0.0159  0.5921
  215MOL0     H28991   5.366   9.803   7.175 -1.4164  2.8266  2.3840
  215MOL0     H28992   5.525   9.724   7.191  0.6664  0.5893  1.9467
  215MOL0     H28993   5.562   9.883   7.385  0.9521 -1.1351 -0.2121
  215MOL0     H28994   5.394   9.921   7.361  1.1882  0.3725  2.5274
  215MOL0     H28995   5.448   9.740   7.533 -1.2591  0.1986 -0.5611
  215MOL0     H28996   5.503   9.626   7.411  1.0036 -1.2379  1.2913
  215MOL0     H28997   5.275   9.644   7.298 -1.5489 -0.6029  0.2560
  215MOL0     H28998   5.281   9.568   7.459  5.1800 -3.0636 -3.2060
  215MOL0     H28999   5.193   9.868   7.446 -1.6431  0.5449  1.9129
  215MOL0     H29000   5.184   9.741   7.569 -0.3234  0.3269 -0.1237
  215MOL0     H29001   5.028   9.617   7.421  2.3152 -0.7387 -2.6463
  215MOL0     H29002   4.968   9.778   7.458 -0.3793 -0.4814 -0.0776
  215MOL0     H29003   5.108   9.717   7.196  2.8673  1.9838  0.8630
  215MOL0     H29004   5.033   9.870   7.251  1.0474  0.2520 -0.2411
  215MOL0     H29005   4.819   9.761   7.285  0.4357 -0.7985  0.1993
  215MOL0     H29006   4.859   9.636   7.176  0.7385  0.8753 -1.7719
  215MOL0     H29007   5.685   9.750   7.031  1.1870 -0.5128 -1.9381
  215MOL0     H29008   5.912   9.795   6.951  0.3144 -0.0945  0.6908
  215MOL0     H29009   6.166  10.226   6.862  4.1200  1.7135  3.1155
  215MOL0     H29010   6.330  10.340   6.744 -1.0327  0.5335  0.3126
  215MOL0     H29011   7.803   9.715   5.747 -1.3664  0.3395  0.3021
  215MOL0     H29012   7.983   9.671   5.603  1.0335  3.5662  0.3966
  215MOL0     H29013   8.175   9.816   5.194  0.6700 -0.3717  0.2122
  215MOL0     H29014   8.371   9.789   5.058 -1.8457  0.9698  0.8143
  215MOL0     H29015   8.622   9.433   5.110 -2.7572 -0.5935  1.0593
  215MOL0     H29016   8.512   9.394   4.973  0.8809 -0.1333 -1.1652
  215MOL0     H29017   8.680   9.605   4.869  3.2711  0.1917 -2.5162
  215MOL0     H29018   8.701   9.441   4.828 -0.7898  2.2135 -2.7590
  215MOL0     H29019   8.902   9.521   4.892 -1.7187  2.1361 -0.9606
  215MOL0     H29020   8.872   9.404   5.008 -0.4400 -1.4169 -1.4410
  215MOL0     H29021   8.779   9.605   5.158  0.3393  0.2053  0.2079
  215MOL0     H29022   8.845   9.716   5.033  0.1829  1.8062  2.5947
  215MOL0     H29023   9.201   9.604   5.218 -1.1960 -1.1550  2.3789
  215MOL0     H29024   8.372   9.362   5.136 -3.3174 -0.9724 -1.4498
  215MOL0     H29025   8.160   9.381   5.256 -0.5756  0.5146  0.3085
  216MOL0     O29026   1.128   4.058   4.451 -0.4096 -0.2098  0.0688
  216MOL0     C29027   1.201   4.053   4.355  0.5088 -0.1780  0.4533
  216MOL0     O29028   1.164   4.083   4.229 -0.0071 -0.6133 -0.4185
  216MOL0     C29029   1.031   4.115   4.198  0.1717  0.0798 -0.0652
  216MOL0     C29030   0.919   4.058   4.249 -0.7271 -0.4399  0.5285
  216MOL0     C29031   0.794   4.106   4.226  0.0554  0.8570  0.5428
  216MOL0     C29032   0.769   4.213   4.140  0.6777 -0.4352  0.1317
  216MOL0     O29033   0.639   4.260   4.126  0.5323 -0.7539 -0.0150
  216MOL0     C29034   0.616   4.391   4.067 -0.3211 -0.0564 -0.9629
  216MOL0     C29035   0.473   4.432   4.086 -0.0690  0.5828 -0.1102
  216MOL0     C29036   0.393   4.360   3.972  0.2401  0.5333 -0.4325
  216MOL0     C29037   0.250   4.395   3.992 -0.0306  0.8103 -0.6047
  216MOL0     C29038   0.162   4.340   3.876  0.4641  0.5511  0.6376
  216MOL0     C29039   0.010   4.333   3.915  0.2410 -0.3032 -0.3799
  216MOL0     C29040  -0.042   4.461   3.971  1.0586 -1.0849  0.1165
  216MOL0     C29041  -0.202   4.469   3.959 -0.0795  0.3835 -0.0812
  216MOL0     N29042  -0.235   4.598   4.007  0.0877 -0.3997  0.5139
  216MOL0     C29043  -0.295   4.639   4.127 -0.7455 -0.7324  0.5028
  216MOL0     C29044  -0.250   4.768   4.137 -0.5036 -0.3312  0.4317
  216MOL0     C29045  -0.267   4.869   4.248 -0.7155 -0.3723 -0.4884
  216MOL0     C29046  -0.409   4.914   4.267 -0.3772  0.8744 -0.1413
  216MOL0     C29047  -0.409   5.031   4.363 -0.0214 -0.4170 -0.5388
  216MOL0     C29048  -0.549   5.086   4.384  0.0579 -0.4127 -0.6966
  216MOL0     O29049  -0.594   5.146   4.263  0.1278  0.5938 -0.0584
  216MOL0     C29050  -0.723   5.194   4.239 -0.1266 -0.0013 -0.0259
  216MOL0     C29051  -0.753   5.256   4.116  0.3583 -0.1021 -0.1879
  216MOL0     C29052  -0.884   5.287   4.076  0.1482 -0.2132  0.6717
  216MOL0     C29053  -0.908   5.341   3.929 -0.1554 -0.5127 -0.5899
  216MOL0     C29054  -0.992   5.281   4.171  0.0890  0.8409 -0.6488
  216MOL0     C29055  -1.134   5.312   4.155 -0.0747  0.2618  0.0228
  216MOL0     O29056  -1.225   5.293   4.261 -0.2138  0.8062 -0.2447
  216MOL0     C29057  -1.357   5.257   4.249  0.4200  0.6855  0.7801
  216MOL0     C29058  -1.447   5.262   4.362 -0.3642  0.4271  0.0793
  216MOL0     C29059  -1.580   5.228   4.361 -0.5481  0.0952 -0.1461
  216MOL0     C29060  -1.639   5.189   4.247  0.9965 -0.2030 -0.6992
  216MOL0     O29061  -1.780   5.172   4.249  0.3901 -0.3809 -0.4509
  216MOL0     C29062  -1.841   5.123   4.128 -0.4337  0.8463  0.4554
  216MOL0     C29063  -1.989   5.075   4.147 -0.4905  0.5352 -0.1357
  216MOL0     C29064  -2.081   5.076   4.023  0.3100 -0.0267  0.4467
  216MOL0     C29065  -2.152   5.217   4.008  0.4289  0.3236  0.4889
  216MOL0     C29066  -2.215   5.240   3.871 -0.4977 -1.1258  0.0538
  216MOL0     C29067  -2.285   5.114   3.805  0.1432  0.2400  0.3290
  216MOL0     C29068  -2.358   5.152   3.671 -0.7399  0.6077 -0.8143
  216MOL0     C29069  -2.400   5.030   3.587  0.1081 -1.3152  0.2013
  216MOL0    Cl29070  -2.276   4.983   3.468 -0.3548  0.5777  0.1146
  216MOL0     C29071  -1.561   5.194   4.128  0.0907 -0.1628  0.0973
  216MOL0     C29072  -1.423   5.214   4.130 -0.0235  0.2755  0.4606
  216MOL0     O29073  -1.162   5.366   4.053 -0.2119  0.0178  0.1461
  216MOL0     C29074  -0.960   5.232   4.301 -0.4208 -0.1526 -0.0749
  216MOL0     C29075  -0.828   5.183   4.332  0.0668 -0.3666  0.0431
  216MOL0     N29076  -0.190   4.811   4.022  1.1083  0.2273  1.2634
  216MOL0     N29077  -0.191   4.712   3.941  0.3004  0.1297  0.0041
  216MOL0     C29078   0.880   4.267   4.074 -0.8332 -0.4570 -1.5009
  216MOL0     C29079   1.010   4.218   4.101  0.4061 -0.1678 -0.6803
  216MOL0     C29080   1.336   4.001   4.378  0.1982 -0.2186 -0.2453
  216MOL0     C29081   1.378   3.948   4.502 -0.5624 -0.1244  0.2401
  216MOL0     C29082   1.509   3.896   4.522  0.7988 -0.3863  0.2186
  216MOL0     C29083   1.590   3.893   4.407 -0.9481 -0.0911  0.1966
  216MOL0     O29084   1.719   3.845   4.431  0.1031 -0.6429 -1.0626
  216MOL0     C29085   1.827   3.837   4.335 -0.1246  0.0867 -0.1391
  216MOL0     C29086   1.963   3.831   4.408 -0.5538  0.4261  0.4358
  216MOL0     C29087   2.020   3.978   4.444 -0.7162  0.6794  0.3179
  216MOL0     C29088   2.147   3.973   4.534 -1.1765  0.2183  0.0768
  216MOL0     C29089   2.262   3.924   4.456 -0.9963 -0.6084  0.0180
  216MOL0     C29090   2.339   3.862   4.386  0.0456  0.7575  0.1605
  216MOL0     C29091   1.554   3.954   4.291 -0.1692 -0.9705 -0.7153
  216MOL0     C29092   1.423   4.008   4.275 -0.2043 -0.6687  0.8484
  216MOL0     H29093   0.938   3.976   4.317  0.4596  0.6883  1.6288
  216MOL0     H29094   0.700   4.072   4.269 -0.5446 -1.4438 -2.2565
  216MOL0     H29095   0.686   4.459   4.116 -2.8552 -0.3985  3.8539
  216MOL0     H29096   0.640   4.399   3.961 -0.6479  0.2505 -1.0186
  216MOL0     H29097   0.429   4.397   4.180 -0.7208 -1.2851 -1.0682
  216MOL0     H29098   0.464   4.539   4.066  1.0722  0.9451  1.1630
  216MOL0     H29099   0.431   4.405   3.880  0.4417  1.9098  0.2857
  216MOL0     H29100   0.414   4.253   3.978 -0.2133  0.2582 -2.8005
  216MOL0     H29101   0.206   4.349   4.081  0.2431  1.7224  0.0204
  216MOL0     H29102   0.241   4.503   3.995  1.3072  1.0600 -2.9209
  216MOL0     H29103   0.175   4.397   3.784 -2.6685 -1.7280 -1.4243
  216MOL0     H29104   0.196   4.240   3.846  2.6237  1.6273 -0.6814
  216MOL0     H29105  -0.046   4.311   3.824  0.2092 -1.1708 -0.1586
  216MOL0     H29106  -0.004   4.261   3.997 -1.6251  1.1805  0.6599
  216MOL0     H29107  -0.006   4.480   4.072 -0.8471 -1.7115  0.9688
  216MOL0     H29108  -0.010   4.539   3.902  0.1782 -0.3564  0.5149
  216MOL0     H29109  -0.252   4.398   4.026 -0.7820  0.2705 -0.7059
  216MOL0     H29110  -0.228   4.459   3.853 -1.4551  0.2644  0.2425
  216MOL0     H29111  -0.338   4.576   4.204  2.2522 -1.3724  1.8133
  216MOL0     H29112  -0.225   4.825   4.339 -1.3055 -0.1405 -0.0964
  216MOL0     H29113  -0.202   4.953   4.224  1.8567 -1.4543  2.0310
  216MOL0     H29114  -0.459   4.823   4.303  0.6432 -0.9701 -3.0565
  216MOL0     H29115  -0.455   4.939   4.171 -1.5726 -2.4479 -0.5664
  216MOL0     H29116  -0.354   5.115   4.321  0.2612 -0.2844  0.0900
  216MOL0     H29117  -0.370   4.995   4.459  0.5234 -0.3560 -0.7392
  216MOL0     H29118  -0.550   5.159   4.465 -1.4915  1.0870 -1.9841
  216MOL0     H29119  -0.623   5.012   4.413 -0.1712 -0.4758 -1.4077
  216MOL0     H29120  -0.673   5.258   4.042  0.7375 -0.4499  0.2055
  216MOL0     H29121  -0.953   5.254   3.880 -1.4864 -2.2054  3.2355
  216MOL0     H29122  -0.969   5.431   3.919  2.0612  0.8952 -2.1293
  216MOL0     H29123  -0.814   5.374   3.885  0.2267  1.5155  1.5472
  216MOL0     H29124  -1.391   5.299   4.448  1.3803 -0.2805 -0.6966
  216MOL0     H29125  -1.634   5.220   4.454  1.0865 -1.3879  0.7412
  216MOL0     H29126  -1.845   5.209   4.061 -0.6214  0.0859 -0.5517
  216MOL0     H29127  -1.780   5.041   4.089  0.3055  0.5260  2.1851
  216MOL0     H29128  -1.989   4.982   4.204 -3.7690  0.9896  0.8572
  216MOL0     H29129  -2.029   5.143   4.223 -2.6683  0.5067 -1.1734
  216MOL0     H29130  -2.150   4.992   4.039  0.9011 -0.4503  0.8138
  216MOL0     H29131  -2.017   5.058   3.936 -0.9793 -1.2002 -0.2913
  216MOL0     H29132  -2.240   5.222   4.072 -0.8358 -0.6510 -1.0681
  216MOL0     H29133  -2.078   5.292   4.036  4.3191 -3.1475  0.3318
  216MOL0     H29134  -2.138   5.280   3.804 -0.3994 -1.7485 -0.2070
  216MOL0     H29135  -2.288   5.320   3.885  1.1774  0.3620  0.7239
  216MOL0     H29136  -2.210   5.037   3.783  0.5022  0.5281  0.5314
  216MOL0     H29137  -2.361   5.072   3.871  0.3768 -1.3832 -0.3835
  216MOL0     H29138  -2.293   5.216   3.610 -0.4199  0.5360 -0.5548
  216MOL0     H29139  -2.443   5.215   3.697 -0.8296  0.4487 -0.7214
  216MOL0     H29140  -2.482   5.073   3.529 -1.2065 -2.5377  1.1003
  216MOL0     H29141  -2.446   4.941   3.631 -0.8095 -2.0758 -2.1707
  216MOL0     H29142  -1.613   5.184   4.033  1.4713  0.9218 -0.8248
  216MOL0     H29143  -1.369   5.204   4.036  2.8973  0.3858  1.9995
  216MOL0     H29144  -1.026   5.230   4.387 -0.3841  0.8289 -0.0101
  216MOL0     H29145  -0.789   5.143   4.425  1.3247  1.5742  0.4079
  216MOL0     H29146   0.873   4.348   4.002 -1.5744 -0.1059 -1.0497
  216MOL0     H29147   1.101   4.273   4.081  1.6669  0.1684  4.4629
  216MOL0     H29148   1.307   3.947   4.585 -0.3682 -3.7187  0.4954
  216MOL0     H29149   1.533   3.863   4.622 -1.3508 -1.7129  0.3566
  216MOL0     H29150   1.812   3.752   4.268  0.9773 -0.6930  0.5740
  216MOL0     H29151   1.828   3.934   4.285 -1.6278  0.3446  0.2743
  216MOL0     H29152   2.035   3.778   4.346  1.2856  2.1407  0.9736
  216MOL0     H29153   1.959   3.775   4.502  4.2175 -1.2489 -0.0805
  216MOL0     H29154   1.939   4.038   4.486  0.0049  0.8107  1.5527
  216MOL0     H29155   2.044   4.042   4.358  2.1182  0.2169  0.6593
  216MOL0     H29156   2.136   3.904   4.618 -0.9212 -2.2092 -1.7634
  216MOL0     H29157   2.166   4.074   4.572 -3.4303  0.5864  0.3589
  216MOL0     H29158   2.407   3.800   4.329  0.2548  1.3624 -0.2538
  216MOL0     H29159   1.623   3.945   4.208  1.0391  0.5661  0.0849
  216MOL0     H29160   1.396   4.037   4.174  1.8357 -0.1327  0.4230
  217MOL0     O29161   4.020   0.125   6.624 -0.5839  0.5622 -0.3437
  217MOL0     C29162   4.096   0.166   6.712  0.4031  0.6646  0.5925
  217MOL0     O29163   4.093   0.295   6.760 -0.6082  0.0517 -0.6771
  217MOL0     C29164   4.036   0.395   6.692 -0.5533 -0.2777  0.2367
  217MOL0     C29165   4.119   0.484   6.623 -0.1310 -0.6955  0.2750
  217MOL0     C29166   4.064   0.592   6.557  0.7459 -0.0034 -0.2135
  217MOL0     C29167   3.922   0.619   6.562 -0.3819 -0.3403 -0.3411
  217MOL0     O29168   3.859   0.720   6.503 -0.3005  0.1169 -0.2103
  217MOL0     C29169   3.901   0.795   6.385 -0.0581  0.2061 -0.1551
  217MOL0     C29170   3.843   0.738   6.255 -0.1253  0.5659  0.2935
  217MOL0     C29171   3.692   0.747   6.238 -0.3772  0.4239 -0.0296
  217MOL0     C29172   3.643   0.694   6.098 -0.8960  0.1276 -0.5937
  217MOL0     C29173   3.505   0.641   6.074  0.6615 -0.4569 -0.2859
  217MOL0     C29174   3.412   0.756   6.092 -0.4502  0.1497  0.0819
  217MOL0     C29175   3.269   0.718   6.059  0.0566 -0.2492  1.4935
  217MOL0     C29176   3.188   0.848   6.004  0.4284  0.1758 -0.2024
  217MOL0     N29177   3.058   0.815   5.952 -1.0432 -0.2131 -0.1231
  217MOL0     C29178   3.030   0.768   5.825  0.7170  0.1336 -0.0644
  217MOL0     C29179   2.890   0.762   5.834  0.1618  1.4554 -0.4819
  217MOL0     C29180   2.779   0.702   5.745 -0.7024 -0.3028 -0.4885
  217MOL0     C29181   2.732   0.562   5.809  0.0256  0.3411  1.0211
  217MOL0     C29182   2.580   0.553   5.806 -0.1955 -0.1945  0.1301
  217MOL0     C29183   2.512   0.666   5.891  0.3724  0.0525  0.3547
  217MOL0     O29184   2.374   0.668   5.856 -0.0116 -0.4281 -0.8018
  217MOL0     C29185   2.298   0.777   5.898 -0.3062  0.5642 -0.3844
  217MOL0     C29186   2.255   0.869   5.801 -0.2510 -0.1117  0.6848
  217MOL0     C29187   2.179   0.987   5.833  0.0801  0.4629 -0.7591
  217MOL0     C29188   2.143   1.074   5.716  0.4777  0.8906 -0.6507
  217MOL0     C29189   2.139   1.011   5.973  0.9524  0.5340  0.9963
  217MOL0     C29190   2.046   1.116   6.014 -0.2987  0.1579 -1.1473
  217MOL0     O29191   2.026   1.129   6.152 -0.4850 -0.2100  0.7474
  217MOL0     C29192   1.935   1.225   6.187  0.0921 -0.3849 -0.5674
  217MOL0     C29193   1.800   1.189   6.211  0.8957 -0.7487 -0.5953
  217MOL0     C29194   1.711   1.288   6.259  0.4866  0.4463 -0.2902
  217MOL0     C29195   1.757   1.412   6.314  0.7748  0.4034  0.4980
  217MOL0     O29196   1.666   1.504   6.363 -0.0072 -0.3108  0.4200
  217MOL0     C29197   1.529   1.474   6.356 -0.3638 -0.8613 -0.3650
  217MOL0     C29198   1.436   1.591   6.405 -0.6410  0.0286 -0.2173
  217MOL0     C29199   1.459   1.712   6.303 -0.1566 -0.2378 -0.4258
  217MOL0     C29200   1.345   1.820   6.302  0.4837  0.1491  0.2252
  217MOL0     C29201   1.341   1.907   6.174 -0.4045 -0.4392  0.2275
  217MOL0     C29202   1.229   2.018   6.192  0.6320  0.4700  0.4613
  217MOL0     C29203   1.179   2.083   6.062 -0.9947 -0.2496 -1.2239
  217MOL0     C29204   1.086   2.201   6.100  0.8657  0.6598 -0.3153
  217MOL0    Cl29205   0.920   2.115   6.124  0.0210  0.0567 -0.0287
  217MOL0     C29206   1.891   1.437   6.310 -0.2913 -0.4205  0.0381
  217MOL0     C29207   1.975   1.348   6.244 -0.5715  0.7798 -0.5310
  217MOL0     O29208   1.982   1.166   5.925 -0.1964 -1.0515 -0.1532
  217MOL0     C29209   2.177   0.912   6.072 -0.4693  0.6531  0.1879
  217MOL0     C29210   2.251   0.796   6.037  0.0789 -0.1368 -0.0951
  217MOL0     N29211   2.847   0.808   5.957  0.3759  0.1127 -0.9089
  217MOL0     N29212   2.948   0.847   6.021 -0.0218 -0.9640  0.5119
  217MOL0     C29213   3.843   0.538   6.643 -0.1338  0.8499 -0.1029
  217MOL0     C29214   3.905   0.427   6.703  0.1261  0.4456  0.3860
  217MOL0     C29215   4.186   0.070   6.763  0.7254 -0.2001  0.3478
  217MOL0     C29216   4.215  -0.056   6.690 -0.4893 -0.1305 -0.6862
  217MOL0     C29217   4.307  -0.146   6.737  0.6711 -0.2266  0.2173
  217MOL0     C29218   4.362  -0.124   6.864  0.1356 -1.0318  0.1782
  217MOL0     O29219   4.438  -0.213   6.936 -1.0555 -0.1344 -0.0629
  217MOL0     C29220   4.494  -0.332   6.876  0.0919 -1.3837  0.3738
  217MOL0     C29221   4.543  -0.431   6.983  0.1714  1.0825  0.1989
  217MOL0     C29222   4.435  -0.477   7.091  0.5254 -1.0090 -0.2815
  217MOL0     C29223   4.484  -0.594   7.187 -0.0692 -0.5657 -0.4842
  217MOL0     C29224   4.578  -0.554   7.292  0.0997 -0.2822 -0.3837
  217MOL0     C29225   4.654  -0.527   7.387  0.0474 -0.1666 -0.2153
  217MOL0     C29226   4.326  -0.011   6.933 -0.1286  0.3775 -0.0303
  217MOL0     C29227   4.238   0.085   6.888  0.4645 -1.0089 -0.3233
  217MOL0     H29228   4.226   0.468   6.618  0.2612  1.2498  1.4696
  217MOL0     H29229   4.123   0.653   6.489  0.3699  1.3933  0.6690
  217MOL0     H29230   3.874   0.900   6.399  1.2448  0.3240  1.9497
  217MOL0     H29231   4.010   0.807   6.388  0.0548 -0.5111 -1.1565
  217MOL0     H29232   3.884   0.798   6.173 -0.6943  2.9036  1.6228
  217MOL0     H29233   3.872   0.634   6.237 -1.3505 -0.0128  1.4652
  217MOL0     H29234   3.628   0.709   6.319 -1.8992  1.3025 -0.7802
  217MOL0     H29235   3.676   0.855   6.239 -1.1982  0.3647 -2.1366
  217MOL0     H29236   3.651   0.780   6.029  1.4123  1.8249  1.6074
  217MOL0     H29237   3.714   0.617   6.068  1.8795  1.9165  0.9251
  217MOL0     H29238   3.499   0.611   5.969  0.1826 -2.2485  0.2220
  217MOL0     H29239   3.478   0.562   6.145  1.0667 -1.8402 -1.6218
  217MOL0     H29240   3.421   0.792   6.195  1.9494 -1.0763  0.3812
  217MOL0     H29241   3.440   0.835   6.021 -1.5732 -2.1565 -3.1596
  217MOL0     H29242   3.267   0.647   5.976  0.8608  2.6587 -1.2139
  217MOL0     H29243   3.226   0.688   6.155 -2.1377 -0.0952  0.6039
  217MOL0     H29244   3.243   0.894   5.922  1.3372  0.9064  0.7973
  217MOL0     H29245   3.178   0.922   6.084  3.2900  0.5890 -0.1371
  217MOL0     H29246   3.088   0.746   5.736 -1.5515  2.3847 -2.2605
  217MOL0     H29247   2.697   0.775   5.741 -0.2947  0.1958 -0.0054
  217MOL0     H29248   2.817   0.676   5.647  0.7757 -1.6311  0.3982
  217MOL0     H29249   2.768   0.552   5.912 -2.1874 -2.1586  1.6772
  217MOL0     H29250   2.780   0.482   5.753 -1.2137 -1.3126  2.2286
  217MOL0     H29251   2.548   0.456   5.845  0.4900 -0.0110  1.1508
  217MOL0     H29252   2.552   0.554   5.700 -0.0935  0.0018  0.1045
  217MOL0     H29253   2.551   0.766   5.871  1.0789  1.0602  5.3892
  217MOL0     H29254   2.525   0.661   5.999 -0.7650 -1.2707  0.4644
  217MOL0     H29255   2.287   0.848   5.699  0.0819 -0.3333  0.8329
  217MOL0     H29256   2.036   1.079   5.697 -0.1567 -0.2563  2.1290
  217MOL0     H29257   2.184   1.175   5.729  2.8853 -0.2218  1.3190
  217MOL0     H29258   2.197   1.037   5.628  0.7109 -1.4875  0.4153
  217MOL0     H29259   1.778   1.086   6.185 -0.3621 -0.3395 -1.1958
  217MOL0     H29260   1.604   1.270   6.263  0.7785 -1.0755  2.5099
  217MOL0     H29261   1.495   1.439   6.258 -0.0080  0.6396 -1.0576
  217MOL0     H29262   1.515   1.391   6.426  3.1477 -0.3352  1.1979
  217MOL0     H29263   1.331   1.558   6.400 -0.4912 -0.2654 -2.5800
  217MOL0     H29264   1.454   1.624   6.507  0.2037 -2.7916  0.6406
  217MOL0     H29265   1.459   1.678   6.199 -1.8155  0.0799 -0.5560
  217MOL0     H29266   1.552   1.754   6.342 -1.2871 -0.5153  2.8425
  217MOL0     H29267   1.247   1.774   6.310 -0.8440  2.5888 -0.7852
  217MOL0     H29268   1.358   1.890   6.386  0.3262 -0.8033  1.0543
  217MOL0     H29269   1.327   1.849   6.082  4.0069  0.4836 -1.2260
  217MOL0     H29270   1.431   1.964   6.153 -0.2424 -1.5400 -2.3324
  217MOL0     H29271   1.144   1.966   6.236 -0.7081 -0.6332 -3.1179
  217MOL0     H29272   1.270   2.092   6.262 -1.5091  2.2891 -0.0929
  217MOL0     H29273   1.125   2.012   5.998 -2.9419  2.1784 -2.4356
  217MOL0     H29274   1.262   2.125   6.004 -0.8819  2.3606  0.6421
  217MOL0     H29275   1.077   2.274   6.020 -1.6061 -0.3686 -1.0794
  217MOL0     H29276   1.112   2.251   6.193 -2.1974 -0.8740  1.5393
  217MOL0     H29277   1.929   1.535   6.337 -0.4497 -0.4693  0.4426
  217MOL0     H29278   2.083   1.362   6.237 -0.5627  0.4170 -1.2391
  217MOL0     H29279   2.158   0.917   6.179  2.8020 -0.0183  0.8784
  217MOL0     H29280   2.269   0.733   6.123  0.9062  2.5881  1.8903
  217MOL0     H29281   3.735   0.552   6.646 -0.1346  1.1359 -1.1194
  217MOL0     H29282   3.834   0.379   6.770  1.3072  1.7612  2.7133
  217MOL0     H29283   4.168  -0.077   6.595 -0.5916  1.7741 -1.0922
  217MOL0     H29284   4.330  -0.238   6.684 -1.9898 -0.3298 -0.9198
  217MOL0     H29285   4.426  -0.384   6.808 -2.3865  1.1972  0.7205
  217MOL0     H29286   4.584  -0.301   6.821  0.8228 -0.3535  2.0812
  217MOL0     H29287   4.621  -0.382   7.041  1.4108 -1.0071  0.4274
  217MOL0     H29288   4.579  -0.520   6.930  1.0763  1.0089  0.9129
  217MOL0     H29289   4.357  -0.517   7.026 -0.3519  0.4425 -0.1500
  217MOL0     H29290   4.387  -0.394   7.143 -0.4824 -2.3550  0.9895
  217MOL0     H29291   4.524  -0.673   7.123 -0.5364 -1.3097  0.1184
  217MOL0     H29292   4.398  -0.641   7.237 -0.0337 -1.7120 -1.4534
  217MOL0     H29293   4.726  -0.517   7.465  1.3513  0.7818 -1.4748
  217MOL0     H29294   4.345   0.013   7.037  0.9084  1.5370 -0.4613
  217MOL0     H29295   4.208   0.165   6.955 -1.5940 -1.5949 -0.4887
  218MOL0     O29296   5.843   5.688   9.632  0.0467  0.3355 -0.1099
  218MOL0     C29297   5.887   5.573   9.658  0.3796 -0.8654 -0.2095
  218MOL0     O29298   5.812   5.456   9.660  0.1361  0.4994 -0.3973
  218MOL0     C29299   5.685   5.453   9.605 -0.1226 -0.5762 -0.5385
  218MOL0     C29300   5.656   5.505   9.479 -0.4612 -1.0126  0.4483
  218MOL0     C29301   5.523   5.511   9.431  0.3897  0.1312 -0.3588
  218MOL0     C29302   5.419   5.457   9.504 -0.7526  0.6648  0.7514
  218MOL0     O29303   5.304   5.468   9.440  0.2426 -0.5023 -0.1899
  218MOL0     C29304   5.204   5.504   9.535  0.0448  0.4967  0.3963
  218MOL0     C29305   5.090   5.582   9.469 -0.5609 -0.4499 -1.3932
  218MOL0     C29306   4.980   5.573   9.573 -0.1584 -0.7558  0.6422
  218MOL0     C29307   4.886   5.700   9.559 -0.0074 -0.7584 -0.6715
  218MOL0     C29308   4.752   5.682   9.632  0.3927  0.4801  0.2108
  218MOL0     C29309   4.667   5.809   9.635  0.0381 -0.5632 -1.1961
  218MOL0     C29310   4.517   5.800   9.661  0.8185 -0.2997  0.6011
  218MOL0     C29311   4.495   5.756   9.806  0.7040  0.9345 -1.2300
  218MOL0     N29312   4.362   5.778   9.848 -0.3653  0.0986  0.4400
  218MOL0     C29313   4.255   5.716   9.801 -0.0159  0.0664  0.4268
  218MOL0     C29314   4.149   5.767   9.865 -0.3784 -0.7854 -0.1781
  218MOL0     C29315   3.999   5.736   9.842  0.0567 -0.2554  0.1273
  218MOL0     C29316   3.924   5.851   9.774  0.0539 -0.4030  0.0838
  218MOL0     C29317   3.785   5.819   9.710 -0.7908  0.3836 -0.0945
  218MOL0     C29318   3.679   5.785   9.819  0.1900 -0.1194 -0.1281
  218MOL0     O29319   3.546   5.761   9.762  0.2726 -0.1629  0.7809
  218MOL0     C29320   3.436   5.745   9.840 -0.6723  0.7539 -0.7207
  218MOL0     C29321   3.443   5.758   9.979  0.5687  0.4272  0.1719
  218MOL0     C29322   3.327   5.745  10.066 -0.3389 -0.4992  0.5820
  218MOL0     C29323   3.350   5.765  10.221 -0.2492 -0.0757 -0.4510
  218MOL0     C29324   3.199   5.724  10.009  0.2594  0.8190  0.5072
  218MOL0     C29325   3.074   5.706  10.082  0.2593  0.0639 -0.4025
  218MOL0     O29326   2.959   5.728  10.015  0.0678 -0.1635  0.2915
  218MOL0     C29327   2.840   5.707  10.081  0.6091 -0.1212  0.0242
  218MOL0     C29328   2.750   5.597  10.057  0.1881  0.1292  0.0765
  218MOL0     C29329   2.629   5.582  10.128 -0.1981 -1.0181  0.1835
  218MOL0     C29330   2.576   5.679  10.213 -0.3428 -0.1754  0.4718
  218MOL0     O29331   2.456   5.661  10.271  0.9871 -0.0617  0.7400
  218MOL0     C29332   2.403   5.778  10.338  1.3236  0.2865 -0.5097
  218MOL0     C29333   2.254   5.743  10.375 -0.2703  0.4143  0.0782
  218MOL0     C29334   2.160   5.865  10.382 -0.0269  0.2568 -0.5841
  218MOL0     C29335   2.023   5.825  10.449  0.1742  0.4177  0.9308
  218MOL0     C29336   1.902   5.925  10.412 -1.2564  0.1647  0.5710
  218MOL0     C29337   1.765   5.889  10.457 -0.7655  0.4805  0.7313
  218MOL0     C29338   1.759   5.817  10.592 -0.4798  0.5358 -1.1660
  218MOL0     C29339   1.636   5.735  10.625  0.0559  0.6066 -0.3321
  218MOL0    Cl29340   1.604   5.613  10.500  0.2219  0.1534  0.0561
  218MOL0     C29341   2.668   5.784  10.242 -0.7777 -1.1552 -0.0527
  218MOL0     C29342   2.788   5.803  10.161 -0.7601  0.5151 -1.1235
  218MOL0     O29343   3.078   5.666  10.198 -1.0792 -0.6378  0.1272
  218MOL0     C29344   3.189   5.719   9.865 -0.4259  0.6261  0.5554
  218MOL0     C29345   3.305   5.722   9.785  0.2898 -0.1203  0.3073
  218MOL0     N29346   4.191   5.853   9.960 -0.2264 -0.0321 -0.2999
  218MOL0     N29347   4.323   5.869   9.938 -0.0963 -0.6059 -0.8730
  218MOL0     C29348   5.451   5.396   9.627  0.1298  0.0775 -0.1184
  218MOL0     C29349   5.579   5.396   9.683 -0.3998 -0.5662  0.4482
  218MOL0     C29350   6.023   5.566   9.698  0.2084  0.1368 -0.1624
  218MOL0     C29351   6.091   5.665   9.773  0.1613 -0.3319  0.5974
  218MOL0     C29352   6.227   5.669   9.794  1.0745 -0.2667  0.2243
  218MOL0     C29353   6.305   5.565   9.728  0.3799  0.2596 -0.3353
  218MOL0     O29354   6.442   5.586   9.727 -0.2920 -0.0680 -0.6956
  218MOL0     C29355   6.524   5.467   9.718 -0.3210 -0.1793  0.5295
  218MOL0     C29356   6.664   5.503   9.752 -0.2344  0.0199 -0.7400
  218MOL0     C29357   6.693   5.507   9.898  0.4012  0.2003 -0.5016
  218MOL0     C29358   6.838   5.565   9.922  0.2655  0.5829 -0.2349
  218MOL0     C29359   6.937   5.461   9.867  0.0608  0.1001 -0.8250
  218MOL0     C29360   7.003   5.363   9.830 -1.0171 -0.6804 -0.7955
  218MOL0     C29361   6.236   5.456   9.673 -0.2727 -0.2112  0.2082
  218MOL0     C29362   6.097   5.451   9.665 -0.4740  0.2198 -0.2280
  218MOL0     H29363   5.734   5.548   9.417 -1.9746  0.5212 -0.4715
  218MOL0     H29364   5.501   5.558   9.336 -1.9559  2.1301  1.0362
  218MOL0     H29365   5.153   5.414   9.572  0.2084 -0.5847 -1.8300
  218MOL0     H29366   5.244   5.555   9.623 -1.8174  1.1814  0.9006
  218MOL0     H29367   5.115   5.686   9.448 -2.7413  0.1374 -1.3299
  218MOL0     H29368   5.079   5.530   9.373  1.8249  0.6355 -2.3474
  218MOL0     H29369   4.919   5.482   9.565 -1.4830  0.1739 -0.3592
  218MOL0     H29370   5.017   5.580   9.676 -1.7549 -0.6360  1.2482
  218MOL0     H29371   4.941   5.787   9.596 -3.9806  2.6002 -1.9420
  218MOL0     H29372   4.870   5.721   9.453  3.1930 -0.9699 -1.2935
  218MOL0     H29373   4.704   5.589   9.599  1.3974 -0.4653  1.3223
  218MOL0     H29374   4.775   5.670   9.738 -0.8620 -0.1631  0.4421
  218MOL0     H29375   4.709   5.876   9.711  2.3618 -2.3435 -0.8037
  218MOL0     H29376   4.672   5.860   9.538 -2.3546 -1.0425 -1.6136
  218MOL0     H29377   4.478   5.901   9.645 -0.3872 -0.3867  2.6350
  218MOL0     H29378   4.463   5.727   9.600 -1.4586  1.3847  0.4248
  218MOL0     H29379   4.564   5.809   9.872 -0.0125  1.1241 -0.6162
  218MOL0     H29380   4.510   5.648   9.814  0.0578  0.9101 -0.0845
  218MOL0     H29381   4.253   5.636   9.728  1.1218 -0.8217  1.3315
  218MOL0     H29382   4.001   5.648   9.777 -0.4782  0.0698 -0.3339
  218MOL0     H29383   3.955   5.707   9.938  0.5764 -3.3388 -0.4622
  218MOL0     H29384   3.993   5.876   9.693 -1.4144 -2.9178 -2.1146
  218MOL0     H29385   3.906   5.931   9.846 -2.0012 -1.1747  0.5168
  218MOL0     H29386   3.795   5.732   9.644 -0.5474  1.3503 -1.3558
  218MOL0     H29387   3.760   5.904   9.646  0.5554  2.1844  1.6448
  218MOL0     H29388   3.675   5.866   9.893  1.6555 -0.4859  0.3796
  218MOL0     H29389   3.714   5.699   9.876 -0.9859 -2.5507 -2.8468
  218MOL0     H29390   3.535   5.782  10.030  0.1525  5.2243 -0.9346
  218MOL0     H29391   3.273   5.825  10.270  1.5877  0.3498  2.1300
  218MOL0     H29392   3.339   5.662  10.256 -2.1548 -1.3685 -4.3155
  218MOL0     H29393   3.449   5.796  10.257 -0.5006  0.8634 -0.5296
  218MOL0     H29394   2.792   5.525   9.988  0.7968 -2.2955  2.7757
  218MOL0     H29395   2.572   5.491  10.115  0.3754 -1.4808  0.8371
  218MOL0     H29396   2.459   5.812  10.425 -0.1777  1.3827  0.0790
  218MOL0     H29397   2.401   5.862  10.268  0.1946  0.4526 -0.3050
  218MOL0     H29398   2.204   5.672  10.308  0.7384 -0.6685  0.4360
  218MOL0     H29399   2.246   5.696  10.473  0.5778 -0.9444 -0.4727
  218MOL0     H29400   2.151   5.899  10.278 -1.5412  0.0132 -0.5464
  218MOL0     H29401   2.200   5.941  10.450 -2.0177  2.1278 -1.3801
  218MOL0     H29402   1.997   5.722  10.422  2.6431 -0.6379  2.2186
  218MOL0     H29403   2.027   5.817  10.558 -1.0755 -2.8223  0.8429
  218MOL0     H29404   1.898   5.931  10.303 -1.9178  1.8817  0.6673
  218MOL0     H29405   1.926   6.021  10.459 -2.7823  2.8998 -3.7107
  218MOL0     H29406   1.710   5.984  10.457 -0.9534  0.3784  0.0754
  218MOL0     H29407   1.720   5.819  10.386 -0.4074  1.4017 -0.4374
  218MOL0     H29408   1.771   5.895  10.668  3.0404  0.2177 -1.2322
  218MOL0     H29409   1.844   5.755  10.622 -2.3915 -1.0897  1.3350
  218MOL0     H29410   1.553   5.805  10.638 -1.3142 -0.0704 -4.1591
  218MOL0     H29411   1.650   5.688  10.722 -3.1683  2.1495  0.9947
  218MOL0     H29412   2.654   5.854  10.324 -0.0527 -3.2006  1.9044
  218MOL0     H29413   2.844   5.891  10.193  4.9254 -2.7212 -0.8288
  218MOL0     H29414   3.092   5.695   9.821  0.6666 -2.6401 -0.3501
  218MOL0     H29415   3.302   5.715   9.677 -0.1274 -0.4799  0.3417
  218MOL0     H29416   5.366   5.361   9.685 -0.4535  2.4836  0.5995
  218MOL0     H29417   5.616   5.360   9.779  0.5652  2.3154  1.2644
  218MOL0     H29418   6.033   5.745   9.817  0.9976 -0.7353  2.5435
  218MOL0     H29419   6.273   5.745   9.855 -1.5466  2.4354 -0.9308
  218MOL0     H29420   6.499   5.405   9.805  1.1013  2.1942  2.7725
  218MOL0     H29421   6.512   5.413   9.624 -0.3181  0.2873  0.2598
  218MOL0     H29422   6.690   5.595   9.699 -0.5414  0.5174 -0.0430
  218MOL0     H29423   6.718   5.424   9.698 -1.7653 -0.7623 -1.1594
  218MOL0     H29424   6.672   5.407   9.935 -1.8035  0.7108 -0.2281
  218MOL0     H29425   6.611   5.567   9.939 -1.1601 -1.2129 -1.4038
  218MOL0     H29426   6.865   5.586  10.026 -1.5595  1.4286  0.1065
  218MOL0     H29427   6.840   5.666   9.879  0.6135  0.4710 -0.4755
  218MOL0     H29428   7.068   5.292   9.783 -2.0077 -1.8684 -0.4089
  218MOL0     H29429   6.288   5.380   9.616 -2.3198  1.0596 -3.7161
  218MOL0     H29430   6.045   5.363   9.629  1.7242 -2.6463  3.0333
  219MOL0     O29431   4.183  10.691  10.324 -0.5660  0.5393 -0.2872
  219MOL0     C29432   4.236  10.669  10.438 -0.2867 -0.8380  0.2753
  219MOL0     O29433   4.177  10.663  10.555  0.8308  0.1507 -0.0856
  219MOL0     C29434   4.044  10.652  10.561 -0.0984  0.2161 -0.9789
  219MOL0     C29435   3.997  10.551  10.644  0.3805 -0.3712 -0.0413
  219MOL0     C29436   3.868  10.536  10.682  0.3253 -0.9667 -0.4603
  219MOL0     C29437   3.777  10.629  10.621  0.1522  0.1185 -0.9327
  219MOL0     O29438   3.648  10.596  10.647 -0.4044 -0.2720 -0.1865
  219MOL0     C29439   3.543  10.662  10.584  1.4252 -0.4505 -0.2323
  219MOL0     C29440   3.415  10.577  10.607  0.3336  0.2064 -0.0462
  219MOL0     C29441   3.429  10.423  10.559 -0.0547  0.0485 -1.1815
  219MOL0     C29442   3.336  10.337  10.643 -0.0308  0.1474 -0.2822
  219MOL0     C29443   3.186  10.333  10.601  0.3827  0.4095 -0.6039
  219MOL0     C29444   3.122  10.235  10.705  0.8532  0.3781  0.0131
  219MOL0     C29445   2.977  10.201  10.653 -0.3506  0.0916  0.9615
  219MOL0     C29446   2.908  10.118  10.756 -0.3840  0.1395 -0.9408
  219MOL0     N29447   2.764  10.089  10.732 -0.4399 -0.0058  0.3397
  219MOL0     C29448   2.731   9.984  10.648 -0.6428 -0.8808 -0.1408
  219MOL0     C29449   2.598   9.999  10.634  0.5207 -0.6893  0.3359
  219MOL0     C29450   2.510   9.906  10.567 -0.4755 -0.4807  0.4353
  219MOL0     C29451   2.377   9.971  10.524 -0.0296  0.3125  0.2510
  219MOL0     C29452   2.272   9.868  10.475 -0.4577 -0.0506 -0.0056
  219MOL0     C29453   2.134   9.944  10.463 -0.7197  0.7628  0.2100
  219MOL0     O29454   2.037   9.847  10.405 -0.2842 -0.4457 -0.2062
  219MOL0     C29455   1.950   9.770  10.481  0.4683  0.0007 -0.9087
  219MOL0     C29456   1.884   9.669  10.412 -0.0796 -0.4141 -0.8690
  219MOL0     C29457   1.781   9.594  10.465 -0.0222 -0.2832  0.0194
  219MOL0     C29458   1.722   9.480  10.382 -0.6639  0.5244 -0.1582
  219MOL0     C29459   1.747   9.614  10.596  0.1202 -0.4340  0.2704
  219MOL0     C29460   1.642   9.541  10.668  0.1769  0.2345  0.3668
  219MOL0     O29461   1.537   9.495  10.602  0.1891  0.4090  0.5994
  219MOL0     C29462   1.440   9.412  10.651 -0.4383  0.0708  0.5537
  219MOL0     C29463   1.322   9.406  10.585  0.2459 -0.8334 -0.7107
  219MOL0     C29464   1.212   9.333  10.641  0.1308 -0.4553 -0.4476
  219MOL0     C29465   1.216   9.274  10.768 -0.7962 -0.6682  0.2978
  219MOL0     O29466   1.109   9.215  10.827 -0.8796 -0.3979 -0.3407
  219MOL0     C29467   1.110   9.078  10.812  0.0420  0.4333 -0.5807
  219MOL0     C29468   0.973   9.016  10.839  0.5624  0.3807  0.3956
  219MOL0     C29469   0.855   9.095  10.783  0.8587  0.9207 -0.1011
  219MOL0     C29470   0.854   9.088  10.627 -0.8006  0.1995  0.4030
  219MOL0     C29471   0.723   9.151  10.572  0.5539 -0.4257 -0.0882
  219MOL0     C29472   0.708   9.167  10.423  0.3468  1.2207  0.8498
  219MOL0     C29473   0.791   9.283  10.355  0.1039  0.0534  0.5052
  219MOL0     C29474   0.731   9.320  10.219  0.1778 -0.2728  0.0184
  219MOL0    Cl29475   0.560   9.375  10.216 -0.2974 -0.3457 -0.0934
  219MOL0     C29476   1.336   9.282  10.833 -0.3567 -1.0039 -0.0450
  219MOL0     C29477   1.454   9.339  10.774  0.8861 -0.5140  0.5577
  219MOL0     O29478   1.655   9.540  10.789 -0.4646  0.1257  0.1208
  219MOL0     C29479   1.830   9.706  10.673 -0.2340  0.4118  0.5044
  219MOL0     C29480   1.926   9.786  10.617 -0.2425  0.3553  0.3624
  219MOL0     N29481   2.553  10.109  10.698 -0.0050  0.1563  0.5695
  219MOL0     N29482   2.654  10.168  10.760 -0.5154  0.4544 -0.0232
  219MOL0     C29483   3.823  10.736  10.540 -0.9192  0.8300  0.2905
  219MOL0     C29484   3.961  10.754  10.502  0.8483 -0.0963  0.3438
  219MOL0     C29485   4.387  10.658  10.447 -0.8742 -0.5181  0.5127
  219MOL0     C29486   4.469  10.629  10.337  0.0170 -0.5159 -0.3386
  219MOL0     C29487   4.610  10.616  10.361 -0.1763 -0.5341 -0.1232
  219MOL0     C29488   4.665  10.627  10.488  0.1229 -0.6325 -0.0627
  219MOL0     O29489   4.798  10.610  10.501  0.2617  0.6841  0.8136
  219MOL0     C29490   4.858  10.624  10.626  0.0710 -1.1532 -0.3747
  219MOL0     C29491   5.008  10.594  10.626  0.0948 -0.1272 -0.6826
  219MOL0     C29492   5.102  10.700  10.687 -0.1865  0.4359 -0.2436
  219MOL0     C29493   5.081  10.736  10.832 -0.3496  0.2575 -0.3466
  219MOL0     C29494   5.019  10.868  10.856  0.3349 -0.5474  0.0584
  219MOL0     C29495   4.980  10.989  10.872  0.4246  0.7092 -0.2861
  219MOL0     C29496   4.584  10.659  10.595 -0.0137  0.9021  0.4029
  219MOL0     C29497   4.449  10.683  10.578  0.6812  0.1767 -0.5683
  219MOL0     H29498   4.076  10.490  10.687  1.4338  0.7464 -0.3155
  219MOL0     H29499   3.838  10.448  10.738 -1.8419  0.2060  0.3605
  219MOL0     H29500   3.535  10.765  10.622 -2.9205  0.0670 -1.9541
  219MOL0     H29501   3.568  10.672  10.478  0.9510 -1.1186 -0.4099
  219MOL0     H29502   3.384  10.582  10.712 -2.8275  1.4696 -0.9077
  219MOL0     H29503   3.322  10.611  10.561 -1.8312 -2.6280  1.8791
  219MOL0     H29504   3.399  10.424  10.454 -0.0062  1.2971 -1.1982
  219MOL0     H29505   3.534  10.392  10.568  0.3829 -0.2790 -5.3775
  219MOL0     H29506   3.370  10.236  10.616 -2.5115 -0.2650 -2.2814
  219MOL0     H29507   3.347  10.355  10.750 -0.4638 -0.5456 -0.1124
  219MOL0     H29508   3.143  10.433  10.609  0.3558  0.3450  0.1524
  219MOL0     H29509   3.166  10.294  10.501 -1.1666  1.4948 -0.7535
  219MOL0     H29510   3.190  10.152  10.730  0.4058  0.4132  1.4698
  219MOL0     H29511   3.098  10.283  10.800  0.5355  0.5346 -0.1471
  219MOL0     H29512   2.927  10.298  10.646 -0.7646 -0.2059 -4.4411
  219MOL0     H29513   2.960  10.145  10.560  0.7353  0.0273  0.7932
  219MOL0     H29514   2.906  10.176  10.849 -4.3600  1.6482 -1.7833
  219MOL0     H29515   2.966  10.027  10.771  0.6122  0.0584 -4.4389
  219MOL0     H29516   2.795   9.910  10.601 -0.2633  0.0304 -1.0951
  219MOL0     H29517   2.569   9.870  10.482  0.9707  0.7791  0.8505
  219MOL0     H29518   2.491   9.824  10.637 -1.8574 -0.7288 -0.1931
  219MOL0     H29519   2.390  10.050  10.450 -0.7648  1.2018  1.0498
  219MOL0     H29520   2.322  10.016  10.607 -1.7267  2.9730 -2.1332
  219MOL0     H29521   2.269   9.785  10.546  2.2483  0.7227  1.1622
  219MOL0     H29522   2.290   9.832  10.374 -1.6318 -1.8289  0.3867
  219MOL0     H29523   2.149  10.038  10.410  2.0623  1.3279  1.8139
  219MOL0     H29524   2.101   9.977  10.562 -2.8425 -1.0622  0.1941
  219MOL0     H29525   1.900   9.656  10.305 -0.8629  4.4115 -1.8466
  219MOL0     H29526   1.634   9.520  10.332  1.4126  3.0783 -2.0712
  219MOL0     H29527   1.800   9.453  10.310  1.6690  1.1655  1.9569
  219MOL0     H29528   1.707   9.385  10.435  2.1506 -0.7970 -1.5077
  219MOL0     H29529   1.304   9.448  10.487  0.0483 -1.9618 -1.1731
  219MOL0     H29530   1.120   9.331  10.584 -0.8641 -0.6207  1.1134
  219MOL0     H29531   1.121   9.058  10.705  0.5328  0.1656 -0.4806
  219MOL0     H29532   1.181   9.027  10.878  0.1109  0.4146 -0.6697
  219MOL0     H29533   0.972   8.914  10.798  0.4280  0.8045 -0.6977
  219MOL0     H29534   0.953   9.005  10.946 -1.0035 -1.7309 -0.0526
  219MOL0     H29535   0.847   9.197  10.822  1.8110  0.4913  1.2870
  219MOL0     H29536   0.758   9.059  10.818  1.3021  0.3364  0.5623
  219MOL0     H29537   0.948   9.129  10.590  0.7006 -2.8205  0.5826
  219MOL0     H29538   0.863   8.984  10.595  2.0325  0.8384 -1.1820
  219MOL0     H29539   0.701   9.251  10.610  0.7708 -1.6085  3.5313
  219MOL0     H29540   0.647   9.079  10.603  1.0810 -1.0995 -0.3504
  219MOL0     H29541   0.731   9.071  10.374 -2.6823  1.0926 -0.5700
  219MOL0     H29542   0.603   9.186  10.398  0.5684  0.9903 -0.3254
  219MOL0     H29543   0.896   9.260  10.338 -0.0633 -0.1706 -0.2603
  219MOL0     H29544   0.797   9.370  10.421  2.6992  1.0531 -0.9142
  219MOL0     H29545   0.730   9.240  10.145 -1.8303 -1.7438  1.5226
  219MOL0     H29546   0.781   9.406  10.173  0.4429 -0.9672 -1.0080
  219MOL0     H29547   1.326   9.241  10.933 -2.5230  0.2074  0.3076
  219MOL0     H29548   1.549   9.335  10.826  1.2373  0.9049  0.0732
  219MOL0     H29549   1.811   9.712  10.780  2.1909 -0.4558  1.0575
  219MOL0     H29550   1.980   9.858  10.677 -0.6219  1.6501 -0.7874
  219MOL0     H29551   3.750  10.807  10.502 -0.3283 -0.3783 -3.4907
  219MOL0     H29552   3.995  10.835  10.439  1.7636 -2.2845 -2.1495
  219MOL0     H29553   4.428  10.606  10.240 -0.1152  1.5458 -0.8221
  219MOL0     H29554   4.674  10.584  10.280  3.6869 -2.9664  3.4955
  219MOL0     H29555   4.843  10.729  10.651 -1.6147 -1.6967  1.1272
  219MOL0     H29556   4.806  10.586  10.714  0.1516 -0.8536 -0.1967
  219MOL0     H29557   5.036  10.561  10.525 -1.1767 -4.4664  0.1849
  219MOL0     H29558   5.019  10.505  10.688 -1.7947  1.3761  1.9992
  219MOL0     H29559   5.107  10.788  10.622  0.6371  0.9271  0.4538
  219MOL0     H29560   5.204  10.661  10.691  0.9869  3.3296  1.5824
  219MOL0     H29561   5.173  10.744  10.890 -2.0073  0.1144  2.5207
  219MOL0     H29562   5.037  10.654  10.890  2.2596 -0.3696  0.8723
  219MOL0     H29563   4.959  11.093  10.889  0.6566  0.5398  1.1843
  219MOL0     H29564   4.617  10.668  10.698  0.5935  1.1426  0.1958
  219MOL0     H29565   4.380  10.705  10.659  1.0533  1.9468 -0.6830
  220MOL0     O29566   6.196   2.242   9.520  0.1714 -0.0882 -0.1398
  220MOL0     C29567   6.194   2.344   9.587  0.8651  0.3408  0.1223
  220MOL0     O29568   6.078   2.393   9.646  0.0223  0.7456 -0.5042
  220MOL0     C29569   5.954   2.340   9.619  0.4992 -0.0751 -0.8874
  220MOL0     C29570   5.910   2.327   9.489 -0.0550 -0.2349 -0.2878
  220MOL0     C29571   5.774   2.301   9.472  0.1154 -0.2014  0.9617
  220MOL0     C29572   5.679   2.297   9.572  0.2008 -0.6515  0.4779
  220MOL0     O29573   5.554   2.279   9.525 -0.0151  0.5802  0.0131
  220MOL0     C29574   5.456   2.379   9.547  1.3175 -0.8938 -0.2645
  220MOL0     C29575   5.321   2.341   9.481 -0.6831  0.4309 -0.0097
  220MOL0     C29576   5.349   2.325   9.330  0.1594  0.3460 -1.1714
  220MOL0     C29577   5.226   2.288   9.251  0.4370 -0.3274  0.7587
  220MOL0     C29578   5.249   2.278   9.096  0.4449 -0.1973 -0.5613
  220MOL0     C29579   5.157   2.187   9.021 -0.1998 -0.7361  0.1117
  220MOL0     C29580   5.205   2.145   8.887  0.1324 -0.4596  0.6864
  220MOL0     C29581   5.203   2.258   8.781 -0.0764  0.3185  0.4558
  220MOL0     N29582   5.069   2.306   8.761 -0.0192 -0.0424  1.5226
  220MOL0     C29583   4.965   2.223   8.726 -0.0479 -0.7693 -0.3254
  220MOL0     C29584   4.853   2.298   8.740 -0.3361  0.1894  0.3249
  220MOL0     C29585   4.714   2.281   8.710  0.6270  0.0138  0.4001
  220MOL0     C29586   4.643   2.264   8.847  0.7735  0.3184 -0.2422
  220MOL0     C29587   4.494   2.260   8.832 -0.1520 -0.5383 -0.5949
  220MOL0     C29588   4.435   2.133   8.794  0.8248 -0.5416  0.7758
  220MOL0     O29589   4.404   2.121   8.650 -0.1424 -0.6856 -0.4033
  220MOL0     C29590   4.275   2.142   8.612 -0.2394  0.4617  0.5577
  220MOL0     C29591   4.252   2.099   8.485 -0.1448 -0.7222  0.4512
  220MOL0     C29592   4.123   2.132   8.424 -0.2581 -0.6696 -0.4554
  220MOL0     C29593   4.099   2.094   8.278 -0.2725  0.0752 -0.1681
  220MOL0     C29594   4.020   2.189   8.511  0.7257  1.0745 -0.5831
  220MOL0     C29595   3.879   2.193   8.469  0.4688 -0.6956  0.3300
  220MOL0     O29596   3.785   2.179   8.561 -0.1966 -0.2517  0.3418
  220MOL0     C29597   3.657   2.200   8.527  0.0344 -0.0529 -1.3141
  220MOL0     C29598   3.575   2.105   8.567  0.2994 -0.3764 -0.1835
  220MOL0     C29599   3.441   2.116   8.544  0.7507 -0.3516  0.6335
  220MOL0     C29600   3.388   2.241   8.505  0.0606  0.8268  0.0697
  220MOL0     O29601   3.254   2.260   8.488  0.2271 -0.0326  0.1517
  220MOL0     C29602   3.151   2.187   8.568  0.3479 -0.0356  0.1349
  220MOL0     C29603   3.012   2.206   8.515  0.2055 -0.0652  0.5587
  220MOL0     C29604   3.006   2.152   8.375 -0.1735 -0.0255 -0.7192
  220MOL0     C29605   2.866   2.146   8.335 -0.1413  0.2720 -0.2964
  220MOL0     C29606   2.858   2.094   8.192  0.0693  0.5503 -0.2572
  220MOL0     C29607   2.916   1.953   8.173 -0.1320 -0.2251  0.6288
  220MOL0     C29608   2.879   1.882   8.045 -0.6232 -0.6699  0.1299
  220MOL0     C29609   2.938   1.960   7.929 -0.5709  0.3611 -0.3976
  220MOL0    Cl29610   3.122   1.957   7.948 -0.2231  0.1003 -0.2744
  220MOL0     C29611   3.472   2.354   8.471 -0.4988  0.7436  0.1643
  220MOL0     C29612   3.609   2.322   8.486  0.3467 -0.8671  0.7261
  220MOL0     O29613   3.846   2.221   8.352 -0.2063  0.1809  0.2274
  220MOL0     C29614   4.049   2.214   8.648  0.1014  0.2048 -0.2422
  220MOL0     C29615   4.176   2.198   8.694  0.7590  0.3495  0.2324
  220MOL0     N29616   4.881   2.419   8.791 -0.3118 -0.1550 -1.1194
  220MOL0     N29617   5.015   2.420   8.809 -0.2022 -0.4301 -0.6273
  220MOL0     C29618   5.721   2.317   9.695  0.3567  0.2720  0.3245
  220MOL0     C29619   5.860   2.329   9.727 -0.0612 -0.7799 -0.4642
  220MOL0     C29620   6.324   2.414   9.597 -0.9026  1.4666 -0.2601
  220MOL0     C29621   6.424   2.408   9.493  0.2551  0.0662 -0.3715
  220MOL0     C29622   6.545   2.473   9.520  0.2122  0.6125  0.0465
  220MOL0     C29623   6.566   2.559   9.630  0.2685 -0.2564  0.1684
  220MOL0     O29624   6.674   2.641   9.624 -0.3236  0.0261  0.6481
  220MOL0     C29625   6.661   2.769   9.685  0.4377  0.1150 -0.2964
  220MOL0     C29626   6.759   2.864   9.618  0.7831 -0.6223  0.3279
  220MOL0     C29627   6.896   2.809   9.603 -0.3009  0.5718 -0.6664
  220MOL0     C29628   6.999   2.921   9.565 -0.0137 -0.0277 -1.2863
  220MOL0     C29629   7.132   2.865   9.549 -0.0614 -0.6485  0.1754
  220MOL0     C29630   7.237   2.808   9.520 -0.0445 -0.1441 -0.1545
  220MOL0     C29631   6.464   2.558   9.728  0.1265  0.3173 -0.0518
  220MOL0     C29632   6.352   2.481   9.716  0.8134  0.1223  0.8058
  220MOL0     H29633   5.975   2.344   9.404  0.0853 -1.0584 -0.3517
  220MOL0     H29634   5.738   2.292   9.370  1.0619  0.2411  0.5709
  220MOL0     H29635   5.421   2.399   9.649 -1.9866 -2.5037 -0.9426
  220MOL0     H29636   5.487   2.475   9.507 -1.0740 -0.7020 -1.8476
  220MOL0     H29637   5.284   2.241   9.507 -1.7227 -0.0356 -2.9004
  220MOL0     H29638   5.232   2.405   9.491 -1.7834 -0.6917 -1.8926
  220MOL0     H29639   5.393   2.418   9.292  0.1837  0.8936  0.1530
  220MOL0     H29640   5.418   2.241   9.320  3.1515  2.1588  2.2191
  220MOL0     H29641   5.186   2.191   9.281  0.2046 -0.6997 -0.6813
  220MOL0     H29642   5.142   2.356   9.265 -0.8344 -1.7123  0.0930
  220MOL0     H29643   5.266   2.374   9.046  0.7116 -0.3698 -0.8052
  220MOL0     H29644   5.345   2.228   9.078  0.4447 -0.2596 -0.3934
  220MOL0     H29645   5.149   2.097   9.083 -1.6507  0.7079  2.1602
  220MOL0     H29646   5.061   2.238   9.013  1.5492  3.1127  1.4086
  220MOL0     H29647   5.309   2.117   8.906  0.3017  0.4935  1.2528
  220MOL0     H29648   5.154   2.058   8.844  0.2912  0.5393 -1.6389
  220MOL0     H29649   5.248   2.238   8.683 -1.9517  0.9676 -0.5984
  220MOL0     H29650   5.268   2.339   8.815  1.8316 -0.2579 -1.5437
  220MOL0     H29651   4.975   2.120   8.692  0.5810 -0.5705 -0.7764
  220MOL0     H29652   4.684   2.362   8.642  0.9275  1.2571  1.6886
  220MOL0     H29653   4.712   2.193   8.645  0.8844  0.0212  0.3800
  220MOL0     H29654   4.668   2.350   8.909 -4.5947  1.3208  1.0179
  220MOL0     H29655   4.678   2.171   8.894  1.0216 -0.1380 -1.2926
  220MOL0     H29656   4.474   2.351   8.774  0.7255  1.0632  1.4467
  220MOL0     H29657   4.462   2.289   8.933 -3.4577  1.1067 -1.9515
  220MOL0     H29658   4.343   2.119   8.852 -1.3098 -1.4473 -2.5748
  220MOL0     H29659   4.508   2.055   8.820  1.4113 -0.6343 -1.0667
  220MOL0     H29660   4.326   2.049   8.423  1.0544 -1.2169  2.2073
  220MOL0     H29661   3.996   2.063   8.261 -0.7670  0.9564  1.0758
  220MOL0     H29662   4.112   2.178   8.209  0.1487 -0.2743 -0.5156
  220MOL0     H29663   4.162   2.011   8.245  0.9974  0.7761  0.4291
  220MOL0     H29664   3.611   2.012   8.608 -2.1489 -0.4409  2.0637
  220MOL0     H29665   3.396   2.023   8.577  1.1315 -0.1818  1.6558
  220MOL0     H29666   3.167   2.078   8.569 -1.2821 -0.3000  0.9142
  220MOL0     H29667   3.159   2.221   8.672  0.0240  2.7604 -0.6739
  220MOL0     H29668   2.938   2.161   8.582  0.7861  0.5126  1.6296
  220MOL0     H29669   2.982   2.312   8.510 -2.3735 -0.6364  1.9967
  220MOL0     H29670   3.034   2.046   8.379  1.5071  0.4104 -0.4796
  220MOL0     H29671   3.058   2.217   8.305  0.3845  0.5089  0.1835
  220MOL0     H29672   2.822   2.085   8.413  0.7135 -0.1965 -0.1739
  220MOL0     H29673   2.825   2.247   8.345  1.5152  1.0120 -0.6136
  220MOL0     H29674   2.904   2.168   8.126  0.8943  1.1099  0.9163
  220MOL0     H29675   2.752   2.088   8.166  0.2315  0.7749 -1.0297
  220MOL0     H29676   3.024   1.966   8.172 -0.4751  4.1771  1.2979
  220MOL0     H29677   2.893   1.882   8.254 -0.0752 -1.1654 -0.1589
  220MOL0     H29678   2.771   1.871   8.029 -0.5645 -1.7046  0.3801
  220MOL0     H29679   2.902   1.775   8.041 -0.1348 -0.5383 -1.7394
  220MOL0     H29680   2.899   2.062   7.918  0.8585  0.7548 -2.3913
  220MOL0     H29681   2.911   1.924   7.829 -1.1732 -0.6181  0.0976
  220MOL0     H29682   3.435   2.451   8.439  2.5010  1.6104 -0.9807
  220MOL0     H29683   3.682   2.398   8.460  1.4743 -2.0270  0.4164
  220MOL0     H29684   3.970   2.253   8.712 -1.1542 -0.4158 -1.3687
  220MOL0     H29685   4.190   2.233   8.796 -0.4210 -2.3316  1.3856
  220MOL0     H29686   5.646   2.324   9.773  0.3302  1.0001  0.2390
  220MOL0     H29687   5.889   2.337   9.831 -0.9635 -0.0420 -0.2557
  220MOL0     H29688   6.404   2.356   9.400 -2.5939  1.6865 -0.7594
  220MOL0     H29689   6.623   2.478   9.445  0.0678 -0.5860 -0.2037
  220MOL0     H29690   6.559   2.808   9.679 -0.8406 -2.1365  3.3324
  220MOL0     H29691   6.676   2.752   9.792  0.3752 -1.4836 -0.5133
  220MOL0     H29692   6.775   2.957   9.673  0.3480  0.9602 -2.0892
  220MOL0     H29693   6.718   2.886   9.519  0.0013 -1.5742  0.4192
  220MOL0     H29694   6.892   2.733   9.524 -2.7619 -1.7788  1.5050
  220MOL0     H29695   6.931   2.748   9.687 -1.3538 -0.9317 -1.2679
  220MOL0     H29696   6.999   2.999   9.641  1.0469 -3.3421  2.5118
  220MOL0     H29697   6.981   2.960   9.465  0.6930 -0.4218 -1.5762
  220MOL0     H29698   7.332   2.759   9.513  0.3093  0.5755 -0.5084
  220MOL0     H29699   6.468   2.620   9.817 -0.3709 -0.3223  0.4242
  220MOL0     H29700   6.284   2.492   9.800  1.7631  1.5412  1.4362
  221MOL0     O29701   3.860  10.607   7.204 -0.3147 -0.0445  0.2106
  221MOL0     C29702   3.778  10.691   7.234  0.0150 -0.2270  0.1530
  221MOL0     O29703   3.783  10.758   7.352 -0.0835 -0.0353  0.2917
  221MOL0     C29704   3.905  10.772   7.427 -0.3610 -0.5274  0.6012
  221MOL0     C29705   3.892  10.748   7.566  0.0376 -0.3418  0.1105
  221MOL0     C29706   3.999  10.762   7.651  0.0939  0.1387 -0.1171
  221MOL0     C29707   4.128  10.794   7.593  0.2954 -0.2546 -0.2074
  221MOL0     O29708   4.219  10.802   7.692  0.8938  0.3117  0.2722
  221MOL0     C29709   4.352  10.834   7.645  0.2441  0.4988  0.7016
  221MOL0     C29710   4.439  10.831   7.762  0.6401 -0.4485  0.0530
  221MOL0     C29711   4.583  10.859   7.725  0.9622  0.5633 -0.1675
  221MOL0     C29712   4.672  10.854   7.850  0.2934 -0.5926  0.0192
  221MOL0     C29713   4.815  10.872   7.801 -0.7770  0.6610 -0.6582
  221MOL0     C29714   4.859  11.017   7.767 -0.2462  0.2986  0.2861
  221MOL0     C29715   4.999  11.022   7.700  0.2879  1.0687 -0.7113
  221MOL0     C29716   4.982  10.990   7.550  0.0422 -0.5345  0.2451
  221MOL0     N29717   5.095  10.921   7.483  0.3447  0.2501  0.0738
  221MOL0     C29718   5.227  10.961   7.495  0.4399  0.1513 -0.4243
  221MOL0     C29719   5.298  10.860   7.433 -0.5715 -0.3127  0.0408
  221MOL0     C29720   5.448  10.856   7.409  0.8244 -0.5946 -0.3282
  221MOL0     C29721   5.490  10.982   7.336  0.1566 -0.0594  0.2648
  221MOL0     C29722   5.450  10.999   7.185 -1.3411 -0.1019 -0.2441
  221MOL0     C29723   5.469  10.866   7.114  0.3799  0.3359 -0.8058
  221MOL0     O29724   5.439  10.875   6.979  0.0789  0.3987  0.2405
  221MOL0     C29725   5.305  10.883   6.932 -0.0553  0.6213  0.4184
  221MOL0     C29726   5.188  10.876   7.008 -0.4521  0.3789  0.3721
  221MOL0     C29727   5.065  10.877   6.948 -0.0067 -0.5283  0.1425
  221MOL0     C29728   4.951  10.854   7.044 -0.1497  0.4704 -0.1333
  221MOL0     C29729   5.050  10.894   6.807  0.2675  0.0453  0.6623
  221MOL0     C29730   4.926  10.925   6.738 -0.7929  0.5906 -0.5111
  221MOL0     O29731   4.914  10.896   6.601  0.2464  1.1307  0.4086
  221MOL0     C29732   4.799  10.955   6.543 -0.4418 -0.5521  0.0056
  221MOL0     C29733   4.821  11.040   6.432 -0.5009 -1.0966  0.5136
  221MOL0     C29734   4.708  11.090   6.364  0.0031 -0.4029  0.4565
  221MOL0     C29735   4.581  11.040   6.392  0.2811 -0.7891 -0.4430
  221MOL0     O29736   4.478  11.065   6.300  0.3317 -0.6294 -0.1448
  221MOL0     C29737   4.464  11.198   6.260 -0.7627 -0.0913 -0.0536
  221MOL0     C29738   4.325  11.220   6.204  0.7996 -0.2100  0.1886
  221MOL0     C29739   4.205  11.243   6.308  0.0097 -0.3073 -0.1239
  221MOL0     C29740   4.072  11.200   6.246 -0.2963 -0.4611 -0.2888
  221MOL0     C29741   3.965  11.215   6.356  0.8260  0.3625  0.3143
  221MOL0     C29742   3.821  11.182   6.306 -0.4620 -0.4705 -0.4118
  221MOL0     C29743   3.721  11.258   6.394 -0.2660 -0.7015  0.0189
  221MOL0     C29744   3.575  11.265   6.342  0.2967 -0.6765 -0.4854
  221MOL0    Cl29745   3.554  11.363   6.194 -0.1783 -0.2975 -0.3594
  221MOL0     C29746   4.561  10.956   6.500  0.3019 -0.4734  0.3788
  221MOL0     C29747   4.667  10.918   6.576 -0.4737 -0.8537 -0.6626
  221MOL0     O29748   4.839  10.975   6.808  0.1498  0.2246 -0.1525
  221MOL0     C29749   5.164  10.885   6.727 -0.3531  0.1637 -0.5131
  221MOL0     C29750   5.291  10.887   6.791  0.2525  0.7905  1.2965
  221MOL0     N29751   5.215  10.770   7.382  0.3292  0.2446  0.1734
  221MOL0     N29752   5.092  10.805   7.402  0.3281 -0.1539 -0.7210
  221MOL0     C29753   4.135  10.824   7.455 -0.0705  0.2090 -0.0111
  221MOL0     C29754   4.021  10.812   7.371  1.2643 -0.3079  0.6554
  221MOL0     C29755   3.650  10.680   7.154  0.5433 -0.6665 -0.0028
  221MOL0     C29756   3.618  10.565   7.087 -0.4110  0.3208  0.3571
  221MOL0     C29757   3.499  10.554   7.023  0.0440 -0.2996  0.0523
  221MOL0     C29758   3.407  10.663   7.009 -0.6688 -0.4797 -0.5340
  221MOL0     O29759   3.291  10.645   6.944  0.2247 -0.2228  0.6757
  221MOL0     C29760   3.181  10.746   6.938 -0.2863 -0.5064 -0.5742
  221MOL0     C29761   3.084  10.748   7.061  1.4418 -1.2556 -0.5528
  221MOL0     C29762   2.964  10.840   7.025  0.0847 -0.0603  0.8017
  221MOL0     C29763   2.849  10.765   6.959  0.3318 -0.0700 -0.2229
  221MOL0     C29764   2.720  10.829   6.949 -0.3536  0.3257  0.7384
  221MOL0     C29765   2.621  10.897   6.937  0.3929  0.1980  0.2883
  221MOL0     C29766   3.440  10.787   7.074 -1.5141 -0.3430 -0.0717
  221MOL0     C29767   3.563  10.796   7.146  0.5725  0.3751 -0.5845
  221MOL0     H29768   3.794  10.719   7.603  0.4363  1.8613  3.3120
  221MOL0     H29769   3.988  10.738   7.756  3.7956  0.8796  0.6107
  221MOL0     H29770   4.388  10.763   7.570 -0.2761 -0.8611  1.6920
  221MOL0     H29771   4.364  10.933   7.601  1.8924  0.0178 -0.0271
  221MOL0     H29772   4.418  10.913   7.831  4.1085  0.3142  0.3637
  221MOL0     H29773   4.437  10.729   7.801 -0.4121 -0.0436  1.1126
  221MOL0     H29774   4.622  10.786   7.653 -2.6789 -1.6099 -0.1776
  221MOL0     H29775   4.588  10.954   7.671 -0.3878 -0.7630 -2.8043
  221MOL0     H29776   4.648  10.935   7.919  2.1781 -1.8013  2.2452
  221MOL0     H29777   4.660  10.763   7.909 -0.0374 -0.7216 -0.2425
  221MOL0     H29778   4.868  10.839   7.891 -3.5423 -1.5018  0.3248
  221MOL0     H29779   4.846  10.803   7.721  1.1601  1.7262 -0.8875
  221MOL0     H29780   4.786  11.071   7.706 -0.3434  1.5870  1.5019
  221MOL0     H29781   4.876  11.071   7.861 -3.1481  0.1515  0.9841
  221MOL0     H29782   5.049  11.117   7.723  1.0171  0.1616  1.7483
  221MOL0     H29783   5.057  10.946   7.752 -0.6802  0.7229 -0.1018
  221MOL0     H29784   4.961  11.080   7.492  2.6123  0.0699  0.1407
  221MOL0     H29785   4.893  10.928   7.534 -1.5789  1.9972 -1.2107
  221MOL0     H29786   5.267  11.049   7.546  0.5470 -0.7212  1.0625
  221MOL0     H29787   5.494  10.849   7.508 -0.0514  2.5219  0.4189
  221MOL0     H29788   5.463  10.763   7.355 -0.3013 -1.5024  0.8463
  221MOL0     H29789   5.598  10.966   7.344  0.1023 -0.8900 -0.5437
  221MOL0     H29790   5.473  11.073   7.394  3.3136 -0.4215  2.0353
  221MOL0     H29791   5.507  11.078   7.136 -1.8987  0.5988  0.2115
  221MOL0     H29792   5.346  11.032   7.178 -0.7138  1.7353 -1.7304
  221MOL0     H29793   5.401  10.789   7.152 -1.9026  1.8430 -1.6301
  221MOL0     H29794   5.570  10.828   7.130 -0.5216 -3.9697 -3.6437
  221MOL0     H29795   5.191  10.865   7.116 -0.7130 -2.1679  0.1844
  221MOL0     H29796   4.982  10.783   7.121 -3.5205  0.7149  1.6451
  221MOL0     H29797   4.918  10.948   7.088 -1.6438  0.5789 -1.4276
  221MOL0     H29798   4.862  10.816   6.994 -1.2095  2.2825  0.2922
  221MOL0     H29799   4.925  11.061   6.407 -1.4195  3.1759 -0.3982
  221MOL0     H29800   4.718  11.148   6.273 -1.8759  0.3514  0.6933
  221MOL0     H29801   4.480  11.252   6.354 -0.4544 -2.4868  1.3266
  221MOL0     H29802   4.547  11.231   6.196 -2.5122  1.8949 -1.4489
  221MOL0     H29803   4.328  11.321   6.163  2.8872  0.6768  2.3021
  221MOL0     H29804   4.297  11.140   6.134 -0.6967  0.6237 -0.2133
  221MOL0     H29805   4.189  11.349   6.329 -2.6314 -1.1403  2.7348
  221MOL0     H29806   4.218  11.199   6.407  0.4053  1.6419  0.7446
  221MOL0     H29807   4.047  11.260   6.158  0.0817 -1.3968 -1.0415
  221MOL0     H29808   4.080  11.098   6.210  2.1195 -0.9110  1.2579
  221MOL0     H29809   3.969  11.314   6.402 -0.0060  0.4396  0.2471
  221MOL0     H29810   3.982  11.141   6.435  1.1252  0.5986  0.4724
  221MOL0     H29811   3.802  11.214   6.203  1.1087  0.8650 -0.3320
  221MOL0     H29812   3.815  11.073   6.314  1.3625 -0.4858  2.2291
  221MOL0     H29813   3.757  11.361   6.406  0.0973 -0.3572 -3.2315
  221MOL0     H29814   3.720  11.212   6.493 -2.7107  0.4611  0.6009
  221MOL0     H29815   3.517  11.314   6.421  0.1960  1.1611 -1.6484
  221MOL0     H29816   3.542  11.162   6.324 -0.0771 -0.3455 -1.7752
  221MOL0     H29817   4.463  10.910   6.508 -0.6800  1.0939 -1.7181
  221MOL0     H29818   4.657  10.845   6.656 -0.1554 -2.1831 -1.8077
  221MOL0     H29819   5.142  10.877   6.621 -1.7850  0.0585 -0.2228
  221MOL0     H29820   5.385  10.898   6.738  0.8723  1.0818  2.4181
  221MOL0     H29821   4.231  10.861   7.419 -0.0097  0.5904  0.5334
  221MOL0     H29822   4.018  10.829   7.264 -3.4386 -0.2014  0.5899
  221MOL0     H29823   3.682  10.478   7.088 -2.6177 -1.4404 -0.9616
  221MOL0     H29824   3.467  10.465   6.971 -0.0289 -0.2451  0.0033
  221MOL0     H29825   3.230  10.842   6.919 -0.0228 -0.4989  0.1282
  221MOL0     H29826   3.125  10.726   6.846  1.8757  0.5892 -2.2087
  221MOL0     H29827   3.144  10.785   7.145  0.8695 -1.0104 -0.2490
  221MOL0     H29828   3.049  10.647   7.088 -0.9749 -0.3777 -0.1375
  221MOL0     H29829   3.002  10.920   6.961  0.1476  1.0349  2.1685
  221MOL0     H29830   2.925  10.885   7.116  0.4478  1.6230  0.1557
  221MOL0     H29831   2.836  10.675   7.020 -0.2933  0.5160  0.5308
  221MOL0     H29832   2.877  10.742   6.856 -1.1824  0.3680 -0.7641
  221MOL0     H29833   2.530  10.949   6.913  0.0412 -0.3848  0.3419
  221MOL0     H29834   3.366  10.867   7.072  0.4443  1.5552 -2.3729
  221MOL0     H29835   3.598  10.891   7.185 -0.9409  0.5030  0.5455
  222MOL0     O29836   9.755   6.629  10.874 -0.2575  0.6291  0.2903
  222MOL0     C29837   9.796   6.707  10.958  0.5545 -0.1192  0.2779
  222MOL0     O29838   9.717   6.786  11.040 -0.4710  0.5745  0.9854
  222MOL0     C29839   9.587   6.795  11.009 -0.0265 -0.2540 -0.1874
  222MOL0     C29840   9.507   6.676  10.993 -0.1961 -0.5477 -0.0403
  222MOL0     C29841   9.374   6.684  10.956  0.1195  0.3523  0.2998
  222MOL0     C29842   9.318   6.812  10.926  0.1360  0.1085  0.2757
  222MOL0     O29843   9.189   6.797  10.875 -0.7001 -0.3981  0.2468
  222MOL0     C29844   9.103   6.907  10.903  0.3044 -0.2016  0.0578
  222MOL0     C29845   9.112   7.012  10.790  0.3474 -0.0238  0.4186
  222MOL0     C29846   8.975   7.026  10.722 -0.7320 -0.0889  0.2213
  222MOL0     C29847   8.994   7.132  10.607  0.6017  0.0784  0.5434
  222MOL0     C29848   8.851   7.146  10.544  0.0586  0.2752 -0.8110
  222MOL0     C29849   8.845   7.284  10.477  0.8462  0.0102 -0.7667
  222MOL0     C29850   8.707   7.309  10.429  0.4525  0.0929  0.2903
  222MOL0     C29851   8.703   7.422  10.324  0.5022  0.2637  0.2130
  222MOL0     N29852   8.562   7.463  10.306 -0.4720 -0.1908  0.2385
  222MOL0     C29853   8.493   7.463  10.189  0.2538  0.3340  0.9681
  222MOL0     C29854   8.364   7.490  10.222  0.1725  0.1118  0.6792
  222MOL0     C29855   8.245   7.488  10.130 -0.4259  0.4128  0.2493
  222MOL0     C29856   8.125   7.556  10.199 -0.6632  0.6542  0.1889
  222MOL0     C29857   8.028   7.603  10.091  0.2682 -0.1049  0.2110
  222MOL0     C29858   7.903   7.673  10.148  0.6583  0.5202 -0.4877
  222MOL0     O29859   7.824   7.570  10.215  0.0114 -1.0417  0.2479
  222MOL0     C29860   7.686   7.569  10.187 -0.2442  0.2116 -0.1222
  222MOL0     C29861   7.624   7.447  10.143 -0.6900 -0.9624 -0.4232
  222MOL0     C29862   7.484   7.433  10.157 -0.4705  0.5036  0.5555
  222MOL0     C29863   7.414   7.299  10.137 -0.4713 -0.1519  1.0284
  222MOL0     C29864   7.403   7.543  10.198  1.0537 -0.3468  0.5039
  222MOL0     C29865   7.247   7.551  10.198 -0.6366 -0.0254  0.0578
  222MOL0     O29866   7.199   7.673  10.224  0.7611  0.4911  0.2819
  222MOL0     C29867   7.060   7.695  10.243 -1.1264  0.4175 -1.0003
  222MOL0     C29868   7.007   7.799  10.172  0.2417 -1.1638  0.5512
  222MOL0     C29869   6.868   7.829  10.178  0.4197 -0.2713  0.9885
  222MOL0     C29870   6.790   7.746  10.261 -0.0830  0.2747  0.0851
  222MOL0     O29871   6.657   7.778  10.276  0.8109  0.2856  0.6600
  222MOL0     C29872   6.595   7.896  10.231 -0.3185 -0.5709  0.1477
  222MOL0     C29873   6.534   7.898  10.085 -0.1412  1.0177 -0.1950
  222MOL0     C29874   6.452   7.774  10.044 -0.0431 -1.2511 -0.5895
  222MOL0     C29875   6.541   7.686   9.953  0.5048 -0.0308 -0.0667
  222MOL0     C29876   6.474   7.556   9.915  0.1334  0.4980  0.7965
  222MOL0     C29877   6.397   7.575   9.789  0.0475  0.8526 -0.0702
  222MOL0     C29878   6.320   7.437   9.754 -0.4567  0.5612  0.6852
  222MOL0     C29879   6.411   7.336   9.695 -0.6624  0.7809 -1.0141
  222MOL0    Cl29880   6.469   7.238   9.830 -0.1847  0.5063  0.3374
  222MOL0     C29881   6.849   7.634  10.324 -0.7907  0.2691  0.4932
  222MOL0     C29882   6.985   7.613  10.317  0.0118 -0.6268  0.2354
  222MOL0     O29883   7.178   7.447  10.167 -0.1765 -0.1410 -0.1636
  222MOL0     C29884   7.469   7.662  10.227 -0.0863 -1.4016  0.0440
  222MOL0     C29885   7.610   7.676  10.222  0.5205  0.0734 -0.3671
  222MOL0     N29886   8.358   7.512  10.357  0.7494  0.1814 -0.7728
  222MOL0     N29887   8.481   7.505  10.405  0.3179 -0.4106 -0.6471
  222MOL0     C29888   9.388   6.930  10.947  0.0363  0.7537  0.3123
  222MOL0     C29889   9.518   6.916  10.992 -0.0368  0.1564  0.2866
  222MOL0     C29890   9.943   6.693  10.964 -0.5481 -0.0485  0.1418
  222MOL0     C29891  10.013   6.585  10.911 -0.7209 -0.5835  0.2348
  222MOL0     C29892  10.152   6.584  10.890  0.5684  0.1018 -0.3996
  222MOL0     C29893  10.223   6.696  10.924  0.3792 -0.4809  0.5594
  222MOL0     O29894  10.354   6.678  10.902 -0.0005  0.0530  0.5851
  222MOL0     C29895  10.441   6.744  10.991  0.3281 -0.8422 -0.3973
  222MOL0     C29896  10.563   6.666  11.004  0.1698  0.1934  0.6483
  222MOL0     C29897  10.556   6.549  11.111  0.4339 -0.3479  0.0442
  222MOL0     C29898  10.687   6.478  11.143  0.8080 -1.5100 -0.2006
  222MOL0     C29899  10.764   6.543  11.241 -0.4567 -0.9661 -0.0036
  222MOL0     C29900  10.842   6.606  11.316  0.2769 -0.3138  0.2721
  222MOL0     C29901  10.165   6.807  10.976  0.5817 -0.1479  0.0709
  222MOL0     C29902  10.021   6.807  11.004  0.3579 -0.4753  0.2682
  222MOL0     H29903   9.542   6.574  11.006  0.4976 -0.0404  2.6870
  222MOL0     H29904   9.315   6.593  10.951  1.2229 -0.3687  0.1194
  222MOL0     H29905   9.002   6.872  10.925 -0.8115  0.7852 -2.9045
  222MOL0     H29906   9.137   6.956  10.994  3.1210 -0.1822 -0.9043
  222MOL0     H29907   9.112   7.101  10.854  1.1814 -1.2820  2.2638
  222MOL0     H29908   9.196   6.998  10.721  0.7164  1.5883  0.4907
  222MOL0     H29909   8.940   6.927  10.690 -0.0421 -0.2320 -0.1164
  222MOL0     H29910   8.904   7.064  10.795  2.0262 -0.0216  3.0811
  222MOL0     H29911   9.024   7.226  10.654 -0.6961 -1.0245  3.8899
  222MOL0     H29912   9.068   7.092  10.537 -1.1151 -3.7999  0.6738
  222MOL0     H29913   8.832   7.081  10.459 -1.9572  0.8906 -0.8983
  222MOL0     H29914   8.775   7.129  10.621 -0.6134 -0.2211 -1.5726
  222MOL0     H29915   8.867   7.357  10.555 -4.8787  0.4911  0.9053
  222MOL0     H29916   8.916   7.282  10.394 -0.8528 -1.6995 -2.2940
  222MOL0     H29917   8.660   7.221  10.384  3.2639 -2.6233  2.3482
  222MOL0     H29918   8.652   7.332  10.520 -1.4940 -2.7978 -0.0389
  222MOL0     H29919   8.748   7.379  10.234  1.8228  0.9826  0.5044
  222MOL0     H29920   8.764   7.510  10.348 -1.2650  1.5573  0.0951
  222MOL0     H29921   8.530   7.424  10.095 -0.2836 -1.6561  1.5485
  222MOL0     H29922   8.271   7.539  10.037  1.1107 -0.6387  0.0746
  222MOL0     H29923   8.215   7.387  10.102  0.1931 -0.3737  2.2332
  222MOL0     H29924   8.166   7.640  10.256 -0.3063  0.3349  0.4079
  222MOL0     H29925   8.078   7.483  10.267  0.5355  0.5428  0.9301
  222MOL0     H29926   7.992   7.519  10.031  1.8697 -3.0743  3.0854
  222MOL0     H29927   8.085   7.666  10.022 -0.6383  0.3749 -0.1118
  222MOL0     H29928   7.847   7.714  10.063  2.9943  1.2011 -1.7631
  222MOL0     H29929   7.926   7.750  10.223 -0.0579 -0.5963  0.9351
  222MOL0     H29930   7.676   7.359  10.107 -2.8570 -2.4560 -0.0724
  222MOL0     H29931   7.355   7.278  10.227 -1.2514  1.0101  0.7981
  222MOL0     H29932   7.356   7.314  10.046  1.1093  0.1518  0.0393
  222MOL0     H29933   7.494   7.224  10.129  1.0203  1.1135  3.1472
  222MOL0     H29934   7.073   7.866  10.118  2.7887 -3.9000 -0.0126
  222MOL0     H29935   6.840   7.929  10.147  2.6868 -0.1420 -0.9086
  222MOL0     H29936   6.507   7.917  10.292  1.2687 -1.2270  2.8651
  222MOL0     H29937   6.664   7.979  10.252 -2.2522  0.7033  1.8711
  222MOL0     H29938   6.473   7.989  10.072 -0.8115  0.5922 -0.0808
  222MOL0     H29939   6.609   7.908  10.006 -0.1086  3.1075  0.0376
  222MOL0     H29940   6.363   7.812   9.992 -0.8669 -1.2047  0.7822
  222MOL0     H29941   6.426   7.710  10.129 -0.0812 -0.7383 -0.2078
  222MOL0     H29942   6.582   7.739   9.867 -1.0679 -2.2161 -2.2915
  222MOL0     H29943   6.631   7.662  10.010 -0.1158  0.5584  1.2104
  222MOL0     H29944   6.411   7.525  10.000  0.5286  0.4140  1.0612
  222MOL0     H29945   6.557   7.485   9.912 -0.0656  0.2829  0.3088
  222MOL0     H29946   6.317   7.649   9.802 -0.7281 -0.1276  0.9855
  222MOL0     H29947   6.458   7.600   9.702  1.1094  1.4094  0.8138
  222MOL0     H29948   6.262   7.473   9.669  1.2813  0.5008 -0.5855
  222MOL0     H29949   6.247   7.398   9.826  1.1344 -4.5978 -0.0257
  222MOL0     H29950   6.501   7.375   9.647  0.2966 -0.0793  0.0341
  222MOL0     H29951   6.369   7.268   9.621  0.0898  1.4235 -2.0654
  222MOL0     H29952   6.798   7.563  10.387  0.3355  0.7411  2.0022
  222MOL0     H29953   7.029   7.538  10.382 -0.2719 -0.1321  1.0088
  222MOL0     H29954   7.411   7.747  10.261 -2.6370 -4.3706  4.0365
  222MOL0     H29955   7.656   7.771  10.247 -0.8514  0.6577 -0.0175
  222MOL0     H29956   9.331   7.020  10.929  0.2323  0.4861 -1.9928
  222MOL0     H29957   9.579   7.005  11.005 -0.6607  0.9468 -1.8383
  222MOL0     H29958   9.955   6.504  10.868 -1.8169  1.5929 -2.7982
  222MOL0     H29959  10.203   6.497  10.851  2.2791  0.2943  1.2667
  222MOL0     H29960  10.463   6.839  10.942  2.3525 -1.3413 -0.5300
  222MOL0     H29961  10.400   6.770  11.089  1.8065  1.9208 -0.4302
  222MOL0     H29962  10.645   6.733  11.031 -0.3680  1.1396 -0.0113
  222MOL0     H29963  10.585   6.627  10.904 -1.3927  0.7906  0.0404
  222MOL0     H29964  10.486   6.471  11.080 -0.3778  1.0903 -2.0010
  222MOL0     H29965  10.521   6.592  11.205  0.9044  0.6051 -0.2094
  222MOL0     H29966  10.741   6.451  11.052  2.5193  0.9192 -0.0017
  222MOL0     H29967  10.657   6.385  11.192 -1.2458 -1.1711 -0.7177
  222MOL0     H29968  10.899   6.660  11.387 -0.5849 -2.5112  2.8187
  222MOL0     H29969  10.227   6.896  10.984  0.0567  0.0805  2.0524
  222MOL0     H29970   9.970   6.891  11.051  0.6599  0.2202 -0.6226
  223MOL0     O29971   8.451   7.497   7.064 -0.0697  0.7670  0.2816
  223MOL0     C29972   8.378   7.482   6.972  0.8327 -0.2337 -0.0222
  223MOL0     O29973   8.414   7.470   6.842  0.1613  0.1899  0.2254
  223MOL0     C29974   8.540   7.493   6.799 -0.2516  0.0037  0.5532
  223MOL0     C29975   8.623   7.593   6.839  0.9292  0.0260 -0.2828
  223MOL0     C29976   8.748   7.619   6.771 -0.6062 -0.3704  0.4201
  223MOL0     C29977   8.799   7.541   6.661 -0.2180 -0.5131 -0.8258
  223MOL0     O29978   8.913   7.560   6.582  0.3208 -0.2340 -0.3021
  223MOL0     C29979   9.008   7.656   6.637  0.5325  0.1026  0.4013
  223MOL0     C29980   9.148   7.616   6.585  0.5312 -0.2129  0.1944
  223MOL0     C29981   9.151   7.616   6.426 -0.3701 -0.1895  0.4499
  223MOL0     C29982   9.303   7.592   6.377  0.5847  0.6053 -1.0360
  223MOL0     C29983   9.313   7.565   6.226 -0.4106 -0.0790 -1.1464
  223MOL0     C29984   9.456   7.571   6.190  0.5176 -0.1191  0.0611
  223MOL0     C29985   9.493   7.473   6.072 -0.1954  0.0563 -0.6260
  223MOL0     C29986   9.438   7.517   5.933  0.6304  0.3467 -0.4214
  223MOL0     N29987   9.291   7.539   5.932  0.4675  0.1118 -0.5002
  223MOL0     C29988   9.196   7.441   5.928 -0.1524  0.8381 -0.0065
  223MOL0     C29989   9.074   7.500   5.922 -0.5624  0.2765  0.1553
  223MOL0     C29990   8.947   7.423   5.917 -0.9039  0.0966  0.6023
  223MOL0     C29991   8.828   7.506   5.940  0.4387 -0.0390 -0.0480
  223MOL0     C29992   8.700   7.415   5.918  0.2179 -0.5229  0.1507
  223MOL0     C29993   8.578   7.494   5.957  1.4228  0.9323  0.9050
  223MOL0     O29994   8.455   7.420   5.934  0.1162 -0.1091 -0.7003
  223MOL0     C29995   8.340   7.475   5.982 -0.3037  0.4046  0.2228
  223MOL0     C29996   8.227   7.382   5.985  0.2363  0.7421 -0.5750
  223MOL0     C29997   8.101   7.434   6.027  0.4011  1.0049  0.0148
  223MOL0     C29998   7.982   7.335   6.027 -0.7944  0.3855  0.3547
  223MOL0     C29999   8.090   7.567   6.067 -0.0471  0.1820 -0.2508
  223MOL0     C30000   7.960   7.637   6.097  0.8359  0.4731  0.1983
  223MOL0     O30001   7.943   7.706   6.210 -0.3535  0.0231  0.0365
  223MOL0     C30002   7.849   7.803   6.200  0.0805  0.0195 -0.0298
  223MOL0     C30003   7.861   7.923   6.132 -0.3228 -0.6391 -0.3953
  223MOL0     C30004   7.748   8.006   6.120  0.4367 -0.0123 -0.0420
  223MOL0     C30005   7.632   7.984   6.198  0.2465  0.2181  0.2343
  223MOL0     O30006   7.530   8.072   6.181 -0.4026  0.3565  0.6098
  223MOL0     C30007   7.445   8.100   6.291 -0.2006  0.5316 -0.2662
  223MOL0     C30008   7.367   8.237   6.276 -0.8026 -1.1547 -0.8692
  223MOL0     C30009   7.300   8.276   6.402  0.3218 -0.5291  1.4435
  223MOL0     C30010   7.200   8.399   6.369 -0.2354  0.0407 -0.4076
  223MOL0     C30011   7.110   8.443   6.488 -0.6001  0.2375 -0.0374
  223MOL0     C30012   6.999   8.540   6.452 -0.3667  0.4586 -0.3714
  223MOL0     C30013   7.059   8.663   6.383  0.3680  1.2777 -0.3562
  223MOL0     C30014   6.953   8.769   6.372 -0.1716 -0.8096 -0.3265
  223MOL0    Cl30015   7.038   8.904   6.295  0.4568 -0.3368 -0.1437
  223MOL0     C30016   7.620   7.866   6.275 -0.9694  0.2616  0.3006
  223MOL0     C30017   7.730   7.780   6.278 -0.8225 -0.0202  1.0650
  223MOL0     O30018   7.864   7.614   6.023 -0.0078  0.3909 -0.2560
  223MOL0     C30019   8.205   7.646   6.083  0.1523 -0.5431  0.3771
  223MOL0     C30020   8.324   7.600   6.031  0.6194  0.0748  0.4890
  223MOL0     N30021   9.104   7.637   5.915  0.3935 -0.3350  0.1099
  223MOL0     N30022   9.228   7.663   5.914  0.3803  0.6123 -0.4392
  223MOL0     C30023   8.710   7.446   6.622 -1.6258  0.6619  0.9857
  223MOL0     C30024   8.587   7.422   6.679  0.5944 -0.4713 -0.4654
  223MOL0     C30025   8.228   7.457   6.998 -0.7013  0.1778 -0.0483
  223MOL0     C30026   8.175   7.486   7.126  0.6898 -0.6167  0.4321
  223MOL0     C30027   8.034   7.470   7.146  0.0908  0.2582 -0.3760
  223MOL0     C30028   7.958   7.408   7.047  0.6944  0.4635 -0.0253
  223MOL0     O30029   7.827   7.373   7.060 -0.0288  0.2436  0.2011
  223MOL0     C30030   7.750   7.400   7.174  0.3954 -0.7490 -0.7030
  223MOL0     C30031   7.781   7.295   7.282 -0.3168 -1.1705  0.3865
  223MOL0     C30032   7.738   7.144   7.258  0.1629  0.4153 -0.7217
  223MOL0     C30033   7.763   7.053   7.383 -0.2299 -0.9367 -0.2877
  223MOL0     C30034   7.704   6.919   7.388  0.8058 -0.3984  0.2089
  223MOL0     C30035   7.656   6.808   7.400  0.2694 -0.4798 -0.1721
  223MOL0     C30036   8.019   7.370   6.929  0.6116 -0.6682  0.2543
  223MOL0     C30037   8.147   7.399   6.904 -0.0828 -0.4284 -0.4803
  223MOL0     H30038   8.585   7.648   6.925  0.9904 -1.9827  1.0869
  223MOL0     H30039   8.798   7.707   6.809  1.0223 -1.1601  0.1804
  223MOL0     H30040   8.976   7.759   6.616  2.3474  0.4649 -0.8311
  223MOL0     H30041   9.017   7.646   6.745  2.3846  0.4038  0.3047
  223MOL0     H30042   9.215   7.690   6.630 -2.8174  4.0024 -1.0241
  223MOL0     H30043   9.175   7.513   6.612 -0.3808 -0.7664 -0.9237
  223MOL0     H30044   9.082   7.539   6.389 -1.8358  0.7872  1.0641
  223MOL0     H30045   9.119   7.713   6.387  3.2431  1.4721  1.1668
  223MOL0     H30046   9.357   7.682   6.404  4.2382 -2.3694  3.0142
  223MOL0     H30047   9.346   7.510   6.436 -1.3473 -0.2889 -0.7915
  223MOL0     H30048   9.278   7.462   6.212 -0.8912 -0.4594  2.0401
  223MOL0     H30049   9.259   7.636   6.163  1.7020 -0.1712 -3.1853
  223MOL0     H30050   9.498   7.672   6.185 -0.5507  0.3720  0.7084
  223MOL0     H30051   9.518   7.536   6.273  0.4176 -1.3544 -0.3583
  223MOL0     H30052   9.602   7.468   6.066 -0.1035  1.1016 -0.1074
  223MOL0     H30053   9.452   7.375   6.096 -1.8413  0.8086 -0.2205
  223MOL0     H30054   9.469   7.441   5.862 -0.9431 -1.1540  0.4190
  223MOL0     H30055   9.483   7.614   5.908  1.4116  0.0704 -0.1321
  223MOL0     H30056   9.221   7.336   5.938  1.6617  1.2814  0.5235
  223MOL0     H30057   8.950   7.367   5.824  0.8817 -0.5672  1.0319
  223MOL0     H30058   8.946   7.355   6.003 -1.9605 -2.3236 -1.2307
  223MOL0     H30059   8.833   7.596   5.879  0.6417 -1.1689 -1.7728
  223MOL0     H30060   8.832   7.528   6.047 -0.3651 -1.4653  0.3034
  223MOL0     H30061   8.705   7.324   5.980 -3.2775 -0.0162  1.4174
  223MOL0     H30062   8.698   7.385   5.813 -0.0772 -1.4390  0.4053
  223MOL0     H30063   8.569   7.585   5.898  5.4401  2.1955  1.9137
  223MOL0     H30064   8.579   7.516   6.064  0.5864 -0.0309  1.1334
  223MOL0     H30065   8.233   7.280   5.949  0.5818  0.1818  0.9895
  223MOL0     H30066   7.922   7.364   6.114 -0.1650  3.2156 -0.0722
  223MOL0     H30067   7.927   7.364   5.937 -2.1177 -0.0868  0.9850
  223MOL0     H30068   8.012   7.231   6.045 -0.0965  0.6928  1.0001
  223MOL0     H30069   7.939   7.938   6.058  0.8101 -3.2917  0.1753
  223MOL0     H30070   7.737   8.086   6.047  0.0469 -1.6132 -1.8110
  223MOL0     H30071   7.370   8.022   6.305 -1.9121  1.8765 -1.4918
  223MOL0     H30072   7.512   8.101   6.377 -0.2249 -2.6194 -0.0846
  223MOL0     H30073   7.434   8.318   6.247  0.4901 -1.0221  2.1713
  223MOL0     H30074   7.289   8.222   6.200 -2.2446  2.5779 -0.3359
  223MOL0     H30075   7.370   8.308   6.480  0.6696  0.2957  0.8077
  223MOL0     H30076   7.244   8.188   6.436  2.6396 -2.6604  0.0527
  223MOL0     H30077   7.260   8.489   6.350  0.0661  0.0004  0.2987
  223MOL0     H30078   7.143   8.383   6.278  2.4267 -0.7816 -2.0296
  223MOL0     H30079   7.165   8.478   6.576  0.8492  1.2710 -1.3180
  223MOL0     H30080   7.050   8.358   6.524 -0.7176  0.7647  1.0399
  223MOL0     H30081   6.920   8.497   6.389  1.3178 -0.8876 -1.6397
  223MOL0     H30082   6.954   8.574   6.547  2.7847  0.5511  1.2100
  223MOL0     H30083   7.095   8.636   6.283  2.6223 -0.8501  0.9194
  223MOL0     H30084   7.146   8.704   6.435  2.0630 -3.3410  0.8920
  223MOL0     H30085   6.928   8.796   6.475  0.5559  0.4997 -0.4590
  223MOL0     H30086   6.864   8.733   6.319 -0.9716 -1.8507  1.6330
  223MOL0     H30087   7.530   7.834   6.326  0.8096 -1.5958  2.5399
  223MOL0     H30088   7.735   7.683   6.327  2.4073  0.9085  2.8707
  223MOL0     H30089   8.188   7.747   6.119 -2.3583 -0.0467 -1.8903
  223MOL0     H30090   8.400   7.678   6.030  0.3228  0.3632  0.1755
  223MOL0     H30091   8.739   7.402   6.527  0.4905  1.2865  1.2911
  223MOL0     H30092   8.526   7.342   6.639 -0.3318  1.1131 -2.4114
  223MOL0     H30093   8.238   7.526   7.204  1.4848 -1.4902  0.2538
  223MOL0     H30094   7.998   7.501   7.244  0.7060  0.9405 -0.3528
  223MOL0     H30095   7.755   7.504   7.206 -3.2644  0.3663 -3.1648
  223MOL0     H30096   7.645   7.386   7.146  0.8533 -2.9905 -1.5669
  223MOL0     H30097   7.723   7.326   7.370 -0.1716 -2.0333  0.8043
  223MOL0     H30098   7.889   7.294   7.300 -0.2601  2.6778  1.0943
  223MOL0     H30099   7.802   7.095   7.185 -1.6720  0.2482 -2.2885
  223MOL0     H30100   7.631   7.142   7.234  0.2082  1.9877 -1.1833
  223MOL0     H30101   7.716   7.111   7.463  0.0234 -2.9342  1.3721
  223MOL0     H30102   7.872   7.048   7.388 -0.1216 -1.7769 -2.4683
  223MOL0     H30103   7.615   6.710   7.411 -1.2609  0.2196  0.8142
  223MOL0     H30104   7.965   7.323   6.848  2.6652  0.0004 -1.6272
  223MOL0     H30105   8.187   7.378   6.805 -0.8491  0.2966 -0.9511
  224MOL0     O30106   8.664   5.072   6.929  0.3420 -0.0565 -0.1087
  224MOL0     C30107   8.744   5.113   7.012 -0.0981  1.0112  0.0803
  224MOL0     O30108   8.712   5.165   7.133  0.2206  0.2361 -0.8992
  224MOL0     C30109   8.579   5.159   7.172  0.0811 -0.7527 -0.7981
  224MOL0     C30110   8.519   5.269   7.231  0.1670 -1.1506  0.3254
  224MOL0     C30111   8.385   5.258   7.273  0.3095 -0.4443  0.4320
  224MOL0     C30112   8.320   5.133   7.292  0.6493 -0.0402  0.9769
  224MOL0     O30113   8.199   5.126   7.350 -0.1593  0.2929 -0.0508
  224MOL0     C30114   8.092   5.197   7.291  0.2661 -1.3406 -0.3044
  224MOL0     C30115   7.975   5.113   7.319 -0.5978  0.4718  0.4461
  224MOL0     C30116   7.847   5.187   7.286 -0.3933  0.4921  1.1415
  224MOL0     C30117   7.729   5.084   7.301  0.6894  0.1024 -0.5876
  224MOL0     C30118   7.612   5.173   7.364  0.1814  0.3129 -0.1141
  224MOL0     C30119   7.487   5.094   7.414 -0.7368  0.6350  0.8282
  224MOL0     C30120   7.370   5.175   7.473 -0.0303  0.2043  0.5249
  224MOL0     C30121   7.270   5.093   7.549 -0.4850  0.4182 -0.2557
  224MOL0     N30122   7.166   5.172   7.609  0.2950 -0.8960  0.6242
  224MOL0     C30123   7.085   5.143   7.712 -0.3568 -0.4921  0.0189
  224MOL0     C30124   7.001   5.252   7.731 -0.4564  0.0802 -0.5879
  224MOL0     C30125   6.891   5.250   7.833 -0.3325  0.4544  0.9231
  224MOL0     C30126   6.812   5.382   7.820 -0.3375 -0.6912 -0.4798
  224MOL0     C30127   6.710   5.405   7.933  0.1676  0.2682  0.3883
  224MOL0     C30128   6.584   5.478   7.882 -0.2165  0.3245 -0.4488
  224MOL0     O30129   6.515   5.508   8.006 -0.9056 -0.8351 -0.2303
  224MOL0     C30130   6.390   5.570   8.004 -0.4496 -0.0285 -0.5278
  224MOL0     C30131   6.330   5.625   7.898 -0.3411 -0.1435 -0.4339
  224MOL0     C30132   6.208   5.697   7.905 -0.7204 -0.0371  0.3234
  224MOL0     C30133   6.168   5.759   7.778 -0.1273  0.5109 -0.0588
  224MOL0     C30134   6.133   5.689   8.023  0.3003  1.0191 -0.4404
  224MOL0     C30135   5.998   5.738   8.035 -0.0867 -0.4698 -0.8756
  224MOL0     O30136   5.963   5.855   7.983  0.5768 -0.5760  0.1573
  224MOL0     C30137   5.863   5.936   8.040 -0.0936 -0.3585 -0.4119
  224MOL0     C30138   5.808   6.031   7.955  0.1806 -0.1940  0.0048
  224MOL0     C30139   5.710   6.131   7.997 -0.8097 -0.5122 -0.5478
  224MOL0     C30140   5.668   6.132   8.134 -0.2085  0.1338 -0.0287
  224MOL0     O30141   5.583   6.220   8.191  0.0754 -0.0574 -0.1837
  224MOL0     C30142   5.495   6.301   8.113 -0.1869  1.6462  0.2586
  224MOL0     C30143   5.413   6.378   8.213  0.3293 -0.4382  0.4304
  224MOL0     C30144   5.313   6.456   8.138  0.0919  0.2416 -0.2876
  224MOL0     C30145   5.210   6.540   8.224 -0.4674 -1.1872  0.7260
  224MOL0     C30146   5.117   6.619   8.120 -0.6662 -0.6076  0.0840
  224MOL0     C30147   4.983   6.650   8.175 -0.1673  0.5487 -0.5540
  224MOL0     C30148   4.903   6.715   8.065 -0.6010 -0.0633 -0.1933
  224MOL0     C30149   4.759   6.738   8.106  0.4746  0.1037 -0.1947
  224MOL0    Cl30150   4.726   6.816   8.266  0.0284  0.0774  0.0608
  224MOL0     C30151   5.714   6.022   8.218 -0.2341  0.3046 -0.3423
  224MOL0     C30152   5.811   5.926   8.177 -1.5397  0.4553  0.9911
  224MOL0     O30153   5.921   5.669   8.100  0.3682 -0.8981 -0.0000
  224MOL0     C30154   6.196   5.621   8.137 -0.3210 -0.0388 -0.1455
  224MOL0     C30155   6.319   5.566   8.126  0.5398  0.4199 -0.1140
  224MOL0     N30156   7.032   5.346   7.637  0.6348 -0.4689  0.2061
  224MOL0     N30157   7.121   5.297   7.563  0.0396  0.1467 -0.2921
  224MOL0     C30158   8.391   5.025   7.250  0.7004 -0.2047  1.1693
  224MOL0     C30159   8.517   5.038   7.184 -0.1158 -0.5796 -0.6411
  224MOL0     C30160   8.890   5.080   6.982  1.1030  0.0411  0.0831
  224MOL0     C30161   8.910   5.003   6.864  0.1992  0.7980 -0.1521
  224MOL0     C30162   9.035   4.979   6.816 -0.3233  0.0852 -0.5497
  224MOL0     C30163   9.146   5.020   6.885 -0.4696 -0.1784 -0.1402
  224MOL0     O30164   9.268   4.983   6.839  0.1185  0.2469 -0.1249
  224MOL0     C30165   9.388   5.024   6.898  0.7214 -0.2896  1.8057
  224MOL0     C30166   9.514   4.950   6.834 -0.2048  0.4111 -0.5722
  224MOL0     C30167   9.637   5.027   6.879 -0.6210 -0.0240 -0.0229
  224MOL0     C30168   9.759   4.934   6.835 -0.2663  0.6417  0.0885
  224MOL0     C30169   9.879   5.007   6.838 -0.3975  0.0361  0.9072
  224MOL0     C30170   9.985   5.063   6.840 -0.7243 -0.4389  1.6501
  224MOL0     C30171   9.132   5.094   6.999 -0.6119  0.5006 -0.8755
  224MOL0     C30172   9.004   5.127   7.048  0.5160 -0.1095 -0.6714
  224MOL0     H30173   8.555   5.371   7.220 -3.3869  0.5463  2.5704
  224MOL0     H30174   8.335   5.350   7.300 -1.5890 -0.7312 -1.7164
  224MOL0     H30175   8.080   5.302   7.321 -1.8369 -0.8441 -2.5436
  224MOL0     H30176   8.102   5.202   7.182 -1.1091  0.3062 -0.3964
  224MOL0     H30177   7.977   5.023   7.256 -1.6579  2.0189 -1.9480
  224MOL0     H30178   7.974   5.077   7.422  1.3316  0.1443  0.3918
  224MOL0     H30179   7.833   5.287   7.327 -2.7517  0.3819  0.7764
  224MOL0     H30180   7.840   5.206   7.179 -1.2222 -0.0472  1.0916
  224MOL0     H30181   7.698   5.032   7.210 -1.3465  1.0031 -0.4799
  224MOL0     H30182   7.762   5.015   7.379 -2.2991  0.7268  1.4456
  224MOL0     H30183   7.648   5.231   7.449  1.4392  0.3898 -0.6771
  224MOL0     H30184   7.578   5.252   7.297  3.2678  2.3314  0.5425
  224MOL0     H30185   7.451   5.046   7.322  0.9460  2.5994 -0.9629
  224MOL0     H30186   7.520   5.020   7.488  3.1142 -0.1214 -1.3435
  224MOL0     H30187   7.428   5.236   7.544 -0.9258  1.0024  0.5791
  224MOL0     H30188   7.314   5.242   7.407  0.1240 -1.4076 -1.3329
  224MOL0     H30189   7.319   5.035   7.627  0.0524  0.2643 -0.7041
  224MOL0     H30190   7.211   5.025   7.486  0.2632 -1.9198  1.4395
  224MOL0     H30191   7.083   5.054   7.774  0.4587 -0.6979 -0.2340
  224MOL0     H30192   6.823   5.169   7.805  0.9447 -0.2224 -0.3777
  224MOL0     H30193   6.931   5.236   7.934  0.0560 -0.1685  0.6905
  224MOL0     H30194   6.757   5.382   7.726  0.1872  2.7388 -0.8935
  224MOL0     H30195   6.889   5.460   7.822 -0.1338 -0.8292 -1.9477
  224MOL0     H30196   6.772   5.468   7.996  1.1641 -0.8391  0.5642
  224MOL0     H30197   6.677   5.309   7.975  2.0754 -0.5312  0.1974
  224MOL0     H30198   6.525   5.414   7.816 -0.1602 -0.3963  0.1898
  224MOL0     H30199   6.615   5.572   7.835 -1.6102  0.1529 -1.7743
  224MOL0     H30200   6.394   5.628   7.810  1.8899  3.7210  1.0809
  224MOL0     H30201   6.134   5.860   7.801 -0.2233  0.3387  0.5510
  224MOL0     H30202   6.256   5.767   7.713 -0.8491 -1.4778 -1.3748
  224MOL0     H30203   6.101   5.685   7.733  1.3174 -0.0579 -1.3899
  224MOL0     H30204   5.838   6.039   7.851 -1.9848  0.2454 -0.6432
  224MOL0     H30205   5.683   6.201   7.919  2.8292 -1.0695 -2.5296
  224MOL0     H30206   5.538   6.374   8.043  0.3272 -0.5554 -1.8350
  224MOL0     H30207   5.431   6.233   8.056  0.7628  0.8543  0.1198
  224MOL0     H30208   5.362   6.315   8.287 -3.2890 -0.9845 -2.2153
  224MOL0     H30209   5.471   6.458   8.258 -0.9875  0.5272  0.4803
  224MOL0     H30210   5.255   6.388   8.075  0.2423  1.5095 -1.8756
  224MOL0     H30211   5.372   6.515   8.066 -1.2598  2.4422  0.3015
  224MOL0     H30212   5.164   6.464   8.286 -1.2408 -2.2114 -1.0248
  224MOL0     H30213   5.259   6.605   8.297 -2.2430 -0.8019  1.6142
  224MOL0     H30214   5.099   6.550   8.037  1.3061 -0.2783 -0.6746
  224MOL0     H30215   5.158   6.715   8.088 -0.8728 -0.2656  0.8181
  224MOL0     H30216   4.936   6.558   8.210 -1.5537  1.1288 -0.8220
  224MOL0     H30217   4.980   6.717   8.261 -0.5305  1.4835 -1.2849
  224MOL0     H30218   4.902   6.652   7.975  0.2092 -0.8495  0.3206
  224MOL0     H30219   4.942   6.814   8.039  3.4862 -1.4202 -0.0149
  224MOL0     H30220   4.705   6.643   8.101  0.7951 -0.0639 -0.4656
  224MOL0     H30221   4.708   6.806   8.037 -0.3040  0.1414  0.3986
  224MOL0     H30222   5.676   6.010   8.319  2.9405  0.4181  0.9831
  224MOL0     H30223   5.826   5.851   8.255 -3.3358  0.0194  0.9617
  224MOL0     H30224   6.149   5.631   8.234 -0.3893  0.5848 -0.2378
  224MOL0     H30225   6.364   5.516   8.211 -1.7869 -1.2690  0.2256
  224MOL0     H30226   8.352   4.924   7.261 -0.9998  0.1050 -1.3710
  224MOL0     H30227   8.578   4.954   7.154 -0.1754 -0.3087 -1.5404
  224MOL0     H30228   8.827   4.956   6.811  1.0849 -1.0912  0.0307
  224MOL0     H30229   9.048   4.918   6.727 -2.2049 -0.2988 -0.6062
  224MOL0     H30230   9.398   5.130   6.876  2.5202 -0.3570  2.1527
  224MOL0     H30231   9.392   5.025   7.008  2.4140 -1.4679  1.7928
  224MOL0     H30232   9.506   4.949   6.725  1.1013 -0.8182 -0.6889
  224MOL0     H30233   9.523   4.844   6.860 -3.1290  0.2630  0.2663
  224MOL0     H30234   9.639   5.050   6.986 -1.9270  1.4203 -0.2641
  224MOL0     H30235   9.635   5.126   6.832 -2.8122 -0.3183 -0.6697
  224MOL0     H30236   9.754   4.914   6.728  0.5710  0.2888  0.1071
  224MOL0     H30237   9.768   4.843   6.895 -0.2387 -0.3113 -1.3139
  224MOL0     H30238  10.071   5.124   6.858 -0.3313 -0.5086  0.0866
  224MOL0     H30239   9.217   5.117   7.062 -1.3301  0.8458 -0.0167
  224MOL0     H30240   8.994   5.189   7.136  1.7587 -3.4295  2.0294
  225MOL0     O30241   3.910   5.968   0.859 -0.4661  0.5503  0.4247
  225MOL0     C30242   3.908   6.048   0.950  0.2880  0.2148  0.2640
  225MOL0     O30243   3.824   6.054   1.055 -0.7036  0.6201  0.9108
  225MOL0     C30244   3.731   5.957   1.066 -0.1368 -0.3098  0.4839
  225MOL0     C30245   3.625   5.940   0.971 -0.1386  0.5828  0.3526
  225MOL0     C30246   3.528   5.839   0.985 -0.5810 -0.6385 -0.4258
  225MOL0     C30247   3.551   5.744   1.088 -1.0090 -0.0824  0.3928
  225MOL0     O30248   3.465   5.645   1.095  0.3612 -0.1866 -0.2874
  225MOL0     C30249   3.511   5.510   1.113 -0.2028 -0.1382 -0.2616
  225MOL0     C30250   3.453   5.447   1.245 -0.6926 -0.8229  0.9967
  225MOL0     C30251   3.298   5.431   1.235 -0.0153  0.5802  0.6177
  225MOL0     C30252   3.245   5.392   1.368 -0.4024 -0.2736 -0.0814
  225MOL0     C30253   3.092   5.388   1.370  0.5882  0.4162 -0.2872
  225MOL0     C30254   3.052   5.363   1.512 -0.3990 -0.5077 -0.3713
  225MOL0     C30255   2.895   5.391   1.532 -0.0014 -0.2534 -0.0536
  225MOL0     C30256   2.860   5.452   1.666 -0.0899  0.0131  0.0768
  225MOL0     N30257   2.723   5.481   1.685  0.2305 -0.7395 -0.3899
  225MOL0     C30258   2.665   5.606   1.655 -0.4516  0.0257  0.0061
  225MOL0     C30259   2.543   5.603   1.699  0.2944 -0.2839 -0.1215
  225MOL0     C30260   2.442   5.709   1.694  0.6803 -0.5535  0.5263
  225MOL0     C30261   2.299   5.652   1.733 -0.8067  0.3539 -1.0317
  225MOL0     C30262   2.278   5.618   1.883  0.7700 -0.6043 -0.3858
  225MOL0     C30263   2.135   5.592   1.923 -0.1286 -0.8625 -0.1419
  225MOL0     O30264   2.039   5.707   1.899  0.3796  0.6766  0.3999
  225MOL0     C30265   1.918   5.645   1.872  0.7755  0.0138 -0.6871
  225MOL0     C30266   1.819   5.615   1.974 -0.4063  0.2135 -0.2338
  225MOL0     C30267   1.700   5.549   1.939  0.4505 -0.5513 -1.2552
  225MOL0     C30268   1.611   5.525   2.062  1.7526  0.5639 -0.6167
  225MOL0     C30269   1.663   5.526   1.802 -0.0392  0.3508 -0.8418
  225MOL0     C30270   1.535   5.462   1.758  0.1053 -0.2726 -0.2015
  225MOL0     O30271   1.542   5.418   1.632  0.3652  0.0769 -0.2298
  225MOL0     C30272   1.462   5.310   1.590  0.3573 -0.5121 -0.1799
  225MOL0     C30273   1.398   5.215   1.673  0.0729 -0.1267 -0.4071
  225MOL0     C30274   1.316   5.116   1.608 -0.2055  0.0231  0.2702
  225MOL0     C30275   1.297   5.106   1.469  0.4525  0.3802  0.0815
  225MOL0     O30276   1.207   5.010   1.416 -0.0701 -0.2535 -0.7475
  225MOL0     C30277   1.115   5.073   1.329 -0.2349  0.8632  0.1446
  225MOL0     C30278   0.995   4.985   1.306  0.4306 -0.0079  0.6813
  225MOL0     C30279   0.908   4.985   1.431  0.8601  0.9542 -0.2575
  225MOL0     C30280   0.761   4.949   1.382  0.2244 -1.5178 -0.3539
  225MOL0     C30281   0.672   4.975   1.502 -0.3146  0.2187 -0.1795
  225MOL0     C30282   0.539   4.899   1.515  0.2835 -0.4417  0.8206
  225MOL0     C30283   0.475   4.891   1.655 -0.0161  0.0088  0.2052
  225MOL0     C30284   0.466   5.022   1.737  0.5741 -0.8020 -0.7299
  225MOL0    Cl30285   0.347   5.136   1.679 -0.2727 -0.4851 -0.0461
  225MOL0     C30286   1.389   5.172   1.393  0.8942  0.4062  0.2671
  225MOL0     C30287   1.462   5.286   1.451  0.1579  0.6842  0.0194
  225MOL0     O30288   1.431   5.471   1.823 -0.3610  0.2442 -0.8430
  225MOL0     C30289   1.765   5.560   1.707  0.1466  0.1061 -0.2221
  225MOL0     C30290   1.887   5.609   1.745 -0.8377  0.0779 -0.1756
  225MOL0     N30291   2.520   5.476   1.757  0.5245  0.2049 -0.1291
  225MOL0     N30292   2.628   5.408   1.750  0.1327  0.0649  0.5051
  225MOL0     C30293   3.657   5.752   1.180 -0.0449 -0.5311  0.0220
  225MOL0     C30294   3.742   5.866   1.172  0.5096 -0.7745  0.2077
  225MOL0     C30295   3.989   6.174   0.937  0.8013 -0.0447  0.2891
  225MOL0     C30296   4.088   6.182   0.831  0.0977 -0.1827 -0.6492
  225MOL0     C30297   4.180   6.289   0.818  0.0831  0.6637 -0.2789
  225MOL0     C30298   4.154   6.398   0.903 -0.4043  0.8499  0.1992
  225MOL0     O30299   4.245   6.499   0.903  0.0247 -0.1564  0.6712
  225MOL0     C30300   4.372   6.451   0.938 -0.3644 -0.0574  0.0862
  225MOL0     C30301   4.466   6.565   0.982 -0.1372 -0.2520  0.0549
  225MOL0     C30302   4.399   6.667   1.078  0.2815  0.0605 -0.6242
  225MOL0     C30303   4.513   6.751   1.145 -0.1321 -0.1216  0.0961
  225MOL0     C30304   4.565   6.845   1.038  1.1752  0.4954 -0.6907
  225MOL0     C30305   4.624   6.906   0.955  0.6926 -0.1322 -0.6198
  225MOL0     C30306   4.055   6.390   1.002  0.6170 -0.4886  0.2293
  225MOL0     C30307   3.972   6.280   1.022  0.2886  0.1442 -0.3872
  225MOL0     H30308   3.612   6.001   0.883  1.4672 -0.8546 -0.9442
  225MOL0     H30309   3.442   5.824   0.921 -1.8730  1.0022  0.8359
  225MOL0     H30310   3.484   5.442   1.031  2.9007  1.3429 -2.7432
  225MOL0     H30311   3.620   5.502   1.112  0.0027  1.8756 -2.3689
  225MOL0     H30312   3.510   5.354   1.250  0.6926  0.0019  1.2604
  225MOL0     H30313   3.478   5.524   1.319  0.1136  0.8397 -0.8967
  225MOL0     H30314   3.244   5.525   1.221 -2.2371 -0.4698  1.6057
  225MOL0     H30315   3.273   5.364   1.152 -1.2816  3.9640 -1.9354
  225MOL0     H30316   3.275   5.289   1.386  0.4373 -1.0416 -4.6667
  225MOL0     H30317   3.287   5.462   1.442  2.5330  0.2025 -2.0096
  225MOL0     H30318   3.042   5.481   1.342  0.6257  0.6017  0.2427
  225MOL0     H30319   3.050   5.313   1.303  0.5470  0.5408 -0.4015
  225MOL0     H30320   3.074   5.261   1.543  2.8164  0.0909 -0.3140
  225MOL0     H30321   3.104   5.438   1.573 -1.1601  1.4483 -2.0267
  225MOL0     H30322   2.849   5.461   1.462 -1.6445 -0.2798  0.9499
  225MOL0     H30323   2.844   5.295   1.514  1.3806 -1.5848  2.5403
  225MOL0     H30324   2.921   5.542   1.677 -2.6600  1.9225 -0.3449
  225MOL0     H30325   2.889   5.393   1.754 -2.4041  0.3053  1.1126
  225MOL0     H30326   2.724   5.687   1.614  0.3873 -0.4536  0.2378
  225MOL0     H30327   2.474   5.794   1.755  0.3172  0.1702 -0.2684
  225MOL0     H30328   2.435   5.754   1.594 -0.1254  1.2921  1.3825
  225MOL0     H30329   2.266   5.565   1.675 -3.1760  0.2244  0.3717
  225MOL0     H30330   2.228   5.732   1.711 -0.4527  1.8534  2.6762
  225MOL0     H30331   2.312   5.698   1.949 -3.7513 -1.2889  3.2605
  225MOL0     H30332   2.340   5.532   1.908 -1.1284 -2.1861 -0.9287
  225MOL0     H30333   2.134   5.573   2.031  0.0889  0.2077  0.0609
  225MOL0     H30334   2.114   5.492   1.883 -0.3405 -2.3511  3.3537
  225MOL0     H30335   1.823   5.650   2.076  0.5711 -0.0812 -0.1637
  225MOL0     H30336   1.536   5.604   2.064  2.9193  1.8795  3.7762
  225MOL0     H30337   1.578   5.422   2.046  0.5813  1.1931 -2.5629
  225MOL0     H30338   1.662   5.534   2.159 -1.1529 -1.2995  1.2329
  225MOL0     H30339   1.419   5.219   1.779 -0.2665  0.0973 -0.3468
  225MOL0     H30340   1.256   5.051   1.670  0.5613  1.5157  2.7173
  225MOL0     H30341   1.086   5.171   1.368 -1.8371  0.7985 -0.8103
  225MOL0     H30342   1.169   5.091   1.235 -0.2923 -1.2691 -0.3405
  225MOL0     H30343   0.939   5.025   1.221  2.0446  2.0714  0.5208
  225MOL0     H30344   1.033   4.890   1.266  0.8843 -0.0787  1.2659
  225MOL0     H30345   0.901   5.088   1.467  0.8792  1.9020 -2.7955
  225MOL0     H30346   0.952   4.917   1.505 -2.5443 -2.4877 -1.0234
  225MOL0     H30347   0.735   5.015   1.299 -0.7135  0.9461  1.7812
  225MOL0     H30348   0.764   4.844   1.351  1.0400 -1.4530 -0.5184
  225MOL0     H30349   0.645   5.080   1.508 -0.3718  0.1840  0.1564
  225MOL0     H30350   0.743   4.950   1.581  1.3841 -1.1560 -2.0087
  225MOL0     H30351   0.467   4.953   1.452  0.1432 -1.2859  0.2482
  225MOL0     H30352   0.557   4.806   1.461 -1.2977 -1.8749  2.6412
  225MOL0     H30353   0.538   4.820   1.710  0.5698  0.8262  0.6118
  225MOL0     H30354   0.371   4.857   1.655 -1.0168  2.3009 -4.4209
  225MOL0     H30355   0.567   5.065   1.736  1.2424 -1.8661  3.3060
  225MOL0     H30356   0.444   5.000   1.841  0.3674 -2.6063 -1.1308
  225MOL0     H30357   1.396   5.158   1.285 -3.0625  0.7777 -0.1767
  225MOL0     H30358   1.520   5.365   1.404 -2.3051  4.1671  2.3643
  225MOL0     H30359   1.752   5.543   1.601  2.2405 -1.8847 -0.2535
  225MOL0     H30360   1.972   5.628   1.680  0.8038 -0.7494  1.6353
  225MOL0     H30361   3.661   5.683   1.264  0.5900 -0.0314  0.4157
  225MOL0     H30362   3.816   5.876   1.251 -0.6554  3.0802  1.0029
  225MOL0     H30363   4.097   6.107   0.752  3.3477  0.6582 -1.2416
  225MOL0     H30364   4.256   6.306   0.742  0.4195  1.8496  0.2901
  225MOL0     H30365   4.367   6.385   1.025 -0.5579  0.5130  0.5176
  225MOL0     H30366   4.420   6.395   0.857  1.7926 -1.2311  2.0738
  225MOL0     H30367   4.496   6.607   0.886  0.3200 -1.5813 -0.4132
  225MOL0     H30368   4.556   6.517   1.023  0.7112  0.5382 -0.8298
  225MOL0     H30369   4.338   6.614   1.152 -0.6049  0.1067 -1.3113
  225MOL0     H30370   4.331   6.735   1.027  1.5843  1.8108 -0.1216
  225MOL0     H30371   4.597   6.693   1.185  0.8243 -0.1562 -1.8487
  225MOL0     H30372   4.461   6.814   1.218 -1.1219  1.9023 -2.1903
  225MOL0     H30373   4.695   6.955   0.891 -0.8864  3.3888  0.0502
  225MOL0     H30374   4.042   6.483   1.056 -0.9431 -1.2475  1.2128
  225MOL0     H30375   3.902   6.288   1.104  0.2938  3.0122 -0.5641
  226MOL0     O30376   5.791   2.518   7.469  0.2983 -0.4470 -0.7224
  226MOL0     C30377   5.799   2.444   7.566 -0.1499 -0.5483 -0.3714
  226MOL0     O30378   5.700   2.368   7.618  0.0575 -0.2659 -0.1572
  226MOL0     C30379   5.567   2.367   7.579 -0.5802  0.5104 -0.4981
  226MOL0     C30380   5.491   2.481   7.540  0.5712  0.1659 -0.0243
  226MOL0     C30381   5.350   2.462   7.513  0.3606  0.2478 -0.2092
  226MOL0     C30382   5.296   2.338   7.526  0.7856  0.8481 -0.9382
  226MOL0     O30383   5.164   2.320   7.493  0.3013 -0.0126  0.1070
  226MOL0     C30384   5.082   2.334   7.607  0.2952  0.6607  1.3557
  226MOL0     C30385   4.934   2.341   7.567 -0.8212 -0.5699  0.2582
  226MOL0     C30386   4.900   2.193   7.528 -0.1576  0.1378 -0.2884
  226MOL0     C30387   4.749   2.191   7.503 -0.1283  0.5253 -0.1462
  226MOL0     C30388   4.697   2.044   7.498 -0.1732  0.1496  0.2966
  226MOL0     C30389   4.547   2.037   7.488  0.0414 -0.6776 -0.3058
  226MOL0     C30390   4.487   1.901   7.478  0.3889  0.1880 -0.0516
  226MOL0     C30391   4.336   1.903   7.432 -0.0145 -0.5073 -0.3479
  226MOL0     N30392   4.250   1.794   7.483 -0.8870  0.3138  0.0732
  226MOL0     C30393   4.258   1.733   7.604 -0.3083  0.6706  0.7202
  226MOL0     C30394   4.174   1.629   7.592  0.6471 -0.0263  0.5077
  226MOL0     C30395   4.123   1.541   7.705 -0.6775 -0.6742 -0.5836
  226MOL0     C30396   4.151   1.397   7.680 -0.3424  0.9448 -0.1773
  226MOL0     C30397   4.099   1.304   7.798  0.8940  0.2396 -0.5328
  226MOL0     C30398   3.947   1.297   7.813 -0.8712  0.0303  0.3802
  226MOL0     O30399   3.888   1.286   7.679  0.4957 -0.2203  0.0473
  226MOL0     C30400   3.750   1.277   7.669 -0.2742  0.0138  0.4966
  226MOL0     C30401   3.709   1.242   7.543 -0.0692 -0.8230  0.1699
  226MOL0     C30402   3.569   1.219   7.515 -0.3853  0.2263 -0.1137
  226MOL0     C30403   3.533   1.184   7.376  0.9677 -0.3864  0.2371
  226MOL0     C30404   3.475   1.222   7.623 -0.2921 -0.7822 -0.1637
  226MOL0     C30405   3.330   1.187   7.601  0.4587 -0.1050  0.1125
  226MOL0     O30406   3.244   1.233   7.694  0.7461  0.4993 -0.3811
  226MOL0     C30407   3.109   1.186   7.703  0.1615 -0.1951 -1.2069
  226MOL0     C30408   3.065   1.057   7.670 -0.3810 -0.3400 -0.7524
  226MOL0     C30409   2.939   1.008   7.711 -0.1847 -0.4005  0.0042
  226MOL0     C30410   2.848   1.097   7.790 -0.6913 -0.3920  0.1869
  226MOL0     O30411   2.722   1.063   7.836  0.0249  0.0686  0.5974
  226MOL0     C30412   2.710   0.930   7.883 -0.3433 -0.0226  0.1173
  226MOL0     C30413   2.566   0.915   7.948  0.2897 -0.3005 -0.2009
  226MOL0     C30414   2.572   0.973   8.099  0.1091  1.0134  0.1789
  226MOL0     C30415   2.426   0.981   8.153  0.2042  0.2477  0.8466
  226MOL0     C30416   2.425   0.974   8.301  1.1151 -0.2893 -0.1889
  226MOL0     C30417   2.489   1.109   8.345  0.1035  0.1363  0.1428
  226MOL0     C30418   2.411   1.234   8.307  0.0283  0.3019 -0.7075
  226MOL0     C30419   2.456   1.359   8.375 -0.3249 -0.1764 -0.2591
  226MOL0    Cl30420   2.365   1.400   8.522  0.5248 -0.1715 -0.1443
  226MOL0     C30421   2.894   1.225   7.828 -0.0104  0.3564  0.3176
  226MOL0     C30422   3.028   1.260   7.787  0.5212  0.2282  0.6015
  226MOL0     O30423   3.293   1.130   7.497  0.6217 -0.5402  0.2019
  226MOL0     C30424   3.521   1.261   7.752 -0.6952 -0.3506  0.1222
  226MOL0     C30425   3.658   1.281   7.774 -0.2560  0.6805  0.1395
  226MOL0     N30426   4.113   1.629   7.471 -0.0356  0.6074  0.7611
  226MOL0     N30427   4.159   1.732   7.410  0.2345 -0.7140 -0.2893
  226MOL0     C30428   5.371   2.227   7.570  0.3309  0.1773 -0.3675
  226MOL0     C30429   5.511   2.242   7.585  0.8042  0.0313  0.4360
  226MOL0     C30430   5.926   2.443   7.645  0.5484  0.7267 -0.1744
  226MOL0     C30431   6.032   2.528   7.603  0.5898 -0.6175  0.4237
  226MOL0     C30432   6.141   2.541   7.687 -0.9076 -0.0989 -1.0917
  226MOL0     C30433   6.164   2.465   7.803 -0.1971 -0.2272 -0.7067
  226MOL0     O30434   6.284   2.458   7.870 -0.2126 -0.5389  0.5524
  226MOL0     C30435   6.347   2.585   7.900 -0.6335 -0.5458 -0.7988
  226MOL0     C30436   6.463   2.569   7.999  0.9159  0.0764  0.0004
  226MOL0     C30437   6.506   2.714   8.054 -0.6907 -0.0281  0.0734
  226MOL0     C30438   6.635   2.720   8.144 -1.4433 -0.0261 -0.5427
  226MOL0     C30439   6.749   2.646   8.085  0.4722  0.2919 -0.4099
  226MOL0     C30440   6.839   2.600   8.019  0.2015 -0.3458 -0.3319
  226MOL0     C30441   6.067   2.366   7.833  0.0777  0.5447  0.1035
  226MOL0     C30442   5.942   2.359   7.756 -0.2114 -0.1141 -0.3443
  226MOL0     H30443   5.542   2.576   7.540  1.4033  0.0109  4.9156
  226MOL0     H30444   5.284   2.545   7.491  3.4915  2.9226 -0.2191
  226MOL0     H30445   5.101   2.266   7.690  0.7033  1.1714  1.6896
  226MOL0     H30446   5.095   2.435   7.649 -1.0193  2.3019 -1.8261
  226MOL0     H30447   4.874   2.374   7.652 -0.0647  0.7511  0.3093
  226MOL0     H30448   4.911   2.404   7.480  1.8509  0.8160  0.4708
  226MOL0     H30449   4.956   2.153   7.442 -0.2371 -1.7625  0.4823
  226MOL0     H30450   4.927   2.119   7.604 -0.6474 -0.8340 -1.0261
  226MOL0     H30451   4.705   2.250   7.584  0.4326  0.3739  0.2755
  226MOL0     H30452   4.726   2.245   7.411 -0.1935  1.0964  0.1973
  226MOL0     H30453   4.743   2.004   7.407 -0.1894  2.7480 -0.9358
  226MOL0     H30454   4.749   1.995   7.580  3.6702 -0.1039 -2.0202
  226MOL0     H30455   4.502   2.094   7.570 -0.5335  0.9284 -1.6638
  226MOL0     H30456   4.531   2.096   7.397  1.6753 -0.5834 -0.5644
  226MOL0     H30457   4.532   1.847   7.394 -1.6934  0.6884 -1.5574
  226MOL0     H30458   4.492   1.837   7.566 -1.4184 -3.3222 -2.2365
  226MOL0     H30459   4.335   1.898   7.323 -0.4418 -1.6056 -0.3091
  226MOL0     H30460   4.284   1.995   7.463  0.0764  0.4208 -2.7602
  226MOL0     H30461   4.323   1.765   7.684  2.0120  2.4843 -1.6808
  226MOL0     H30462   4.179   1.569   7.794  0.6225 -2.9412 -0.6145
  226MOL0     H30463   4.016   1.563   7.712 -0.1460  2.1567  0.2348
  226MOL0     H30464   4.259   1.385   7.672 -0.2055  1.1708  1.0716
  226MOL0     H30465   4.109   1.356   7.588  1.3552 -1.6404  0.0926
  226MOL0     H30466   4.148   1.330   7.892 -1.2810  1.6864  0.2646
  226MOL0     H30467   4.137   1.204   7.774  0.7358  0.2200 -0.7044
  226MOL0     H30468   3.897   1.374   7.873 -2.5363 -2.3035  2.1468
  226MOL0     H30469   3.931   1.201   7.862  0.3008  0.4553  1.6627
  226MOL0     H30470   3.781   1.235   7.463 -0.4024  0.4186 -0.2580
  226MOL0     H30471   3.606   1.231   7.310  2.2295  2.4418  3.3975
  226MOL0     H30472   3.507   1.079   7.357 -1.4590  0.0824  0.5930
  226MOL0     H30473   3.446   1.247   7.356  1.0842 -0.4374 -0.4470
  226MOL0     H30474   3.125   0.994   7.606  0.4160  1.9536 -2.3916
  226MOL0     H30475   2.917   0.904   7.686 -1.1529 -0.1249 -0.3248
  226MOL0     H30476   2.736   0.857   7.806 -0.7947 -1.5219  1.3198
  226MOL0     H30477   2.786   0.908   7.959  0.8811 -2.1319 -1.6169
  226MOL0     H30478   2.491   0.966   7.887 -0.3313 -1.6785 -0.6416
  226MOL0     H30479   2.529   0.813   7.961 -2.0401  0.6837  1.5093
  226MOL0     H30480   2.624   1.069   8.096  0.5375  0.7803 -1.9119
  226MOL0     H30481   2.626   0.910   8.170  1.0310  1.0105 -0.5055
  226MOL0     H30482   2.379   1.066   8.102  1.8090  1.5500  1.4573
  226MOL0     H30483   2.370   0.892   8.123  0.3750  0.1286  0.8851
  226MOL0     H30484   2.476   0.883   8.335  0.6647 -0.2093  0.7245
  226MOL0     H30485   2.319   0.971   8.325  0.8414 -2.6888 -1.4301
  226MOL0     H30486   2.505   1.108   8.454  0.1743  0.9175  0.1442
  226MOL0     H30487   2.594   1.116   8.314  0.0479  0.9334  0.1325
  226MOL0     H30488   2.313   1.214   8.353  0.4446 -0.4424 -0.1142
  226MOL0     H30489   2.399   1.257   8.201 -5.4919  5.9816  0.5108
  226MOL0     H30490   2.446   1.444   8.305  0.8227  1.1679  1.1419
  226MOL0     H30491   2.561   1.342   8.400  0.3482 -0.3363 -2.8528
  226MOL0     H30492   2.827   1.288   7.886  1.6722  1.6275  0.9480
  226MOL0     H30493   3.067   1.358   7.814 -2.3203  1.9023 -0.8923
  226MOL0     H30494   3.458   1.270   7.840  1.0305  0.1673  1.3471
  226MOL0     H30495   3.699   1.291   7.874  2.6610 -1.0651 -0.7721
  226MOL0     H30496   5.329   2.127   7.572  2.0258 -0.7466 -3.5162
  226MOL0     H30497   5.573   2.157   7.609 -0.4136 -0.3551  2.3950
  226MOL0     H30498   6.031   2.590   7.514  2.4635  2.6177  2.4593
  226MOL0     H30499   6.210   2.623   7.670  0.1415 -0.9736 -1.1400
  226MOL0     H30500   6.385   2.632   7.808 -2.5016  0.2421 -1.2053
  226MOL0     H30501   6.280   2.662   7.939  0.9539  0.0609  0.9109
  226MOL0     H30502   6.546   2.507   7.965  1.3938  0.3922  0.5880
  226MOL0     H30503   6.427   2.511   8.084  1.8248  0.6407  0.7852
  226MOL0     H30504   6.425   2.762   8.110  1.1593  1.9488  1.2563
  226MOL0     H30505   6.524   2.772   7.963  1.5800  0.2143  0.6298
  226MOL0     H30506   6.607   2.678   8.241  1.7166  0.7778  0.8413
  226MOL0     H30507   6.676   2.821   8.151 -0.7961 -0.1716 -1.7963
  226MOL0     H30508   6.937   2.583   7.978  0.6983 -1.1684  1.1263
  226MOL0     H30509   6.074   2.292   7.912 -0.3323  1.2014  0.7584
  226MOL0     H30510   5.860   2.292   7.782  0.0671 -0.3235 -0.0032
  227MOL0     O30511  10.146   1.374   8.710  0.2244  0.7213  0.1805
  227MOL0     C30512  10.208   1.385   8.814 -0.4461  0.1211  0.6662
  227MOL0     O30513  10.155   1.358   8.935 -0.2625  0.0342  0.9435
  227MOL0     C30514  10.021   1.322   8.934  0.3187  0.2683  0.0506
  227MOL0     C30515   9.986   1.207   9.008 -0.4015 -0.2068 -0.3153
  227MOL0     C30516   9.850   1.166   9.017 -0.1131 -0.5558 -0.9496
  227MOL0     C30517   9.751   1.252   8.968  0.0131  1.2189 -1.4133
  227MOL0     O30518   9.621   1.206   8.986  0.3249  0.3352 -0.2744
  227MOL0     C30519   9.507   1.284   8.933  1.4715  0.4064  0.5648
  227MOL0     C30520   9.378   1.222   8.989  0.2297  0.2460 -0.4555
  227MOL0     C30521   9.255   1.264   8.905  0.3648  1.0560 -0.4775
  227MOL0     C30522   9.235   1.413   8.904 -0.8659 -0.1717 -0.3029
  227MOL0     C30523   9.092   1.456   8.866 -0.2327  0.4632 -1.1385
  227MOL0     C30524   9.001   1.447   8.997 -0.5691 -0.1973 -0.7689
  227MOL0     C30525   8.866   1.508   8.972  0.6868  0.0415 -0.0521
  227MOL0     C30526   8.790   1.552   9.104 -0.2832 -0.4428  0.2585
  227MOL0     N30527   8.656   1.608   9.056 -0.9674 -0.8514  0.9166
  227MOL0     C30528   8.555   1.530   9.022  0.3451  0.5366  0.9311
  227MOL0     C30529   8.464   1.608   8.960 -0.3422 -1.1466 -0.3171
  227MOL0     C30530   8.341   1.565   8.881 -0.0498 -0.0551  0.7226
  227MOL0     C30531   8.244   1.504   8.975 -0.9684  1.2026  1.2826
  227MOL0     C30532   8.120   1.434   8.901 -0.0812 -1.1355  0.3267
  227MOL0     C30533   8.070   1.485   8.762 -0.3425 -0.1556 -0.2194
  227MOL0     O30534   8.041   1.626   8.756 -0.3653  0.4499  0.1399
  227MOL0     C30535   7.933   1.664   8.828  0.2705  0.2053 -0.8846
  227MOL0     C30536   7.807   1.675   8.770 -1.3397 -0.5588  0.4052
  227MOL0     C30537   7.699   1.737   8.831  0.7002 -0.0450 -0.4245
  227MOL0     C30538   7.570   1.719   8.756  0.9439 -0.0263 -0.6544
  227MOL0     C30539   7.707   1.802   8.952 -1.2063  0.3117 -0.5023
  227MOL0     C30540   7.594   1.852   9.040 -0.2480  0.5180  1.0406
  227MOL0     O30541   7.626   1.884   9.165  0.3873 -0.5158 -0.2641
  227MOL0     C30542   7.509   1.922   9.234 -0.0629  0.4534  0.3143
  227MOL0     C30543   7.441   1.826   9.310 -0.0806  1.0871  0.3885
  227MOL0     C30544   7.341   1.852   9.395  0.3271 -0.5903  0.1566
  227MOL0     C30545   7.311   1.984   9.425  0.1535 -0.5453  1.2505
  227MOL0     O30546   7.215   2.013   9.517  0.4435  0.6357  0.0600
  227MOL0     C30547   7.081   1.954   9.490 -0.2397 -0.8012 -0.1445
  227MOL0     C30548   7.003   2.059   9.406  0.7924  0.7351 -0.0190
  227MOL0     C30549   6.855   2.040   9.430  0.0735  0.9665 -0.4035
  227MOL0     C30550   6.811   1.918   9.340 -0.3536 -0.3897  0.4527
  227MOL0     C30551   6.666   1.879   9.368 -0.8069 -0.1789  0.7576
  227MOL0     C30552   6.632   1.739   9.315  0.2362  0.2357 -0.3530
  227MOL0     C30553   6.656   1.740   9.159  0.1183 -0.1528 -0.3091
  227MOL0     C30554   6.749   1.628   9.102  0.2120  0.6299  0.6427
  227MOL0    Cl30555   6.637   1.486   9.054 -0.0155 -0.0422 -0.2025
  227MOL0     C30556   7.377   2.083   9.355  1.1111 -0.1823  0.1202
  227MOL0     C30557   7.468   2.054   9.253 -0.3445  0.4108  0.0004
  227MOL0     O30558   7.488   1.871   8.986  0.4679  0.1237  0.1210
  227MOL0     C30559   7.842   1.806   9.008 -0.2251  0.4005  0.7653
  227MOL0     C30560   7.946   1.733   8.947 -0.0677  0.5027  0.0470
  227MOL0     N30561   8.517   1.736   8.949  0.3466 -0.5075 -1.0683
  227MOL0     N30562   8.630   1.728   9.000  0.2458  0.2167 -0.1031
  227MOL0     C30563   9.782   1.365   8.903  0.6525  0.9742 -0.6377
  227MOL0     C30564   9.921   1.401   8.892  0.2204 -0.2693 -1.1429
  227MOL0     C30565  10.344   1.427   8.797 -0.5982 -1.3089  0.6787
  227MOL0     C30566  10.416   1.465   8.909  0.5915 -0.4541  0.3144
  227MOL0     C30567  10.548   1.508   8.903 -1.0935  0.4004 -0.5074
  227MOL0     C30568  10.620   1.514   8.787 -1.0105 -0.6926  0.0852
  227MOL0     O30569  10.749   1.568   8.797  0.6879  0.0372  0.2696
  227MOL0     C30570  10.813   1.626   8.679  0.1233 -0.4099 -1.0745
  227MOL0     C30571  10.933   1.712   8.726 -0.1222 -0.5286  0.6289
  227MOL0     C30572  11.043   1.620   8.779  0.0710  0.2497 -0.1149
  227MOL0     C30573  11.170   1.695   8.811 -0.3979  0.4643 -0.4592
  227MOL0     C30574  11.155   1.765   8.943  0.5067 -0.6664  0.0780
  227MOL0     C30575  11.149   1.828   9.044 -0.0697 -1.2228  0.2410
  227MOL0     C30576  10.551   1.488   8.671 -0.2211  1.2952 -0.2417
  227MOL0     C30577  10.420   1.441   8.681 -0.2337 -0.2340  0.8671
  227MOL0     H30578  10.074   1.149   9.034  0.0507  0.9345  0.8038
  227MOL0     H30579   9.831   1.070   9.064 -0.7254 -0.8983 -1.8725
  227MOL0     H30580   9.515   1.385   8.975  1.8286  0.3304  0.6812
  227MOL0     H30581   9.499   1.271   8.824  1.1287 -1.1359  0.7575
  227MOL0     H30582   9.392   1.113   8.995 -2.7809 -0.2611 -1.1260
  227MOL0     H30583   9.367   1.260   9.091  2.2804  1.0991 -0.4919
  227MOL0     H30584   9.274   1.213   8.810  0.5505 -1.8853  1.0377
  227MOL0     H30585   9.169   1.210   8.946  2.3661 -1.1949  1.0152
  227MOL0     H30586   9.257   1.458   9.001  0.4498  3.2936 -2.0355
  227MOL0     H30587   9.306   1.459   8.835 -0.2698  0.1451  0.5061
  227MOL0     H30588   9.093   1.555   8.819 -0.3814  0.7507 -0.5378
  227MOL0     H30589   9.041   1.391   8.794 -2.5630  0.2751  0.5612
  227MOL0     H30590   8.998   1.341   9.024 -0.0318  0.0041  0.1038
  227MOL0     H30591   9.054   1.505   9.073  1.2406  0.6786 -2.5830
  227MOL0     H30592   8.878   1.599   8.912 -0.4787  0.1191 -0.1936
  227MOL0     H30593   8.799   1.442   8.916 -2.8292  2.2830  1.1036
  227MOL0     H30594   8.844   1.640   9.140  1.9608 -1.6526  0.0015
  227MOL0     H30595   8.788   1.475   9.181  2.7010 -0.3197  0.5679
  227MOL0     H30596   8.544   1.424   9.044  2.6557 -0.2446 -1.2123
  227MOL0     H30597   8.292   1.649   8.831 -0.5653  0.3136  1.7958
  227MOL0     H30598   8.377   1.497   8.804  1.3955  1.0591  0.3772
  227MOL0     H30599   8.210   1.579   9.047  4.0740  1.9931  3.2254
  227MOL0     H30600   8.300   1.430   9.033  1.0903 -0.4358 -2.4460
  227MOL0     H30601   8.037   1.428   8.971 -2.1702  1.6183 -1.6841
  227MOL0     H30602   8.148   1.334   8.867  1.1300  0.1032 -2.7871
  227MOL0     H30603   7.976   1.441   8.727 -0.8659 -0.1246  1.1148
  227MOL0     H30604   8.149   1.454   8.692 -2.0301 -0.7178 -1.9781
  227MOL0     H30605   7.799   1.644   8.666  0.3078  3.9524 -1.3255
  227MOL0     H30606   7.588   1.676   8.657 -1.8364 -0.6008 -0.9818
  227MOL0     H30607   7.505   1.644   8.803  0.6581  0.0720 -0.8947
  227MOL0     H30608   7.513   1.811   8.743  2.1528  1.1414  1.8253
  227MOL0     H30609   7.475   1.723   9.304 -2.0157  0.1595  3.2658
  227MOL0     H30610   7.307   1.774   9.463  1.4432 -3.8912 -2.7812
  227MOL0     H30611   7.077   1.851   9.452 -1.0201 -0.2161 -1.7159
  227MOL0     H30612   7.050   1.952   9.595 -0.6669 -0.7564 -0.2661
  227MOL0     H30613   7.035   2.160   9.434  2.3437  0.8238 -1.8738
  227MOL0     H30614   7.029   2.050   9.300  0.7295  0.0337  0.0166
  227MOL0     H30615   6.793   2.125   9.402  0.7446  1.3735 -0.6900
  227MOL0     H30616   6.833   2.019   9.535  1.9026 -0.0177 -0.1702
  227MOL0     H30617   6.821   1.954   9.238  1.6507  0.0238  0.7491
  227MOL0     H30618   6.877   1.834   9.361 -2.3049 -2.1089  0.0402
  227MOL0     H30619   6.598   1.949   9.319 -1.5819 -2.2953 -1.3946
  227MOL0     H30620   6.649   1.888   9.476  0.2797 -0.6575  0.9809
  227MOL0     H30621   6.681   1.656   9.368 -0.9487 -1.0192 -1.1405
  227MOL0     H30622   6.528   1.712   9.335 -0.5466  3.6853  0.7512
  227MOL0     H30623   6.707   1.833   9.132 -0.2680  1.1379  2.9421
  227MOL0     H30624   6.557   1.727   9.114  0.7272 -2.0935 -1.1873
  227MOL0     H30625   6.825   1.588   9.169  0.4511 -1.1205 -0.6214
  227MOL0     H30626   6.813   1.677   9.029  2.0354 -0.4080  1.4698
  227MOL0     H30627   7.362   2.184   9.392  2.7647 -0.5715  1.9846
  227MOL0     H30628   7.526   2.136   9.212  1.1226 -1.5604 -2.0748
  227MOL0     H30629   7.861   1.837   9.110 -2.1144  0.2738  1.2002
  227MOL0     H30630   8.047   1.747   8.985  0.3099  1.7045 -1.3049
  227MOL0     H30631   9.711   1.425   8.848 -0.8971  0.3383  0.6025
  227MOL0     H30632   9.959   1.488   8.839  1.5454  1.0324  1.7294
  227MOL0     H30633  10.369   1.472   9.007  1.0047 -0.1416  0.4968
  227MOL0     H30634  10.592   1.541   8.997  0.7260  0.2104 -1.2558
  227MOL0     H30635  10.843   1.541   8.618 -1.4303 -1.8720  0.1013
  227MOL0     H30636  10.740   1.683   8.620 -1.2524  1.4942  2.1676
  227MOL0     H30637  10.912   1.792   8.797 -3.4045  0.1748 -0.9186
  227MOL0     H30638  10.971   1.774   8.643  0.3602  0.6851  1.7243
  227MOL0     H30639  11.072   1.551   8.699 -1.9456 -1.3070  0.4045
  227MOL0     H30640  11.019   1.552   8.861  1.5523 -0.9134 -0.5977
  227MOL0     H30641  11.202   1.762   8.731 -1.0894 -0.3271 -1.4209
  227MOL0     H30642  11.238   1.610   8.824 -1.6002 -0.4335  0.2741
  227MOL0     H30643  11.126   1.899   9.121 -2.2855  0.9540 -2.1949
  227MOL0     H30644  10.603   1.502   8.576  1.7998  1.3128  0.8107
  227MOL0     H30645  10.377   1.426   8.583 -0.5436  1.4449  0.7175
  228MOL0     O30646   2.108   3.378   4.981 -0.1443  0.0868 -0.4155
  228MOL0     C30647   2.170   3.398   4.877  0.1413 -0.3062 -0.7866
  228MOL0     O30648   2.115   3.470   4.772  0.2058  0.7756 -0.4281
  228MOL0     C30649   1.997   3.543   4.791  0.2198  1.0556  0.0113
  228MOL0     C30650   2.014   3.679   4.793 -1.0148  0.9816 -0.6563
  228MOL0     C30651   1.914   3.769   4.816  1.3516  0.1991  0.1142
  228MOL0     C30652   1.780   3.723   4.826  0.0525 -0.1094  0.1029
  228MOL0     O30653   1.678   3.810   4.833  0.1009 -0.4207  0.2445
  228MOL0     C30654   1.675   3.902   4.945 -0.0025  0.6722 -0.5029
  228MOL0     C30655   1.597   4.036   4.913 -0.0982  0.3839 -0.6259
  228MOL0     C30656   1.443   4.004   4.914 -1.1776 -0.5494  0.1871
  228MOL0     C30657   1.357   4.129   4.866 -0.6256 -0.5570  0.3352
  228MOL0     C30658   1.213   4.090   4.844 -0.6385  0.1104 -0.3279
  228MOL0     C30659   1.118   4.211   4.829 -0.9521  0.1313  0.4236
  228MOL0     C30660   0.970   4.179   4.811  0.0449  0.0883  0.0582
  228MOL0     C30661   0.897   4.137   4.938 -0.0406 -0.5479 -0.5922
  228MOL0     N30662   0.754   4.113   4.922  0.3726  0.2168 -0.0396
  228MOL0     C30663   0.700   4.000   4.853 -0.0622  0.3384  1.0797
  228MOL0     C30664   0.573   4.043   4.839  0.6002  0.4275 -1.5048
  228MOL0     C30665   0.454   3.965   4.786 -0.3568  0.6483 -0.0616
  228MOL0     C30666   0.449   3.822   4.847 -0.2156  0.6841 -0.1088
  228MOL0     C30667   0.375   3.732   4.746  0.1226  0.0329  0.5295
  228MOL0     C30668   0.232   3.774   4.719 -0.0793 -0.0487  0.7616
  228MOL0     O30669   0.178   3.672   4.638 -0.1627 -0.5873 -1.2010
  228MOL0     C30670   0.043   3.669   4.617 -0.7064 -0.9000 -0.7681
  228MOL0     C30671  -0.052   3.727   4.702 -0.0403 -0.2142 -0.4264
  228MOL0     C30672  -0.185   3.721   4.677 -0.3813 -0.6566 -0.0633
  228MOL0     C30673  -0.281   3.793   4.776 -0.6379  0.8500  0.1363
  228MOL0     C30674  -0.227   3.658   4.551  0.5292 -0.5084 -0.6354
  228MOL0     C30675  -0.372   3.641   4.511  0.6713  0.7559 -0.4618
  228MOL0     O30676  -0.398   3.657   4.375 -0.7173  0.3566  0.4402
  228MOL0     C30677  -0.513   3.605   4.315  0.1310 -0.7718  0.6945
  228MOL0     C30678  -0.544   3.662   4.184  0.0064  0.1171 -0.3085
  228MOL0     C30679  -0.650   3.614   4.112  0.1966  0.1867  0.4520
  228MOL0     C30680  -0.740   3.523   4.167  0.8603  0.3547 -0.8842
  228MOL0     O30681  -0.864   3.495   4.116  0.3179  0.4581  0.5989
  228MOL0     C30682  -0.875   3.428   3.990 -0.6602 -0.2219  1.0462
  228MOL0     C30683  -1.023   3.427   3.948  0.4312 -0.3757  0.2348
  228MOL0     C30684  -1.044   3.392   3.798 -0.4973  0.6274  0.4015
  228MOL0     C30685  -1.193   3.392   3.778 -0.4085 -0.8275  0.2050
  228MOL0     C30686  -1.212   3.392   3.624  0.0674  0.3978 -0.6851
  228MOL0     C30687  -1.369   3.381   3.612 -0.4581  0.4607  0.0698
  228MOL0     C30688  -1.406   3.367   3.465  0.4478  0.5814 -0.6847
  228MOL0     C30689  -1.406   3.222   3.418  0.5923  0.1019 -0.4479
  228MOL0    Cl30690  -1.538   3.120   3.472  0.1268  0.1408  0.1703
  228MOL0     C30691  -0.716   3.465   4.298 -0.0769 -0.1300 -0.2151
  228MOL0     C30692  -0.603   3.508   4.368  0.1206  0.5686  0.1152
  228MOL0     O30693  -0.456   3.622   4.603 -0.0128  0.3211 -0.1498
  228MOL0     C30694  -0.126   3.610   4.466  0.4906  0.3565  0.5532
  228MOL0     C30695   0.007   3.617   4.497 -1.2864  0.3583 -0.5951
  228MOL0     N30696   0.553   4.169   4.878  0.2391 -0.0561  0.1922
  228MOL0     N30697   0.657   4.210   4.933 -0.2421  0.5014 -0.8477
  228MOL0     C30698   1.761   3.585   4.812  0.0986 -0.2757 -0.6025
  228MOL0     C30699   1.867   3.492   4.801 -0.7647 -0.4703 -0.3733
  228MOL0     C30700   2.312   3.362   4.867 -0.3704 -0.1206  0.4050
  228MOL0     C30701   2.373   3.295   4.971 -0.4125 -0.1412  0.6837
  228MOL0     C30702   2.511   3.272   4.965  0.9608 -0.3966  0.3554
  228MOL0     C30703   2.592   3.319   4.860  0.1631  0.4771 -0.4092
  228MOL0     O30704   2.726   3.292   4.882  0.6331 -0.2773  0.4247
  228MOL0     C30705   2.815   3.336   4.776  0.4031 -0.2098  0.3193
  228MOL0     C30706   2.966   3.339   4.823 -0.2210 -0.0419 -0.2092
  228MOL0     C30707   3.008   3.211   4.901  0.1209  0.9119  0.7031
  228MOL0     C30708   3.169   3.215   4.918  0.1204  0.1063 -0.1426
  228MOL0     C30709   3.246   3.194   4.795 -0.1564  0.0107 -1.5409
  228MOL0     C30710   3.325   3.162   4.703 -0.1017 -0.5333 -0.5730
  228MOL0     C30711   2.527   3.381   4.753 -0.0781  0.7889  0.3235
  228MOL0     C30712   2.390   3.406   4.754  0.1091  0.2964 -0.0141
  228MOL0     H30713   2.118   3.711   4.793 -0.7482  1.0883  4.8751
  228MOL0     H30714   1.938   3.874   4.828 -0.0540  0.2090  4.4631
  228MOL0     H30715   1.623   3.854   5.029  2.4945  1.1053  1.3879
  228MOL0     H30716   1.769   3.942   4.983 -0.9729  3.8016 -1.1530
  228MOL0     H30717   1.633   4.103   4.992  2.7414  1.1751 -2.4747
  228MOL0     H30718   1.630   4.073   4.816  1.0867 -2.1091 -1.2697
  228MOL0     H30719   1.420   3.919   4.849 -1.4489 -1.6035  1.6082
  228MOL0     H30720   1.417   3.974   5.016  0.6602  0.7239  1.0697
  228MOL0     H30721   1.366   4.211   4.938  3.7674  1.0333 -1.6945
  228MOL0     H30722   1.395   4.152   4.766  0.7790 -2.0920  0.4776
  228MOL0     H30723   1.212   4.026   4.755 -0.4163 -1.5507  0.8290
  228MOL0     H30724   1.187   4.044   4.939  2.5972 -0.9832  0.1420
  228MOL0     H30725   1.128   4.284   4.910 -1.1535  1.0875 -0.4092
  228MOL0     H30726   1.161   4.245   4.734  2.7506 -1.0637  1.4789
  228MOL0     H30727   0.924   4.271   4.775 -3.1581  0.0317  3.4240
  228MOL0     H30728   0.957   4.100   4.736 -0.8761 -1.9579  2.2318
  228MOL0     H30729   0.916   4.214   5.013 -2.0395  0.9591 -1.5521
  228MOL0     H30730   0.944   4.045   4.974  2.9094  0.6791 -1.0189
  228MOL0     H30731   0.753   3.911   4.822  0.4314  0.9728  0.0697
  228MOL0     H30732   0.361   4.016   4.814 -0.2571  0.3049  0.9532
  228MOL0     H30733   0.459   3.967   4.677  1.8338  0.0897 -0.0181
  228MOL0     H30734   0.420   3.802   4.951  0.1915 -1.7375 -0.3984
  228MOL0     H30735   0.553   3.787   4.841 -0.4004  0.3407 -1.8211
  228MOL0     H30736   0.371   3.627   4.778  1.3882 -1.4304 -3.4722
  228MOL0     H30737   0.428   3.753   4.652 -1.8687  2.4295 -0.1674
  228MOL0     H30738   0.228   3.864   4.657  0.0754 -2.1809 -2.5675
  228MOL0     H30739   0.166   3.782   4.806 -3.1209 -1.1159 -1.2702
  228MOL0     H30740  -0.022   3.775   4.794 -1.9563 -0.7604  0.5438
  228MOL0     H30741  -0.355   3.720   4.810 -1.6406  1.0825 -1.4190
  228MOL0     H30742  -0.217   3.833   4.855 -0.1557  2.0835 -0.8383
  228MOL0     H30743  -0.330   3.879   4.728 -0.2127  1.5833  0.9994
  228MOL0     H30744  -0.488   3.741   4.135  2.2387 -1.5649 -0.6368
  228MOL0     H30745  -0.670   3.664   4.017 -1.0572 -2.1949 -0.6410
  228MOL0     H30746  -0.815   3.470   3.909 -0.1550 -0.4336  1.3073
  228MOL0     H30747  -0.842   3.324   3.992 -0.3665 -0.1273  1.0297
  228MOL0     H30748  -1.085   3.368   4.017 -0.1220  0.8672  0.8386
  228MOL0     H30749  -1.063   3.527   3.966 -3.0164 -1.4719 -0.4640
  228MOL0     H30750  -1.003   3.291   3.784 -0.5674  0.7842 -1.1025
  228MOL0     H30751  -0.989   3.467   3.741  0.6338  1.7283  2.7945
  228MOL0     H30752  -1.238   3.308   3.831 -1.6382 -0.2687  0.0683
  228MOL0     H30753  -1.227   3.489   3.817 -1.4946 -1.2728  0.3999
  228MOL0     H30754  -1.170   3.308   3.569 -1.8312 -0.7154 -0.5033
  228MOL0     H30755  -1.176   3.489   3.588  3.7678  0.2373  1.9816
  228MOL0     H30756  -1.404   3.292   3.665  0.8410  0.1334  0.4318
  228MOL0     H30757  -1.414   3.465   3.664  0.8653  0.8161  0.6793
  228MOL0     H30758  -1.324   3.411   3.408 -0.5592  2.5560 -0.6986
  228MOL0     H30759  -1.501   3.412   3.432 -0.9739 -0.7499  1.3332
  228MOL0     H30760  -1.312   3.176   3.448 -1.0503 -2.3643  1.3115
  228MOL0     H30761  -1.407   3.226   3.309 -0.6366  0.6909 -0.4365
  228MOL0     H30762  -0.791   3.405   4.349 -0.9349  2.6565  2.0584
  228MOL0     H30763  -0.593   3.460   4.465  2.0507  3.5825  1.5436
  228MOL0     H30764  -0.157   3.549   4.382  2.9020  0.5229 -0.5353
  228MOL0     H30765   0.081   3.576   4.429 -1.7469  1.3445 -1.7395
  228MOL0     H30766   1.657   3.557   4.826  1.1843 -3.7328  2.0058
  228MOL0     H30767   1.850   3.385   4.803  0.7373 -0.7233  1.1172
  228MOL0     H30768   2.326   3.248   5.057  0.9514 -0.2428  1.4058
  228MOL0     H30769   2.560   3.220   5.047  1.9694  1.7168  1.1564
  228MOL0     H30770   2.811   3.262   4.696 -3.3579 -1.1459  1.1831
  228MOL0     H30771   2.797   3.439   4.743  2.1194 -0.0518 -0.2034
  228MOL0     H30772   2.985   3.422   4.891  1.3337  0.5310 -1.2779
  228MOL0     H30773   3.021   3.354   4.730 -1.0725  2.1808 -0.3984
  228MOL0     H30774   2.978   3.124   4.841  1.2624 -0.1424  1.5787
  228MOL0     H30775   2.960   3.206   4.999  0.2587 -2.5286  0.7425
  228MOL0     H30776   3.197   3.141   4.994  1.0391 -1.2159 -1.7091
  228MOL0     H30777   3.199   3.314   4.952  1.1714 -0.7423  1.5558
  228MOL0     H30778   3.394   3.142   4.624 -1.1148 -1.3988 -1.2680
  228MOL0     H30779   2.581   3.386   4.659 -1.2056  3.6989 -0.2770
  228MOL0     H30780   2.334   3.450   4.673 -1.5121 -0.4946  0.6394
  229MOL0     O30781   5.910   0.729   2.106  0.5579 -0.2427 -0.1528
  229MOL0     C30782   5.919   0.848   2.085  0.5777  0.8347  0.4445
  229MOL0     O30783   5.820   0.939   2.084 -0.7486 -0.1253 -0.0810
  229MOL0     C30784   5.690   0.901   2.061  0.3030  0.0634 -0.4962
  229MOL0     C30785   5.594   1.007   2.083  0.5711  0.6112  0.7356
  229MOL0     C30786   5.454   0.991   2.056 -0.4201 -0.0019 -0.0219
  229MOL0     C30787   5.404   0.868   2.000  0.3998 -0.1611 -0.0991
  229MOL0     O30788   5.279   0.839   1.953  1.3457 -0.8939  0.0253
  229MOL0     C30789   5.178   0.943   1.985 -0.0662  0.5419 -0.1092
  229MOL0     C30790   5.041   0.896   1.937 -0.1244 -0.5618  0.5113
  229MOL0     C30791   4.992   0.763   2.008 -0.5554  0.1155 -0.4540
  229MOL0     C30792   4.839   0.764   2.008 -0.0976  0.4496  0.0926
  229MOL0     C30793   4.778   0.781   1.869 -0.5819 -0.5993  0.0610
  229MOL0     C30794   4.782   0.652   1.787  0.5585  0.1664 -0.4227
  229MOL0     C30795   4.689   0.658   1.655  0.4159  0.3652 -0.1582
  229MOL0     C30796   4.538   0.634   1.687 -1.1026 -0.1612 -0.7809
  229MOL0     N30797   4.436   0.663   1.583 -0.5852  0.7310 -0.7859
  229MOL0     C30798   4.417   0.588   1.468 -0.0442 -0.4356 -0.5011
  229MOL0     C30799   4.327   0.657   1.397 -0.3727 -0.2530  0.7025
  229MOL0     C30800   4.272   0.618   1.265 -0.4573 -0.5254 -0.3325
  229MOL0     C30801   4.145   0.547   1.291  0.8744 -0.4321  0.1395
  229MOL0     C30802   4.072   0.501   1.161  0.2119  0.4512  0.1630
  229MOL0     C30803   4.067   0.604   1.048 -0.1897 -0.4312  0.0680
  229MOL0     O30804   3.990   0.558   0.929  0.2534  0.7270 -0.6299
  229MOL0     C30805   3.859   0.513   0.942  0.5128  0.4382  0.4485
  229MOL0     C30806   3.784   0.585   1.040  0.1987 -0.0128 -0.1452
  229MOL0     C30807   3.643   0.570   1.052 -0.2409  0.4497  0.5984
  229MOL0     C30808   3.572   0.658   1.142  0.7413 -0.2274 -0.3447
  229MOL0     C30809   3.578   0.478   0.967 -0.3500 -0.9683  0.6523
  229MOL0     C30810   3.435   0.450   0.966 -0.1542  0.9348  0.9010
  229MOL0     O30811   3.403   0.313   0.938 -0.2882  0.5281  0.2215
  229MOL0     C30812   3.277   0.271   0.978 -0.2626 -0.3216  0.0703
  229MOL0     C30813   3.213   0.167   0.902  0.0609 -0.2412 -0.1033
  229MOL0     C30814   3.089   0.110   0.935 -0.4644 -0.0292  0.8016
  229MOL0     C30815   3.026   0.159   1.050 -0.0700 -0.2320 -0.3935
  229MOL0     O30816   2.909   0.097   1.091  0.2863  0.3990 -0.2630
  229MOL0     C30817   2.823   0.157   1.179  0.0356 -0.0837 -0.7503
  229MOL0     C30818   2.682   0.094   1.180 -0.0696 -0.8098 -0.1450
  229MOL0     C30819   2.576   0.170   1.265 -0.7024  0.2172 -0.0063
  229MOL0     C30820   2.462   0.082   1.320 -0.7567  0.2673 -0.1436
  229MOL0     C30821   2.354   0.034   1.233  0.1066  0.8769  0.1435
  229MOL0     C30822   2.236  -0.021   1.307  0.2907 -0.2773 -0.3262
  229MOL0     C30823   2.128  -0.074   1.215 -0.2289  0.6437  0.3192
  229MOL0     C30824   1.992  -0.080   1.268 -0.1229 -0.2200  0.4382
  229MOL0    Cl30825   1.902  -0.185   1.154  0.2070  0.0233  0.1019
  229MOL0     C30826   3.096   0.253   1.129  0.5628 -0.1399 -0.5125
  229MOL0     C30827   3.217   0.309   1.095  0.1521 -0.0318  0.2982
  229MOL0     O30828   3.352   0.539   0.994  0.0227  0.2681 -0.8458
  229MOL0     C30829   3.657   0.392   0.885 -0.4751 -0.9018  0.4249
  229MOL0     C30830   3.792   0.412   0.866  0.0126  0.2414  1.5688
  229MOL0     N30831   4.287   0.774   1.466 -0.2967  0.2801  0.2846
  229MOL0     N30832   4.353   0.771   1.580  0.7935  0.3869 -0.0237
  229MOL0     C30833   5.498   0.767   1.975 -0.5359 -0.1546  0.1797
  229MOL0     C30834   5.640   0.782   2.002  0.3335 -0.1012 -0.9900
  229MOL0     C30835   6.060   0.894   2.086  0.6808 -0.3449  0.1140
  229MOL0     C30836   6.084   1.031   2.053 -0.4264  0.4575 -0.2459
  229MOL0     C30837   6.211   1.084   2.053 -1.3214  0.8225  0.9595
  229MOL0     C30838   6.324   0.997   2.075 -0.2160  0.4361 -0.4063
  229MOL0     O30839   6.437   1.053   2.052 -0.3315  0.0601 -0.0744
  229MOL0     C30840   6.557   0.977   2.082 -0.1445 -0.2606 -0.8050
  229MOL0     C30841   6.573   0.881   1.961  0.9265 -0.4239  0.4006
  229MOL0     C30842   6.712   0.811   1.979  0.4460 -0.3382  1.4297
  229MOL0     C30843   6.720   0.688   1.882 -0.1852 -0.2076 -1.6527
  229MOL0     C30844   6.827   0.594   1.933 -0.4124 -0.9349  0.6355
  229MOL0     C30845   6.911   0.524   1.976 -0.2937  0.8757  0.1740
  229MOL0     C30846   6.301   0.857   2.113  0.3903 -0.0221  0.5675
  229MOL0     C30847   6.164   0.809   2.111 -0.1449  0.1926  0.0990
  229MOL0     H30848   5.631   1.105   2.111 -2.4184  2.2785 -0.7024
  229MOL0     H30849   5.384   1.071   2.078  0.2081  0.7853 -0.8163
  229MOL0     H30850   5.183   0.973   2.089  2.5774 -0.4453  0.1320
  229MOL0     H30851   5.204   1.031   1.925 -0.7059  0.7885 -0.0342
  229MOL0     H30852   4.978   0.977   1.974  2.0627  0.8745  1.2952
  229MOL0     H30853   5.026   0.895   1.829  1.5530  0.6356  0.2253
  229MOL0     H30854   5.008   0.672   1.950 -4.3858 -1.1785  0.2731
  229MOL0     H30855   5.042   0.767   2.105 -0.2785  4.4396 -0.5555
  229MOL0     H30856   4.805   0.673   2.058  0.8588  0.4702  0.7983
  229MOL0     H30857   4.803   0.844   2.073  1.6257  1.6556 -0.3719
  229MOL0     H30858   4.674   0.808   1.886 -1.1341 -2.6555  0.2219
  229MOL0     H30859   4.824   0.861   1.809  0.0552  1.2513  2.7888
  229MOL0     H30860   4.885   0.635   1.756  1.3512  2.2632  0.8115
  229MOL0     H30861   4.743   0.569   1.846  3.5592  0.5233  2.3483
  229MOL0     H30862   4.706   0.755   1.607 -2.3650 -0.3697 -2.9525
  229MOL0     H30863   4.734   0.579   1.594 -0.5224 -0.5150  0.2652
  229MOL0     H30864   4.514   0.695   1.775 -1.0472 -1.6765  0.3149
  229MOL0     H30865   4.520   0.531   1.720 -0.8410  0.6683  2.2824
  229MOL0     H30866   4.474   0.502   1.435  0.9744  1.0612 -2.8592
  229MOL0     H30867   4.253   0.706   1.202  1.4503 -1.5151 -2.4722
  229MOL0     H30868   4.340   0.567   1.197  0.4589  1.7610 -1.2497
  229MOL0     H30869   4.077   0.602   1.357  2.0649 -0.5143  1.4697
  229MOL0     H30870   4.180   0.459   1.346  0.1533 -2.1130 -1.9578
  229MOL0     H30871   3.977   0.476   1.208  1.0829  0.4291  2.0079
  229MOL0     H30872   4.110   0.410   1.114 -0.0034  0.6652 -0.4491
  229MOL0     H30873   4.171   0.624   1.021 -0.7532 -0.7673 -2.6743
  229MOL0     H30874   4.034   0.702   1.085 -0.9294 -0.9671  0.8731
  229MOL0     H30875   3.820   0.662   1.106 -1.1033 -0.2610  0.9148
  229MOL0     H30876   3.515   0.734   1.087  1.6567  1.1029  0.4788
  229MOL0     H30877   3.505   0.607   1.212  2.1265 -1.9680 -0.2290
  229MOL0     H30878   3.638   0.716   1.207 -0.0568 -0.9487  1.1653
  229MOL0     H30879   3.267   0.129   0.816  0.9320  0.1440  0.2689
  229MOL0     H30880   3.046   0.025   0.884  4.3525 -3.0093  1.1249
  229MOL0     H30881   2.872   0.158   1.277 -2.0974 -0.5381  0.3945
  229MOL0     H30882   2.799   0.260   1.153 -1.9135 -0.5716 -1.0704
  229MOL0     H30883   2.648   0.071   1.079  0.8601 -2.0148 -0.2131
  229MOL0     H30884   2.682  -0.003   1.233 -0.2388 -0.1952  1.0224
  229MOL0     H30885   2.535   0.249   1.202 -0.1039 -1.3965 -2.5420
  229MOL0     H30886   2.632   0.220   1.345  0.4077  0.0019 -0.6274
  229MOL0     H30887   2.499  -0.010   1.367 -1.1133  0.9993  1.6504
  229MOL0     H30888   2.420   0.136   1.405  1.1994  0.3153  0.8511
  229MOL0     H30889   2.384  -0.042   1.160 -1.3946  1.7744 -1.4994
  229MOL0     H30890   2.314   0.113   1.168 -1.4289  0.2574  0.2894
  229MOL0     H30891   2.275  -0.086   1.385  0.6069 -1.2701 -1.3015
  229MOL0     H30892   2.199   0.070   1.357  0.5834  1.1410 -2.5220
  229MOL0     H30893   2.167  -0.171   1.185 -0.0439  0.1319  2.1313
  229MOL0     H30894   2.137  -0.006   1.129  1.7335 -1.9816 -1.7335
  229MOL0     H30895   1.956   0.023   1.267  1.8580  0.5296  0.1870
  229MOL0     H30896   1.986  -0.122   1.369 -2.3861 -3.0702 -0.7450
  229MOL0     H30897   3.055   0.270   1.229  0.5082 -0.6741 -0.4416
  229MOL0     H30898   3.267   0.388   1.150  2.3879 -0.6205 -0.7706
  229MOL0     H30899   3.612   0.311   0.827  1.1979 -1.1261 -0.6101
  229MOL0     H30900   3.846   0.360   0.788  1.0550 -0.0916  2.4929
  229MOL0     H30901   5.476   0.668   1.938 -0.1877  0.0564 -0.6171
  229MOL0     H30902   5.715   0.710   1.972 -2.0637 -2.9335 -0.6611
  229MOL0     H30903   5.999   1.096   2.037 -1.3860  0.3083  3.3506
  229MOL0     H30904   6.243   1.183   2.022  2.4292 -1.0605 -1.9601
  229MOL0     H30905   6.649   1.037   2.086 -0.2399 -0.0675 -1.4618
  229MOL0     H30906   6.552   0.927   2.179 -2.1886  0.1344 -0.6705
  229MOL0     H30907   6.578   0.931   1.864  2.9787  1.3289  1.3251
  229MOL0     H30908   6.498   0.802   1.958  2.6659 -2.1307 -0.1809
  229MOL0     H30909   6.720   0.783   2.085  1.4344 -1.3289  1.1163
  229MOL0     H30910   6.798   0.874   1.956 -0.7542  0.6004 -0.8094
  229MOL0     H30911   6.753   0.714   1.781  3.8637 -2.3081 -1.0581
  229MOL0     H30912   6.618   0.649   1.897 -0.7548  1.4907 -0.9099
  229MOL0     H30913   6.981   0.445   1.991 -0.0355  0.7836 -1.3716
  229MOL0     H30914   6.387   0.796   2.138 -0.1963 -2.0332 -1.8420
  229MOL0     H30915   6.146   0.707   2.144  0.1348 -0.2912 -1.1814
  230MOL0     O30916   0.477   0.611   2.144  0.4426 -0.2575  0.6562
  230MOL0     C30917   0.463   0.498   2.086  0.0100 -0.3937 -0.4353
  230MOL0     O30918   0.344   0.447   2.038 -0.3144  0.0022 -0.6420
  230MOL0     C30919   0.230   0.519   2.067  0.9913  0.3265  1.1182
  230MOL0     C30920   0.210   0.650   2.025 -0.5353  0.1352  0.4557
  230MOL0     C30921   0.086   0.708   2.045 -0.0759 -0.0757  0.3964
  230MOL0     C30922  -0.027   0.647   2.107  0.7654 -0.3180  0.4645
  230MOL0     O30923  -0.147   0.711   2.112 -0.1295 -1.1295 -0.0263
  230MOL0     C30924  -0.157   0.822   2.195  0.1909 -0.8110 -0.6590
  230MOL0     C30925  -0.251   0.916   2.123  0.5827 -0.6552 -1.3637
  230MOL0     C30926  -0.180   0.972   2.006  0.3167  0.4287 -0.3225
  230MOL0     C30927  -0.260   1.087   1.930  0.1373 -0.5904 -0.2445
  230MOL0     C30928  -0.401   1.031   1.890 -0.0046 -0.4045  0.2369
  230MOL0     C30929  -0.487   1.142   1.819  0.2188 -0.1832  0.1600
  230MOL0     C30930  -0.604   1.077   1.743 -0.0292 -0.3112  1.4208
  230MOL0     C30931  -0.697   1.166   1.664  0.2171 -0.4275  0.0514
  230MOL0     N30932  -0.792   1.234   1.751  0.1165 -0.3037 -0.2435
  230MOL0     C30933  -0.863   1.171   1.854  0.0426  0.8090  0.4335
  230MOL0     C30934  -0.937   1.271   1.912  0.3424  0.1559 -0.9137
  230MOL0     C30935  -1.014   1.238   2.037  0.0999 -0.6391  0.2404
  230MOL0     C30936  -1.075   1.372   2.092  0.5160 -0.0475  0.3526
  230MOL0     C30937  -1.180   1.352   2.209  0.2264  0.1024  0.1682
  230MOL0     C30938  -1.194   1.483   2.282 -0.7265  0.0996  0.4570
  230MOL0     O30939  -1.262   1.462   2.411  0.3318  0.1621  0.4843
  230MOL0     C30940  -1.401   1.471   2.412  0.3012 -0.6548  0.1665
  230MOL0     C30941  -1.459   1.427   2.527  0.1927  0.4938  0.1054
  230MOL0     C30942  -1.603   1.443   2.558 -0.3922  0.2655  0.3343
  230MOL0     C30943  -1.669   1.370   2.682 -0.1513 -0.2274  0.2251
  230MOL0     C30944  -1.681   1.511   2.457  0.2068 -0.1240  0.1348
  230MOL0     C30945  -1.830   1.536   2.468  0.6807 -0.5381 -0.0964
  230MOL0     O30946  -1.894   1.578   2.350 -0.0484 -0.4327  0.4270
  230MOL0     C30947  -2.033   1.569   2.345 -0.1536  0.1736 -0.9146
  230MOL0     C30948  -2.093   1.448   2.374  0.1343  0.5518  0.6769
  230MOL0     C30949  -2.230   1.441   2.380  0.0641 -0.5328  0.6331
  230MOL0     C30950  -2.307   1.547   2.337  0.2877  0.0665 -0.6984
  230MOL0     O30951  -2.439   1.518   2.353  0.1428  0.6514 -0.3010
  230MOL0     C30952  -2.522   1.629   2.312 -0.3439  0.4810 -0.0137
  230MOL0     C30953  -2.670   1.589   2.334 -0.6975  0.1102  0.5638
  230MOL0     C30954  -2.762   1.700   2.290 -0.7527 -0.5236 -0.6127
  230MOL0     C30955  -2.893   1.648   2.237  0.4040  0.7412 -0.1997
  230MOL0     C30956  -3.004   1.762   2.253 -0.0031 -0.2515  0.3198
  230MOL0     C30957  -3.138   1.700   2.204  0.6373  0.2652  0.6836
  230MOL0     C30958  -3.245   1.805   2.217 -1.0230 -0.3003  0.1488
  230MOL0     C30959  -3.381   1.763   2.169 -0.4298  0.5542 -0.1087
  230MOL0    Cl30960  -3.482   1.907   2.176  0.0102 -0.0376  0.2929
  230MOL0     C30961  -2.245   1.663   2.284 -0.4281 -0.1297 -0.4496
  230MOL0     C30962  -2.108   1.675   2.298 -0.7158 -0.0910 -0.7791
  230MOL0     O30963  -1.887   1.533   2.575  0.1371  0.7231 -0.7792
  230MOL0     C30964  -1.619   1.552   2.343  0.2583  0.5460 -0.5996
  230MOL0     C30965  -1.481   1.536   2.318  0.0216 -0.3545 -0.3671
  230MOL0     N30966  -0.913   1.387   1.843 -0.3604 -0.2033 -0.6579
  230MOL0     N30967  -0.833   1.368   1.741 -0.2582 -0.4895 -0.1881
  230MOL0     C30968  -0.004   0.518   2.163  0.0358  0.5316  0.0580
  230MOL0     C30969   0.119   0.459   2.145 -1.2585 -0.5092 -0.0552
  230MOL0     C30970   0.589   0.419   2.087  0.1723  0.3160 -0.3085
  230MOL0     C30971   0.586   0.283   2.046  0.6232  0.7211 -0.1355
  230MOL0     C30972   0.702   0.199   2.053 -0.7339  0.4162  0.6352
  230MOL0     C30973   0.827   0.255   2.087 -0.5299 -0.9302 -1.1313
  230MOL0     O30974   0.933   0.168   2.087 -0.3168 -0.0822 -0.7520
  230MOL0     C30975   1.062   0.221   2.111 -0.3000  1.0264 -1.1324
  230MOL0     C30976   1.166   0.109   2.081  0.4349  0.6343 -0.4754
  230MOL0     C30977   1.157   0.056   1.931 -0.5032 -0.3969 -0.8252
  230MOL0     C30978   1.265  -0.044   1.878 -0.4317  0.7320 -0.2438
  230MOL0     C30979   1.395  -0.020   1.929  0.1289 -0.6162 -0.1065
  230MOL0     C30980   1.505  -0.005   1.979 -0.4969 -0.1047  0.7821
  230MOL0     C30981   0.827   0.395   2.113 -0.3306  0.4158  0.0564
  230MOL0     C30982   0.709   0.469   2.121 -0.5630 -0.0790 -0.6789
  230MOL0     H30983   0.289   0.696   1.967 -0.3381  0.0966  0.6938
  230MOL0     H30984   0.071   0.805   2.000 -0.9287 -1.0610 -1.5927
  230MOL0     H30985  -0.189   0.794   2.296  2.3788  1.0774  0.6548
  230MOL0     H30986  -0.063   0.872   2.218  0.3575 -0.6821 -1.5922
  230MOL0     H30987  -0.347   0.865   2.108 -0.0541 -0.2384  0.8422
  230MOL0     H30988  -0.265   1.000   2.191  3.3786 -2.3254  1.5325
  230MOL0     H30989  -0.088   1.020   2.041  1.3136 -1.2349 -0.5471
  230MOL0     H30990  -0.166   0.890   1.934  0.2088  0.7012 -0.6554
  230MOL0     H30991  -0.262   1.178   1.991 -0.0938 -0.1269 -0.9370
  230MOL0     H30992  -0.198   1.114   1.844  1.9664  0.5304  1.3135
  230MOL0     H30993  -0.372   0.941   1.835  0.3637 -2.0367  2.9491
  230MOL0     H30994  -0.458   1.006   1.980 -0.6044  1.2985  0.3646
  230MOL0     H30995  -0.509   1.206   1.905  1.3247  1.0927 -0.4816
  230MOL0     H30996  -0.430   1.205   1.751  2.4013 -0.6509  1.4721
  230MOL0     H30997  -0.556   1.020   1.663 -0.1060  1.5752 -0.0386
  230MOL0     H30998  -0.663   1.000   1.795 -1.7183 -2.3012 -2.9981
  230MOL0     H30999  -0.748   1.095   1.597  3.4577 -1.9515 -1.0351
  230MOL0     H31000  -0.636   1.234   1.604 -1.0099 -0.1854 -0.9683
  230MOL0     H31001  -0.856   1.072   1.898  0.6624  0.6553 -0.0028
  230MOL0     H31002  -1.084   1.155   2.027 -1.2224  0.5878 -1.6244
  230MOL0     H31003  -0.944   1.201   2.112  0.4196  1.6053  1.1484
  230MOL0     H31004  -1.140   1.420   2.018 -1.5123  0.8665  2.5979
  230MOL0     H31005  -1.003   1.451   2.116 -0.1885 -0.0176  2.5938
  230MOL0     H31006  -1.149   1.268   2.272  1.3205  0.7836  0.5543
  230MOL0     H31007  -1.279   1.334   2.165 -0.1403 -0.4621  1.1920
  230MOL0     H31008  -1.237   1.561   2.218 -1.6331  1.0070  2.0847
  230MOL0     H31009  -1.092   1.512   2.308 -1.2587  1.6386  0.9855
  230MOL0     H31010  -1.394   1.382   2.601  1.6401  4.1994  1.3246
  230MOL0     H31011  -1.745   1.310   2.631 -1.0192  2.6669 -2.2129
  230MOL0     H31012  -1.602   1.301   2.733 -1.9229 -1.7043  0.6982
  230MOL0     H31013  -1.700   1.447   2.754 -2.4599 -2.0679  1.3313
  230MOL0     H31014  -2.036   1.358   2.394 -1.1469 -0.8189 -1.4771
  230MOL0     H31015  -2.277   1.349   2.413  2.3684 -2.1815 -0.3995
  230MOL0     H31016  -2.494   1.717   2.369  1.5527  0.7117 -1.2188
  230MOL0     H31017  -2.492   1.644   2.208  1.5596 -3.6654 -0.2534
  230MOL0     H31018  -2.704   1.493   2.292 -1.5519  0.1001  1.2513
  230MOL0     H31019  -2.673   1.571   2.442  1.0189  2.8086  1.1386
  230MOL0     H31020  -2.715   1.756   2.209 -0.6244  1.1325  0.5564
  230MOL0     H31021  -2.778   1.759   2.381  1.3471 -0.6163 -0.1295
  230MOL0     H31022  -2.873   1.624   2.132 -0.3308 -2.0611  0.2114
  230MOL0     H31023  -2.916   1.556   2.292 -0.6868  0.4493 -1.1038
  230MOL0     H31024  -2.966   1.845   2.192  2.6583 -1.3025  0.3841
  230MOL0     H31025  -3.012   1.809   2.351 -4.2405  0.8550 -0.3512
  230MOL0     H31026  -3.137   1.672   2.098 -1.2498 -0.8049  0.9122
  230MOL0     H31027  -3.163   1.615   2.268 -1.4345 -0.3746 -0.8804
  230MOL0     H31028  -3.218   1.904   2.178  0.4916  0.3445  2.6312
  230MOL0     H31029  -3.268   1.823   2.322 -1.9606 -2.3348  0.3324
  230MOL0     H31030  -3.421   1.677   2.223 -0.1838  1.6073  1.8661
  230MOL0     H31031  -3.379   1.735   2.064  3.1867  2.0611 -0.5764
  230MOL0     H31032  -2.308   1.748   2.261 -1.7973 -0.5529  1.5072
  230MOL0     H31033  -2.071   1.770   2.262  2.1113 -1.5291 -1.9580
  230MOL0     H31034  -1.686   1.596   2.270 -2.5547  0.0536  1.5231
  230MOL0     H31035  -1.435   1.576   2.228 -0.1337  1.0934  0.1739
  230MOL0     H31036  -0.074   0.480   2.238  1.8588  2.3710  2.8904
  230MOL0     H31037   0.139   0.360   2.185 -3.2135 -0.1258  2.0542
  230MOL0     H31038   0.498   0.226   2.019 -1.1245  2.3663  1.7833
  230MOL0     H31039   0.698   0.093   2.031  0.4313  0.7521 -1.4011
  230MOL0     H31040   1.082   0.311   2.052  1.0362  1.3355 -0.2691
  230MOL0     H31041   1.065   0.247   2.218 -2.6184 -1.3392 -0.3928
  230MOL0     H31042   1.163   0.035   2.162  1.0183  0.3802 -0.6766
  230MOL0     H31043   1.268   0.143   2.101  1.2772 -1.2924 -1.1742
  230MOL0     H31044   1.149   0.147   1.871 -1.2314 -1.3168 -2.1710
  230MOL0     H31045   1.057   0.015   1.915  0.4644 -1.7448 -4.1835
  230MOL0     H31046   1.255  -0.049   1.769 -1.1219  1.3457 -0.2131
  230MOL0     H31047   1.239  -0.146   1.907 -2.2672  0.8256 -1.4077
  230MOL0     H31048   1.599   0.024   2.021  1.0361 -5.0730  1.4603
  230MOL0     H31049   0.919   0.448   2.138 -0.1819 -0.7907  2.3380
  230MOL0     H31050   0.712   0.573   2.152 -2.0263  0.8355 -3.2676
  231MOL0     O31051   3.402  11.182   4.122 -0.2306  0.5921  0.1937
  231MOL0     C31052   3.492  11.121   4.178 -0.2743  0.6307  0.2668
  231MOL0     O31053   3.484  10.986   4.219 -0.2477 -1.2501 -0.6544
  231MOL0     C31054   3.364  10.924   4.238 -0.6207  0.4856  0.8591
  231MOL0     C31055   3.254  10.990   4.288 -0.1058 -0.4753  0.5135
  231MOL0     C31056   3.130  10.932   4.310 -0.3927  0.5362 -0.0797
  231MOL0     C31057   3.123  10.795   4.311  0.4316  1.2173  0.1300
  231MOL0     O31058   3.009  10.743   4.363  0.0232 -0.4727 -0.0650
  231MOL0     C31059   3.022  10.625   4.438 -0.1669 -0.4082  0.3255
  231MOL0     C31060   2.924  10.610   4.555  0.0418 -0.2867 -0.0207
  231MOL0     C31061   2.786  10.601   4.504 -0.5106  0.5703 -0.8712
  231MOL0     C31062   2.686  10.578   4.622 -0.0099  0.8111  0.4789
  231MOL0     C31063   2.548  10.608   4.561 -0.5119  0.7946  1.0550
  231MOL0     C31064   2.432  10.581   4.666 -0.3402  0.5643  0.1665
  231MOL0     C31065   2.416  10.426   4.693  0.4775 -0.5713 -0.0630
  231MOL0     C31066   2.313  10.348   4.611 -0.4473  0.0787  0.0255
  231MOL0     N31067   2.176  10.404   4.633 -0.1182  0.0115 -0.3265
  231MOL0     C31068   2.107  10.488   4.549  0.6389 -0.3060 -0.0067
  231MOL0     C31069   1.983  10.501   4.603  0.0264  0.1103  0.2470
  231MOL0     C31070   1.867  10.580   4.532 -0.8436  0.5180 -0.3829
  231MOL0     C31071   1.833  10.516   4.398  0.9666  0.2717  0.1904
  231MOL0     C31072   1.701  10.571   4.339 -0.0225 -0.1152 -0.3772
  231MOL0     C31073   1.576  10.528   4.405 -0.6842  0.3161 -0.2844
  231MOL0     O31074   1.463  10.562   4.324  0.4363  0.0064  0.2787
  231MOL0     C31075   1.331  10.527   4.360  0.2926  0.0183  0.0387
  231MOL0     C31076   1.289  10.432   4.455 -0.9292 -0.8735 -0.0979
  231MOL0     C31077   1.163  10.401   4.503  0.3545  0.3863  0.7423
  231MOL0     C31078   1.147  10.308   4.626 -0.5498 -1.0767 -0.0886
  231MOL0     C31079   1.059  10.460   4.419 -0.1646  0.2027  0.5767
  231MOL0     C31080   0.920  10.426   4.431  0.0481 -0.3563 -0.1604
  231MOL0     O31081   0.838  10.525   4.376 -0.4166  0.2052  0.3012
  231MOL0     C31082   0.704  10.515   4.397 -0.5495 -0.0235  0.2277
  231MOL0     C31083   0.646  10.498   4.524  0.1660 -0.0915  0.1188
  231MOL0     C31084   0.513  10.476   4.540  0.3650  0.1798 -1.0079
  231MOL0     C31085   0.428  10.490   4.437 -0.1806  0.4020  0.0873
  231MOL0     O31086   0.298  10.465   4.458 -0.8396  0.1936 -0.1926
  231MOL0     C31087   0.221  10.427   4.343 -0.2621  0.0353  0.6367
  231MOL0     C31088   0.259  10.288   4.287 -0.7942 -0.4105 -0.4205
  231MOL0     C31089   0.133  10.224   4.234  0.4610  0.1645 -0.3408
  231MOL0     C31090   0.141  10.086   4.184  0.4751  0.3590  0.5406
  231MOL0     C31091   0.011  10.014   4.171  0.4430  0.2522  0.6786
  231MOL0     C31092  -0.070  10.070   4.044 -0.0107  0.4444  0.7884
  231MOL0     C31093  -0.220  10.044   4.046 -0.0571 -0.3741 -0.0502
  231MOL0     C31094  -0.270  10.068   3.907 -0.5785  0.4162 -0.4446
  231MOL0    Cl31095  -0.233   9.935   3.785 -0.2991  0.4366 -0.3110
  231MOL0     C31096   0.475  10.537   4.310  0.5470  0.0926  0.3003
  231MOL0     C31097   0.614  10.543   4.293 -0.4702 -1.0461 -0.1658
  231MOL0     O31098   0.888  10.322   4.478  1.2123 -0.2638 -0.3659
  231MOL0     C31099   1.097  10.550   4.317 -0.6848  0.1615  0.7056
  231MOL0     C31100   1.227  10.583   4.290  0.1148 -0.0044 -0.5467
  231MOL0     N31101   1.972  10.423   4.714 -0.3241  0.0254 -0.1113
  231MOL0     N31102   2.082  10.361   4.718  0.1416 -0.5565  0.5645
  231MOL0     C31103   3.236  10.721   4.269  0.2253 -0.4125  0.0186
  231MOL0     C31104   3.357  10.782   4.230  0.3474 -0.4250  1.0296
  231MOL0     C31105   3.630  11.178   4.167 -0.3660  0.7714 -0.6447
  231MOL0     C31106   3.750  11.104   4.215  1.0244 -0.0772 -0.6051
  231MOL0     C31107   3.874  11.164   4.220 -0.2035 -0.5385  0.1390
  231MOL0     C31108   3.892  11.288   4.159 -0.3035  0.4102  0.4511
  231MOL0     O31109   4.004  11.355   4.150  0.8438 -0.8236  0.1709
  231MOL0     C31110   4.140  11.318   4.180 -0.3862 -0.2050  0.1058
  231MOL0     C31111   4.210  11.324   4.042 -0.0239  0.1646 -0.3068
  231MOL0     C31112   4.192  11.450   3.949  0.3626 -0.4959 -0.7364
  231MOL0     C31113   4.288  11.449   3.823  0.1727  0.3626 -0.5519
  231MOL0     C31114   4.368  11.569   3.811 -0.1041  0.8206  0.8801
  231MOL0     C31115   4.433  11.672   3.789 -0.3862 -0.1998 -0.6236
  231MOL0     C31116   3.781  11.350   4.115 -0.2234  0.2951  0.2205
  231MOL0     C31117   3.650  11.300   4.116 -0.7650 -0.1350  0.0950
  231MOL0     H31118   3.257  11.097   4.300 -0.3725 -0.3502 -0.4467
  231MOL0     H31119   3.043  10.993   4.336 -0.9035 -0.9646  1.9110
  231MOL0     H31120   3.008  10.540   4.371 -0.4510  0.1997 -0.4008
  231MOL0     H31121   3.121  10.613   4.484  1.3592  0.3775 -2.5089
  231MOL0     H31122   2.947  10.513   4.599 -0.2153 -0.1580  0.3953
  231MOL0     H31123   2.940  10.682   4.635  0.0543  1.7172 -1.7547
  231MOL0     H31124   2.760  10.684   4.437  1.2991 -0.4802 -3.0114
  231MOL0     H31125   2.789  10.509   4.445 -0.5366  0.1737 -0.2610
  231MOL0     H31126   2.691  10.474   4.656  1.2825  0.5724 -0.3751
  231MOL0     H31127   2.712  10.631   4.714  0.6102  0.1833  0.6796
  231MOL0     H31128   2.542  10.714   4.532 -2.4242  0.1630 -1.1565
  231MOL0     H31129   2.540  10.561   4.462 -2.2091  3.6134 -0.2665
  231MOL0     H31130   2.445  10.637   4.759  0.0195  0.6595  0.0579
  231MOL0     H31131   2.343  10.624   4.618  0.5695  0.7410 -1.4433
  231MOL0     H31132   2.509  10.368   4.696 -0.6611 -2.4774  2.6001
  231MOL0     H31133   2.376  10.422   4.795  0.1067 -0.5093 -0.2030
  231MOL0     H31134   2.324  10.247   4.651 -0.7760 -0.8709 -2.1421
  231MOL0     H31135   2.342  10.343   4.506  1.3796 -1.6089  0.5418
  231MOL0     H31136   2.149  10.532   4.460 -0.0622 -1.0525 -0.7231
  231MOL0     H31137   1.781  10.575   4.600 -0.8661  2.9435 -0.1410
  231MOL0     H31138   1.882  10.688   4.530 -0.7065  0.4878 -1.0293
  231MOL0     H31139   1.825  10.407   4.400 -0.7791  0.3572 -0.0876
  231MOL0     H31140   1.925  10.540   4.345  1.3150 -3.0900 -0.9141
  231MOL0     H31141   1.707  10.556   4.231  2.1841  2.2393 -0.7014
  231MOL0     H31142   1.697  10.680   4.353  4.3684  0.3181 -1.0484
  231MOL0     H31143   1.564  10.584   4.498  1.4950  0.5119 -0.0581
  231MOL0     H31144   1.584  10.421   4.426 -1.5148  0.5112  1.1620
  231MOL0     H31145   1.358  10.379   4.520  0.0816 -0.1737 -0.5742
  231MOL0     H31146   1.057  10.342   4.679  0.5596  2.0133 -0.0011
  231MOL0     H31147   1.144  10.209   4.579  1.0118 -0.0670 -2.5201
  231MOL0     H31148   1.239  10.317   4.684 -1.1179  2.2325  0.5189
  231MOL0     H31149   0.712  10.490   4.611  1.7981 -1.9299 -1.1789
  231MOL0     H31150   0.481  10.449   4.640 -0.3777 -0.7446 -1.4792
  231MOL0     H31151   0.121  10.434   4.389  0.0469 -0.1589  1.3532
  231MOL0     H31152   0.213  10.513   4.276 -1.1997 -0.0197  0.6596
  231MOL0     H31153   0.339  10.283   4.212 -0.3520 -1.9136  0.1241
  231MOL0     H31154   0.311  10.225   4.360 -0.0902 -0.0684 -0.6125
  231MOL0     H31155   0.100  10.296   4.159 -1.1463  2.8478  2.6968
  231MOL0     H31156   0.068  10.212   4.322  0.4388 -0.5965 -0.4514
  231MOL0     H31157   0.184  10.088   4.083  1.0598 -3.0594  0.6106
  231MOL0     H31158   0.206  10.025   4.247 -0.1090  0.3578  1.1393
  231MOL0     H31159  -0.034  10.028   4.270  0.8414 -0.1266  0.9148
  231MOL0     H31160   0.020   9.907   4.152  1.2181  0.6586 -1.4583
  231MOL0     H31161  -0.037  10.172   4.023  0.2978  0.1229 -0.3399
  231MOL0     H31162  -0.039  10.012   3.956 -2.3772  0.8435 -0.4122
  231MOL0     H31163  -0.263  10.114   4.118 -0.7350 -0.9789  0.1409
  231MOL0     H31164  -0.234   9.940   4.076  0.3771  0.1954  2.3349
  231MOL0     H31165  -0.216  10.155   3.869  2.9223 -2.1049 -1.8152
  231MOL0     H31166  -0.376  10.095   3.919 -0.5249 -0.3649  2.4931
  231MOL0     H31167   0.412  10.571   4.229  1.3843  0.2233 -0.3058
  231MOL0     H31168   0.659  10.564   4.197  0.3340 -2.2228 -0.0678
  231MOL0     H31169   1.033  10.592   4.241 -1.9195 -0.8780  1.1290
  231MOL0     H31170   1.250  10.649   4.207  0.1109  0.2193 -0.3700
  231MOL0     H31171   3.218  10.614   4.262 -2.7925  0.0435 -0.7090
  231MOL0     H31172   3.438  10.718   4.195 -1.8059 -2.2237 -0.9350
  231MOL0     H31173   3.731  11.004   4.253  0.0892  0.4066  0.2256
  231MOL0     H31174   3.957  11.116   4.270 -0.6358 -1.8990 -0.3826
  231MOL0     H31175   4.171  11.393   4.253  0.6660 -2.4871  2.1476
  231MOL0     H31176   4.139  11.215   4.218  0.1013  0.2676  1.4723
  231MOL0     H31177   4.182  11.239   3.979  0.2796  0.8228 -1.3703
  231MOL0     H31178   4.317  11.318   4.060  0.0654  4.6707  2.0416
  231MOL0     H31179   4.206  11.543   4.004  2.6252 -1.4731  0.4768
  231MOL0     H31180   4.087  11.436   3.920 -0.3444  1.0408  0.9113
  231MOL0     H31181   4.220  11.429   3.739  1.0387 -2.5280 -0.6841
  231MOL0     H31182   4.351  11.359   3.824 -1.7747 -1.0946 -1.7538
  231MOL0     H31183   4.485  11.759   3.755 -0.1569  0.0113  0.2530
  231MOL0     H31184   3.781  11.441   4.055  0.0379 -0.8628 -1.5939
  231MOL0     H31185   3.569  11.365   4.087  0.7705  0.5515 -3.1291
  232MOL0     O31186   8.279   3.106   8.757  0.3152 -0.2235  0.1820
  232MOL0     C31187   8.339   3.044   8.838  0.1210  0.3983 -0.2984
  232MOL0     O31188   8.298   2.921   8.900  0.1022 -0.2840 -0.2891
  232MOL0     C31189   8.175   2.871   8.865  0.0632  0.1183  0.2553
  232MOL0     C31190   8.140   2.864   8.729 -0.6161 -0.2414 -0.2360
  232MOL0     C31191   8.021   2.803   8.687  0.0098  0.2469 -0.1797
  232MOL0     C31192   7.941   2.740   8.784 -0.0496 -0.6755 -0.7827
  232MOL0     O31193   7.833   2.683   8.728 -0.2301 -0.6186  0.9056
  232MOL0     C31194   7.731   2.619   8.810  0.5192 -0.7811 -0.4109
  232MOL0     C31195   7.763   2.470   8.821 -0.4690  0.4174  0.2866
  232MOL0     C31196   7.907   2.439   8.870 -0.1777  0.0559 -0.4655
  232MOL0     C31197   7.925   2.284   8.890 -0.5775  0.8492 -0.2409
  232MOL0     C31198   8.068   2.244   8.918  0.0384  0.0225 -0.0384
  232MOL0     C31199   8.079   2.098   8.894  0.8574 -0.7997 -0.7564
  232MOL0     C31200   8.208   2.032   8.937  0.1491 -0.0647  0.8546
  232MOL0     C31201   8.342   2.099   8.901 -0.0415 -0.1991  0.6069
  232MOL0     N31202   8.382   2.065   8.765  0.0288 -0.2831  0.3088
  232MOL0     C31203   8.411   1.944   8.702 -0.0656  0.3361  0.4121
  232MOL0     C31204   8.457   1.962   8.580  0.1581 -0.1449  0.6469
  232MOL0     C31205   8.517   1.862   8.481  0.0876 -0.2930 -0.3594
  232MOL0     C31206   8.445   1.727   8.464 -0.5922 -0.2466  0.1567
  232MOL0     C31207   8.312   1.737   8.391 -0.0892 -0.2058  0.7447
  232MOL0     C31208   8.200   1.782   8.479 -0.5221 -0.6195 -0.8486
  232MOL0     O31209   8.079   1.719   8.443 -0.4648  0.2672 -0.4208
  232MOL0     C31210   7.968   1.795   8.462  0.2056 -0.4235  0.4240
  232MOL0     C31211   7.862   1.776   8.374  0.5101  0.4992  0.4611
  232MOL0     C31212   7.741   1.852   8.387 -0.0628  0.1000  0.1492
  232MOL0     C31213   7.639   1.846   8.261  0.3102  0.1075  0.2487
  232MOL0     C31214   7.723   1.926   8.509 -0.2565 -0.6404  0.1142
  232MOL0     C31215   7.598   1.988   8.554  0.0295  0.8686 -0.7851
  232MOL0     O31216   7.599   2.049   8.675  0.1639  0.1410  0.3155
  232MOL0     C31217   7.510   2.148   8.700  0.1436  0.3598  0.7187
  232MOL0     C31218   7.424   2.223   8.618 -1.0125 -0.6615  0.0695
  232MOL0     C31219   7.337   2.322   8.657 -0.2563 -0.3252 -0.1690
  232MOL0     C31220   7.328   2.352   8.791  0.1035  0.3590 -0.3478
  232MOL0     O31221   7.243   2.455   8.825  0.1173 -0.6830  0.3177
  232MOL0     C31222   7.239   2.501   8.966  0.1391 -0.7064  0.8873
  232MOL0     C31223   7.125   2.592   8.978 -0.3361 -0.6326  0.3435
  232MOL0     C31224   7.148   2.736   8.924  0.2005  0.4694  1.1102
  232MOL0     C31225   7.043   2.827   8.997 -0.9300  0.4373 -0.1291
  232MOL0     C31226   6.902   2.804   8.960 -0.0340  0.7894  0.0546
  232MOL0     C31227   6.800   2.904   9.026  0.1033 -0.4864 -0.4250
  232MOL0     C31228   6.838   2.969   9.163  0.8502  0.0595  0.8332
  232MOL0     C31229   6.744   3.066   9.217  0.3291  0.2652 -0.3889
  232MOL0    Cl31230   6.805   3.145   9.371  0.2887  0.5092 -0.3077
  232MOL0     C31231   7.413   2.286   8.879 -1.2199  0.3340 -0.4626
  232MOL0     C31232   7.504   2.184   8.835  0.5891 -0.9564 -0.7187
  232MOL0     O31233   7.510   1.984   8.475 -0.3205 -0.5959  0.0019
  232MOL0     C31234   7.833   1.945   8.598 -0.3555 -0.2067  1.0183
  232MOL0     C31235   7.956   1.879   8.573 -0.0394  0.3105  0.1462
  232MOL0     N31236   8.465   2.103   8.567 -0.4701  0.2372  0.1801
  232MOL0     N31237   8.419   2.155   8.670  0.3217 -0.0910 -0.2703
  232MOL0     C31238   7.962   2.772   8.923  0.0639  0.3025 -0.3965
  232MOL0     C31239   8.086   2.822   8.959  0.3357 -0.2368  0.1036
  232MOL0     C31240   8.465   3.096   8.891  0.4977 -0.7169  0.6879
  232MOL0     C31241   8.534   3.193   8.813 -0.2328  0.0404  0.5610
  232MOL0     C31242   8.664   3.232   8.852 -0.8463  0.0263  0.4860
  232MOL0     C31243   8.735   3.178   8.958 -0.0610  0.5791  0.0878
  232MOL0     O31244   8.868   3.217   8.994  0.1487  0.1331  0.1176
  232MOL0     C31245   8.964   3.115   9.028 -1.0596 -0.2463 -0.6077
  232MOL0     C31246   9.096   3.147   8.960  0.5024 -0.7555 -0.3876
  232MOL0     C31247   9.088   3.132   8.805 -0.8359 -0.5490 -0.0623
  232MOL0     C31248   9.222   3.176   8.744 -0.3819 -0.3635 -0.3670
  232MOL0     C31249   9.333   3.075   8.778  0.5397 -0.0208  0.0953
  232MOL0     C31250   9.429   3.003   8.799  0.0704  0.3660  0.4830
  232MOL0     C31251   8.668   3.081   9.031  0.3427 -1.3768 -0.2923
  232MOL0     C31252   8.532   3.045   9.005  0.5692 -0.6375 -0.0203
  232MOL0     H31253   8.218   2.893   8.659 -0.7587  0.8196  0.0155
  232MOL0     H31254   8.003   2.801   8.580 -0.3945  3.1581 -0.2663
  232MOL0     H31255   7.712   2.663   8.908  0.7902  3.2345 -1.9527
  232MOL0     H31256   7.634   2.635   8.761  0.5175  0.3310 -0.0744
  232MOL0     H31257   7.690   2.424   8.887  0.8615 -0.2445  1.3295
  232MOL0     H31258   7.771   2.415   8.727  3.1035  0.4215  0.4640
  232MOL0     H31259   7.988   2.483   8.810 -0.1666 -1.2475 -1.4605
  232MOL0     H31260   7.921   2.484   8.969 -0.5996 -1.4281  0.2933
  232MOL0     H31261   7.863   2.255   8.976 -0.5962  1.1809 -0.1428
  232MOL0     H31262   7.889   2.232   8.801  1.4254  0.1291 -0.6839
  232MOL0     H31263   8.123   2.299   8.841  1.0203 -1.4424 -0.4230
  232MOL0     H31264   8.091   2.278   9.020  2.8909 -0.0578 -0.5726
  232MOL0     H31265   7.995   2.047   8.940  0.7828 -0.1843 -0.1916
  232MOL0     H31266   8.075   2.091   8.784  3.0786  0.5646 -0.9987
  232MOL0     H31267   8.197   2.030   9.046 -2.6111 -1.9450  0.6518
  232MOL0     H31268   8.214   1.930   8.898 -2.0692  0.1897 -0.3275
  232MOL0     H31269   8.417   2.062   8.971  0.3865 -1.4270 -0.4653
  232MOL0     H31270   8.335   2.208   8.909 -1.3134 -0.3656  2.3695
  232MOL0     H31271   8.408   1.853   8.761  1.2032 -0.9764 -1.4203
  232MOL0     H31272   8.539   1.909   8.385  0.6166 -1.1741 -0.6771
  232MOL0     H31273   8.612   1.826   8.521 -0.1839 -4.5207 -2.9440
  232MOL0     H31274   8.432   1.669   8.556 -0.6156  2.6782  2.1307
  232MOL0     H31275   8.517   1.679   8.398  3.0800  1.1287  2.7840
  232MOL0     H31276   8.290   1.641   8.345  2.3638  0.4982 -2.2246
  232MOL0     H31277   8.317   1.811   8.310 -2.7528  0.5713  1.1935
  232MOL0     H31278   8.197   1.891   8.486 -0.7325 -0.6230 -0.8720
  232MOL0     H31279   8.226   1.741   8.577 -0.4708 -0.4275 -0.7818
  232MOL0     H31280   7.867   1.714   8.285 -0.6292  1.0190  0.0221
  232MOL0     H31281   7.685   1.826   8.164  0.9983 -0.8874  0.7561
  232MOL0     H31282   7.549   1.785   8.275  0.6477 -0.4939 -0.1603
  232MOL0     H31283   7.606   1.949   8.249  1.0796  0.4045  0.6706
  232MOL0     H31284   7.423   2.213   8.510 -2.5323 -1.0624  0.1087
  232MOL0     H31285   7.265   2.364   8.587  1.9667  2.4474 -0.9812
  232MOL0     H31286   7.238   2.414   9.033  0.9167 -2.4286 -1.1843
  232MOL0     H31287   7.334   2.549   8.992  1.2683 -1.7787 -0.9702
  232MOL0     H31288   7.038   2.550   8.926 -0.2295  1.7323 -1.9584
  232MOL0     H31289   7.108   2.595   9.086 -2.2693  0.9352  0.0648
  232MOL0     H31290   7.141   2.732   8.815  2.2599 -4.1199  0.9454
  232MOL0     H31291   7.246   2.773   8.953  0.8168  1.9605 -2.4585
  232MOL0     H31292   7.055   2.813   9.105  2.4233  0.3767 -0.4067
  232MOL0     H31293   7.067   2.932   8.976  1.3506  0.0903  0.4510
  232MOL0     H31294   6.868   2.703   8.984 -2.4378  1.7258  0.9318
  232MOL0     H31295   6.892   2.818   8.852  0.5057 -2.9809 -0.6365
  232MOL0     H31296   6.789   2.991   8.961  0.2050  0.4013  0.7218
  232MOL0     H31297   6.701   2.858   9.027 -1.1292  2.0551 -0.2495
  232MOL0     H31298   6.932   3.024   9.151  0.9192 -0.2710 -0.2883
  232MOL0     H31299   6.854   2.894   9.242  0.5307 -0.7786  0.1273
  232MOL0     H31300   6.648   3.016   9.234 -0.3718  1.3711 -0.9472
  232MOL0     H31301   6.721   3.150   9.150 -0.0136  0.9650  0.5796
  232MOL0     H31302   7.413   2.311   8.985  1.9666  1.7169 -0.6826
  232MOL0     H31303   7.563   2.130   8.908  0.7038  1.0312  0.7322
  232MOL0     H31304   7.819   1.995   8.694 -2.7447 -0.7752  1.0161
  232MOL0     H31305   8.036   1.891   8.645 -0.3177  1.6489  0.2491
  232MOL0     H31306   7.899   2.749   9.008  0.3990 -3.0057 -0.9324
  232MOL0     H31307   8.108   2.832   9.065  1.3874 -1.6783  0.0515
  232MOL0     H31308   8.475   3.231   8.730 -3.2756 -3.3310  0.9360
  232MOL0     H31309   8.723   3.305   8.797 -0.1853 -1.7607 -1.2685
  232MOL0     H31310   8.977   3.108   9.136 -0.6687  0.2534 -0.6217
  232MOL0     H31311   8.943   3.011   8.998 -0.2507 -1.2139  1.9107
  232MOL0     H31312   9.174   3.086   9.007  1.9740  0.9796 -0.4644
  232MOL0     H31313   9.118   3.253   8.974 -0.6998  0.1337 -4.0944
  232MOL0     H31314   9.005   3.189   8.761 -0.1477 -1.2913 -2.4675
  232MOL0     H31315   9.076   3.030   8.769 -1.1041 -0.0653 -1.4185
  232MOL0     H31316   9.249   3.275   8.780  0.0644 -0.1655 -1.2126
  232MOL0     H31317   9.219   3.204   8.638 -2.1590  0.6496 -0.0884
  232MOL0     H31318   9.514   2.939   8.812 -1.5644 -1.7991  1.2396
  232MOL0     H31319   8.716   3.033   9.115 -1.4849  0.4454  1.9226
  232MOL0     H31320   8.482   2.976   9.072  2.0093 -2.1767 -0.4446
  233MOL0     O31321   8.864   9.370   2.253  0.9797 -0.3705  0.1781
  233MOL0     C31322   8.887   9.249   2.265 -0.1331  0.0936  0.6298
  233MOL0     O31323   8.805   9.154   2.204  0.7568 -0.6894 -0.0062
  233MOL0     C31324   8.675   9.189   2.186  0.7188 -0.2127 -0.4660
  233MOL0     C31325   8.571   9.151   2.272 -0.2666  0.4199  0.8004
  233MOL0     C31326   8.433   9.195   2.249 -0.5428 -0.1035 -0.4813
  233MOL0     C31327   8.402   9.284   2.142  0.3524  0.4333 -0.2675
  233MOL0     O31328   8.277   9.318   2.094  0.2060  0.2068  0.8539
  233MOL0     C31329   8.169   9.229   2.115  0.4581  0.4146 -0.2469
  233MOL0     C31330   8.145   9.128   1.992 -0.2122 -0.3913 -0.3914
  233MOL0     C31331   8.116   9.207   1.860 -0.0193 -0.4113 -0.1860
  233MOL0     C31332   8.126   9.116   1.737 -0.6686  0.5068 -0.5672
  233MOL0     C31333   8.055   8.981   1.746 -0.5013 -0.6882 -0.1010
  233MOL0     C31334   7.905   8.997   1.777 -0.6945 -0.3518 -0.6194
  233MOL0     C31335   7.849   8.866   1.838  0.1161  0.2911  0.4098
  233MOL0     C31336   7.701   8.860   1.842  1.5322 -0.1546  0.6237
  233MOL0     N31337   7.648   8.860   1.704  0.4163  0.3399  0.2108
  233MOL0     C31338   7.610   8.741   1.648 -0.7043  0.3194 -0.3177
  233MOL0     C31339   7.535   8.775   1.543 -0.2668 -1.0427  0.7719
  233MOL0     C31340   7.465   8.671   1.465 -0.4605  0.1866  1.3009
  233MOL0     C31341   7.333   8.619   1.527 -0.1246  0.6777  0.6448
  233MOL0     C31342   7.210   8.693   1.463 -0.1327  0.0993 -0.1996
  233MOL0     C31343   7.075   8.662   1.528  0.7301 -0.3020  0.3422
  233MOL0     O31344   7.080   8.653   1.668  0.1304 -0.0258  0.8052
  233MOL0     C31345   6.962   8.637   1.742 -0.7186 -0.5905  0.4079
  233MOL0     C31346   6.830   8.624   1.695  0.4340 -0.2338 -0.7784
  233MOL0     C31347   6.721   8.614   1.784 -0.5402  0.1909 -0.5710
  233MOL0     C31348   6.580   8.619   1.723  0.1224 -0.8703 -0.5311
  233MOL0     C31349   6.748   8.610   1.925  0.7503  1.1595  0.2229
  233MOL0     C31350   6.647   8.605   2.026  0.1229  0.2646 -0.5823
  233MOL0     O31351   6.653   8.500   2.107  1.0214 -0.1389 -1.0419
  233MOL0     C31352   6.538   8.423   2.140 -0.6863  0.2262 -0.6705
  233MOL0     C31353   6.570   8.305   2.205 -0.6249  0.3640 -0.1503
  233MOL0     C31354   6.473   8.208   2.235 -0.5313 -0.7243 -0.1986
  233MOL0     C31355   6.338   8.232   2.200  0.4760 -0.5986  0.3854
  233MOL0     O31356   6.232   8.143   2.221  0.0352  1.2810  0.1109
  233MOL0     C31357   6.263   8.022   2.293  0.2770 -1.0735 -0.2733
  233MOL0     C31358   6.139   7.929   2.287 -0.5805 -0.4722 -1.0063
  233MOL0     C31359   6.019   7.985   2.365  0.5440  0.1431  0.8549
  233MOL0     C31360   5.909   7.956   2.272  0.4753  0.8323 -0.2717
  233MOL0     C31361   5.759   7.975   2.320 -0.0300 -0.1805 -0.2535
  233MOL0     C31362   5.704   8.118   2.309 -0.1646  0.7000 -0.4996
  233MOL0     C31363   5.564   8.120   2.372  0.1339 -0.1130 -0.3829
  233MOL0     C31364   5.518   8.261   2.390 -0.9125  0.1051  0.3548
  233MOL0    Cl31365   5.363   8.273   2.467  0.3217 -0.2712 -0.3383
  233MOL0     C31366   6.308   8.354   2.139  0.1062  0.1756  0.0612
  233MOL0     C31367   6.408   8.445   2.104  0.2548  0.3141 -0.3866
  233MOL0     O31368   6.566   8.703   2.041 -1.1839 -0.0463  0.1188
  233MOL0     C31369   6.878   8.621   1.975 -0.9064 -0.4150 -0.4352
  233MOL0     C31370   6.984   8.627   1.879  0.1665 -0.5409  0.3677
  233MOL0     N31371   7.540   8.908   1.519 -0.1667 -0.1726 -0.0180
  233MOL0     N31372   7.611   8.959   1.620  0.1750 -0.7104  0.8175
  233MOL0     C31373   8.506   9.315   2.060  0.2369  0.0032 -0.7984
  233MOL0     C31374   8.635   9.266   2.079 -0.6509  0.1700  0.8786
  233MOL0     C31375   9.016   9.223   2.320  0.6145  0.6676 -0.3732
  233MOL0     C31376   9.121   9.315   2.317  0.8466 -1.2445  0.0922
  233MOL0     C31377   9.247   9.286   2.371  0.0112 -0.4497 -0.3411
  233MOL0     C31378   9.260   9.161   2.441 -0.1350 -0.2647 -0.8542
  233MOL0     O31379   9.380   9.132   2.504 -0.3930  0.2516  0.4594
  233MOL0     C31380   9.385   9.016   2.595  0.6085  0.1857 -0.6129
  233MOL0     C31381   9.524   9.019   2.652 -0.3713  0.3005  0.3020
  233MOL0     C31382   9.557   9.148   2.730 -0.4421  0.4367 -0.0547
  233MOL0     C31383   9.680   9.124   2.797 -0.7683 -0.6142  0.0282
  233MOL0     C31384   9.670   9.022   2.909 -0.0930 -0.0396 -0.0408
  233MOL0     C31385   9.654   8.944   3.003 -0.8528  0.4770 -1.1714
  233MOL0     C31386   9.153   9.071   2.445 -0.1254  0.8625 -0.0682
  233MOL0     C31387   9.040   9.096   2.371 -0.4051  0.3082 -0.1595
  233MOL0     H31388   8.590   9.080   2.351  1.2243  0.5418  0.5698
  233MOL0     H31389   8.363   9.161   2.324 -2.4585  1.7115 -1.3557
  233MOL0     H31390   8.171   9.180   2.213 -2.6790 -0.1233 -0.3665
  233MOL0     H31391   8.086   9.301   2.119 -1.4213 -1.6935  1.2458
  233MOL0     H31392   8.230   9.061   1.981  0.7582  0.6818  0.3225
  233MOL0     H31393   8.064   9.064   2.028  0.3254  0.4770  2.6330
  233MOL0     H31394   8.018   9.254   1.871  0.0434 -0.5083  0.9282
  233MOL0     H31395   8.193   9.284   1.847  0.4499 -1.2216 -2.7690
  233MOL0     H31396   8.088   9.172   1.651  2.2530  1.8597 -1.0854
  233MOL0     H31397   8.232   9.094   1.720 -0.3219 -2.3665  3.9197
  233MOL0     H31398   8.075   8.909   1.666  1.3789 -2.3518  1.7221
  233MOL0     H31399   8.110   8.933   1.828 -2.9157 -0.3917  1.8207
  233MOL0     H31400   7.881   9.077   1.848 -2.1255 -1.5738  0.3366
  233MOL0     H31401   7.846   9.024   1.689 -3.6628 -0.0678  1.3273
  233MOL0     H31402   7.886   8.783   1.777  0.4444  1.5817 -1.2502
  233MOL0     H31403   7.891   8.864   1.939 -1.6044  2.1674  1.2312
  233MOL0     H31404   7.661   8.947   1.895  0.1930  0.4773 -1.3007
  233MOL0     H31405   7.680   8.778   1.911 -0.0725 -1.3648 -1.1846
  233MOL0     H31406   7.632   8.641   1.685 -0.3926  0.9737  1.3862
  233MOL0     H31407   7.447   8.698   1.361  2.3464 -2.5395 -0.0843
  233MOL0     H31408   7.539   8.590   1.455  0.9119  1.5606 -0.1814
  233MOL0     H31409   7.332   8.643   1.633 -2.3846 -1.6352  1.2753
  233MOL0     H31410   7.319   8.511   1.512  1.3116  0.3539  1.4320
  233MOL0     H31411   7.209   8.658   1.359 -1.4054 -4.9809  1.2517
  233MOL0     H31412   7.238   8.798   1.469 -0.6192  0.3854 -2.1322
  233MOL0     H31413   7.037   8.570   1.484 -3.5400  1.3868  0.0047
  233MOL0     H31414   7.010   8.749   1.513  0.6318 -0.7471 -2.4074
  233MOL0     H31415   6.805   8.622   1.589 -6.2324 -0.7544  0.3737
  233MOL0     H31416   6.579   8.557   1.633 -3.0412 -1.3668 -0.2754
  233MOL0     H31417   6.502   8.584   1.791 -1.3754  4.8092  1.1679
  233MOL0     H31418   6.554   8.724   1.710 -0.4277 -1.0000 -0.5164
  233MOL0     H31419   6.674   8.300   2.237  0.2155  2.4996 -2.2155
  233MOL0     H31420   6.508   8.117   2.281  2.1953  0.9342  1.2902
  233MOL0     H31421   6.349   7.968   2.250  0.5933  0.1626 -1.2503
  233MOL0     H31422   6.298   8.047   2.393 -1.7821  0.7685  0.0564
  233MOL0     H31423   6.111   7.912   2.182 -0.2198 -0.2451 -1.1391
  233MOL0     H31424   6.172   7.841   2.342  1.8389  2.2121  2.2819
  233MOL0     H31425   6.008   8.092   2.383 -2.5668  0.2736 -1.1265
  233MOL0     H31426   6.019   7.957   2.471  3.9404  1.9008  1.4816
  233MOL0     H31427   5.920   8.031   2.194  1.8744  1.3673  0.4025
  233MOL0     H31428   5.911   7.852   2.237 -0.4387  1.0132 -0.8929
  233MOL0     H31429   5.752   7.944   2.424  1.4672 -2.7272 -0.8226
  233MOL0     H31430   5.690   7.917   2.258  0.2523  1.6622 -2.4496
  233MOL0     H31431   5.770   8.182   2.368 -1.3769  0.1088  1.6241
  233MOL0     H31432   5.696   8.151   2.205 -1.1896  1.7711 -0.1060
  233MOL0     H31433   5.556   8.059   2.462 -0.1948 -1.4612 -1.2875
  233MOL0     H31434   5.499   8.082   2.292  0.2686 -0.8506 -0.1544
  233MOL0     H31435   5.512   8.314   2.294 -2.6422 -3.2605 -1.5446
  233MOL0     H31436   5.585   8.310   2.462 -0.8713  0.0919  0.3247
  233MOL0     H31437   6.203   8.368   2.114  0.2110 -0.5484 -0.8332
  233MOL0     H31438   6.392   8.525   2.032 -1.4891 -0.4643 -0.9139
  233MOL0     H31439   6.898   8.629   2.081  1.5080  0.9763 -0.9158
  233MOL0     H31440   7.091   8.637   1.899  0.3561 -0.6235 -0.5473
  233MOL0     H31441   8.489   9.382   1.976 -0.6949  2.3972  1.1710
  233MOL0     H31442   8.715   9.298   2.013 -0.3845 -2.5972 -0.2963
  233MOL0     H31443   9.115   9.401   2.252  1.4046 -0.3322  1.2219
  233MOL0     H31444   9.339   9.343   2.358  0.3480  0.1091  3.4891
  233MOL0     H31445   9.307   9.032   2.670 -0.0483 -1.8288 -0.8063
  233MOL0     H31446   9.370   8.913   2.563  3.0915 -0.9008  1.3797
  233MOL0     H31447   9.598   8.998   2.574  0.7933 -0.4948  1.5812
  233MOL0     H31448   9.533   8.930   2.714 -0.4203 -1.0222 -1.5254
  233MOL0     H31449   9.469   9.156   2.794 -0.2678  3.0168 -0.0340
  233MOL0     H31450   9.570   9.239   2.669  1.0566 -0.9299 -1.8840
  233MOL0     H31451   9.720   9.211   2.851  0.0436 -1.1332  0.2869
  233MOL0     H31452   9.763   9.091   2.734 -0.0355 -1.0029  1.1574
  233MOL0     H31453   9.641   8.881   3.089 -0.2122  0.0848 -1.3540
  233MOL0     H31454   9.168   8.972   2.488 -0.6456  0.9032  0.2135
  233MOL0     H31455   8.971   9.013   2.382  1.7240 -1.3971  1.0211
  234MOL0     O31456   7.881   5.092   6.118 -0.9643  0.3906 -0.3382
  234MOL0     C31457   7.964   5.142   6.195 -0.5191 -0.8070  0.0811
  234MOL0     O31458   7.937   5.198   6.323 -0.0954 -0.4087  0.6722
  234MOL0     C31459   7.803   5.202   6.348 -1.2516  0.0490 -1.6401
  234MOL0     C31460   7.720   5.277   6.267 -0.1744 -0.0387 -1.0274
  234MOL0     C31461   7.578   5.288   6.304  1.2329 -0.1454 -1.2428
  234MOL0     C31462   7.524   5.231   6.420 -0.3571 -0.0670 -0.1883
  234MOL0     O31463   7.402   5.252   6.469  0.4805 -0.3867  0.3940
  234MOL0     C31464   7.345   5.380   6.440  0.5661  0.3081 -0.0330
  234MOL0     C31465   7.208   5.383   6.518 -0.0573 -0.6065  1.2023
  234MOL0     C31466   7.203   5.294   6.641 -0.0526  0.2693  0.8281
  234MOL0     C31467   7.064   5.307   6.703 -0.5929  0.3688  0.5062
  234MOL0     C31468   7.050   5.440   6.784  0.2800 -0.6607  0.0150
  234MOL0     C31469   6.906   5.463   6.828  0.1072 -0.2526 -0.8148
  234MOL0     C31470   6.878   5.581   6.917 -1.2658 -0.6481 -0.9706
  234MOL0     C31471   6.730   5.594   6.968 -0.0214 -0.0768  0.2054
  234MOL0     N31472   6.691   5.724   7.017  0.3925 -0.2606 -0.1445
  234MOL0     C31473   6.768   5.814   7.084 -0.6770  1.4196 -0.0186
  234MOL0     C31474   6.702   5.928   7.100  0.2120 -0.9021 -0.2992
  234MOL0     C31475   6.752   6.060   7.161 -0.2242  0.3927 -0.3297
  234MOL0     C31476   6.769   6.045   7.311  0.4682  0.0545  0.5121
  234MOL0     C31477   6.791   6.182   7.381 -0.8663  0.0053  0.2291
  234MOL0     C31478   6.828   6.171   7.529 -0.1615 -0.8482  0.7944
  234MOL0     O31479   6.725   6.112   7.618  0.2462 -0.2258 -0.9367
  234MOL0     C31480   6.623   6.174   7.680  0.5428 -0.1136  0.1356
  234MOL0     C31481   6.598   6.312   7.673 -1.1621 -0.1429 -0.0214
  234MOL0     C31482   6.484   6.362   7.726  0.7037 -0.8204 -0.4335
  234MOL0     C31483   6.469   6.521   7.703  0.0677 -0.5366 -0.2648
  234MOL0     C31484   6.395   6.297   7.810  1.3500  0.8222 -0.2267
  234MOL0     C31485   6.288   6.358   7.880  0.5111  0.1400  0.6415
  234MOL0     O31486   6.245   6.290   7.995  0.0593  0.1983  0.5174
  234MOL0     C31487   6.154   6.359   8.071  0.7047  0.6281  0.0824
  234MOL0     C31488   6.019   6.352   8.041  0.3125  0.1131 -0.9453
  234MOL0     C31489   5.928   6.400   8.136 -0.2546  0.8277 -0.6311
  234MOL0     C31490   5.966   6.469   8.257  0.3334  0.3378 -0.5292
  234MOL0     O31491   5.887   6.530   8.353 -0.1354  0.5674 -0.2256
  234MOL0     C31492   5.760   6.583   8.308 -0.1162 -0.1960  0.1264
  234MOL0     C31493   5.693   6.672   8.416 -0.5796 -0.2336  0.2966
  234MOL0     C31494   5.598   6.772   8.354 -0.4912 -0.0955 -0.5384
  234MOL0     C31495   5.533   6.851   8.459  0.6161  0.5791 -1.3610
  234MOL0     C31496   5.438   6.963   8.406 -0.0415 -0.0613  0.0967
  234MOL0     C31497   5.315   6.911   8.337  0.4111 -0.0463 -0.1866
  234MOL0     C31498   5.225   7.028   8.297  0.7194 -0.1904  0.1477
  234MOL0     C31499   5.157   6.997   8.168  0.0716 -0.7871  0.6036
  234MOL0    Cl31500   5.063   7.135   8.099  0.0156 -0.0753  0.0614
  234MOL0     C31501   6.103   6.479   8.280  0.0236  0.6385 -1.6328
  234MOL0     C31502   6.194   6.429   8.184 -0.0966  0.2637 -0.2844
  234MOL0     O31503   6.232   6.452   7.831 -1.0361 -0.0091 -0.1207
  234MOL0     C31504   6.417   6.163   7.817 -0.1038  1.2705 -0.8014
  234MOL0     C31505   6.524   6.103   7.760  0.6386 -0.0413  0.1118
  234MOL0     N31506   6.578   5.907   7.046  0.1703  0.7410 -0.5643
  234MOL0     N31507   6.572   5.786   7.000 -0.1010  0.2484  0.2998
  234MOL0     C31508   7.614   5.153   6.494  0.3779  0.1840 -0.8313
  234MOL0     C31509   7.752   5.143   6.460 -0.0525  0.0006 -0.1401
  234MOL0     C31510   8.100   5.125   6.147 -0.0440 -0.2780 -0.2450
  234MOL0     C31511   8.211   5.142   6.239  0.2843 -0.5179 -0.0589
  234MOL0     C31512   8.339   5.115   6.202  1.6422  0.1276 -0.4451
  234MOL0     C31513   8.371   5.063   6.077  0.0099 -0.1752  0.0480
  234MOL0     O31514   8.490   5.003   6.045 -0.5885  0.1285  0.2134
  234MOL0     C31515   8.557   4.926   6.150 -0.3911 -0.8054  0.3881
  234MOL0     C31516   8.674   4.853   6.083  0.1283  0.3153  0.0154
  234MOL0     C31517   8.810   4.933   6.080  0.7239 -0.0102  0.4978
  234MOL0     C31518   8.906   4.866   5.982 -0.2882  0.1639 -0.3730
  234MOL0     C31519   8.856   4.860   5.851  0.5524 -0.0328  0.3075
  234MOL0     C31520   8.828   4.888   5.737  0.3328 -0.1339  0.3939
  234MOL0     C31521   8.270   5.058   5.981  0.2531  0.5576  0.6842
  234MOL0     C31522   8.140   5.090   6.016 -0.8970 -0.9805 -0.4894
  234MOL0     H31523   7.757   5.335   6.183  2.2949 -0.8561 -0.5775
  234MOL0     H31524   7.515   5.359   6.251 -0.3907  0.2090  1.0136
  234MOL0     H31525   7.419   5.454   6.472  2.0358 -1.5172  0.9756
  234MOL0     H31526   7.316   5.384   6.335 -1.2642  1.5428  0.4623
  234MOL0     H31527   7.202   5.489   6.543  0.4921  0.3765 -2.2612
  234MOL0     H31528   7.133   5.361   6.442  1.8325  0.6093 -1.1937
  234MOL0     H31529   7.208   5.189   6.609 -0.1227  1.1311 -2.3974
  234MOL0     H31530   7.286   5.312   6.710 -0.2084 -0.3601  1.1896
  234MOL0     H31531   6.985   5.294   6.628 -1.7997 -2.9805  2.1488
  234MOL0     H31532   7.061   5.221   6.771  4.7260 -1.8924 -1.5728
  234MOL0     H31533   7.122   5.440   6.866  1.1533  3.1816 -0.5577
  234MOL0     H31534   7.079   5.523   6.719 -0.6733  0.8617  1.4462
  234MOL0     H31535   6.838   5.463   6.742 -1.3084 -0.0891  0.2588
  234MOL0     H31536   6.879   5.370   6.878 -0.0971 -0.0225 -0.4946
  234MOL0     H31537   6.945   5.596   7.001 -0.9375  1.1226 -1.5016
  234MOL0     H31538   6.890   5.669   6.853 -0.2391  1.9152  2.4585
  234MOL0     H31539   6.702   5.520   7.044 -3.0933  0.0190 -0.7242
  234MOL0     H31540   6.661   5.570   6.887  0.4515  2.0121 -0.8726
  234MOL0     H31541   6.874   5.804   7.107 -0.1884  0.6910 -2.3796
  234MOL0     H31542   6.835   6.092   7.098  0.6982  0.0845  0.6915
  234MOL0     H31543   6.672   6.131   7.140 -1.1227 -0.6408 -0.4778
  234MOL0     H31544   6.858   5.983   7.327  0.7698 -0.9399 -3.7682
  234MOL0     H31545   6.681   6.003   7.360 -0.4258  2.1824  0.8473
  234MOL0     H31546   6.698   6.238   7.371 -1.3547 -0.8063  0.1321
  234MOL0     H31547   6.871   6.229   7.323 -0.2464  0.5917  1.5197
  234MOL0     H31548   6.861   6.268   7.567 -3.4880  0.7857 -0.0892
  234MOL0     H31549   6.921   6.115   7.539  1.9865  1.8935 -1.9414
  234MOL0     H31550   6.672   6.381   7.632  0.0193 -0.1677  1.9236
  234MOL0     H31551   6.369   6.551   7.671 -1.7090 -3.8324  1.6055
  234MOL0     H31552   6.473   6.560   7.805 -0.6863 -0.6932 -0.1732
  234MOL0     H31553   6.552   6.564   7.645 -2.9027  3.7753 -1.8313
  234MOL0     H31554   5.991   6.307   7.946 -0.5663 -1.9235  0.2174
  234MOL0     H31555   5.821   6.404   8.119 -0.6648 -1.7130  0.8128
  234MOL0     H31556   5.781   6.654   8.226  0.2288  1.3268  1.4813
  234MOL0     H31557   5.699   6.503   8.266  1.0622  0.1719 -2.5080
  234MOL0     H31558   5.651   6.606   8.492  0.6926 -0.6744  0.6329
  234MOL0     H31559   5.769   6.726   8.474 -3.2950  1.1396  2.8326
  234MOL0     H31560   5.520   6.717   8.302 -1.0323  1.5715 -1.5471
  234MOL0     H31561   5.639   6.829   8.271  1.1554 -2.5448 -1.5199
  234MOL0     H31562   5.477   6.786   8.527  0.3001  2.4111  0.2292
  234MOL0     H31563   5.606   6.911   8.513  0.4943 -0.3425 -0.1311
  234MOL0     H31564   5.498   7.028   8.343 -0.0041 -0.3706 -0.1905
  234MOL0     H31565   5.398   7.021   8.490 -3.4637 -0.1193 -1.3215
  234MOL0     H31566   5.333   6.856   8.244 -2.5045 -0.3047 -0.6700
  234MOL0     H31567   5.255   6.847   8.402 -1.6750 -0.1751 -2.1094
  234MOL0     H31568   5.281   7.121   8.314 -1.8526  0.8924  4.3691
  234MOL0     H31569   5.145   7.039   8.371  0.1484 -1.1817 -0.3016
  234MOL0     H31570   5.093   6.914   8.200  1.4484 -0.7929  3.7548
  234MOL0     H31571   5.226   6.956   8.094 -0.7501 -0.7034 -0.2291
  234MOL0     H31572   6.133   6.521   8.375 -1.6490 -0.1671 -0.6891
  234MOL0     H31573   6.301   6.445   8.189  0.1060 -1.1687  0.6075
  234MOL0     H31574   6.361   6.101   7.886 -2.2743  0.8584 -2.8204
  234MOL0     H31575   6.537   5.996   7.772  1.5692 -0.1385 -1.5298
  234MOL0     H31576   7.566   5.097   6.573 -0.4995 -0.8251 -2.0495
  234MOL0     H31577   7.822   5.086   6.520  1.1123  0.2163 -1.2494
  234MOL0     H31578   8.183   5.191   6.332 -4.0423 -0.8826 -0.9568
  234MOL0     H31579   8.418   5.118   6.276 -0.1809 -0.0442  1.5986
  234MOL0     H31580   8.596   4.988   6.232  1.4871 -1.3867 -0.0304
  234MOL0     H31581   8.494   4.845   6.189 -0.4709 -0.5699  0.7641
  234MOL0     H31582   8.635   4.815   5.989 -1.7911 -1.9122  1.5887
  234MOL0     H31583   8.688   4.762   6.143 -4.3105 -0.5774 -0.0002
  234MOL0     H31584   8.853   4.927   6.180  0.0716 -2.1489  0.6919
  234MOL0     H31585   8.793   5.038   6.055 -2.2678 -1.1782 -3.4755
  234MOL0     H31586   8.923   4.763   6.016  1.4592  1.0801  1.7555
  234MOL0     H31587   8.999   4.923   5.982 -0.0540 -0.2004  0.4875
  234MOL0     H31588   8.804   4.891   5.632 -0.9621 -1.3910  0.6283
  234MOL0     H31589   8.296   5.015   5.885 -1.1824 -2.6063  1.5818
  234MOL0     H31590   8.067   5.073   5.937 -0.3541  1.3416 -1.5887
  235MOL0     O31591   8.240   9.361   7.756  0.3392  1.0208 -0.3936
  235MOL0     C31592   8.237   9.339   7.637  1.0619 -0.1927 -0.4854
  235MOL0     O31593   8.153   9.392   7.546 -0.0177 -0.6219  0.5285
  235MOL0     C31594   8.057   9.492   7.576  0.4867  1.4607 -0.0075
  235MOL0     C31595   8.001   9.568   7.474 -0.5882 -0.9575 -0.1096
  235MOL0     C31596   7.901   9.665   7.491 -1.2868 -1.3146 -0.2890
  235MOL0     C31597   7.836   9.674   7.616  1.3604 -0.0743  0.1720
  235MOL0     O31598   7.721   9.754   7.643 -0.5480 -0.5434 -0.0534
  235MOL0     C31599   7.611   9.743   7.559 -0.6327 -0.5652  0.0737
  235MOL0     C31600   7.525   9.624   7.614 -0.1946 -1.2036 -0.3745
  235MOL0     C31601   7.447   9.659   7.733 -0.5447 -0.1711 -0.1362
  235MOL0     C31602   7.403   9.531   7.809  0.0207  0.0123 -0.0655
  235MOL0     C31603   7.371   9.561   7.957 -0.0310 -0.8521 -0.6064
  235MOL0     C31604   7.315   9.429   8.021  0.1440  0.3731 -0.0434
  235MOL0     C31605   7.270   9.446   8.165 -0.2168  0.1546  0.2845
  235MOL0     C31606   7.133   9.496   8.181  0.2448  0.3045 -0.2496
  235MOL0     N31607   7.027   9.412   8.123  0.0916 -0.4829 -0.7440
  235MOL0     C31608   6.972   9.299   8.180 -0.2775  0.2884  0.4155
  235MOL0     C31609   6.883   9.256   8.093  0.3099  0.1303  0.0201
  235MOL0     C31610   6.800   9.125   8.096 -0.1884 -0.0592 -0.2138
  235MOL0     C31611   6.842   9.021   8.201  0.0923 -1.5061 -0.0342
  235MOL0     C31612   6.752   8.895   8.228  0.6047  0.9018  0.0120
  235MOL0     C31613   6.604   8.929   8.267 -0.5336  0.7730 -0.1058
  235MOL0     O31614   6.607   8.993   8.390 -0.2011 -0.1646  0.4802
  235MOL0     C31615   6.481   9.012   8.454 -0.9523  0.0744  0.2149
  235MOL0     C31616   6.505   9.046   8.583 -0.0203 -0.4959  0.0206
  235MOL0     C31617   6.401   9.084   8.665 -0.2160  0.5877 -0.1745
  235MOL0     C31618   6.438   9.132   8.803  0.4977 -0.6818  0.7142
  235MOL0     C31619   6.266   9.054   8.625  0.1338 -0.3615  0.1460
  235MOL0     C31620   6.150   9.057   8.721 -0.1594  0.0786  0.0645
  235MOL0     O31621   6.020   9.093   8.673 -0.5630  0.7979  0.6519
  235MOL0     C31622   5.923   9.077   8.766  0.8290  0.2684  0.1864
  235MOL0     C31623   5.896   9.154   8.885 -0.2119 -0.3839 -0.2583
  235MOL0     C31624   5.795   9.127   8.968  0.2303  0.1840  0.7276
  235MOL0     C31625   5.707   9.022   8.928  0.0365 -0.1621 -0.6208
  235MOL0     O31626   5.607   9.002   9.021  0.0897  0.0988  0.2265
  235MOL0     C31627   5.475   8.953   8.967 -0.3601  0.1986  1.1748
  235MOL0     C31628   5.359   9.023   9.022 -0.5524 -0.7350  0.4641
  235MOL0     C31629   5.229   8.965   8.970 -1.0536 -0.1304  0.0244
  235MOL0     C31630   5.114   9.053   9.010 -0.6907 -0.0548  0.1529
  235MOL0     C31631   4.975   9.006   8.957 -0.5737 -0.1050 -0.1420
  235MOL0     C31632   4.901   8.920   9.058  0.0150 -0.7326 -0.2917
  235MOL0     C31633   4.769   8.854   9.003  0.1541 -0.3736  0.4421
  235MOL0     C31634   4.677   8.950   8.935  1.2955 -0.5307  0.7784
  235MOL0    Cl31635   4.511   8.874   8.934 -0.0692 -0.1924  0.1490
  235MOL0     C31636   5.731   8.932   8.826 -0.3510 -0.5773 -0.8365
  235MOL0     C31637   5.838   8.966   8.746 -0.2050  0.2659  0.0550
  235MOL0     O31638   6.169   9.001   8.827  1.0531  0.3022  0.1862
  235MOL0     C31639   6.247   9.015   8.493 -0.8745  0.2488 -0.2674
  235MOL0     C31640   6.353   8.996   8.406  0.6956 -0.2984  0.4845
  235MOL0     N31641   6.870   9.350   7.992  0.7320  0.4982 -0.9224
  235MOL0     N31642   6.959   9.446   8.012 -0.2856  0.0082 -0.1109
  235MOL0     C31643   7.887   9.599   7.719 -0.5793 -0.0190  0.7617
  235MOL0     C31644   7.995   9.513   7.705 -0.3756  0.0747  0.0101
  235MOL0     C31645   8.336   9.251   7.588 -0.8679  0.3810  0.1513
  235MOL0     C31646   8.370   9.238   7.447 -0.0700 -0.0893  0.1564
  235MOL0     C31647   8.468   9.140   7.410  0.8181  0.0038  0.2822
  235MOL0     C31648   8.534   9.059   7.498  0.6370  0.6753  0.1108
  235MOL0     O31649   8.630   8.979   7.450 -0.7510  0.3508  0.7962
  235MOL0     C31650   8.730   8.912   7.539  0.4135  0.7430 -0.8835
  235MOL0     C31651   8.849   8.870   7.459  0.2177 -0.1819  0.3362
  235MOL0     C31652   8.851   8.727   7.410 -0.4038 -0.3295  0.3389
  235MOL0     C31653   8.752   8.698   7.294  0.5307 -0.2345 -0.7194
  235MOL0     C31654   8.753   8.557   7.251  0.0992  0.1488 -1.0327
  235MOL0     C31655   8.735   8.448   7.202  0.0850  0.4258  0.8053
  235MOL0     C31656   8.503   9.065   7.633 -0.2734  0.2245 -0.7425
  235MOL0     C31657   8.406   9.153   7.675 -0.4994 -0.2348 -0.3227
  235MOL0     H31658   8.027   9.544   7.372  1.8054 -3.3464  0.9621
  235MOL0     H31659   7.873   9.711   7.397  0.3606 -0.3807 -0.3589
  235MOL0     H31660   7.544   9.829   7.565 -2.7037 -2.1422  1.2843
  235MOL0     H31661   7.648   9.730   7.457  0.4557 -0.6059  0.4634
  235MOL0     H31662   7.440   9.617   7.544 -1.5664  1.0348  0.9309
  235MOL0     H31663   7.591   9.537   7.613  0.1883 -1.0201 -3.4943
  235MOL0     H31664   7.501   9.716   7.808 -2.1207 -0.3737  1.2115
  235MOL0     H31665   7.359   9.717   7.704 -1.3205 -1.5591 -0.6936
  235MOL0     H31666   7.329   9.482   7.746  1.1996 -0.6318 -0.9975
  235MOL0     H31667   7.492   9.468   7.806  1.5647  2.0895 -1.6910
  235MOL0     H31668   7.462   9.595   8.008  1.1247  0.2359 -3.1887
  235MOL0     H31669   7.297   9.641   7.960  0.2489 -0.4873 -2.3201
  235MOL0     H31670   7.236   9.379   7.965  0.3875  0.4539 -0.4622
  235MOL0     H31671   7.401   9.363   8.031 -0.8929 -1.0110  0.0765
  235MOL0     H31672   7.272   9.347   8.213  1.0778  0.4558  0.8977
  235MOL0     H31673   7.344   9.500   8.225  1.6740 -2.8413  0.8830
  235MOL0     H31674   7.132   9.599   8.144 -0.3807 -0.7822 -3.6227
  235MOL0     H31675   7.114   9.511   8.288 -0.7509  0.3755 -0.4246
  235MOL0     H31676   7.017   9.249   8.265  3.0899  1.8106 -0.3063
  235MOL0     H31677   6.694   9.145   8.107  0.1834  1.6122  0.5475
  235MOL0     H31678   6.817   9.075   8.000  2.1663 -0.6859  0.4602
  235MOL0     H31679   6.861   9.080   8.292  2.0807  0.1494 -1.4228
  235MOL0     H31680   6.940   8.979   8.179 -0.9203 -4.1758  0.1470
  235MOL0     H31681   6.805   8.840   8.306  0.0824  1.8529  1.0538
  235MOL0     H31682   6.757   8.839   8.133  4.7220  0.4188  0.3565
  235MOL0     H31683   6.559   8.831   8.285  0.8665  0.3533  1.4254
  235MOL0     H31684   6.547   8.989   8.195 -1.7820  0.3608  0.5100
  235MOL0     H31685   6.607   9.032   8.618  0.2226 -2.7894 -1.3793
  235MOL0     H31686   6.538   9.175   8.813  0.1519  1.2564 -2.6435
  235MOL0     H31687   6.365   9.207   8.834 -0.0839 -0.5680 -0.7965
  235MOL0     H31688   6.436   9.042   8.864  2.8175 -0.1789  1.6549
  235MOL0     H31689   5.965   9.234   8.909 -0.8846 -0.1574  1.0195
  235MOL0     H31690   5.768   9.195   9.048 -0.0019 -0.0879  0.8830
  235MOL0     H31691   5.480   8.949   8.858  1.6270 -0.6333  1.2632
  235MOL0     H31692   5.475   8.847   8.993  1.1126 -0.6201 -1.7143
  235MOL0     H31693   5.370   9.025   9.131  1.4878  0.7414  0.2834
  235MOL0     H31694   5.373   9.126   8.989  0.6019 -1.4876 -1.5246
  235MOL0     H31695   5.208   8.873   9.025  1.4821 -0.6576  0.2357
  235MOL0     H31696   5.217   8.942   8.863 -1.5923 -2.2340  0.4899
  235MOL0     H31697   5.109   9.082   9.116 -1.3717  1.5393 -0.2941
  235MOL0     H31698   5.127   9.149   8.960 -1.1550 -0.9338 -1.7244
  235MOL0     H31699   4.986   8.956   8.860  2.1288  0.9216 -0.4570
  235MOL0     H31700   4.908   9.089   8.932 -0.4211 -0.0474 -0.3642
  235MOL0     H31701   4.965   8.837   9.090 -0.0010 -0.7547 -0.3168
  235MOL0     H31702   4.879   8.986   9.143  1.6515 -1.1520  0.5085
  235MOL0     H31703   4.718   8.823   9.095 -1.3202  0.4108 -0.0669
  235MOL0     H31704   4.792   8.772   8.935 -0.7939 -2.1142  2.1042
  235MOL0     H31705   4.702   8.965   8.829 -0.7643 -0.4960  0.2506
  235MOL0     H31706   4.667   9.051   8.977 -2.5081 -0.5754  0.3939
  235MOL0     H31707   5.669   8.846   8.807 -1.3990 -0.2026  0.6516
  235MOL0     H31708   5.863   8.904   8.660 -1.0919  1.6845 -1.2753
  235MOL0     H31709   6.146   8.992   8.459 -1.6564  0.0850  2.0210
  235MOL0     H31710   6.347   8.965   8.302 -1.8116 -1.2370  0.8556
  235MOL0     H31711   7.832   9.586   7.811 -1.4061 -1.2324  0.1276
  235MOL0     H31712   8.005   9.450   7.792 -2.6312 -0.3310  0.0347
  235MOL0     H31713   8.318   9.291   7.368 -1.7769 -2.6304 -0.5803
  235MOL0     H31714   8.508   9.122   7.311  1.0300  0.7174  0.2304
  235MOL0     H31715   8.762   8.984   7.615  2.2436  1.0147 -1.8601
  235MOL0     H31716   8.669   8.830   7.577 -0.8725  1.2354 -1.7892
  235MOL0     H31717   8.934   8.877   7.528 -0.4283 -0.5413  1.1941
  235MOL0     H31718   8.878   8.940   7.381 -0.7863 -0.6609 -0.4929
  235MOL0     H31719   8.818   8.665   7.493  1.5534  0.3461  1.6886
  235MOL0     H31720   8.949   8.699   7.372 -0.7610 -0.8600 -0.2065
  235MOL0     H31721   8.792   8.758   7.212  0.4995  3.1438  1.5299
  235MOL0     H31722   8.652   8.735   7.318 -0.5416 -2.6170 -1.2069
  235MOL0     H31723   8.700   8.353   7.167 -2.2743  1.1229  1.1009
  235MOL0     H31724   8.540   9.001   7.713 -2.5107 -0.8640 -0.5119
  235MOL0     H31725   8.379   9.147   7.780  1.9756 -0.0984  0.3679
  236MOL0     O31726   5.311   6.537   7.834  0.8204  0.2853 -0.3075
  236MOL0     C31727   5.342   6.463   7.740  0.4270 -0.2773 -0.7185
  236MOL0     O31728   5.257   6.403   7.656  0.5738  0.1802  0.3212
  236MOL0     C31729   5.122   6.439   7.678  0.0303 -0.8008  0.1378
  236MOL0     C31730   5.054   6.515   7.574 -0.0088  0.9385 -0.2901
  236MOL0     C31731   4.924   6.549   7.591 -0.5068 -0.5518 -0.0270
  236MOL0     C31732   4.854   6.516   7.703  0.2221 -0.0431  0.0405
  236MOL0     O31733   4.729   6.554   7.744 -0.2436  0.7621  0.5318
  236MOL0     C31734   4.654   6.624   7.641 -0.2680  0.7018  0.4654
  236MOL0     C31735   4.518   6.659   7.686  0.4372 -0.4238  0.1882
  236MOL0     C31736   4.469   6.765   7.579  0.4384 -0.5366 -0.0755
  236MOL0     C31737   4.338   6.829   7.622  0.5518 -0.1012  0.8674
  236MOL0     C31738   4.336   6.877   7.765  0.8375 -0.2872  0.3133
  236MOL0     C31739   4.223   6.974   7.795  0.5662  0.8199  0.3719
  236MOL0     C31740   4.226   7.100   7.719 -0.1313 -0.0424 -0.9418
  236MOL0     C31741   4.120   7.184   7.792 -1.2243 -0.5062 -0.3486
  236MOL0     N31742   4.120   7.323   7.738 -0.0399 -0.0989 -0.0734
  236MOL0     C31743   4.130   7.447   7.794  0.4434  0.8293 -0.4671
  236MOL0     C31744   4.117   7.528   7.692 -0.6973 -0.0739  0.7843
  236MOL0     C31745   4.124   7.677   7.681 -1.0935 -0.3262 -0.3952
  236MOL0     C31746   4.007   7.747   7.762 -0.7654  0.0321  0.6277
  236MOL0     C31747   3.997   7.906   7.724 -0.8860  0.8548  0.3017
  236MOL0     C31748   3.862   7.968   7.753  0.1606 -0.0035 -0.0023
  236MOL0     O31749   3.873   7.974   7.887 -0.0466  0.8624 -0.2139
  236MOL0     C31750   3.759   8.000   7.956  0.9236  0.1601  0.0954
  236MOL0     C31751   3.773   8.047   8.089 -0.5678  0.7339 -0.3309
  236MOL0     C31752   3.667   8.080   8.174 -0.2021 -0.8433 -0.3085
  236MOL0     C31753   3.710   8.132   8.309 -0.0379 -0.5868 -1.4565
  236MOL0     C31754   3.537   8.077   8.121  0.4075 -1.0869  0.4890
  236MOL0     C31755   3.408   8.121   8.188 -0.6347  0.4374 -0.2164
  236MOL0     O31756   3.423   8.229   8.269 -0.2731 -0.1890 -1.1093
  236MOL0     C31757   3.311   8.281   8.342 -1.1894 -0.2588  0.5281
  236MOL0     C31758   3.173   8.274   8.304 -0.1628  0.1589  0.3522
  236MOL0     C31759   3.075   8.335   8.379 -1.0647 -0.8475 -0.9863
  236MOL0     C31760   3.105   8.431   8.469 -0.1133  0.5195 -0.0211
  236MOL0     O31761   3.014   8.503   8.546  0.4023  0.2779 -0.3400
  236MOL0     C31762   2.882   8.454   8.567 -0.5352  0.3538  0.5764
  236MOL0     C31763   2.780   8.530   8.480 -0.0769  0.5297 -0.1662
  236MOL0     C31764   2.647   8.466   8.513  0.2569 -0.1501  0.2669
  236MOL0     C31765   2.542   8.544   8.426  0.4402 -0.1658 -0.1888
  236MOL0     C31766   2.403   8.508   8.479  0.6699  0.9471  0.5359
  236MOL0     C31767   2.325   8.404   8.401 -0.2568 -0.3026  0.4267
  236MOL0     C31768   2.200   8.357   8.477 -0.5216  0.1121 -0.1064
  236MOL0     C31769   2.159   8.227   8.410  0.1553  0.1840  0.5444
  236MOL0    Cl31770   1.980   8.193   8.445  0.2733  0.3011  0.4942
  236MOL0     C31771   3.234   8.465   8.487  0.2385 -0.6035 -0.6638
  236MOL0     C31772   3.335   8.394   8.422  0.9255 -0.7615 -0.4651
  236MOL0     O31773   3.316   8.039   8.188  0.3210  0.8687  0.4582
  236MOL0     C31774   3.516   8.047   7.988  0.4451  0.7739 -0.2219
  236MOL0     C31775   3.626   8.008   7.910  0.7358 -0.5533 -0.6531
  236MOL0     N31776   4.101   7.461   7.579  0.2005 -0.6950  0.1947
  236MOL0     N31777   4.095   7.336   7.604  0.1242 -0.0180 -0.2431
  236MOL0     C31778   4.925   6.450   7.807 -0.4308 -0.5059  1.0075
  236MOL0     C31779   5.058   6.415   7.796  0.3067  0.2187 -0.6913
  236MOL0     C31780   5.482   6.431   7.717 -0.0167 -0.0824 -0.2594
  236MOL0     C31781   5.584   6.480   7.809  0.2673  0.2790 -0.0910
  236MOL0     C31782   5.712   6.460   7.790  0.0106 -0.7712  1.2109
  236MOL0     C31783   5.760   6.375   7.684 -0.4925  0.4442 -0.2865
  236MOL0     O31784   5.895   6.371   7.672  0.1010 -0.3976  0.0125
  236MOL0     C31785   5.943   6.260   7.583  0.0807  0.2819  0.0859
  236MOL0     C31786   6.088   6.240   7.566 -0.2745 -0.6464 -0.0913
  236MOL0     C31787   6.134   6.229   7.419 -0.6144  0.3060 -0.5966
  236MOL0     C31788   6.286   6.180   7.422 -0.1703 -0.4656  0.2512
  236MOL0     C31789   6.340   6.152   7.289  0.3283 -0.2329 -0.0730
  236MOL0     C31790   6.368   6.132   7.172  0.3764  0.7076 -0.0820
  236MOL0     C31791   5.668   6.325   7.595  0.4897 -0.1003  0.8324
  236MOL0     C31792   5.531   6.348   7.612 -0.3026 -0.1075 -0.8489
  236MOL0     H31793   5.112   6.548   7.488  2.4579  1.5643  1.5136
  236MOL0     H31794   4.880   6.617   7.520 -2.9957 -1.6264  0.3793
  236MOL0     H31795   4.714   6.713   7.620 -1.3542  1.4721  0.4782
  236MOL0     H31796   4.643   6.579   7.543  0.1990  0.1518  0.6605
  236MOL0     H31797   4.451   6.573   7.700  1.6620 -1.3011  0.9088
  236MOL0     H31798   4.531   6.714   7.780 -0.7746 -0.9169  0.6595
  236MOL0     H31799   4.543   6.845   7.565  0.5725 -0.5868  0.3355
  236MOL0     H31800   4.466   6.723   7.478  1.3158 -0.5258 -0.1141
  236MOL0     H31801   4.319   6.907   7.548  2.9912  0.9564  1.2601
  236MOL0     H31802   4.258   6.755   7.622 -1.5612  1.9973 -1.3283
  236MOL0     H31803   4.311   6.791   7.828 -1.8394 -0.2463 -0.5705
  236MOL0     H31804   4.431   6.931   7.776  1.2175 -0.4774 -1.6042
  236MOL0     H31805   4.132   6.919   7.771  2.4065 -2.5646  0.5035
  236MOL0     H31806   4.225   6.994   7.903  1.6112 -1.2048  0.7719
  236MOL0     H31807   4.322   7.150   7.733 -1.0427  0.9594  3.4879
  236MOL0     H31808   4.218   7.081   7.612  0.0706 -1.7192 -0.6959
  236MOL0     H31809   4.141   7.191   7.899 -0.1375 -0.6168 -0.5458
  236MOL0     H31810   4.023   7.136   7.776 -1.4874  0.6942 -2.7834
  236MOL0     H31811   4.138   7.466   7.901 -2.0070  1.1474 -0.2946
  236MOL0     H31812   4.222   7.707   7.719 -1.8113  1.2500  0.3298
  236MOL0     H31813   4.113   7.710   7.577  1.6561  0.3565 -0.5291
  236MOL0     H31814   4.028   7.742   7.870 -1.0415  1.5411  0.7815
  236MOL0     H31815   3.908   7.709   7.736 -1.2447  0.0725  2.2728
  236MOL0     H31816   4.010   7.938   7.620 -2.0229 -0.2346 -0.1942
  236MOL0     H31817   4.077   7.950   7.784 -2.0180  2.5738  0.6371
  236MOL0     H31818   3.776   7.904   7.728  0.2789 -1.6299  3.1935
  236MOL0     H31819   3.858   8.069   7.711 -1.7772 -0.1250 -0.2422
  236MOL0     H31820   3.874   8.052   8.127  0.2333  3.6250 -2.4627
  236MOL0     H31821   3.633   8.091   8.374  2.1632 -2.0061  0.4076
  236MOL0     H31822   3.810   8.096   8.335 -1.1400 -1.3981  2.1588
  236MOL0     H31823   3.699   8.241   8.311 -0.8272 -0.6521 -1.8351
  236MOL0     H31824   3.134   8.206   8.229 -0.5069  0.2737  0.4242
  236MOL0     H31825   2.972   8.336   8.347 -0.7391  1.7130 -2.2126
  236MOL0     H31826   2.873   8.346   8.553 -1.5536  0.2967  1.5360
  236MOL0     H31827   2.847   8.465   8.670 -0.4734  0.2487  0.6079
  236MOL0     H31828   2.785   8.634   8.512 -1.3080  1.2075 -2.0140
  236MOL0     H31829   2.793   8.523   8.371 -0.8759  2.1919 -0.4016
  236MOL0     H31830   2.635   8.475   8.621  2.8196  2.4127  0.4677
  236MOL0     H31831   2.656   8.361   8.483  1.7906 -0.1442  0.6297
  236MOL0     H31832   2.557   8.652   8.432  1.8418 -0.3712  0.2761
  236MOL0     H31833   2.552   8.522   8.319 -0.6202 -0.6958 -0.1894
  236MOL0     H31834   2.337   8.595   8.490  1.3935  1.7337 -1.0980
  236MOL0     H31835   2.416   8.472   8.582  2.5693 -0.2307 -0.0664
  236MOL0     H31836   2.298   8.455   8.308 -0.7930  0.2958  0.9047
  236MOL0     H31837   2.393   8.320   8.385 -0.7718 -0.8812  1.1954
  236MOL0     H31838   2.131   8.441   8.483  1.0139  1.3679  0.6832
  236MOL0     H31839   2.241   8.333   8.576  0.3628 -0.0270 -0.4872
  236MOL0     H31840   2.219   8.143   8.446  0.7879  0.2551 -0.3182
  236MOL0     H31841   2.173   8.239   8.302  4.1471 -1.4666  0.6933
  236MOL0     H31842   3.268   8.547   8.549  0.5993  1.7828 -3.7821
  236MOL0     H31843   3.440   8.417   8.437  0.0904  2.5989  1.3489
  236MOL0     H31844   3.417   8.051   7.943 -0.0902 -0.1805  0.8270
  236MOL0     H31845   3.600   7.987   7.806  3.5765  0.0066 -1.5676
  236MOL0     H31846   4.877   6.438   7.903  1.1608  0.7969  2.0282
  236MOL0     H31847   5.107   6.370   7.882 -2.7326  0.9991  1.6273
  236MOL0     H31848   5.561   6.550   7.889  2.6514  2.6780 -1.3325
  236MOL0     H31849   5.778   6.509   7.861  1.2362  4.0920 -2.6808
  236MOL0     H31850   5.901   6.170   7.631 -0.8853  1.8579  2.4072
  236MOL0     H31851   5.902   6.271   7.482  2.2336  2.4521 -0.6408
  236MOL0     H31852   6.118   6.151   7.623 -1.6305 -1.2255 -0.2319
  236MOL0     H31853   6.136   6.327   7.610 -0.7012 -0.6794  0.4554
  236MOL0     H31854   6.131   6.325   7.366  2.4245  0.0355 -1.4457
  236MOL0     H31855   6.082   6.150   7.365 -0.0891  0.7581 -1.8119
  236MOL0     H31856   6.305   6.096   7.490 -2.4149 -0.3598  1.0879
  236MOL0     H31857   6.347   6.261   7.464 -1.1785  2.0814 -2.8454
  236MOL0     H31858   6.393   6.114   7.070 -1.7548 -1.5283 -0.2862
  236MOL0     H31859   5.695   6.257   7.515  1.0625  1.1780 -0.0863
  236MOL0     H31860   5.456   6.307   7.545 -1.7590 -0.1637  0.7610
  237MOL0     O31861   9.499   9.918   8.963 -0.1831  0.6785  0.5347
  237MOL0     C31862   9.593   9.993   8.958  0.3028  0.8593  0.4058
  237MOL0     O31863   9.589  10.127   8.981 -0.1729  0.0436  0.7078
  237MOL0     C31864   9.472  10.196   9.009  0.3965  0.4884  0.8057
  237MOL0     C31865   9.375  10.157   9.097  0.1508  1.1705 -0.9831
  237MOL0     C31866   9.269  10.240   9.134 -0.8000 -0.4644 -0.3026
  237MOL0     C31867   9.250  10.368   9.074 -0.6880 -0.5061 -0.2857
  237MOL0     O31868   9.146  10.451   9.098 -0.0358 -0.3387  0.5419
  237MOL0     C31869   9.032  10.399   9.173  0.3999  0.9829 -0.9072
  237MOL0     C31870   8.923  10.501   9.201  0.8107 -0.5438  0.4691
  237MOL0     C31871   8.834  10.525   9.073 -1.1854  1.0093  0.0478
  237MOL0     C31872   8.733  10.637   9.091 -0.8480 -0.0175 -0.1688
  237MOL0     C31873   8.652  10.658   8.974  0.4952 -0.3999  0.1590
  237MOL0     C31874   8.534  10.746   9.003 -0.1391 -0.2281  0.3839
  237MOL0     C31875   8.418  10.726   8.898  0.5796  0.1747 -0.4390
  237MOL0     C31876   8.446  10.796   8.767  0.6391  0.1955 -0.1143
  237MOL0     N31877   8.326  10.782   8.677  0.3455 -0.4232  0.1672
  237MOL0     C31878   8.302  10.663   8.614 -0.2849  0.6532  0.1988
  237MOL0     C31879   8.173  10.680   8.569  0.6052 -0.3541 -0.0924
  237MOL0     C31880   8.102  10.587   8.473  0.6481  0.2657  0.3485
  237MOL0     C31881   7.953  10.572   8.510  0.1593 -0.3787 -0.0783
  237MOL0     C31882   7.931  10.536   8.667 -0.7936  0.5037  0.5650
  237MOL0     C31883   7.798  10.463   8.693  0.4032  0.3521 -0.2690
  237MOL0     O31884   7.683  10.552   8.667  0.1645  0.3500  0.5184
  237MOL0     C31885   7.558  10.489   8.669 -0.3650  0.5684  0.7772
  237MOL0     C31886   7.531  10.357   8.704 -0.8295 -0.7392 -0.5292
  237MOL0     C31887   7.398  10.304   8.697  0.1785  1.0577  0.2135
  237MOL0     C31888   7.375  10.157   8.703 -0.6494 -0.3715  0.7497
  237MOL0     C31889   7.296  10.385   8.640 -0.4383 -0.5793  0.1994
  237MOL0     C31890   7.160  10.329   8.604  0.2714  0.2299 -0.4958
  237MOL0     O31891   7.108  10.335   8.478  0.1110  0.0099 -0.1252
  237MOL0     C31892   6.969  10.307   8.459 -0.0660 -0.8426 -0.1640
  237MOL0     C31893   6.933  10.189   8.399  0.0489 -0.4730  0.5422
  237MOL0     C31894   6.800  10.158   8.376 -0.3667 -0.2920 -0.2353
  237MOL0     C31895   6.702  10.260   8.389 -0.5714 -0.5393 -0.1196
  237MOL0     O31896   6.573  10.229   8.352  0.1638  0.1381  0.1817
  237MOL0     C31897   6.490  10.174   8.459  0.5573  0.1120 -0.3739
  237MOL0     C31898   6.406  10.039   8.457 -0.1336  0.9848  0.6004
  237MOL0     C31899   6.329  10.018   8.321 -0.5297 -0.2115 -0.4384
  237MOL0     C31900   6.223   9.897   8.316  0.4515 -0.0220 -0.9587
  237MOL0     C31901   6.188   9.870   8.173  0.2645 -0.5932  0.2539
  237MOL0     C31902   6.152   9.723   8.169  0.1799 -1.1221 -0.3082
  237MOL0     C31903   6.109   9.688   8.031  0.3887  0.8308 -0.1017
  237MOL0     C31904   6.047   9.548   8.021 -0.6326  0.4827  1.6504
  237MOL0    Cl31905   5.882   9.561   8.081 -0.0389  0.3017  0.2663
  237MOL0     C31906   6.744  10.382   8.437  0.3597  0.2245  0.9206
  237MOL0     C31907   6.871  10.407   8.480 -0.3811 -0.0492 -0.5470
  237MOL0     O31908   7.105  10.277   8.699  0.3221 -0.6297 -0.2587
  237MOL0     C31909   7.332  10.514   8.605  0.0474 -0.3993  0.2964
  237MOL0     C31910   7.459  10.568   8.620 -0.5443 -0.2233 -0.7455
  237MOL0     N31911   8.123  10.811   8.592 -0.1630 -0.5428  0.3708
  237MOL0     N31912   8.224  10.872   8.657 -0.4565 -0.0491  0.1845
  237MOL0     C31913   9.346  10.407   8.979  1.5532  0.5968  0.1881
  237MOL0     C31914   9.447  10.318   8.944  0.0949  0.5619  0.2031
  237MOL0     C31915   9.732   9.935   8.939  0.5473 -0.7741  0.0039
  237MOL0     C31916   9.750   9.795   8.937  0.1224 -0.0563  0.5932
  237MOL0     C31917   9.881   9.742   8.911 -0.1534  0.3762  0.3161
  237MOL0     C31918   9.992   9.827   8.889  0.9669  0.1163  0.8091
  237MOL0     O31919  10.118   9.782   8.873 -0.0977 -0.8372  0.7926
  237MOL0     C31920  10.138   9.685   8.766 -0.7857 -0.5598  0.4229
  237MOL0     C31921  10.292   9.671   8.733 -0.3948 -1.2761 -0.0622
  237MOL0     C31922  10.353   9.804   8.684  0.7110 -0.3748  0.4205
  237MOL0     C31923  10.504   9.777   8.655  0.3720 -0.5921 -0.2996
  237MOL0     C31924  10.567   9.903   8.601 -0.1065 -0.6615  0.2537
  237MOL0     C31925  10.614  10.011   8.563  0.3424  0.4132  0.4817
  237MOL0     C31926   9.964   9.962   8.888 -0.0003  0.4844  0.6235
  237MOL0     C31927   9.841  10.016   8.910 -0.8868  0.2634  0.0401
  237MOL0     H31928   9.385  10.065   9.153 -5.1954  0.4189 -0.7352
  237MOL0     H31929   9.198  10.200   9.206  1.3362 -1.0429  1.5978
  237MOL0     H31930   8.993  10.308   9.127 -0.8517  1.8210 -1.5765
  237MOL0     H31931   9.055  10.365   9.274 -4.4751 -3.1324 -0.7652
  237MOL0     H31932   8.852  10.453   9.269 -2.1844  1.2437 -1.2131
  237MOL0     H31933   8.962  10.590   9.250  1.2186 -0.7043  0.4431
  237MOL0     H31934   8.911  10.552   8.999 -1.3180 -4.4458 -2.5424
  237MOL0     H31935   8.797  10.427   9.045  2.9118  0.3393 -4.3083
  237MOL0     H31936   8.668  10.614   9.176  0.3556  1.6275  1.2838
  237MOL0     H31937   8.792  10.728   9.110 -2.2335  0.7111  0.8132
  237MOL0     H31938   8.709  10.678   8.883 -1.0942  0.8651 -0.6011
  237MOL0     H31939   8.597  10.566   8.952  0.2393  0.3098 -2.5849
  237MOL0     H31940   8.493  10.724   9.102  1.7049 -0.3359  1.1766
  237MOL0     H31941   8.562  10.852   9.014 -1.5210 -0.0187  2.5184
  237MOL0     H31942   8.391  10.621   8.888 -0.6534  0.0861  2.5793
  237MOL0     H31943   8.328  10.753   8.954  1.0607  0.4028  0.2531
  237MOL0     H31944   8.528  10.740   8.720 -0.8224 -1.6689 -0.5690
  237MOL0     H31945   8.472  10.901   8.782  1.3815 -0.0881  0.6585
  237MOL0     H31946   8.356  10.570   8.604  0.9192  1.0720  2.1311
  237MOL0     H31947   8.105  10.623   8.370 -1.3089 -0.7962 -0.1226
  237MOL0     H31948   8.136  10.483   8.469 -1.0937 -0.2980 -0.8173
  237MOL0     H31949   7.899  10.505   8.442  1.3853 -2.3017  0.7557
  237MOL0     H31950   7.906  10.669   8.494 -0.3972 -0.8084 -1.2252
  237MOL0     H31951   7.930  10.630   8.723  2.2952  0.2693  1.1694
  237MOL0     H31952   8.011  10.475   8.709  1.7921  3.1878 -0.1775
  237MOL0     H31953   7.785  10.436   8.798 -1.5086 -1.4916 -0.9078
  237MOL0     H31954   7.793  10.372   8.633 -3.0941  1.4910 -1.9603
  237MOL0     H31955   7.606  10.282   8.729  0.2066  0.3685 -0.2188
  237MOL0     H31956   7.363  10.098   8.612  0.4370 -2.1699  1.7026
  237MOL0     H31957   7.458  10.106   8.753 -2.5447 -3.6196  0.9501
  237MOL0     H31958   7.296  10.134   8.776  0.1307 -0.8192  1.4739
  237MOL0     H31959   7.009  10.115   8.375  0.8039  0.4974 -0.1406
  237MOL0     H31960   6.770  10.063   8.334 -0.1895 -1.5539  2.2687
  237MOL0     H31961   6.550  10.168   8.550 -1.2063  0.5983  0.8702
  237MOL0     H31962   6.410  10.245   8.481  1.2829  1.1661 -1.0558
  237MOL0     H31963   6.478   9.957   8.459 -1.1873 -0.1101 -1.8187
  237MOL0     H31964   6.345  10.030   8.548 -0.8180 -2.1197 -0.0323
  237MOL0     H31965   6.400   9.986   8.244  1.3536  0.0823  1.0872
  237MOL0     H31966   6.280  10.110   8.288  1.3713  1.5155  1.2742
  237MOL0     H31967   6.271   9.814   8.370 -1.0451 -0.6095 -0.4598
  237MOL0     H31968   6.136   9.920   8.378  1.0939  2.6644 -0.9525
  237MOL0     H31969   6.270   9.910   8.112  1.0620 -0.1658  1.5618
  237MOL0     H31970   6.101   9.927   8.139 -0.3961 -0.8939  1.3858
  237MOL0     H31971   6.246   9.674   8.199  3.1181  4.2432  0.5216
  237MOL0     H31972   6.074   9.696   8.242 -0.3246 -1.6820 -1.0413
  237MOL0     H31973   6.199   9.694   7.969  0.7236  0.1359  0.3002
  237MOL0     H31974   6.040   9.762   7.989 -1.7597 -0.1616  1.4806
  237MOL0     H31975   6.088   9.475   8.092 -1.3016  0.2537  1.8206
  237MOL0     H31976   6.051   9.518   7.916 -1.3805  2.6471  0.9677
  237MOL0     H31977   6.671  10.462   8.438  0.3133  0.2373 -0.8047
  237MOL0     H31978   6.896  10.506   8.515  2.1958 -0.7797 -0.1150
  237MOL0     H31979   7.249  10.565   8.558 -0.4385 -1.1262  0.3481
  237MOL0     H31980   7.482  10.670   8.590 -0.0320 -0.3140 -0.6597
  237MOL0     H31981   9.338  10.508   8.940 -3.4506  0.1147 -0.7383
  237MOL0     H31982   9.522  10.360   8.878 -0.9137  0.9559 -0.7286
  237MOL0     H31983   9.664   9.737   8.966 -2.1929  1.6259 -2.2853
  237MOL0     H31984   9.903   9.636   8.919  0.3373  0.6122  3.9171
  237MOL0     H31985  10.101   9.585   8.790  2.2386 -1.7003  0.7570
  237MOL0     H31986  10.086   9.714   8.675  1.9422  1.1523 -0.7180
  237MOL0     H31987  10.311   9.584   8.669  1.7429 -0.4370 -0.6270
  237MOL0     H31988  10.344   9.640   8.824 -3.2724 -1.5259  1.6250
  237MOL0     H31989  10.338   9.878   8.763 -1.0960 -0.2817  0.0387
  237MOL0     H31990  10.302   9.833   8.591  1.8521  1.7796  0.4012
  237MOL0     H31991  10.519   9.698   8.581 -3.9328 -2.1792  0.2355
  237MOL0     H31992  10.550   9.756   8.751 -1.9298  2.2789  1.6291
  237MOL0     H31993  10.642  10.110   8.533 -1.6791  1.0402  0.4665
  237MOL0     H31994  10.048  10.026   8.866  2.3493 -3.0732 -1.8735
  237MOL0     H31995   9.832  10.124   8.921  2.0686  0.5445  0.5929
  238MOL0     O31996   9.697   9.061   0.896 -0.8540  0.0367  0.2969
  238MOL0     C31997   9.782   9.022   0.981  0.2702  0.5981  0.2577
  238MOL0     O31998   9.801   8.893   1.024  0.6493 -0.3002  0.1299
  238MOL0     C31999   9.700   8.795   1.008 -0.4362 -0.4218  0.3216
  238MOL0     C32000   9.727   8.668   0.958  0.0374  0.3281  0.0605
  238MOL0     C32001   9.628   8.570   0.941 -0.3398 -0.7136  0.2484
  238MOL0     C32002   9.497   8.608   0.960  0.4089 -0.8227 -0.8760
  238MOL0     O32003   9.397   8.516   0.957 -0.1219  0.1056 -0.0998
  238MOL0     C32004   9.414   8.423   0.856  0.3269 -0.1840  0.0663
  238MOL0     C32005   9.279   8.417   0.787 -0.0347 -0.0555  1.1830
  238MOL0     C32006   9.155   8.389   0.879 -0.0075  0.1025 -0.7568
  238MOL0     C32007   9.036   8.335   0.792  0.4278 -0.2980  0.0079
  238MOL0     C32008   8.902   8.315   0.867  0.3451 -1.3178  0.2040
  238MOL0     C32009   8.797   8.250   0.774  0.5490 -1.0928  0.0225
  238MOL0     C32010   8.655   8.294   0.814 -0.2402  0.3162  0.0521
  238MOL0     C32011   8.621   8.300   0.962 -0.1989  0.5853 -0.7511
  238MOL0     N32012   8.475   8.315   0.994 -0.2826 -0.0449 -0.5063
  238MOL0     C32013   8.378   8.230   0.965  0.6194  1.0089 -1.3388
  238MOL0     C32014   8.264   8.268   1.032 -0.9287  0.9260 -0.4306
  238MOL0     C32015   8.140   8.186   1.025  0.0801  0.5232  0.3263
  238MOL0     C32016   8.036   8.253   0.940 -0.6868 -0.2166 -0.1472
  238MOL0     C32017   7.899   8.175   0.923 -0.3539 -0.4708  0.2032
  238MOL0     C32018   7.815   8.178   1.052 -0.2099  0.8424  0.0808
  238MOL0     O32019   7.759   8.305   1.090  0.6150  0.7037  0.1553
  238MOL0     C32020   7.635   8.296   1.142 -0.2154  0.2885  0.3417
  238MOL0     C32021   7.583   8.186   1.207  0.6841 -0.3250 -0.5940
  238MOL0     C32022   7.452   8.186   1.262  0.5843 -0.2817 -0.1820
  238MOL0     C32023   7.413   8.065   1.346 -0.2980  0.5581 -0.5262
  238MOL0     C32024   7.366   8.301   1.232 -0.1473  0.3314 -0.4035
  238MOL0     C32025   7.232   8.316   1.278 -0.4053  0.6006  0.7572
  238MOL0     O32026   7.145   8.375   1.189  0.3926 -0.7910 -0.0585
  238MOL0     C32027   7.014   8.397   1.223 -0.0016 -0.2813  0.1207
  238MOL0     C32028   6.961   8.522   1.231  0.1103 -0.7834  0.2922
  238MOL0     C32029   6.832   8.544   1.269 -0.0840  0.0654  0.5312
  238MOL0     C32030   6.748   8.444   1.301 -0.1073 -0.0837  1.0784
  238MOL0     O32031   6.624   8.471   1.330  0.0210  0.4277 -0.4184
  238MOL0     C32032   6.522   8.392   1.267 -0.3469 -0.7565  0.4622
  238MOL0     C32033   6.515   8.429   1.117  0.1226  0.0821 -0.3737
  238MOL0     C32034   6.447   8.574   1.111 -1.0183 -0.0721 -0.3291
  238MOL0     C32035   6.416   8.623   0.964  0.2608 -0.2910 -0.5864
  238MOL0     C32036   6.342   8.755   0.948  0.2076 -0.3780  0.6333
  238MOL0     C32037   6.415   8.874   0.987 -0.1413  0.0756  0.8534
  238MOL0     C32038   6.523   8.908   0.881  0.2853 -0.4572 -0.1461
  238MOL0     C32039   6.647   8.980   0.941  0.7244  0.5055  0.3778
  238MOL0    Cl32040   6.770   9.012   0.822  0.3280 -0.0251  0.1169
  238MOL0     C32041   6.803   8.314   1.305  0.0826  0.4944  0.4267
  238MOL0     C32042   6.940   8.289   1.269  0.3780  0.2692 -0.5560
  238MOL0     O32043   7.205   8.274   1.389 -0.2895  0.1072  0.3116
  238MOL0     C32044   7.422   8.407   1.158  0.2753  0.4587 -0.8310
  238MOL0     C32045   7.556   8.406   1.120 -0.6646  0.3021  0.0554
  238MOL0     N32046   8.299   8.390   1.091 -0.4600  0.1477  0.6320
  238MOL0     N32047   8.425   8.411   1.074  0.5830  0.6907 -0.4741
  238MOL0     C32048   9.475   8.737   1.009  0.4951 -0.6636 -0.3008
  238MOL0     C32049   9.574   8.832   1.036 -0.2463  0.0540  0.7674
  238MOL0     C32050   9.884   9.109   1.036 -0.4528 -0.0852  0.0990
  238MOL0     C32051   9.931   9.080   1.160 -0.2910 -0.9955 -0.3672
  238MOL0     C32052  10.019   9.168   1.220  0.4296  0.1743 -0.1910
  238MOL0     C32053  10.067   9.285   1.150 -0.2849 -1.4932  0.0059
  238MOL0     O32054  10.148   9.370   1.218  0.2373 -0.3827 -0.1482
  238MOL0     C32055  10.268   9.413   1.155 -0.3985 -0.6127  0.3983
  238MOL0     C32056  10.407   9.352   1.198  0.9811  0.0239  0.4149
  238MOL0     C32057  10.506   9.460   1.221  0.1319 -0.8051  0.2278
  238MOL0     C32058  10.601   9.435   1.336 -0.2057 -0.7548  0.0340
  238MOL0     C32059  10.718   9.521   1.346  0.3046 -0.6586  0.1359
  238MOL0     C32060  10.813   9.598   1.364  0.2743 -0.0805  0.1498
  238MOL0     C32061  10.022   9.309   1.018  0.9164  0.7921 -0.7732
  238MOL0     C32062   9.928   9.224   0.965 -0.4979  0.0116  0.3440
  238MOL0     H32063   9.833   8.644   0.949 -0.0064 -0.3179  1.1241
  238MOL0     H32064   9.657   8.467   0.921  1.4865 -0.9002  3.2025
  238MOL0     H32065   9.490   8.462   0.788  2.4974  1.1338  3.0181
  238MOL0     H32066   9.440   8.327   0.900 -5.1587 -1.9904  0.1821
  238MOL0     H32067   9.266   8.510   0.731 -0.8233  0.0789  1.5713
  238MOL0     H32068   9.289   8.340   0.710  1.1798  1.1699  0.0650
  238MOL0     H32069   9.169   8.308   0.952 -1.4539  0.0802 -0.4717
  238MOL0     H32070   9.126   8.481   0.931 -0.3459 -0.5044  0.1469
  238MOL0     H32071   9.034   8.406   0.709  0.2509  1.3531  1.3692
  238MOL0     H32072   9.059   8.234   0.757  0.3327  0.1321 -1.3236
  238MOL0     H32073   8.912   8.258   0.960  4.6096  1.8056  1.9629
  238MOL0     H32074   8.872   8.413   0.906  0.7986 -0.6435 -1.0832
  238MOL0     H32075   8.805   8.290   0.673 -0.8800  1.3660  0.7955
  238MOL0     H32076   8.797   8.141   0.771 -1.0644 -1.0935 -1.7393
  238MOL0     H32077   8.621   8.388   0.769 -1.1826 -1.1406 -2.4624
  238MOL0     H32078   8.590   8.220   0.767  1.7521 -0.2227 -2.0535
  238MOL0     H32079   8.668   8.384   1.014 -0.0622  0.7123 -1.0723
  238MOL0     H32080   8.660   8.209   1.010 -1.6615 -1.3066 -2.9221
  238MOL0     H32081   8.394   8.145   0.899  1.6544 -0.9010  1.2136
  238MOL0     H32082   8.166   8.093   0.975  2.6013 -0.2518  2.7791
  238MOL0     H32083   8.098   8.163   1.124  0.9938 -1.6448  0.2493
  238MOL0     H32084   8.091   8.276   0.849  4.2094 -1.7613  2.0768
  238MOL0     H32085   8.026   8.351   0.987  0.2013  1.0846 -2.5298
  238MOL0     H32086   7.917   8.071   0.896 -2.1200 -0.5365 -0.8969
  238MOL0     H32087   7.843   8.226   0.844 -3.3869 -0.5714  2.1262
  238MOL0     H32088   7.883   8.140   1.129 -0.8495  2.0898  1.3211
  238MOL0     H32089   7.745   8.096   1.037  0.3999  0.6437 -2.0310
  238MOL0     H32090   7.652   8.110   1.241 -2.0243 -2.2039  1.1776
  238MOL0     H32091   7.423   8.090   1.452  0.0350 -0.4796 -0.3044
  238MOL0     H32092   7.317   8.020   1.316  0.4163 -2.2800  1.0634
  238MOL0     H32093   7.483   7.982   1.335  0.8344  1.4901 -0.5051
  238MOL0     H32094   7.013   8.609   1.192 -1.3216 -0.4500 -0.9682
  238MOL0     H32095   6.799   8.647   1.269 -1.6770 -0.4066  1.0257
  238MOL0     H32096   6.542   8.285   1.279 -0.3196 -1.0474 -1.6815
  238MOL0     H32097   6.424   8.410   1.312 -0.7455  2.0550 -1.2550
  238MOL0     H32098   6.614   8.441   1.071 -1.0747  0.9634 -2.8960
  238MOL0     H32099   6.450   8.357   1.065 -0.7499  0.0334  0.7639
  238MOL0     H32100   6.525   8.641   1.148 -0.4556 -0.3303 -1.0087
  238MOL0     H32101   6.351   8.587   1.162 -0.7628  0.4803  0.0170
  238MOL0     H32102   6.502   8.643   0.900 -1.4366  3.5393 -1.9268
  238MOL0     H32103   6.357   8.539   0.925  4.5809 -2.1525 -3.8993
  238MOL0     H32104   6.256   8.746   1.016  0.5672 -4.6690  0.8050
  238MOL0     H32105   6.309   8.770   0.845  3.5087  0.2088 -0.4550
  238MOL0     H32106   6.348   8.960   0.997  1.7386  1.7068  0.2945
  238MOL0     H32107   6.465   8.861   1.084  1.7312  0.4102 -0.0147
  238MOL0     H32108   6.468   8.962   0.803 -0.4215 -1.0856 -0.0896
  238MOL0     H32109   6.554   8.816   0.831  0.0084 -0.0527 -1.0792
  238MOL0     H32110   6.696   8.927   1.023 -0.4739  0.3352  1.0149
  238MOL0     H32111   6.623   9.078   0.984  2.1022  0.9435  0.2024
  238MOL0     H32112   6.736   8.231   1.321  0.2779  0.4429  1.0096
  238MOL0     H32113   6.980   8.188   1.266  0.6554  0.3891 -0.9765
  238MOL0     H32114   7.366   8.496   1.131 -2.6477 -0.1731  2.4202
  238MOL0     H32115   7.607   8.488   1.069 -1.0087  0.8046  0.5048
  238MOL0     H32116   9.376   8.768   1.041  0.2193  1.1393 -2.5812
  238MOL0     H32117   9.545   8.928   1.077  3.1528  0.6888  2.0545
  238MOL0     H32118   9.931   8.979   1.201  2.8749 -0.2564  1.8832
  238MOL0     H32119  10.056   9.126   1.313 -2.0861 -3.0007 -0.4476
  238MOL0     H32120  10.256   9.401   1.047  0.5834  3.3532 -0.3229
  238MOL0     H32121  10.266   9.522   1.157  1.0397 -0.5274 -0.8592
  238MOL0     H32122  10.448   9.301   1.111 -0.6793  1.2171 -1.1712
  238MOL0     H32123  10.388   9.286   1.282  0.3578  0.9804  1.0468
  238MOL0     H32124  10.462   9.558   1.240 -0.0301  0.6248 -5.5947
  238MOL0     H32125  10.571   9.465   1.133 -2.2470  1.7197 -1.5737
  238MOL0     H32126  10.641   9.334   1.342  1.9815  0.0407 -0.0447
  238MOL0     H32127  10.550   9.463   1.428 -0.4970  4.1671 -1.3244
  238MOL0     H32128  10.898   9.660   1.385  1.1174 -0.7863 -1.0436
  238MOL0     H32129  10.043   9.405   0.972  2.7350  0.7426 -0.1362
  238MOL0     H32130   9.875   9.256   0.876 -2.2619 -0.0434  1.3275
  239MOL0     O32131   4.828   5.101   9.812  0.3866  0.0701  0.7410
  239MOL0     C32132   4.891   5.003   9.778 -0.1535  0.2127 -0.3004
  239MOL0     O32133   4.841   4.881   9.749  0.1026 -0.5044  0.3245
  239MOL0     C32134   4.717   4.848   9.797  0.1376 -0.4900 -0.1379
  239MOL0     C32135   4.599   4.893   9.740  0.6082 -0.0212 -0.1176
  239MOL0     C32136   4.482   4.833   9.782  0.5264  0.5207  0.3773
  239MOL0     C32137   4.477   4.729   9.889  0.8166 -0.5491 -0.4457
  239MOL0     O32138   4.365   4.675   9.951 -0.5723 -0.5606 -0.9906
  239MOL0     C32139   4.240   4.699   9.891 -0.2043  0.5468 -0.3841
  239MOL0     C32140   4.127   4.594   9.922 -0.3460  0.9149 -0.1656
  239MOL0     C32141   3.997   4.658   9.878 -0.1340 -0.2474  0.2741
  239MOL0     C32142   3.868   4.572   9.905 -0.4048  0.3997  0.5118
  239MOL0     C32143   3.876   4.458   9.795  0.3326  0.7845  0.3700
  239MOL0     C32144   3.752   4.377   9.763 -0.2298  1.0228 -0.2697
  239MOL0     C32145   3.626   4.447   9.707 -0.4081  0.2946 -0.0035
  239MOL0     C32146   3.511   4.344   9.674  0.4594 -0.7747  0.4021
  239MOL0     N32147   3.396   4.419   9.622  0.3967 -1.0501 -0.3416
  239MOL0     C32148   3.294   4.458   9.709 -0.1839 -0.5744 -0.6472
  239MOL0     C32149   3.187   4.480   9.639  0.2147  0.2252  0.3730
  239MOL0     C32150   3.067   4.529   9.697  0.3028 -0.5181 -0.5732
  239MOL0     C32151   3.044   4.497   9.849 -0.2401  0.1220 -0.5797
  239MOL0     C32152   2.896   4.497   9.882 -0.0426  0.3285  0.7000
  239MOL0     C32153   2.845   4.354   9.865  0.0860 -0.3451 -0.1173
  239MOL0     O32154   2.721   4.337   9.929  0.5335 -0.5057  0.3317
  239MOL0     C32155   2.613   4.402   9.859 -0.4705  0.6464 -0.8631
  239MOL0     C32156   2.601   4.476   9.741 -0.0903 -0.5409  0.0863
  239MOL0     C32157   2.484   4.526   9.693  0.0346 -0.6720  0.1446
  239MOL0     C32158   2.493   4.619   9.566  1.2405  1.1100 -0.1175
  239MOL0     C32159   2.372   4.514   9.774 -0.1624  0.1001 -0.2542
  239MOL0     C32160   2.238   4.576   9.760 -0.4836  0.8115  0.4299
  239MOL0     O32161   2.139   4.553   9.850 -0.3309  0.0160 -0.2375
  239MOL0     C32162   2.026   4.629   9.858 -0.9739 -0.2815  0.0560
  239MOL0     C32163   2.026   4.765   9.907  0.0347  0.5799  0.5777
  239MOL0     C32164   1.918   4.853   9.904 -0.7383  0.2518  0.1555
  239MOL0     C32165   1.797   4.806   9.858  0.0574 -0.1441  0.5794
  239MOL0     O32166   1.678   4.879   9.845 -0.2352  0.2443  0.7785
  239MOL0     C32167   1.671   5.018   9.889 -0.2196  0.4622  0.3179
  239MOL0     C32168   1.571   5.090   9.799  0.0274 -0.1802  0.4947
  239MOL0     C32169   1.570   5.245   9.824  0.1744  0.5226  0.9380
  239MOL0     C32170   1.473   5.320   9.735 -0.4165 -0.2244 -0.6843
  239MOL0     C32171   1.491   5.467   9.767  0.9427  0.3615 -0.6492
  239MOL0     C32172   1.382   5.570   9.730 -0.0318  0.1508  0.6409
  239MOL0     C32173   1.321   5.532   9.594  0.9281  0.2572 -0.2842
  239MOL0     C32174   1.404   5.516   9.467  0.5435  0.2662  0.1535
  239MOL0    Cl32175   1.514   5.658   9.448 -0.4683 -0.1617 -0.0503
  239MOL0     C32176   1.797   4.675   9.809 -0.2026  0.7032 -0.4731
  239MOL0     C32177   1.904   4.590   9.814  0.4780  0.4830  0.6369
  239MOL0     O32178   2.226   4.644   9.659 -0.2372 -1.0111  0.1582
  239MOL0     C32179   2.383   4.434   9.889  0.0340 -0.0797 -0.5920
  239MOL0     C32180   2.497   4.375   9.927  0.0229  0.4912 -0.1021
  239MOL0     N32181   3.218   4.447   9.509  0.0780  0.2842  0.3474
  239MOL0     N32182   3.342   4.410   9.499  0.3333 -0.8698 -0.5968
  239MOL0     C32183   4.595   4.703   9.951 -1.1933  0.0116  0.0467
  239MOL0     C32184   4.720   4.755   9.896  0.1227  0.5008  0.5277
  239MOL0     C32185   5.037   5.012   9.753  0.2938 -0.1141 -0.4306
  239MOL0     C32186   5.111   5.116   9.823 -0.0105 -0.5400 -0.4338
  239MOL0     C32187   5.253   5.120   9.818  0.4492 -0.3412  0.7147
  239MOL0     C32188   5.321   5.030   9.747 -0.3328  0.4839  0.2052
  239MOL0     O32189   5.457   5.032   9.755 -0.2086 -0.7537  0.2767
  239MOL0     C32190   5.542   4.940   9.690  0.0191  0.2904 -0.1055
  239MOL0     C32191   5.692   4.965   9.735  0.2372 -0.0113  0.8275
  239MOL0     C32192   5.750   5.070   9.646  0.6297 -0.8258  0.1145
  239MOL0     C32193   5.896   5.096   9.677 -0.1868  0.8022  0.0206
  239MOL0     C32194   5.909   5.176   9.801  0.8604  0.0183  1.7529
  239MOL0     C32195   5.920   5.232   9.902  0.7154 -0.1982 -0.6640
  239MOL0     C32196   5.251   4.930   9.677 -1.0238  0.1239  0.2179
  239MOL0     C32197   5.113   4.924   9.677  0.1632 -0.6104 -0.3045
  239MOL0     H32198   4.594   4.965   9.659 -2.5709 -0.8603 -0.7825
  239MOL0     H32199   4.390   4.867   9.735 -0.4728 -3.4789 -0.9483
  239MOL0     H32200   4.205   4.793   9.933  2.4382  1.2408  0.4635
  239MOL0     H32201   4.242   4.707   9.782 -0.9707 -1.9568 -0.6553
  239MOL0     H32202   4.146   4.500   9.869  0.2505  0.2027  1.2558
  239MOL0     H32203   4.130   4.576  10.030  3.2486 -0.2466 -0.3381
  239MOL0     H32204   3.974   4.742   9.944 -2.9222 -0.9191  0.2814
  239MOL0     H32205   4.004   4.689   9.773 -0.4384  0.6718  0.5104
  239MOL0     H32206   3.865   4.532  10.007 -0.2531  2.5889  1.4226
  239MOL0     H32207   3.772   4.622   9.886 -0.1466  0.6041 -0.2852
  239MOL0     H32208   3.907   4.500   9.699 -4.6022 -1.7367 -2.7519
  239MOL0     H32209   3.954   4.391   9.832  0.0356  1.0438  1.5247
  239MOL0     H32210   3.784   4.302   9.690  2.0058  2.6472 -1.0943
  239MOL0     H32211   3.722   4.325   9.854  1.2101  0.6937  0.0504
  239MOL0     H32212   3.593   4.518   9.784  0.2017  1.0370 -0.4083
  239MOL0     H32213   3.646   4.499   9.613 -3.3466 -1.3049 -1.6421
  239MOL0     H32214   3.490   4.293   9.768  2.5610  0.0874  1.3769
  239MOL0     H32215   3.544   4.268   9.602 -2.1417 -2.3537  0.6997
  239MOL0     H32216   3.311   4.491   9.811 -0.4159  0.8044 -1.0336
  239MOL0     H32217   3.079   4.638   9.690  0.9765 -0.5442  0.1174
  239MOL0     H32218   2.976   4.498   9.644 -2.0991  1.3464  2.1053
  239MOL0     H32219   3.088   4.579   9.906  0.1098  0.9134 -1.9316
  239MOL0     H32220   3.096   4.404   9.872 -1.3140 -0.7186 -1.4037
  239MOL0     H32221   2.844   4.568   9.817  3.0463  2.3433  0.2429
  239MOL0     H32222   2.896   4.530   9.987  0.8284 -1.1905  1.2038
  239MOL0     H32223   2.916   4.280   9.904  2.9948  1.9806 -0.6716
  239MOL0     H32224   2.835   4.333   9.758  0.5554 -1.6273  0.0663
  239MOL0     H32225   2.688   4.493   9.678  0.0490  0.0987  0.4350
  239MOL0     H32226   2.587   4.611   9.512 -1.4612 -2.3911 -5.2179
  239MOL0     H32227   2.411   4.599   9.495  1.5380 -1.6736  0.2177
  239MOL0     H32228   2.481   4.722   9.600 -3.1593  0.9733 -0.6439
  239MOL0     H32229   2.126   4.788   9.941  0.6392 -1.1390  0.0619
  239MOL0     H32230   1.929   4.955   9.940 -1.3916 -0.3281  2.1042
  239MOL0     H32231   1.624   5.016   9.988 -2.7223 -1.7140 -0.7915
  239MOL0     H32232   1.761   5.080   9.886  1.1898 -1.3103 -4.6634
  239MOL0     H32233   1.589   5.062   9.694  1.2677 -4.7125  1.6997
  239MOL0     H32234   1.472   5.051   9.826 -1.8722  2.4507 -1.9773
  239MOL0     H32235   1.668   5.283   9.795  0.0446  0.8635  0.9357
  239MOL0     H32236   1.535   5.262   9.927  2.1126  1.8887  1.4180
  239MOL0     H32237   1.489   5.305   9.628  2.4420  2.5122 -0.7988
  239MOL0     H32238   1.374   5.281   9.759 -0.5004  0.4858  0.1827
  239MOL0     H32239   1.593   5.492   9.738  1.8613 -0.3631  1.7195
  239MOL0     H32240   1.495   5.462   9.876  0.1247 -0.2106 -0.6312
  239MOL0     H32241   1.306   5.569   9.808  0.5401 -1.2780  1.2094
  239MOL0     H32242   1.407   5.676   9.717  0.1385  0.2554  1.7500
  239MOL0     H32243   1.249   5.609   9.564  2.7283  1.9197 -0.4937
  239MOL0     H32244   1.265   5.438   9.605  1.3459  0.1122  0.7360
  239MOL0     H32245   1.330   5.518   9.387 -0.4918 -2.5484  0.9359
  239MOL0     H32246   1.454   5.419   9.459 -0.7615 -0.4068 -0.0515
  239MOL0     H32247   1.709   4.630   9.764  1.3453 -2.3860 -0.7180
  239MOL0     H32248   1.890   4.490   9.774  2.3649  0.2075  0.5833
  239MOL0     H32249   2.296   4.411   9.950  0.8833  1.0845  1.1270
  239MOL0     H32250   2.501   4.306  10.011  1.0436  1.0908  0.3559
  239MOL0     H32251   4.600   4.636  10.036  0.8596 -1.0624 -0.8437
  239MOL0     H32252   4.814   4.724   9.940 -1.1305  1.6488  4.3846
  239MOL0     H32253   5.057   5.187   9.883 -0.0873 -0.6315 -0.3946
  239MOL0     H32254   5.308   5.201   9.865  2.4853 -1.6613  0.7372
  239MOL0     H32255   5.522   4.834   9.709  0.2698  0.4099  0.8890
  239MOL0     H32256   5.536   4.955   9.582 -1.4363 -0.9253 -0.2335
  239MOL0     H32257   5.751   4.878   9.705  1.7547  1.0407  0.6712
  239MOL0     H32258   5.696   4.990   9.842 -0.7378  1.0615  0.6358
  239MOL0     H32259   5.691   5.159   9.670 -1.2470 -2.3312  1.3706
  239MOL0     H32260   5.727   5.054   9.540 -2.1191  2.3966  0.0478
  239MOL0     H32261   5.935   5.160   9.597 -0.0380 -0.0687 -0.6224
  239MOL0     H32262   5.956   5.005   9.685  0.4892  1.4183  5.0050
  239MOL0     H32263   5.928   5.294   9.989 -2.2860  0.4796 -0.7672
  239MOL0     H32264   5.290   4.851   9.613 -1.3766  1.7815 -2.1845
  239MOL0     H32265   5.065   4.856   9.607  2.5082 -2.0456 -0.6153
  240MOL0     O32266   5.693   4.322  10.797 -0.1016  0.0462 -0.2156
  240MOL0     C32267   5.761   4.395  10.725  0.1715  0.0708 -1.0147
  240MOL0     O32268   5.725   4.446  10.602 -0.3560  0.6223  0.6954
  240MOL0     C32269   5.595   4.441  10.554  0.0375  0.4091 -0.4510
  240MOL0     C32270   5.589   4.428  10.414  0.7734  0.4231  0.4061
  240MOL0     C32271   5.465   4.425  10.352  0.5473 -0.0762 -0.0481
  240MOL0     C32272   5.345   4.430  10.427  0.0485 -0.5797 -0.3076
  240MOL0     O32273   5.218   4.418  10.377 -0.4547  0.1069 -0.1012
  240MOL0     C32274   5.190   4.514  10.276 -0.3154 -0.4874  0.4212
  240MOL0     C32275   5.065   4.583  10.297  0.3000  0.4742 -0.0776
  240MOL0     C32276   4.938   4.497  10.302 -0.2022 -0.0111 -0.4084
  240MOL0     C32277   4.830   4.589  10.347  0.3813  0.5657  0.0940
  240MOL0     C32278   4.685   4.545  10.318  1.2971 -0.1284 -0.8008
  240MOL0     C32279   4.575   4.657  10.326  0.5522 -0.1401  0.1290
  240MOL0     C32280   4.437   4.607  10.283 -0.8405  0.8126  0.9909
  240MOL0     C32281   4.346   4.731  10.266  0.9540  0.0214 -1.4310
  240MOL0     N32282   4.321   4.796  10.395  0.6695  0.0518  0.1426
  240MOL0     C32283   4.250   4.744  10.506 -0.9112  0.1591  0.1244
  240MOL0     C32284   4.251   4.845  10.597 -1.0912 -0.2949 -0.4113
  240MOL0     C32285   4.181   4.840  10.733 -0.1756 -0.3050  0.3689
  240MOL0     C32286   4.194   4.978  10.812 -0.0340  0.6597 -0.0911
  240MOL0     C32287   4.150   4.969  10.955  0.1191 -0.5000 -0.4130
  240MOL0     C32288   4.025   4.893  10.995  0.6862 -0.7083  0.3322
  240MOL0     O32289   3.906   4.934  10.903  0.0256  0.6684 -0.3951
  240MOL0     C32290   3.782   4.887  10.945 -0.4177  0.2273  0.3823
  240MOL0     C32291   3.769   4.779  11.030 -0.7481  0.2306 -0.3736
  240MOL0     C32292   3.642   4.725  11.064  0.1132 -0.4106 -0.1846
  240MOL0     C32293   3.633   4.606  11.155 -0.5617  0.7116  0.2444
  240MOL0     C32294   3.525   4.786  11.001  0.3884  0.0429 -0.4898
  240MOL0     C32295   3.383   4.735  11.015  0.7370  0.6233  0.3460
  240MOL0     O32296   3.282   4.801  10.959 -0.3230 -0.7438 -0.0503
  240MOL0     C32297   3.150   4.768  10.966  0.8323  0.5968 -0.1410
  240MOL0     C32298   3.060   4.804  10.864 -0.1689  0.3597  0.5832
  240MOL0     C32299   2.925   4.764  10.857 -0.2985 -0.3548 -0.1150
  240MOL0     C32300   2.882   4.692  10.973 -0.2010  1.0869  0.0438
  240MOL0     O32301   2.754   4.651  10.962  0.1939  0.6064 -0.2201
  240MOL0     C32302   2.677   4.632  11.086  0.0571  0.3721 -0.6614
  240MOL0     C32303   2.538   4.584  11.062  0.3467 -0.0019 -0.2590
  240MOL0     C32304   2.522   4.443  11.105  0.7989  0.0590 -0.1966
  240MOL0     C32305   2.387   4.393  11.076  0.3303  0.3098  0.2568
  240MOL0     C32306   2.404   4.242  11.042 -0.2874 -0.1576  0.0960
  240MOL0     C32307   2.476   4.214  10.904 -1.1270 -0.1285 -0.6672
  240MOL0     C32308   2.544   4.079  10.888  0.4341 -0.4006 -0.0285
  240MOL0     C32309   2.467   3.960  10.956 -0.8719  0.2116 -0.2178
  240MOL0    Cl32310   2.291   3.966  10.930  0.0752  0.1074 -0.2252
  240MOL0     C32311   2.966   4.660  11.082 -0.5745 -0.2246  0.0158
  240MOL0     C32312   3.103   4.688  11.074  0.1220  0.0189 -0.0688
  240MOL0     O32313   3.376   4.623  11.061 -0.0761  0.1401  0.7366
  240MOL0     C32314   3.543   4.894  10.917 -0.2840 -0.0141  0.6512
  240MOL0     C32315   3.670   4.944  10.891  0.0114  0.2065 -0.0337
  240MOL0     N32316   4.318   4.950  10.539  0.2827  0.0416 -0.2759
  240MOL0     N32317   4.360   4.917  10.429 -0.6151  0.1603  1.4224
  240MOL0     C32318   5.355   4.440  10.566  0.0225  0.1892 -0.5560
  240MOL0     C32319   5.478   4.449  10.633 -0.3895  1.4540  0.1821
  240MOL0     C32320   5.896   4.411  10.767  0.2683 -0.5443 -0.4423
  240MOL0     C32321   5.980   4.497  10.694 -0.3408  0.7594 -0.5869
  240MOL0     C32322   6.119   4.487  10.732  0.2146  0.1345  1.2577
  240MOL0     C32323   6.171   4.404  10.833  0.4409 -0.2450 -0.1950
  240MOL0     O32324   6.305   4.383  10.860  0.7717 -0.2828  0.0678
  240MOL0     C32325   6.350   4.298  10.963  0.3724  0.0548  0.2276
  240MOL0     C32326   6.340   4.154  10.936 -0.2917 -0.9446 -0.2941
  240MOL0     C32327   6.447   4.110  10.842  0.4173  0.6670  0.1694
  240MOL0     C32328   6.421   3.969  10.794  0.1200 -0.4070 -0.4123
  240MOL0     C32329   6.422   3.869  10.902 -0.0646 -0.2827 -0.3339
  240MOL0     C32330   6.428   3.766  10.966  0.0831 -0.6776 -0.0168
  240MOL0     C32331   6.078   4.343  10.915 -0.0665  1.4413 -0.8594
  240MOL0     C32332   5.948   4.330  10.869 -0.6345 -0.3601 -0.1161
  240MOL0     H32333   5.681   4.410  10.359  0.7452 -1.2619  0.8355
  240MOL0     H32334   5.460   4.427  10.244 -4.5587 -0.8054 -0.0636
  240MOL0     H32335   5.266   4.592  10.288 -0.0786 -0.9559  2.4351
  240MOL0     H32336   5.195   4.461  10.181 -3.0791 -2.3621  1.2170
  240MOL0     H32337   5.086   4.631  10.393  0.8153 -1.4249  0.8041
  240MOL0     H32338   5.055   4.662  10.222  1.1417  0.1527 -0.5538
  240MOL0     H32339   4.926   4.465  10.198 -1.3815  1.1264 -0.6535
  240MOL0     H32340   4.942   4.406  10.362  1.7464  1.0958  1.2563
  240MOL0     H32341   4.847   4.613  10.453 -1.0857 -0.1325  0.5150
  240MOL0     H32342   4.829   4.683  10.290 -0.8702  0.7797  0.4211
  240MOL0     H32343   4.683   4.506  10.216 -1.8382 -3.1928  0.2082
  240MOL0     H32344   4.651   4.467  10.387  1.1473  1.4721  0.9937
  240MOL0     H32345   4.578   4.680  10.433 -0.6144 -3.8913  1.1032
  240MOL0     H32346   4.606   4.740  10.261 -2.2365  0.3029 -0.7781
  240MOL0     H32347   4.448   4.554  10.188 -0.2526  4.6731 -1.2998
  240MOL0     H32348   4.401   4.540  10.361 -2.8800  0.2401 -0.3552
  240MOL0     H32349   4.245   4.704  10.234 -0.1297  1.6970  0.3586
  240MOL0     H32350   4.392   4.804  10.199 -1.6453  2.4848 -0.7168
  240MOL0     H32351   4.202   4.648  10.525  0.2864 -0.3850  0.4807
  240MOL0     H32352   4.075   4.824  10.713 -0.6569  2.5294  0.2322
  240MOL0     H32353   4.225   4.754  10.786 -0.7571 -0.8171  0.0303
  240MOL0     H32354   4.141   5.055  10.755  0.1195  0.1988 -0.8830
  240MOL0     H32355   4.300   5.003  10.813  1.6767 -4.7097 -3.3916
  240MOL0     H32356   4.121   5.070  10.983  0.9862 -0.1891 -0.5879
  240MOL0     H32357   4.225   4.925  11.022 -3.3613 -3.1748  2.1462
  240MOL0     H32358   4.006   4.915  11.101  2.5826  0.2029  0.5261
  240MOL0     H32359   4.051   4.787  10.986  0.7227 -0.8191  1.5274
  240MOL0     H32360   3.850   4.719  11.072 -2.3005 -1.2633  0.6473
  240MOL0     H32361   3.734   4.581  11.189  0.4061 -0.6120 -3.1481
  240MOL0     H32362   3.561   4.614  11.236  2.6421 -1.7210  3.6452
  240MOL0     H32363   3.595   4.522  11.096 -1.4992  1.1380  0.2143
  240MOL0     H32364   3.092   4.865  10.780  1.7341 -0.8628  0.3448
  240MOL0     H32365   2.857   4.799  10.780  0.5283 -2.1454 -1.7432
  240MOL0     H32366   2.731   4.561  11.149 -1.1423 -1.1663 -1.3033
  240MOL0     H32367   2.675   4.731  11.132 -0.1079 -0.5501  1.4475
  240MOL0     H32368   2.483   4.652  11.128  0.2697  2.7217 -2.9269
  240MOL0     H32369   2.510   4.597  10.957  0.1159  0.0774 -0.1891
  240MOL0     H32370   2.533   4.449  11.214 -3.1295 -1.9266  0.5009
  240MOL0     H32371   2.600   4.376  11.068  0.5035 -2.3089  2.9710
  240MOL0     H32372   2.320   4.416  11.159 -2.2144  0.7343 -1.7827
  240MOL0     H32373   2.349   4.422  10.978 -2.5796 -0.2054  1.1411
  240MOL0     H32374   2.303   4.200  11.032 -1.0420  2.0957 -4.1962
  240MOL0     H32375   2.458   4.197  11.126  1.6570  3.7204  1.1453
  240MOL0     H32376   2.403   4.232  10.824 -3.0140 -0.3354  0.9440
  240MOL0     H32377   2.549   4.294  10.886  0.0145 -0.6001  1.5409
  240MOL0     H32378   2.648   4.087  10.922  0.0954 -1.2912  1.2724
  240MOL0     H32379   2.536   4.049  10.783  4.6970 -0.5531 -0.5118
  240MOL0     H32380   2.482   3.941  11.063  3.1317  0.7661 -0.5213
  240MOL0     H32381   2.499   3.865  10.911 -2.8583 -2.7214  3.8803
  240MOL0     H32382   2.923   4.600  11.162  0.7122 -0.6946  0.3781
  240MOL0     H32383   3.179   4.674  11.150  1.5008 -1.1639 -1.6262
  240MOL0     H32384   3.465   4.943  10.860  0.9760  4.0650  2.1323
  240MOL0     H32385   3.689   5.035  10.835 -0.6400  0.9588  0.9474
  240MOL0     H32386   5.265   4.444  10.628  2.6710 -1.3252  3.8468
  240MOL0     H32387   5.482   4.460  10.741  3.6811 -2.3441  0.7024
  240MOL0     H32388   5.958   4.563  10.611  2.3648  3.7721  0.8535
  240MOL0     H32389   6.194   4.551  10.685 -0.6986  0.2964 -0.0493
  240MOL0     H32390   6.457   4.313  10.973  0.2912  1.7170 -1.0462
  240MOL0     H32391   6.301   4.319  11.059  0.3912  0.3204  0.1775
  240MOL0     H32392   6.242   4.132  10.893 -0.5054  1.6660 -1.2996
  240MOL0     H32393   6.353   4.095  11.027  0.4204 -0.5500 -0.1338
  240MOL0     H32394   6.548   4.109  10.883 -0.0298 -2.6306  1.4849
  240MOL0     H32395   6.441   4.162  10.746 -1.2049 -3.3040 -2.1258
  240MOL0     H32396   6.507   3.941  10.732  2.4808  0.8922  2.0397
  240MOL0     H32397   6.329   3.966  10.735 -0.6133  1.7690  0.5191
  240MOL0     H32398   6.436   3.685  11.036  0.7871 -1.9080 -1.4426
  240MOL0     H32399   6.101   4.266  10.989 -0.4160  1.5617 -0.6214
  240MOL0     H32400   5.880   4.269  10.927 -2.0901  2.0042  0.8059
  241MOL0     O32401   3.169  11.237   4.588  0.2294 -0.2883  0.6592
  241MOL0     C32402   3.207  11.127   4.630 -0.2853  0.5225  0.5021
  241MOL0     O32403   3.126  11.023   4.685  0.4852  0.4872  0.2086
  241MOL0     C32404   2.992  11.050   4.678  0.1005 -0.3121 -0.3824
  241MOL0     C32405   2.907  10.971   4.595 -1.1175  0.4166  0.2178
  241MOL0     C32406   2.770  10.997   4.590  0.7368 -0.2659 -0.4014
  241MOL0     C32407   2.706  11.103   4.661  0.4154 -0.0324  0.8527
  241MOL0     O32408   2.570  11.129   4.647  1.1523 -0.0043  0.1514
  241MOL0     C32409   2.469  11.034   4.610 -0.0266 -0.3869  0.0784
  241MOL0     C32410   2.345  11.081   4.684 -0.3471  0.1377  0.8759
  241MOL0     C32411   2.264  10.969   4.746  0.0808 -1.0021 -0.4937
  241MOL0     C32412   2.140  11.027   4.812  0.3423 -0.1746 -0.4821
  241MOL0     C32413   2.029  11.071   4.713  0.4743  0.2321  0.1317
  241MOL0     C32414   1.948  11.177   4.779  0.6786 -0.1610  0.4187
  241MOL0     C32415   1.802  11.182   4.722 -0.3323 -1.1417 -0.4293
  241MOL0     C32416   1.782  11.284   4.614  0.2985 -0.0806  0.2445
  241MOL0     N32417   1.653  11.339   4.638  0.7683 -0.6509 -0.2841
  241MOL0     C32418   1.526  11.293   4.597  0.9280  0.1396  0.5518
  241MOL0     C32419   1.432  11.362   4.653 -0.5727 -0.2343 -0.3790
  241MOL0     C32420   1.286  11.341   4.644  0.4582 -0.2710  0.6186
  241MOL0     C32421   1.196  11.365   4.769 -0.5091 -0.1909 -0.2580
  241MOL0     C32422   1.055  11.319   4.732  0.6120 -0.3655 -0.4447
  241MOL0     C32423   0.965  11.329   4.851 -0.2942 -0.7393 -0.4655
  241MOL0     O32424   0.833  11.291   4.806  0.0808 -0.2132  0.5892
  241MOL0     C32425   0.729  11.357   4.867  0.3842  0.5898 -0.0898
  241MOL0     C32426   0.605  11.374   4.800 -0.4433 -0.5590 -0.7077
  241MOL0     C32427   0.489  11.433   4.848  0.8262  0.4483 -0.8387
  241MOL0     C32428   0.358  11.405   4.771  0.2627 -0.0605 -0.2549
  241MOL0     C32429   0.502  11.500   4.969  0.1281 -0.4927 -0.8804
  241MOL0     C32430   0.395  11.588   5.030 -0.0357  0.2702 -0.2160
  241MOL0     O32431   0.426  11.646   5.145  0.0172 -0.7454 -0.5581
  241MOL0     C32432   0.321  11.662   5.229 -0.5240  0.2302 -0.0006
  241MOL0     C32433   0.212  11.745   5.204  0.4406  0.2489 -0.5615
  241MOL0     C32434   0.113  11.763   5.306  0.1654 -0.2240  1.5221
  241MOL0     C32435   0.113  11.669   5.408  0.0167 -0.1078 -0.7668
  241MOL0     O32436   0.015  11.652   5.504 -0.3353 -0.0903  0.4789
  241MOL0     C32437  -0.077  11.763   5.519  0.2015  0.7110  0.6659
  241MOL0     C32438  -0.189  11.708   5.605 -0.1744  1.2015  0.0369
  241MOL0     C32439  -0.308  11.797   5.608  0.2343 -0.1350 -0.1012
  241MOL0     C32440  -0.427  11.736   5.690 -0.2336  0.4911  0.1685
  241MOL0     C32441  -0.387  11.702   5.838  2.1653  0.5238 -0.3465
  241MOL0     C32442  -0.516  11.672   5.919 -0.8303  0.3271 -0.6538
  241MOL0     C32443  -0.489  11.637   6.064  0.3916  0.2956  0.2070
  241MOL0     C32444  -0.625  11.654   6.141 -0.0570  0.1689  0.4857
  241MOL0    Cl32445  -0.783  11.585   6.076  0.4853  0.2103  0.3292
  241MOL0     C32446   0.221  11.577   5.431  0.2735 -0.2654 -0.2193
  241MOL0     C32447   0.329  11.577   5.337 -0.3118 -0.4854 -0.3065
  241MOL0     O32448   0.301  11.622   4.956 -0.3185  0.7737  0.6257
  241MOL0     C32449   0.629  11.489   5.042 -0.1676  0.3931 -0.6140
  241MOL0     C32450   0.733  11.409   4.993  0.1170  0.2817  0.5092
  241MOL0     N32451   1.498  11.452   4.734 -1.0263  0.7451  0.5529
  241MOL0     N32452   1.627  11.440   4.722 -0.4705 -0.1555  0.0291
  241MOL0     C32453   2.786  11.189   4.732 -0.6520 -0.4465  0.7934
  241MOL0     C32454   2.932  11.160   4.744  0.1842 -0.8639  0.3211
  241MOL0     C32455   3.353  11.085   4.617  0.0479  0.2595  0.1105
  241MOL0     C32456   3.447  11.168   4.556  1.1561 -0.1690  0.2066
  241MOL0     C32457   3.585  11.137   4.564  0.6997  0.1275 -0.4504
  241MOL0     C32458   3.638  11.023   4.624 -0.0029 -1.0593 -0.1067
  241MOL0     O32459   3.769  10.994   4.637 -0.6684 -0.0815  0.3835
  241MOL0     C32460   3.876  11.088   4.620 -0.1192 -0.1715 -0.0662
  241MOL0     C32461   3.887  11.184   4.739 -0.1870 -0.1988 -0.2577
  241MOL0     C32462   3.920  11.121   4.873 -0.0630  0.0065  0.1476
  241MOL0     C32463   3.939  11.229   4.982  0.6579 -0.3585 -1.0098
  241MOL0     C32464   3.912  11.200   5.119  0.8089  0.6230  0.1944
  241MOL0     C32465   3.905  11.179   5.231  0.6653 -0.2356 -0.0718
  241MOL0     C32466   3.546  10.944   4.694  0.3906 -0.0438 -0.4782
  241MOL0     C32467   3.399  10.973   4.688 -0.0056  0.3290  0.4668
  241MOL0     H32468   2.944  10.884   4.542  2.4056  1.8465  0.0265
  241MOL0     H32469   2.718  10.934   4.518  1.4206 -0.1793 -0.9857
  241MOL0     H32470   2.449  11.040   4.503  0.9242  0.6777 -0.0625
  241MOL0     H32471   2.490  10.934   4.648 -1.4915 -0.4569  0.7502
  241MOL0     H32472   2.368  11.159   4.758  1.5054 -2.4661  3.2937
  241MOL0     H32473   2.277  11.124   4.610 -2.4415 -0.3960  2.3951
  241MOL0     H32474   2.235  10.892   4.675  1.8649 -1.6998 -0.5299
  241MOL0     H32475   2.324  10.923   4.825  0.5526 -1.1744 -0.9437
  241MOL0     H32476   2.098  10.971   4.896 -0.8969  1.9106  0.3583
  241MOL0     H32477   2.182  11.112   4.865  1.3317 -0.5623 -0.6184
  241MOL0     H32478   2.060  11.110   4.616  2.2033 -1.2611  0.0238
  241MOL0     H32479   1.969  10.981   4.696 -1.1299  1.2283  0.3630
  241MOL0     H32480   1.946  11.146   4.883 -0.1803  1.1057  0.7995
  241MOL0     H32481   1.996  11.275   4.772  3.1480 -1.2821  0.3366
  241MOL0     H32482   1.777  11.086   4.676  0.5982 -3.3476  3.2339
  241MOL0     H32483   1.730  11.191   4.804  3.0440  1.6638  2.6307
  241MOL0     H32484   1.776  11.230   4.519 -1.3826 -0.4592  0.5272
  241MOL0     H32485   1.862  11.357   4.608 -0.3688  0.6250 -0.2439
  241MOL0     H32486   1.508  11.210   4.529  0.8190 -0.1754  0.9627
  241MOL0     H32487   1.251  11.409   4.566 -0.9744 -2.3844 -0.6874
  241MOL0     H32488   1.265  11.240   4.606  2.0820 -0.4306  0.0995
  241MOL0     H32489   1.199  11.469   4.803  0.0630 -0.8981  1.9715
  241MOL0     H32490   1.229  11.298   4.848  1.6469 -1.2606 -1.9739
  241MOL0     H32491   1.055  11.211   4.713  0.1841 -0.6859  1.1462
  241MOL0     H32492   1.023  11.371   4.642  1.1288 -0.4762 -0.6953
  241MOL0     H32493   0.952  11.432   4.886 -1.0559 -1.3636  1.2120
  241MOL0     H32494   0.999  11.271   4.937 -1.5734  1.3229  1.5284
  241MOL0     H32495   0.595  11.340   4.698  1.4271 -0.2261 -1.0346
  241MOL0     H32496   0.283  11.392   4.849 -0.4765  1.7614 -0.6144
  241MOL0     H32497   0.331  11.487   4.704  0.4600 -1.1592 -1.7410
  241MOL0     H32498   0.367  11.315   4.709  0.8101 -1.0045  1.1378
  241MOL0     H32499   0.206  11.813   5.119 -0.6519  0.7485 -0.1082
  241MOL0     H32500   0.033  11.833   5.285  0.8037  0.2274  0.5393
  241MOL0     H32501  -0.035  11.844   5.579 -2.8491  2.8906  0.1464
  241MOL0     H32502  -0.120  11.799   5.425  2.1815 -1.5799 -1.2588
  241MOL0     H32503  -0.211  11.603   5.584  2.8835  0.3655  0.5430
  241MOL0     H32504  -0.138  11.717   5.701 -1.0354 -0.8495  0.7333
  241MOL0     H32505  -0.348  11.812   5.507 -0.8167  0.5629  0.3921
  241MOL0     H32506  -0.276  11.885   5.665  0.0678 -0.1497  0.0144
  241MOL0     H32507  -0.510  11.808   5.689 -0.3632  0.3401 -0.0915
  241MOL0     H32508  -0.460  11.638   5.654 -0.2994  0.6300 -0.1544
  241MOL0     H32509  -0.337  11.790   5.880  2.1007 -0.4411  1.8986
  241MOL0     H32510  -0.320  11.617   5.854  1.7900  0.4402  0.8513
  241MOL0     H32511  -0.582  11.759   5.915 -2.7551 -1.0564 -0.6762
  241MOL0     H32512  -0.577  11.596   5.869 -0.0894  0.7056 -2.1998
  241MOL0     H32513  -0.404  11.694   6.103  0.3898  1.1496 -0.9723
  241MOL0     H32514  -0.462  11.531   6.065 -0.5632  0.0454  0.5190
  241MOL0     H32515  -0.638  11.763   6.147 -2.7819 -0.1022  0.5968
  241MOL0     H32516  -0.615  11.610   6.241  2.0659  0.9902  0.6903
  241MOL0     H32517   0.223  11.512   5.518  0.4123 -0.2431 -0.2054
  241MOL0     H32518   0.416  11.514   5.355 -0.2902 -0.1776  0.7777
  241MOL0     H32519   0.655  11.538   5.135  1.0860 -0.7651 -0.3255
  241MOL0     H32520   0.819  11.395   5.057 -0.6988 -2.5480  1.1016
  241MOL0     H32521   2.743  11.279   4.775  0.3970 -0.1499  1.2583
  241MOL0     H32522   2.989  11.236   4.796 -0.5365  0.4130 -0.6752
  241MOL0     H32523   3.402  11.251   4.502 -1.9017 -0.0528  2.6861
  241MOL0     H32524   3.654  11.208   4.518  0.5954  1.7003  1.6414
  241MOL0     H32525   3.971  11.034   4.616  0.9289  1.6786 -1.4097
  241MOL0     H32526   3.868  11.147   4.529  0.7087  0.2370  0.1207
  241MOL0     H32527   3.792  11.234   4.761 -0.3315 -1.5755  2.7465
  241MOL0     H32528   3.971  11.248   4.709 -0.9063  0.4635 -0.9022
  241MOL0     H32529   4.014  11.067   4.861  1.0545  2.1562 -1.2763
  241MOL0     H32530   3.839  11.050   4.891 -0.3657  0.6510  1.4401
  241MOL0     H32531   3.874  11.312   4.955 -2.0419 -2.3063 -0.9532
  241MOL0     H32532   4.047  11.248   4.980  1.0012 -2.0421 -0.2910
  241MOL0     H32533   3.917  11.151   5.334 -1.8131  3.2812  1.3843
  241MOL0     H32534   3.584  10.850   4.733  1.3137  1.2203  1.8813
  241MOL0     H32535   3.330  10.914   4.747 -2.2782 -0.6096 -2.8472
  242MOL0     O32536   1.371   9.144  11.190 -1.2148 -1.0469  0.3377
  242MOL0     C32537   1.445   9.049  11.210  0.7783  0.1360  0.6928
  242MOL0     O32538   1.408   8.931  11.253 -0.9875 -0.1716  0.4364
  242MOL0     C32539   1.280   8.921  11.311 -0.7153 -0.0488 -0.5198
  242MOL0     C32540   1.278   8.920  11.450 -0.1358  0.1408  0.0743
  242MOL0     C32541   1.160   8.896  11.520  0.1127 -0.6481 -0.0993
  242MOL0     C32542   1.045   8.861  11.446  0.2970 -0.2198 -0.0983
  242MOL0     O32543   0.910   8.848  11.494 -0.3349  0.2089 -0.2576
  242MOL0     C32544   0.878   8.846  11.633  0.0423  0.9291 -0.0420
  242MOL0     C32545   0.950   8.734  11.709  0.0077 -0.0677  1.0370
  242MOL0     C32546   0.913   8.587  11.682  0.6369  0.4639  0.7513
  242MOL0     C32547   0.770   8.564  11.664 -0.1398 -0.5816  0.6007
  242MOL0     C32548   0.708   8.427  11.639  0.0305  0.2881  0.6100
  242MOL0     C32549   0.569   8.447  11.579 -0.3334 -0.3148  1.1012
  242MOL0     C32550   0.499   8.318  11.539  0.5669 -0.1852  0.2365
  242MOL0     C32551   0.349   8.333  11.530 -0.0706 -0.4907 -0.2297
  242MOL0     N32552   0.282   8.218  11.474  0.5186 -0.2528 -0.1928
  242MOL0     C32553   0.324   8.088  11.473 -0.3964 -1.4294 -1.0742
  242MOL0     C32554   0.223   8.017  11.422  0.6180 -0.7216 -0.0958
  242MOL0     C32555   0.231   7.873  11.382 -0.3318  0.2233  1.0336
  242MOL0     C32556   0.146   7.791  11.485 -0.1863  1.0718 -0.4372
  242MOL0     C32557   0.120   7.657  11.421 -0.4926  0.6005  0.3299
  242MOL0     C32558   0.070   7.554  11.516  0.0078 -0.3397  0.3782
  242MOL0     O32559   0.035   7.433  11.443  0.2944  0.6020 -0.2444
  242MOL0     C32560  -0.064   7.343  11.491  0.4162 -0.0306  0.4484
  242MOL0     C32561  -0.093   7.254  11.383  0.0010 -0.0670  0.8521
  242MOL0     C32562  -0.206   7.173  11.395  1.3289 -0.2907 -1.0966
  242MOL0     C32563  -0.239   7.077  11.290 -0.5016  1.2902  0.3725
  242MOL0     C32564  -0.289   7.175  11.505  0.9683 -0.0419 -1.6437
  242MOL0     C32565  -0.415   7.099  11.523  0.0448 -0.8344 -0.4417
  242MOL0     O32566  -0.448   7.086  11.653  0.0785  0.4769 -0.1961
  242MOL0     C32567  -0.578   7.044  11.675  0.1023  0.2114  0.0174
  242MOL0     C32568  -0.674   7.137  11.717  0.9340 -0.0832  0.9457
  242MOL0     C32569  -0.808   7.097  11.752 -0.6695  0.3197  0.7162
  242MOL0     C32570  -0.843   6.960  11.756 -0.1731 -0.1331 -0.2347
  242MOL0     O32571  -0.973   6.922  11.798  0.5137 -0.3259 -0.7572
  242MOL0     C32572  -1.040   6.827  11.726  1.0757 -0.5958 -0.5262
  242MOL0     C32573  -1.187   6.830  11.773 -0.3103  0.2596 -0.8350
  242MOL0     C32574  -1.294   6.767  11.693 -1.3054  0.3646 -0.5763
  242MOL0     C32575  -1.422   6.769  11.764  0.7246 -0.3904 -0.0011
  242MOL0     C32576  -1.518   6.679  11.684 -0.3691  0.1261  0.0869
  242MOL0     C32577  -1.654   6.652  11.759 -0.8919 -0.7696 -0.3693
  242MOL0     C32578  -1.745   6.582  11.667  0.5555 -0.1166  0.0835
  242MOL0     C32579  -1.858   6.526  11.739  0.3660  0.7688  0.2419
  242MOL0    Cl32580  -1.961   6.457  11.615  0.0996 -0.1195  0.1952
  242MOL0     C32581  -0.744   6.866  11.727  0.1439 -0.7533  0.6823
  242MOL0     C32582  -0.616   6.902  11.673 -0.0192 -0.1664  0.5220
  242MOL0     O32583  -0.480   7.058  11.427  0.1292  1.3233 -0.2014
  242MOL0     C32584  -0.258   7.268  11.615  0.2714 -0.5154  0.4685
  242MOL0     C32585  -0.139   7.350  11.604  0.2413  0.2117 -0.5146
  242MOL0     N32586   0.121   8.102  11.404  0.3402 -0.6274 -0.5659
  242MOL0     N32587   0.147   8.216  11.440 -0.0201 -0.7243 -0.1613
  242MOL0     C32588   1.058   8.853  11.306 -0.0184 -0.1314 -0.3778
  242MOL0     C32589   1.172   8.895  11.241  0.1960  0.4914  0.3102
  242MOL0     C32590   1.587   9.080  11.206 -0.1558 -0.5691  0.1695
  242MOL0     C32591   1.682   8.990  11.242 -1.0087 -0.2164 -0.2687
  242MOL0     C32592   1.818   9.030  11.262  0.5131  0.2858  0.2323
  242MOL0     C32593   1.863   9.157  11.228 -0.5181 -0.8028 -0.0917
  242MOL0     O32594   2.000   9.182  11.213  0.0528 -0.3581  0.8127
  242MOL0     C32595   2.048   9.285  11.307 -0.4035  0.5166 -0.3137
  242MOL0     C32596   2.205   9.271  11.299  0.6242 -0.2725  0.9327
  242MOL0     C32597   2.260   9.331  11.166 -0.5800 -0.2748  0.5457
  242MOL0     C32598   2.407   9.274  11.138  1.1278 -0.1507  0.2427
  242MOL0     C32599   2.454   9.303  10.999  0.0697  0.3707  0.2788
  242MOL0     C32600   2.504   9.315  10.887 -0.0091 -0.6795  0.4625
  242MOL0     C32601   1.770   9.252  11.193 -0.0846  0.2029  0.9006
  242MOL0     C32602   1.628   9.216  11.193 -0.9323 -0.4572 -1.1012
  242MOL0     H32603   1.369   8.948  11.504  0.8238  1.2171 -1.9586
  242MOL0     H32604   1.159   8.915  11.627 -1.1099  2.7814 -0.6247
  242MOL0     H32605   0.895   8.942  11.683  1.5013  3.1011 -4.1333
  242MOL0     H32606   0.770   8.834  11.631  0.1163  0.1945 -1.7586
  242MOL0     H32607   1.057   8.755  11.708  0.3273 -0.8323 -3.5967
  242MOL0     H32608   0.905   8.738  11.809  1.8214  0.4557  1.8653
  242MOL0     H32609   0.970   8.556  11.594  0.9688  4.0113 -0.4153
  242MOL0     H32610   0.943   8.511  11.755  3.0212 -0.8103 -1.3742
  242MOL0     H32611   0.719   8.602  11.753  1.9152 -0.8456  1.9826
  242MOL0     H32612   0.734   8.622  11.579 -3.8218 -3.9366 -0.4061
  242MOL0     H32613   0.787   8.381  11.580 -1.5349 -1.5450 -0.1486
  242MOL0     H32614   0.704   8.372  11.734 -0.9877  1.4204  1.2575
  242MOL0     H32615   0.511   8.501  11.654 -1.0939  1.4037 -0.6348
  242MOL0     H32616   0.579   8.517  11.495 -1.1512  0.4441  1.6246
  242MOL0     H32617   0.535   8.285  11.441 -1.6456 -3.1743  0.2939
  242MOL0     H32618   0.520   8.239  11.611 -0.9531 -0.3612  0.5282
  242MOL0     H32619   0.328   8.419  11.466  1.5372 -0.8847 -1.3386
  242MOL0     H32620   0.316   8.351  11.633  1.2052 -0.7724  0.2475
  242MOL0     H32621   0.422   8.067  11.513 -0.2639  3.6960  2.2382
  242MOL0     H32622   0.171   7.870  11.291 -0.3751 -1.4612  1.0857
  242MOL0     H32623   0.334   7.840  11.367 -1.0295 -1.9735  0.6370
  242MOL0     H32624   0.061   7.845  11.526  0.5809 -0.2299  3.2658
  242MOL0     H32625   0.209   7.769  11.571 -0.4359  1.2208 -0.2161
  242MOL0     H32626   0.210   7.619  11.370 -1.3314 -1.4485  0.2602
  242MOL0     H32627   0.040   7.678  11.350 -1.5255 -0.2141  1.2210
  242MOL0     H32628  -0.021   7.595  11.561 -1.0299 -2.3437  0.2505
  242MOL0     H32629   0.139   7.528  11.596  0.9690  3.2572  0.8702
  242MOL0     H32630  -0.029   7.254  11.295  0.2300 -2.2368  0.9675
  242MOL0     H32631  -0.319   7.112  11.224  1.1058  3.2961 -0.6353
  242MOL0     H32632  -0.153   7.054  11.227 -0.7541  0.6463  0.2518
  242MOL0     H32633  -0.263   6.984  11.342  2.9823  1.1501  2.0274
  242MOL0     H32634  -0.654   7.244  11.710  2.3125 -0.2891  1.4283
  242MOL0     H32635  -0.884   7.175  11.764 -0.5882  1.1836 -3.2574
  242MOL0     H32636  -1.026   6.870  11.627  0.4649 -0.5234 -0.5846
  242MOL0     H32637  -0.993   6.729  11.721  0.6775 -0.7244 -3.4225
  242MOL0     H32638  -1.191   6.793  11.876  0.4317 -0.5332 -1.0766
  242MOL0     H32639  -1.225   6.933  11.775 -0.8843  0.1108 -2.4697
  242MOL0     H32640  -1.264   6.663  11.677 -2.0332  0.5116 -3.5801
  242MOL0     H32641  -1.303   6.822  11.599  1.5049  2.8820  0.4476
  242MOL0     H32642  -1.420   6.738  11.868  3.5287  0.0060  0.1637
  242MOL0     H32643  -1.472   6.866  11.767 -1.1925 -1.3088 -0.6916
  242MOL0     H32644  -1.472   6.580  11.678  3.8374  1.9215 -0.6396
  242MOL0     H32645  -1.547   6.722  11.588 -2.7829 -0.4100  0.5186
  242MOL0     H32646  -1.636   6.596  11.851 -1.9666 -1.2889 -0.4648
  242MOL0     H32647  -1.706   6.743  11.791  1.0655 -0.9668  3.9810
  242MOL0     H32648  -1.700   6.502  11.608  1.8448  0.9999 -0.5104
  242MOL0     H32649  -1.784   6.652  11.591  0.3234 -1.7199 -1.3248
  242MOL0     H32650  -1.911   6.601  11.797 -3.1224 -0.2702 -1.3439
  242MOL0     H32651  -1.823   6.438  11.794 -2.8236 -1.0056 -0.3323
  242MOL0     H32652  -0.767   6.759  11.731  0.9637 -1.0243 -0.9157
  242MOL0     H32653  -0.544   6.828  11.639  0.7801  0.2635  1.2254
  242MOL0     H32654  -0.326   7.272  11.699 -0.1943  0.1636  0.0687
  242MOL0     H32655  -0.136   7.443  11.660 -0.3855 -0.8089  1.3076
  242MOL0     H32656   0.980   8.809  11.245  0.3343 -0.4669 -0.5915
  242MOL0     H32657   1.180   8.897  11.132  1.3811 -1.5928  0.3172
  242MOL0     H32658   1.644   8.891  11.265 -1.4279  0.2859  1.2738
  242MOL0     H32659   1.893   8.959  11.293  0.3304 -1.3277 -2.6050
  242MOL0     H32660   1.999   9.381  11.286 -0.2236  1.2227  2.1944
  242MOL0     H32661   2.021   9.254  11.409 -0.4415 -0.7144 -0.6785
  242MOL0     H32662   2.231   9.165  11.312  2.3717  0.1223  0.8296
  242MOL0     H32663   2.235   9.323  11.391  2.5354  1.5944 -0.6557
  242MOL0     H32664   2.255   9.440  11.158  1.2207 -0.2764 -1.4462
  242MOL0     H32665   2.193   9.299  11.086  0.1975 -2.6634  0.7681
  242MOL0     H32666   2.398   9.167  11.155  2.2105 -0.0449  1.6792
  242MOL0     H32667   2.478   9.321  11.208  0.5008 -1.5832  1.9049
  242MOL0     H32668   2.539   9.328  10.786 -0.4029 -0.5221  0.3444
  242MOL0     H32669   1.793   9.354  11.163 -1.3888 -0.6352 -3.7128
  242MOL0     H32670   1.566   9.303  11.177 -0.6105  0.3584  1.6639
  243MOL0     O32671   3.523   3.744   2.223  0.2953 -0.2495  0.0024
  243MOL0     C32672   3.471   3.817   2.143 -0.9894  0.6704 -0.2476
  243MOL0     O32673   3.332   3.841   2.137 -1.0539 -0.1936 -0.4742
  243MOL0     C32674   3.253   3.791   2.231 -0.8288  0.0020 -1.2485
  243MOL0     C32675   3.226   3.867   2.346 -0.4026 -0.2466  0.4682
  243MOL0     C32676   3.140   3.805   2.432 -0.0320 -0.3180 -0.3653
  243MOL0     C32677   3.067   3.693   2.409  1.2081 -0.2375 -0.1480
  243MOL0     O32678   2.981   3.633   2.496  0.2305  0.1366 -0.2578
  243MOL0     C32679   2.934   3.700   2.609  1.3967 -0.8577  0.4956
  243MOL0     C32680   2.800   3.633   2.637  0.4845  0.1824 -0.3610
  243MOL0     C32681   2.699   3.616   2.517  0.6734 -0.0293 -0.3539
  243MOL0     C32682   2.572   3.546   2.581  0.1576 -0.7734 -0.8862
  243MOL0     C32683   2.440   3.581   2.506 -0.2182 -0.9777  1.0274
  243MOL0     C32684   2.314   3.539   2.586  0.1822 -1.1864 -0.3371
  243MOL0     C32685   2.181   3.569   2.516 -0.4381  0.6194 -0.1624
  243MOL0     C32686   2.059   3.528   2.586  0.0251 -0.6692 -0.5919
  243MOL0     N32687   1.935   3.570   2.527  0.2285 -0.0454 -0.4496
  243MOL0     C32688   1.886   3.520   2.412  0.9007 -0.4731 -1.0805
  243MOL0     C32689   1.755   3.567   2.403  0.4772  0.1879  0.8401
  243MOL0     C32690   1.663   3.532   2.287 -0.2762  0.3312 -0.2747
  243MOL0     C32691   1.521   3.516   2.338 -0.2707  0.8406  0.1509
  243MOL0     C32692   1.510   3.390   2.416  0.2702 -0.3469 -0.4694
  243MOL0     C32693   1.370   3.347   2.458 -0.1690  0.3880 -0.2673
  243MOL0     O32694   1.268   3.404   2.372 -0.4855 -0.2806 -0.7065
  243MOL0     C32695   1.140   3.357   2.379  0.7366  0.7069  0.2336
  243MOL0     C32696   1.043   3.428   2.316 -0.3305 -0.3188 -0.2307
  243MOL0     C32697   0.914   3.391   2.309 -0.4255 -0.0597  0.8144
  243MOL0     C32698   0.828   3.492   2.234 -0.0141 -0.4595 -0.1290
  243MOL0     C32699   0.871   3.262   2.355  0.5598 -0.2535  0.4093
  243MOL0     C32700   0.730   3.210   2.348  0.1733  0.6617 -0.1858
  243MOL0     O32701   0.709   3.101   2.424  0.9754  0.0269 -0.9684
  243MOL0     C32702   0.608   3.014   2.396 -0.2558  1.1500  0.7890
  243MOL0     C32703   0.576   2.970   2.271 -0.2893  0.2638 -0.2661
  243MOL0     C32704   0.487   2.862   2.240  0.2388 -0.3612 -0.0974
  243MOL0     C32705   0.412   2.818   2.354 -0.0942  0.7325  0.3337
  243MOL0     O32706   0.321   2.715   2.331  0.0803 -0.4314  1.0885
  243MOL0     C32707   0.191   2.719   2.388 -0.2572  0.3510  0.1613
  243MOL0     C32708   0.085   2.645   2.316  1.3003  0.6064  0.6196
  243MOL0     C32709  -0.055   2.661   2.389  0.2971  0.0113  0.6538
  243MOL0     C32710  -0.112   2.787   2.347  0.1171 -0.3810  1.4543
  243MOL0     C32711  -0.241   2.805   2.412  0.0225 -0.3724 -0.0086
  243MOL0     C32712  -0.228   2.805   2.573  0.7918 -1.0691  0.2195
  243MOL0     C32713  -0.357   2.874   2.628 -0.1856 -0.1219 -0.0115
  243MOL0     C32714  -0.338   2.908   2.775  0.6644 -0.1345 -0.2297
  243MOL0    Cl32715  -0.259   2.782   2.876 -0.0886  0.7492  0.2317
  243MOL0     C32716   0.439   2.861   2.483  0.4288 -0.8111 -0.8657
  243MOL0     C32717   0.532   2.963   2.497  0.4165 -0.2256 -0.7596
  243MOL0     O32718   0.647   3.251   2.270  0.6914 -0.0459 -0.0544
  243MOL0     C32719   0.972   3.174   2.413  0.1998  0.2096  0.7572
  243MOL0     C32720   1.103   3.228   2.412 -0.0834  0.4343  0.1677
  243MOL0     N32721   1.735   3.657   2.508  0.3832  0.1822  0.0857
  243MOL0     N32722   1.845   3.656   2.582 -1.4224  0.6649  0.4638
  243MOL0     C32723   3.084   3.633   2.288 -0.4024  0.8247  0.2736
  243MOL0     C32724   3.182   3.677   2.199  0.3045  1.2438  0.5875
  243MOL0     C32725   3.559   3.882   2.041 -0.3703 -1.0090 -0.2570
  243MOL0     C32726   3.700   3.874   2.053  0.9064  0.8226 -0.2328
  243MOL0     C32727   3.794   3.941   1.967  0.8462  0.1139 -0.3561
  243MOL0     C32728   3.741   4.031   1.876  0.1399  0.1223  0.1451
  243MOL0     O32729   3.815   4.114   1.798 -0.9146  0.5724  0.0669
  243MOL0     C32730   3.953   4.141   1.829 -0.4631  0.3833 -0.1514
  243MOL0     C32731   4.017   4.048   1.718 -0.3193 -0.1078 -0.0949
  243MOL0     C32732   4.172   4.051   1.740 -1.2266  0.5850  1.4590
  243MOL0     C32733   4.249   3.997   1.608  0.7811  0.1902 -0.1227
  243MOL0     C32734   4.214   3.858   1.580  0.4301  0.1277  0.4694
  243MOL0     C32735   4.174   3.745   1.563 -0.9832 -0.1117 -0.2259
  243MOL0     C32736   3.605   4.040   1.862  1.0584 -0.9648 -0.0119
  243MOL0     C32737   3.514   3.964   1.939  0.5205 -0.0952 -0.3462
  243MOL0     H32738   3.265   3.967   2.360  0.2046 -0.5308  0.8842
  243MOL0     H32739   3.129   3.861   2.525  1.1683 -1.4286  0.4735
  243MOL0     H32740   3.002   3.698   2.695 -1.0396  1.4296  2.6498
  243MOL0     H32741   2.924   3.806   2.585 -0.8354 -1.3335 -1.0309
  243MOL0     H32742   2.822   3.540   2.691 -2.0464  0.5126  1.3827
  243MOL0     H32743   2.753   3.699   2.710  1.7289  0.9814 -0.2518
  243MOL0     H32744   2.672   3.718   2.491 -0.1950  0.5518  2.4986
  243MOL0     H32745   2.740   3.558   2.434  0.7248  0.6654 -0.8199
  243MOL0     H32746   2.595   3.440   2.593  1.1757 -0.4626  0.1235
  243MOL0     H32747   2.558   3.598   2.676 -0.5631 -1.4715 -0.5931
  243MOL0     H32748   2.424   3.688   2.485 -2.5008 -1.3303  0.7471
  243MOL0     H32749   2.431   3.528   2.411  0.4475 -0.6719  0.7858
  243MOL0     H32750   2.331   3.441   2.632 -0.7531 -0.9273  0.6125
  243MOL0     H32751   2.315   3.614   2.665 -0.7701 -1.5513  0.0321
  243MOL0     H32752   2.184   3.677   2.498 -0.3485  0.4295 -1.4170
  243MOL0     H32753   2.193   3.509   2.425 -0.4662 -0.6507  0.6475
  243MOL0     H32754   2.064   3.563   2.690 -0.3945  0.0047 -0.7908
  243MOL0     H32755   2.049   3.419   2.592 -1.6553 -0.4842  1.6274
  243MOL0     H32756   1.935   3.450   2.345  0.5810  2.3429 -4.5377
  243MOL0     H32757   1.663   3.603   2.204 -1.7244 -0.6562 -1.1838
  243MOL0     H32758   1.704   3.442   2.239  1.8104  0.8180  0.4771
  243MOL0     H32759   1.456   3.511   2.249  2.9623  1.4943 -2.4577
  243MOL0     H32760   1.494   3.605   2.396 -1.7863  0.5436 -0.0546
  243MOL0     H32761   1.568   3.411   2.506 -4.2336  5.6580  1.7193
  243MOL0     H32762   1.556   3.310   2.357  1.4465  0.2436 -0.3917
  243MOL0     H32763   1.344   3.389   2.555 -0.5895 -0.3628 -0.0451
  243MOL0     H32764   1.363   3.237   2.453 -5.9180  0.4560 -1.1705
  243MOL0     H32765   1.063   3.528   2.281  1.8529 -0.3018  0.8980
  243MOL0     H32766   0.876   3.583   2.198 -0.6887  0.0372  0.1918
  243MOL0     H32767   0.790   3.443   2.144 -1.0279 -1.9110  1.0272
  243MOL0     H32768   0.744   3.529   2.296  0.3593 -0.7042  0.5317
  243MOL0     H32769   0.616   3.029   2.190 -1.9317  0.7222 -0.7950
  243MOL0     H32770   0.464   2.824   2.141 -0.1667  0.5652 -0.3727
  243MOL0     H32771   0.201   2.674   2.487  1.7393  0.7489  0.1813
  243MOL0     H32772   0.172   2.826   2.397 -0.7499  0.5074 -2.0656
  243MOL0     H32773   0.070   2.682   2.214 -0.7388  1.1494  1.0629
  243MOL0     H32774   0.111   2.539   2.315 -2.3725 -0.4588  1.5334
  243MOL0     H32775  -0.030   2.640   2.493  0.9934 -2.4121  0.0816
  243MOL0     H32776  -0.114   2.578   2.349  1.7054 -0.5728 -0.3297
  243MOL0     H32777  -0.060   2.882   2.367 -2.2320  1.7724 -1.5700
  243MOL0     H32778  -0.122   2.792   2.238  1.4590  0.7803  1.3470
  243MOL0     H32779  -0.296   2.716   2.381  0.9365 -0.2540 -2.1013
  243MOL0     H32780  -0.280   2.899   2.372  2.6744  0.5696 -0.5766
  243MOL0     H32781  -0.225   2.705   2.616 -4.0217 -0.1512  3.4951
  243MOL0     H32782  -0.134   2.854   2.602  1.2461 -2.3285  0.9409
  243MOL0     H32783  -0.443   2.815   2.596 -0.0695  0.1681 -0.8954
  243MOL0     H32784  -0.391   2.967   2.581  0.1671  0.5790  1.0740
  243MOL0     H32785  -0.434   2.936   2.820  1.4976 -1.5322  2.6295
  243MOL0     H32786  -0.274   2.995   2.784  0.0711  0.1470  1.4930
  243MOL0     H32787   0.390   2.825   2.573  0.4340 -1.2143 -1.0211
  243MOL0     H32788   0.557   2.991   2.599 -1.0968 -1.6539  0.0336
  243MOL0     H32789   0.946   3.071   2.436 -1.8808  0.8947  1.7618
  243MOL0     H32790   1.176   3.151   2.437  0.8881  1.2215 -0.1706
  243MOL0     H32791   3.016   3.553   2.261  2.4927 -3.5644  4.2690
  243MOL0     H32792   3.187   3.627   2.102 -2.4044  0.6616  0.6789
  243MOL0     H32793   3.741   3.812   2.132  1.1955  0.6054 -0.5510
  243MOL0     H32794   3.900   3.921   1.965  0.8976  0.4097 -1.7859
  243MOL0     H32795   3.972   4.247   1.809  0.0225  0.1784 -0.8204
  243MOL0     H32796   4.001   4.112   1.923  1.3397 -3.4269 -2.0144
  243MOL0     H32797   3.986   4.091   1.623  0.0845  1.5320  0.4761
  243MOL0     H32798   3.973   3.948   1.719 -1.0829  0.1840 -1.4862
  243MOL0     H32799   4.189   3.976   1.817 -0.3984 -2.5531 -1.5406
  243MOL0     H32800   4.220   4.148   1.758  2.9730 -0.2089 -3.2357
  243MOL0     H32801   4.355   4.008   1.630  0.5185 -0.4088  1.5639
  243MOL0     H32802   4.231   4.073   1.531  0.9904  1.8792  1.4496
  243MOL0     H32803   4.137   3.645   1.559 -0.9624 -0.3871  3.3897
  243MOL0     H32804   3.561   4.120   1.804  0.5537 -1.6367 -0.5769
  243MOL0     H32805   3.407   3.974   1.921  0.1638 -0.6326  1.2889
  244MOL0     O32806   8.440   8.476   9.646  0.4617 -0.8644 -0.0666
  244MOL0     C32807   8.452   8.354   9.645  0.3755 -0.5903 -0.7828
  244MOL0     O32808   8.378   8.269   9.721 -0.2106 -0.0850 -0.4718
  244MOL0     C32809   8.284   8.335   9.806  0.2435 -0.8858 -0.4331
  244MOL0     C32810   8.276   8.296   9.941 -0.3345  0.6153  0.2665
  244MOL0     C32811   8.179   8.346  10.026 -0.5098  0.2779  0.2083
  244MOL0     C32812   8.094   8.445   9.984 -0.6281 -0.5571 -0.6825
  244MOL0     O32813   8.018   8.514  10.071 -0.3303  0.9124  0.4023
  244MOL0     C32814   7.898   8.455  10.101  0.0078  0.5176 -0.5831
  244MOL0     C32815   7.821   8.525  10.212  0.6662  1.2303 -0.9312
  244MOL0     C32816   7.664   8.507  10.204 -0.4540  0.2476  0.4866
  244MOL0     C32817   7.589   8.561  10.322 -0.2459 -0.1220 -0.7615
  244MOL0     C32818   7.428   8.565  10.316 -1.2623 -0.4792 -1.0598
  244MOL0     C32819   7.367   8.457  10.216 -0.1524 -0.4271 -0.5656
  244MOL0     C32820   7.219   8.447  10.206  0.0730 -0.4963  0.5961
  244MOL0     C32821   7.160   8.336  10.293 -0.1157 -0.1539  0.1850
  244MOL0     N32822   7.023   8.317  10.261 -0.4142 -0.0389 -0.1532
  244MOL0     C32823   6.918   8.406  10.279  0.1804  0.2317 -0.3582
  244MOL0     C32824   6.813   8.337  10.235  0.0046 -0.2442 -0.7752
  244MOL0     C32825   6.670   8.380  10.240  0.0798 -0.5137  0.3456
  244MOL0     C32826   6.616   8.401  10.376 -1.2601 -0.5377  0.1530
  244MOL0     C32827   6.463   8.416  10.401  0.3742  0.0798 -0.6949
  244MOL0     C32828   6.379   8.295  10.345 -0.1793 -0.6653 -0.0060
  244MOL0     O32829   6.362   8.292  10.207  0.1879  0.6690 -0.4104
  244MOL0     C32830   6.269   8.198  10.169 -0.3380  0.3943  0.9733
  244MOL0     C32831   6.249   8.202  10.027 -0.3837  0.0387  0.4457
  244MOL0     C32832   6.174   8.106   9.958 -0.2255  0.3697 -0.0206
  244MOL0     C32833   6.151   8.130   9.811  0.6889 -0.4496 -0.9130
  244MOL0     C32834   6.112   8.002  10.036  0.0809 -0.1012  0.1569
  244MOL0     C32835   6.026   7.897   9.975 -0.1369 -0.9415  0.5398
  244MOL0     O32836   5.944   7.828  10.055  0.5631  0.8592 -0.4383
  244MOL0     C32837   5.891   7.712  10.010  0.1558  0.5432  0.4170
  244MOL0     C32838   5.771   7.678  10.067  0.1833  0.4272 -0.1900
  244MOL0     C32839   5.688   7.572  10.027 -0.0071  0.6290 -0.0668
  244MOL0     C32840   5.731   7.489   9.918 -0.1211 -0.6149 -0.1256
  244MOL0     O32841   5.659   7.382   9.872  0.4816 -0.6503  0.4646
  244MOL0     C32842   5.513   7.386   9.884 -0.7447 -0.1650  0.1959
  244MOL0     C32843   5.476   7.271   9.792  1.2102 -0.8903  0.1358
  244MOL0     C32844   5.493   7.308   9.639  0.3339  1.1177  0.1462
  244MOL0     C32845   5.627   7.256   9.588 -0.1972 -0.5018  0.0773
  244MOL0     C32846   5.654   7.275   9.445 -0.1765  0.7593 -0.0818
  244MOL0     C32847   5.650   7.406   9.380  0.0532 -0.2428  0.1744
  244MOL0     C32848   5.700   7.416   9.241  0.2244  0.4848  0.3491
  244MOL0     C32849   5.659   7.543   9.161 -0.0379 -0.4268 -0.7334
  244MOL0    Cl32850   5.751   7.684   9.207 -0.2596  0.1918  0.0068
  244MOL0     C32851   5.859   7.513   9.868 -0.0412 -0.7634 -0.3895
  244MOL0     C32852   5.932   7.619   9.910  0.0474 -0.8324 -0.6662
  244MOL0     O32853   6.028   7.883   9.851 -0.2123 -0.2391  0.0620
  244MOL0     C32854   6.150   7.987  10.166  0.4439 -0.7331 -0.4008
  244MOL0     C32855   6.229   8.083  10.236  0.2448 -0.9751  0.9158
  244MOL0     N32856   6.852   8.214  10.196  1.0580  0.5798 -0.1930
  244MOL0     N32857   6.975   8.199  10.222  0.1249  1.1937  0.5257
  244MOL0     C32858   8.100   8.490   9.855 -0.4386  0.3573 -0.2109
  244MOL0     C32859   8.187   8.429   9.759 -0.0032 -0.3394  0.5024
  244MOL0     C32860   8.548   8.301   9.541  0.2443  0.2398  0.1926
  244MOL0     C32861   8.515   8.191   9.450  0.1162 -0.5521  0.7348
  244MOL0     C32862   8.597   8.145   9.351 -0.5596  0.0800  0.1501
  244MOL0     C32863   8.713   8.219   9.325 -0.3669  0.0225  0.0368
  244MOL0     O32864   8.792   8.161   9.229 -0.4191  0.2768  0.0050
  244MOL0     C32865   8.933   8.192   9.213  0.1453 -1.1328  1.4672
  244MOL0     C32866   9.031   8.103   9.293  0.2346 -0.8600  0.3160
  244MOL0     C32867   9.174   8.142   9.263  0.3866  0.7010  0.1520
  244MOL0     C32868   9.222   8.283   9.306 -0.6164  0.1988 -0.1286
  244MOL0     C32869   9.359   8.266   9.360  0.2090  0.0058 -0.5395
  244MOL0     C32870   9.477   8.261   9.389 -0.0546  0.2960 -0.1290
  244MOL0     C32871   8.755   8.332   9.404  0.3283  0.6215 -0.1697
  244MOL0     C32872   8.665   8.366   9.511 -0.5354  0.7356  0.2052
  244MOL0     H32873   8.353   8.224   9.966 -0.6586  0.3372  0.4788
  244MOL0     H32874   8.178   8.310  10.128 -2.6996  0.9086  0.4653
  244MOL0     H32875   7.834   8.480  10.017 -2.8297 -0.9375  1.0188
  244MOL0     H32876   7.894   8.347  10.115 -0.4025  0.4807 -0.9860
  244MOL0     H32877   7.864   8.478  10.301  0.5592 -0.4991 -1.7483
  244MOL0     H32878   7.845   8.632  10.211  1.4069  1.0560 -1.9263
  244MOL0     H32879   7.640   8.557  10.110  3.4523  0.8275 -0.3693
  244MOL0     H32880   7.660   8.399  10.192  0.9046  0.3885 -1.7054
  244MOL0     H32881   7.614   8.496  10.406 -0.9914  0.8176  0.2184
  244MOL0     H32882   7.630   8.660  10.343  0.8349 -0.7495  0.1753
  244MOL0     H32883   7.389   8.548  10.416 -1.1828 -3.5289 -1.4760
  244MOL0     H32884   7.390   8.665  10.292 -1.5853 -0.1043  0.8976
  244MOL0     H32885   7.409   8.483  10.118 -1.9010  2.7612 -0.6215
  244MOL0     H32886   7.405   8.360  10.248  1.4026  0.1345 -0.6247
  244MOL0     H32887   7.179   8.544  10.236 -2.1426 -1.1540 -0.0459
  244MOL0     H32888   7.204   8.426  10.100  0.9866 -4.3467  1.0812
  244MOL0     H32889   7.181   8.356  10.398 -0.6341  1.3328  0.0257
  244MOL0     H32890   7.211   8.241  10.271 -1.1536 -0.3900 -1.3409
  244MOL0     H32891   6.922   8.510  10.312  2.2748 -0.2810  1.2152
  244MOL0     H32892   6.657   8.475  10.188 -1.1698 -0.0307  1.4848
  244MOL0     H32893   6.607   8.306  10.189 -0.7193  0.2279  0.2392
  244MOL0     H32894   6.669   8.490  10.411 -0.1982 -0.1250 -2.3141
  244MOL0     H32895   6.655   8.318  10.436 -0.8044  0.8174  1.8241
  244MOL0     H32896   6.416   8.502  10.353 -1.9159 -0.4345  0.5055
  244MOL0     H32897   6.448   8.411  10.509 -0.3101  1.6950 -0.6863
  244MOL0     H32898   6.277   8.306  10.384  0.1155 -0.3114  0.6864
  244MOL0     H32899   6.427   8.205  10.384  1.2896  0.3413  0.5701
  244MOL0     H32900   6.303   8.279   9.972  2.2923 -1.8466  0.2062
  244MOL0     H32901   6.163   8.042   9.747 -1.2959 -1.9332  0.6442
  244MOL0     H32902   6.047   8.154   9.787 -0.3016 -0.5649  2.6829
  244MOL0     H32903   6.215   8.212   9.778  0.5173  0.1469  0.2092
  244MOL0     H32904   5.716   7.737  10.140 -0.1538  0.2660 -0.3109
  244MOL0     H32905   5.587   7.567  10.066 -1.5936  3.9094 -3.1361
  244MOL0     H32906   5.470   7.370   9.983  0.7805 -1.0734  0.7404
  244MOL0     H32907   5.476   7.480   9.842 -3.7472 -1.4235 -0.2243
  244MOL0     H32908   5.527   7.178   9.817 -0.8630 -2.7089 -1.9171
  244MOL0     H32909   5.367   7.263   9.804  0.0660  3.4375 -3.9846
  244MOL0     H32910   5.504   7.417   9.628  0.1023  1.1814  0.5088
  244MOL0     H32911   5.411   7.276   9.574  0.7311  0.7417 -0.1744
  244MOL0     H32912   5.705   7.316   9.636 -0.1187 -1.1373  0.7589
  244MOL0     H32913   5.651   7.153   9.619  0.9578 -0.2286  0.1554
  244MOL0     H32914   5.599   7.205   9.382  3.2088 -1.9283 -0.3302
  244MOL0     H32915   5.755   7.236   9.432 -0.1506  0.6274  0.4927
  244MOL0     H32916   5.549   7.450   9.383 -0.1924 -0.7781 -0.0688
  244MOL0     H32917   5.701   7.478   9.445 -2.0135  1.1539  0.3899
  244MOL0     H32918   5.659   7.332   9.184  1.4233 -1.2816  1.9308
  244MOL0     H32919   5.808   7.398   9.241  0.3367  0.9193 -1.8330
  244MOL0     H32920   5.552   7.562   9.161  0.3615  2.1263 -0.3303
  244MOL0     H32921   5.683   7.508   9.060  0.4462  0.2595 -0.8648
  244MOL0     H32922   5.899   7.451   9.790 -2.9657 -2.0563 -1.0098
  244MOL0     H32923   6.027   7.635   9.859  0.0613 -0.3813 -0.4993
  244MOL0     H32924   6.117   7.905  10.229  0.8455 -2.7047 -2.6429
  244MOL0     H32925   6.242   8.067  10.342 -3.6430 -0.0306  1.6834
  244MOL0     H32926   8.037   8.574   9.826 -0.7191  0.4929  0.7333
  244MOL0     H32927   8.202   8.464   9.657 -1.2236 -0.3059  0.3235
  244MOL0     H32928   8.429   8.128   9.471 -1.3267  0.4391 -1.7048
  244MOL0     H32929   8.567   8.060   9.290 -2.2475 -0.4642  1.6668
  244MOL0     H32930   8.956   8.180   9.106 -1.7911 -1.0003  1.0035
  244MOL0     H32931   8.947   8.299   9.226 -0.2343 -0.5065 -2.2097
  244MOL0     H32932   9.015   7.998   9.270 -0.0135 -0.8861  0.5991
  244MOL0     H32933   9.014   8.116   9.401 -0.1317  2.1153  0.0033
  244MOL0     H32934   9.195   8.121   9.158 -1.7366 -2.7096  0.2572
  244MOL0     H32935   9.229   8.072   9.327 -0.1833  0.5597  0.4951
  244MOL0     H32936   9.157   8.325   9.384 -1.2155  0.4056 -0.7319
  244MOL0     H32937   9.212   8.346   9.217 -1.3663 -0.8454 -0.8084
  244MOL0     H32938   9.579   8.249   9.418 -0.0805 -2.1123 -0.8812
  244MOL0     H32939   8.844   8.393   9.387 -0.2963  1.2253 -1.3938
  244MOL0     H32940   8.698   8.448   9.574 -0.4890  0.6153  0.3369
  245MOL0     O32941   7.690   4.424   5.668  0.4923 -0.1017  0.4061
  245MOL0     C32942   7.729   4.427   5.556 -0.2021 -0.2924 -0.0771
  245MOL0     O32943   7.662   4.494   5.455 -0.1544  0.3383  0.3678
  245MOL0     C32944   7.537   4.556   5.477 -0.2938  0.5753 -0.8252
  245MOL0     C32945   7.426   4.520   5.401  0.0516  0.2602 -0.4358
  245MOL0     C32946   7.306   4.593   5.416 -0.0953 -0.0440  0.0696
  245MOL0     C32947   7.302   4.700   5.506  0.2190 -0.9051 -0.9633
  245MOL0     O32948   7.191   4.772   5.533 -0.0118  0.4901  0.1666
  245MOL0     C32949   7.202   4.922   5.528  0.6537  0.8126 -0.3554
  245MOL0     C32950   7.069   4.986   5.481  0.6781  0.9112  0.0291
  245MOL0     C32951   7.030   4.947   5.337 -0.1701 -0.5311 -0.2516
  245MOL0     C32952   6.885   4.972   5.326 -0.3235  0.4348 -0.7634
  245MOL0     C32953   6.836   4.924   5.188 -0.5869  0.7868 -0.4211
  245MOL0     C32954   6.693   4.972   5.163 -0.2303 -0.3036  1.2720
  245MOL0     C32955   6.637   4.921   5.028 -0.8600  0.2548  0.1213
  245MOL0     C32956   6.516   5.009   4.995  1.0988 -0.1428  0.5611
  245MOL0     N32957   6.455   4.975   4.866 -0.3004  0.4218 -0.2268
  245MOL0     C32958   6.455   5.046   4.758 -0.6565 -0.2947 -0.0637
  245MOL0     C32959   6.365   4.991   4.675 -0.6845 -0.1166  0.7623
  245MOL0     C32960   6.322   5.023   4.529 -0.1936  0.2302  0.2613
  245MOL0     C32961   6.349   5.168   4.503  0.0933 -1.2152 -0.3554
  245MOL0     C32962   6.235   5.264   4.555  0.4379  0.0292 -0.0841
  245MOL0     C32963   6.114   5.271   4.465  0.2363 -0.3006  0.0365
  245MOL0     O32964   6.016   5.347   4.528  0.1137  0.0726 -0.4486
  245MOL0     C32965   5.895   5.336   4.470  0.3268 -1.2911  0.5192
  245MOL0     C32966   5.785   5.357   4.560 -0.7746 -0.2905 -0.0338
  245MOL0     C32967   5.659   5.343   4.515 -0.0555  0.8440  0.4513
  245MOL0     C32968   5.558   5.335   4.630 -0.2354 -0.4133  0.3282
  245MOL0     C32969   5.625   5.343   4.377  0.0048  0.2490 -0.1180
  245MOL0     C32970   5.493   5.318   4.327  0.2272  0.9787  0.3471
  245MOL0     O32971   5.488   5.202   4.253  0.4502 -0.2201 -0.1362
  245MOL0     C32972   5.373   5.167   4.193 -0.6659  0.2641 -0.4239
  245MOL0     C32973   5.331   5.221   4.076 -0.0507 -0.0229 -0.6061
  245MOL0     C32974   5.218   5.171   4.012 -0.2091  0.3665  0.6300
  245MOL0     C32975   5.125   5.080   4.073  0.5231 -0.5469  0.0110
  245MOL0     O32976   5.018   5.021   4.010 -0.4216 -0.3158 -0.5128
  245MOL0     C32977   5.028   5.017   3.862 -0.0792  0.1956 -0.1930
  245MOL0     C32978   4.929   4.915   3.812  0.2954 -0.3456  0.1736
  245MOL0     C32979   4.911   4.942   3.663 -0.9903 -0.5811 -0.1355
  245MOL0     C32980   4.815   4.856   3.604 -0.4645 -0.6350  1.0502
  245MOL0     C32981   4.790   4.899   3.459  0.2316 -0.0552  0.3110
  245MOL0     C32982   4.706   5.028   3.454  0.3487  0.7436 -0.5628
  245MOL0     C32983   4.650   5.053   3.311  0.0306 -0.9334  0.1034
  245MOL0     C32984   4.580   5.190   3.289 -0.8983  0.3898  0.5508
  245MOL0    Cl32985   4.688   5.329   3.281  0.1311 -0.0822 -0.4898
  245MOL0     C32986   5.163   5.037   4.200  0.7156  0.2281  0.1942
  245MOL0     C32987   5.285   5.076   4.258  0.4369  0.1325  0.0124
  245MOL0     O32988   5.396   5.382   4.358 -0.5137 -0.6595 -0.3688
  245MOL0     C32989   5.727   5.343   4.291  0.4309 -0.0821 -0.1422
  245MOL0     C32990   5.860   5.336   4.328  0.4240  0.0875 -0.2382
  245MOL0     N32991   6.314   4.876   4.738  0.1358 -0.0094 -0.7262
  245MOL0     N32992   6.374   4.864   4.850 -0.3591 -0.4055  0.0203
  245MOL0     C32993   7.413   4.743   5.581  0.1227 -0.4264 -0.3828
  245MOL0     C32994   7.524   4.661   5.566  0.1408 -0.5461  0.0900
  245MOL0     C32995   7.862   4.373   5.523  0.5385 -0.3724  0.2877
  245MOL0     C32996   7.933   4.300   5.620 -0.4624  0.2161  0.7518
  245MOL0     C32997   8.061   4.252   5.589 -0.6850 -0.1717  0.1570
  245MOL0     C32998   8.115   4.275   5.464 -0.5643 -0.2632  0.2764
  245MOL0     O32999   8.232   4.209   5.437  0.1109  0.5518 -0.4145
  245MOL0     C33000   8.251   4.175   5.298  0.1586  0.0153  0.5093
  245MOL0     C33001   8.351   4.058   5.281 -0.5215  0.1283  0.3219
  245MOL0     C33002   8.491   4.098   5.243  0.5392  0.3227 -0.0441
  245MOL0     C33003   8.566   4.171   5.356  0.0753 -0.2542 -0.6890
  245MOL0     C33004   8.620   4.075   5.463  0.3023 -1.1259  0.3437
  245MOL0     C33005   8.660   4.021   5.564  0.2942 -0.3392  0.2831
  245MOL0     C33006   8.052   4.358   5.371 -0.2801 -0.1151 -0.4798
  245MOL0     C33007   7.915   4.398   5.396  0.9607  0.2133  0.3484
  245MOL0     H33008   7.454   4.443   5.330  1.6655 -1.4390  1.9104
  245MOL0     H33009   7.218   4.571   5.356  0.3758  0.9130 -1.0161
  245MOL0     H33010   7.219   4.952   5.632 -0.9079 -0.4044  0.2830
  245MOL0     H33011   7.279   4.963   5.461  3.6622 -1.2077  1.6308
  245MOL0     H33012   6.985   4.968   5.549  0.5720  3.3294  0.6532
  245MOL0     H33013   7.079   5.095   5.482 -0.4231  1.0112  0.4786
  245MOL0     H33014   7.083   5.017   5.272 -1.6001  0.6942 -0.1604
  245MOL0     H33015   7.051   4.845   5.302 -0.8595 -0.3251 -1.3324
  245MOL0     H33016   6.822   4.911   5.391 -1.3204  1.6860 -0.5098
  245MOL0     H33017   6.875   5.081   5.331  0.5072  0.4614  1.5236
  245MOL0     H33018   6.907   4.961   5.114  0.5677 -1.5386 -0.5859
  245MOL0     H33019   6.839   4.815   5.197 -1.7071  0.8233  0.6517
  245MOL0     H33020   6.624   4.939   5.241 -1.8509  1.6720  0.7836
  245MOL0     H33021   6.696   5.082   5.167  1.9754 -0.0420 -2.5188
  245MOL0     H33022   6.707   4.915   4.944  1.8364  0.9570  2.1866
  245MOL0     H33023   6.591   4.824   5.047  1.6791 -1.0923 -0.2814
  245MOL0     H33024   6.558   5.110   4.991 -1.1035  0.7948 -1.0615
  245MOL0     H33025   6.443   5.004   5.077  1.0403 -0.6172  0.4844
  245MOL0     H33026   6.517   5.131   4.731 -0.2805 -0.7284 -0.5954
  245MOL0     H33027   6.383   4.966   4.459  0.3426 -2.3154  2.6308
  245MOL0     H33028   6.219   4.991   4.509  0.3130 -1.0505 -0.4417
  245MOL0     H33029   6.358   5.172   4.394  0.6616 -3.0711 -0.4212
  245MOL0     H33030   6.441   5.202   4.551 -0.2743 -3.1056  1.8441
  245MOL0     H33031   6.282   5.361   4.574  0.8045 -0.5963  2.5596
  245MOL0     H33032   6.203   5.219   4.649  0.3291  0.6346  0.1718
  245MOL0     H33033   6.071   5.177   4.428  1.8769 -0.8114 -0.6969
  245MOL0     H33034   6.142   5.319   4.371 -0.5084  0.1603  0.0469
  245MOL0     H33035   5.812   5.371   4.664 -1.7865 -2.0788  0.5014
  245MOL0     H33036   5.600   5.301   4.725  0.2263  0.0327  0.2914
  245MOL0     H33037   5.521   5.436   4.652 -1.5396 -1.1514  1.7969
  245MOL0     H33038   5.467   5.280   4.605 -2.3394 -0.1783  5.9700
  245MOL0     H33039   5.397   5.289   4.024 -0.3828  0.4161 -0.4562
  245MOL0     H33040   5.198   5.214   3.914  3.1883 -1.9952 -1.3359
  245MOL0     H33041   5.011   5.116   3.819 -1.4285 -0.4234 -1.1393
  245MOL0     H33042   5.122   4.970   3.830 -0.4855 -0.0636 -1.0351
  245MOL0     H33043   4.975   4.817   3.829  0.8116 -0.4185 -1.3950
  245MOL0     H33044   4.836   4.918   3.868  0.7838 -0.9136  1.0324
  245MOL0     H33045   5.008   4.927   3.615 -0.4171 -1.4305  1.2371
  245MOL0     H33046   4.878   5.046   3.652 -0.1984 -0.2023  0.8635
  245MOL0     H33047   4.850   4.753   3.608 -0.0863 -0.4813  2.2835
  245MOL0     H33048   4.718   4.854   3.656 -0.7277  0.1077  0.6100
  245MOL0     H33049   4.735   4.818   3.410 -0.4500  2.1127 -2.7937
  245MOL0     H33050   4.879   4.915   3.398  0.5918  3.5908  1.6005
  245MOL0     H33051   4.616   5.028   3.516  0.0307 -1.3629 -0.9428
  245MOL0     H33052   4.769   5.117   3.465  0.8292  0.5322 -1.5002
  245MOL0     H33053   4.583   4.972   3.281 -1.7029 -0.7392  3.0523
  245MOL0     H33054   4.731   5.052   3.237  1.0492 -0.0976  1.1574
  245MOL0     H33055   4.504   5.212   3.364 -1.5200 -1.4307  0.4951
  245MOL0     H33056   4.513   5.182   3.203 -1.6624  1.0175  1.0724
  245MOL0     H33057   5.102   4.964   4.252 -0.2558 -0.6369 -2.0642
  245MOL0     H33058   5.315   5.035   4.353 -0.9459  1.4638  1.0671
  245MOL0     H33059   5.717   5.332   4.183 -0.7958 -0.2850 -0.0243
  245MOL0     H33060   5.943   5.344   4.259  0.3948 -1.3575 -0.4636
  245MOL0     H33061   7.408   4.823   5.654  1.5346 -1.4757  0.9152
  245MOL0     H33062   7.610   4.690   5.626  0.3737 -0.1325 -0.4320
  245MOL0     H33063   7.911   4.283   5.725 -1.2518  1.5645  0.8423
  245MOL0     H33064   8.130   4.205   5.659 -1.6385 -2.2395 -0.2135
  245MOL0     H33065   8.165   4.133   5.245  2.4355 -1.4111 -2.3893
  245MOL0     H33066   8.298   4.260   5.248  0.8940 -1.2938 -1.1511
  245MOL0     H33067   8.319   4.012   5.187  1.3120  3.1407 -2.0076
  245MOL0     H33068   8.355   3.997   5.372  1.5378  0.5001  0.5378
  245MOL0     H33069   8.487   4.152   5.148  1.0984  1.1999  0.4175
  245MOL0     H33070   8.538   4.000   5.227 -0.7186 -0.4749  0.8835
  245MOL0     H33071   8.497   4.244   5.398  0.9220  0.8680 -1.1786
  245MOL0     H33072   8.653   4.230   5.325 -0.7172  0.7085 -1.1098
  245MOL0     H33073   8.693   3.954   5.641  0.8954  0.1188  0.4304
  245MOL0     H33074   8.096   4.378   5.273  2.4780 -2.9834 -0.0051
  245MOL0     H33075   7.861   4.450   5.318 -0.5650 -1.0413  0.5204
  246MOL0     O33076  10.378   6.468   5.263 -0.6280  0.1981  0.5771
  246MOL0     C33077  10.456   6.564   5.252  0.3258 -0.0512  0.7133
  246MOL0     O33078  10.468   6.664   5.343 -0.1705 -0.0393 -0.2357
  246MOL0     C33079  10.371   6.691   5.432  0.0847 -1.3505 -0.5281
  246MOL0     C33080  10.405   6.704   5.570 -0.1059 -0.2609 -0.0301
  246MOL0     C33081  10.313   6.747   5.666 -0.1836  1.0632  0.0777
  246MOL0     C33082  10.176   6.776   5.622 -0.5430  0.0208  0.2961
  246MOL0     O33083  10.082   6.822   5.716  0.9487 -0.1780 -0.0270
  246MOL0     C33084  10.100   6.807   5.854  0.9475  1.1362  0.0833
  246MOL0     C33085   9.963   6.794   5.922 -0.5512  0.9135  0.5267
  246MOL0     C33086   9.976   6.809   6.080 -0.4763  0.0607 -0.1711
  246MOL0     C33087   9.834   6.796   6.144  0.3708  0.1843  0.1543
  246MOL0     C33088   9.834   6.800   6.301 -0.2091 -0.4649  0.7314
  246MOL0     C33089   9.714   6.735   6.368  1.2105 -0.1491 -1.1352
  246MOL0     C33090   9.633   6.843   6.448 -0.4623 -0.0475  0.1899
  246MOL0     C33091   9.515   6.787   6.529  0.4930  0.2362  0.7603
  246MOL0     N33092   9.444   6.876   6.615 -1.1489 -0.0894  0.5955
  246MOL0     C33093   9.325   6.925   6.567  0.1508  0.3411  0.4364
  246MOL0     C33094   9.286   7.007   6.667  0.0712 -0.6434  0.6563
  246MOL0     C33095   9.171   7.111   6.673  0.6210  0.1430  0.8281
  246MOL0     C33096   9.027   7.055   6.677 -0.1290 -0.4855 -0.1954
  246MOL0     C33097   8.919   7.167   6.691  0.0069 -0.0015 -0.1098
  246MOL0     C33098   8.776   7.101   6.679  0.3336 -0.2170  0.1671
  246MOL0     O33099   8.735   7.091   6.545  0.2230 -0.0094 -0.1143
  246MOL0     C33100   8.600   7.092   6.535 -0.6694  0.3955 -0.3169
  246MOL0     C33101   8.549   7.182   6.445  0.0720  0.6588 -0.1456
  246MOL0     C33102   8.414   7.186   6.425  0.2925  0.4511  0.0552
  246MOL0     C33103   8.358   7.289   6.323 -0.2948  0.0267 -0.5414
  246MOL0     C33104   8.332   7.109   6.507 -0.4534  0.0715 -0.0342
  246MOL0     C33105   8.183   7.108   6.490  0.9310  0.0938  0.2923
  246MOL0     O33106   8.122   7.149   6.603 -0.4444  0.2964  0.0061
  246MOL0     C33107   7.984   7.140   6.617  0.2217 -0.1628  0.0865
  246MOL0     C33108   7.914   7.253   6.578  0.2598 -0.2031  0.8675
  246MOL0     C33109   7.780   7.257   6.584 -0.5823 -1.1085 -0.0520
  246MOL0     C33110   7.709   7.152   6.652  0.3134  0.4884  0.0791
  246MOL0     O33111   7.569   7.170   6.653  0.0313  0.0713  0.3232
  246MOL0     C33112   7.482   7.074   6.722  0.3936  0.6063  0.7246
  246MOL0     C33113   7.485   7.112   6.870 -0.3719  0.5416 -0.4709
  246MOL0     C33114   7.394   7.044   6.968  0.5346 -0.4856  0.1155
  246MOL0     C33115   7.395   6.891   6.967 -0.1462 -0.3544  0.1216
  246MOL0     C33116   7.299   6.837   7.073  0.4520 -0.1253  0.4820
  246MOL0     C33117   7.337   6.691   7.106 -0.3713  0.1394  0.7884
  246MOL0     C33118   7.315   6.667   7.255  0.3065  0.0147  0.1654
  246MOL0     C33119   7.338   6.519   7.283 -0.5472  0.2965 -0.7463
  246MOL0    Cl33120   7.503   6.484   7.245 -0.4011  0.6123  0.4136
  246MOL0     C33121   7.778   7.033   6.687 -0.0190 -0.2108 -0.8118
  246MOL0     C33122   7.919   7.029   6.685  0.8721  0.1537  0.5689
  246MOL0     O33123   8.130   7.084   6.382  0.8597  0.0623 -0.1454
  246MOL0     C33124   8.383   7.014   6.599  0.5413 -0.9682 -0.3855
  246MOL0     C33125   8.523   7.003   6.609  0.4233  0.2657 -0.4171
  246MOL0     N33126   9.392   7.010   6.762  0.2776 -0.1195 -0.4876
  246MOL0     N33127   9.487   6.938   6.726 -0.0733 -0.0517  0.8330
  246MOL0     C33128  10.145   6.760   5.485  0.2161  0.0503  0.8604
  246MOL0     C33129  10.241   6.722   5.393 -0.8373 -0.1884 -1.0960
  246MOL0     C33130  10.564   6.569   5.150 -0.0004 -0.0882 -0.4710
  246MOL0     C33131  10.633   6.686   5.122 -0.2583 -0.6919  0.1528
  246MOL0     C33132  10.735   6.679   5.036  0.0159 -0.1196  0.2433
  246MOL0     C33133  10.760   6.563   4.953  1.0598 -0.0763  0.0825
  246MOL0     O33134  10.834   6.567   4.839  0.0542  0.0235 -0.3084
  246MOL0     C33135  10.870   6.455   4.762  0.0923 -0.4107  0.4456
  246MOL0     C33136  10.759   6.419   4.665  0.0493  1.2256  0.0298
  246MOL0     C33137  10.729   6.516   4.557 -0.4247 -0.1436  0.2476
  246MOL0     C33138  10.805   6.502   4.431  0.5039  0.4745 -0.0091
  246MOL0     C33139  10.817   6.627   4.366 -0.5266  0.0645 -0.0661
  246MOL0     C33140  10.804   6.720   4.301  0.2137  0.4057  0.1681
  246MOL0     C33141  10.701   6.448   4.995 -0.1176  0.7236  0.7880
  246MOL0     C33142  10.601   6.446   5.091 -0.1912  0.0253  0.6735
  246MOL0     H33143  10.507   6.692   5.603  0.0490  1.0679 -0.0002
  246MOL0     H33144  10.348   6.768   5.766  2.4055  0.2363 -0.5749
  246MOL0     H33145  10.164   6.722   5.877  0.4789  0.8174  0.2104
  246MOL0     H33146  10.141   6.902   5.890 -0.4894  1.8368 -0.0433
  246MOL0     H33147   9.903   6.880   5.888  0.1239  1.6520  1.1650
  246MOL0     H33148   9.917   6.702   5.886 -1.4297  2.2932 -2.1497
  246MOL0     H33149  10.037   6.729   6.122 -2.6453 -1.3242  0.4948
  246MOL0     H33150  10.028   6.905   6.085  1.4339 -0.9606  0.1610
  246MOL0     H33151   9.775   6.876   6.098  0.4930  1.5110  2.1740
  246MOL0     H33152   9.789   6.705   6.105 -0.7434  0.5934  0.4471
  246MOL0     H33153   9.916   6.732   6.326  0.5900  0.9105  2.0294
  246MOL0     H33154   9.865   6.903   6.323  1.0877 -0.4102 -1.1047
  246MOL0     H33155   9.641   6.694   6.298 -2.3689 -1.2214  2.7870
  246MOL0     H33156   9.747   6.647   6.424 -0.2685 -0.6515 -1.0146
  246MOL0     H33157   9.704   6.889   6.517  0.3642 -0.2053 -0.5401
  246MOL0     H33158   9.602   6.922   6.379 -2.4054  1.0435  2.1730
  246MOL0     H33159   9.551   6.704   6.591 -0.5917 -1.5757 -0.9360
  246MOL0     H33160   9.445   6.750   6.454  0.6572  0.2426  0.6051
  246MOL0     H33161   9.278   6.900   6.473  1.7075 -1.8192  0.1572
  246MOL0     H33162   9.200   7.183   6.749  3.5060  0.0049 -0.0256
  246MOL0     H33163   9.182   7.175   6.585  1.1878  0.1333  0.8885
  246MOL0     H33164   9.022   6.984   6.760 -1.3845 -1.0766 -0.7494
  246MOL0     H33165   9.004   6.996   6.588  2.8590 -1.0546 -0.6994
  246MOL0     H33166   8.942   7.240   6.613  4.5736 -1.2546 -0.2462
  246MOL0     H33167   8.924   7.220   6.786 -2.0934 -1.7953  1.0876
  246MOL0     H33168   8.707   7.161   6.738 -0.1679 -0.5212 -0.1032
  246MOL0     H33169   8.776   6.999   6.718 -1.6404 -0.8351 -1.3219
  246MOL0     H33170   8.621   7.251   6.401  0.5687  0.8306  0.8908
  246MOL0     H33171   8.440   7.332   6.265 -0.7988 -0.8883 -1.9873
  246MOL0     H33172   8.296   7.236   6.251 -1.4246  0.6715 -0.0748
  246MOL0     H33173   8.304   7.375   6.365  2.1214  0.6764  1.4818
  246MOL0     H33174   7.970   7.338   6.540  3.0436 -1.9367  0.8069
  246MOL0     H33175   7.724   7.345   6.554 -0.7124 -1.5640 -1.2129
  246MOL0     H33176   7.380   7.072   6.683  1.1399  1.5350 -1.4054
  246MOL0     H33177   7.516   6.970   6.709 -2.4671 -0.4133  0.6087
  246MOL0     H33178   7.587   7.106   6.909 -1.1818 -1.2420  1.5465
  246MOL0     H33179   7.461   7.219   6.864 -0.3730  0.5455 -0.4001
  246MOL0     H33180   7.295   7.086   6.950  0.5708 -0.1535  0.6476
  246MOL0     H33181   7.403   7.061   7.076 -3.4161  0.8224  0.3863
  246MOL0     H33182   7.362   6.861   6.867 -0.0674  0.8551 -0.2929
  246MOL0     H33183   7.499   6.870   6.995 -0.2978  0.4505  1.3937
  246MOL0     H33184   7.198   6.844   7.033  0.2015  0.9589  1.2675
  246MOL0     H33185   7.313   6.908   7.155 -1.6278  2.3976 -1.1831
  246MOL0     H33186   7.269   6.621   7.058 -1.1733 -0.2683  2.4430
  246MOL0     H33187   7.438   6.667   7.071  0.2825  1.1255  1.8959
  246MOL0     H33188   7.214   6.700   7.281 -0.3055 -2.9623  2.1143
  246MOL0     H33189   7.377   6.735   7.314 -0.3645  0.2791  0.5778
  246MOL0     H33190   7.270   6.463   7.218  0.1194  1.0520 -2.1380
  246MOL0     H33191   7.321   6.491   7.388  0.6358  2.1055 -0.0358
  246MOL0     H33192   7.731   6.943   6.726  3.9417  0.0760  6.3800
  246MOL0     H33193   7.982   6.952   6.728  2.0148  1.4894  1.3443
  246MOL0     H33194   8.316   6.965   6.669  3.2223 -1.6213  1.8850
  246MOL0     H33195   8.575   6.925   6.662  1.5228  0.8200 -0.6400
  246MOL0     H33196  10.050   6.792   5.444  0.2773 -2.3218 -1.4557
  246MOL0     H33197  10.229   6.704   5.286 -0.5068 -3.6529 -0.6625
  246MOL0     H33198  10.613   6.777   5.178 -1.7990 -0.5851 -0.5194
  246MOL0     H33199  10.793   6.768   5.015  1.0154 -0.8382 -0.1114
  246MOL0     H33200  10.959   6.487   4.708  0.8834  0.7129  2.3305
  246MOL0     H33201  10.895   6.370   4.825 -0.9956 -0.0555  1.3902
  246MOL0     H33202  10.671   6.400   4.726 -1.0986  0.4934 -1.7757
  246MOL0     H33203  10.784   6.328   4.609 -0.0715 -0.1163  2.0674
  246MOL0     H33204  10.751   6.610   4.608  3.3152 -1.4931  1.4889
  246MOL0     H33205  10.623   6.522   4.534 -1.0503 -1.3556  2.4544
  246MOL0     H33206  10.754   6.440   4.357  0.5642  0.8250 -0.3501
  246MOL0     H33207  10.909   6.472   4.451 -0.2990 -4.1686 -1.6322
  246MOL0     H33208  10.777   6.807   4.244  0.3600 -0.2976 -0.9823
  246MOL0     H33209  10.723   6.361   4.932 -1.2206  0.2401  1.0543
  246MOL0     H33210  10.539   6.360   5.116  1.8834 -1.6114  0.4516
  247MOL0     O33211   9.457   6.200   1.678 -0.3900  0.4083  0.6188
  247MOL0     C33212   9.518   6.113   1.740 -0.0631 -0.0158  0.2059
  247MOL0     O33213   9.453   6.016   1.822  0.5599 -0.1673 -0.3493
  247MOL0     C33214   9.313   6.019   1.828 -0.6412 -0.1667 -0.0290
  247MOL0     C33215   9.237   6.024   1.942  0.6009 -0.3787  0.1583
  247MOL0     C33216   9.095   6.025   1.924 -0.1808  0.0468  0.2270
  247MOL0     C33217   9.024   6.013   1.804 -0.6947 -0.0806  0.6846
  247MOL0     O33218   8.886   6.009   1.817  0.2842  0.2805  0.1344
  247MOL0     C33219   8.814   5.978   1.701  0.4016 -0.2233  0.0024
  247MOL0     C33220   8.672   6.008   1.727 -0.7408 -0.4227 -0.1225
  247MOL0     C33221   8.612   5.929   1.842 -0.7030  0.4661  0.5294
  247MOL0     C33222   8.465   5.955   1.831  1.2844 -0.0731 -0.5262
  247MOL0     C33223   8.378   5.899   1.933 -0.3638 -0.5415  0.1650
  247MOL0     C33224   8.386   5.748   1.939  0.4651 -0.1078  1.0856
  247MOL0     C33225   8.278   5.701   2.031  0.3598  0.1083 -0.5493
  247MOL0     C33226   8.131   5.715   1.996  1.0267  0.8088 -0.0743
  247MOL0     N33227   8.042   5.646   2.094  0.1513  0.0510 -0.5143
  247MOL0     C33228   7.952   5.549   2.067  0.1926 -0.1973  0.4366
  247MOL0     C33229   7.882   5.542   2.176  0.0780  0.4117 -0.1912
  247MOL0     C33230   7.771   5.442   2.205  0.3575 -0.0453 -0.5938
  247MOL0     C33231   7.645   5.507   2.141 -0.3598  0.0517  1.0471
  247MOL0     C33232   7.529   5.421   2.162  0.1864  0.8924  0.0988
  247MOL0     C33233   7.517   5.345   2.295 -0.6380  0.5058  0.4997
  247MOL0     O33234   7.387   5.286   2.281  0.4954  0.3882  0.1247
  247MOL0     C33235   7.321   5.243   2.393 -0.1735  0.0029  0.0124
  247MOL0     C33236   7.212   5.160   2.382 -0.5277  0.4098  0.5423
  247MOL0     C33237   7.136   5.110   2.485  0.0485 -0.8274 -0.3633
  247MOL0     C33238   7.012   5.031   2.440 -0.5564 -0.1794 -0.6948
  247MOL0     C33239   7.161   5.152   2.619 -0.0521 -0.0022  0.2627
  247MOL0     C33240   7.082   5.122   2.742  1.0530 -0.5401  0.2183
  247MOL0     O33241   7.109   5.190   2.859  0.2540  0.6008  0.7867
  247MOL0     C33242   7.055   5.156   2.978 -0.3650  0.3576 -0.2267
  247MOL0     C33243   6.982   5.033   3.003  0.6678  0.2522 -0.2182
  247MOL0     C33244   6.902   5.022   3.121 -0.1523  0.0859 -0.2320
  247MOL0     C33245   6.916   5.117   3.225 -0.5706 -0.5284  0.4973
  247MOL0     O33246   6.871   5.084   3.349 -0.4179 -0.0804 -0.2217
  247MOL0     C33247   6.832   5.183   3.450  0.2001  0.1871  0.0351
  247MOL0     C33248   6.696   5.259   3.417  0.5920  0.6349  0.0366
  247MOL0     C33249   6.586   5.166   3.363 -0.2761  0.3999 -0.1006
  247MOL0     C33250   6.462   5.168   3.448 -0.7105 -0.7398 -0.5521
  247MOL0     C33251   6.351   5.074   3.390 -0.5080  0.1140 -1.2052
  247MOL0     C33252   6.293   5.119   3.259  0.1078  1.2332 -0.7113
  247MOL0     C33253   6.195   5.010   3.213  0.5502  0.4453 -0.0957
  247MOL0     C33254   6.108   5.072   3.106  0.1057 -0.2676 -0.2400
  247MOL0    Cl33255   5.969   4.978   3.103 -0.3637 -0.3415 -0.0529
  247MOL0     C33256   6.989   5.235   3.199 -0.1310  0.1531 -0.9420
  247MOL0     C33257   7.049   5.250   3.077  0.2936  0.0796  0.2784
  247MOL0     O33258   6.981   5.056   2.721  0.5131  0.4111  0.3839
  247MOL0     C33259   7.270   5.246   2.640  0.0887  0.7209  0.1049
  247MOL0     C33260   7.347   5.284   2.527  0.4448 -0.4274 -0.4186
  247MOL0     N33261   7.918   5.643   2.264 -0.8530  0.1743  0.0933
  247MOL0     N33262   8.012   5.712   2.206  0.3607  0.0671 -0.3268
  247MOL0     C33263   9.102   5.979   1.693 -0.1837  0.6207 -0.7968
  247MOL0     C33264   9.242   5.985   1.712 -0.2750 -0.5476  0.0464
  247MOL0     C33265   9.665   6.114   1.754  0.4763  0.0344  0.7476
  247MOL0     C33266   9.731   6.020   1.833  0.0334 -0.5321 -0.6025
  247MOL0     C33267   9.870   6.023   1.865  0.3975  0.2514 -0.3661
  247MOL0     C33268   9.946   6.127   1.811  0.2224  0.4997 -0.9270
  247MOL0     O33269  10.082   6.153   1.832  0.3494 -0.1763 -0.0175
  247MOL0     C33270  10.171   6.053   1.872 -0.1300 -0.0755  0.6209
  247MOL0     C33271  10.315   6.101   1.863  0.7873 -0.1744  0.5969
  247MOL0     C33272  10.368   6.140   2.001  0.0683 -1.0660 -0.1330
  247MOL0     C33273  10.519   6.159   1.999 -0.4353 -1.1776 -0.3011
  247MOL0     C33274  10.568   6.220   2.123 -0.0416  0.2427 -0.8872
  247MOL0     C33275  10.635   6.254   2.223  0.7945 -1.2157 -0.4931
  247MOL0     C33276   9.883   6.227   1.742 -0.4221  0.1738 -0.2402
  247MOL0     C33277   9.752   6.223   1.703  1.0513 -0.3962 -0.2584
  247MOL0     H33278   9.280   6.037   2.041  0.5863  1.3191 -0.0228
  247MOL0     H33279   9.033   6.046   2.011 -1.0318  1.1018 -0.6055
  247MOL0     H33280   8.843   6.040   1.615  0.8451 -1.4390 -0.7385
  247MOL0     H33281   8.828   5.878   1.660 -0.0382 -0.6357  0.8405
  247MOL0     H33282   8.664   6.117   1.736  1.3435  0.2472 -4.0431
  247MOL0     H33283   8.632   5.972   1.632  0.2090 -4.0354  0.6807
  247MOL0     H33284   8.648   5.826   1.831  3.3187  1.9099 -2.1698
  247MOL0     H33285   8.661   5.967   1.932 -0.2732  2.6802 -0.5575
  247MOL0     H33286   8.437   6.061   1.830 -3.6653 -1.1282 -1.6730
  247MOL0     H33287   8.426   5.928   1.733  0.7163  3.9747 -1.6073
  247MOL0     H33288   8.405   5.942   2.029 -1.6326 -2.6851  1.5817
  247MOL0     H33289   8.273   5.926   1.919 -0.6275 -1.4569  0.2785
  247MOL0     H33290   8.360   5.711   1.839 -0.8392  0.4031  1.2206
  247MOL0     H33291   8.482   5.711   1.976 -0.0337 -1.8696  0.6991
  247MOL0     H33292   8.315   5.599   2.048 -0.0939  0.1657  0.9544
  247MOL0     H33293   8.298   5.752   2.126 -0.6378 -1.6410  0.6585
  247MOL0     H33294   8.117   5.678   1.894 -0.8826  1.2275 -0.0129
  247MOL0     H33295   8.108   5.822   1.997  0.6381  0.7270 -0.2962
  247MOL0     H33296   7.944   5.486   1.978  1.4034  0.4656 -0.1689
  247MOL0     H33297   7.780   5.341   2.165 -0.0175 -0.2392 -0.1875
  247MOL0     H33298   7.768   5.427   2.313  1.8497 -0.5299 -0.5879
  247MOL0     H33299   7.671   5.532   2.038  0.7193 -0.2986  1.2148
  247MOL0     H33300   7.633   5.603   2.194 -2.2198  0.0196  0.7484
  247MOL0     H33301   7.519   5.346   2.083  0.9337  0.3838  0.4745
  247MOL0     H33302   7.432   5.471   2.156 -1.1653 -1.7189 -1.6410
  247MOL0     H33303   7.516   5.427   2.368  0.6953  0.0661  1.0405
  247MOL0     H33304   7.602   5.282   2.320  1.4979  4.2163  3.7803
  247MOL0     H33305   7.188   5.139   2.278 -2.4352  1.8778  0.6334
  247MOL0     H33306   6.992   4.945   2.504 -1.1841  0.3890 -0.1121
  247MOL0     H33307   6.930   5.102   2.451  0.0931  0.3931  0.8894
  247MOL0     H33308   7.021   5.002   2.335 -0.1602  0.3000 -0.7980
  247MOL0     H33309   6.988   4.960   2.923  0.4391  2.1194 -2.0406
  247MOL0     H33310   6.846   4.931   3.139  1.1012 -0.5609  0.5191
  247MOL0     H33311   6.807   5.125   3.539 -0.4143 -1.3924 -1.1215
  247MOL0     H33312   6.920   5.246   3.466 -0.7759  1.6334 -0.1222
  247MOL0     H33313   6.667   5.319   3.504  1.5903  2.2356 -0.6917
  247MOL0     H33314   6.728   5.336   3.346 -0.4010  0.6362 -0.4297
  247MOL0     H33315   6.620   5.063   3.365  1.7506  1.0426  1.3884
  247MOL0     H33316   6.578   5.201   3.260  3.5317  0.1434 -0.6135
  247MOL0     H33317   6.480   5.131   3.549 -0.4282  0.2615 -0.2195
  247MOL0     H33318   6.429   5.272   3.452 -2.0030 -1.1011 -1.1087
  247MOL0     H33319   6.279   5.068   3.472  3.2126 -0.5808  2.3379
  247MOL0     H33320   6.402   4.977   3.380 -0.2443  0.0361  0.5536
  247MOL0     H33321   6.247   5.218   3.269  0.4229  1.4664 -1.4825
  247MOL0     H33322   6.373   5.142   3.187  1.9409  0.1553  0.8887
  247MOL0     H33323   6.132   4.984   3.298  1.8751 -0.3634  0.6746
  247MOL0     H33324   6.247   4.923   3.173 -1.1814 -0.1966 -1.0707
  247MOL0     H33325   6.162   5.097   3.015 -0.1117  0.0898 -0.2738
  247MOL0     H33326   6.078   5.173   3.136 -4.3676 -2.1852  2.8712
  247MOL0     H33327   6.986   5.319   3.269 -1.1001  1.5313 -2.5412
  247MOL0     H33328   7.085   5.349   3.051 -1.9484  0.5162 -1.4767
  247MOL0     H33329   7.293   5.294   2.735  0.1920  0.9188 -0.0212
  247MOL0     H33330   7.431   5.350   2.544  0.9087 -1.2417  0.5413
  247MOL0     H33331   9.060   5.957   1.596 -2.2227 -1.1500  0.4110
  247MOL0     H33332   9.297   5.968   1.619 -2.9667 -2.9261 -1.2631
  247MOL0     H33333   9.684   5.948   1.900 -1.1766 -0.1085 -0.9633
  247MOL0     H33334   9.903   5.950   1.939 -3.0577 -0.3377  0.7688
  247MOL0     H33335  10.140   6.010   1.968  1.6182 -0.3892  1.0826
  247MOL0     H33336  10.164   5.966   1.806  1.3366 -2.7604  3.6838
  247MOL0     H33337  10.327   6.179   1.788  2.4667 -0.5195  0.4687
  247MOL0     H33338  10.380   6.023   1.822  1.7412  0.0798  1.5887
  247MOL0     H33339  10.362   6.071   2.085  1.4361 -0.3811  0.5582
  247MOL0     H33340  10.325   6.233   2.039  0.9047 -0.6941 -0.0735
  247MOL0     H33341  10.541   6.224   1.914  1.1269 -0.8078  0.3629
  247MOL0     H33342  10.574   6.065   1.991  1.9977 -0.1321  2.3941
  247MOL0     H33343  10.677   6.267   2.321 -1.8674  0.0604  0.5920
  247MOL0     H33344   9.942   6.306   1.696 -1.9456  1.9941  0.7574
  247MOL0     H33345   9.702   6.297   1.642 -0.0643 -0.7060  0.2557
  248MOL0     O33346   8.470   6.441   8.148  0.1764  0.7359  0.1120
  248MOL0     C33347   8.471   6.460   8.270 -0.5600 -0.3731 -0.8296
  248MOL0     O33348   8.367   6.460   8.357  0.1741  0.5366  0.5522
  248MOL0     C33349   8.243   6.422   8.307 -0.5193 -0.0879  0.1435
  248MOL0     C33350   8.216   6.305   8.231 -0.7718  0.0313  0.1561
  248MOL0     C33351   8.091   6.254   8.210 -0.5665 -0.9400 -0.0005
  248MOL0     C33352   7.977   6.323   8.254 -0.3771 -0.0545  0.7533
  248MOL0     O33353   7.859   6.275   8.224  1.1794  0.8546 -0.6348
  248MOL0     C33354   7.739   6.337   8.269 -0.6952 -0.0193  0.1163
  248MOL0     C33355   7.638   6.217   8.280  1.0370  0.3741 -0.1761
  248MOL0     C33356   7.501   6.274   8.262  0.7143 -0.5790  0.7440
  248MOL0     C33357   7.394   6.161   8.279 -0.3624  1.0732  0.5225
  248MOL0     C33358   7.259   6.216   8.234 -0.3144 -0.0794  0.5181
  248MOL0     C33359   7.156   6.256   8.340 -0.3522 -0.0569 -0.2315
  248MOL0     C33360   7.174   6.400   8.387  0.2123 -0.0470 -0.9891
  248MOL0     C33361   7.094   6.400   8.517  0.0557  0.3355  1.1916
  248MOL0     N33362   7.082   6.538   8.571 -0.1174  0.1138  0.4289
  248MOL0     C33363   7.181   6.605   8.639  0.1418 -0.0765  0.4857
  248MOL0     C33364   7.143   6.732   8.625  0.2180  0.0661  0.5944
  248MOL0     C33365   7.231   6.849   8.666  0.5541 -0.1356  0.4649
  248MOL0     C33366   7.156   6.923   8.782 -0.2709  0.0557  0.2174
  248MOL0     C33367   7.224   7.058   8.810  0.3812 -0.1525 -0.9904
  248MOL0     C33368   7.164   7.130   8.928 -0.2588  0.3143  0.3592
  248MOL0     O33369   7.025   7.154   8.900  0.1692  0.3244  0.1767
  248MOL0     C33370   6.987   7.276   8.852 -0.1737  0.2006  0.1406
  248MOL0     C33371   6.877   7.277   8.762  0.3191  0.7785  0.0716
  248MOL0     C33372   6.824   7.396   8.707  0.5562  0.1410 -1.0351
  248MOL0     C33373   6.713   7.382   8.611  0.5388  0.3770  0.4313
  248MOL0     C33374   6.882   7.519   8.754  0.0918  0.7461  0.3490
  248MOL0     C33375   6.826   7.657   8.729  0.4413 -0.6076 -0.3547
  248MOL0     O33376   6.923   7.761   8.737 -0.2743 -0.0642 -0.0385
  248MOL0     C33377   6.872   7.881   8.770  0.3347  0.7618  0.1856
  248MOL0     C33378   6.831   7.960   8.664  0.9359  0.7940 -0.7611
  248MOL0     C33379   6.777   8.086   8.700 -0.2181  0.0495  0.2395
  248MOL0     C33380   6.762   8.128   8.831  0.2094  0.3932  0.4885
  248MOL0     O33381   6.705   8.245   8.856 -0.5280  0.3525 -0.4549
  248MOL0     C33382   6.599   8.239   8.952 -0.2375 -0.0915 -0.1089
  248MOL0     C33383   6.501   8.355   8.921  0.0959 -0.0230  0.3222
  248MOL0     C33384   6.369   8.344   9.005  0.8061 -0.2805  0.3433
  248MOL0     C33385   6.395   8.323   9.153  0.3480  0.0277 -0.0397
  248MOL0     C33386   6.261   8.320   9.230 -0.8406 -0.3874 -0.2001
  248MOL0     C33387   6.266   8.264   9.370  1.1122 -0.0743  0.4746
  248MOL0     C33388   6.143   8.300   9.450 -0.0140  0.1147 -0.1163
  248MOL0     C33389   6.036   8.200   9.420 -0.0363  0.0406  0.0386
  248MOL0    Cl33390   5.884   8.258   9.505  0.1459  0.3304 -0.0402
  248MOL0     C33391   6.803   8.039   8.935 -0.4350  0.3630  0.0079
  248MOL0     C33392   6.861   7.919   8.902  0.1344  0.6662  0.4257
  248MOL0     O33393   6.701   7.666   8.703  0.6513  0.5653  0.2318
  248MOL0     C33394   6.992   7.506   8.837  0.3843 -0.5342 -0.0617
  248MOL0     C33395   7.046   7.392   8.881 -0.9685 -0.3554 -0.2753
  248MOL0     N33396   7.027   6.744   8.557  0.1231  0.0875 -0.0222
  248MOL0     N33397   6.986   6.628   8.521  0.3556 -0.8549 -1.0155
  248MOL0     C33398   8.005   6.442   8.335  0.6440 -0.3089 -0.4616
  248MOL0     C33399   8.133   6.494   8.359  0.4630 -1.2238  0.5449
  248MOL0     C33400   8.605   6.504   8.332  0.6925  0.3391  0.4992
  248MOL0     C33401   8.622   6.518   8.470 -0.1819 -0.7959 -1.0167
  248MOL0     C33402   8.748   6.558   8.513  0.5283  0.5055  0.3030
  248MOL0     C33403   8.856   6.580   8.421 -1.1677 -0.5050 -0.0190
  248MOL0     O33404   8.986   6.606   8.451  0.7832  0.0222 -0.3290
  248MOL0     C33405   9.017   6.681   8.571  0.1461  0.2616  0.9389
  248MOL0     C33406   9.162   6.726   8.564 -0.4685  0.4107 -0.4380
  248MOL0     C33407   9.194   6.799   8.692  0.2605 -0.3286 -0.5700
  248MOL0     C33408   9.336   6.839   8.713  0.0821 -0.6171 -0.5110
  248MOL0     C33409   9.358   6.918   8.838 -0.0455 -0.3618  0.4383
  248MOL0     C33410   9.392   6.998   8.918 -0.4851  0.5263 -1.0778
  248MOL0     C33411   8.834   6.553   8.292 -0.4118  0.2948  0.2247
  248MOL0     C33412   8.708   6.534   8.243  0.1555 -0.5864 -0.3592
  248MOL0     H33413   8.302   6.245   8.205  2.1370  3.0491  2.0627
  248MOL0     H33414   8.064   6.161   8.162 -2.1511 -0.1148 -0.7973
  248MOL0     H33415   7.749   6.388   8.365 -1.1459  1.2652 -0.5000
  248MOL0     H33416   7.717   6.412   8.192  2.7375  2.3701  1.1878
  248MOL0     H33417   7.653   6.140   8.203  0.3910 -1.4154  1.4003
  248MOL0     H33418   7.649   6.170   8.378 -0.6109  3.2052  1.4795
  248MOL0     H33419   7.478   6.351   8.337 -0.8527  0.7366 -0.9875
  248MOL0     H33420   7.495   6.321   8.164  0.6465 -3.3463 -0.6452
  248MOL0     H33421   7.421   6.072   8.222 -2.2623 -0.7345  2.2502
  248MOL0     H33422   7.395   6.128   8.383 -0.2611  0.7263  0.4107
  248MOL0     H33423   7.269   6.292   8.156  2.9894 -1.1172 -0.2252
  248MOL0     H33424   7.203   6.135   8.186 -2.7918  2.3499 -0.9784
  248MOL0     H33425   7.052   6.254   8.306 -0.8475 -1.4726  1.2436
  248MOL0     H33426   7.169   6.192   8.428  2.0602 -0.7854 -1.0454
  248MOL0     H33427   7.279   6.425   8.403 -0.2183  0.3568  1.6263
  248MOL0     H33428   7.135   6.471   8.313 -0.6545  0.3475 -0.1693
  248MOL0     H33429   7.149   6.344   8.593  0.2338 -0.3816  0.5382
  248MOL0     H33430   6.998   6.352   8.495  0.1812  0.3720  0.5383
  248MOL0     H33431   7.279   6.581   8.680 -0.7578 -1.0312  2.1987
  248MOL0     H33432   7.332   6.819   8.696  0.3240 -1.7497 -0.2789
  248MOL0     H33433   7.247   6.916   8.581  0.4966 -3.8667 -2.7779
  248MOL0     H33434   7.146   6.853   8.866  0.3730  0.7614  0.8872
  248MOL0     H33435   7.053   6.933   8.746 -0.2135 -1.6343 -0.5056
  248MOL0     H33436   7.213   7.134   8.732  1.6040  2.9827  1.6644
  248MOL0     H33437   7.331   7.044   8.831  0.5104  1.1144 -0.7617
  248MOL0     H33438   7.214   7.226   8.945 -0.0389  0.9546 -3.2215
  248MOL0     H33439   7.176   7.076   9.022 -0.7556 -0.3796  0.0304
  248MOL0     H33440   6.837   7.182   8.728  0.8535  1.1751 -1.8121
  248MOL0     H33441   6.650   7.471   8.601 -1.3082 -0.5721  2.4637
  248MOL0     H33442   6.751   7.355   8.513  0.6552  0.0439  0.5677
  248MOL0     H33443   6.648   7.300   8.646 -0.6230  1.9393  2.1444
  248MOL0     H33444   6.816   7.913   8.567  1.3815  1.8971 -1.3825
  248MOL0     H33445   6.734   8.141   8.616 -2.7307 -0.2078  1.2706
  248MOL0     H33446   6.549   8.143   8.938  0.8498 -0.6678 -0.1599
  248MOL0     H33447   6.639   8.250   9.054  0.5062 -0.9010 -0.2989
  248MOL0     H33448   6.546   8.454   8.921  0.7454 -0.2922 -1.0131
  248MOL0     H33449   6.475   8.352   8.815  2.5123 -2.2776 -0.2962
  248MOL0     H33450   6.314   8.253   8.980  0.3965  0.4986 -1.7421
  248MOL0     H33451   6.299   8.427   8.994 -0.9111 -1.3888  2.1209
  248MOL0     H33452   6.450   8.228   9.162  1.6446  0.7066 -0.6077
  248MOL0     H33453   6.455   8.405   9.192 -0.2827  0.5184 -0.0826
  248MOL0     H33454   6.189   8.261   9.174 -1.1856  0.6447 -0.8789
  248MOL0     H33455   6.219   8.420   9.243 -4.0529 -1.8400  2.0014
  248MOL0     H33456   6.276   8.157   9.349  0.8833  0.0041 -0.0627
  248MOL0     H33457   6.357   8.299   9.420  0.5534  1.0377  0.7290
  248MOL0     H33458   6.097   8.393   9.417  0.4991 -0.8694 -4.0248
  248MOL0     H33459   6.170   8.289   9.556 -0.5204  2.5814  0.3361
  248MOL0     H33460   6.066   8.103   9.459 -1.2649 -0.6875 -0.7692
  248MOL0     H33461   6.016   8.209   9.312 -0.1663  0.0409  0.0629
  248MOL0     H33462   6.782   8.049   9.042 -2.7281 -1.5010 -0.1774
  248MOL0     H33463   6.901   7.857   8.982 -1.8765  1.2243  1.9593
  248MOL0     H33464   7.039   7.592   8.884 -0.8895 -0.6681  1.5582
  248MOL0     H33465   7.131   7.398   8.948 -1.7016  0.2315  0.6220
  248MOL0     H33466   7.927   6.501   8.381  3.1582  1.4634  1.8901
  248MOL0     H33467   8.154   6.585   8.414 -0.7265  1.1779 -2.6966
  248MOL0     H33468   8.542   6.502   8.542  0.4952  0.1018 -0.0480
  248MOL0     H33469   8.765   6.565   8.620 -0.8135 -2.3538  0.8010
  248MOL0     H33470   8.950   6.767   8.582  0.0875  0.4317 -0.5825
  248MOL0     H33471   9.008   6.614   8.657  1.0066 -1.7025 -0.4327
  248MOL0     H33472   9.189   6.790   8.479  0.2203  0.5182 -0.1394
  248MOL0     H33473   9.228   6.639   8.557 -0.0373  0.4792  2.0387
  248MOL0     H33474   9.155   6.743   8.777 -1.6621  1.3706 -0.2368
  248MOL0     H33475   9.126   6.885   8.687  1.0757  0.3835  0.1537
  248MOL0     H33476   9.371   6.899   8.629 -1.2063  0.7446 -0.1375
  248MOL0     H33477   9.390   6.744   8.719  0.0524 -0.6380 -0.5704
  248MOL0     H33478   9.434   7.063   8.992 -0.3046 -1.4826  0.6683
  248MOL0     H33479   8.918   6.547   8.224 -1.2922 -1.1934 -0.7809
  248MOL0     H33480   8.688   6.528   8.136  0.4769  0.5192 -0.4950
  249MOL0     O33481   1.231   0.118   4.008  0.2447 -0.2880  0.2830
  249MOL0     C33482   1.224   0.067   3.898 -0.6106 -0.6774 -0.4013
  249MOL0     O33483   1.110   0.027   3.835 -0.2883  0.3165  0.2938
  249MOL0     C33484   0.977   0.041   3.878 -0.0693 -1.2149 -0.1590
  249MOL0     C33485   0.882  -0.038   3.812  0.7059 -0.2751 -0.4745
  249MOL0     C33486   0.744  -0.012   3.836 -1.1204 -0.3183  0.2345
  249MOL0     C33487   0.708   0.074   3.939  0.6591  0.3618  0.2306
  249MOL0     O33488   0.578   0.095   3.985  0.1549  0.5085 -0.4043
  249MOL0     C33489   0.484  -0.007   3.970  0.4075  0.0477 -0.1802
  249MOL0     C33490   0.368   0.006   4.071  0.2913  0.6488 -0.3647
  249MOL0     C33491   0.252  -0.083   4.025  0.0305 -0.3754 -0.6533
  249MOL0     C33492   0.159  -0.112   4.143  0.1135  0.0915 -0.0439
  249MOL0     C33493   0.026  -0.197   4.100 -0.2518 -0.5087 -0.3191
  249MOL0     C33494  -0.077  -0.115   4.017 -0.1895  0.1699 -0.0363
  249MOL0     C33495  -0.217  -0.181   3.998 -0.0969  0.6591 -0.7905
  249MOL0     C33496  -0.312  -0.129   4.107  0.1280  0.0766  0.6123
  249MOL0     N33497  -0.439  -0.203   4.092 -0.4350 -0.2540  0.4419
  249MOL0     C33498  -0.520  -0.222   3.978 -0.0893  0.3629  0.1913
  249MOL0     C33499  -0.634  -0.277   4.021 -0.7337  0.7450  0.1402
  249MOL0     C33500  -0.732  -0.320   3.930 -0.1205 -0.1327  0.6949
  249MOL0     C33501  -0.858  -0.359   4.007 -0.1381 -0.7422 -0.3428
  249MOL0     C33502  -0.974  -0.371   3.905  0.0140  0.3627  0.5878
  249MOL0     C33503  -1.087  -0.458   3.966 -0.2829 -0.4715  0.5161
  249MOL0     O33504  -1.154  -0.402   4.079 -0.5134  0.4007 -0.8811
  249MOL0     C33505  -1.245  -0.476   4.148  0.1586 -1.0223  0.1353
  249MOL0     C33506  -1.309  -0.593   4.095 -0.2092 -1.3736  0.0400
  249MOL0     C33507  -1.410  -0.649   4.167  1.6815 -0.5038 -0.0088
  249MOL0     C33508  -1.463  -0.773   4.099  0.0464  0.2045  0.0820
  249MOL0     C33509  -1.451  -0.592   4.294  0.1427 -0.5412  0.4587
  249MOL0     C33510  -1.578  -0.632   4.370 -0.7519  0.4271 -0.5720
  249MOL0     O33511  -1.650  -0.741   4.342 -0.4034 -0.2492 -0.6670
  249MOL0     C33512  -1.762  -0.782   4.410 -0.6223  0.2898 -0.9430
  249MOL0     C33513  -1.883  -0.788   4.346 -0.7457  0.5054  0.1372
  249MOL0     C33514  -1.992  -0.852   4.418 -0.2557 -0.4749 -0.1613
  249MOL0     C33515  -1.980  -0.901   4.553  0.4804 -0.0013  0.6565
  249MOL0     O33516  -2.099  -0.949   4.615  0.2680  0.0590  0.6840
  249MOL0     C33517  -2.102  -0.975   4.754  0.4488  0.3100  0.3435
  249MOL0     C33518  -2.227  -1.040   4.796  0.0200 -0.4296 -0.1622
  249MOL0     C33519  -2.357  -0.967   4.744 -0.2645 -0.1914  0.5115
  249MOL0     C33520  -2.477  -1.061   4.767 -0.6680  0.1826 -1.1612
  249MOL0     C33521  -2.599  -0.971   4.749 -0.8767  0.0344  0.7296
  249MOL0     C33522  -2.717  -1.066   4.772  0.3255  0.6033  0.2833
  249MOL0     C33523  -2.849  -0.993   4.740 -0.4347 -0.6116 -1.0660
  249MOL0     C33524  -2.956  -1.097   4.719  0.4350  0.7404  1.0227
  249MOL0    Cl33525  -2.981  -1.197   4.875  0.1502  0.5063  0.1501
  249MOL0     C33526  -1.859  -0.890   4.612  0.3577  0.5616  0.6323
  249MOL0     C33527  -1.752  -0.831   4.540 -0.1827 -0.2652  0.1315
  249MOL0     O33528  -1.596  -0.565   4.473  0.6872 -0.7949  0.5740
  249MOL0     C33529  -1.369  -0.481   4.346 -0.0056 -0.6930  0.5232
  249MOL0     C33530  -1.268  -0.430   4.270 -0.4116  0.5987  0.1934
  249MOL0     N33531  -0.622  -0.296   4.160  0.2245  0.0592 -0.3978
  249MOL0     N33532  -0.507  -0.257   4.198 -0.1618  0.6624  0.0371
  249MOL0     C33533   0.797   0.138   4.015  0.3598  0.1646  0.0751
  249MOL0     C33534   0.935   0.128   3.983  1.2145 -0.0592 -0.1640
  249MOL0     C33535   1.357   0.036   3.835  0.0041 -0.8029  0.1161
  249MOL0     C33536   1.460  -0.036   3.902  0.2768 -0.4213  0.3952
  249MOL0     C33537   1.583  -0.056   3.839 -0.0206  0.4739 -0.5645
  249MOL0     C33538   1.609  -0.024   3.709  0.9271  0.1122 -0.1532
  249MOL0     O33539   1.725  -0.039   3.642 -0.2603 -0.5088  0.2815
  249MOL0     C33540   1.772  -0.170   3.639 -0.3781 -0.1638 -0.2603
  249MOL0     C33541   1.910  -0.205   3.571  0.4947 -0.2615 -0.5071
  249MOL0     C33542   2.022  -0.113   3.612 -0.3883  0.0691 -0.5066
  249MOL0     C33543   2.151  -0.152   3.538 -0.1041  1.1229 -0.8184
  249MOL0     C33544   2.239  -0.039   3.529  0.2547 -0.3252 -1.0999
  249MOL0     C33545   2.322   0.048   3.523  0.9381 -0.1972  0.7358
  249MOL0     C33546   1.500   0.042   3.650  0.2519  0.6527 -0.1681
  249MOL0     C33547   1.383   0.076   3.708 -0.2656  0.3748 -0.1168
  249MOL0     H33548   0.920  -0.114   3.744 -2.3270 -1.9927 -0.4236
  249MOL0     H33549   0.680  -0.078   3.778  1.2656 -1.1646 -1.6045
  249MOL0     H33550   0.453  -0.004   3.865 -0.7233 -0.3793  0.1218
  249MOL0     H33551   0.537  -0.099   3.997 -1.1233 -0.2628  1.9661
  249MOL0     H33552   0.396  -0.027   4.171  0.2432  0.9890 -0.2393
  249MOL0     H33553   0.333   0.108   4.086  1.4790  0.8150  1.5507
  249MOL0     H33554   0.190  -0.037   3.947 -0.2549 -2.1309 -1.5269
  249MOL0     H33555   0.292  -0.180   3.994 -1.2516 -0.1836 -3.2283
  249MOL0     H33556   0.214  -0.174   4.215  0.9757  0.1020 -0.6776
  249MOL0     H33557   0.120  -0.020   4.188 -0.2443 -0.5568  1.0151
  249MOL0     H33558   0.060  -0.287   4.049 -1.7919 -1.1569 -0.2375
  249MOL0     H33559  -0.035  -0.219   4.188 -0.0174  1.5041  0.4090
  249MOL0     H33560  -0.102  -0.023   4.070  1.1608 -1.2442  3.2810
  249MOL0     H33561  -0.034  -0.092   3.919  2.0311 -2.8077  0.1080
  249MOL0     H33562  -0.252  -0.164   3.896 -2.4436 -2.0376 -0.5288
  249MOL0     H33563  -0.215  -0.290   4.006 -0.2121  0.5897 -1.5886
  249MOL0     H33564  -0.344  -0.027   4.083 -0.9116 -0.1500  0.9788
  249MOL0     H33565  -0.280  -0.133   4.212  0.2122  0.2222  0.5930
  249MOL0     H33566  -0.482  -0.206   3.878 -1.2626  2.6709  0.0330
  249MOL0     H33567  -0.744  -0.240   3.856  0.3903  0.5292  1.3119
  249MOL0     H33568  -0.691  -0.407   3.879 -0.0749 -1.4605  2.8846
  249MOL0     H33569  -0.884  -0.293   4.090  3.3463 -1.9109  1.9120
  249MOL0     H33570  -0.836  -0.457   4.051  1.7477 -2.0915 -3.8449
  249MOL0     H33571  -0.942  -0.415   3.810  0.9269 -0.0124  1.0632
  249MOL0     H33572  -1.004  -0.269   3.878  0.9161  0.2820 -0.8050
  249MOL0     H33573  -1.044  -0.556   3.989 -1.0351 -1.2861 -1.3653
  249MOL0     H33574  -1.152  -0.483   3.882  0.9777  1.7557 -1.2500
  249MOL0     H33575  -1.268  -0.633   4.003  2.5682  0.5719  0.3021
  249MOL0     H33576  -1.406  -0.797   4.008 -0.6950  2.9778 -1.2107
  249MOL0     H33577  -1.455  -0.856   4.169 -1.0255  0.1231  0.1157
  249MOL0     H33578  -1.566  -0.763   4.062  0.9749  1.9809 -2.3263
  249MOL0     H33579  -1.894  -0.752   4.245 -2.9047  1.0527  0.5213
  249MOL0     H33580  -2.094  -0.846   4.381  0.2854  4.5484 -1.5672
  249MOL0     H33581  -2.030  -1.050   4.789 -1.6393 -2.3265 -0.6655
  249MOL0     H33582  -2.094  -0.880   4.808 -0.7105 -0.7378  2.5003
  249MOL0     H33583  -2.216  -1.146   4.769  2.6670  0.0044 -1.1320
  249MOL0     H33584  -2.234  -1.022   4.904 -2.5254  0.8082 -0.4808
  249MOL0     H33585  -2.349  -0.934   4.639  1.9679 -0.9015  0.4229
  249MOL0     H33586  -2.373  -0.870   4.793 -0.7319  0.6781 -1.2547
  249MOL0     H33587  -2.493  -1.143   4.697 -0.9650 -1.1768  0.4368
  249MOL0     H33588  -2.463  -1.102   4.867  2.2126  1.0592 -1.1116
  249MOL0     H33589  -2.607  -0.940   4.644 -0.3762 -0.7143  0.4571
  249MOL0     H33590  -2.604  -0.894   4.825 -1.3355  0.5261  0.2081
  249MOL0     H33591  -2.717  -1.155   4.709 -5.5355  0.6347 -0.2263
  249MOL0     H33592  -2.726  -1.103   4.875 -1.2509  2.8813  1.0347
  249MOL0     H33593  -2.832  -0.925   4.656  1.1704  1.2775  0.6875
  249MOL0     H33594  -2.877  -0.930   4.824 -0.6342 -1.0519 -0.8018
  249MOL0     H33595  -2.936  -1.165   4.635  1.7219  3.4113 -0.9800
  249MOL0     H33596  -3.049  -1.046   4.695  0.0163  0.2189  1.5067
  249MOL0     H33597  -1.847  -0.916   4.717  1.8361  0.9713  0.5897
  249MOL0     H33598  -1.657  -0.826   4.592 -0.4807  2.6399  0.5760
  249MOL0     H33599  -1.392  -0.442   4.445  4.9959 -0.8744  2.0163
  249MOL0     H33600  -1.216  -0.339   4.299 -0.7156  0.5462  0.9228
  249MOL0     H33601   0.760   0.205   4.093  1.2356  0.7230  0.0327
  249MOL0     H33602   0.999   0.174   4.057 -0.8748  0.1046  1.6708
  249MOL0     H33603   1.451  -0.057   4.008  4.9710  0.7357  1.2354
  249MOL0     H33604   1.672  -0.086   3.894  0.6777  2.6599 -0.4236
  249MOL0     H33605   1.780  -0.192   3.746 -1.1033  2.0813  0.2929
  249MOL0     H33606   1.694  -0.234   3.596 -0.0300  0.5870 -2.0651
  249MOL0     H33607   1.894  -0.202   3.463 -1.2396  0.3344 -0.2599
  249MOL0     H33608   1.938  -0.309   3.591  0.7076  0.0701  1.0870
  249MOL0     H33609   2.033  -0.121   3.721 -1.2595  0.5297 -0.3682
  249MOL0     H33610   1.988  -0.011   3.591  0.7945 -0.0845 -3.6149
  249MOL0     H33611   2.132  -0.186   3.436 -1.3648 -0.7969 -0.0067
  249MOL0     H33612   2.187  -0.231   3.605 -1.1287  0.6528 -0.8019
  249MOL0     H33613   2.389   0.132   3.519  1.7570 -0.6958  2.9294
  249MOL0     H33614   1.509   0.076   3.548 -1.3979  0.5718 -0.3626
  249MOL0     H33615   1.315   0.137   3.650  0.8835 -0.3189 -2.3034
  250MOL0     O33616   4.316  10.650  11.131 -0.3982  0.0399 -0.1832
  250MOL0     C33617   4.428  10.607  11.096 -0.2745 -0.8238  0.1611
  250MOL0     O33618   4.456  10.492  11.020 -0.1793  0.4559 -0.3624
  250MOL0     C33619   4.356  10.422  10.955  0.8047 -0.3042 -0.3309
  250MOL0     C33620   4.378  10.393  10.823 -0.1963 -0.3705  0.9817
  250MOL0     C33621   4.281  10.306  10.750 -0.2098  0.5366  0.3127
  250MOL0     C33622   4.168  10.257  10.820  0.2479 -0.1387  0.7372
  250MOL0     O33623   4.080  10.181  10.740  0.4641  0.5513 -0.8825
  250MOL0     C33624   3.973  10.113  10.808 -1.0667 -0.5165  0.6119
  250MOL0     C33625   3.856  10.207  10.831 -0.4548  0.3760 -0.3270
  250MOL0     C33626   3.729  10.156  10.915  0.1357 -0.0743 -0.2848
  250MOL0     C33627   3.635  10.265  10.952  0.1647 -0.6801  0.3027
  250MOL0     C33628   3.514  10.221  11.031 -0.0327  0.2159 -0.4830
  250MOL0     C33629   3.454  10.338  11.107  0.0442 -0.0157 -0.9228
  250MOL0     C33630   3.326  10.290  11.179 -0.2938 -0.7500 -0.2918
  250MOL0     C33631   3.289  10.386  11.303 -0.7517  0.5067  0.5512
  250MOL0     N33632   3.175  10.340  11.381 -0.2377 -0.6602 -0.5378
  250MOL0     C33633   3.098  10.227  11.348  0.7157  0.2677  0.1941
  250MOL0     C33634   3.009  10.226  11.448  0.0020 -0.6243 -1.1710
  250MOL0     C33635   2.886  10.132  11.450 -0.4230 -0.2784 -1.0394
  250MOL0     C33636   2.764  10.190  11.368  0.2935 -0.5079 -0.4775
  250MOL0     C33637   2.705  10.326  11.416 -0.8623  0.4161  0.7783
  250MOL0     C33638   2.565  10.343  11.353  0.2223 -0.4533 -0.0764
  250MOL0     O33639   2.552  10.299  11.211  0.1578  0.2765 -0.7070
  250MOL0     C33640   2.427  10.284  11.151 -0.2754 -0.7502 -1.3788
  250MOL0     C33641   2.311  10.331  11.192  0.9364 -0.0304 -0.4725
  250MOL0     C33642   2.189  10.316  11.120  1.0186  0.4447 -0.4991
  250MOL0     C33643   2.078  10.407  11.183 -0.0833  0.2701  1.2620
  250MOL0     C33644   2.182  10.249  11.000  0.5798  0.2220 -0.5609
  250MOL0     C33645   2.055  10.220  10.914  0.1328 -0.7641 -0.5416
  250MOL0     O33646   2.075  10.171  10.788 -0.0636  0.6022  0.2258
  250MOL0     C33647   1.974  10.175  10.699  0.3884  0.1135  0.5201
  250MOL0     C33648   1.976  10.257  10.584 -0.5746  0.2658 -0.2964
  250MOL0     C33649   1.880  10.245  10.485  0.0009 -0.0074 -0.4577
  250MOL0     C33650   1.781  10.151  10.493  0.1146 -1.0492  0.2448
  250MOL0     O33651   1.678  10.149  10.396  0.9854 -0.8274 -0.0354
  250MOL0     C33652   1.565  10.065  10.420  0.7262  0.2510  1.2922
  250MOL0     C33653   1.464  10.090  10.306  0.3221 -1.4684  0.6067
  250MOL0     C33654   1.321  10.070  10.351  0.3344 -0.0343  0.2884
  250MOL0     C33655   1.224  10.101  10.232 -0.4917  0.2845  0.7183
  250MOL0     C33656   1.084  10.066  10.265 -0.0404 -0.4616 -0.2753
  250MOL0     C33657   1.056   9.915  10.228 -0.4318 -0.5504 -0.0081
  250MOL0     C33658   0.908   9.888  10.269  0.2126 -0.2719 -0.2628
  250MOL0     C33659   0.869   9.738  10.257  0.2479  0.2749  0.0139
  250MOL0    Cl33660   0.993   9.648  10.336 -0.2530  0.2931  0.0009
  250MOL0     C33661   1.776  10.077  10.615 -0.0432  0.2527  0.1100
  250MOL0     C33662   1.873  10.084  10.715  0.9582  0.7346  0.7826
  250MOL0     O33663   1.942  10.242  10.958  0.1258  0.4552 -0.0179
  250MOL0     C33664   2.304  10.189  10.959  0.3319 -0.6953 -0.0678
  250MOL0     C33665   2.425  10.217  11.030  0.2344  0.7152  0.3097
  250MOL0     N33666   3.028  10.336  11.534  0.1354  0.9686 -0.4242
  250MOL0     N33667   3.137  10.401  11.498  0.0264 -0.4878  0.1329
  250MOL0     C33668   4.144  10.304  10.950 -0.7015 -0.6149 -1.1227
  250MOL0     C33669   4.242  10.379  11.024  0.5795  0.0340 -0.5372
  250MOL0     C33670   4.549  10.692  11.134  0.7385  0.6480  0.7305
  250MOL0     C33671   4.681  10.655  11.105  0.0902  0.0476  0.1327
  250MOL0     C33672   4.781  10.747  11.130 -0.2508  0.9263 -0.6671
  250MOL0     C33673   4.765  10.874  11.189 -0.1490 -0.4392 -0.8058
  250MOL0     O33674   4.861  10.960  11.242 -0.1020  0.4594 -1.0416
  250MOL0     C33675   5.005  10.916  11.227 -0.1158 -0.6171  0.0163
  250MOL0     C33676   5.112  11.016  11.269  0.2264  0.2695  0.6357
  250MOL0     C33677   5.247  10.944  11.305  0.3659 -0.5521 -0.1149
  250MOL0     C33678   5.332  10.921  11.177  0.6959  0.2326 -0.5085
  250MOL0     C33679   5.383  11.048  11.115 -0.4098 -1.0622 -0.1276
  250MOL0     C33680   5.434  11.149  11.058 -0.4309 -0.1306  0.3241
  250MOL0     C33681   4.633  10.906  11.223  0.2588 -1.2340 -0.4152
  250MOL0     C33682   4.528  10.819  11.194 -0.2751 -0.0065 -0.0166
  250MOL0     H33683   4.472  10.420  10.775  0.3923 -0.0936  2.2582
  250MOL0     H33684   4.294  10.271  10.648 -1.3155  0.5163  0.1688
  250MOL0     H33685   3.945  10.029  10.743 -1.4203  2.9652 -4.3025
  250MOL0     H33686   4.006  10.085  10.908  0.0639  2.1550  1.0641
  250MOL0     H33687   3.897  10.293  10.883  1.6444  0.2759 -1.7199
  250MOL0     H33688   3.822  10.222  10.728  0.3709  0.4684 -0.5868
  250MOL0     H33689   3.677  10.071  10.870 -0.6086  0.3451 -0.2249
  250MOL0     H33690   3.778  10.125  11.007  3.2338  1.7004 -1.1784
  250MOL0     H33691   3.684  10.346  11.007  1.5733  0.5876 -2.6187
  250MOL0     H33692   3.593  10.304  10.859  0.0059 -1.9025 -0.1578
  250MOL0     H33693   3.434  10.175  10.973 -1.7105 -1.0122  2.5668
  250MOL0     H33694   3.550  10.144  11.101  2.0943 -0.4038 -2.1239
  250MOL0     H33695   3.532  10.375  11.174 -1.3316 -2.8251  2.5596
  250MOL0     H33696   3.419  10.408  11.031  1.4033  2.1217  0.3378
  250MOL0     H33697   3.246  10.287  11.105 -1.2900  1.3671  0.6101
  250MOL0     H33698   3.346  10.190  11.217 -0.0723 -0.1902  1.1284
  250MOL0     H33699   3.261  10.481  11.257 -2.0715  0.4003  1.0892
  250MOL0     H33700   3.378  10.403  11.364  1.0286  1.1530 -2.0546
  250MOL0     H33701   3.104  10.154  11.268  0.9981  0.9946 -0.4595
  250MOL0     H33702   2.909  10.029  11.419 -0.6551  0.3205 -3.4253
  250MOL0     H33703   2.870  10.129  11.558 -0.1338 -2.8326 -1.0094
  250MOL0     H33704   2.682  10.117  11.372 -1.6211  1.5706  0.0398
  250MOL0     H33705   2.781  10.202  11.260 -1.9228  1.0775 -0.7366
  250MOL0     H33706   2.758  10.413  11.375 -3.9145  1.0586 -2.2339
  250MOL0     H33707   2.701  10.333  11.525  2.6560 -0.6319  1.0969
  250MOL0     H33708   2.536  10.446  11.376  2.1353 -0.2617  1.7382
  250MOL0     H33709   2.490  10.292  11.413  0.3198  0.2542  0.6539
  250MOL0     H33710   2.306  10.390  11.283  1.2626  0.5027 -0.7914
  250MOL0     H33711   1.987  10.412  11.122  1.0891  2.7076 -0.4699
  250MOL0     H33712   2.048  10.379  11.284 -3.2859 -0.9609  0.0988
  250MOL0     H33713   2.112  10.511  11.171  1.7536 -0.5761 -2.1943
  250MOL0     H33714   2.055  10.330  10.568  0.0502 -0.5389 -0.9393
  250MOL0     H33715   1.891  10.306  10.396 -0.1412  0.5850 -0.0738
  250MOL0     H33716   1.608   9.965  10.406 -1.8471 -0.7153 -0.5869
  250MOL0     H33717   1.524  10.084  10.519  0.5270 -1.3858  1.5487
  250MOL0     H33718   1.480  10.189  10.262  2.3083 -1.4856  1.1999
  250MOL0     H33719   1.486  10.023  10.223  1.6676 -2.5515  1.7735
  250MOL0     H33720   1.300  10.131  10.439 -4.0146 -1.8226  0.7702
  250MOL0     H33721   1.310   9.963  10.371  1.3642  0.0656  1.4554
  250MOL0     H33722   1.237  10.208  10.212 -0.7377  0.2424  0.3073
  250MOL0     H33723   1.245  10.047  10.138  0.3414  0.2405  0.9197
  250MOL0     H33724   1.021  10.120  10.193 -2.8329 -3.7743 -0.5992
  250MOL0     H33725   1.058  10.096  10.367 -1.5102  0.8686 -0.9847
  250MOL0     H33726   1.078   9.891  10.124 -1.3079  0.4840 -0.4504
  250MOL0     H33727   1.114   9.849  10.293 -2.9500 -2.0405  0.8571
  250MOL0     H33728   0.842   9.946  10.205  1.4161  2.8933  1.1811
  250MOL0     H33729   0.908   9.918  10.374 -0.2827  1.6279 -0.7784
  250MOL0     H33730   0.868   9.716  10.149  2.8816  0.5743 -0.1388
  250MOL0     H33731   0.767   9.726  10.294 -0.6086  0.2155 -2.2093
  250MOL0     H33732   1.697  10.004  10.624 -0.3019  0.3108 -1.4467
  250MOL0     H33733   1.871  10.008  10.792  1.4177 -1.8660 -1.5920
  250MOL0     H33734   2.306  10.129  10.869  0.5415  2.5994 -2.4415
  250MOL0     H33735   2.516  10.165  11.001  0.0179 -0.3095  1.3564
  250MOL0     H33736   4.061  10.274  11.014 -0.6652 -1.9545 -1.6769
  250MOL0     H33737   4.230  10.397  11.130  1.8066 -3.9479  0.4536
  250MOL0     H33738   4.706  10.557  11.067  1.7789 -0.4774  2.3258
  250MOL0     H33739   4.883  10.712  11.116 -0.7430 -0.6970 -0.4292
  250MOL0     H33740   5.018  10.825  11.286  0.1146 -0.8899 -0.4445
  250MOL0     H33741   5.027  10.889  11.123  3.5489  1.3816  0.0969
  250MOL0     H33742   5.082  11.076  11.355  0.4519 -0.3909  1.1781
  250MOL0     H33743   5.125  11.089  11.188 -0.9788 -0.9778 -0.7394
  250MOL0     H33744   5.237  10.848  11.356 -1.9810  0.7331  2.0424
  250MOL0     H33745   5.298  11.011  11.375 -2.1593  1.4629 -0.0715
  250MOL0     H33746   5.270  10.873  11.101 -0.5691 -2.3942  2.0036
  250MOL0     H33747   5.416  10.858  11.208  0.0669  0.2784  1.4002
  250MOL0     H33748   5.480  11.231  11.006  2.5511 -0.7219  1.8329
  250MOL0     H33749   4.623  10.993  11.287  3.6068 -1.5364  0.6969
  250MOL0     H33750   4.433  10.859  11.227  0.4194  0.3992  1.5655
  251MOL0     O33751   2.535   2.207  10.061 -0.3644  0.4186  0.1268
  251MOL0     C33752   2.461   2.265   9.980  0.6684 -0.4927  0.3958
  251MOL0     O33753   2.503   2.337   9.878 -0.8611  0.4229  0.4613
  251MOL0     C33754   2.643   2.335   9.863 -0.2233 -0.1200 -0.1250
  251MOL0     C33755   2.727   2.415   9.953 -0.3118  0.1807 -0.9150
  251MOL0     C33756   2.861   2.421   9.931 -0.1208 -0.0179  0.4942
  251MOL0     C33757   2.923   2.367   9.816  0.2180  0.3709  0.2173
  251MOL0     O33758   3.055   2.403   9.790  0.0090  0.9396 -0.5430
  251MOL0     C33759   3.109   2.338   9.673 -0.0256  0.2058  0.4609
  251MOL0     C33760   3.243   2.408   9.654 -0.1416 -0.2589  0.3706
  251MOL0     C33761   3.314   2.313   9.544  0.5016  0.0875  0.7260
  251MOL0     C33762   3.444   2.365   9.506  0.3842 -0.0302  1.1775
  251MOL0     C33763   3.513   2.274   9.399 -0.4407 -0.2444  0.0153
  251MOL0     C33764   3.575   2.145   9.465 -0.4955  0.0265 -0.0729
  251MOL0     C33765   3.625   2.051   9.357  0.3964  0.0267 -0.1774
  251MOL0     C33766   3.646   1.912   9.419  0.5636 -0.7794 -0.6676
  251MOL0     N33767   3.745   1.840   9.349  1.2536 -0.2006  0.0928
  251MOL0     C33768   3.859   1.892   9.301  0.2485  0.5492  1.1506
  251MOL0     C33769   3.891   1.819   9.196  0.3375  0.5453 -0.0940
  251MOL0     C33770   4.008   1.856   9.102 -0.0835 -0.3175 -0.0970
  251MOL0     C33771   3.965   1.871   8.961 -0.5033  0.3968 -0.5424
  251MOL0     C33772   3.905   2.011   8.932 -0.3231  0.7529 -0.0857
  251MOL0     C33773   3.775   2.051   8.993 -0.1530 -0.1429  1.0747
  251MOL0     O33774   3.676   1.969   8.925  0.1537 -0.0615  0.1918
  251MOL0     C33775   3.543   1.984   8.970 -0.7765 -0.4159 -0.5118
  251MOL0     C33776   3.483   1.886   9.052 -0.0562  0.0909 -0.5299
  251MOL0     C33777   3.350   1.897   9.099 -0.0933  0.3422  0.1319
  251MOL0     C33778   3.295   1.789   9.186  0.0707 -0.1142 -0.5755
  251MOL0     C33779   3.284   2.023   9.076 -0.1989 -0.2103 -0.5929
  251MOL0     C33780   3.157   2.064   9.142  0.0982 -0.0017 -0.1235
  251MOL0     O33781   3.098   2.177   9.094  0.6517  0.9377  0.4297
  251MOL0     C33782   2.980   2.220   9.153 -0.6911  0.2989 -0.3037
  251MOL0     C33783   2.885   2.261   9.066  0.2937 -0.5302 -0.3744
  251MOL0     C33784   2.770   2.338   9.107 -0.5096 -1.1254  0.2122
  251MOL0     C33785   2.749   2.355   9.246 -0.5764 -0.0639 -0.1422
  251MOL0     O33786   2.639   2.419   9.280  0.3181 -0.2506  0.3081
  251MOL0     C33787   2.544   2.324   9.331  0.0850  0.2404 -0.2662
  251MOL0     C33788   2.404   2.392   9.323 -0.1607  0.2739 -0.3698
  251MOL0     C33789   2.291   2.286   9.356  0.6672  0.2482 -0.1433
  251MOL0     C33790   2.157   2.364   9.383 -0.0348  0.0640  0.3815
  251MOL0     C33791   2.044   2.272   9.417  0.2476 -0.5784  0.0439
  251MOL0     C33792   1.937   2.334   9.500 -0.0489 -0.3053 -0.1296
  251MOL0     C33793   1.816   2.239   9.524  0.7297  0.1863  0.5636
  251MOL0     C33794   1.694   2.307   9.599 -0.1457  0.1832 -0.4441
  251MOL0    Cl33795   1.731   2.382   9.766 -0.0535  0.4354  0.5010
  251MOL0     C33796   2.850   2.318   9.336  0.6095  0.1023  0.1305
  251MOL0     C33797   2.961   2.242   9.294  0.4542  0.1814  0.7389
  251MOL0     O33798   3.110   1.991   9.226 -0.2079  0.1340  0.3479
  251MOL0     C33799   3.337   2.108   8.973 -0.0042 -0.1835  0.8430
  251MOL0     C33800   3.470   2.096   8.927  0.2931 -0.0652 -0.1854
  251MOL0     N33801   3.804   1.702   9.198 -0.0904 -0.0578  0.7072
  251MOL0     N33802   3.717   1.721   9.295 -0.5191  0.9471  0.9421
  251MOL0     C33803   2.845   2.278   9.738  0.5917 -0.4960  0.7701
  251MOL0     C33804   2.708   2.262   9.761 -0.1215 -0.0433 -0.4797
  251MOL0     C33805   2.313   2.265  10.008  0.3379 -0.5496  0.3606
  251MOL0     C33806   2.251   2.201  10.115  0.4399  0.4683 -0.3270
  251MOL0     C33807   2.115   2.181  10.125 -0.1885  0.1517  0.3593
  251MOL0     C33808   2.030   2.232  10.019  0.3419  0.1943 -0.6087
  251MOL0     O33809   1.893   2.211  10.025 -0.5570 -0.3811  0.1858
  251MOL0     C33810   1.829   2.157  10.137  0.1129 -0.2080 -0.2203
  251MOL0     C33811   1.671   2.169  10.109  0.3998 -0.2674  0.5648
  251MOL0     C33812   1.630   2.319  10.090 -0.3329  0.0473 -0.0151
  251MOL0     C33813   1.478   2.338  10.081  0.7043  0.1119 -0.8441
  251MOL0     C33814   1.432   2.475  10.063  0.0011 -0.1364  0.7657
  251MOL0     C33815   1.403   2.593  10.044  0.2083  0.4459  0.0882
  251MOL0     C33816   2.091   2.308   9.921  0.0283  0.1881  0.5710
  251MOL0     C33817   2.232   2.321   9.910  0.1091 -0.5129 -0.5357
  251MOL0     H33818   2.681   2.469  10.035 -0.8836 -0.0981 -1.0507
  251MOL0     H33819   2.927   2.475   9.998 -0.5377 -0.6153  1.4051
  251MOL0     H33820   3.127   2.232   9.697 -2.8586 -0.1514  1.3632
  251MOL0     H33821   3.052   2.351   9.581  0.5041 -1.8000 -0.2055
  251MOL0     H33822   3.223   2.508   9.614 -2.9122 -0.6836  0.4614
  251MOL0     H33823   3.301   2.409   9.746  0.3227  2.6199  0.1413
  251MOL0     H33824   3.324   2.212   9.587  0.2529 -1.2462 -2.0995
  251MOL0     H33825   3.248   2.294   9.458  1.2402 -0.0271  0.1743
  251MOL0     H33826   3.424   2.463   9.460  1.1924 -0.5934 -0.4600
  251MOL0     H33827   3.508   2.380   9.593  0.7752  0.1940  0.8569
  251MOL0     H33828   3.440   2.253   9.320  2.6274  0.5807 -3.3229
  251MOL0     H33829   3.600   2.319   9.349  1.2063 -3.0073  0.1883
  251MOL0     H33830   3.657   2.169   9.533 -1.3342 -0.1850  1.0580
  251MOL0     H33831   3.490   2.101   9.518 -0.3007  0.4370  0.6085
  251MOL0     H33832   3.554   2.038   9.275 -1.7990 -0.4489  1.6859
  251MOL0     H33833   3.714   2.095   9.311 -0.8802  2.8269 -0.1981
  251MOL0     H33834   3.550   1.861   9.409 -0.3642  0.4280  1.4387
  251MOL0     H33835   3.663   1.918   9.527 -0.9142 -2.1974 -0.3114
  251MOL0     H33836   3.918   1.974   9.341  2.2276 -1.2055  2.0467
  251MOL0     H33837   4.070   1.938   9.137 -0.0069  0.3473 -1.7224
  251MOL0     H33838   4.085   1.778   9.111  1.7086  1.0188 -2.5435
  251MOL0     H33839   3.894   1.794   8.930  0.7204 -0.1729 -2.0346
  251MOL0     H33840   4.048   1.834   8.900 -2.6531 -2.2357 -2.0563
  251MOL0     H33841   3.898   2.027   8.824  2.1383  0.6426 -0.3189
  251MOL0     H33842   3.977   2.090   8.956  1.0103 -0.0249 -1.3921
  251MOL0     H33843   3.750   2.154   8.965  0.9982 -0.3479 -0.8940
  251MOL0     H33844   3.771   2.044   9.102  1.1004  3.0964  1.4564
  251MOL0     H33845   3.543   1.805   9.093 -1.5965 -1.2659 -0.8162
  251MOL0     H33846   3.191   1.758   9.172  0.4461 -2.1682  0.6852
  251MOL0     H33847   3.356   1.698   9.188  0.2302 -0.0185 -0.9880
  251MOL0     H33848   3.305   1.828   9.288  2.9836  0.1519 -0.8686
  251MOL0     H33849   2.896   2.243   8.960 -2.1894 -1.7567 -0.4995
  251MOL0     H33850   2.713   2.373   9.022  3.7740  0.9748 -2.1473
  251MOL0     H33851   2.538   2.242   9.259  2.5559  1.2420 -1.7496
  251MOL0     H33852   2.561   2.290   9.433 -0.1958 -1.0746 -0.6436
  251MOL0     H33853   2.400   2.476   9.393 -0.3093 -0.0904  0.0652
  251MOL0     H33854   2.392   2.435   9.224 -0.0866 -0.4036 -0.6801
  251MOL0     H33855   2.305   2.223   9.445  2.5119  0.6511 -0.1224
  251MOL0     H33856   2.289   2.227   9.264 -1.4145 -0.1604  0.1099
  251MOL0     H33857   2.181   2.428   9.468  2.0534  1.0722 -0.8899
  251MOL0     H33858   2.136   2.435   9.303  4.0660  1.3588  0.2391
  251MOL0     H33859   2.071   2.184   9.477 -0.9102  1.2635  3.5100
  251MOL0     H33860   1.999   2.245   9.321  0.0618  0.0308 -0.0433
  251MOL0     H33861   1.975   2.377   9.594 -0.3017  0.5371 -0.4035
  251MOL0     H33862   1.893   2.420   9.449  0.0102  0.3357  0.8557
  251MOL0     H33863   1.849   2.149   9.576 -2.4403 -0.6974  1.2815
  251MOL0     H33864   1.771   2.209   9.429 -3.4213 -4.8210  3.5754
  251MOL0     H33865   1.618   2.233   9.624 -0.9263  1.7764  2.4056
  251MOL0     H33866   1.660   2.389   9.534  0.8133  1.7571  0.9559
  251MOL0     H33867   2.843   2.332   9.444  1.1747  1.3362  0.0227
  251MOL0     H33868   3.046   2.226   9.361  1.7573  5.5344  0.7940
  251MOL0     H33869   3.267   2.187   8.948 -0.0344 -0.4697 -0.0016
  251MOL0     H33870   3.523   2.165   8.861 -1.7790  0.3481 -1.4982
  251MOL0     H33871   2.888   2.212   9.664 -0.1560 -0.0185 -0.1149
  251MOL0     H33872   2.653   2.196   9.694  1.2108 -1.9327  0.1898
  251MOL0     H33873   2.311   2.168  10.199 -0.9596 -0.2255  0.4249
  251MOL0     H33874   2.082   2.113  10.203 -1.1968  0.5252  0.2738
  251MOL0     H33875   1.851   2.052  10.156  3.3461  0.8700  3.2364
  251MOL0     H33876   1.858   2.211  10.227 -0.6291 -0.8256  0.4069
  251MOL0     H33877   1.619   2.142  10.201 -3.3165  0.3519 -1.1885
  251MOL0     H33878   1.639   2.108  10.024  3.8167 -4.9735  2.2168
  251MOL0     H33879   1.675   2.355   9.997 -0.5784 -0.1992 -0.2307
  251MOL0     H33880   1.682   2.372  10.170  0.5026 -0.8870  0.0679
  251MOL0     H33881   1.430   2.302  10.172  0.3934  1.2226 -0.5602
  251MOL0     H33882   1.439   2.277   9.999 -0.7098  2.0094 -1.6409
  251MOL0     H33883   1.379   2.697  10.032 -2.0409  0.4160  3.0318
  251MOL0     H33884   2.033   2.356   9.843  0.6732 -0.7593 -0.5088
  251MOL0     H33885   2.269   2.368   9.820  1.1431 -2.5906 -1.2589
  252MOL0     O33886   2.563  10.708   0.933  0.6010 -0.0809 -0.9130
  252MOL0     C33887   2.610  10.623   1.005 -0.2403 -0.2428 -0.3124
  252MOL0     O33888   2.535  10.543   1.076  0.2749  0.2883 -0.4127
  252MOL0     C33889   2.402  10.514   1.042 -0.5231 -0.6553  0.5673
  252MOL0     C33890   2.355  10.494   0.908 -0.6992  0.0764  0.5650
  252MOL0     C33891   2.217  10.482   0.875 -0.5170  0.0757  0.1240
  252MOL0     C33892   2.126  10.474   0.977 -0.2054  0.1971  0.1444
  252MOL0     O33893   1.991  10.488   0.932 -1.1220  0.4145  0.6324
  252MOL0     C33894   1.883  10.422   1.002 -0.4070  0.5697 -0.2416
  252MOL0     C33895   1.801  10.353   0.897  0.4651  0.0082  0.0025
  252MOL0     C33896   1.669  10.297   0.939 -0.2524 -0.0708  1.2141
  252MOL0     C33897   1.690  10.161   1.017  0.5243  0.4537  0.1910
  252MOL0     C33898   1.579  10.156   1.124 -0.3029  0.4304 -0.4262
  252MOL0     C33899   1.440  10.169   1.066 -0.7831 -0.2077 -0.4594
  252MOL0     C33900   1.332  10.143   1.168  0.1611  0.8323 -0.6949
  252MOL0     C33901   1.198  10.215   1.118  0.1201 -0.5042 -0.4741
  252MOL0     N33902   1.156  10.177   0.985 -0.8380  0.1089 -0.3130
  252MOL0     C33903   1.059  10.087   0.958  0.1678  0.2754  0.1873
  252MOL0     C33904   1.022  10.106   0.825  0.7594 -0.4910 -0.7079
  252MOL0     C33905   0.912  10.037   0.753  0.0752  0.1846  0.4375
  252MOL0     C33906   0.779  10.025   0.821  0.8848 -0.3493  0.2340
  252MOL0     C33907   0.684   9.979   0.701 -0.6324 -0.0560 -0.0839
  252MOL0     C33908   0.537   9.956   0.757  0.9514 -0.3318  0.1342
  252MOL0     O33909   0.444   9.886   0.664 -0.5256  0.2084 -0.2248
  252MOL0     C33910   0.311   9.869   0.703  0.4325  0.4073 -0.1179
  252MOL0     C33911   0.219   9.835   0.597  0.3129  1.0548  0.8537
  252MOL0     C33912   0.087   9.813   0.621  0.1732 -0.4206  0.9098
  252MOL0     C33913  -0.011   9.785   0.503 -1.1023  0.2282 -0.1832
  252MOL0     C33914   0.036   9.833   0.758  0.3842 -0.3881 -1.1236
  252MOL0     C33915  -0.103   9.816   0.805  0.1373 -0.1105 -0.0821
  252MOL0     O33916  -0.166   9.697   0.803 -1.0164  0.0640  0.3548
  252MOL0     C33917  -0.296   9.708   0.839  0.7438  0.1160 -0.5581
  252MOL0     C33918  -0.326   9.676   0.974 -0.4802  0.6730  1.2019
  252MOL0     C33919  -0.458   9.689   1.012  0.4761 -0.3589  0.0494
  252MOL0     C33920  -0.558   9.724   0.923  0.0676 -0.4567  0.8749
  252MOL0     O33921  -0.688   9.725   0.970  0.1730  0.4599  0.0772
  252MOL0     C33922  -0.766   9.836   0.937 -0.6219 -0.1038 -0.0129
  252MOL0     C33923  -0.860   9.871   1.054 -0.3741 -1.4459  0.1926
  252MOL0     C33924  -0.798   9.872   1.189 -1.1754 -0.6147  0.0007
  252MOL0     C33925  -0.897   9.912   1.290  0.2032 -0.4149  0.9176
  252MOL0     C33926  -0.849   9.856   1.436  0.6092 -0.1535  0.3729
  252MOL0     C33927  -0.739   9.942   1.498 -0.6865  0.9103 -0.5603
  252MOL0     C33928  -0.684   9.872   1.632  0.4740 -1.0790 -0.0637
  252MOL0     C33929  -0.586   9.960   1.710  0.0219  0.5719 -0.1366
  252MOL0    Cl33930  -0.425   9.970   1.626 -0.2862 -0.2436  0.4136
  252MOL0     C33931  -0.525   9.764   0.793  0.0997  1.3999 -0.3663
  252MOL0     C33932  -0.394   9.756   0.749 -0.6323  0.5097  0.0457
  252MOL0     O33933  -0.157   9.922   0.843 -0.3637 -0.2748 -0.7211
  252MOL0     C33934   0.130   9.860   0.861 -0.1445 -0.9062  0.0428
  252MOL0     C33935   0.270   9.874   0.833  0.1619  0.3599 -0.1275
  252MOL0     N33936   1.093  10.213   0.777 -0.1106 -0.7084  0.7096
  252MOL0     N33937   1.173  10.258   0.872  0.1293  0.1484 -0.1240
  252MOL0     C33938   2.170  10.481   1.113 -0.7244  0.3979  0.0069
  252MOL0     C33939   2.305  10.502   1.147  0.3524  0.2530  0.2677
  252MOL0     C33940   2.759  10.626   1.029  0.2681  0.1531 -0.0077
  252MOL0     C33941   2.828  10.742   1.039 -0.0004 -0.2921 -0.6988
  252MOL0     C33942   2.969  10.740   1.046  0.1778  0.0319 -0.2879
  252MOL0     C33943   3.044  10.621   1.076  0.4374 -0.0578  0.2778
  252MOL0     O33944   3.178  10.606   1.087  0.2228 -0.8404 -1.0289
  252MOL0     C33945   3.258  10.718   1.041 -0.0253  0.4378 -0.1669
  252MOL0     C33946   3.405  10.676   1.020 -0.1236  0.8339  0.3993
  252MOL0     C33947   3.407  10.568   0.911 -0.4621  1.0591  1.0546
  252MOL0     C33948   3.543  10.499   0.919 -0.6404  0.2393  1.1977
  252MOL0     C33949   3.587  10.451   0.788  0.2342  0.6862  0.1317
  252MOL0     C33950   3.636  10.407   0.685 -0.5753 -0.1664 -0.5128
  252MOL0     C33951   2.964  10.507   1.100  0.4634 -0.2090  0.4841
  252MOL0     C33952   2.828  10.509   1.062 -0.0234 -0.3863  0.2445
  252MOL0     H33953   2.423  10.493   0.824 -1.4172 -0.7648 -0.0411
  252MOL0     H33954   2.201  10.467   0.769  0.6711 -1.4258  0.1196
  252MOL0     H33955   1.911  10.358   1.086 -1.4249 -2.2215 -1.8625
  252MOL0     H33956   1.819  10.500   1.044 -1.4548 -0.7726  0.7561
  252MOL0     H33957   1.795  10.427   0.817  0.2274  0.2301  0.2204
  252MOL0     H33958   1.860  10.271   0.856  0.6931 -0.6740  1.6029
  252MOL0     H33959   1.631  10.375   1.006 -0.6994  0.5605  0.2581
  252MOL0     H33960   1.598  10.275   0.859  0.8937 -0.0664  0.1775
  252MOL0     H33961   1.668  10.092   0.935  0.6423  1.2515 -0.5221
  252MOL0     H33962   1.791  10.153   1.060  2.2094 -1.3276 -3.6414
  252MOL0     H33963   1.597  10.061   1.175 -0.6512 -1.5885 -3.7313
  252MOL0     H33964   1.590  10.242   1.191  2.4021  1.1605 -1.6628
  252MOL0     H33965   1.430  10.268   1.020 -0.5227  0.8085  1.5627
  252MOL0     H33966   1.428  10.085   0.996 -0.5112  1.5716 -2.7721
  252MOL0     H33967   1.317  10.036   1.179 -0.1148  0.9560  0.1724
  252MOL0     H33968   1.352  10.191   1.264  0.1965  2.0666 -1.2888
  252MOL0     H33969   1.193  10.323   1.132 -2.0061 -0.6114 -0.0856
  252MOL0     H33970   1.122  10.181   1.189 -0.1807 -0.6836 -0.8840
  252MOL0     H33971   1.011  10.011   1.019 -2.3194 -0.3687 -2.3670
  252MOL0     H33972   0.903  10.098   0.663 -0.8960  0.6485  0.8341
  252MOL0     H33973   0.940   9.932   0.740 -1.3758 -0.0627 -1.0087
  252MOL0     H33974   0.756  10.127   0.854  2.5903  0.7324 -1.6517
  252MOL0     H33975   0.764   9.965   0.911 -1.6035  0.3872  0.3829
  252MOL0     H33976   0.727   9.886   0.663  0.6522  0.2503  0.5725
  252MOL0     H33977   0.686  10.054   0.623  1.6095  1.2400  1.1156
  252MOL0     H33978   0.501  10.057   0.781  4.1388  0.9684 -0.1092
  252MOL0     H33979   0.547   9.907   0.854 -0.3867  2.5331  1.8838
  252MOL0     H33980   0.256   9.825   0.495 -3.1037  0.0922 -0.4378
  252MOL0     H33981  -0.117   9.805   0.521 -1.0955  0.6104 -0.5582
  252MOL0     H33982   0.023   9.853   0.425  0.2424 -0.5511 -0.3096
  252MOL0     H33983  -0.009   9.677   0.485 -1.4906 -0.1620  1.8486
  252MOL0     H33984  -0.250   9.636   1.041  0.9990  0.1352 -0.7212
  252MOL0     H33985  -0.499   9.665   1.110  0.4389  0.2897  0.1935
  252MOL0     H33986  -0.699   9.923   0.936 -0.0071 -0.5248  1.7402
  252MOL0     H33987  -0.811   9.816   0.839 -2.9968 -4.0530  1.6786
  252MOL0     H33988  -0.890   9.974   1.033  2.8141 -0.5092 -0.2371
  252MOL0     H33989  -0.947   9.807   1.036 -0.2396 -0.7415 -3.7842
  252MOL0     H33990  -0.718   9.945   1.178 -0.2603 -1.2895  1.8106
  252MOL0     H33991  -0.772   9.767   1.210 -0.9096 -0.3386  1.0855
  252MOL0     H33992  -0.907  10.020   1.301  0.3909 -0.1202 -1.3127
  252MOL0     H33993  -0.995   9.881   1.255  0.7192  0.3940 -1.4512
  252MOL0     H33994  -0.811   9.754   1.437  1.0913  0.0268  1.0623
  252MOL0     H33995  -0.933   9.861   1.506  0.8064 -0.7923  0.6636
  252MOL0     H33996  -0.660   9.951   1.423  1.8880 -0.1378  1.8455
  252MOL0     H33997  -0.775  10.042   1.523  1.8597  1.2524  2.3140
  252MOL0     H33998  -0.625   9.783   1.608  2.9947  0.3683  0.4476
  252MOL0     H33999  -0.770   9.855   1.698  0.5840  0.4611  0.5176
  252MOL0     H34000  -0.555   9.915   1.805 -0.0507 -1.9293 -1.2121
  252MOL0     H34001  -0.639  10.054   1.726  2.7345  2.1184  0.4206
  252MOL0     H34002  -0.606   9.779   0.722  0.0223 -0.4681 -0.7172
  252MOL0     H34003  -0.349   9.784   0.654  0.2055  1.6658  0.7512
  252MOL0     H34004   0.082   9.865   0.959  0.8726  0.2315  0.5105
  252MOL0     H34005   0.337   9.897   0.916 -0.9451  1.9407  0.3975
  252MOL0     H34006   2.085  10.467   1.178 -3.5148 -1.6178 -3.7109
  252MOL0     H34007   2.346  10.508   1.247  2.1633 -2.6091 -0.1745
  252MOL0     H34008   2.767  10.832   1.034  0.4159  0.1869  1.7180
  252MOL0     H34009   3.008  10.841   1.043 -1.9240  1.1348  3.4789
  252MOL0     H34010   3.223  10.773   0.953 -0.9797 -0.6636 -0.5041
  252MOL0     H34011   3.269  10.794   1.119 -0.9654  2.3800 -1.8235
  252MOL0     H34012   3.438  10.632   1.115  1.2626  1.5388  0.2670
  252MOL0     H34013   3.476  10.757   1.002  1.2763 -0.3331  0.4232
  252MOL0     H34014   3.387  10.615   0.814  0.2655  1.4613  1.0951
  252MOL0     H34015   3.326  10.496   0.925  1.2930 -1.2450  0.0624
  252MOL0     H34016   3.535  10.413   0.987 -2.2801  0.3890  1.2412
  252MOL0     H34017   3.625  10.562   0.953  0.2817  0.9167 -1.9892
  252MOL0     H34018   3.683  10.387   0.591  1.5249 -0.0422  0.4652
  252MOL0     H34019   3.020  10.419   1.129  2.7686  0.0572 -2.6448
  252MOL0     H34020   2.765  10.420   1.057 -1.6914  0.8007 -0.8980
  253MOL0     O34021   2.424   0.517   6.473  0.2384 -0.3764 -0.5924
  253MOL0     C34022   2.450   0.624   6.530 -0.6624 -0.0904  0.3961
  253MOL0     O34023   2.571   0.682   6.519 -1.2102 -0.5111 -0.0256
  253MOL0     C34024   2.679   0.620   6.461 -0.2004 -0.9409  0.4167
  253MOL0     C34025   2.730   0.492   6.497  0.4657  0.4306  0.1814
  253MOL0     C34026   2.839   0.432   6.425 -0.5995 -0.1975  0.5942
  253MOL0     C34027   2.910   0.504   6.336  0.9512  0.6380  0.3302
  253MOL0     O34028   3.006   0.443   6.257  0.5788 -0.3822  0.3992
  253MOL0     C34029   2.985   0.304   6.220 -0.2205  0.3173  0.6109
  253MOL0     C34030   3.083   0.277   6.100  0.6069  0.6343 -0.1364
  253MOL0     C34031   3.092   0.385   5.995  0.1618 -0.0109 -0.5902
  253MOL0     C34032   3.174   0.342   5.880 -1.2538 -0.3196 -0.2918
  253MOL0     C34033   3.279   0.435   5.816  0.8218  0.1803 -0.3431
  253MOL0     C34034   3.365   0.357   5.715  0.3264 -0.4407  0.1125
  253MOL0     C34035   3.487   0.445   5.659  0.2968  0.8515 -0.4183
  253MOL0     C34036   3.568   0.378   5.539  0.6595  0.1804  0.6143
  253MOL0     N34037   3.487   0.367   5.421  0.1196  0.3146 -0.3420
  253MOL0     C34038   3.403   0.470   5.378 -0.1366 -0.0539  0.7070
  253MOL0     C34039   3.316   0.411   5.289 -0.3563  0.1960  0.2206
  253MOL0     C34040   3.216   0.474   5.187 -0.3088 -0.4112  0.1510
  253MOL0     C34041   3.072   0.507   5.233  0.0554  0.2215  0.3770
  253MOL0     C34042   2.988   0.383   5.285  0.2599  0.0924  0.6040
  253MOL0     C34043   2.837   0.413   5.282 -0.4206  0.5008  0.1424
  253MOL0     O34044   2.802   0.542   5.327  0.7332  0.9863 -0.5856
  253MOL0     C34045   2.664   0.550   5.353  0.6407  0.3428  0.2953
  253MOL0     C34046   2.581   0.464   5.432  0.1277 -0.0367  0.3146
  253MOL0     C34047   2.436   0.473   5.437 -0.1460  0.6512 -0.2888
  253MOL0     C34048   2.352   0.401   5.548 -0.7873  0.4425  0.3465
  253MOL0     C34049   2.374   0.568   5.355  0.9295 -0.3655 -0.2948
  253MOL0     C34050   2.225   0.581   5.336  0.2656 -0.0687 -0.9820
  253MOL0     O34051   2.183   0.694   5.274  0.1504 -0.5099 -0.0830
  253MOL0     C34052   2.052   0.746   5.291  0.3221 -0.2323 -0.9652
  253MOL0     C34053   1.933   0.671   5.295  1.3047  0.1431  0.9560
  253MOL0     C34054   1.816   0.738   5.334 -0.7636 -0.6025  0.5112
  253MOL0     C34055   1.807   0.873   5.363 -0.0703 -1.0390 -0.1980
  253MOL0     O34056   1.690   0.930   5.398 -0.9729  0.1924 -0.2703
  253MOL0     C34057   1.682   1.071   5.370  0.1983  0.6302 -0.7363
  253MOL0     C34058   1.528   1.114   5.369 -0.2323  0.6445 -0.1871
  253MOL0     C34059   1.462   1.061   5.504  0.1991 -0.4189  0.2450
  253MOL0     C34060   1.311   1.087   5.519  0.2787  0.1021 -0.9354
  253MOL0     C34061   1.246   1.000   5.629 -0.8838  0.3743  0.7386
  253MOL0     C34062   1.152   0.893   5.563 -0.3413  0.0289 -0.4230
  253MOL0     C34063   1.035   0.960   5.483 -0.2587  0.2412  0.0076
  253MOL0     C34064   0.924   0.866   5.437  0.0092  0.7360  0.2751
  253MOL0    Cl34065   0.787   0.960   5.367 -0.1573  0.2387 -0.0640
  253MOL0     C34066   1.927   0.944   5.369 -0.0645  0.1115  0.4585
  253MOL0     C34067   2.047   0.873   5.334  0.2368 -0.9386 -0.1281
  253MOL0     O34068   2.150   0.496   5.390  0.0408 -0.2965  0.1866
  253MOL0     C34069   2.454   0.640   5.268  0.1921 -0.5347  0.2175
  253MOL0     C34070   2.596   0.630   5.264  0.7652  0.0266 -0.7405
  253MOL0     N34071   3.341   0.275   5.300  0.4866  0.5113  0.4346
  253MOL0     N34072   3.451   0.253   5.361  0.1020  0.5705  0.3253
  253MOL0     C34073   2.872   0.637   6.315 -0.7884  0.7252 -0.2244
  253MOL0     C34074   2.752   0.695   6.370  0.0611  0.8242  0.6910
  253MOL0     C34075   2.354   0.689   6.616  0.6063 -0.5907  0.0704
  253MOL0     C34076   2.396   0.769   6.717  0.1917 -0.7254 -0.5448
  253MOL0     C34077   2.306   0.844   6.795  0.4515  0.1004  0.1221
  253MOL0     C34078   2.166   0.827   6.780  0.8270  0.4224 -0.2645
  253MOL0     O34079   2.076   0.890   6.849  0.6264  0.4737  0.3661
  253MOL0     C34080   1.930   0.872   6.840  0.0833  0.0073 -0.2314
  253MOL0     C34081   1.872   0.942   6.722 -0.3900  0.5135  0.1616
  253MOL0     C34082   1.897   1.096   6.740  0.3096  0.0989 -0.2777
  253MOL0     C34083   1.869   1.177   6.615 -1.1771 -0.4557 -0.0597
  253MOL0     C34084   1.730   1.159   6.570  0.7691 -0.8191 -0.6595
  253MOL0     C34085   1.616   1.121   6.544  0.4849 -0.0282 -0.1150
  253MOL0     C34086   2.127   0.747   6.669  0.2833 -0.9336  0.6300
  253MOL0     C34087   2.215   0.686   6.588 -0.2899  0.0532 -0.1820
  253MOL0     H34088   2.674   0.435   6.570 -4.1437 -1.5071 -4.2469
  253MOL0     H34089   2.876   0.337   6.462  0.3855  0.1910  0.6469
  253MOL0     H34090   3.008   0.236   6.303 -0.9538  0.5006  0.9690
  253MOL0     H34091   2.881   0.301   6.186  0.7450  1.5863 -2.9582
  253MOL0     H34092   3.181   0.251   6.143 -0.6658 -0.7761  2.0917
  253MOL0     H34093   3.066   0.178   6.055  1.8350  0.9553 -1.3849
  253MOL0     H34094   2.995   0.415   5.955  0.2240  1.1117  0.0465
  253MOL0     H34095   3.127   0.472   6.052  0.4617  0.2177 -1.1185
  253MOL0     H34096   3.241   0.259   5.907  1.2594  1.0750 -1.7959
  253MOL0     H34097   3.101   0.302   5.810 -0.3296 -1.7178 -0.5027
  253MOL0     H34098   3.229   0.522   5.774 -0.2837 -0.7741 -1.0692
  253MOL0     H34099   3.344   0.467   5.898  1.9971  0.0969 -1.2105
  253MOL0     H34100   3.410   0.269   5.760 -1.7563 -1.4811  0.2491
  253MOL0     H34101   3.302   0.327   5.630  2.9882  0.0102 -2.1657
  253MOL0     H34102   3.448   0.543   5.632 -1.4596  0.0507 -0.9449
  253MOL0     H34103   3.553   0.465   5.744  0.0284  0.8247 -0.1995
  253MOL0     H34104   3.598   0.280   5.577  0.4632 -0.4072 -0.6891
  253MOL0     H34105   3.655   0.442   5.520 -1.0961  1.9314 -2.4832
  253MOL0     H34106   3.412   0.575   5.406  1.5146  0.4159 -1.3394
  253MOL0     H34107   3.267   0.563   5.149 -1.1917 -0.7160 -1.8890
  253MOL0     H34108   3.197   0.412   5.099 -1.9608 -0.5821  0.6058
  253MOL0     H34109   3.014   0.539   5.146 -0.7660 -3.7591 -0.7499
  253MOL0     H34110   3.085   0.596   5.296  3.4362  0.0071  0.1768
  253MOL0     H34111   3.017   0.363   5.389  2.6602  2.6952  0.5457
  253MOL0     H34112   3.013   0.295   5.226  0.2747  1.8822 -2.2105
  253MOL0     H34113   2.780   0.341   5.342 -0.1695  2.1184  2.4670
  253MOL0     H34114   2.804   0.395   5.179  0.7848 -1.9931  0.1442
  253MOL0     H34115   2.619   0.387   5.498 -1.0195 -1.3581 -0.5085
  253MOL0     H34116   2.281   0.328   5.509 -1.3274  0.4227  1.3209
  253MOL0     H34117   2.417   0.342   5.613 -0.9485 -2.8018 -2.2002
  253MOL0     H34118   2.296   0.471   5.611 -0.9517 -0.8704  1.7231
  253MOL0     H34119   1.926   0.568   5.264  1.0656 -0.3150  2.4811
  253MOL0     H34120   1.728   0.677   5.354 -0.7226 -2.3493 -3.6904
  253MOL0     H34121   1.739   1.129   5.443  2.3405 -1.9119 -0.2208
  253MOL0     H34122   1.718   1.097   5.270 -0.4291  3.2610 -0.3570
  253MOL0     H34123   1.528   1.221   5.348 -1.7577  0.0294 -4.1891
  253MOL0     H34124   1.477   1.061   5.288  1.2224  0.9210 -1.3145
  253MOL0     H34125   1.508   1.109   5.591  0.1215  0.8084 -0.3658
  253MOL0     H34126   1.485   0.954   5.504  0.4059 -0.4295 -1.9126
  253MOL0     H34127   1.289   1.192   5.543  1.5442  0.4270 -1.1106
  253MOL0     H34128   1.260   1.082   5.423 -0.0408  1.2643 -0.8456
  253MOL0     H34129   1.181   1.060   5.692 -0.2878  2.8530 -0.8657
  253MOL0     H34130   1.330   0.963   5.689 -1.5791  3.0136  3.6064
  253MOL0     H34131   1.208   0.841   5.485 -0.1551  0.7160 -0.7599
  253MOL0     H34132   1.116   0.826   5.641  1.2027 -1.1047 -0.6233
  253MOL0     H34133   1.067   1.010   5.391 -1.2840 -0.2461 -0.6344
  253MOL0     H34134   0.990   1.036   5.548  1.0219 -0.0300  1.2572
  253MOL0     H34135   0.888   0.811   5.524  2.3004  2.4876  2.4921
  253MOL0     H34136   0.969   0.800   5.362 -3.6662 -1.1384 -0.4830
  253MOL0     H34137   1.935   1.047   5.400 -2.3851  1.3523 -2.5182
  253MOL0     H34138   2.133   0.938   5.324 -1.4452  1.3623 -0.4040
  253MOL0     H34139   2.400   0.703   5.197 -0.8868 -0.8280  0.7664
  253MOL0     H34140   2.652   0.680   5.185  5.2526 -1.9218  0.9065
  253MOL0     H34141   2.923   0.696   6.239 -2.1237  0.4418 -1.3699
  253MOL0     H34142   2.704   0.785   6.332  0.7149  0.4843 -1.0389
  253MOL0     H34143   2.501   0.786   6.736 -0.0257  0.9771 -0.7229
  253MOL0     H34144   2.340   0.911   6.873  0.9107 -0.2447  0.2214
  253MOL0     H34145   1.898   0.768   6.834 -0.3521  0.0888  0.5479
  253MOL0     H34146   1.884   0.909   6.932  1.0078  1.5980 -0.3761
  253MOL0     H34147   1.768   0.916   6.700 -0.3496 -2.3371  2.6741
  253MOL0     H34148   1.937   0.914   6.639 -1.3432  1.4356 -0.9391
  253MOL0     H34149   2.005   1.103   6.759  0.2402 -0.4473  0.3913
  253MOL0     H34150   1.845   1.135   6.827 -2.0768  0.4842 -1.8068
  253MOL0     H34151   1.940   1.159   6.534 -1.0261  1.5768 -0.4493
  253MOL0     H34152   1.883   1.281   6.646  2.1723 -1.3677  1.9162
  253MOL0     H34153   1.518   1.080   6.538  0.3081 -0.3971  3.3071
  253MOL0     H34154   2.023   0.739   6.639  0.5906 -1.0909 -0.4102
  253MOL0     H34155   2.188   0.626   6.501  2.6854 -0.4942 -0.8353
  254MOL0     O34156   5.844   3.639   6.390 -0.0821  0.3835  0.4464
  254MOL0     C34157   5.898   3.575   6.482  0.0517  0.8718 -0.1257
  254MOL0     O34158   5.850   3.466   6.538  0.3451 -0.2030 -0.3149
  254MOL0     C34159   5.800   3.374   6.448  0.3810  0.1635 -0.7142
  254MOL0     C34160   5.879   3.276   6.397 -1.0642  0.2014 -0.5413
  254MOL0     C34161   5.839   3.178   6.303  0.1561 -0.6059 -0.4180
  254MOL0     C34162   5.700   3.171   6.283  0.6755  1.1437  0.5967
  254MOL0     O34163   5.642   3.086   6.192 -0.1202  0.7238  0.6930
  254MOL0     C34164   5.710   2.987   6.111  0.1879 -0.0192  0.8165
  254MOL0     C34165   5.605   2.920   6.027  0.4447 -0.7748  0.8667
  254MOL0     C34166   5.659   2.811   5.938  0.2112 -0.5782  0.4928
  254MOL0     C34167   5.546   2.754   5.855 -0.4416  0.3906 -0.7895
  254MOL0     C34168   5.585   2.647   5.761 -0.2894  0.3127  0.2214
  254MOL0     C34169   5.526   2.663   5.623 -0.2298 -0.3757  0.1103
  254MOL0     C34170   5.550   2.558   5.522  1.1247 -0.1680  0.2967
  254MOL0     C34171   5.494   2.413   5.562 -0.7000 -0.0943  0.4282
  254MOL0     N34172   5.346   2.408   5.577 -0.3924  0.7129 -0.6323
  254MOL0     C34173   5.242   2.424   5.494 -0.1461 -0.0821  0.8485
  254MOL0     C34174   5.128   2.409   5.574 -0.9983  0.2319  0.0368
  254MOL0     C34175   4.983   2.414   5.536  0.1960 -0.5604  0.0021
  254MOL0     C34176   4.951   2.560   5.493  1.2197  0.0010 -0.0303
  254MOL0     C34177   4.796   2.580   5.478  0.3124  0.6000 -0.2148
  254MOL0     C34178   4.743   2.605   5.615  0.1509 -0.3919  0.9202
  254MOL0     O34179   4.600   2.606   5.615 -0.4942 -0.2057  0.1764
  254MOL0     C34180   4.540   2.640   5.726  0.1284  0.7876 -0.0534
  254MOL0     C34181   4.575   2.577   5.852  0.0263 -0.0477  0.1132
  254MOL0     C34182   4.528   2.632   5.973 -0.5924 -0.3463 -0.4138
  254MOL0     C34183   4.599   2.576   6.094  0.2468  0.1000 -1.1007
  254MOL0     C34184   4.441   2.743   5.972 -0.4805  0.1003 -0.5006
  254MOL0     C34185   4.361   2.792   6.088 -0.4519 -0.1236 -0.8023
  254MOL0     O34186   4.229   2.778   6.078  0.5380  0.7285 -0.4682
  254MOL0     C34187   4.153   2.781   6.195 -0.1936 -0.6297 -0.1592
  254MOL0     C34188   4.029   2.850   6.194  0.1052  0.1720 -0.0428
  254MOL0     C34189   3.939   2.860   6.305  0.1356  0.2746  0.3238
  254MOL0     C34190   3.984   2.804   6.426  0.5228 -0.5300 -0.4264
  254MOL0     O34191   3.910   2.814   6.544  0.7004  0.0148  0.4912
  254MOL0     C34192   3.817   2.921   6.554 -0.1513  0.1845 -1.1937
  254MOL0     C34193   3.753   2.928   6.691 -0.1115 -0.7829 -0.4123
  254MOL0     C34194   3.697   2.797   6.740 -0.0857 -0.4761 -0.0686
  254MOL0     C34195   3.604   2.827   6.857  0.0569 -0.7400  0.2807
  254MOL0     C34196   3.517   2.707   6.913  0.3442  0.3059 -0.0974
  254MOL0     C34197   3.362   2.748   6.939  0.4427  0.2185  0.8113
  254MOL0     C34198   3.327   2.859   7.041  0.7627 -0.9025  0.1271
  254MOL0     C34199   3.296   2.998   6.979 -0.0659 -0.0813 -0.0925
  254MOL0    Cl34200   3.207   2.993   6.824  0.2880 -0.0619 -0.2445
  254MOL0     C34201   4.109   2.739   6.431  0.3435  0.1859  0.1198
  254MOL0     C34202   4.194   2.731   6.319 -0.5722 -0.5752  0.1250
  254MOL0     O34203   4.427   2.845   6.184  0.1536  0.2759 -0.5506
  254MOL0     C34204   4.398   2.791   5.845  0.1025 -0.2680 -1.0322
  254MOL0     C34205   4.436   2.740   5.722 -1.1510 -0.4242  0.1276
  254MOL0     N34206   5.183   2.384   5.701 -0.2262  0.2585  0.1489
  254MOL0     N34207   5.306   2.368   5.704 -0.0090 -0.2788  1.1444
  254MOL0     C34208   5.616   3.268   6.327 -0.5825 -0.0828 -0.1952
  254MOL0     C34209   5.664   3.365   6.412  0.4071  0.3864 -0.6495
  254MOL0     C34210   6.020   3.634   6.547 -0.4805 -0.1427  0.1544
  254MOL0     C34211   6.087   3.567   6.654  1.5342 -0.4616  0.0951
  254MOL0     C34212   6.207   3.607   6.702 -0.7084 -0.5835  0.4238
  254MOL0     C34213   6.276   3.723   6.665 -0.6447 -0.1443  0.0093
  254MOL0     O34214   6.400   3.771   6.708  0.3271 -0.4404  0.8223
  254MOL0     C34215   6.466   3.688   6.799 -0.2530  0.8956 -0.9440
  254MOL0     C34216   6.609   3.737   6.851  0.6762  0.2097  0.0835
  254MOL0     C34217   6.712   3.733   6.738  0.0323  0.1870 -0.0364
  254MOL0     C34218   6.830   3.807   6.783 -0.6069 -0.3220 -0.5483
  254MOL0     C34219   6.931   3.810   6.675 -1.1143  0.2525 -0.4572
  254MOL0     C34220   7.006   3.828   6.581 -0.6568  0.5174  0.5100
  254MOL0     C34221   6.207   3.792   6.562 -0.1887  0.6360 -0.1889
  254MOL0     C34222   6.078   3.758   6.510  0.7541 -0.5992 -0.3846
  254MOL0     H34223   5.981   3.269   6.432 -1.5844 -2.0503  0.7589
  254MOL0     H34224   5.908   3.100   6.274 -1.5032 -2.1579 -0.3499
  254MOL0     H34225   5.773   3.038   6.037 -0.7039 -0.1709 -0.0786
  254MOL0     H34226   5.772   2.918   6.169 -1.3069 -3.3485 -1.2277
  254MOL0     H34227   5.535   2.876   6.098 -0.9493  0.4457  0.2963
  254MOL0     H34228   5.551   2.993   5.966 -1.5966 -3.5368 -0.8510
  254MOL0     H34229   5.732   2.856   5.870  0.1289  1.7252  1.7976
  254MOL0     H34230   5.716   2.741   6.000 -1.4761 -4.0374 -1.5689
  254MOL0     H34231   5.469   2.717   5.923 -1.2026  2.4759 -0.4358
  254MOL0     H34232   5.489   2.824   5.793 -0.3932 -1.4836 -3.0991
  254MOL0     H34233   5.691   2.633   5.736 -0.7631 -1.6532 -0.9151
  254MOL0     H34234   5.552   2.548   5.791  2.8627 -1.3592 -1.2829
  254MOL0     H34235   5.420   2.677   5.643 -0.8866 -3.4358 -0.6740
  254MOL0     H34236   5.557   2.758   5.577  2.8283 -0.9967  0.6162
  254MOL0     H34237   5.500   2.585   5.429  0.8226  0.7219  0.7082
  254MOL0     H34238   5.658   2.562   5.505  1.1081  2.3385  0.4400
  254MOL0     H34239   5.534   2.391   5.662  0.0990 -1.4785 -0.1780
  254MOL0     H34240   5.537   2.334   5.500  2.5737  1.1593  0.9019
  254MOL0     H34241   5.248   2.444   5.388  0.9347  1.4030  1.1653
  254MOL0     H34242   4.977   2.348   5.449 -0.1352 -1.3422  0.6060
  254MOL0     H34243   4.917   2.373   5.613  0.3699  0.4061  0.6847
  254MOL0     H34244   4.991   2.563   5.391 -1.1538  1.0658 -0.9938
  254MOL0     H34245   4.991   2.630   5.567  1.0884  0.3209 -0.2573
  254MOL0     H34246   4.756   2.486   5.438 -0.7256  0.7505  0.4267
  254MOL0     H34247   4.773   2.664   5.411  1.2358  1.1317  0.1157
  254MOL0     H34248   4.775   2.705   5.648 -1.4896 -1.2792  6.1222
  254MOL0     H34249   4.783   2.549   5.700 -0.9248  2.8827  3.8660
  254MOL0     H34250   4.644   2.494   5.864  0.4936  0.2942 -0.1863
  254MOL0     H34251   4.568   2.477   6.128  0.4694  0.8875  1.6127
  254MOL0     H34252   4.703   2.561   6.065  0.2911  1.6710 -1.8811
  254MOL0     H34253   4.607   2.649   6.175  4.3477 -0.9815 -0.3043
  254MOL0     H34254   4.000   2.893   6.099  1.0263 -0.8828 -0.8395
  254MOL0     H34255   3.844   2.909   6.287 -0.0626 -1.3211 -4.7363
  254MOL0     H34256   3.872   3.012   6.527  2.3741 -0.5063  1.2237
  254MOL0     H34257   3.734   2.898   6.486 -1.5058 -0.1213  0.4976
  254MOL0     H34258   3.833   2.950   6.762 -0.0393  1.1413 -1.0419
  254MOL0     H34259   3.670   2.999   6.696 -0.2682 -0.9814 -0.1478
  254MOL0     H34260   3.782   2.737   6.773  0.2992  0.9740  1.7471
  254MOL0     H34261   3.646   2.742   6.660 -3.0861  1.6565  0.1835
  254MOL0     H34262   3.663   2.878   6.934  0.2884  1.6962 -1.3955
  254MOL0     H34263   3.528   2.899   6.827 -0.1257 -1.7032 -1.7604
  254MOL0     H34264   3.554   2.679   7.012  0.1651  0.3454 -0.0175
  254MOL0     H34265   3.547   2.618   6.856  1.6213 -0.7202  2.0662
  254MOL0     H34266   3.305   2.766   6.848 -0.1200 -1.9693  0.6608
  254MOL0     H34267   3.305   2.658   6.966 -0.2643  1.1675  2.6777
  254MOL0     H34268   3.409   2.868   7.113  1.3291  1.1784 -0.7055
  254MOL0     H34269   3.242   2.828   7.102 -1.8213  1.8950 -1.7955
  254MOL0     H34270   3.397   3.037   6.969 -0.3541  1.1020  1.2682
  254MOL0     H34271   3.247   3.069   7.046 -0.3689 -1.2652  0.9874
  254MOL0     H34272   4.136   2.691   6.525 -1.7490 -3.5992 -0.9850
  254MOL0     H34273   4.292   2.685   6.332 -1.1222 -1.4456  1.3105
  254MOL0     H34274   4.335   2.879   5.845  1.5029  0.7750 -0.4274
  254MOL0     H34275   4.399   2.788   5.631  1.3453 -0.7452 -1.1482
  254MOL0     H34276   5.511   3.268   6.298 -2.5972  1.1794  5.6947
  254MOL0     H34277   5.599   3.434   6.466 -1.3435 -3.5835  2.8908
  254MOL0     H34278   6.050   3.475   6.698 -2.4453  1.0430  0.3201
  254MOL0     H34279   6.242   3.548   6.787  0.3450 -0.4367  0.1046
  254MOL0     H34280   6.400   3.687   6.887  1.1292 -0.0269  0.1358
  254MOL0     H34281   6.468   3.588   6.755  3.3126 -0.0769  1.0222
  254MOL0     H34282   6.633   3.670   6.934  0.2916 -0.1809 -0.1146
  254MOL0     H34283   6.603   3.829   6.910  0.3138  2.1145 -2.7072
  254MOL0     H34284   6.673   3.780   6.647  2.5332 -0.0545 -1.3175
  254MOL0     H34285   6.737   3.629   6.717 -1.5086  0.5146 -4.5445
  254MOL0     H34286   6.872   3.757   6.871 -1.3344  2.0337  1.2408
  254MOL0     H34287   6.794   3.900   6.827 -0.6189 -2.0036  3.4270
  254MOL0     H34288   7.055   3.872   6.497 -2.1543  0.1527 -0.6006
  254MOL0     H34289   6.254   3.882   6.522  0.3757  0.0022 -0.9827
  254MOL0     H34290   6.028   3.829   6.445 -0.2724  1.3684  2.3421
  255MOL0     O34291   6.823  10.539   2.057  0.0431 -0.0573 -0.3177
  255MOL0     C34292   6.891  10.466   1.976  0.2814 -0.5708 -0.4363
  255MOL0     O34293   6.832  10.385   1.883  0.2730 -0.3059  0.2086
  255MOL0     C34294   6.692  10.402   1.860  0.1424 -0.4377 -0.0750
  255MOL0     C34295   6.640  10.530   1.842 -0.7935 -0.6678 -0.0250
  255MOL0     C34296   6.509  10.544   1.810  0.3184  0.3915  0.0661
  255MOL0     C34297   6.425  10.438   1.781 -0.2285 -0.3223  0.7471
  255MOL0     O34298   6.293  10.464   1.738  0.1328  0.1426 -0.0553
  255MOL0     C34299   6.246  10.392   1.626  0.3875 -0.4760  0.0267
  255MOL0     C34300   6.155  10.471   1.534  0.8532  0.1968  0.6563
  255MOL0     C34301   6.035  10.532   1.606 -0.8871  0.7594 -0.3716
  255MOL0     C34302   5.953  10.620   1.497 -0.2576  0.6162  0.4531
  255MOL0     C34303   5.825  10.684   1.545  0.0092  0.6904  0.4718
  255MOL0     C34304   5.781  10.806   1.464  0.2080  1.1748  0.3984
  255MOL0     C34305   5.674  10.881   1.531  1.2732 -0.4131  0.2066
  255MOL0     C34306   5.595  10.969   1.428 -0.5725  1.4171  0.1799
  255MOL0     N34307   5.491  11.056   1.479 -0.3280  0.4788  0.3462
  255MOL0     C34308   5.494  11.155   1.581  0.0804  0.5379  0.8302
  255MOL0     C34309   5.376  11.218   1.578  0.1844  0.5565 -0.7990
  255MOL0     C34310   5.342  11.348   1.642 -0.0285  0.1057 -0.1685
  255MOL0     C34311   5.197  11.347   1.692 -1.2551  0.6479  0.3621
  255MOL0     C34312   5.185  11.252   1.809 -0.3184 -0.3376  0.7082
  255MOL0     C34313   5.045  11.258   1.874 -0.7181  0.1847  0.5056
  255MOL0     O34314   5.014  11.388   1.929 -0.8747  0.0316 -0.1245
  255MOL0     C34315   4.884  11.430   1.964 -1.5652 -0.2673  0.1907
  255MOL0     C34316   4.875  11.562   2.013 -0.1062  0.0878 -1.5720
  255MOL0     C34317   4.755  11.621   2.036  0.1653  0.5046 -0.0421
  255MOL0     C34318   4.755  11.765   2.085  0.5430 -0.4286 -0.6243
  255MOL0     C34319   4.636  11.541   2.030  0.2175 -0.3160  0.3681
  255MOL0     C34320   4.498  11.597   2.064 -0.6591 -0.1306 -0.2589
  255MOL0     O34321   4.424  11.540   2.160  0.2216  0.1929 -0.0976
  255MOL0     C34322   4.295  11.576   2.164 -0.9101  0.2154  0.2802
  255MOL0     C34323   4.237  11.637   2.276 -0.3516  0.1338  0.3487
  255MOL0     C34324   4.104  11.673   2.275  0.6590  0.5716 -0.2989
  255MOL0     C34325   4.020  11.627   2.175 -0.3834 -0.2295  0.6686
  255MOL0     O34326   3.885  11.659   2.181 -0.0901  0.0511 -0.1798
  255MOL0     C34327   3.799  11.547   2.140 -0.0309 -1.1940 -0.0213
  255MOL0     C34328   3.670  11.561   2.232 -0.0805  0.0783  0.3876
  255MOL0     C34329   3.582  11.677   2.196  0.1429 -0.1444 -0.6281
  255MOL0     C34330   3.434  11.646   2.232  0.4435 -0.1715 -0.5932
  255MOL0     C34331   3.405  11.638   2.386 -0.1447 -0.2578 -0.6249
  255MOL0     C34332   3.439  11.753   2.487 -0.4140 -0.2415 -0.3847
  255MOL0     C34333   3.383  11.891   2.454  0.2852  0.6558 -0.0328
  255MOL0     C34334   3.240  11.897   2.481  0.0984 -0.2398  0.0019
  255MOL0    Cl34335   3.147  11.936   2.326 -0.0012 -0.4221 -0.0915
  255MOL0     C34336   4.070  11.551   2.066 -0.3439  0.6509 -0.3977
  255MOL0     C34337   4.207  11.531   2.063  1.3969  0.4297 -0.4145
  255MOL0     O34338   4.464  11.699   1.999  0.1898  0.1447  0.2743
  255MOL0     C34339   4.643  11.408   1.990 -0.4187 -0.5738 -0.1537
  255MOL0     C34340   4.763  11.355   1.954 -1.2231 -0.6072 -0.7640
  255MOL0     N34341   5.304  11.165   1.477  0.1995  0.3166  1.1432
  255MOL0     N34342   5.366  11.062   1.430 -0.5807  0.3037 -0.6617
  255MOL0     C34343   6.471  10.311   1.789 -0.4598  0.5087 -0.7962
  255MOL0     C34344   6.612  10.292   1.823  0.5743  0.2983 -0.2806
  255MOL0     C34345   7.030  10.468   1.979  0.4237  0.7865 -0.3624
  255MOL0     C34346   7.122  10.422   1.884 -0.6670  0.8748 -0.5598
  255MOL0     C34347   7.258  10.430   1.903  0.2722  0.3537 -0.3781
  255MOL0     C34348   7.312  10.501   2.005 -0.1093 -0.6513 -0.3564
  255MOL0     O34349   7.450  10.513   1.993  0.1245  0.1069 -0.2482
  255MOL0     C34350   7.516  10.590   2.094  0.3405  1.1238 -0.2931
  255MOL0     C34351   7.664  10.616   2.052  0.4815 -0.2463  0.0545
  255MOL0     C34352   7.755  10.483   2.082  0.4411 -1.1000 -1.0702
  255MOL0     C34353   7.899  10.479   2.033  1.5885  0.0731 -0.2852
  255MOL0     C34354   7.973  10.561   2.125 -0.0585  0.3303  0.1802
  255MOL0     C34355   8.048  10.627   2.201 -0.8481  0.1435 -0.9655
  255MOL0     C34356   7.222  10.550   2.107  0.2663  0.0183  0.4565
  255MOL0     C34357   7.086  10.522   2.097 -0.7021 -0.5080  0.1425
  255MOL0     H34358   6.696  10.621   1.861 -1.2763 -0.5130  0.6922
  255MOL0     H34359   6.474  10.644   1.788  0.0523  0.2038 -0.3643
  255MOL0     H34360   6.333  10.359   1.568 -0.7834 -0.9891 -1.5174
  255MOL0     H34361   6.186  10.302   1.647  1.4264 -1.6014 -1.5832
  255MOL0     H34362   6.206  10.534   1.461  0.3179 -0.2481 -0.1149
  255MOL0     H34363   6.115  10.398   1.463 -2.0768  1.6978  0.6537
  255MOL0     H34364   5.970  10.461   1.658  0.5989 -0.6889 -0.4458
  255MOL0     H34365   6.072  10.601   1.683  0.6223 -0.8646  0.4268
  255MOL0     H34366   6.019  10.692   1.449 -0.5637 -1.0789 -2.7608
  255MOL0     H34367   5.921  10.556   1.414  0.5756  0.5230  0.1922
  255MOL0     H34368   5.757  10.598   1.539 -0.2235  0.8694  0.5378
  255MOL0     H34369   5.850  10.710   1.648  0.3050  0.1661  0.5379
  255MOL0     H34370   5.867  10.871   1.446  1.1270  0.4072  1.8226
  255MOL0     H34371   5.737  10.774   1.369  0.8424 -0.6841  0.6847
  255MOL0     H34372   5.603  10.809   1.573 -2.1001  1.4955 -1.7525
  255MOL0     H34373   5.723  10.945   1.604  2.4990 -1.3900  0.2741
  255MOL0     H34374   5.541  10.897   1.365 -0.1089 -0.6960  2.0651
  255MOL0     H34375   5.659  11.041   1.376  0.8307  0.0811  0.0036
  255MOL0     H34376   5.569  11.169   1.658 -1.1676  1.1706  1.9749
  255MOL0     H34377   5.422  11.376   1.711  0.0090  0.9453 -0.5455
  255MOL0     H34378   5.340  11.424   1.564  1.2091  0.8092  0.4539
  255MOL0     H34379   5.124  11.308   1.621  0.2631 -3.0381  0.6027
  255MOL0     H34380   5.167  11.450   1.716  2.6886  2.0226  0.1564
  255MOL0     H34381   5.275  11.276   1.865 -0.2741  1.7997 -0.1801
  255MOL0     H34382   5.203  11.152   1.769  0.8198  0.5242 -1.0932
  255MOL0     H34383   5.041  11.179   1.949 -2.1319 -1.5459 -1.2661
  255MOL0     H34384   4.976  11.227   1.794 -1.2672 -0.7280  1.3003
  255MOL0     H34385   4.960  11.620   2.048  0.2321 -0.3585 -1.6357
  255MOL0     H34386   4.787  11.775   2.189 -1.4669 -1.0300  0.1001
  255MOL0     H34387   4.821  11.820   2.018  1.6547  0.8807  1.4394
  255MOL0     H34388   4.653  11.804   2.097  0.1940 -2.1508  4.1062
  255MOL0     H34389   4.307  11.665   2.355  1.7089  1.3126 -1.7655
  255MOL0     H34390   4.061  11.714   2.365 -1.3031  0.5834 -1.1879
  255MOL0     H34391   3.765  11.561   2.037 -1.4083 -1.5097  0.3605
  255MOL0     H34392   3.850  11.455   2.168  0.0173 -1.0505  0.3769
  255MOL0     H34393   3.604  11.474   2.221 -1.1472  0.6886  1.7525
  255MOL0     H34394   3.703  11.557   2.337  3.0909 -5.0675 -0.4464
  255MOL0     H34395   3.594  11.693   2.089  0.8104 -0.8344 -0.6723
  255MOL0     H34396   3.627  11.767   2.238  3.2464 -1.8888  0.1483
  255MOL0     H34397   3.379  11.728   2.184  0.6942 -0.0633 -0.7030
  255MOL0     H34398   3.400  11.553   2.187 -2.0249 -1.4231  3.3557
  255MOL0     H34399   3.454  11.550   2.428  1.7548  0.1117 -1.9217
  255MOL0     H34400   3.298  11.616   2.400 -0.4419  0.2416 -1.9324
  255MOL0     H34401   3.404  11.735   2.589 -0.0612  2.2216  0.2452
  255MOL0     H34402   3.548  11.756   2.497 -0.3270 -0.4383 -1.2118
  255MOL0     H34403   3.396  11.919   2.349 -1.7340  4.2732  0.5299
  255MOL0     H34404   3.432  11.972   2.510  3.1278  2.0173 -4.0238
  255MOL0     H34405   3.223  11.984   2.544 -0.0148 -0.5627  0.4245
  255MOL0     H34406   3.196  11.806   2.524  1.3217 -1.2531 -0.7821
  255MOL0     H34407   4.007  11.528   1.980  2.4032 -1.4539 -2.0182
  255MOL0     H34408   4.259  11.461   1.999  4.2880 -0.0461  2.2456
  255MOL0     H34409   4.558  11.340   1.982 -1.1098  0.2396  0.0625
  255MOL0     H34410   4.766  11.250   1.926 -2.8638 -0.2660 -2.4922
  255MOL0     H34411   6.405  10.227   1.771  0.2212 -0.0328 -0.7966
  255MOL0     H34412   6.647  10.190   1.837 -2.4663 -1.4664 -3.8441
  255MOL0     H34413   7.093  10.375   1.791  0.0714 -3.2195  1.0588
  255MOL0     H34414   7.325  10.388   1.829 -0.7167 -0.3024 -0.9323
  255MOL0     H34415   7.474  10.690   2.106  2.9696  2.1702  0.9298
  255MOL0     H34416   7.518  10.540   2.192  2.5415  0.7233 -0.5048
  255MOL0     H34417   7.695  10.695   2.122 -2.2003 -1.1900  2.4641
  255MOL0     H34418   7.668  10.648   1.947 -0.0415 -0.3709 -0.0049
  255MOL0     H34419   7.698  10.401   2.037 -2.3832  0.3008 -0.2792
  255MOL0     H34420   7.747  10.470   2.191 -0.1131 -0.5572 -1.0384
  255MOL0     H34421   7.914  10.518   1.932 -1.0428  0.9186 -0.4245
  255MOL0     H34422   7.917  10.371   2.031 -0.6945 -0.4500 -4.1999
  255MOL0     H34423   8.112  10.681   2.268 -0.0417  0.1219 -1.6954
  255MOL0     H34424   7.262  10.608   2.190 -0.8710  2.1573 -0.4175
  255MOL0     H34425   7.027  10.563   2.178  0.9151  1.1591  0.5299
  256MOL0     O34426   3.181   9.590   7.342 -0.0088  0.2545 -0.0102
  256MOL0     C34427   3.271   9.638   7.413 -0.4173 -0.1182  0.4322
  256MOL0     O34428   3.255   9.693   7.534  0.6944 -0.0325 -0.7323
  256MOL0     C34429   3.125   9.728   7.563 -1.0505 -0.9056 -0.2339
  256MOL0     C34430   3.072   9.651   7.663  0.1245  0.7656  1.2120
  256MOL0     C34431   2.950   9.690   7.720 -0.3025 -0.3057 -0.5642
  256MOL0     C34432   2.880   9.807   7.677  0.2719  0.0310 -0.0722
  256MOL0     O34433   2.765   9.831   7.755 -0.4553 -0.9506 -0.1490
  256MOL0     C34434   2.711   9.965   7.730 -0.5166 -0.0158  0.4541
  256MOL0     C34435   2.590   9.994   7.817 -0.9546  0.3013 -0.3401
  256MOL0     C34436   2.483   9.880   7.817 -0.2904 -0.8611  2.2515
  256MOL0     C34437   2.378   9.911   7.923  0.4104  0.4155  0.0554
  256MOL0     C34438   2.276   9.800   7.939  0.4700 -0.0628  0.5405
  256MOL0     C34439   2.171   9.785   7.818 -0.2784  0.2012  0.1343
  256MOL0     C34440   2.076   9.664   7.834  0.3934 -0.7797  0.5191
  256MOL0     C34441   1.965   9.681   7.950  0.2719 -0.1046  0.7863
  256MOL0     N34442   1.878   9.789   7.901  0.3586  0.2631 -0.4101
  256MOL0     C34443   1.748   9.756   7.850 -0.6049  0.4508  0.1564
  256MOL0     C34444   1.697   9.874   7.814 -0.5148  1.3024 -0.3821
  256MOL0     C34445   1.560   9.903   7.769 -0.6746  0.4241 -0.1993
  256MOL0     C34446   1.437   9.846   7.851  0.3184  0.4170  0.1154
  256MOL0     C34447   1.300   9.866   7.785 -0.1035  0.4221  0.1211
  256MOL0     C34448   1.197   9.807   7.877  0.6806  0.2330  0.2698
  256MOL0     O34449   1.063   9.830   7.817  0.2913  0.0583  0.0111
  256MOL0     C34450   0.951   9.861   7.894  0.0061  0.5278 -0.4437
  256MOL0     C34451   0.850   9.912   7.820  0.4127  0.1021  0.2980
  256MOL0     C34452   0.732   9.962   7.872 -0.4859 -0.7443 -0.2665
  256MOL0     C34453   0.617  10.010   7.778  0.5453 -0.4157 -0.3000
  256MOL0     C34454   0.728   9.979   8.016 -0.4577 -0.5182  0.4880
  256MOL0     C34455   0.627  10.046   8.101  0.3808  0.3387 -0.7257
  256MOL0     O34456   0.499  10.007   8.083  0.7633  0.2276 -0.7333
  256MOL0     C34457   0.387  10.060   8.151 -0.4200 -0.4582  0.2835
  256MOL0     C34458   0.383  10.172   8.238 -0.5262  0.3584  0.2902
  256MOL0     C34459   0.272  10.213   8.303 -0.2877  0.3056 -0.5416
  256MOL0     C34460   0.150  10.149   8.278  0.7194  0.7106  0.2619
  256MOL0     O34461   0.028  10.180   8.342 -0.5133  0.2196 -0.0827
  256MOL0     C34462   0.031  10.254   8.465 -0.8040 -0.0822  0.4026
  256MOL0     C34463  -0.112  10.244   8.536 -0.4841 -0.7088 -0.5279
  256MOL0     C34464  -0.233  10.282   8.450  0.0968 -0.0836 -0.5836
  256MOL0     C34465  -0.270  10.176   8.351 -0.1234  0.6928 -0.4913
  256MOL0     C34466  -0.421  10.148   8.340  0.3903  0.4823  0.1943
  256MOL0     C34467  -0.484  10.254   8.256  0.4672 -0.5299 -0.0998
  256MOL0     C34468  -0.639  10.245   8.268  0.3322  1.2161  0.2198
  256MOL0     C34469  -0.701  10.318   8.153  0.6194 -0.1409  0.4113
  256MOL0    Cl34470  -0.655  10.492   8.149  0.3164 -0.2290 -0.2301
  256MOL0     C34471   0.148  10.039   8.186  1.1605  0.7195  0.0142
  256MOL0     C34472   0.266  10.001   8.121 -0.1244 -0.0882 -0.2994
  256MOL0     O34473   0.672  10.130   8.176  0.3373  0.0006 -0.1403
  256MOL0     C34474   0.831   9.911   8.086 -0.1844  0.7194  0.7566
  256MOL0     C34475   0.941   9.852   8.027 -0.8240  0.4058 -0.2775
  256MOL0     N34476   1.792   9.977   7.830  0.4129  0.3696 -0.1624
  256MOL0     N34477   1.899   9.926   7.887 -0.1567  0.9649  0.4668
  256MOL0     C34478   2.930   9.880   7.571 -0.0921 -0.4447  0.2671
  256MOL0     C34479   3.060   9.844   7.516  0.2786  0.7429  0.1986
  256MOL0     C34480   3.411   9.634   7.354  0.1648 -0.6687  0.7173
  256MOL0     C34481   3.508   9.694   7.430  0.4808 -0.1167 -0.6796
  256MOL0     C34482   3.628   9.694   7.377 -1.1892  0.2349 -0.3822
  256MOL0     C34483   3.670   9.631   7.257  0.1892 -0.6212 -0.1169
  256MOL0     O34484   3.798   9.618   7.211 -0.3550  0.0615  0.1292
  256MOL0     C34485   3.906   9.636   7.306 -0.5921  0.5726  0.3214
  256MOL0     C34486   4.041   9.599   7.239  0.3271 -1.0712  0.4505
  256MOL0     C34487   4.070   9.716   7.134 -0.5363  0.2246  0.8062
  256MOL0     C34488   4.197   9.675   7.060  0.3711 -0.7355 -0.1423
  256MOL0     C34489   4.180   9.604   6.933 -0.1504 -0.2552 -0.1161
  256MOL0     C34490   4.170   9.547   6.826  0.0511 -0.8470 -0.2575
  256MOL0     C34491   3.570   9.581   7.178 -0.7472 -0.4839 -0.2881
  256MOL0     C34492   3.441   9.589   7.224  0.3849  0.3321 -0.1956
  256MOL0     H34493   3.119   9.568   7.715 -0.9634 -2.1546 -2.0421
  256MOL0     H34494   2.912   9.649   7.813  1.1260 -2.7065 -0.9503
  256MOL0     H34495   2.782  10.046   7.750  0.3872 -0.9915  1.3713
  256MOL0     H34496   2.681   9.966   7.625  2.1034  0.0594 -0.3857
  256MOL0     H34497   2.624  10.006   7.920 -0.5390  0.4974 -0.4970
  256MOL0     H34498   2.554  10.090   7.780  1.3826  0.6622 -1.9070
  256MOL0     H34499   2.438   9.881   7.718  0.3339  1.0451  1.9288
  256MOL0     H34500   2.531   9.784   7.835  2.4288  0.4236  2.4165
  256MOL0     H34501   2.426   9.920   8.021  1.3270 -0.1024 -0.3337
  256MOL0     H34502   2.329  10.007   7.904  0.5822  1.4933  4.1167
  256MOL0     H34503   2.330   9.705   7.949  1.6135 -0.2287 -4.3483
  256MOL0     H34504   2.219   9.813   8.031 -2.5267 -1.5738 -0.9352
  256MOL0     H34505   2.117   9.879   7.808  0.0196  0.1562 -2.8969
  256MOL0     H34506   2.234   9.765   7.731  0.1853 -2.6487  1.0169
  256MOL0     H34507   2.019   9.644   7.742 -0.0521 -1.5805  0.9540
  256MOL0     H34508   2.144   9.580   7.849  1.1568 -0.2157  0.2356
  256MOL0     H34509   2.019   9.715   8.039  3.8744 -1.2218 -0.8013
  256MOL0     H34510   1.910   9.587   7.954 -1.3890  0.6560 -1.7287
  256MOL0     H34511   1.687   9.666   7.856  0.6289 -0.3703  0.8922
  256MOL0     H34512   1.552  10.011   7.752 -3.9954  0.2957 -0.1231
  256MOL0     H34513   1.557   9.869   7.666 -5.0960 -2.4121  0.5979
  256MOL0     H34514   1.438   9.893   7.950 -0.5550  0.8799 -0.0878
  256MOL0     H34515   1.455   9.739   7.862 -2.2270 -0.0434  0.4614
  256MOL0     H34516   1.290   9.810   7.692 -2.3017 -1.4668  1.3832
  256MOL0     H34517   1.291   9.975   7.778  0.9153  0.4824 -0.4270
  256MOL0     H34518   1.206   9.831   7.983 -1.4162  2.2281  0.0554
  256MOL0     H34519   1.211   9.699   7.862  0.6131  0.1705  0.6470
  256MOL0     H34520   0.864   9.906   7.712  2.2467  0.8769  0.4522
  256MOL0     H34521   0.617   9.985   7.671  2.5198  0.8658 -0.6616
  256MOL0     H34522   0.520   9.967   7.805 -0.4310 -1.5591 -4.7403
  256MOL0     H34523   0.616  10.119   7.785 -0.6816 -0.2547 -2.1569
  256MOL0     H34524   0.478  10.216   8.264 -0.7093  1.8953 -1.4458
  256MOL0     H34525   0.274  10.306   8.359  0.5333  0.3149 -0.5689
  256MOL0     H34526   0.094  10.202   8.538  2.5481  1.7011 -1.0202
  256MOL0     H34527   0.075  10.354   8.467 -0.4442 -0.2451  0.8489
  256MOL0     H34528  -0.121  10.146   8.583 -2.8603  0.4794  1.7103
  256MOL0     H34529  -0.108  10.319   8.615 -2.7411 -2.0816  0.9833
  256MOL0     H34530  -0.217  10.381   8.406  2.3014 -0.1789 -0.1097
  256MOL0     H34531  -0.319  10.284   8.519 -1.3740 -1.1666 -2.2852
  256MOL0     H34532  -0.233  10.206   8.252  1.0512 -1.9691 -0.9378
  256MOL0     H34533  -0.219  10.081   8.365  0.6275  0.5493 -3.5087
  256MOL0     H34534  -0.473  10.152   8.436 -2.7634  0.7191 -1.4110
  256MOL0     H34535  -0.448  10.053   8.293 -0.6141  0.8902 -0.0838
  256MOL0     H34536  -0.445  10.355   8.273 -1.0246  0.1635 -0.6032
  256MOL0     H34537  -0.469  10.234   8.149 -0.4126 -1.2173 -0.1127
  256MOL0     H34538  -0.666  10.293   8.362 -1.1255 -3.1659  2.2726
  256MOL0     H34539  -0.666  10.140   8.280 -1.0996  1.6934  1.4139
  256MOL0     H34540  -0.811  10.313   8.151  0.4902  2.0866 -1.8652
  256MOL0     H34541  -0.674  10.269   8.059  0.7886  2.4094 -0.9390
  256MOL0     H34542   0.052   9.989   8.173  2.0758 -1.1055 -0.0176
  256MOL0     H34543   0.262   9.920   8.049 -0.8593 -0.2473 -0.0812
  256MOL0     H34544   0.833   9.901   8.194  1.7866  1.5003  0.8359
  256MOL0     H34545   1.016   9.801   8.086 -1.0223 -1.8743 -1.8678
  256MOL0     H34546   2.878   9.966   7.529 -1.7703 -0.7887  1.5012
  256MOL0     H34547   3.106   9.891   7.430 -0.3241 -1.9255 -1.7024
  256MOL0     H34548   3.483   9.737   7.526  2.4337  1.2034 -0.7013
  256MOL0     H34549   3.711   9.733   7.436  0.2144 -2.0007 -0.7364
  256MOL0     H34550   3.912   9.734   7.353 -2.1457  1.1088 -0.5088
  256MOL0     H34551   3.891   9.572   7.394  2.3041 -1.0453 -0.2402
  256MOL0     H34552   4.039   9.502   7.189  1.2421  0.1131 -2.0313
  256MOL0     H34553   4.124   9.582   7.309  0.3785  1.1609  1.0031
  256MOL0     H34554   4.076   9.809   7.191 -0.8524 -0.4030  1.8905
  256MOL0     H34555   3.992   9.743   7.062  1.5272  1.1003 -1.2317
  256MOL0     H34556   4.255   9.608   7.124  0.0449 -0.6051  0.2918
  256MOL0     H34557   4.262   9.763   7.049  0.6727 -0.6218  2.0994
  256MOL0     H34558   4.161   9.507   6.727 -0.7781  2.8520 -1.8687
  256MOL0     H34559   3.593   9.546   7.078  1.4764  0.5682 -0.2166
  256MOL0     H34560   3.355   9.552   7.169 -0.8213  1.4399  0.8782
  257MOL0     O34561   0.931   4.003   6.950 -0.2840 -0.6918  0.0115
  257MOL0     C34562   0.998   3.997   7.059  0.3409 -0.2243  1.3305
  257MOL0     O34563   0.987   4.081   7.161 -0.1137 -0.4966  0.2578
  257MOL0     C34564   0.893   4.181   7.172 -1.0574 -0.9081 -1.0531
  257MOL0     C34565   0.760   4.169   7.131 -0.4629 -0.0440 -0.4079
  257MOL0     C34566   0.669   4.271   7.153 -0.6875  0.1171 -1.0059
  257MOL0     C34567   0.703   4.390   7.219 -0.3742  1.1843  0.4957
  257MOL0     O34568   0.623   4.503   7.252 -0.6295 -0.6554 -0.0093
  257MOL0     C34569   0.481   4.492   7.234  0.4492  0.4478  0.4420
  257MOL0     C34570   0.392   4.607   7.303 -0.5588  0.2694  0.8411
  257MOL0     C34571   0.252   4.558   7.315 -0.3475 -0.5798  0.8724
  257MOL0     C34572   0.162   4.558   7.193 -1.4363  0.2468  0.4992
  257MOL0     C34573   0.011   4.542   7.224 -0.3977  0.8523  0.2757
  257MOL0     C34574  -0.073   4.566   7.099  0.0796  0.1299 -0.6073
  257MOL0     C34575  -0.215   4.589   7.138  0.6299 -0.5313 -0.6223
  257MOL0     C34576  -0.285   4.658   7.025  0.5497 -0.4064  0.2741
  257MOL0     N34577  -0.417   4.707   7.061  0.6396 -0.3051 -0.2374
  257MOL0     C34578  -0.442   4.839   7.089 -0.8996 -0.8276  0.1211
  257MOL0     C34579  -0.568   4.837   7.120  0.5149 -1.0645 -0.0056
  257MOL0     C34580  -0.641   4.959   7.177 -0.2179  0.0891  0.8561
  257MOL0     C34581  -0.792   4.946   7.167 -0.0626  0.3209  0.5350
  257MOL0     C34582  -0.876   5.067   7.220 -0.7978  0.0640 -0.2690
  257MOL0     C34583  -1.028   5.048   7.217 -0.1408  0.9303  1.2117
  257MOL0     O34584  -1.085   5.159   7.273  0.3168  0.4072 -0.1397
  257MOL0     C34585  -1.217   5.168   7.301 -0.0576 -0.1789  0.0946
  257MOL0     C34586  -1.264   5.260   7.395 -0.0264 -1.2716 -0.2171
  257MOL0     C34587  -1.396   5.289   7.412  0.0926  0.4969 -0.1772
  257MOL0     C34588  -1.430   5.405   7.511 -0.6768 -0.3249  0.2820
  257MOL0     C34589  -1.495   5.218   7.332  0.5027  0.0389 -0.1866
  257MOL0     C34590  -1.643   5.242   7.340  0.2974  0.5621 -0.9553
  257MOL0     O34591  -1.719   5.164   7.249  0.5220 -0.0173 -0.2977
  257MOL0     C34592  -1.843   5.215   7.230  0.8611  1.4082 -0.5769
  257MOL0     C34593  -1.943   5.178   7.321  0.2861  0.0113 -0.0534
  257MOL0     C34594  -2.069   5.232   7.313  0.4542  0.3380 -0.1376
  257MOL0     C34595  -2.101   5.328   7.219  0.0517 -0.1002  0.5220
  257MOL0     O34596  -2.228   5.375   7.203 -0.3161 -0.5788  0.6803
  257MOL0     C34597  -2.307   5.396   7.323  0.4916 -0.0676  0.7979
  257MOL0     C34598  -2.417   5.503   7.309 -0.0367 -0.0933 -0.1457
  257MOL0     C34599  -2.503   5.504   7.438 -0.5241 -0.1214  0.7989
  257MOL0     C34600  -2.437   5.585   7.557  0.6716  0.3647  0.1509
  257MOL0     C34601  -2.542   5.607   7.667  0.1043 -0.6962 -0.5558
  257MOL0     C34602  -2.490   5.652   7.811  0.8040 -0.2652  0.0714
  257MOL0     C34603  -2.439   5.795   7.817  0.3357 -0.2481  0.4447
  257MOL0     C34604  -2.279   5.815   7.802 -0.0452  0.4371 -0.6411
  257MOL0    Cl34605  -2.186   5.695   7.895  0.2991 -0.0867  0.0397
  257MOL0     C34606  -2.005   5.359   7.125  0.0771  0.5008  0.1305
  257MOL0     C34607  -1.875   5.302   7.124  0.4560  1.0932  0.2844
  257MOL0     O34608  -1.687   5.318   7.422 -0.0510  0.4577  0.2393
  257MOL0     C34609  -1.447   5.133   7.231 -0.2951  0.3359  0.7412
  257MOL0     C34610  -1.309   5.108   7.224 -0.6903  1.4532 -0.5222
  257MOL0     N34611  -0.618   4.710   7.123  0.0400  0.2589 -0.7560
  257MOL0     N34612  -0.528   4.627   7.086  0.1779 -0.0989  0.1903
  257MOL0     C34613   0.836   4.406   7.264  0.0451  0.8178 -0.0348
  257MOL0     C34614   0.930   4.298   7.244  0.3000  1.1261  0.5079
  257MOL0     C34615   1.102   3.898   7.059  1.1492  0.0105  0.3582
  257MOL0     C34616   1.216   3.907   7.143 -1.3366 -1.1960 -0.1205
  257MOL0     C34617   1.303   3.796   7.151 -0.9306  0.0477 -0.1949
  257MOL0     C34618   1.298   3.701   7.048  0.2606 -0.6953 -0.9784
  257MOL0     O34619   1.383   3.597   7.048  0.7036  0.8001  0.0849
  257MOL0     C34620   1.496   3.592   7.137  0.3616  0.2095 -0.6069
  257MOL0     C34621   1.532   3.449   7.148  0.3387  0.2780  0.3372
  257MOL0     C34622   1.656   3.426   7.225  0.0582  0.0411 -0.2206
  257MOL0     C34623   1.673   3.278   7.244 -0.1261  0.2571 -0.6576
  257MOL0     C34624   1.794   3.253   7.323 -0.0513  0.0579 -0.9758
  257MOL0     C34625   1.880   3.200   7.396 -0.0283  0.5217 -0.0161
  257MOL0     C34626   1.197   3.694   6.958  0.3133 -0.4116 -0.1803
  257MOL0     C34627   1.101   3.800   6.960  0.1190 -0.1330 -0.1125
  257MOL0     H34628   0.728   4.081   7.077 -0.0362  0.7784 -2.0546
  257MOL0     H34629   0.566   4.256   7.124 -2.1365  1.4522  2.8046
  257MOL0     H34630   0.467   4.500   7.126  0.8694  2.8395  0.4982
  257MOL0     H34631   0.460   4.392   7.271 -0.6537  0.9369  1.1942
  257MOL0     H34632   0.430   4.619   7.405 -0.2263 -0.1538  0.7703
  257MOL0     H34633   0.409   4.695   7.241 -1.8235 -0.1546 -0.1570
  257MOL0     H34634   0.256   4.454   7.348 -2.2929 -0.9344  0.0996
  257MOL0     H34635   0.197   4.615   7.391 -0.8756 -0.2569  0.2551
  257MOL0     H34636   0.171   4.650   7.135  0.5260 -1.4222 -2.0876
  257MOL0     H34637   0.199   4.475   7.130 -2.4442  0.9232 -1.0563
  257MOL0     H34638   0.000   4.443   7.270 -2.7080  1.7814  1.9147
  257MOL0     H34639  -0.019   4.624   7.289 -0.1092 -0.1030  1.6570
  257MOL0     H34640  -0.031   4.662   7.068  1.5418  0.2971  1.5844
  257MOL0     H34641  -0.045   4.492   7.024 -0.0379  1.1713 -1.7174
  257MOL0     H34642  -0.247   4.487   7.158  1.2800 -0.8883 -1.3460
  257MOL0     H34643  -0.226   4.636   7.236  3.3682 -1.1985  0.0902
  257MOL0     H34644  -0.280   4.594   6.936  0.1771  1.7666 -1.3711
  257MOL0     H34645  -0.229   4.746   6.991 -0.2828  0.2971  0.6973
  257MOL0     H34646  -0.373   4.922   7.076 -1.4429 -0.7073 -2.5410
  257MOL0     H34647  -0.609   4.983   7.279  1.0791 -0.1451  0.5278
  257MOL0     H34648  -0.607   5.045   7.117  3.2833  0.3648  2.9455
  257MOL0     H34649  -0.812   4.854   7.222 -0.6636  1.1871  1.8102
  257MOL0     H34650  -0.832   4.938   7.066  1.7981  0.8088 -0.2964
  257MOL0     H34651  -0.868   5.158   7.159 -3.9642  1.0691  0.6049
  257MOL0     H34652  -0.836   5.095   7.317 -1.7779  3.0512 -0.6054
  257MOL0     H34653  -1.064   4.958   7.267 -1.1685 -0.9587 -2.5142
  257MOL0     H34654  -1.051   5.044   7.110 -1.5276  1.5067  1.4804
  257MOL0     H34655  -1.193   5.309   7.461 -1.5980 -0.9137  1.2861
  257MOL0     H34656  -1.496   5.375   7.593  1.1825 -0.6195  1.7216
  257MOL0     H34657  -1.334   5.434   7.555  0.4916 -0.2768 -2.0965
  257MOL0     H34658  -1.457   5.493   7.452  0.9038 -1.7644 -2.8830
  257MOL0     H34659  -1.925   5.102   7.397 -0.4310 -0.1071  0.0041
  257MOL0     H34660  -2.147   5.200   7.382  0.4871 -4.5802 -1.9654
  257MOL0     H34661  -2.346   5.302   7.363  1.2129  0.1583  2.0963
  257MOL0     H34662  -2.244   5.431   7.405  0.6343  0.0417  0.6429
  257MOL0     H34663  -2.371   5.600   7.288  1.4819 -1.3624 -3.3053
  257MOL0     H34664  -2.482   5.479   7.224 -1.3452 -0.3151  0.8776
  257MOL0     H34665  -2.515   5.401   7.474  0.8623 -0.2393  0.9621
  257MOL0     H34666  -2.605   5.533   7.412 -0.3262  1.7178  1.9141
  257MOL0     H34667  -2.356   5.527   7.604 -0.5929 -1.7415 -0.1101
  257MOL0     H34668  -2.399   5.683   7.529  1.4354  0.7279  2.3217
  257MOL0     H34669  -2.595   5.512   7.680  0.3522 -0.4700  3.0470
  257MOL0     H34670  -2.616   5.677   7.629 -0.0326 -0.8983 -0.6663
  257MOL0     H34671  -2.574   5.630   7.878  1.4244 -0.3272  0.8354
  257MOL0     H34672  -2.418   5.576   7.841  0.6830 -0.8148 -0.9650
  257MOL0     H34673  -2.470   5.841   7.911  0.4418  1.2219 -0.2166
  257MOL0     H34674  -2.485   5.858   7.740  2.3896  0.9647  0.1248
  257MOL0     H34675  -2.249   5.918   7.826 -4.0083  1.6255 -0.1562
  257MOL0     H34676  -2.250   5.778   7.703 -0.5815 -2.5595  0.2371
  257MOL0     H34677  -2.035   5.428   7.047 -1.1785 -0.1746 -0.0036
  257MOL0     H34678  -1.807   5.334   7.045 -1.4779 -0.0561 -1.9909
  257MOL0     H34679  -1.518   5.079   7.168 -1.0109 -1.3101  2.8519
  257MOL0     H34680  -1.286   5.026   7.156 -2.6815 -0.4748  0.9663
  257MOL0     H34681   0.869   4.494   7.319  2.5849  0.6511 -1.1205
  257MOL0     H34682   1.029   4.291   7.287  0.3442 -1.9543  0.1488
  257MOL0     H34683   1.218   3.990   7.212  0.1666 -1.2782 -0.0416
  257MOL0     H34684   1.376   3.790   7.231 -1.1635  0.7203  0.0757
  257MOL0     H34685   1.581   3.642   7.091 -0.1041 -0.6667 -2.5207
  257MOL0     H34686   1.479   3.634   7.236 -1.8063  2.4492 -1.8242
  257MOL0     H34687   1.524   3.396   7.053  0.7665 -0.6260  0.7991
  257MOL0     H34688   1.444   3.410   7.199  0.5493  1.7179  1.8944
  257MOL0     H34689   1.650   3.473   7.324  0.2396 -0.1166 -0.1337
  257MOL0     H34690   1.742   3.459   7.166 -1.0354 -0.0078 -1.9139
  257MOL0     H34691   1.688   3.223   7.151 -2.9585  1.6424 -2.0563
  257MOL0     H34692   1.586   3.242   7.299  0.7321 -2.2806 -0.8105
  257MOL0     H34693   1.958   3.161   7.458  1.7752  0.8485 -1.9906
  257MOL0     H34694   1.198   3.616   6.883 -0.2987 -1.3317  0.7411
  257MOL0     H34695   1.013   3.797   6.896  0.0755  0.4837 -0.0840
  258MOL0     O34696   0.437   6.241   6.321  0.8887 -0.3735  0.0235
  258MOL0     C34697   0.433   6.253   6.442  0.7274 -1.2889  1.2090
  258MOL0     O34698   0.328   6.252   6.518  0.1135 -0.0731 -0.4297
  258MOL0     C34699   0.204   6.237   6.472  1.0116 -0.9199 -0.9626
  258MOL0     C34700   0.157   6.353   6.408 -0.0364  0.0450  0.0599
  258MOL0     C34701   0.029   6.360   6.362 -1.0347  0.1471  0.2008
  258MOL0     C34702  -0.056   6.260   6.390  0.7576  0.5048  0.3732
  258MOL0     O34703  -0.190   6.260   6.344 -0.4537  0.1385  0.3325
  258MOL0     C34704  -0.268   6.377   6.358 -0.2658  0.3528 -0.5515
  258MOL0     C34705  -0.407   6.328   6.348 -0.9198  0.5800  0.1055
  258MOL0     C34706  -0.515   6.435   6.327 -0.4129  0.4300 -0.2467
  258MOL0     C34707  -0.527   6.522   6.446  0.2079 -0.6393  0.1872
  258MOL0     C34708  -0.612   6.648   6.427 -0.0687 -0.4308  0.2906
  258MOL0     C34709  -0.761   6.614   6.439  0.2226  0.6033  0.1519
  258MOL0     C34710  -0.867   6.729   6.416  0.1887  0.2845  0.2818
  258MOL0     C34711  -0.844   6.798   6.284 -0.3648 -0.8110 -0.3495
  258MOL0     N34712  -0.879   6.716   6.165  0.4890  0.3644 -0.7982
  258MOL0     C34713  -0.794   6.637   6.091 -0.4119 -0.4776 -0.1139
  258MOL0     C34714  -0.879   6.576   6.002 -0.0187 -1.0044  0.0685
  258MOL0     C34715  -0.828   6.502   5.887  0.4705  0.4825  0.6696
  258MOL0     C34716  -0.952   6.432   5.819  0.1896 -0.2596 -0.0324
  258MOL0     C34717  -0.899   6.325   5.718  0.4252  0.0970 -0.2308
  258MOL0     C34718  -0.999   6.313   5.600  0.0577  0.2550 -0.3053
  258MOL0     O34719  -1.132   6.315   5.646 -0.1574  0.2584  0.3449
  258MOL0     C34720  -1.224   6.381   5.572  0.3441 -0.8448 -0.3805
  258MOL0     C34721  -1.241   6.391   5.431 -0.4441 -0.4197 -0.3600
  258MOL0     C34722  -1.357   6.432   5.366  0.2961  0.3540  0.0006
  258MOL0     C34723  -1.379   6.405   5.220  0.1021  0.8084  0.4603
  258MOL0     C34724  -1.467   6.483   5.452 -0.4875  0.0201  0.2979
  258MOL0     C34725  -1.600   6.527   5.401 -0.3786 -0.6332  1.1437
  258MOL0     O34726  -1.696   6.562   5.500 -0.1776 -0.3974  0.0565
  258MOL0     C34727  -1.822   6.603   5.445 -0.1485 -0.0204  0.9121
  258MOL0     C34728  -1.892   6.713   5.489 -0.2823  0.3926 -0.8884
  258MOL0     C34729  -2.021   6.751   5.442 -0.4768  0.6111 -0.2898
  258MOL0     C34730  -2.089   6.669   5.354  0.7376  0.5768  0.0634
  258MOL0     O34731  -2.217   6.702   5.316  0.0672 -0.4228  0.2409
  258MOL0     C34732  -2.261   6.835   5.294 -0.1679 -0.1067 -0.0497
  258MOL0     C34733  -2.359   6.844   5.169  0.4260 -0.2641 -1.0836
  258MOL0     C34734  -2.288   6.813   5.042 -1.6859 -0.3264 -0.0850
  258MOL0     C34735  -2.388   6.759   4.937  0.0175 -0.1038  0.1154
  258MOL0     C34736  -2.318   6.742   4.808  0.1516 -0.5857 -1.3527
  258MOL0     C34737  -2.395   6.763   4.675 -0.8228  1.5989  0.3071
  258MOL0     C34738  -2.499   6.655   4.643 -0.0975 -0.5893 -0.4753
  258MOL0     C34739  -2.517   6.649   4.492  0.8769  0.7230 -1.1579
  258MOL0    Cl34740  -2.600   6.798   4.429 -0.3994  0.1061 -0.8682
  258MOL0     C34741  -2.026   6.549   5.315 -0.0013 -0.2083 -0.4140
  258MOL0     C34742  -1.898   6.520   5.361 -0.1725  0.0825 -0.4925
  258MOL0     O34743  -1.615   6.551   5.280 -0.4243 -0.0329  0.9802
  258MOL0     C34744  -1.441   6.505   5.586 -0.2980 -0.0833 -0.2598
  258MOL0     C34745  -1.328   6.443   5.646  0.1676  0.1845  0.4080
  258MOL0     N34746  -1.010   6.619   6.027 -0.6686 -0.0242  0.4801
  258MOL0     N34747  -1.007   6.704   6.124 -0.0968 -0.3674  0.3057
  258MOL0     C34748  -0.014   6.148   6.466  0.0376 -0.7293  0.2940
  258MOL0     C34749   0.121   6.130   6.486  0.3000  0.2207 -0.2154
  258MOL0     C34750   0.563   6.250   6.523  0.1502 -0.5734 -0.1123
  258MOL0     C34751   0.685   6.227   6.459 -0.0067  1.4026 -0.7823
  258MOL0     C34752   0.803   6.212   6.539 -0.3369 -0.3102 -0.5937
  258MOL0     C34753   0.801   6.231   6.685 -0.5362  0.4072  0.5193
  258MOL0     O34754   0.911   6.202   6.757 -0.8089 -0.8295  0.8373
  258MOL0     C34755   1.016   6.305   6.750 -0.4886 -0.0898 -0.3059
  258MOL0     C34756   1.134   6.261   6.673  0.4833 -0.0200  0.3712
  258MOL0     C34757   1.233   6.191   6.776 -0.3705  0.4015  0.2695
  258MOL0     C34758   1.371   6.239   6.749  0.2003 -0.4247 -0.0228
  258MOL0     C34759   1.384   6.382   6.792  0.1452 -0.0542 -0.0770
  258MOL0     C34760   1.414   6.491   6.827  0.9098  0.2712 -0.3733
  258MOL0     C34761   0.680   6.257   6.745 -0.1264  0.4434 -0.0253
  258MOL0     C34762   0.563   6.271   6.667  0.3386 -0.6593 -0.3818
  258MOL0     H34763   0.225   6.435   6.385  1.8061 -1.6333 -0.7880
  258MOL0     H34764  -0.003   6.438   6.294 -1.9450  1.7714  2.3687
  258MOL0     H34765  -0.244   6.426   6.452  2.1477 -1.3766 -0.1545
  258MOL0     H34766  -0.253   6.440   6.270 -0.9478  0.5917 -0.5018
  258MOL0     H34767  -0.418   6.272   6.254  0.0240  0.4142  0.0842
  258MOL0     H34768  -0.420   6.268   6.439  0.6449  0.4650  0.2949
  258MOL0     H34769  -0.493   6.492   6.236  1.6872 -1.2886 -0.9167
  258MOL0     H34770  -0.605   6.375   6.311  1.6266 -2.8323 -0.3775
  258MOL0     H34771  -0.571   6.460   6.525 -0.7721 -1.6185 -1.0835
  258MOL0     H34772  -0.427   6.549   6.481  1.1006 -1.0533 -1.9098
  258MOL0     H34773  -0.593   6.718   6.509 -0.4718 -1.9109  1.6869
  258MOL0     H34774  -0.581   6.691   6.331  2.5121 -2.2179  0.2158
  258MOL0     H34775  -0.777   6.534   6.366 -0.0827  0.4166  0.4215
  258MOL0     H34776  -0.779   6.579   6.541  0.7766  0.1381  0.0902
  258MOL0     H34777  -0.969   6.691   6.408  0.6324 -0.5308 -2.5466
  258MOL0     H34778  -0.857   6.796   6.503  1.6244  0.5036 -0.0310
  258MOL0     H34779  -0.741   6.832   6.271 -0.6046  0.8932  1.7275
  258MOL0     H34780  -0.915   6.880   6.296  0.4187 -0.0963 -0.4836
  258MOL0     H34781  -0.690   6.645   6.124 -1.3471  0.3097  2.9700
  258MOL0     H34782  -0.775   6.570   5.820  1.4033 -1.9876 -1.2819
  258MOL0     H34783  -0.754   6.429   5.919 -2.1914 -3.5927 -1.4467
  258MOL0     H34784  -1.005   6.512   5.767 -3.6689 -2.4765  0.1612
  258MOL0     H34785  -1.020   6.391   5.895  2.1358 -4.6305 -0.3282
  258MOL0     H34786  -0.884   6.232   5.774  0.0974  1.0786  1.5528
  258MOL0     H34787  -0.802   6.353   5.678 -0.0929 -0.0597 -1.6500
  258MOL0     H34788  -0.992   6.212   5.560  2.7818 -0.0433  0.7115
  258MOL0     H34789  -0.981   6.385   5.519 -1.8335  1.4306  0.2395
  258MOL0     H34790  -1.164   6.348   5.368  1.8821 -0.4416  2.3160
  258MOL0     H34791  -1.380   6.500   5.165  1.4643 -0.5612 -2.1076
  258MOL0     H34792  -1.305   6.339   5.175  1.2999  2.2692  0.2141
  258MOL0     H34793  -1.480   6.365   5.211 -0.8840  2.8172  1.7111
  258MOL0     H34794  -1.854   6.774   5.570  1.4362 -0.2222 -1.1834
  258MOL0     H34795  -2.064   6.845   5.476  0.0822  1.5484 -2.1063
  258MOL0     H34796  -2.327   6.853   5.379 -2.2730 -1.8501 -1.2110
  258MOL0     H34797  -2.177   6.904   5.287  0.3581 -0.2503  3.3369
  258MOL0     H34798  -2.430   6.763   5.187  0.7263 -0.1292  0.8961
  258MOL0     H34799  -2.416   6.937   5.163  1.5850  0.3803 -4.7979
  258MOL0     H34800  -2.206   6.741   5.049  2.0423  3.4481 -0.9627
  258MOL0     H34801  -2.238   6.903   5.007 -1.9426  0.3790  1.3193
  258MOL0     H34802  -2.413   6.657   4.967 -0.1590  1.0716  4.8823
  258MOL0     H34803  -2.479   6.821   4.932 -1.0776 -1.1619  3.7193
  258MOL0     H34804  -2.261   6.648   4.805  1.8798  0.3210  0.5149
  258MOL0     H34805  -2.254   6.830   4.811 -0.6203  0.0889  3.9402
  258MOL0     H34806  -2.440   6.863   4.671 -1.5988  1.2823  0.9967
  258MOL0     H34807  -2.322   6.758   4.593 -0.5344  0.9862  0.5951
  258MOL0     H34808  -2.589   6.660   4.706  0.1384 -2.6409  0.0964
  258MOL0     H34809  -2.464   6.555   4.673 -1.2423 -0.4225  1.6272
  258MOL0     H34810  -2.578   6.560   4.473  1.2332  0.4721 -1.1407
  258MOL0     H34811  -2.424   6.628   4.439  1.8222  0.1216  0.6442
  258MOL0     H34812  -2.083   6.479   5.255 -0.2677  1.2908 -1.9889
  258MOL0     H34813  -1.860   6.423   5.330 -0.2129 -0.7736  1.9723
  258MOL0     H34814  -1.511   6.554   5.653 -1.3657 -1.9284  0.0378
  258MOL0     H34815  -1.324   6.429   5.753  0.8512  0.3435  0.4119
  258MOL0     H34816  -0.085   6.071   6.495  1.3092 -2.6242 -1.3749
  258MOL0     H34817   0.157   6.042   6.538 -0.4536  0.0057 -0.0351
  258MOL0     H34818   0.694   6.225   6.351  0.7308  1.8178 -0.7405
  258MOL0     H34819   0.901   6.195   6.494 -1.0767 -1.0559 -1.9989
  258MOL0     H34820   0.979   6.387   6.688  0.7167  0.0150 -0.9186
  258MOL0     H34821   1.052   6.341   6.846  3.4963 -3.1087 -0.3938
  258MOL0     H34822   1.182   6.349   6.628  0.1223  1.1895  2.2576
  258MOL0     H34823   1.112   6.189   6.593  3.9808 -0.3190 -0.5081
  258MOL0     H34824   1.234   6.082   6.764  0.3373  0.6157 -2.4025
  258MOL0     H34825   1.205   6.217   6.878  1.8283  0.4347  0.9245
  258MOL0     H34826   1.392   6.235   6.641 -1.7112  0.4237 -0.4605
  258MOL0     H34827   1.443   6.173   6.798  0.0030 -0.0301  0.8022
  258MOL0     H34828   1.447   6.587   6.861 -0.3516  0.1220  1.4583
  258MOL0     H34829   0.672   6.263   6.853 -4.7978  1.0521 -0.2138
  258MOL0     H34830   0.469   6.290   6.717  1.2327  1.1477  0.6954
  259MOL0     O34831   5.500   5.112   2.232 -0.2169 -0.7384  0.1154
  259MOL0     C34832   5.503   5.022   2.151 -0.3523 -0.7618  0.2407
  259MOL0     O34833   5.397   4.981   2.080  0.1988  0.1919 -0.5187
  259MOL0     C34834   5.288   5.057   2.078 -0.5103  0.8644  0.3752
  259MOL0     C34835   5.204   5.060   2.193 -0.3626 -0.8129  0.2763
  259MOL0     C34836   5.094   5.149   2.199  1.0204  0.3734 -0.3450
  259MOL0     C34837   5.066   5.235   2.089  0.0409  0.1266 -1.0297
  259MOL0     O34838   4.969   5.325   2.114  0.6359 -0.5829 -0.2361
  259MOL0     C34839   4.904   5.382   2.009 -0.2389 -0.7909  0.4567
  259MOL0     C34840   4.787   5.319   1.934 -0.3545  0.1476  0.3995
  259MOL0     C34841   4.672   5.309   2.037  1.1750  0.0867  0.8080
  259MOL0     C34842   4.553   5.235   1.967 -0.1661  0.5720  0.3127
  259MOL0     C34843   4.443   5.220   2.079  0.7499 -0.5047 -0.7849
  259MOL0     C34844   4.388   5.358   2.124 -0.8457  0.6578  0.1509
  259MOL0     C34845   4.276   5.364   2.231  1.4592  1.1294 -0.2133
  259MOL0     C34846   4.136   5.375   2.162 -0.4442  0.3463  0.0964
  259MOL0     N34847   4.032   5.403   2.265 -0.2220  0.0882 -0.0734
  259MOL0     C34848   3.996   5.524   2.314  0.6401  0.6017  0.7515
  259MOL0     C34849   3.896   5.497   2.406 -0.2537  0.5580  0.3622
  259MOL0     C34850   3.841   5.604   2.504  0.5837 -0.4552 -0.0145
  259MOL0     C34851   3.699   5.564   2.537  0.5632 -0.1774 -0.4936
  259MOL0     C34852   3.625   5.683   2.603 -0.5459  0.7609 -0.1963
  259MOL0     C34853   3.480   5.672   2.611  0.2626  0.1906  0.4649
  259MOL0     O34854   3.411   5.798   2.607 -0.2070  0.4158  0.1869
  259MOL0     C34855   3.278   5.809   2.569 -0.2316 -0.3816 -0.3991
  259MOL0     C34856   3.223   5.926   2.531  0.1883 -0.5136  0.3204
  259MOL0     C34857   3.083   5.944   2.488  0.2296  0.7991 -0.7439
  259MOL0     C34858   3.042   6.089   2.465  0.5057  0.0107  0.3875
  259MOL0     C34859   2.996   5.827   2.478 -0.2478 -0.5986  0.3620
  259MOL0     C34860   2.857   5.819   2.450  0.4778 -0.4947 -0.6697
  259MOL0     O34861   2.793   5.690   2.459 -0.1964  0.1692 -0.0619
  259MOL0     C34862   2.662   5.687   2.416 -0.2533  0.4477 -0.6697
  259MOL0     C34863   2.633   5.684   2.279 -0.4715 -0.4240  0.8256
  259MOL0     C34864   2.505   5.687   2.236  0.6376 -0.1267  0.4382
  259MOL0     C34865   2.403   5.713   2.327 -0.3078 -0.2139 -0.6941
  259MOL0     O34866   2.275   5.723   2.269 -0.4315  0.2428  0.5199
  259MOL0     C34867   2.164   5.751   2.360 -1.1019 -0.1670  0.5209
  259MOL0     C34868   2.038   5.799   2.284 -0.3254  0.1396 -0.2915
  259MOL0     C34869   1.935   5.837   2.391 -0.2568  0.0621  0.1642
  259MOL0     C34870   1.803   5.871   2.317 -1.1652 -0.1622 -0.4703
  259MOL0     C34871   1.681   5.854   2.410 -0.2399  0.6700  0.1764
  259MOL0     C34872   1.553   5.876   2.328  0.3657  0.3427 -0.4024
  259MOL0     C34873   1.428   5.870   2.420  0.2417  0.4292  0.5363
  259MOL0     C34874   1.412   5.727   2.479  0.0956 -0.6365 -0.0769
  259MOL0    Cl34875   1.254   5.742   2.551 -0.1808  0.2114 -0.0615
  259MOL0     C34876   2.427   5.694   2.460 -0.3309  0.0918 -0.3542
  259MOL0     C34877   2.558   5.682   2.506  0.1831  0.5741 -0.8367
  259MOL0     O34878   2.797   5.925   2.426 -0.0360  0.4103 -0.4931
  259MOL0     C34879   3.053   5.707   2.518  0.3304  0.9889 -0.6919
  259MOL0     C34880   3.188   5.703   2.553 -0.0237 -0.4771 -1.2225
  259MOL0     N34881   3.879   5.355   2.415 -0.4956 -0.3154 -0.8863
  259MOL0     N34882   3.971   5.300   2.333  0.4427  0.2478  0.5325
  259MOL0     C34883   5.150   5.225   1.973 -0.1708 -0.2488  0.0710
  259MOL0     C34884   5.253   5.134   1.968  0.2992 -0.9617  0.0129
  259MOL0     C34885   5.639   4.969   2.126  0.0084 -0.0298 -0.1474
  259MOL0     C34886   5.735   4.968   2.234 -0.1103 -0.0622 -0.2817
  259MOL0     C34887   5.869   4.949   2.205  0.0251  0.3293  0.6763
  259MOL0     C34888   5.915   4.935   2.073 -0.0403 -0.0102 -0.4455
  259MOL0     O34889   6.053   4.953   2.048  0.3350 -0.1027  0.1595
  259MOL0     C34890   6.126   4.830   2.051  0.6264 -1.3533 -0.0110
  259MOL0     C34891   6.265   4.848   1.986 -1.0146  0.3728  0.1542
  259MOL0     C34892   6.342   4.717   2.009  0.2921  0.6762  0.8737
  259MOL0     C34893   6.484   4.704   1.947  1.0531  0.0771 -0.2139
  259MOL0     C34894   6.530   4.564   1.943 -0.0740  0.0685 -0.2682
  259MOL0     C34895   6.578   4.455   1.945 -1.1224  0.1756 -0.3778
  259MOL0     C34896   5.824   4.931   1.978 -0.0752  0.6376 -0.5361
  259MOL0     C34897   5.685   4.939   2.000  0.4222  0.1875 -0.6765
  259MOL0     H34898   5.233   4.993   2.273 -0.1526 -3.3401 -1.7810
  259MOL0     H34899   5.031   5.145   2.287 -2.8679 -2.7389 -2.8983
  259MOL0     H34900   4.859   5.473   2.049 -1.9771 -0.6885 -1.5715
  259MOL0     H34901   4.983   5.416   1.942 -0.5848 -0.5909  0.1410
  259MOL0     H34902   4.765   5.382   1.847 -2.2468 -1.8718 -0.6796
  259MOL0     H34903   4.812   5.221   1.890 -2.6669 -0.1841 -0.3183
  259MOL0     H34904   4.701   5.248   2.122 -0.2396 -2.7166 -0.5650
  259MOL0     H34905   4.647   5.414   2.056 -1.1567 -0.6107  1.9851
  259MOL0     H34906   4.517   5.282   1.875  3.0805 -0.8787 -1.8929
  259MOL0     H34907   4.601   5.143   1.932  1.7026  1.5988  0.0768
  259MOL0     H34908   4.371   5.149   2.039  1.1998 -0.7525 -1.1703
  259MOL0     H34909   4.489   5.176   2.168  0.4728 -1.1153 -0.9446
  259MOL0     H34910   4.469   5.413   2.171 -1.7826  1.4514  0.8572
  259MOL0     H34911   4.353   5.417   2.038  2.0051 -0.2269 -1.7687
  259MOL0     H34912   4.269   5.273   2.292 -1.8034  0.5115 -1.3098
  259MOL0     H34913   4.300   5.451   2.293  1.2653  0.0673  1.4300
  259MOL0     H34914   4.129   5.285   2.100  2.4439  0.2103 -0.1740
  259MOL0     H34915   4.138   5.459   2.092 -2.3765  0.6442  0.3263
  259MOL0     H34916   4.028   5.623   2.283  2.0797 -0.6670 -2.1899
  259MOL0     H34917   3.898   5.608   2.597  0.5321  0.1173 -0.0068
  259MOL0     H34918   3.839   5.702   2.457 -2.1053 -0.4395 -0.0660
  259MOL0     H34919   3.694   5.484   2.612  1.4675  2.2849  2.4137
  259MOL0     H34920   3.652   5.529   2.445  1.1197  2.8888 -2.0979
  259MOL0     H34921   3.650   5.776   2.551 -0.5899  2.0603  1.9973
  259MOL0     H34922   3.657   5.692   2.707  0.8023  1.1338 -0.6314
  259MOL0     H34923   3.462   5.612   2.700  0.1091  0.0766  0.3574
  259MOL0     H34924   3.443   5.615   2.525 -3.1700  0.0414  1.9172
  259MOL0     H34925   3.277   6.019   2.544 -0.5836  0.1843 -1.1763
  259MOL0     H34926   2.950   6.112   2.521  0.9267 -0.1350  1.1514
  259MOL0     H34927   3.119   6.159   2.499  0.0741  0.4759  0.4252
  259MOL0     H34928   3.014   6.099   2.360 -0.9969  0.0077  0.7632
  259MOL0     H34929   2.705   5.677   2.198 -1.0062 -1.0865  0.3879
  259MOL0     H34930   2.481   5.695   2.131  1.5056 -3.0979 -0.0705
  259MOL0     H34931   2.161   5.662   2.423  0.4954  0.5352  1.6328
  259MOL0     H34932   2.194   5.834   2.423 -1.3270 -0.3387  0.8571
  259MOL0     H34933   2.062   5.878   2.212  1.9473 -1.4095 -1.3627
  259MOL0     H34934   2.001   5.709   2.235 -2.3707 -0.6947  2.5449
  259MOL0     H34935   1.965   5.918   2.458  2.4191  0.5419 -1.4542
  259MOL0     H34936   1.919   5.747   2.451  0.3869 -0.8569 -1.0024
  259MOL0     H34937   1.804   5.972   2.277 -0.1054  0.1636  0.3211
  259MOL0     H34938   1.796   5.798   2.236 -0.6484  0.6777 -1.2843
  259MOL0     H34939   1.678   5.922   2.495 -0.6958  1.5187 -0.5076
  259MOL0     H34940   1.694   5.762   2.467  1.3741  0.8689  0.1995
  259MOL0     H34941   1.563   5.973   2.279  2.5259  0.3777  0.0153
  259MOL0     H34942   1.541   5.804   2.246 -2.1771 -0.2071  0.3539
  259MOL0     H34943   1.347   5.883   2.347 -0.8679  0.0190  1.6553
  259MOL0     H34944   1.412   5.943   2.499 -3.1717 -1.8156  2.1999
  259MOL0     H34945   1.490   5.714   2.554 -0.6684  3.5460  1.7320
  259MOL0     H34946   1.411   5.638   2.416  0.9167 -1.9231  1.6520
  259MOL0     H34947   2.351   5.722   2.532  0.2909 -0.5779  0.5795
  259MOL0     H34948   2.597   5.657   2.605 -1.5052  0.9012 -0.0577
  259MOL0     H34949   3.003   5.611   2.519  2.0209 -0.0038  2.4008
  259MOL0     H34950   3.221   5.606   2.589  1.1750  0.0089 -0.9922
  259MOL0     H34951   5.139   5.287   1.885 -2.4814 -0.5379  0.0909
  259MOL0     H34952   5.304   5.129   1.872  0.2783 -1.9978  0.0435
  259MOL0     H34953   5.704   5.001   2.333 -1.0201  2.5120 -1.3414
  259MOL0     H34954   5.944   4.940   2.283 -0.6679  0.8538  1.4159
  259MOL0     H34955   6.139   4.805   2.157  0.4592 -1.6473 -0.0606
  259MOL0     H34956   6.071   4.745   2.011 -2.3236 -0.3618  1.6751
  259MOL0     H34957   6.337   4.915   2.034 -1.8303  0.8286  0.7761
  259MOL0     H34958   6.254   4.873   1.880 -0.2735  2.1466  0.4579
  259MOL0     H34959   6.288   4.634   1.963  0.8100  1.8765 -2.2019
  259MOL0     H34960   6.350   4.706   2.117  0.5932 -0.0229  0.7844
  259MOL0     H34961   6.552   4.750   2.019  0.3930 -2.4369  2.1829
  259MOL0     H34962   6.493   4.762   1.855 -1.3131  2.2975  0.8379
  259MOL0     H34963   6.611   4.354   1.935  1.4017  0.7838  1.0540
  259MOL0     H34964   5.851   4.917   1.874 -1.4445  0.6893 -0.9140
  259MOL0     H34965   5.607   4.922   1.926 -0.3132 -2.9618  0.6577
  260MOL0     O34966   5.432   7.010   3.968  0.4273 -0.1980 -0.4081
  260MOL0     C34967   5.495   6.916   4.000  0.0857  0.6020 -0.1064
  260MOL0     O34968   5.459   6.826   4.099 -0.4524 -0.1555 -0.1065
  260MOL0     C34969   5.355   6.833   4.176 -0.1278  0.5064 -1.1142
  260MOL0     C34970   5.288   6.956   4.214 -0.7648 -0.0879  0.2692
  260MOL0     C34971   5.181   6.952   4.304  0.3690  0.0210  0.9836
  260MOL0     C34972   5.128   6.832   4.352  0.0448  0.1066 -0.7316
  260MOL0     O34973   5.005   6.820   4.429 -0.4986  0.0699 -0.5661
  260MOL0     C34974   4.994   6.907   4.542 -0.4171 -0.1132 -0.1944
  260MOL0     C34975   4.878   6.994   4.550  0.9089  0.5420  0.6699
  260MOL0     C34976   4.744   6.928   4.537  0.4647  0.3466 -0.6255
  260MOL0     C34977   4.660   6.956   4.662 -0.8714 -0.0912  0.6080
  260MOL0     C34978   4.619   7.104   4.674 -0.6298  0.4493  0.6974
  260MOL0     C34979   4.635   7.143   4.824  0.0331 -0.5980  0.9164
  260MOL0     C34980   4.564   7.057   4.922 -0.2097  0.0841 -0.4814
  260MOL0     C34981   4.580   7.131   5.065  1.0905  0.1630  0.2687
  260MOL0     N34982   4.504   7.047   5.166 -0.3363 -0.4886  0.1310
  260MOL0     C34983   4.368   7.056   5.188 -0.1886  0.0968  0.0955
  260MOL0     C34984   4.339   6.940   5.261  0.6435  0.5460  0.4277
  260MOL0     C34985   4.200   6.898   5.310  0.4028  0.4253 -0.1697
  260MOL0     C34986   4.195   6.855   5.463 -0.9510 -0.4540 -0.3109
  260MOL0     C34987   4.070   6.789   5.515  0.6699 -0.0020 -0.5267
  260MOL0     C34988   3.947   6.877   5.518  0.4454  0.4574  0.3682
  260MOL0     O34989   3.969   7.004   5.574  0.0735  0.1626  0.6642
  260MOL0     C34990   3.858   7.054   5.635 -0.0400 -0.2190  0.9286
  260MOL0     C34991   3.725   7.019   5.615  0.7016  0.1403  0.1881
  260MOL0     C34992   3.627   7.070   5.696  0.4995  0.4145 -0.0397
  260MOL0     C34993   3.487   7.023   5.650 -0.1509  0.1643 -0.2468
  260MOL0     C34994   3.650   7.164   5.805  0.5878  0.4039 -0.8757
  260MOL0     C34995   3.544   7.202   5.890  0.5178 -0.4895 -0.5947
  260MOL0     O34996   3.548   7.331   5.943  0.2525  0.4858  0.2318
  260MOL0     C34997   3.459   7.357   6.042  0.0812  0.9199  0.0607
  260MOL0     C34998   3.497   7.346   6.173  0.1437  1.0053 -0.0853
  260MOL0     C34999   3.400   7.376   6.272  0.2254  0.3336 -0.6078
  260MOL0     C35000   3.269   7.415   6.231  0.2344 -0.2216  0.2146
  260MOL0     O35001   3.179   7.465   6.326 -0.2670  0.2049  1.0729
  260MOL0     C35002   3.052   7.516   6.282  0.1523  0.3330  0.1202
  260MOL0     C35003   2.950   7.408   6.257  0.3771  0.2350  0.0996
  260MOL0     C35004   2.818   7.475   6.225 -0.1522  0.0650  0.4375
  260MOL0     C35005   2.728   7.414   6.123  0.0559  0.7701  0.0719
  260MOL0     C35006   2.583   7.451   6.145 -0.4576  0.4970  0.3636
  260MOL0     C35007   2.492   7.369   6.044  0.4535  0.1584 -0.1699
  260MOL0     C35008   2.342   7.424   6.045 -0.3234 -0.9429  0.7613
  260MOL0     C35009   2.261   7.377   5.923 -0.3175  0.0930 -0.0700
  260MOL0    Cl35010   2.100   7.436   5.921  0.2570  0.3772 -0.2176
  260MOL0     C35011   3.233   7.418   6.093  0.1557  0.5091  0.9179
  260MOL0     C35012   3.333   7.390   5.999  0.2238 -0.2199 -0.3452
  260MOL0     O35013   3.457   7.114   5.919 -0.3752 -0.7333  0.0165
  260MOL0     C35014   3.789   7.187   5.827  0.0845  0.7704 -0.4423
  260MOL0     C35015   3.885   7.133   5.748 -0.3101  0.6069  0.5449
  260MOL0     N35016   4.463   6.870   5.283  0.3012  0.2865 -0.9938
  260MOL0     N35017   4.556   6.931   5.226  0.0703 -0.1064 -0.2378
  260MOL0     C35018   5.194   6.714   4.310 -0.9818 -0.2655  0.0976
  260MOL0     C35019   5.297   6.715   4.223 -0.5175 -0.5840  0.4648
  260MOL0     C35020   5.614   6.886   3.928  0.6508  0.3047 -0.4963
  260MOL0     C35021   5.726   6.853   3.998 -0.1541 -0.0344 -0.9344
  260MOL0     C35022   5.851   6.833   3.944 -0.7339  0.3874 -0.2431
  260MOL0     C35023   5.862   6.843   3.807  0.1153 -0.1553 -0.3205
  260MOL0     O35024   5.978   6.825   3.737  0.3511  0.7899  0.0406
  260MOL0     C35025   6.093   6.774   3.810  0.2981 -0.4903 -0.1724
  260MOL0     C35026   6.188   6.754   3.695 -0.6037 -0.0699  0.3042
  260MOL0     C35027   6.318   6.696   3.749 -0.1559 -0.1149 -0.0996
  260MOL0     C35028   6.441   6.788   3.738  0.1783  0.1280 -0.5384
  260MOL0     C35029   6.428   6.906   3.823 -0.0161  0.2850 -0.2238
  260MOL0     C35030   6.420   7.004   3.894  0.1502 -0.5184 -0.4018
  260MOL0     C35031   5.755   6.865   3.730  0.8996  0.3812 -0.4774
  260MOL0     C35032   5.624   6.893   3.788 -0.1284 -0.5373  0.1819
  260MOL0     H35033   5.302   7.055   4.171 -2.1782  1.3847  2.9230
  260MOL0     H35034   5.124   7.043   4.321 -1.7203 -0.7697 -1.1733
  260MOL0     H35035   4.995   6.849   4.635 -0.0914  2.4834  1.5137
  260MOL0     H35036   5.086   6.965   4.551 -1.4174  1.4987  0.0653
  260MOL0     H35037   4.893   7.045   4.645  1.6825  1.1420  0.2407
  260MOL0     H35038   4.886   7.075   4.476  1.4233 -1.7722 -1.9939
  260MOL0     H35039   4.690   6.975   4.454  0.2664  1.4066  0.0890
  260MOL0     H35040   4.766   6.822   4.524  0.4820  0.2811 -0.0949
  260MOL0     H35041   4.577   6.885   4.670  2.2684 -4.1015  0.8152
  260MOL0     H35042   4.729   6.933   4.743 -2.5689  0.6739  2.3558
  260MOL0     H35043   4.691   7.165   4.618  0.8194 -0.1515  1.8605
  260MOL0     H35044   4.520   7.129   4.636 -0.3990 -0.6407 -0.6939
  260MOL0     H35045   4.739   7.141   4.857 -0.1696  0.8607  1.6950
  260MOL0     H35046   4.589   7.241   4.839  0.3254 -0.7848  3.3582
  260MOL0     H35047   4.455   7.052   4.910 -0.1423  1.6628 -2.2974
  260MOL0     H35048   4.602   6.955   4.928 -0.0603  0.0612 -1.5726
  260MOL0     H35049   4.525   7.225   5.064 -2.4119 -1.7023  1.8953
  260MOL0     H35050   4.687   7.146   5.086  1.1133  0.7448 -0.2218
  260MOL0     H35051   4.296   7.131   5.158 -1.0310  0.5552  3.0277
  260MOL0     H35052   4.127   6.975   5.283  1.1207  0.6023 -1.6519
  260MOL0     H35053   4.177   6.805   5.257  2.7380  0.2449 -0.9598
  260MOL0     H35054   4.209   6.947   5.520 -0.7643 -0.0968 -0.9185
  260MOL0     H35055   4.275   6.785   5.488  0.8676  1.1623 -1.2198
  260MOL0     H35056   4.069   6.766   5.622 -4.1106 -0.3172 -0.4241
  260MOL0     H35057   4.055   6.697   5.457 -0.5327  0.1619 -0.4994
  260MOL0     H35058   3.871   6.816   5.567 -0.8493  1.2726 -0.5511
  260MOL0     H35059   3.910   6.897   5.417 -1.7950 -0.1728  1.0059
  260MOL0     H35060   3.704   6.946   5.537  0.2044  2.3691 -1.8845
  260MOL0     H35061   3.446   6.946   5.717  0.7652 -0.5820 -0.5368
  260MOL0     H35062   3.410   7.101   5.647 -0.7369 -0.3247  1.2172
  260MOL0     H35063   3.488   6.965   5.558  1.6969 -0.7123  0.2935
  260MOL0     H35064   3.594   7.312   6.209  0.8334  2.4623 -0.5188
  260MOL0     H35065   3.410   7.362   6.379 -1.2848 -0.1009 -0.4946
  260MOL0     H35066   3.013   7.574   6.366 -0.0385  2.6682 -1.4970
  260MOL0     H35067   3.058   7.584   6.197  0.5184  1.6742  1.1761
  260MOL0     H35068   2.972   7.341   6.173  3.2437  0.3861  0.6454
  260MOL0     H35069   2.946   7.348   6.348  1.8802  1.5778  1.1046
  260MOL0     H35070   2.820   7.578   6.191 -2.9045  0.4069  1.0991
  260MOL0     H35071   2.765   7.478   6.321  1.4817 -0.8538  1.4257
  260MOL0     H35072   2.763   7.444   6.024  4.2191 -2.4105  0.3002
  260MOL0     H35073   2.734   7.306   6.139  0.9543  0.8145  0.0576
  260MOL0     H35074   2.573   7.559   6.135  1.3745  0.6046 -0.8006
  260MOL0     H35075   2.549   7.425   6.245  1.5979  1.3741  1.3450
  260MOL0     H35076   2.518   7.372   5.938 -2.1605  1.3477 -0.8754
  260MOL0     H35077   2.487   7.265   6.075 -0.0870 -0.2701 -1.6055
  260MOL0     H35078   2.346   7.534   6.048 -1.4210 -0.9060  2.0361
  260MOL0     H35079   2.290   7.386   6.133 -2.5986  1.4145  0.5846
  260MOL0     H35080   2.254   7.269   5.912 -0.4501  0.1405 -0.4918
  260MOL0     H35081   2.312   7.416   5.834 -0.7702 -0.8663 -0.7660
  260MOL0     H35082   3.137   7.457   6.060 -0.4971 -1.0218  0.9485
  260MOL0     H35083   3.315   7.400   5.893 -1.3256 -4.1334 -0.6292
  260MOL0     H35084   3.809   7.232   5.923 -0.0310  0.8754 -0.4675
  260MOL0     H35085   3.992   7.141   5.766 -0.4648 -0.9724  2.6421
  260MOL0     H35086   5.161   6.616   4.346  3.6556 -2.9021 -1.9512
  260MOL0     H35087   5.339   6.622   4.187 -1.1063 -0.1318 -1.4776
  260MOL0     H35088   5.711   6.860   4.106  2.7997  0.5557 -0.4594
  260MOL0     H35089   5.942   6.819   4.002  0.4429  0.4658 -1.9889
  260MOL0     H35090   6.135   6.855   3.869 -0.2384 -1.2158  1.2464
  260MOL0     H35091   6.077   6.682   3.867 -2.1474  1.5456  2.7041
  260MOL0     H35092   6.202   6.850   3.646 -0.7380 -0.5996 -0.8048
  260MOL0     H35093   6.162   6.683   3.615  1.1847 -0.7895  0.3093
  260MOL0     H35094   6.333   6.605   3.691  2.1879 -0.9113  1.5557
  260MOL0     H35095   6.298   6.672   3.854  1.7547 -2.3234 -0.1612
  260MOL0     H35096   6.454   6.814   3.632  0.0560 -1.8701 -1.0962
  260MOL0     H35097   6.530   6.731   3.766  1.7839  3.4528  1.7481
  260MOL0     H35098   6.425   7.089   3.959  0.5592  0.0632 -1.1871
  260MOL0     H35099   5.776   6.867   3.624 -0.4496 -2.1897 -0.8658
  260MOL0     H35100   5.535   6.915   3.730 -1.3308  1.0127  2.4534
  261MOL0     O35101   2.548   5.294   3.200  0.6457  0.4281  0.3845
  261MOL0     C35102   2.654   5.237   3.159  0.4216  0.7311 -0.4136
  261MOL0     O35103   2.662   5.115   3.094 -0.0190  0.1159  0.1717
  261MOL0     C35104   2.555   5.032   3.094  0.4042 -0.6738  0.1955
  261MOL0     C35105   2.562   4.918   3.163  0.8036  0.3759  0.5782
  261MOL0     C35106   2.450   4.832   3.180  0.1599  0.1729  0.9396
  261MOL0     C35107   2.324   4.880   3.124 -0.3969 -0.1409 -0.1947
  261MOL0     O35108   2.210   4.812   3.147 -0.3875  0.0908 -0.3658
  261MOL0     C35109   2.107   4.870   3.225  0.1991 -0.4484  1.2149
  261MOL0     C35110   2.018   4.754   3.274  1.2408 -0.7061 -0.0983
  261MOL0     C35111   1.912   4.716   3.181  0.6348  0.9097  0.3366
  261MOL0     C35112   1.941   4.589   3.099 -0.8648  0.2006  0.1033
  261MOL0     C35113   1.820   4.535   3.028 -0.9146  0.4319 -0.2146
  261MOL0     C35114   1.735   4.450   3.124  0.0770  0.2582  0.0645
  261MOL0     C35115   1.643   4.356   3.044  0.2791 -0.7575 -0.2406
  261MOL0     C35116   1.540   4.428   2.966  0.0315 -0.0319  0.1693
  261MOL0     N35117   1.430   4.333   2.959 -0.0264  0.5089  0.3216
  261MOL0     C35118   1.317   4.335   3.028  0.7925 -0.2759  0.1313
  261MOL0     C35119   1.257   4.220   2.984  1.0360 -0.1099 -0.8453
  261MOL0     C35120   1.113   4.175   3.028  0.2177 -0.3310 -0.4520
  261MOL0     C35121   1.003   4.219   2.925  0.8570  0.3937  0.6169
  261MOL0     C35122   1.029   4.160   2.783  0.2348  0.6676  0.3041
  261MOL0     C35123   1.041   4.006   2.781  0.3406 -0.4928  0.2006
  261MOL0     O35124   0.932   3.957   2.861  0.1774  0.3955  0.5138
  261MOL0     C35125   0.894   3.830   2.843  0.7366 -0.2974 -0.2613
  261MOL0     C35126   0.959   3.728   2.772  1.1333  0.0418  0.5771
  261MOL0     C35127   0.914   3.589   2.778  0.5981  0.7840 -0.2657
  261MOL0     C35128   0.999   3.489   2.698  0.1927 -0.3841 -0.1881
  261MOL0     C35129   0.797   3.561   2.853 -0.0441  0.5087 -0.1427
  261MOL0     C35130   0.738   3.427   2.853 -0.5666 -0.7901 -0.1457
  261MOL0     O35131   0.654   3.408   2.964 -0.2406  0.5281 -0.7183
  261MOL0     C35132   0.583   3.287   2.965  0.3354  0.7347 -0.1480
  261MOL0     C35133   0.467   3.282   2.892 -0.2454  0.9960  0.6805
  261MOL0     C35134   0.382   3.172   2.913 -0.1729 -0.1629 -0.2521
  261MOL0     C35135   0.409   3.083   3.009 -0.0438 -0.1627  0.3760
  261MOL0     O35136   0.314   2.982   3.030  1.0176  0.0051 -0.2127
  261MOL0     C35137   0.362   2.857   3.075 -0.7741 -0.6159  0.1712
  261MOL0     C35138   0.307   2.735   3.006  0.7984  0.3067 -0.3551
  261MOL0     C35139   0.157   2.697   3.049  0.0455  0.1749 -0.3501
  261MOL0     C35140   0.146   2.624   3.185 -0.2721 -0.2504  0.4812
  261MOL0     C35141   0.202   2.485   3.168  0.0852 -0.3686  0.8875
  261MOL0     C35142   0.170   2.385   3.273  0.2280 -0.2786 -0.7720
  261MOL0     C35143   0.217   2.443   3.412 -0.5084  0.5272 -0.2330
  261MOL0     C35144   0.220   2.335   3.522 -0.3204 -0.0361  0.5545
  261MOL0    Cl35145   0.061   2.259   3.551 -0.0301  0.2678 -0.0792
  261MOL0     C35146   0.524   3.095   3.090  0.0282  0.3387 -0.9022
  261MOL0     C35147   0.619   3.191   3.056  0.4561 -0.2916  0.6004
  261MOL0     O35148   0.759   3.347   2.757  0.3721 -0.1576 -0.1736
  261MOL0     C35149   0.732   3.668   2.920  0.0753 -0.9809  0.4902
  261MOL0     C35150   0.782   3.794   2.915  0.0245  0.6738 -0.2760
  261MOL0     N35151   1.331   4.155   2.890 -0.4196 -0.9463  0.7751
  261MOL0     N35152   1.437   4.230   2.871  0.2021 -0.6724 -0.0117
  261MOL0     C35153   2.319   4.991   3.048  0.4159  0.4187  0.3108
  261MOL0     C35154   2.436   5.064   3.026  0.4438 -0.0500 -0.4526
  261MOL0     C35155   2.778   5.305   3.167 -0.7537 -1.0303  0.6075
  261MOL0     C35156   2.902   5.234   3.141  0.1975 -0.7268 -0.1043
  261MOL0     C35157   3.016   5.311   3.149 -1.6529  0.3014 -0.0131
  261MOL0     C35158   3.032   5.446   3.181  0.7108  0.8976  0.0550
  261MOL0     O35159   3.149   5.514   3.178 -0.2728  0.0352  0.3558
  261MOL0     C35160   3.209   5.541   3.052  0.4586 -0.8004  0.6763
  261MOL0     C35161   3.157   5.678   3.005  0.1712 -0.3125 -0.0248
  261MOL0     C35162   3.206   5.783   3.104  0.0228  0.1850 -0.0999
  261MOL0     C35163   3.171   5.916   3.035  0.1349  0.5561 -0.0756
  261MOL0     C35164   3.264   5.972   2.946  0.0831  0.9606  0.2134
  261MOL0     C35165   3.341   6.029   2.871  0.1468 -0.3884 -1.0580
  261MOL0     C35166   2.910   5.513   3.201 -0.4358  0.3323  0.0291
  261MOL0     C35167   2.791   5.441   3.200 -0.1537 -0.4376 -0.1802
  261MOL0     H35168   2.659   4.878   3.193  0.1186 -3.6672 -1.8001
  261MOL0     H35169   2.471   4.737   3.229  0.1069 -1.8175 -2.5097
  261MOL0     H35170   2.145   4.928   3.309  3.1103  0.4233 -0.5474
  261MOL0     H35171   2.050   4.933   3.156  1.3479 -1.4031 -0.7073
  261MOL0     H35172   2.086   4.670   3.292  0.1379 -1.4827  0.5873
  261MOL0     H35173   1.975   4.782   3.371  0.6265  1.3610 -0.9272
  261MOL0     H35174   1.825   4.692   3.244 -2.8595 -1.3838 -4.7135
  261MOL0     H35175   1.883   4.800   3.118 -1.2915  1.4576  1.8294
  261MOL0     H35176   2.020   4.617   3.029 -2.3673  1.8998 -1.0281
  261MOL0     H35177   1.980   4.511   3.165 -0.2361  0.8814  0.5572
  261MOL0     H35178   1.754   4.604   2.975  0.2186  2.5572  1.0231
  261MOL0     H35179   1.864   4.476   2.946  0.5221  0.0121  0.8123
  261MOL0     H35180   1.796   4.383   3.185  0.1209  0.2167 -0.0229
  261MOL0     H35181   1.698   4.520   3.199  1.7182  1.1998  0.0403
  261MOL0     H35182   1.704   4.289   2.983  2.5294  0.9714 -0.0036
  261MOL0     H35183   1.591   4.296   3.120 -1.5316  1.6005  0.5170
  261MOL0     H35184   1.570   4.460   2.866 -0.9397 -0.3373 -0.2271
  261MOL0     H35185   1.520   4.519   3.024  0.8605 -0.8881  1.8886
  261MOL0     H35186   1.281   4.417   3.089  0.4009 -0.6297  0.3810
  261MOL0     H35187   1.120   4.067   3.043  1.7241 -0.1661  0.3341
  261MOL0     H35188   1.094   4.220   3.126  3.1396 -1.5813  0.8082
  261MOL0     H35189   1.012   4.328   2.915  2.4415  0.3554  1.3185
  261MOL0     H35190   0.902   4.194   2.957  0.6988 -0.8102 -0.7633
  261MOL0     H35191   1.115   4.205   2.733  2.1874 -1.4571  1.6002
  261MOL0     H35192   0.939   4.183   2.725  0.2678  1.0275  0.3949
  261MOL0     H35193   1.130   3.953   2.819  1.0539 -0.8758 -1.8686
  261MOL0     H35194   1.033   3.975   2.676 -0.5229  0.5219 -0.0489
  261MOL0     H35195   1.046   3.750   2.711 -0.0993  4.0820  0.0078
  261MOL0     H35196   1.032   3.409   2.764 -1.8719 -1.0490  0.1032
  261MOL0     H35197   0.936   3.452   2.617 -1.1689 -1.2829  1.2162
  261MOL0     H35198   1.089   3.542   2.666  0.8576 -1.8783 -0.8875
  261MOL0     H35199   0.428   3.359   2.825 -1.3988 -0.4292 -0.3384
  261MOL0     H35200   0.290   3.162   2.856 -1.3462 -2.2251  1.8491
  261MOL0     H35201   0.472   2.862   3.069 -0.8824  1.7961 -1.1197
  261MOL0     H35202   0.338   2.852   3.182 -1.6411 -0.4660 -0.0134
  261MOL0     H35203   0.304   2.753   2.898  1.4201 -1.7170 -0.7514
  261MOL0     H35204   0.379   2.653   3.013 -0.4191 -0.8742 -1.1004
  261MOL0     H35205   0.117   2.637   2.967 -1.1281  0.6747 -0.1611
  261MOL0     H35206   0.096   2.787   3.056 -1.4353 -0.9034  1.2443
  261MOL0     H35207   0.202   2.683   3.259  2.6316 -1.4101 -0.6553
  261MOL0     H35208   0.046   2.615   3.228 -0.9203  0.4809 -0.8156
  261MOL0     H35209   0.310   2.481   3.153  0.0122 -0.3561  0.3399
  261MOL0     H35210   0.154   2.446   3.078  1.2778 -3.1646  1.3614
  261MOL0     H35211   0.064   2.363   3.263  0.3988 -0.9060 -1.2332
  261MOL0     H35212   0.218   2.290   3.250  0.3342  0.1230 -2.3135
  261MOL0     H35213   0.160   2.532   3.438  2.3906  2.0685  1.3128
  261MOL0     H35214   0.321   2.472   3.396  0.8626 -1.5014  3.8201
  261MOL0     H35215   0.238   2.387   3.616 -1.8295 -2.6220  2.4274
  261MOL0     H35216   0.295   2.257   3.508 -1.0438 -0.2313 -3.4113
  261MOL0     H35217   0.530   3.019   3.167 -4.1955 -1.1953 -1.7889
  261MOL0     H35218   0.719   3.195   3.098  0.6154 -2.4788  0.5645
  261MOL0     H35219   0.640   3.643   2.972  0.0779 -0.7370  0.6112
  261MOL0     H35220   0.729   3.873   2.968  0.3690  0.7812 -0.0926
  261MOL0     H35221   2.225   5.002   2.996 -0.5648 -4.8165  0.4589
  261MOL0     H35222   2.433   5.149   2.957  1.6622 -0.5477 -1.1589
  261MOL0     H35223   2.920   5.130   3.114  2.3535 -0.8795  1.5816
  261MOL0     H35224   3.112   5.260   3.145 -0.8382  1.7311  0.5258
  261MOL0     H35225   3.316   5.540   3.077  0.8284  3.1148 -0.1950
  261MOL0     H35226   3.184   5.462   2.981 -0.7107 -0.6978  0.9565
  261MOL0     H35227   3.048   5.675   3.000  0.1734  1.0949 -2.3440
  261MOL0     H35228   3.209   5.709   2.914 -0.7804  2.1472  0.2130
  261MOL0     H35229   3.313   5.784   3.128 -0.0664 -0.4542  0.3374
  261MOL0     H35230   3.147   5.775   3.195 -2.7989 -1.6007 -1.9257
  261MOL0     H35231   3.170   5.990   3.116 -0.8733  1.9985 -1.3404
  261MOL0     H35232   3.075   5.913   2.983  1.2903 -0.0527 -2.2845
  261MOL0     H35233   3.403   6.094   2.813 -1.0744  1.2958 -0.5503
  261MOL0     H35234   2.904   5.620   3.216  0.0003 -0.0311  3.8336
  261MOL0     H35235   2.705   5.504   3.218  0.1285 -0.3518  0.9438
  262MOL0     O35236   2.720   5.926   7.425  0.1480 -0.2874  0.4221
  262MOL0     C35237   2.771   6.025   7.478  0.0863  0.6078 -0.1671
  262MOL0     O35238   2.718   6.152   7.470 -0.5175  0.0715 -0.2092
  262MOL0     C35239   2.605   6.165   7.402  0.2641 -0.6623  0.7779
  262MOL0     C35240   2.601   6.181   7.267 -0.3651  0.4746 -0.1380
  262MOL0     C35241   2.488   6.171   7.190 -0.5722  0.1045  0.1415
  262MOL0     C35242   2.360   6.145   7.252 -0.1638  0.5063 -0.3358
  262MOL0     O35243   2.248   6.145   7.177 -0.1484 -0.6692 -0.8315
  262MOL0     C35244   2.133   6.061   7.207  0.0457 -0.3857  0.2894
  262MOL0     C35245   2.037   6.085   7.086  0.2052 -1.2186 -0.1656
  262MOL0     C35246   1.954   6.216   7.091 -0.2265 -0.5116 -0.7066
  262MOL0     C35247   1.872   6.228   6.965  0.1338 -0.4090 -0.4330
  262MOL0     C35248   1.757   6.328   6.977 -0.4823  0.2797  0.8948
  262MOL0     C35249   1.779   6.478   7.001 -0.8218 -0.1939  0.0864
  262MOL0     C35250   1.895   6.541   6.924  0.7398 -0.7456  0.3795
  262MOL0     C35251   1.852   6.602   6.784 -0.3727  0.3967  0.3612
  262MOL0     N35252   1.748   6.704   6.812  0.2821  0.4409  0.4326
  262MOL0     C35253   1.743   6.795   6.919  0.0262  0.1263  0.2494
  262MOL0     C35254   1.633   6.869   6.901  0.4828 -0.4246 -0.4604
  262MOL0     C35255   1.591   6.958   7.010 -0.2219 -0.3946  0.1293
  262MOL0     C35256   1.492   6.883   7.094 -0.8617  0.7318  0.8063
  262MOL0     C35257   1.404   6.994   7.155 -0.6588  0.2753  0.0668
  262MOL0     C35258   1.283   6.936   7.227 -0.8030 -0.4018  0.3755
  262MOL0     O35259   1.180   6.883   7.137  0.5481  0.6367 -0.2546
  262MOL0     C35260   1.047   6.858   7.171 -0.1306 -0.0366  0.1954
  262MOL0     C35261   1.023   6.794   7.292  0.0686  0.1806 -0.1398
  262MOL0     C35262   0.892   6.756   7.330  0.7800 -0.6184 -0.1181
  262MOL0     C35263   0.867   6.691   7.466  0.3905 -0.1956 -0.9299
  262MOL0     C35264   0.792   6.790   7.241  0.8334 -0.1476 -0.1483
  262MOL0     C35265   0.636   6.773   7.264 -0.2263  1.0205 -0.3004
  262MOL0     O35266   0.547   6.842   7.192 -0.1371 -0.0987  0.1172
  262MOL0     C35267   0.415   6.801   7.195  0.1469 -0.3345  0.0689
  262MOL0     C35268   0.341   6.818   7.306  1.0035  0.8265  0.3959
  262MOL0     C35269   0.200   6.795   7.295  0.7633 -0.2936  0.7401
  262MOL0     C35270   0.133   6.759   7.178  0.2040  0.8289 -0.3027
  262MOL0     O35271  -0.005   6.741   7.164 -0.3433 -1.0292 -0.0471
  262MOL0     C35272  -0.077   6.690   7.276 -0.6607 -0.9081  0.2363
  262MOL0     C35273  -0.179   6.587   7.217  0.2448  0.5590  0.1879
  262MOL0     C35274  -0.306   6.659   7.159  0.2360 -0.4166 -0.6184
  262MOL0     C35275  -0.429   6.561   7.142 -0.2841  0.2186  0.5624
  262MOL0     C35276  -0.557   6.628   7.202 -0.1687  0.4921  0.2506
  262MOL0     C35277  -0.691   6.568   7.149  0.8502 -0.0723 -0.2032
  262MOL0     C35278  -0.794   6.558   7.261 -0.0419 -0.1041 -0.3987
  262MOL0     C35279  -0.935   6.526   7.210 -0.4794 -0.4236  0.0457
  262MOL0    Cl35280  -1.026   6.686   7.198  0.1699  0.0621  0.1796
  262MOL0     C35281   0.210   6.745   7.062  0.5446 -0.3176 -0.5944
  262MOL0     C35282   0.356   6.757   7.073 -0.2563 -0.1512  0.1469
  262MOL0     O35283   0.609   6.682   7.344 -0.8396 -0.1786 -0.2659
  262MOL0     C35284   0.818   6.849   7.121 -1.1260  0.4536 -0.0706
  262MOL0     C35285   0.945   6.887   7.079 -1.0300 -0.9539 -0.5886
  262MOL0     N35286   1.565   6.818   6.785 -0.0610 -0.1771  0.4670
  262MOL0     N35287   1.638   6.725   6.737  0.7475 -0.0294  0.1645
  262MOL0     C35288   2.365   6.141   7.392 -0.2455  0.1028  0.5980
  262MOL0     C35289   2.484   6.154   7.464  0.0902 -0.2446 -0.5865
  262MOL0     C35290   2.907   6.019   7.552  0.5023 -0.3721  0.3049
  262MOL0     C35291   2.973   6.137   7.584  0.6910  0.8745 -1.0150
  262MOL0     C35292   3.090   6.132   7.650 -0.5964  0.2721  0.7952
  262MOL0     C35293   3.157   6.012   7.667 -0.3907  0.1314 -0.5906
  262MOL0     O35294   3.279   6.019   7.738 -0.0457  0.7925  0.2971
  262MOL0     C35295   3.347   5.904   7.764 -0.4148  1.6087  0.3175
  262MOL0     C35296   3.452   5.907   7.875  0.3777 -0.8175  0.6828
  262MOL0     C35297   3.572   5.996   7.844  0.0371 -0.3969 -0.0178
  262MOL0     C35298   3.694   5.938   7.926 -0.0948  0.1574  1.4252
  262MOL0     C35299   3.719   6.008   8.057 -1.2275  0.3481  0.1633
  262MOL0     C35300   3.733   6.061   8.169 -0.0008 -0.5020  0.0336
  262MOL0     C35301   3.095   5.895   7.632 -0.1723  0.0343  0.5825
  262MOL0     C35302   2.970   5.899   7.576 -0.7343 -0.1353 -0.1788
  262MOL0     H35303   2.690   6.183   7.206 -0.6347 -0.7962 -0.6179
  262MOL0     H35304   2.491   6.178   7.082  1.1426 -2.5033 -0.0607
  262MOL0     H35305   2.158   5.954   7.207  0.9384 -0.2932 -3.1981
  262MOL0     H35306   2.086   6.106   7.295 -2.8769  0.3433 -1.5407
  262MOL0     H35307   2.094   6.086   6.993  1.1698 -2.8843  0.3739
  262MOL0     H35308   1.983   5.990   7.073  2.6399 -2.9458  1.5986
  262MOL0     H35309   1.891   6.216   7.181 -0.5656 -1.3528 -0.9324
  262MOL0     H35310   2.012   6.308   7.087 -2.1368  0.8197  0.3120
  262MOL0     H35311   1.940   6.247   6.881 -1.1376  0.4470 -1.3106
  262MOL0     H35312   1.824   6.132   6.942  0.3534 -0.5347 -0.3590
  262MOL0     H35313   1.700   6.333   6.884 -1.1020  1.9273  1.3296
  262MOL0     H35314   1.682   6.299   7.050  0.0118 -3.3991  0.1106
  262MOL0     H35315   1.691   6.543   6.995  0.5976  1.8030 -0.0375
  262MOL0     H35316   1.801   6.475   7.108 -1.4296 -1.7336  0.1850
  262MOL0     H35317   1.945   6.622   6.979 -0.7705 -1.5709  3.1581
  262MOL0     H35318   1.966   6.459   6.911  0.0283 -1.7849  2.5595
  262MOL0     H35319   1.813   6.522   6.720  1.4141  1.8198 -2.7082
  262MOL0     H35320   1.926   6.653   6.722 -0.0578 -1.0345 -0.4681
  262MOL0     H35321   1.811   6.806   7.002 -0.1964  1.6652  0.2478
  262MOL0     H35322   1.676   6.998   7.066  0.5557  0.9495 -1.8964
  262MOL0     H35323   1.538   7.039   6.958 -0.0613  0.4501  1.2311
  262MOL0     H35324   1.542   6.814   7.163  1.4375  0.6821 -0.7941
  262MOL0     H35325   1.426   6.825   7.029  0.4826 -1.4198  1.2648
  262MOL0     H35326   1.363   7.069   7.087  1.1361  1.9305  0.7017
  262MOL0     H35327   1.470   7.041   7.229 -0.1907 -1.7387  1.0020
  262MOL0     H35328   1.243   7.020   7.284  4.3903  1.0792  2.4803
  262MOL0     H35329   1.317   6.865   7.303  4.2136  2.4223  1.2358
  262MOL0     H35330   1.104   6.784   7.363  1.3207 -2.9397 -1.7911
  262MOL0     H35331   0.779   6.732   7.516  0.9982 -1.2987  1.2160
  262MOL0     H35332   0.851   6.584   7.453  0.2513 -1.0241  4.0372
  262MOL0     H35333   0.954   6.715   7.529 -0.0846  0.3947 -0.4836
  262MOL0     H35334   0.384   6.849   7.400 -1.5177  1.6606  1.3603
  262MOL0     H35335   0.142   6.825   7.382 -0.8523 -2.1168  0.3621
  262MOL0     H35336  -0.009   6.638   7.345  1.4377  1.0683 -0.2475
  262MOL0     H35337  -0.129   6.764   7.336 -0.5575 -1.4809  1.0546
  262MOL0     H35338  -0.132   6.537   7.131 -2.5439 -0.9023 -0.6338
  262MOL0     H35339  -0.210   6.510   7.288  0.7505 -0.6466 -0.8551
  262MOL0     H35340  -0.286   6.718   7.069 -3.9640  0.3441 -1.2245
  262MOL0     H35341  -0.335   6.724   7.242 -0.3425  1.3297 -2.1274
  262MOL0     H35342  -0.453   6.552   7.035 -1.5093 -2.2162  0.9639
  262MOL0     H35343  -0.419   6.459   7.180  0.4387 -0.5933 -1.6466
  262MOL0     H35344  -0.559   6.737   7.197  2.7444  0.6646  0.9526
  262MOL0     H35345  -0.549   6.615   7.310  2.9585 -1.3369 -0.0743
  262MOL0     H35346  -0.725   6.629   7.064 -1.1583 -0.3266  0.3687
  262MOL0     H35347  -0.666   6.466   7.119  0.6591 -0.3918  0.7004
  262MOL0     H35348  -0.790   6.651   7.319 -0.6570 -1.2473  1.5590
  262MOL0     H35349  -0.771   6.476   7.329 -0.9378 -0.7074 -0.8029
  262MOL0     H35350  -0.977   6.462   7.288  1.4958  0.9907  2.4422
  262MOL0     H35351  -0.932   6.479   7.112 -2.1047  0.8288 -0.6652
  262MOL0     H35352   0.166   6.701   6.973 -0.2442 -2.1319  0.6394
  262MOL0     H35353   0.405   6.746   6.976 -2.0494  0.3016 -0.8664
  262MOL0     H35354   0.743   6.865   7.044  0.1963  0.5234 -1.3792
  262MOL0     H35355   0.969   6.943   6.989  1.3725  0.1175  0.6388
  262MOL0     H35356   2.276   6.117   7.449 -0.8817 -3.2228 -1.5240
  262MOL0     H35357   2.479   6.140   7.571  0.2327  0.7451 -0.4417
  262MOL0     H35358   2.928   6.233   7.565 -3.1361 -0.0508  2.0275
  262MOL0     H35359   3.127   6.233   7.669 -2.6363  1.3654 -0.5973
  262MOL0     H35360   3.281   5.825   7.800  2.0402  0.5602  2.8574
  262MOL0     H35361   3.403   5.876   7.674 -1.2783  2.9382 -0.6918
  262MOL0     H35362   3.492   5.807   7.892  2.3573 -0.1541  0.1238
  262MOL0     H35363   3.410   5.957   7.963  1.5957  0.7580  0.4084
  262MOL0     H35364   3.559   6.100   7.876 -1.4397 -0.9263  1.2993
  262MOL0     H35365   3.591   6.011   7.738  1.2759 -2.0468 -0.0646
  262MOL0     H35366   3.787   5.941   7.869  0.7650  3.2298  2.8186
  262MOL0     H35367   3.682   5.833   7.956 -1.9601 -0.4154 -1.0038
  262MOL0     H35368   3.736   6.115   8.261 -1.1734 -0.1089 -0.1562
  262MOL0     H35369   3.134   5.795   7.646  0.6183  0.3543  0.7497
  262MOL0     H35370   2.911   5.813   7.546 -2.9020  0.6128  1.6155
  263MOL0     O35371   8.367   9.786   5.941 -0.3672 -0.7268 -0.5491
  263MOL0     C35372   8.395   9.769   6.062  0.5503  0.5080  0.4962
  263MOL0     O35373   8.301   9.788   6.162 -0.0148  0.1247  0.5605
  263MOL0     C35374   8.180   9.848   6.137 -0.0123  0.4695 -0.4388
  263MOL0     C35375   8.085   9.796   6.051 -0.6316 -0.8100  0.5693
  263MOL0     C35376   7.955   9.855   6.041 -0.4362  0.1510 -0.7973
  263MOL0     C35377   7.932   9.977   6.111  0.7642  0.4742  0.1465
  263MOL0     O35378   7.810  10.039   6.084  0.5793 -0.1020 -0.3574
  263MOL0     C35379   7.754  10.144   6.169  0.9107  0.1462 -0.2855
  263MOL0     C35380   7.728  10.114   6.311 -0.3717 -1.0332  0.1762
  263MOL0     C35381   7.690  10.225   6.397 -0.2151  0.6004 -0.2916
  263MOL0     C35382   7.570  10.310   6.351 -0.4793 -0.0941  0.2097
  263MOL0     C35383   7.534  10.411   6.459  0.1100  0.0426 -0.4059
  263MOL0     C35384   7.402  10.486   6.426  0.9870 -0.4458  0.3819
  263MOL0     C35385   7.388  10.599   6.539  0.8114 -0.5421 -0.1125
  263MOL0     C35386   7.253  10.676   6.557 -0.5694 -0.1325  0.0895
  263MOL0     N35387   7.226  10.725   6.700 -0.8055  0.3157 -0.2642
  263MOL0     C35388   7.231  10.664   6.824 -1.0471 -0.5387  0.4295
  263MOL0     C35389   7.208  10.760   6.914 -0.1253  0.1584 -0.2234
  263MOL0     C35390   7.216  10.738   7.062 -0.8617 -0.3213  0.3528
  263MOL0     C35391   7.079  10.719   7.132  0.1041  0.5903 -0.0415
  263MOL0     C35392   6.965  10.795   7.064 -0.4946 -0.0099 -1.6319
  263MOL0     C35393   6.844  10.802   7.160  1.0372 -0.1281  0.4505
  263MOL0     O35394   6.737  10.883   7.109  0.1766  0.0639 -0.6894
  263MOL0     C35395   6.610  10.886   7.152  1.0811  0.8564  0.1867
  263MOL0     C35396   6.523  10.974   7.098  0.0532 -0.1368  0.5601
  263MOL0     C35397   6.389  10.977   7.124  0.8486 -0.0317 -0.2176
  263MOL0     C35398   6.315  11.085   7.053  1.1793  0.0074 -0.6353
  263MOL0     C35399   6.345  10.884   7.219  0.8970  0.1703  0.3942
  263MOL0     C35400   6.194  10.874   7.252 -0.1548  0.1519 -0.3577
  263MOL0     O35401   6.167  10.791   7.359  0.7632  0.9909  0.4523
  263MOL0     C35402   6.038  10.744   7.377 -1.2319  0.2876 -0.1964
  263MOL0     C35403   5.944  10.826   7.440  0.5166  0.3098 -0.1189
  263MOL0     C35404   5.813  10.770   7.461  0.6444 -0.2765 -0.5654
  263MOL0     C35405   5.775  10.644   7.432 -0.3474  0.0566  0.7352
  263MOL0     O35406   5.650  10.595   7.455 -0.3197  0.6882 -0.5707
  263MOL0     C35407   5.624  10.454   7.426 -0.3840 -0.2231 -0.6375
  263MOL0     C35408   5.473  10.452   7.398 -0.3685 -0.1525  0.4699
  263MOL0     C35409   5.411  10.321   7.326 -0.2421 -0.4015 -0.8586
  263MOL0     C35410   5.259  10.328   7.331  0.7495  0.6211 -0.1890
  263MOL0     C35411   5.194  10.228   7.233 -0.0556  0.6283 -0.3048
  263MOL0     C35412   5.054  10.274   7.200 -0.3698 -0.4879  0.4809
  263MOL0     C35413   5.033  10.417   7.148 -1.0594 -0.2678  0.3728
  263MOL0     C35414   4.891  10.461   7.101  0.4669  0.5310  0.5905
  263MOL0    Cl35415   4.832  10.337   6.974 -0.6112 -0.1356 -0.2600
  263MOL0     C35416   5.879  10.559   7.379  0.7136 -0.7253 -0.1248
  263MOL0     C35417   6.002  10.611   7.350 -0.0981  0.0735 -0.8414
  263MOL0     O35418   6.104  10.931   7.192  0.1480 -0.6349 -0.1141
  263MOL0     C35419   6.432  10.801   7.282 -1.2613  0.1152  0.6838
  263MOL0     C35420   6.574  10.804   7.256 -0.2825  0.2863  0.0566
  263MOL0     N35421   7.207  10.883   6.849  0.1931  0.1651 -0.3568
  263MOL0     N35422   7.204  10.858   6.726 -0.0175  0.6466  0.4258
  263MOL0     C35423   8.028  10.035   6.190 -0.6187 -0.2989  0.6843
  263MOL0     C35424   8.147   9.967   6.208  0.8112  0.1823 -0.1954
  263MOL0     C35425   8.523   9.707   6.104 -0.7465 -0.2936  0.1923
  263MOL0     C35426   8.554   9.702   6.238 -0.2771 -0.9101 -0.3160
  263MOL0     C35427   8.667   9.634   6.277  0.2040  0.3577 -0.6057
  263MOL0     C35428   8.741   9.560   6.176  0.0081 -0.7392  0.7142
  263MOL0     O35429   8.851   9.500   6.227  0.4087 -0.1905 -0.1905
  263MOL0     C35430   8.941   9.435   6.134 -0.6403  0.4043 -0.7178
  263MOL0     C35431   9.058   9.367   6.215 -0.0900  0.9717 -0.1189
  263MOL0     C35432   9.148   9.271   6.133  0.1547 -1.1449  0.3446
  263MOL0     C35433   9.274   9.214   6.202 -0.6926  1.1424  0.5134
  263MOL0     C35434   9.365   9.157   6.110  0.4783 -0.3108  0.6026
  263MOL0     C35435   9.437   9.116   6.022 -0.1855  0.6155  0.1971
  263MOL0     C35436   8.714   9.570   6.044 -0.8008  0.2371 -0.1514
  263MOL0     C35437   8.610   9.652   6.007 -0.6801  0.4445  1.0566
  263MOL0     H35438   8.098   9.703   5.996 -0.0042  1.5714 -3.7800
  263MOL0     H35439   7.865   9.814   5.994  0.2709 -1.4272 -0.8466
  263MOL0     H35440   7.809  10.237   6.153  2.3865 -0.4963  0.8631
  263MOL0     H35441   7.650  10.157   6.138  0.9578 -2.2606 -1.7346
  263MOL0     H35442   7.649  10.038   6.311  1.9677 -3.6385  1.9829
  263MOL0     H35443   7.820  10.074   6.354  0.7721  2.1270  0.8745
  263MOL0     H35444   7.689  10.193   6.501 -2.2594  1.4395 -0.0189
  263MOL0     H35445   7.782  10.285   6.393  0.0130  0.2962  0.3821
  263MOL0     H35446   7.600  10.364   6.260 -2.1567 -0.1390 -0.3929
  263MOL0     H35447   7.485  10.250   6.320 -0.7483  1.9492 -3.6838
  263MOL0     H35448   7.524  10.363   6.557 -2.0762  1.0812 -0.0676
  263MOL0     H35449   7.607  10.492   6.468 -0.7680  0.7281  0.8327
  263MOL0     H35450   7.411  10.516   6.321  1.5502 -0.0966  0.5224
  263MOL0     H35451   7.314  10.422   6.432  1.3678 -0.8266  2.4261
  263MOL0     H35452   7.409  10.556   6.637  0.8530 -0.5912 -0.1425
  263MOL0     H35453   7.454  10.684   6.517 -1.3890  0.7580 -2.1907
  263MOL0     H35454   7.164  10.620   6.529  0.5183 -1.4512 -0.8384
  263MOL0     H35455   7.251  10.763   6.489  1.4894  3.1569  3.7899
  263MOL0     H35456   7.249  10.558   6.841 -1.2178 -1.2282 -2.9572
  263MOL0     H35457   7.275  10.656   7.104 -0.1848  1.1140  2.3411
  263MOL0     H35458   7.261  10.828   7.104 -0.0841 -0.2798 -0.5325
  263MOL0     H35459   7.089  10.750   7.236  1.5195 -1.7925  0.6162
  263MOL0     H35460   7.059  10.611   7.135  1.9855  0.0826 -2.0696
  263MOL0     H35461   6.932  10.745   6.972 -0.9253 -1.2960 -0.8064
  263MOL0     H35462   6.987  10.900   7.043  1.3213  0.1216  0.5658
  263MOL0     H35463   6.874  10.841   7.257  2.7409 -1.3893  0.4822
  263MOL0     H35464   6.813  10.697   7.164 -2.0044  0.3085 -3.8611
  263MOL0     H35465   6.570  11.051   7.039 -1.8872  1.2535  0.7528
  263MOL0     H35466   6.377  11.160   7.003 -0.3454  1.3353 -0.6019
  263MOL0     H35467   6.244  11.043   6.981  1.2709 -0.2327 -0.5857
  263MOL0     H35468   6.250  11.133   7.126  0.8529  0.8329 -1.4565
  263MOL0     H35469   5.967  10.929   7.465 -0.9497  0.7842 -0.6037
  263MOL0     H35470   5.739  10.843   7.493  2.5837  1.9144 -0.7584
  263MOL0     H35471   5.680  10.420   7.339 -0.5407 -4.9009  0.8093
  263MOL0     H35472   5.659  10.405   7.518  1.3922  1.7247 -0.1930
  263MOL0     H35473   5.421  10.453   7.494  3.0716 -5.0596  2.7590
  263MOL0     H35474   5.443  10.538   7.336 -1.2501  0.6584  1.9635
  263MOL0     H35475   5.435  10.225   7.373 -3.6891 -0.3034  1.5206
  263MOL0     H35476   5.447  10.312   7.223  2.8360 -0.7901  0.1452
  263MOL0     H35477   5.219  10.305   7.429 -1.0070 -0.4234 -1.1167
  263MOL0     H35478   5.235  10.432   7.309  1.6249  0.1760 -3.9417
  263MOL0     H35479   5.190  10.132   7.286 -1.6536  2.1876  2.6899
  263MOL0     H35480   5.252  10.210   7.142  0.1910  0.0735 -0.0433
  263MOL0     H35481   5.021  10.201   7.126  1.3894 -3.6389  2.5783
  263MOL0     H35482   4.995  10.263   7.292 -1.3381  0.2685 -0.0325
  263MOL0     H35483   5.108  10.448   7.074 -1.2520  0.6001  0.5333
  263MOL0     H35484   5.049  10.491   7.226 -4.4831 -1.8674  2.8417
  263MOL0     H35485   4.888  10.562   7.059 -1.5915  0.6632  0.9458
  263MOL0     H35486   4.822  10.453   7.186 -1.4721 -0.2211 -0.9613
  263MOL0     H35487   5.870  10.459   7.339  1.7570 -1.5634  1.5874
  263MOL0     H35488   6.077  10.545   7.308 -0.4402 -2.0263  1.6345
  263MOL0     H35489   6.403  10.727   7.355 -2.9022 -0.6629 -0.6774
  263MOL0     H35490   6.641  10.735   7.308 -1.2385 -0.1412  0.7531
  263MOL0     H35491   8.010  10.128   6.243  1.3102  0.5496 -0.0457
  263MOL0     H35492   8.213  10.001   6.287 -0.0375  1.4160  0.0195
  263MOL0     H35493   8.483   9.745   6.308 -1.2480  0.8764 -2.2837
  263MOL0     H35494   8.692   9.636   6.382  2.1348  1.3589 -1.0366
  263MOL0     H35495   8.883   9.352   6.093 -0.2390 -1.0871  1.5612
  263MOL0     H35496   8.996   9.495   6.060  2.0921  1.0824  1.6758
  263MOL0     H35497   9.010   9.310   6.295  0.4498  1.5767  0.6545
  263MOL0     H35498   9.115   9.452   6.254  0.3479  0.3844  0.5552
  263MOL0     H35499   9.179   9.314   6.038 -1.8952 -0.6874 -0.1660
  263MOL0     H35500   9.080   9.198   6.088 -0.3451 -1.6439  1.8588
  263MOL0     H35501   9.236   9.137   6.270 -2.0169 -0.7166 -2.1574
  263MOL0     H35502   9.330   9.290   6.259 -2.0427  0.9583  2.1787
  263MOL0     H35503   9.499   9.061   5.955  0.6328  1.8210 -0.0546
  263MOL0     H35504   8.782   9.515   5.979  1.4383  1.4629  1.0481
  263MOL0     H35505   8.569   9.660   5.907 -1.4080  1.2616  1.4034
  264MOL0     O35506  11.279   1.252   1.039  0.4166  0.2674  0.8331
  264MOL0     C35507  11.378   1.307   0.988 -0.4852  0.8405 -0.3136
  264MOL0     O35508  11.393   1.438   0.952  0.2846  0.5342  0.5769
  264MOL0     C35509  11.274   1.506   0.963 -0.4121 -1.2918 -0.3180
  264MOL0     C35510  11.262   1.612   1.048  0.1803  0.3015 -1.1364
  264MOL0     C35511  11.142   1.687   1.079 -0.0764 -0.4197  0.3737
  264MOL0     C35512  11.030   1.649   1.007  0.3681 -0.0684 -0.9341
  264MOL0     O35513  10.920   1.712   1.027  0.3580  0.1772  0.0539
  264MOL0     C35514  10.904   1.816   1.119  0.4564 -0.6499 -0.1915
  264MOL0     C35515  10.762   1.872   1.092  0.7900  0.4236 -0.6233
  264MOL0     C35516  10.651   1.788   1.154  0.0268  0.5031  0.4190
  264MOL0     C35517  10.520   1.867   1.145  0.7551  0.2039  0.6885
  264MOL0     C35518  10.398   1.787   1.199  0.3642  0.3579  0.5402
  264MOL0     C35519  10.271   1.871   1.191  0.6130  0.4837 -0.4254
  264MOL0     C35520  10.155   1.786   1.234 -0.0937 -0.8980 -0.4856
  264MOL0     C35521  10.024   1.872   1.236 -0.5360  0.1878  0.0791
  264MOL0     N35522   9.979   1.919   1.106  0.3893 -0.2217 -0.3172
  264MOL0     C35523   9.988   1.844   0.983 -0.0324 -0.0203 -0.6328
  264MOL0     C35524   9.996   1.935   0.886  0.6530 -0.4663 -0.6091
  264MOL0     C35525  10.010   1.901   0.745 -0.0854  0.1313  0.3745
  264MOL0     C35526  10.158   1.933   0.699  0.0396 -0.1570  0.0708
  264MOL0     C35527  10.194   1.830   0.596  0.3274 -0.5394  0.2796
  264MOL0     C35528  10.341   1.855   0.538  0.5757  0.1365  0.1531
  264MOL0     O35529  10.438   1.808   0.635  0.4218  0.3372 -0.0462
  264MOL0     C35530  10.573   1.825   0.624  0.5903 -0.6271  0.9458
  264MOL0     C35531  10.628   1.897   0.518 -0.2930  1.3293 -0.4123
  264MOL0     C35532  10.770   1.905   0.511 -0.7868  0.0694  0.0011
  264MOL0     C35533  10.815   1.964   0.382 -0.4170 -0.3310 -0.1875
  264MOL0     C35534  10.857   1.850   0.607 -0.2847 -0.4635  0.8792
  264MOL0     C35535  11.005   1.850   0.598 -1.0069  0.0766 -0.1636
  264MOL0     O35536  11.082   1.774   0.682 -0.1817  0.1158  0.4054
  264MOL0     C35537  11.215   1.775   0.690  0.2251  0.6568  0.3282
  264MOL0     C35538  11.293   1.662   0.677  0.1789  0.8094 -0.5375
  264MOL0     C35539  11.435   1.669   0.680  0.2845  0.2750 -0.3174
  264MOL0     C35540  11.499   1.788   0.717  0.3834  0.2346  0.1597
  264MOL0     O35541  11.640   1.795   0.715  0.4757  0.2045  1.0028
  264MOL0     C35542  11.694   1.734   0.833 -0.6601  0.0024 -1.0388
  264MOL0     C35543  11.849   1.711   0.820 -0.5546 -0.2786 -0.2830
  264MOL0     C35544  11.915   1.824   0.745  0.6641 -0.1425  0.0686
  264MOL0     C35545  12.062   1.796   0.721  0.1250 -0.4861 -0.1543
  264MOL0     C35546  12.141   1.926   0.721  0.4339 -0.2061 -0.3635
  264MOL0     C35547  12.291   1.887   0.721 -0.0681 -0.4807  0.1083
  264MOL0     C35548  12.386   2.005   0.720 -0.1609  0.2748 -0.7537
  264MOL0     C35549  12.529   1.946   0.713 -0.2232  0.0585  0.0906
  264MOL0    Cl35550  12.584   1.828   0.832  0.2055 -0.1957  0.2044
  264MOL0     C35551  11.422   1.901   0.744 -0.2507 -0.0785 -0.1310
  264MOL0     C35552  11.278   1.896   0.733  0.5336  0.4342  0.0850
  264MOL0     O35553  11.058   1.916   0.504 -0.1088  0.4921 -0.0139
  264MOL0     C35554  10.796   1.788   0.713  0.1019 -0.3972  0.1748
  264MOL0     C35555  10.657   1.764   0.717 -0.2789  0.6838 -0.3305
  264MOL0     N35556   9.967   2.056   0.939  0.0853 -0.7575  0.1813
  264MOL0     N35557   9.964   2.053   1.070  0.8074 -0.2587  0.3717
  264MOL0     C35558  11.035   1.548   0.911 -0.0666 -0.8708 -0.6630
  264MOL0     C35559  11.154   1.474   0.889  0.0960  0.0629 -0.7114
  264MOL0     C35560  11.512   1.229   0.978  0.6982  1.2332  0.0034
  264MOL0     C35561  11.632   1.286   0.939 -0.3267 -0.2747 -0.5680
  264MOL0     C35562  11.742   1.216   0.926 -0.4627  0.3277  0.6899
  264MOL0     C35563  11.744   1.077   0.941  0.2996  0.3848 -0.4561
  264MOL0     O35564  11.847   0.993   0.929  0.3107 -0.4883 -0.7361
  264MOL0     C35565  11.878   0.934   0.805 -0.1414 -0.2609 -0.1589
  264MOL0     C35566  12.019   0.875   0.783 -0.2739  0.3975 -1.3659
  264MOL0     C35567  12.031   0.757   0.892 -0.2321  0.6591  0.0082
  264MOL0     C35568  12.158   0.668   0.853  0.1600  0.9524  0.5281
  264MOL0     C35569  12.129   0.594   0.728 -0.4681  0.1316  0.5586
  264MOL0     C35570  12.117   0.524   0.626 -0.4608  0.7472 -0.5617
  264MOL0     C35571  11.621   1.013   0.973  0.2471  0.2677  0.8775
  264MOL0     C35572  11.504   1.087   0.999 -0.9903 -0.4920  0.7626
  264MOL0     H35573  11.351   1.636   1.106  0.9156 -2.0862 -1.1891
  264MOL0     H35574  11.155   1.753   1.164  1.7465  0.4127 -0.4870
  264MOL0     H35575  10.903   1.782   1.223 -0.5439  0.0677  0.0475
  264MOL0     H35576  10.973   1.899   1.103  1.1818 -1.5385 -1.9404
  264MOL0     H35577  10.778   1.971   1.135  3.3982 -0.7960  1.5288
  264MOL0     H35578  10.736   1.886   0.987 -1.7262 -0.0037 -0.1307
  264MOL0     H35579  10.644   1.693   1.100 -1.5769  0.9936 -0.2994
  264MOL0     H35580  10.675   1.778   1.260 -1.4979  2.0749  0.9646
  264MOL0     H35581  10.526   1.962   1.199  0.5488  0.1400  0.8224
  264MOL0     H35582  10.508   1.889   1.038  2.5154  2.8549  0.9483
  264MOL0     H35583  10.382   1.698   1.137  1.4845 -1.1289  2.2871
  264MOL0     H35584  10.426   1.751   1.298  2.4060  0.3477  0.0202
  264MOL0     H35585  10.275   1.958   1.257 -0.0321  1.0099 -1.0731
  264MOL0     H35586  10.262   1.906   1.088  1.4074  3.1151  0.3105
  264MOL0     H35587  10.166   1.699   1.168  1.7860 -0.0496 -1.3782
  264MOL0     H35588  10.163   1.749   1.336 -2.0339  0.3701  0.1682
  264MOL0     H35589  10.027   1.954   1.309 -1.3726 -2.0914  2.8592
  264MOL0     H35590   9.939   1.825   1.287 -0.7333  1.1210  0.6449
  264MOL0     H35591   9.995   1.736   0.975 -1.9718 -0.1822 -0.4185
  264MOL0     H35592   9.995   1.793   0.743 -3.2172  0.4516  1.1936
  264MOL0     H35593   9.935   1.934   0.672 -1.7229 -0.6648  1.6290
  264MOL0     H35594  10.234   1.921   0.777  1.0892 -3.8697 -1.3268
  264MOL0     H35595  10.179   2.028   0.650  2.9902 -1.6691 -1.8901
  264MOL0     H35596  10.121   1.830   0.514  0.5026 -0.8316  0.1192
  264MOL0     H35597  10.189   1.724   0.624 -1.0472 -1.6820 -3.5923
  264MOL0     H35598  10.364   1.960   0.517 -0.8030  0.4373  0.0465
  264MOL0     H35599  10.346   1.799   0.445 -3.1410 -1.6509  0.8753
  264MOL0     H35600  10.569   1.964   0.457 -0.9585  1.3319  0.2168
  264MOL0     H35601  10.901   2.032   0.391  2.3589 -3.4998 -0.9445
  264MOL0     H35602  10.850   1.883   0.318  1.2233  0.0171  0.2215
  264MOL0     H35603  10.739   2.018   0.325  3.0073  2.7537 -2.2917
  264MOL0     H35604  11.255   1.561   0.666 -0.2156  0.8545  0.3378
  264MOL0     H35605  11.502   1.584   0.670 -1.0091 -0.9312  0.8375
  264MOL0     H35606  11.674   1.807   0.913 -0.7271 -0.4524 -0.6379
  264MOL0     H35607  11.644   1.641   0.861 -1.4918  1.4106  2.7258
  264MOL0     H35608  11.889   1.709   0.922 -0.5826  1.8338 -0.1892
  264MOL0     H35609  11.868   1.615   0.769  0.2416 -0.2155 -0.1144
  264MOL0     H35610  11.903   1.911   0.809  2.6147 -0.5049  1.0000
  264MOL0     H35611  11.864   1.849   0.651  0.6930  0.7628  0.2882
  264MOL0     H35612  12.098   1.730   0.801  1.8805 -0.2209 -0.6796
  264MOL0     H35613  12.061   1.748   0.623 -2.2576  0.0092 -0.4209
  264MOL0     H35614  12.127   1.988   0.810  3.2236  0.5905 -0.3733
  264MOL0     H35615  12.112   1.977   0.628 -1.0567  0.4318  0.4309
  264MOL0     H35616  12.305   1.815   0.802  0.0390 -1.9449 -1.1698
  264MOL0     H35617  12.311   1.830   0.630 -0.8237  0.2743 -0.5405
  264MOL0     H35618  12.376   2.067   0.809 -0.1784  0.3177 -0.7856
  264MOL0     H35619  12.361   2.060   0.629 -3.2401 -0.2927 -0.3588
  264MOL0     H35620  12.597   2.028   0.734 -0.9828  0.0738  2.9308
  264MOL0     H35621  12.543   1.896   0.617  0.8382  1.7848 -0.6982
  264MOL0     H35622  11.478   1.993   0.759  0.5659 -0.6003  0.0846
  264MOL0     H35623  11.222   1.988   0.745  0.5843  0.3911  0.7024
  264MOL0     H35624  10.852   1.751   0.799 -1.4788  0.2130  1.5124
  264MOL0     H35625  10.615   1.712   0.803 -1.0306  1.1496 -0.4059
  264MOL0     H35626  10.945   1.527   0.854  0.8881 -0.1768 -2.5267
  264MOL0     H35627  11.139   1.392   0.819 -3.7252 -0.0402  0.0169
  264MOL0     H35628  11.639   1.387   0.900  1.5862 -0.2061 -0.1233
  264MOL0     H35629  11.833   1.267   0.895 -0.6862  0.6307  0.5299
  264MOL0     H35630  11.813   0.852   0.774 -1.5048  0.2785  1.1203
  264MOL0     H35631  11.873   1.014   0.731 -0.6756  0.8613  1.0411
  264MOL0     H35632  12.100   0.943   0.811 -1.0921 -0.5200  4.3785
  264MOL0     H35633  12.019   0.847   0.677 -2.6950  3.8915 -2.4779
  264MOL0     H35634  11.942   0.694   0.885  0.3604 -0.2216  0.2954
  264MOL0     H35635  12.034   0.803   0.991  0.6102  1.2612 -0.2901
  264MOL0     H35636  12.178   0.598   0.935  1.5800 -0.5293 -1.0035
  264MOL0     H35637  12.250   0.720   0.825  1.0963 -1.6090 -1.5267
  264MOL0     H35638  12.103   0.472   0.533  2.1469  2.3299 -1.9547
  264MOL0     H35639  11.622   0.907   0.995 -0.5372  0.1939  0.5907
  264MOL0     H35640  11.402   1.055   1.020 -2.3993  1.1380 -2.8000
  265MOL0     O35641   9.890   4.667   1.135 -0.0928  0.2615  1.1908
  265MOL0     C35642   9.949   4.617   1.036  0.6034  0.6200 -0.0846
  265MOL0     O35643   9.903   4.530   0.932  0.0807 -0.3878  0.0997
  265MOL0     C35644   9.769   4.492   0.951 -0.6214  0.3710  0.5247
  265MOL0     C35645   9.744   4.356   0.915 -0.7249 -0.7109 -0.4946
  265MOL0     C35646   9.621   4.301   0.939  0.4491 -0.1044 -0.5116
  265MOL0     C35647   9.517   4.375   0.986  0.4037  0.5887  1.6462
  265MOL0     O35648   9.395   4.320   1.006 -0.4024 -0.4775 -0.6772
  265MOL0     C35649   9.355   4.196   0.949 -0.3572  0.5684 -0.1271
  265MOL0     C35650   9.206   4.182   0.972  0.2736  0.3598 -0.5121
  265MOL0     C35651   9.167   4.192   1.125 -1.2280 -0.0140  0.3967
  265MOL0     C35652   9.010   4.200   1.137 -0.1962  0.3001 -0.7762
  265MOL0     C35653   8.960   4.214   1.279  0.8778  0.0867  0.1075
  265MOL0     C35654   8.803   4.214   1.288  0.1617 -0.0877  0.4834
  265MOL0     C35655   8.756   4.184   1.432  0.0692  0.4190  0.3089
  265MOL0     C35656   8.602   4.174   1.439  0.3969  0.4311  0.3299
  265MOL0     N35657   8.538   4.299   1.457 -0.7377 -0.1593  0.6228
  265MOL0     C35658   8.530   4.370   1.572 -0.5648 -0.9723  1.1147
  265MOL0     C35659   8.449   4.481   1.549  0.4001  0.4413 -0.4566
  265MOL0     C35660   8.406   4.588   1.647  0.8050  0.4941 -0.0443
  265MOL0     C35661   8.250   4.617   1.641  0.3285  0.8136  0.0185
  265MOL0     C35662   8.156   4.562   1.751 -0.2305  0.3246  0.0054
  265MOL0     C35663   8.174   4.412   1.755 -0.5179  0.2167 -0.5842
  265MOL0     O35664   8.145   4.340   1.632 -0.4156 -0.1010  0.3024
  265MOL0     C35665   8.019   4.365   1.581  0.1222  1.2433 -0.4431
  265MOL0     C35666   8.007   4.401   1.448 -0.2793 -0.0954  0.5833
  265MOL0     C35667   7.897   4.450   1.397  1.2494  0.8492 -0.0185
  265MOL0     C35668   7.903   4.488   1.253 -0.6214 -0.7673  0.6075
  265MOL0     C35669   7.780   4.451   1.474 -0.2874 -0.1389  0.0329
  265MOL0     C35670   7.649   4.475   1.406 -0.8070  0.1753 -0.5122
  265MOL0     O35671   7.557   4.541   1.489 -0.2322  0.3120  0.5393
  265MOL0     C35672   7.437   4.556   1.418  1.0772 -0.3138 -0.8657
  265MOL0     C35673   7.330   4.465   1.438  0.6872 -0.7142 -1.1850
  265MOL0     C35674   7.204   4.480   1.368  0.6459  0.1770 -1.0712
  265MOL0     C35675   7.180   4.595   1.301 -0.3276 -0.1594 -0.5413
  265MOL0     O35676   7.057   4.619   1.246  0.2132  0.1883 -0.4108
  265MOL0     C35677   6.973   4.704   1.327  0.2881 -0.2487  0.7093
  265MOL0     C35678   6.912   4.623   1.443  1.2974  0.1877 -0.4472
  265MOL0     C35679   6.816   4.708   1.528  1.1145 -0.3859 -0.6249
  265MOL0     C35680   6.743   4.634   1.635  0.2384 -0.1221  0.6023
  265MOL0     C35681   6.842   4.592   1.751 -0.2477  0.2567 -0.6845
  265MOL0     C35682   6.876   4.683   1.873 -0.5634 -0.3086  0.0827
  265MOL0     C35683   6.926   4.591   1.992 -0.1041 -0.2370  0.7631
  265MOL0     C35684   6.923   4.666   2.119 -0.8888 -0.2519  0.3964
  265MOL0    Cl35685   7.005   4.562   2.243 -0.2203 -0.5454  0.0288
  265MOL0     C35686   7.284   4.689   1.285 -0.3608  0.0097 -0.4864
  265MOL0     C35687   7.414   4.665   1.329  0.1076  0.5276 -0.6534
  265MOL0     O35688   7.632   4.435   1.288 -0.3757 -0.5184 -0.0876
  265MOL0     C35689   7.786   4.416   1.611  0.5432  0.0421 -0.2961
  265MOL0     C35690   7.904   4.360   1.662 -0.4254  0.4527 -0.8694
  265MOL0     N35691   8.427   4.479   1.416 -0.1501  0.0920 -0.1149
  265MOL0     N35692   8.473   4.374   1.360 -0.3629 -0.2527 -0.4876
  265MOL0     C35693   9.538   4.508   1.015 -0.4876  0.4038  0.2853
  265MOL0     C35694   9.667   4.559   1.008 -0.1405  0.1976 -1.1529
  265MOL0     C35695  10.085   4.676   1.032 -0.8598  0.2130  0.3457
  265MOL0     C35696  10.130   4.782   1.122 -0.6542  0.1755  0.0320
  265MOL0     C35697  10.258   4.828   1.114  0.5122 -0.4861  1.4398
  265MOL0     C35698  10.348   4.776   1.022  0.3263 -0.3199  0.4579
  265MOL0     O35699  10.474   4.823   1.022 -0.6100 -1.0102 -0.2495
  265MOL0     C35700  10.495   4.965   1.056 -0.5225 -0.4123  0.4828
  265MOL0     C35701  10.647   4.983   1.047 -0.2349 -0.9027  0.3814
  265MOL0     C35702  10.701   4.969   0.901  0.2240 -0.4490  0.2538
  265MOL0     C35703  10.858   4.986   0.888  0.0584 -0.9685 -0.2598
  265MOL0     C35704  10.884   5.130   0.910 -0.0569 -0.8769 -0.0336
  265MOL0     C35705  10.903   5.248   0.911  0.7300  0.3412  0.2265
  265MOL0     C35706  10.311   4.663   0.948 -0.1264  0.8067 -0.6221
  265MOL0     C35707  10.179   4.622   0.942 -0.2956 -0.7397  0.9651
  265MOL0     H35708   9.816   4.292   0.865  1.9027  0.3522  1.6330
  265MOL0     H35709   9.601   4.204   0.894  3.0160 -1.2019  0.5416
  265MOL0     H35710   9.363   4.193   0.840  0.1357  0.4400 -0.0866
  265MOL0     H35711   9.416   4.114   0.988  0.1810  0.7261 -0.6319
  265MOL0     H35712   9.173   4.269   0.916  1.4943  2.4995  1.8880
  265MOL0     H35713   9.166   4.093   0.922 -0.4576  1.0581 -1.1992
  265MOL0     H35714   9.204   4.102   1.175  0.4676  0.4338 -0.0027
  265MOL0     H35715   9.219   4.281   1.163 -1.2153 -0.1675  0.7425
  265MOL0     H35716   8.979   4.286   1.077 -0.1531 -0.1688 -1.4949
  265MOL0     H35717   8.962   4.113   1.092  2.4696  0.3395 -4.1449
  265MOL0     H35718   8.995   4.122   1.329  0.9541 -0.4417 -0.9049
  265MOL0     H35719   8.992   4.309   1.323 -4.4662  2.5943 -0.6473
  265MOL0     H35720   8.768   4.312   1.251  0.3823 -1.0858 -2.6785
  265MOL0     H35721   8.760   4.141   1.219  0.2185  1.7523 -1.6314
  265MOL0     H35722   8.788   4.082   1.456  0.2179 -0.2656 -2.4980
  265MOL0     H35723   8.791   4.257   1.505 -0.7010 -0.2467  1.3842
  265MOL0     H35724   8.563   4.096   1.505 -0.8870 -1.6487 -2.6316
  265MOL0     H35725   8.577   4.153   1.334  2.8484  1.0865 -0.4609
  265MOL0     H35726   8.562   4.351   1.674  0.5455 -0.2057  0.9318
  265MOL0     H35727   8.439   4.564   1.748  0.4607  1.7253  0.3764
  265MOL0     H35728   8.453   4.680   1.611 -1.0927  1.1718 -0.9567
  265MOL0     H35729   8.216   4.580   1.543 -1.9503 -2.3256  1.8310
  265MOL0     H35730   8.231   4.724   1.632 -0.1611  0.6316 -1.3847
  265MOL0     H35731   8.054   4.585   1.721  0.0143  0.1786 -1.0002
  265MOL0     H35732   8.175   4.613   1.845  2.2427  0.5646 -0.5593
  265MOL0     H35733   8.123   4.380   1.846  1.7978 -2.8845 -0.2023
  265MOL0     H35734   8.270   4.370   1.786 -1.2881 -2.7639 -1.8702
  265MOL0     H35735   8.097   4.401   1.386 -3.1579 -0.4962 -4.0525
  265MOL0     H35736   7.834   4.570   1.231  1.3849  0.9407  0.3453
  265MOL0     H35737   7.996   4.539   1.227 -0.7905 -1.0221 -0.5378
  265MOL0     H35738   7.889   4.402   1.186 -1.5114 -0.1868  0.0310
  265MOL0     H35739   7.343   4.378   1.502 -0.8754 -0.0337  0.1095
  265MOL0     H35740   7.121   4.411   1.379  0.6160  0.1456 -1.4730
  265MOL0     H35741   7.042   4.783   1.357 -0.2529  0.3683  0.3582
  265MOL0     H35742   6.903   4.748   1.255  1.1006 -5.1179 -3.6204
  265MOL0     H35743   6.852   4.537   1.413 -0.1530  0.5276  1.3278
  265MOL0     H35744   6.994   4.596   1.510 -1.9862 -2.2394  2.9789
  265MOL0     H35745   6.749   4.758   1.458  2.7757  2.2956 -0.4268
  265MOL0     H35746   6.862   4.798   1.569  0.9639 -1.6681  2.6887
  265MOL0     H35747   6.657   4.694   1.667 -1.4117 -0.4057 -2.8442
  265MOL0     H35748   6.692   4.548   1.590  0.3801  1.8634 -3.8456
  265MOL0     H35749   6.936   4.559   1.704  1.1753  3.6267 -0.5288
  265MOL0     H35750   6.791   4.503   1.787  0.3136 -0.7041 -2.1580
  265MOL0     H35751   6.952   4.758   1.853 -0.9161  0.6408  1.9963
  265MOL0     H35752   6.785   4.738   1.897  0.9220  2.8929 -1.0516
  265MOL0     H35753   7.026   4.554   1.968 -0.6855 -1.3248 -0.1038
  265MOL0     H35754   6.861   4.503   2.002  0.9784 -1.4085 -1.7273
  265MOL0     H35755   6.827   4.709   2.150  0.5891  3.4771  0.2062
  265MOL0     H35756   6.980   4.759   2.120  0.2667 -0.9443  1.2062
  265MOL0     H35757   7.271   4.782   1.231  0.1194  0.1912 -0.2904
  265MOL0     H35758   7.495   4.736   1.313  0.7505 -0.5652 -2.5156
  265MOL0     H35759   7.699   4.401   1.675  0.3337  0.4214 -0.4843
  265MOL0     H35760   7.923   4.329   1.765  3.0196 -0.1903 -1.5673
  265MOL0     H35761   9.459   4.570   1.056 -0.6974 -1.5341  3.1179
  265MOL0     H35762   9.678   4.664   1.036  1.0593 -0.1009 -0.4364
  265MOL0     H35763  10.065   4.825   1.198 -1.8679 -2.2128  0.4268
  265MOL0     H35764  10.279   4.895   1.197  3.1632  0.0205  0.4693
  265MOL0     H35765  10.450   5.030   0.981  0.9730 -0.6916 -0.6997
  265MOL0     H35766  10.467   5.005   1.154  4.8701 -0.5402  2.4236
  265MOL0     H35767  10.702   4.911   1.108  0.4642 -1.6299 -1.0623
  265MOL0     H35768  10.679   5.080   1.086 -1.0541 -0.5075  0.1043
  265MOL0     H35769  10.653   5.035   0.829 -3.2089 -2.2763  0.5878
  265MOL0     H35770  10.678   4.870   0.860  2.7383 -1.4958  1.1876
  265MOL0     H35771  10.898   4.953   0.792  1.1488 -1.6320  0.4133
  265MOL0     H35772  10.910   4.917   0.954  1.2699 -0.5389 -0.7513
  265MOL0     H35773  10.924   5.353   0.917 -0.1866  0.6256 -1.0450
  265MOL0     H35774  10.383   4.622   0.878  0.4491  5.2131 -2.9103
  265MOL0     H35775  10.162   4.544   0.868 -0.5313  0.7149 -0.5682
  266MOL0     O35776   5.404   8.824   7.158  0.4601 -0.0406 -0.0913
  266MOL0     C35777   5.523   8.793   7.176 -0.2157  0.7473  1.3409
  266MOL0     O35778   5.576   8.668   7.151  0.3504 -0.1278 -0.4383
  266MOL0     C35779   5.515   8.565   7.089 -0.6722 -0.3456  0.6940
  266MOL0     C35780   5.606   8.477   7.028  0.5358 -0.4395 -0.1761
  266MOL0     C35781   5.572   8.353   6.990  0.6940 -0.1671  0.0927
  266MOL0     C35782   5.441   8.307   7.001 -0.5754 -0.5955 -1.2601
  266MOL0     O35783   5.389   8.186   6.963  0.1819 -0.2561 -0.3474
  266MOL0     C35784   5.481   8.092   6.896 -0.4793 -0.1748 -0.1648
  266MOL0     C35785   5.397   7.980   6.838 -0.3867  0.0050  1.0094
  266MOL0     C35786   5.479   7.876   6.755  0.0337  0.0215  0.0645
  266MOL0     C35787   5.563   7.776   6.835  0.7678 -0.2946 -0.9482
  266MOL0     C35788   5.631   7.673   6.737  0.2946 -0.1241  0.6914
  266MOL0     C35789   5.739   7.590   6.821 -0.0575  0.1211  0.1059
  266MOL0     C35790   5.820   7.495   6.735 -0.3436  0.6351 -0.4230
  266MOL0     C35791   5.903   7.556   6.626  0.2095 -0.0768  0.5704
  266MOL0     N35792   6.001   7.654   6.689 -0.0016 -0.0263  0.0842
  266MOL0     C35793   6.122   7.628   6.743 -0.1004 -0.4426  0.0093
  266MOL0     C35794   6.169   7.750   6.793 -0.2428 -0.4816  0.1425
  266MOL0     C35795   6.299   7.785   6.854  1.0293  0.5400  0.1385
  266MOL0     C35796   6.402   7.831   6.750 -0.4150  0.1923 -1.1431
  266MOL0     C35797   6.406   7.745   6.628  0.1227  0.3468 -0.1073
  266MOL0     C35798   6.515   7.786   6.521 -0.9420  0.1196 -0.1358
  266MOL0     O35799   6.639   7.773   6.582 -0.1119 -1.0282  0.0917
  266MOL0     C35800   6.744   7.735   6.502 -0.1273 -0.2723  0.0266
  266MOL0     C35801   6.841   7.652   6.560  0.1441  0.5271 -1.0627
  266MOL0     C35802   6.936   7.584   6.486  0.5868 -0.1928  0.3935
  266MOL0     C35803   7.037   7.506   6.577  0.3030  0.1139  0.1249
  266MOL0     C35804   6.951   7.605   6.348 -0.0278  0.0677 -0.3025
  266MOL0     C35805   7.050   7.541   6.259  0.0546  0.2644 -0.2136
  266MOL0     O35806   7.081   7.606   6.150 -0.6128  0.3243  0.0603
  266MOL0     C35807   7.158   7.546   6.053  0.4958 -0.1972 -0.5113
  266MOL0     C35808   7.104   7.496   5.928 -0.2519  0.1741 -0.0703
  266MOL0     C35809   7.186   7.419   5.840 -0.3886  1.3222 -0.5215
  266MOL0     C35810   7.327   7.413   5.857 -0.3600 -1.2509 -0.1542
  266MOL0     O35811   7.396   7.339   5.765 -0.5542 -0.0685 -0.5575
  266MOL0     C35812   7.519   7.377   5.719 -0.0640  0.7531  0.2027
  266MOL0     C35813   7.581   7.243   5.679 -0.3091 -0.5989 -0.1323
  266MOL0     C35814   7.738   7.262   5.679  0.7463 -0.0526  0.0130
  266MOL0     C35815   7.788   7.301   5.541 -0.2994  0.0261  0.7382
  266MOL0     C35816   7.928   7.366   5.555 -0.0208 -0.4089 -0.3029
  266MOL0     C35817   8.036   7.268   5.593 -0.5199  0.7093  0.6078
  266MOL0     C35818   8.169   7.333   5.619  0.1429  0.2942 -0.2644
  266MOL0     C35819   8.292   7.246   5.599  0.7514  0.2141 -0.2944
  266MOL0    Cl35820   8.289   7.182   5.423  0.2574 -0.2555 -0.1476
  266MOL0     C35821   7.384   7.488   5.963  0.3773 -1.0083  0.1790
  266MOL0     C35822   7.299   7.539   6.072 -0.5615  0.4821  0.7739
  266MOL0     O35823   7.097   7.434   6.299 -0.6233  0.0750  0.2434
  266MOL0     C35824   6.862   7.704   6.298 -0.6225  0.1055  0.5537
  266MOL0     C35825   6.758   7.765   6.369  0.0208  0.2820  0.3475
  266MOL0     N35826   6.078   7.848   6.759  0.2256 -0.0753 -0.3973
  266MOL0     N35827   5.981   7.788   6.702 -0.4540 -0.2431 -0.3202
  266MOL0     C35828   5.342   8.397   7.045 -0.2885 -0.6681 -0.4189
  266MOL0     C35829   5.384   8.524   7.098 -0.2389 -0.3940 -0.3392
  266MOL0     C35830   5.625   8.894   7.211 -0.1437 -0.9389 -0.6941
  266MOL0     C35831   5.583   9.024   7.254 -1.0253  0.2693  0.5242
  266MOL0     C35832   5.676   9.120   7.283 -0.8640 -0.8226  0.4643
  266MOL0     C35833   5.814   9.101   7.272  1.0791  0.0940  0.4132
  266MOL0     O35834   5.901   9.211   7.302  0.0534  0.5604 -0.1473
  266MOL0     C35835   6.040   9.184   7.299 -0.3445 -0.8610 -0.1081
  266MOL0     C35836   6.129   9.315   7.311 -0.1140  0.0304 -0.0365
  266MOL0     C35837   6.177   9.335   7.460 -0.2879  0.1577 -0.6042
  266MOL0     C35838   6.288   9.243   7.523  0.4341  0.0162 -0.3946
  266MOL0     C35839   6.404   9.296   7.451 -0.7740  0.7812  0.0960
  266MOL0     C35840   6.510   9.337   7.411  0.1892 -1.0496 -0.3067
  266MOL0     C35841   5.845   8.974   7.222  0.4846  0.6454 -1.0684
  266MOL0     C35842   5.754   8.872   7.197  0.1542 -0.5395  0.5515
  266MOL0     H35843   5.706   8.513   7.010  0.3346 -0.1490 -0.7648
  266MOL0     H35844   5.656   8.293   6.958  0.2890  0.0683 -1.5041
  266MOL0     H35845   5.519   8.130   6.801  0.2913 -0.3178  0.0828
  266MOL0     H35846   5.562   8.060   6.961 -0.6518  0.6440  0.4659
  266MOL0     H35847   5.343   7.927   6.917 -0.1948 -1.1017  0.4208
  266MOL0     H35848   5.329   8.017   6.760  0.9047 -3.0302 -1.8299
  266MOL0     H35849   5.406   7.818   6.696  0.8397 -1.2278  0.2564
  266MOL0     H35850   5.546   7.926   6.685  0.1743 -1.0801 -0.6092
  266MOL0     H35851   5.646   7.835   6.875  0.0650 -0.9939  1.7823
  266MOL0     H35852   5.509   7.731   6.919  0.2110  2.6564  0.4207
  266MOL0     H35853   5.560   7.599   6.700  1.3988 -0.9902  0.2325
  266MOL0     H35854   5.668   7.728   6.650 -1.4104 -0.2324 -0.1330
  266MOL0     H35855   5.798   7.669   6.868 -0.4212 -0.3830  1.4900
  266MOL0     H35856   5.697   7.530   6.903 -1.3991  0.3451 -0.3790
  266MOL0     H35857   5.896   7.445   6.796  0.2904 -0.3489 -1.9548
  266MOL0     H35858   5.745   7.421   6.705 -1.5728  0.8400  1.9451
  266MOL0     H35859   5.838   7.608   6.554  0.9695 -1.2928 -1.0626
  266MOL0     H35860   5.948   7.479   6.564 -1.9715  0.2739 -1.6292
  266MOL0     H35861   6.177   7.534   6.734  2.1097  0.9099 -1.7861
  266MOL0     H35862   6.278   7.864   6.927  0.5119  0.4284  0.1149
  266MOL0     H35863   6.325   7.697   6.914 -2.5991 -1.0576 -0.3466
  266MOL0     H35864   6.500   7.823   6.798 -1.3245  0.6989  0.8971
  266MOL0     H35865   6.373   7.934   6.725  0.3142 -0.1260 -3.5206
  266MOL0     H35866   6.311   7.748   6.574  0.0637  1.5290  0.0309
  266MOL0     H35867   6.426   7.641   6.654 -1.6555 -0.9144 -3.2286
  266MOL0     H35868   6.500   7.892   6.497 -0.7292  0.8891  2.7541
  266MOL0     H35869   6.504   7.731   6.428 -3.0282 -1.1570  0.7833
  266MOL0     H35870   6.836   7.645   6.669 -1.3628 -3.0162 -1.2190
  266MOL0     H35871   7.029   7.400   6.553 -1.7706 -0.1361  1.6564
  266MOL0     H35872   7.138   7.547   6.564  0.3070 -0.4156 -2.0376
  266MOL0     H35873   7.004   7.536   6.677 -0.6867  4.8267 -1.3336
  266MOL0     H35874   6.995   7.499   5.923 -0.3240  2.0953  1.7833
  266MOL0     H35875   7.134   7.355   5.770 -2.5988  1.7560  0.5992
  266MOL0     H35876   7.516   7.443   5.632 -1.7773 -1.7766 -1.8096
  266MOL0     H35877   7.593   7.416   5.789  0.9483  1.7701 -1.3618
  266MOL0     H35878   7.550   7.162   5.746 -0.2315  0.8600  1.7617
  266MOL0     H35879   7.547   7.217   5.579 -1.2380 -1.5406  0.4089
  266MOL0     H35880   7.795   7.177   5.716 -0.3933 -1.7326 -1.8778
  266MOL0     H35881   7.763   7.346   5.744  1.0184 -2.1749  2.8627
  266MOL0     H35882   7.799   7.212   5.478 -0.7317 -0.8067  1.8121
  266MOL0     H35883   7.718   7.365   5.487 -0.6896 -0.6541  0.4119
  266MOL0     H35884   7.908   7.446   5.627 -0.9904 -0.6539 -0.2943
  266MOL0     H35885   7.952   7.411   5.458  1.2519  0.0667  0.2052
  266MOL0     H35886   8.012   7.193   5.670 -0.5769 -1.6145 -1.5521
  266MOL0     H35887   8.040   7.214   5.498  1.6619  1.9776 -0.0732
  266MOL0     H35888   8.158   7.363   5.723  3.8554  0.6130  0.1734
  266MOL0     H35889   8.178   7.419   5.553 -1.0131 -0.7587 -1.8848
  266MOL0     H35890   8.291   7.162   5.669 -1.2019 -0.7614 -1.4222
  266MOL0     H35891   8.376   7.310   5.626  0.7125 -0.5691  1.8520
  266MOL0     H35892   7.492   7.494   5.979  0.2964 -2.9464  1.9903
  266MOL0     H35893   7.348   7.579   6.161  2.0960 -0.5874 -0.0959
  266MOL0     H35894   6.866   7.717   6.191 -0.7972 -1.1403  0.3868
  266MOL0     H35895   6.704   7.835   6.305 -2.6093 -0.4697  1.6119
  266MOL0     H35896   5.242   8.362   7.066 -0.6498  1.0629  1.0368
  266MOL0     H35897   5.314   8.586   7.151  0.1864  0.5688 -0.8856
  266MOL0     H35898   5.480   9.058   7.248 -1.2086 -0.5060 -1.1552
  266MOL0     H35899   5.642   9.214   7.326  1.3020  0.0701  0.3586
  266MOL0     H35900   6.073   9.114   7.376  1.0316  0.2740  0.3788
  266MOL0     H35901   6.066   9.134   7.205 -1.7546 -1.0456 -0.4245
  266MOL0     H35902   6.067   9.393   7.267 -1.1397 -1.9669 -2.3535
  266MOL0     H35903   6.209   9.305   7.238 -0.1717  1.6802 -0.3557
  266MOL0     H35904   6.092   9.343   7.529 -0.9451  0.0148 -1.3810
  266MOL0     H35905   6.213   9.438   7.460  2.4030 -0.6894 -1.9640
  266MOL0     H35906   6.272   9.135   7.513  4.3997 -1.1280  2.8004
  266MOL0     H35907   6.291   9.261   7.631 -1.8128 -0.0506 -0.2719
  266MOL0     H35908   6.593   9.366   7.349  0.4755 -1.1385  0.0275
  266MOL0     H35909   5.945   8.932   7.226 -0.6924 -2.6387 -2.3299
  266MOL0     H35910   5.787   8.772   7.171  1.0653  0.0290 -0.5424
  267MOL0     O35911  10.788   8.591   4.553  0.3232  0.5102  0.4404
  267MOL0     C35912  10.835   8.563   4.662 -0.8611 -0.4239 -0.4060
  267MOL0     O35913  10.765   8.570   4.777  0.6857  0.5384  0.2496
  267MOL0     C35914  10.625   8.570   4.760 -0.9306  0.0788  0.5668
  267MOL0     C35915  10.559   8.455   4.788 -0.4746 -0.0359  0.5094
  267MOL0     C35916  10.424   8.442   4.774  0.1387 -0.4615 -0.0564
  267MOL0     C35917  10.349   8.547   4.725  0.0992 -0.0961  0.7032
  267MOL0     O35918  10.220   8.531   4.694 -0.2899 -0.2097  0.4814
  267MOL0     C35919  10.124   8.609   4.758  0.3006  0.1234 -0.0958
  267MOL0     C35920   9.993   8.549   4.729 -0.4197 -0.0797  0.8174
  267MOL0     C35921   9.928   8.596   4.594 -0.3533  0.0144 -0.4245
  267MOL0     C35922   9.789   8.529   4.566  0.6685 -0.0970 -0.0077
  267MOL0     C35923   9.748   8.600   4.436 -0.0069  1.1827  0.2657
  267MOL0     C35924   9.626   8.526   4.374 -0.2212 -0.4159  0.1885
  267MOL0     C35925   9.592   8.610   4.252  0.1354  0.3523  0.1321
  267MOL0     C35926   9.503   8.534   4.151 -0.6688  0.5354 -0.6216
  267MOL0     N35927   9.358   8.514   4.190 -0.7307 -0.5729 -0.3285
  267MOL0     C35928   9.305   8.402   4.248 -0.4690 -0.3877 -0.9535
  267MOL0     C35929   9.175   8.408   4.225 -0.4830 -0.0210  0.5778
  267MOL0     C35930   9.085   8.298   4.282  0.3517 -0.3801  0.8632
  267MOL0     C35931   9.007   8.352   4.399  0.8439  0.3049 -1.2236
  267MOL0     C35932   8.942   8.239   4.477 -0.6961 -0.1639  0.4579
  267MOL0     C35933   8.798   8.269   4.522  0.8155 -1.0565 -0.6398
  267MOL0     O35934   8.807   8.367   4.622  0.4400 -0.3109  0.2879
  267MOL0     C35935   8.692   8.406   4.694  0.3825 -1.1515  0.3033
  267MOL0     C35936   8.717   8.491   4.808  0.1795 -0.0994  0.2139
  267MOL0     C35937   8.612   8.537   4.883 -0.0434 -0.7480  0.2649
  267MOL0     C35938   8.653   8.630   4.989 -0.0144 -0.7709 -0.0790
  267MOL0     C35939   8.480   8.494   4.859 -0.2366 -0.5475 -0.4947
  267MOL0     C35940   8.368   8.529   4.946  0.3148 -0.0285  0.6684
  267MOL0     O35941   8.379   8.512   5.076 -0.1230  0.8338 -0.0381
  267MOL0     C35942   8.280   8.530   5.162 -0.0204 -0.6747 -1.1293
  267MOL0     C35943   8.328   8.575   5.284  0.1249  0.1990  0.0069
  267MOL0     C35944   8.240   8.586   5.395  1.0424  1.0268 -0.0112
  267MOL0     C35945   8.103   8.573   5.371  0.7616 -0.5892  0.4461
  267MOL0     O35946   8.019   8.589   5.483  0.4397  0.6220  0.0612
  267MOL0     C35947   7.881   8.609   5.465  0.0141 -0.1309 -0.3803
  267MOL0     C35948   7.805   8.658   5.588 -0.0481 -1.3517  0.0004
  267MOL0     C35949   7.661   8.644   5.573 -0.0305 -0.8238  0.7713
  267MOL0     C35950   7.602   8.551   5.678  0.6601  0.1517 -0.3750
  267MOL0     C35951   7.444   8.570   5.681 -0.1047  1.0312 -0.6020
  267MOL0     C35952   7.380   8.466   5.771 -0.3043 -0.1156 -1.2809
  267MOL0     C35953   7.306   8.523   5.899 -0.4533  0.3864 -0.2527
  267MOL0     C35954   7.220   8.407   5.957 -0.5831 -0.6447 -0.3717
  267MOL0    Cl35955   7.068   8.397   5.869  0.2999 -0.1957 -0.1840
  267MOL0     C35956   8.052   8.538   5.246 -0.4377  0.9804  0.6084
  267MOL0     C35957   8.143   8.507   5.142  0.0024  0.2760  0.2297
  267MOL0     O35958   8.269   8.559   4.884  0.6817 -0.2568  0.3608
  267MOL0     C35959   8.456   8.412   4.748  0.5723  0.4156 -0.4309
  267MOL0     C35960   8.559   8.369   4.664  0.2272 -1.0974 -0.9518
  267MOL0     N35961   9.141   8.528   4.155  0.0948 -0.1428 -0.1100
  267MOL0     N35962   9.259   8.590   4.136  0.8768 -0.1264  0.4366
  267MOL0     C35963  10.421   8.675   4.700  0.0837  0.8028 -0.3633
  267MOL0     C35964  10.560   8.680   4.720  0.3713 -0.5824 -0.3147
  267MOL0     C35965  10.984   8.548   4.679  0.9244 -0.6483  0.7024
  267MOL0     C35966  11.074   8.552   4.570 -0.2032  0.9278  0.0065
  267MOL0     C35967  11.213   8.532   4.585 -0.3418  0.0354  0.6807
  267MOL0     C35968  11.263   8.496   4.705 -0.8305 -0.6974 -0.1231
  267MOL0     O35969  11.397   8.482   4.729 -0.8069  0.7694 -0.0065
  267MOL0     C35970  11.501   8.497   4.631 -0.6543 -0.6707 -0.4534
  267MOL0     C35971  11.629   8.516   4.714 -1.1392  0.4043 -0.0950
  267MOL0     C35972  11.739   8.598   4.636  0.0627 -0.5819 -0.6168
  267MOL0     C35973  11.715   8.748   4.628 -0.3736  0.1205 -0.0090
  267MOL0     C35974  11.840   8.817   4.607 -0.1717 -0.0706 -0.0601
  267MOL0     C35975  11.938   8.883   4.579  0.7844 -0.8615 -0.4897
  267MOL0     C35976  11.181   8.488   4.815 -0.3125  0.7051  0.5169
  267MOL0     C35977  11.038   8.514   4.805 -0.5056 -0.5741  0.4021
  267MOL0     H35978  10.624   8.376   4.821 -0.0081 -0.5501 -1.5098
  267MOL0     H35979  10.379   8.346   4.797 -1.2587  0.2971  0.4264
  267MOL0     H35980  10.137   8.600   4.867 -2.7608 -0.5867  0.3198
  267MOL0     H35981  10.114   8.715   4.733 -1.9619 -0.5274 -2.3616
  267MOL0     H35982   9.994   8.440   4.735  2.2640 -0.2617 -0.8150
  267MOL0     H35983   9.933   8.572   4.817 -2.2549 -0.7066 -0.2329
  267MOL0     H35984   9.910   8.704   4.597  1.2403  0.4077 -2.1555
  267MOL0     H35985   9.993   8.580   4.507  0.1183 -1.1103  0.1099
  267MOL0     H35986   9.801   8.422   4.548  1.8984 -0.1335  0.8864
  267MOL0     H35987   9.717   8.557   4.644  1.9496 -1.0666  1.5741
  267MOL0     H35988   9.718   8.705   4.443 -1.5089  0.8098 -0.2002
  267MOL0     H35989   9.834   8.591   4.368  1.4398  1.0956  2.0354
  267MOL0     H35990   9.651   8.420   4.370  1.4942 -0.1007  1.5233
  267MOL0     H35991   9.544   8.558   4.440  1.5070 -1.0333  2.7743
  267MOL0     H35992   9.528   8.692   4.285 -0.6612 -0.4787  0.6926
  267MOL0     H35993   9.679   8.650   4.199 -0.5697  2.7403  0.6464
  267MOL0     H35994   9.561   8.443   4.137 -0.4432  0.1554  2.1423
  267MOL0     H35995   9.503   8.602   4.066  0.2008  0.1518 -0.9393
  267MOL0     H35996   9.369   8.338   4.309  1.1402  2.3733  0.4406
  267MOL0     H35997   9.016   8.253   4.209 -1.4682  0.4092  2.0194
  267MOL0     H35998   9.150   8.214   4.306  0.8436 -1.0102 -2.2162
  267MOL0     H35999   8.933   8.427   4.371 -3.4213 -2.6413  1.0614
  267MOL0     H36000   9.068   8.404   4.474 -2.2605 -0.7723  2.3806
  267MOL0     H36001   9.007   8.211   4.561  3.1034 -0.2359 -2.2320
  267MOL0     H36002   8.929   8.157   4.405 -0.1171  1.1559 -1.2001
  267MOL0     H36003   8.748   8.180   4.561  0.5472  0.2144  2.1371
  267MOL0     H36004   8.738   8.307   4.439 -0.8585  0.3183  1.1171
  267MOL0     H36005   8.816   8.528   4.830  0.3823 -0.0186 -0.7985
  267MOL0     H36006   8.579   8.710   5.000 -0.6760 -1.4675  0.6919
  267MOL0     H36007   8.676   8.578   5.083  3.2063 -2.1944 -1.4971
  267MOL0     H36008   8.744   8.681   4.958 -1.7428  1.2810 -2.1211
  267MOL0     H36009   8.430   8.610   5.287 -0.0594  0.6572  1.6004
  267MOL0     H36010   8.271   8.613   5.496 -1.4100  0.6459  0.9011
  267MOL0     H36011   7.862   8.670   5.376 -0.2361 -1.4274 -1.2287
  267MOL0     H36012   7.841   8.510   5.444 -2.3108  0.7270 -0.2635
  267MOL0     H36013   7.832   8.609   5.682 -2.6738 -2.1685  0.3935
  267MOL0     H36014   7.828   8.764   5.600 -2.4670 -0.5550 -1.7269
  267MOL0     H36015   7.622   8.611   5.477 -2.5340  2.3129  0.5582
  267MOL0     H36016   7.623   8.746   5.571  0.6283 -0.5562  1.2799
  267MOL0     H36017   7.630   8.452   5.642  1.7776  1.3990 -3.3147
  267MOL0     H36018   7.637   8.576   5.778 -4.0550 -0.1968  1.6373
  267MOL0     H36019   7.404   8.566   5.580 -1.3511 -1.3667 -0.1000
  267MOL0     H36020   7.424   8.670   5.721  1.1268  0.8400  0.5727
  267MOL0     H36021   7.319   8.404   5.706  0.7982 -0.2483 -2.2155
  267MOL0     H36022   7.456   8.398   5.812 -2.5962 -1.6222  0.7627
  267MOL0     H36023   7.253   8.617   5.879 -0.0337  0.5182 -0.7753
  267MOL0     H36024   7.378   8.551   5.975 -0.4091  5.5127 -1.7792
  267MOL0     H36025   7.203   8.436   6.061  2.5086  1.0180 -0.2102
  267MOL0     H36026   7.264   8.307   5.951  0.0593 -0.3014 -1.9853
  267MOL0     H36027   7.955   8.491   5.236  0.3201 -0.1633 -2.3640
  267MOL0     H36028   8.109   8.453   5.054 -1.6559  0.3480  0.7862
  267MOL0     H36029   8.352   8.390   4.730  0.5153 -1.5513  1.7480
  267MOL0     H36030   8.534   8.318   4.572  0.8441 -1.7295 -0.7747
  267MOL0     H36031  10.364   8.765   4.677  0.9492  2.9337  4.6559
  267MOL0     H36032  10.598   8.781   4.707 -2.5890  0.7346  0.3677
  267MOL0     H36033  11.027   8.574   4.474  1.3249  0.4961 -0.8625
  267MOL0     H36034  11.270   8.548   4.494 -1.9027  4.5437  0.2367
  267MOL0     H36035  11.515   8.414   4.561  1.9507 -0.7062  0.0258
  267MOL0     H36036  11.475   8.582   4.567 -4.0638 -0.2777  1.2138
  267MOL0     H36037  11.676   8.421   4.738 -1.8674 -0.7730 -2.9364
  267MOL0     H36038  11.602   8.566   4.808 -0.2593  2.4346 -0.8534
  267MOL0     H36039  11.756   8.557   4.536  2.2528  4.7401 -2.8234
  267MOL0     H36040  11.834   8.588   4.690 -1.1304  1.5809  2.2038
  267MOL0     H36041  11.664   8.787   4.716 -1.0115  1.1991 -0.8374
  267MOL0     H36042  11.647   8.775   4.547 -0.1696  4.5356  1.0431
  267MOL0     H36043  12.019   8.940   4.538  1.8884 -1.6540  0.5050
  267MOL0     H36044  11.245   8.472   4.902  2.4375 -2.4787 -1.8427
  267MOL0     H36045  10.980   8.514   4.897  2.2426 -0.5059  2.2739
  268MOL0     O36046   4.765   8.034   6.315 -1.0132  0.2249  0.1197
  268MOL0     C36047   4.783   8.125   6.241  0.5801 -0.1400  0.5062
  268MOL0     O36048   4.709   8.236   6.241 -0.6247 -0.1992 -0.0797
  268MOL0     C36049   4.617   8.263   6.338  0.0396  0.2505  0.5916
  268MOL0     C36050   4.509   8.191   6.371  0.1809  0.1748  0.8553
  268MOL0     C36051   4.413   8.250   6.461 -0.2023  0.5130 -0.7502
  268MOL0     C36052   4.428   8.381   6.505 -0.1820  0.4961  0.0406
  268MOL0     O36053   4.338   8.435   6.594  0.2360 -0.1041 -0.5343
  268MOL0     C36054   4.301   8.576   6.564  0.3383  0.0198  0.3984
  268MOL0     C36055   4.165   8.633   6.617 -0.1863  0.3540 -0.1260
  268MOL0     C36056   4.049   8.530   6.591 -0.4031  0.3008 -0.1568
  268MOL0     C36057   3.937   8.548   6.701  0.4977  1.4193  0.9603
  268MOL0     C36058   3.808   8.480   6.650  0.1459 -0.0232  0.6744
  268MOL0     C36059   3.694   8.543   6.727  0.2804  0.1593  1.2197
  268MOL0     C36060   3.574   8.445   6.713  0.0636 -0.3638  0.2884
  268MOL0     C36061   3.497   8.457   6.576  0.0956 -0.0723  0.7536
  268MOL0     N36062   3.406   8.336   6.574  1.0371  0.1910  0.5107
  268MOL0     C36063   3.270   8.352   6.547 -0.2225  0.3184  0.3950
  268MOL0     C36064   3.230   8.229   6.513 -0.8210  0.1135  0.6935
  268MOL0     C36065   3.091   8.191   6.488 -0.5156  0.8987  0.6531
  268MOL0     C36066   3.002   8.317   6.448 -0.5722 -0.0010  0.9820
  268MOL0     C36067   2.865   8.269   6.428 -0.1338 -0.3271 -0.1564
  268MOL0     C36068   2.763   8.375   6.406 -0.4988  0.0032  0.0012
  268MOL0     O36069   2.636   8.311   6.418  0.6183 -0.1231  0.2446
  268MOL0     C36070   2.520   8.382   6.381 -0.0954  0.1442  0.5582
  268MOL0     C36071   2.517   8.507   6.323 -0.2126  0.8532  0.9843
  268MOL0     C36072   2.397   8.563   6.295  0.4007 -0.1428  0.1193
  268MOL0     C36073   2.402   8.694   6.212  1.3064  0.5456 -0.2512
  268MOL0     C36074   2.278   8.511   6.339 -0.0382  0.0524 -0.1827
  268MOL0     C36075   2.139   8.576   6.307  0.0916  0.2237  0.2055
  268MOL0     O36076   2.059   8.599   6.415  0.0562 -0.4833  0.2682
  268MOL0     C36077   1.943   8.665   6.406  0.0768  0.0480 -0.1639
  268MOL0     C36078   1.844   8.624   6.494  0.3851 -0.1229  0.0491
  268MOL0     C36079   1.721   8.687   6.511  0.7546  0.1252 -0.4492
  268MOL0     C36080   1.683   8.798   6.434 -0.1576  0.3804  0.5653
  268MOL0     O36081   1.556   8.849   6.455  0.0555 -0.2814  0.1381
  268MOL0     C36082   1.515   8.941   6.355 -0.4002 -0.4394 -0.2443
  268MOL0     C36083   1.387   8.992   6.399 -0.0666  1.5976  0.0106
  268MOL0     C36084   1.352   9.120   6.308 -0.8577 -0.3784  0.3172
  268MOL0     C36085   1.208   9.176   6.328  0.6720  0.0153  0.3604
  268MOL0     C36086   1.171   9.309   6.264 -0.4112 -0.2162 -0.3215
  268MOL0     C36087   1.230   9.337   6.128 -0.5343 -1.1174  0.2390
  268MOL0     C36088   1.184   9.477   6.069 -0.3401  0.1023 -0.2146
  268MOL0     C36089   1.294   9.566   6.023 -1.1039  0.3386  0.8659
  268MOL0    Cl36090   1.421   9.611   6.151  0.0397 -0.0911 -0.0549
  268MOL0     C36091   1.782   8.844   6.345  0.0414  0.9187  0.0848
  268MOL0     C36092   1.909   8.783   6.333  0.4453 -0.4749 -0.1915
  268MOL0     O36093   2.111   8.611   6.192  0.0935 -1.7110 -0.3462
  268MOL0     C36094   2.282   8.380   6.395 -0.2039  0.6378 -0.9075
  268MOL0     C36095   2.401   8.315   6.417  0.6666  0.4978  0.0077
  268MOL0     N36096   3.333   8.141   6.507 -0.2060 -0.2341 -0.0404
  268MOL0     N36097   3.444   8.213   6.543 -0.3267 -0.1038 -0.8405
  268MOL0     C36098   4.548   8.454   6.473  0.3128  0.4165 -0.0490
  268MOL0     C36099   4.629   8.391   6.385 -0.5159  0.2134 -0.5429
  268MOL0     C36100   4.896   8.119   6.148  0.8844 -0.7456 -0.2231
  268MOL0     C36101   4.958   7.996   6.119 -0.4825 -0.4116 -0.0801
  268MOL0     C36102   5.064   7.997   6.025 -1.1687  0.4787 -0.1786
  268MOL0     C36103   5.110   8.111   5.967 -0.7011  0.4265 -0.6379
  268MOL0     O36104   5.223   8.091   5.896 -0.5454 -0.1718 -0.1028
  268MOL0     C36105   5.294   8.207   5.856 -0.1698 -0.2025  0.1823
  268MOL0     C36106   5.440   8.173   5.806 -0.5197  1.2933 -0.1975
  268MOL0     C36107   5.454   8.076   5.682 -0.1357  0.4570 -0.3699
  268MOL0     C36108   5.372   8.118   5.563  0.3579  0.6666  0.7579
  268MOL0     C36109   5.420   8.243   5.503 -0.1892 -0.2376  0.1202
  268MOL0     C36110   5.466   8.347   5.459 -0.1987  0.5340 -0.4551
  268MOL0     C36111   5.057   8.236   6.001  0.6618  0.0737  0.3731
  268MOL0     C36112   4.951   8.235   6.097  0.4090 -0.4115 -0.2815
  268MOL0     H36113   4.507   8.086   6.346 -2.5462  0.6665 -1.5475
  268MOL0     H36114   4.333   8.182   6.486  1.3197 -0.5858  1.3514
  268MOL0     H36115   4.369   8.648   6.610 -0.8421  2.8023 -1.8792
  268MOL0     H36116   4.305   8.598   6.457  1.2644 -1.9207 -0.0135
  268MOL0     H36117   4.183   8.662   6.722  2.0908 -0.9169 -0.1102
  268MOL0     H36118   4.132   8.729   6.577  0.6772  1.2366  1.1812
  268MOL0     H36119   4.011   8.545   6.489  2.5800 -0.0832 -1.4397
  268MOL0     H36120   4.082   8.426   6.596  0.2512  0.5752  2.2926
  268MOL0     H36121   3.967   8.518   6.801 -0.4524 -2.9381  0.1637
  268MOL0     H36122   3.921   8.656   6.702  1.2551  1.7563 -3.3083
  268MOL0     H36123   3.801   8.471   6.541 -1.1226  0.6581  0.6674
  268MOL0     H36124   3.817   8.373   6.671  2.5869 -0.5869 -2.5153
  268MOL0     H36125   3.723   8.572   6.828  1.2905 -0.0356  0.9917
  268MOL0     H36126   3.677   8.643   6.686  2.2128  1.1399  2.6442
  268MOL0     H36127   3.608   8.342   6.728  1.7416  0.1289  0.1146
  268MOL0     H36128   3.506   8.478   6.792 -0.8796 -0.7607 -0.3391
  268MOL0     H36129   3.562   8.464   6.489 -1.7764 -0.2025 -0.7239
  268MOL0     H36130   3.440   8.550   6.578  0.8883  0.4528  3.9277
  268MOL0     H36131   3.211   8.442   6.561 -1.8499 -1.0915  3.6641
  268MOL0     H36132   3.072   8.111   6.416  0.5138 -0.2413  1.5944
  268MOL0     H36133   3.062   8.142   6.581 -3.8346 -0.4268 -0.9063
  268MOL0     H36134   3.043   8.368   6.360 -1.6420 -2.5556 -1.1405
  268MOL0     H36135   2.994   8.391   6.528  0.3295  0.1109  0.9850
  268MOL0     H36136   2.823   8.218   6.515 -1.3776  1.0343  0.0742
  268MOL0     H36137   2.863   8.197   6.345  0.1079 -0.3081 -0.1782
  268MOL0     H36138   2.783   8.417   6.307  1.7842 -1.8484 -0.4077
  268MOL0     H36139   2.773   8.456   6.479  1.2695  0.3552 -0.5824
  268MOL0     H36140   2.604   8.557   6.281 -1.0422  0.3250 -1.4729
  268MOL0     H36141   2.334   8.770   6.250  0.7329  0.5802 -1.2949
  268MOL0     H36142   2.502   8.737   6.210  0.0235  3.9173  1.3696
  268MOL0     H36143   2.355   8.671   6.116  2.1880 -2.4256 -0.0699
  268MOL0     H36144   1.864   8.539   6.559  0.6159 -0.4031 -0.3809
  268MOL0     H36145   1.645   8.647   6.578  1.4667 -2.7376 -1.1937
  268MOL0     H36146   1.586   9.024   6.360 -2.8607  1.7342  0.3115
  268MOL0     H36147   1.506   8.899   6.255  1.2501 -0.2950 -0.4834
  268MOL0     H36148   1.317   8.909   6.387 -0.8531  1.7937  2.6736
  268MOL0     H36149   1.399   9.015   6.506  3.7411 -1.0220  0.3695
  268MOL0     H36150   1.351   9.089   6.203 -3.8191  0.1378  0.1097
  268MOL0     H36151   1.429   9.196   6.322  0.1864 -1.4202  0.3876
  268MOL0     H36152   1.136   9.100   6.295  1.9377 -0.6314 -1.0380
  268MOL0     H36153   1.207   9.199   6.435  2.8453  0.4812  0.3205
  268MOL0     H36154   1.206   9.385   6.334 -0.9077 -0.7642  0.5348
  268MOL0     H36155   1.061   9.311   6.262 -0.4209  0.1168  0.3897
  268MOL0     H36156   1.338   9.323   6.124 -0.3789  0.0612 -0.1627
  268MOL0     H36157   1.183   9.253   6.075 -2.7204 -1.1061  2.0393
  268MOL0     H36158   1.121   9.531   6.141 -1.2134 -1.8492  0.5553
  268MOL0     H36159   1.126   9.447   5.982  0.7727  0.3266 -1.0475
  268MOL0     H36160   1.251   9.652   5.971 -0.8003 -0.4816 -0.8101
  268MOL0     H36161   1.346   9.510   5.944 -2.3886 -0.7847  0.7709
  268MOL0     H36162   1.748   8.920   6.275 -2.6218  0.6713  0.9763
  268MOL0     H36163   1.984   8.821   6.264 -0.4581 -0.6008 -1.2797
  268MOL0     H36164   2.185   8.336   6.415 -0.1418  0.0643 -1.7937
  268MOL0     H36165   2.412   8.212   6.447 -2.8982  0.0974  0.4122
  268MOL0     H36166   4.575   8.554   6.503 -1.3598  0.4520  1.4579
  268MOL0     H36167   4.710   8.457   6.356  2.7324 -2.5425  1.5770
  268MOL0     H36168   4.924   7.908   6.174 -0.4455  1.1632  2.6269
  268MOL0     H36169   5.108   7.901   6.000 -2.1676  0.5442 -2.4231
  268MOL0     H36170   5.237   8.243   5.770 -0.7524 -0.4865  0.4422
  268MOL0     H36171   5.295   8.277   5.940  2.2447 -2.8867  2.6406
  268MOL0     H36172   5.497   8.122   5.885  0.9238  2.1822 -0.6216
  268MOL0     H36173   5.499   8.265   5.803  0.9177  0.3974 -0.3119
  268MOL0     H36174   5.427   7.977   5.719 -4.0722  1.2994 -0.6124
  268MOL0     H36175   5.556   8.084   5.643 -0.1427 -2.2332 -1.1366
  268MOL0     H36176   5.265   8.128   5.586 -0.0686 -3.1193  0.9993
  268MOL0     H36177   5.364   8.036   5.491  1.1805 -1.1170  2.6143
  268MOL0     H36178   5.523   8.434   5.433  1.8275 -0.1498  1.3800
  268MOL0     H36179   5.092   8.331   5.961  0.0761 -0.1378 -0.6994
  268MOL0     H36180   4.922   8.336   6.123  1.3153  0.3797 -2.1357
  269MOL0     O36181   5.905   2.062   1.217  0.1702  0.0165 -0.5818
  269MOL0     C36182   5.927   1.983   1.120 -0.2201  0.0140  0.2726
  269MOL0     O36183   5.851   1.971   1.011  0.4082  0.6216  0.5888
  269MOL0     C36184   5.715   1.988   1.017  0.0523  0.2480  0.7052
  269MOL0     C36185   5.629   1.992   1.130  0.0643 -0.3634  0.1129
  269MOL0     C36186   5.486   1.996   1.103  0.5301 -0.4784 -0.6198
  269MOL0     C36187   5.437   1.990   0.966  1.1752 -0.3691  0.0203
  269MOL0     O36188   5.303   1.986   0.945  0.8153  0.7074 -0.7709
  269MOL0     C36189   5.228   2.062   1.032  0.2830 -0.0494  0.1740
  269MOL0     C36190   5.081   2.083   0.971 -0.8797 -0.1594 -0.1775
  269MOL0     C36191   4.979   1.981   1.012 -0.5082 -0.0063  0.4643
  269MOL0     C36192   4.848   1.983   0.934 -0.3595  0.7553  0.1615
  269MOL0     C36193   4.734   1.909   1.009 -0.4395 -0.5491  0.1455
  269MOL0     C36194   4.593   1.947   0.951 -0.8251  0.0762 -0.6882
  269MOL0     C36195   4.485   1.923   1.058  0.4703  0.4324 -0.1668
  269MOL0     C36196   4.346   1.952   1.004  0.5553 -0.5866 -0.7183
  269MOL0     N36197   4.334   2.066   0.918  0.0892 -1.0329 -0.4479
  269MOL0     C36198   4.327   2.198   0.963  0.2422  0.2370  0.4968
  269MOL0     C36199   4.318   2.269   0.853  0.5177  0.2971  0.6660
  269MOL0     C36200   4.278   2.416   0.839  0.1375 -0.2601  0.7490
  269MOL0     C36201   4.124   2.427   0.844  1.5988 -0.6927  0.2000
  269MOL0     C36202   4.055   2.371   0.722  0.8363  0.0402  0.2775
  269MOL0     C36203   3.910   2.398   0.721  0.2835 -0.2846  0.3721
  269MOL0     O36204   3.858   2.343   0.839 -0.4675 -0.2488 -0.0445
  269MOL0     C36205   3.727   2.356   0.865  0.5549 -0.8425  0.0431
  269MOL0     C36206   3.689   2.320   0.992  0.0721  0.0983 -0.1671
  269MOL0     C36207   3.560   2.324   1.043  0.2145  0.5292 -0.2850
  269MOL0     C36208   3.541   2.276   1.190  0.5463 -0.0429 -0.0946
  269MOL0     C36209   3.461   2.384   0.963  0.4058 -0.2975  0.6182
  269MOL0     C36210   3.327   2.417   1.003  0.0006 -0.2569 -0.2212
  269MOL0     O36211   3.272   2.517   0.930 -0.6924  0.2951 -0.5484
  269MOL0     C36212   3.152   2.580   0.959  1.0794 -0.2672 -0.7482
  269MOL0     C36213   3.044   2.543   1.047  0.2443 -0.1237 -0.7559
  269MOL0     C36214   2.926   2.622   1.052  0.2382  0.0650 -0.3214
  269MOL0     C36215   2.911   2.734   0.969  0.0558  0.0099 -0.4357
  269MOL0     O36216   2.791   2.806   0.977  0.1405 -0.1918  0.0683
  269MOL0     C36217   2.787   2.919   1.069  1.3328 -0.0118  0.0091
  269MOL0     C36218   2.694   3.016   0.999 -0.6434  0.1260 -0.0326
  269MOL0     C36219   2.756   3.094   0.885  0.4796 -0.5369  0.0085
  269MOL0     C36220   2.646   3.169   0.813  0.3341 -1.1079 -0.7342
  269MOL0     C36221   2.684   3.290   0.722 -0.2177 -0.3916 -0.4224
  269MOL0     C36222   2.762   3.230   0.609 -0.5229  0.7156 -1.2260
  269MOL0     C36223   2.669   3.151   0.506  0.1195  0.3744  0.9176
  269MOL0     C36224   2.712   3.179   0.364 -0.6088  0.3449 -0.1260
  269MOL0    Cl36225   2.727   3.356   0.328 -0.2363  0.2657  0.3151
  269MOL0     C36226   3.019   2.777   0.894 -0.2380  0.5223  0.3677
  269MOL0     C36227   3.135   2.696   0.879  0.2201 -1.2002 -0.5251
  269MOL0     O36228   3.272   2.367   1.101  0.2692  0.4473  0.1486
  269MOL0     C36229   3.503   2.418   0.829  0.4499 -1.1542 -0.2452
  269MOL0     C36230   3.630   2.409   0.785 -0.9404  0.3418 -0.0010
  269MOL0     N36231   4.308   2.185   0.743  0.3224  0.5936  0.4732
  269MOL0     N36232   4.332   2.064   0.784 -1.0985 -0.7071  0.3837
  269MOL0     C36233   5.524   1.992   0.855 -0.1505  0.6041 -0.1869
  269MOL0     C36234   5.662   1.981   0.880  0.2238 -0.2071 -0.2222
  269MOL0     C36235   6.057   1.910   1.129 -0.2334  0.6009  0.2981
  269MOL0     C36236   6.154   1.940   1.230  0.1886 -0.1624  0.5199
  269MOL0     C36237   6.280   1.870   1.232  0.5732  0.0106 -0.2318
  269MOL0     C36238   6.308   1.775   1.133 -0.2883  0.1481 -0.6222
  269MOL0     O36239   6.433   1.710   1.127  0.3712 -0.1940 -0.4296
  269MOL0     C36240   6.560   1.756   1.178  0.5527 -0.0357 -0.9115
  269MOL0     C36241   6.650   1.648   1.241  0.2395 -0.0768  1.3563
  269MOL0     C36242   6.597   1.577   1.373  0.5009 -0.6561  0.3849
  269MOL0     C36243   6.706   1.507   1.455  0.3140  0.0972 -0.2042
  269MOL0     C36244   6.807   1.597   1.517 -0.3181 -0.2124 -0.3149
  269MOL0     C36245   6.881   1.679   1.577 -0.2366 -0.0618 -0.2103
  269MOL0     C36246   6.221   1.757   1.033 -0.4404  0.1208  0.3419
  269MOL0     C36247   6.098   1.816   1.028  0.1263  0.3393  0.5988
  269MOL0     H36248   5.671   1.988   1.230  0.9692 -0.4968 -0.2637
  269MOL0     H36249   5.422   1.988   1.190  3.1024 -1.3967  1.2957
  269MOL0     H36250   5.206   2.012   1.127 -1.2792 -0.6503 -0.4755
  269MOL0     H36251   5.267   2.163   1.044  1.5727 -0.5132  0.0376
  269MOL0     H36252   5.038   2.181   0.996 -0.3396  0.4967 -1.6735
  269MOL0     H36253   5.088   2.088   0.862 -0.7249  1.0626 -0.1236
  269MOL0     H36254   5.031   1.885   1.001 -3.3551 -1.7682  1.2690
  269MOL0     H36255   4.960   1.991   1.120  5.3854  3.2204  1.6170
  269MOL0     H36256   4.823   2.089   0.924 -1.4025  0.5663  0.6270
  269MOL0     H36257   4.861   1.942   0.834  2.5274  2.1007 -0.1313
  269MOL0     H36258   4.739   1.801   0.993 -3.2976 -0.6654 -0.5839
  269MOL0     H36259   4.730   1.920   1.117 -2.0695  1.7317 -0.0667
  269MOL0     H36260   4.596   2.053   0.922  3.0607  0.5261  0.7965
  269MOL0     H36261   4.564   1.876   0.874  0.6620 -3.6428  1.9209
  269MOL0     H36262   4.487   1.822   1.102  0.2515  0.3685 -0.3004
  269MOL0     H36263   4.503   1.995   1.138  3.8434  0.1592 -0.5559
  269MOL0     H36264   4.284   1.966   1.093  0.1572 -2.1634 -0.7033
  269MOL0     H36265   4.307   1.866   0.947 -0.9979 -1.4437  1.4862
  269MOL0     H36266   4.337   2.227   1.067 -2.3150  1.6552  0.4291
  269MOL0     H36267   4.333   2.473   0.915  5.1826 -3.0514 -0.3390
  269MOL0     H36268   4.312   2.447   0.739 -0.9412 -2.9209 -0.5438
  269MOL0     H36269   4.103   2.533   0.861  0.6194 -0.7462 -0.5800
  269MOL0     H36270   4.098   2.359   0.927  4.1627 -5.3712 -2.3911
  269MOL0     H36271   4.056   2.262   0.712 -0.0604  0.0646 -0.1230
  269MOL0     H36272   4.093   2.418   0.631 -0.0471 -1.4869 -0.9247
  269MOL0     H36273   3.857   2.355   0.636  2.3600 -0.7187 -0.7928
  269MOL0     H36274   3.897   2.506   0.711  1.1321 -0.2240 -0.2659
  269MOL0     H36275   3.755   2.280   1.068  0.4129  0.1896 -0.4110
  269MOL0     H36276   3.604   2.189   1.212 -0.4537 -0.5566  0.8288
  269MOL0     H36277   3.573   2.360   1.253 -0.0523 -0.9466  1.4982
  269MOL0     H36278   3.440   2.251   1.223  0.8118 -1.2072 -0.1105
  269MOL0     H36279   3.045   2.451   1.104 -0.6081  0.0857 -0.3785
  269MOL0     H36280   2.852   2.596   1.126  1.9276  0.5868  1.6430
  269MOL0     H36281   2.745   2.889   1.165  1.1392  0.4448  0.0745
  269MOL0     H36282   2.884   2.969   1.072  1.4669 -0.1246 -1.5319
  269MOL0     H36283   2.617   2.956   0.950  1.2823 -1.7138 -0.9506
  269MOL0     H36284   2.643   3.084   1.067  0.5403 -0.3571  1.3885
  269MOL0     H36285   2.804   3.027   0.813  2.8249 -0.6867  1.6091
  269MOL0     H36286   2.836   3.160   0.920 -0.7629  0.5617  0.8709
  269MOL0     H36287   2.579   3.101   0.758 -2.9305 -0.3145  1.9117
  269MOL0     H36288   2.583   3.211   0.892  2.5483  0.3446  0.3558
  269MOL0     H36289   2.750   3.356   0.780 -0.8517 -0.2578  0.1603
  269MOL0     H36290   2.599   3.350   0.689 -0.7450 -1.5533 -1.2467
  269MOL0     H36291   2.815   3.313   0.561 -2.0410  1.7284 -1.2002
  269MOL0     H36292   2.847   3.167   0.640  0.3682  1.8822 -1.2327
  269MOL0     H36293   2.563   3.178   0.516 -0.2487 -0.4059 -0.5930
  269MOL0     H36294   2.678   3.045   0.530 -3.7239 -0.1875  0.4492
  269MOL0     H36295   2.647   3.141   0.284  0.7226 -0.3454 -0.9339
  269MOL0     H36296   2.810   3.136   0.341 -0.6563 -0.5010  1.1780
  269MOL0     H36297   3.006   2.869   0.839  2.0826  1.6842  1.6353
  269MOL0     H36298   3.218   2.728   0.817 -0.5515  1.1424 -0.4528
  269MOL0     H36299   3.435   2.473   0.765  0.1434  0.7332  1.5778
  269MOL0     H36300   3.642   2.442   0.682  3.1195 -1.2980 -0.2566
  269MOL0     H36301   5.480   2.001   0.757 -0.2784  0.6775 -0.1234
  269MOL0     H36302   5.720   1.970   0.790  1.8440  0.5740  0.6877
  269MOL0     H36303   6.156   2.028   1.293 -2.4938 -0.2840  0.9292
  269MOL0     H36304   6.340   1.874   1.323 -2.5775  2.9602  1.9704
  269MOL0     H36305   6.623   1.815   1.111  2.5074 -0.8479  0.1376
  269MOL0     H36306   6.528   1.824   1.258 -3.8388  0.7234 -3.0141
  269MOL0     H36307   6.746   1.694   1.266  0.9079  0.0696 -1.1919
  269MOL0     H36308   6.675   1.580   1.159  0.4558 -1.0689  2.2263
  269MOL0     H36309   6.523   1.501   1.348 -0.7721  0.0740  1.7882
  269MOL0     H36310   6.545   1.652   1.434 -0.4534  0.1535 -1.3477
  269MOL0     H36311   6.758   1.432   1.395  2.2302  0.4103  0.9619
  269MOL0     H36312   6.659   1.457   1.540 -0.6594  2.6989  0.9109
  269MOL0     H36313   6.941   1.755   1.624  0.7062 -1.5145  0.9934
  269MOL0     H36314   6.245   1.679   0.961 -1.3743 -0.4007  0.5718
  269MOL0     H36315   6.027   1.785   0.952  1.2101  1.0278 -0.7486
  270MOL0     O36316   0.448   3.323   0.436  0.3946  0.2715 -0.4026
  270MOL0     C36317   0.468   3.432   0.486  0.9097  0.2706 -0.0652
  270MOL0     O36318   0.371   3.504   0.555 -0.2776  0.1553 -0.8300
  270MOL0     C36319   0.238   3.469   0.566 -0.1395 -0.2181 -0.1246
  270MOL0     C36320   0.167   3.386   0.479  0.6829 -0.2187  0.4546
  270MOL0     C36321   0.026   3.385   0.490 -0.1024 -0.5189 -0.3719
  270MOL0     C36322  -0.047   3.457   0.577 -0.1551  0.7910 -0.3914
  270MOL0     O36323  -0.180   3.441   0.568  0.0943 -0.1280  0.0126
  270MOL0     C36324  -0.262   3.542   0.622  0.4985 -0.6547  0.5796
  270MOL0     C36325  -0.411   3.515   0.611  0.2101  0.3019 -0.4324
  270MOL0     C36326  -0.496   3.629   0.674  0.1445  0.1263  0.2765
  270MOL0     C36327  -0.639   3.638   0.620 -0.3268 -0.3309 -1.1109
  270MOL0     C36328  -0.649   3.681   0.478 -0.8042 -0.1425  0.7035
  270MOL0     C36329  -0.797   3.728   0.447 -0.1349  1.1250  0.4491
  270MOL0     C36330  -0.826   3.727   0.294  0.8531  0.4525 -0.6132
  270MOL0     C36331  -0.956   3.791   0.276  0.2711 -0.1744 -0.1589
  270MOL0     N36332  -1.066   3.718   0.341 -0.4785 -0.2943  0.4326
  270MOL0     C36333  -1.126   3.607   0.279 -0.1274  0.3849  0.5781
  270MOL0     C36334  -1.213   3.561   0.368 -0.0706 -0.4549 -0.4602
  270MOL0     C36335  -1.312   3.443   0.364 -0.1445  0.8087 -0.1304
  270MOL0     C36336  -1.415   3.425   0.474  0.3412 -1.2426  0.0257
  270MOL0     C36337  -1.441   3.273   0.498 -0.6002 -0.4429 -0.4056
  270MOL0     C36338  -1.530   3.253   0.619 -0.9329 -0.0601 -0.7072
  270MOL0     O36339  -1.663   3.262   0.571 -0.1454 -0.6940 -0.3108
  270MOL0     C36340  -1.753   3.164   0.592 -0.1478  0.0198 -0.8517
  270MOL0     C36341  -1.752   3.068   0.701 -0.3346 -0.5280  0.3206
  270MOL0     C36342  -1.836   2.968   0.704 -0.1950  0.3810  0.1721
  270MOL0     C36343  -1.822   2.867   0.819  0.6592  0.0723 -0.7994
  270MOL0     C36344  -1.942   2.953   0.614 -0.5491 -1.3048 -0.4702
  270MOL0     C36345  -2.045   2.846   0.623 -0.8452  0.0144  1.4236
  270MOL0     O36346  -2.089   2.803   0.506 -0.0740 -0.4082 -0.2793
  270MOL0     C36347  -2.193   2.708   0.486 -0.4603 -0.4070 -1.2148
  270MOL0     C36348  -2.174   2.611   0.385  0.1919  0.3200  0.2246
  270MOL0     C36349  -2.257   2.497   0.375 -0.1009 -0.6225  0.1326
  270MOL0     C36350  -2.367   2.491   0.458  0.5601 -0.0514  0.0347
  270MOL0     O36351  -2.455   2.381   0.460  0.0674 -0.2886 -0.9021
  270MOL0     C36352  -2.475   2.293   0.347 -0.4027  0.3620 -0.6190
  270MOL0     C36353  -2.591   2.195   0.376  0.0578 -0.3165 -0.2097
  270MOL0     C36354  -2.591   2.140   0.518 -0.0216 -0.3139 -0.7793
  270MOL0     C36355  -2.717   2.058   0.560 -0.2928 -0.3404  0.1793
  270MOL0     C36356  -2.689   2.014   0.706  0.1723  0.2466 -0.4451
  270MOL0     C36357  -2.805   1.936   0.768 -0.1418 -0.4771 -0.2312
  270MOL0     C36358  -2.785   1.907   0.917 -0.4607  0.0747  0.7165
  270MOL0     C36359  -2.888   1.799   0.965 -0.1641 -0.1295  0.4887
  270MOL0    Cl36360  -3.055   1.873   0.970  0.0203 -0.5379 -0.4943
  270MOL0     C36361  -2.396   2.590   0.544 -0.5873 -1.1430 -1.1353
  270MOL0     C36362  -2.318   2.703   0.558 -0.4956  0.3317  0.1115
  270MOL0     O36363  -2.073   2.795   0.729 -0.5709 -0.4571 -0.7954
  270MOL0     C36364  -1.951   3.049   0.513 -0.6612 -0.3623  0.4885
  270MOL0     C36365  -1.854   3.149   0.494 -0.0500 -0.8819 -0.8057
  270MOL0     N36366  -1.207   3.642   0.477  0.4992  0.3438  0.2298
  270MOL0     N36367  -1.116   3.731   0.464  0.3646 -0.3930 -0.7947
  270MOL0     C36368   0.026   3.535   0.668  0.4838  0.1263 -0.6755
  270MOL0     C36369   0.166   3.548   0.653  0.1435 -0.7036 -1.0355
  270MOL0     C36370   0.610   3.490   0.488  0.8656  0.5208 -0.0509
  270MOL0     C36371   0.717   3.453   0.397 -0.5359  0.2878 -0.1065
  270MOL0     C36372   0.845   3.520   0.414  0.1458  0.4694 -0.8492
  270MOL0     C36373   0.864   3.625   0.504 -0.6108  0.0545 -0.2118
  270MOL0     O36374   0.979   3.699   0.523  0.3117  0.1619 -0.1300
  270MOL0     C36375   1.107   3.660   0.457  0.2410  0.2551 -0.1063
  270MOL0     C36376   1.207   3.641   0.567 -0.8665 -0.0563 -0.5666
  270MOL0     C36377   1.337   3.726   0.551  1.2634  0.2805 -0.5921
  270MOL0     C36378   1.409   3.680   0.423 -0.3470 -0.4187  0.0732
  270MOL0     C36379   1.532   3.753   0.406 -0.0930  0.4436 -0.0935
  270MOL0     C36380   1.635   3.798   0.397 -0.0376  0.2730 -0.3435
  270MOL0     C36381   0.755   3.670   0.575  0.0355 -0.1451 -0.6061
  270MOL0     C36382   0.630   3.607   0.560 -0.2561  0.5990 -0.2084
  270MOL0     H36383   0.199   3.334   0.389  0.2435  4.7590 -2.9879
  270MOL0     H36384  -0.017   3.334   0.405  2.0762  1.6820 -3.0098
  270MOL0     H36385  -0.237   3.556   0.728 -1.6678  1.4246  0.9163
  270MOL0     H36386  -0.237   3.633   0.567  3.5454 -2.3399 -1.0661
  270MOL0     H36387  -0.430   3.510   0.504  1.5225 -3.4715 -0.6372
  270MOL0     H36388  -0.435   3.417   0.653  0.0471  0.9471  1.0560
  270MOL0     H36389  -0.498   3.614   0.782  0.5809  3.8460  0.9482
  270MOL0     H36390  -0.437   3.721   0.663 -0.6638  0.5497 -0.7126
  270MOL0     H36391  -0.681   3.539   0.638 -0.8396  0.2006  0.8934
  270MOL0     H36392  -0.685   3.715   0.683  0.1949  0.3516 -1.5481
  270MOL0     H36393  -0.583   3.767   0.462  1.8415 -2.3465 -1.1685
  270MOL0     H36394  -0.611   3.609   0.405 -2.9070 -1.3325  0.6855
  270MOL0     H36395  -0.867   3.650   0.477 -1.4756  2.2805  0.4393
  270MOL0     H36396  -0.814   3.824   0.497  0.8453  1.4662  0.1545
  270MOL0     H36397  -0.748   3.767   0.228 -0.3158  0.1490 -2.2327
  270MOL0     H36398  -0.849   3.625   0.263  2.5951  0.4774 -2.1209
  270MOL0     H36399  -0.976   3.809   0.170  0.1393 -0.9727 -0.2793
  270MOL0     H36400  -0.945   3.888   0.324  1.6365  0.7951 -2.2852
  270MOL0     H36401  -1.106   3.557   0.184  0.4806  1.4067  0.1520
  270MOL0     H36402  -1.367   3.453   0.270 -1.9296  2.7619  1.0188
  270MOL0     H36403  -1.251   3.353   0.352 -1.8618 -0.0015 -3.9293
  270MOL0     H36404  -1.507   3.481   0.454  1.9039  1.4944 -0.0697
  270MOL0     H36405  -1.365   3.455   0.566  0.1276 -1.8893  0.3572
  270MOL0     H36406  -1.341   3.233   0.520  0.6344 -0.1099 -4.5401
  270MOL0     H36407  -1.478   3.230   0.405 -1.0035 -0.5937 -0.1763
  270MOL0     H36408  -1.520   3.327   0.699  3.2931 -1.5739  0.3951
  270MOL0     H36409  -1.506   3.155   0.661 -3.2622  0.3234  1.8270
  270MOL0     H36410  -1.678   3.084   0.779  2.1930  0.8030 -2.1651
  270MOL0     H36411  -1.904   2.890   0.889 -0.5130 -1.4037 -1.6153
  270MOL0     H36412  -1.841   2.768   0.777 -1.6488  2.3689 -6.0394
  270MOL0     H36413  -1.724   2.865   0.868 -0.6427 -3.0168  2.0787
  270MOL0     H36414  -2.099   2.621   0.307 -2.1362  2.0509 -1.9313
  270MOL0     H36415  -2.239   2.415   0.306  0.3868  1.6194 -2.6142
  270MOL0     H36416  -2.487   2.357   0.259  0.1746  0.6085 -0.5248
  270MOL0     H36417  -2.380   2.239   0.337  1.7430  4.0648 -2.1702
  270MOL0     H36418  -2.684   2.248   0.354 -0.1122  0.7063  2.5415
  270MOL0     H36419  -2.579   2.108   0.312 -0.6317 -0.7205  0.1991
  270MOL0     H36420  -2.581   2.225   0.586 -1.9955 -0.8435  0.2308
  270MOL0     H36421  -2.498   2.085   0.537 -0.8753 -1.8136 -0.7947
  270MOL0     H36422  -2.806   2.121   0.566  0.7317  1.0907  0.9110
  270MOL0     H36423  -2.724   1.979   0.484  1.5016 -0.6520  0.2967
  270MOL0     H36424  -2.665   2.100   0.769  1.6093 -1.6037  1.7219
  270MOL0     H36425  -2.602   1.949   0.716  0.1984  0.4434  0.7994
  270MOL0     H36426  -2.898   1.994   0.771  0.6914  0.8717  0.6682
  270MOL0     H36427  -2.813   1.843   0.712 -3.4800  0.5644 -1.7666
  270MOL0     H36428  -2.802   2.004   0.963  0.5410  1.0216 -0.8250
  270MOL0     H36429  -2.681   1.879   0.937 -0.9163 -1.8785  0.5580
  270MOL0     H36430  -2.871   1.714   0.898  1.3304  0.2050  0.4065
  270MOL0     H36431  -2.857   1.761   1.063  0.9628 -2.9438 -0.8248
  270MOL0     H36432  -2.482   2.579   0.609  1.7524 -3.2149  1.9100
  270MOL0     H36433  -2.344   2.782   0.629 -2.1880 -0.2314  0.1651
  270MOL0     H36434  -2.033   3.031   0.444  0.5645 -0.8468 -0.8897
  270MOL0     H36435  -1.841   3.223   0.416 -1.2755  0.3861  0.1438
  270MOL0     H36436  -0.026   3.593   0.744  0.1497  0.0471 -0.8460
  270MOL0     H36437   0.224   3.613   0.718  0.1319 -0.3510 -1.3711
  270MOL0     H36438   0.710   3.364   0.334 -0.4833 -1.3095  2.0324
  270MOL0     H36439   0.923   3.480   0.350 -0.4333 -0.7815 -0.7968
  270MOL0     H36440   1.093   3.566   0.403 -2.5321  1.4827 -1.7713
  270MOL0     H36441   1.126   3.735   0.380 -1.8635 -0.0494 -1.0030
  270MOL0     H36442   1.223   3.535   0.587 -2.5584 -0.4029 -0.8406
  270MOL0     H36443   1.157   3.676   0.657  0.0847  1.3921 -0.5715
  270MOL0     H36444   1.402   3.708   0.638 -0.4896 -0.9327  0.5354
  270MOL0     H36445   1.329   3.835   0.549  1.7331  0.3117 -0.9974
  270MOL0     H36446   1.352   3.710   0.335 -2.3236 -0.8638  1.1559
  270MOL0     H36447   1.422   3.572   0.411 -0.3918 -0.4830  0.6057
  270MOL0     H36448   1.739   3.823   0.400 -0.3063  2.3043 -3.4136
  270MOL0     H36449   0.763   3.753   0.644  0.9376  0.4393 -1.3864
  270MOL0     H36450   0.558   3.652   0.629 -1.8024  0.2531 -1.5268
  271MOL0     O36451   1.881   7.777   2.968 -0.3562  0.7226 -0.2569
  271MOL0     C36452   1.857   7.885   2.921  0.2552 -0.7442 -0.3925
  271MOL0     O36453   1.726   7.942   2.926 -0.4531 -0.2282 -0.5358
  271MOL0     C36454   1.629   7.864   2.977  0.6021  0.0828 -0.3311
  271MOL0     C36455   1.532   7.792   2.907  0.3102 -0.1173 -0.4149
  271MOL0     C36456   1.449   7.701   2.976  0.4730  0.2120  0.1427
  271MOL0     C36457   1.458   7.687   3.114  0.6270  0.4681 -0.8151
  271MOL0     O36458   1.373   7.588   3.164  0.2373  0.3279  0.2757
  271MOL0     C36459   1.415   7.522   3.284 -0.1132  0.7255  0.1900
  271MOL0     C36460   1.412   7.363   3.274  0.3178  0.4089  0.4458
  271MOL0     C36461   1.268   7.314   3.244 -0.2984  0.2319 -0.0113
  271MOL0     C36462   1.253   7.161   3.253  0.4826 -0.1907  0.3050
  271MOL0     C36463   1.109   7.117   3.295 -0.4079  0.6890 -0.9492
  271MOL0     C36464   1.003   7.152   3.186 -0.1601  0.6627 -0.8356
  271MOL0     C36465   0.862   7.154   3.239 -0.1364  0.2968  0.3219
  271MOL0     C36466   0.824   7.030   3.325 -0.6741  0.2069 -0.1207
  271MOL0     N36467   0.678   7.045   3.357 -0.6005 -0.8776  0.2113
  271MOL0     C36468   0.620   7.127   3.451  0.9316  0.5823  0.3097
  271MOL0     C36469   0.486   7.122   3.437  0.0586 -0.7049  0.2539
  271MOL0     C36470   0.394   7.208   3.516 -0.0910  0.8694 -0.1462
  271MOL0     C36471   0.295   7.122   3.581 -0.2575  0.3247 -0.5319
  271MOL0     C36472   0.219   7.189   3.695 -0.2207  0.2666  0.2184
  271MOL0     C36473   0.102   7.082   3.722  0.9556 -0.6598  0.5163
  271MOL0     O36474   0.013   7.071   3.606  0.5141 -0.5327 -0.6560
  271MOL0     C36475  -0.115   7.124   3.639 -0.8712  0.0540 -0.5134
  271MOL0     C36476  -0.226   7.053   3.594 -0.5684  0.2760 -0.3603
  271MOL0     C36477  -0.351   7.089   3.626  0.0155 -0.0830  0.0881
  271MOL0     C36478  -0.452   6.994   3.574  0.3407  0.2976  0.6688
  271MOL0     C36479  -0.375   7.204   3.702  0.5904  0.4497  0.5669
  271MOL0     C36480  -0.507   7.249   3.753 -0.1540  0.0024  0.4674
  271MOL0     O36481  -0.528   7.378   3.728  0.1435 -0.1982  0.9295
  271MOL0     C36482  -0.651   7.417   3.770 -0.6006 -0.8034  0.2452
  271MOL0     C36483  -0.769   7.396   3.695  0.0705  0.6612  0.4639
  271MOL0     C36484  -0.895   7.437   3.741 -0.2776 -0.8325  0.3120
  271MOL0     C36485  -0.907   7.500   3.869 -0.0436  1.1318  0.6734
  271MOL0     O36486  -1.024   7.527   3.938  0.3860 -0.0055 -0.1218
  271MOL0     C36487  -1.128   7.422   3.920 -0.7629  0.2561 -0.6034
  271MOL0     C36488  -1.218   7.419   4.045 -0.3144 -0.8114 -0.9421
  271MOL0     C36489  -1.305   7.304   4.038  0.1775  0.9397  0.0177
  271MOL0     C36490  -1.404   7.293   4.150  0.6224 -0.2648 -0.2556
  271MOL0     C36491  -1.462   7.146   4.162 -0.5328 -0.6888 -0.1750
  271MOL0     C36492  -1.560   7.130   4.274 -0.4034 -0.2995 -0.1809
  271MOL0     C36493  -1.506   7.092   4.412 -0.8874  0.3588  0.1077
  271MOL0     C36494  -1.482   6.944   4.437 -0.2400 -0.2755 -1.0505
  271MOL0    Cl36495  -1.413   6.924   4.605 -0.0554 -0.0425 -0.1438
  271MOL0     C36496  -0.796   7.529   3.945 -0.5657  0.3905  0.0786
  271MOL0     C36497  -0.673   7.489   3.894 -0.6919 -0.3495 -0.6861
  271MOL0     O36498  -0.591   7.174   3.792 -0.3118  0.2045 -1.0168
  271MOL0     C36499  -0.262   7.284   3.718  0.1972 -0.4241  0.4739
  271MOL0     C36500  -0.131   7.244   3.698  0.2513  0.1245 -0.7325
  271MOL0     N36501   0.456   7.020   3.341  0.1030 -1.0939 -0.1882
  271MOL0     N36502   0.570   6.977   3.301 -0.1778  0.8655 -0.6977
  271MOL0     C36503   1.540   7.772   3.191  0.3451  1.0741 -0.4035
  271MOL0     C36504   1.622   7.859   3.119 -0.3430 -0.5017  0.1859
  271MOL0     C36505   1.968   7.950   2.844  0.4720 -0.4896 -0.8485
  271MOL0     C36506   2.076   7.878   2.793 -0.3145  0.1898 -0.3381
  271MOL0     C36507   2.170   7.944   2.717  0.1015  0.0690 -1.0555
  271MOL0     C36508   2.171   8.083   2.706 -0.5405  0.5338  0.1507
  271MOL0     O36509   2.259   8.152   2.631 -0.7137 -0.0241 -0.2450
  271MOL0     C36510   2.380   8.180   2.695 -0.1190 -0.5160  0.4598
  271MOL0     C36511   2.357   8.299   2.787  0.2126  0.2315  0.1204
  271MOL0     C36512   2.488   8.382   2.811  0.6253 -0.0475  0.1285
  271MOL0     C36513   2.543   8.467   2.696  0.7483  0.0757  0.4426
  271MOL0     C36514   2.685   8.493   2.710 -0.2933  0.2204 -0.4735
  271MOL0     C36515   2.805   8.510   2.703 -0.2017  0.2688 -0.7719
  271MOL0     C36516   2.068   8.156   2.756 -0.0696 -1.0358 -1.5852
  271MOL0     C36517   1.971   8.091   2.828  0.5634  0.2909 -0.9070
  271MOL0     H36518   1.526   7.800   2.799  3.4426  2.1541 -0.5604
  271MOL0     H36519   1.386   7.635   2.918  0.7979  2.8116 -3.5091
  271MOL0     H36520   1.520   7.550   3.297  0.4484 -1.3269  0.5167
  271MOL0     H36521   1.356   7.548   3.373  0.0536  0.5520  0.3527
  271MOL0     H36522   1.479   7.340   3.191  0.3744 -1.3405  0.9301
  271MOL0     H36523   1.456   7.310   3.359  1.7165 -1.1916 -1.1968
  271MOL0     H36524   1.215   7.372   3.320  0.1484  0.9185 -0.2165
  271MOL0     H36525   1.236   7.359   3.150 -3.2390  0.1414  0.8194
  271MOL0     H36526   1.285   7.109   3.162  0.8840 -0.5749  0.6631
  271MOL0     H36527   1.322   7.141   3.336  2.3508  0.9469 -0.8840
  271MOL0     H36528   1.113   7.008   3.301  4.7332  0.6646 -0.4239
  271MOL0     H36529   1.091   7.157   3.395  1.1131 -0.1481 -0.3124
  271MOL0     H36530   1.016   7.257   3.157 -0.3899  0.3849 -2.0069
  271MOL0     H36531   1.007   7.092   3.095  2.4725 -1.6881  0.6985
  271MOL0     H36532   0.827   7.248   3.283  0.4703  0.5221  0.3470
  271MOL0     H36533   0.813   7.150   3.142 -1.9786  1.4275  1.1579
  271MOL0     H36534   0.879   7.028   3.420 -1.9146  3.1691  0.7519
  271MOL0     H36535   0.831   6.933   3.274 -1.3444  0.0744  0.0299
  271MOL0     H36536   0.660   7.170   3.542 -2.7567 -1.7778  3.3202
  271MOL0     H36537   0.445   7.252   3.602 -1.1960 -0.6186  1.3250
  271MOL0     H36538   0.330   7.277   3.460 -0.5233  0.6616  0.0840
  271MOL0     H36539   0.339   7.031   3.623  0.9065  2.1491  2.5386
  271MOL0     H36540   0.221   7.102   3.503 -0.2729 -0.4613 -0.3205
  271MOL0     H36541   0.185   7.289   3.666 -0.0807  0.3121  0.2102
  271MOL0     H36542   0.272   7.207   3.788  1.2316  0.5031 -0.6326
  271MOL0     H36543   0.044   7.108   3.811 -0.6853 -1.5851 -0.2286
  271MOL0     H36544   0.153   6.987   3.740  4.0076  0.5529 -0.9412
  271MOL0     H36545  -0.213   6.962   3.537 -1.6022  0.7291 -1.3470
  271MOL0     H36546  -0.462   6.913   3.647  0.2117  2.3797  3.0872
  271MOL0     H36547  -0.540   7.054   3.550  1.0679  0.7529 -1.0256
  271MOL0     H36548  -0.424   6.954   3.476  3.2863  3.8513 -0.1510
  271MOL0     H36549  -0.759   7.345   3.600  0.5577  2.8003 -0.6871
  271MOL0     H36550  -0.977   7.410   3.676  0.4431 -2.7003  0.1351
  271MOL0     H36551  -1.185   7.440   3.828 -1.3984  1.9028  0.0839
  271MOL0     H36552  -1.073   7.327   3.916  0.1003  0.7492 -0.6134
  271MOL0     H36553  -1.153   7.406   4.132 -2.3504 -3.7968  0.2859
  271MOL0     H36554  -1.275   7.512   4.051 -1.2424 -1.3184 -1.6971
  271MOL0     H36555  -1.242   7.214   4.042 -0.2457  0.5811 -1.0083
  271MOL0     H36556  -1.363   7.302   3.946 -0.1046  1.2578  0.1900
  271MOL0     H36557  -1.355   7.321   4.244 -0.0659 -2.2942  0.7757
  271MOL0     H36558  -1.490   7.359   4.133  0.7613 -0.8642 -4.4902
  271MOL0     H36559  -1.386   7.069   4.175 -2.1926 -2.1030  1.7214
  271MOL0     H36560  -1.516   7.131   4.068  2.1880 -2.1512 -1.6286
  271MOL0     H36561  -1.625   7.218   4.273  1.2982  1.0285 -2.3747
  271MOL0     H36562  -1.630   7.048   4.259 -4.8699  2.4596  2.9478
  271MOL0     H36563  -1.586   7.117   4.482 -3.7791 -1.9578 -2.0889
  271MOL0     H36564  -1.416   7.153   4.425 -1.9394  1.9816  0.1221
  271MOL0     H36565  -1.403   6.914   4.368  0.6153  0.8009 -0.5625
  271MOL0     H36566  -1.574   6.887   4.422  0.8816 -2.1329 -1.1697
  271MOL0     H36567  -0.807   7.586   4.037 -1.2024 -0.6287  0.6451
  271MOL0     H36568  -0.580   7.519   3.941 -1.6304  1.1402  0.3187
  271MOL0     H36569  -0.294   7.373   3.772 -0.9930 -0.7195  0.2931
  271MOL0     H36570  -0.051   7.315   3.717  0.0674  1.1312 -3.3304
  271MOL0     H36571   1.547   7.766   3.299 -0.0560 -0.6401 -0.4517
  271MOL0     H36572   1.700   7.910   3.175  0.9039  0.5592 -2.3405
  271MOL0     H36573   2.083   7.772   2.813 -0.5591 -0.3356 -2.6899
  271MOL0     H36574   2.262   7.889   2.699  0.2741 -0.8377  1.9919
  271MOL0     H36575   2.401   8.095   2.761 -0.5263  0.1379  1.4609
  271MOL0     H36576   2.452   8.209   2.618 -1.4951  3.1537  0.3373
  271MOL0     H36577   2.313   8.270   2.883 -2.4991  0.9810 -0.8139
  271MOL0     H36578   2.287   8.369   2.741  1.0737  1.7120  0.9475
  271MOL0     H36579   2.566   8.305   2.812 -1.9157 -2.8475  1.3809
  271MOL0     H36580   2.475   8.435   2.906  0.9242  3.7801 -1.7733
  271MOL0     H36581   2.490   8.562   2.688 -1.2011 -1.0031 -0.1335
  271MOL0     H36582   2.530   8.411   2.603  1.9312 -3.3529  2.1664
  271MOL0     H36583   2.911   8.525   2.699  0.1242 -1.5719 -0.2349
  271MOL0     H36584   2.068   8.263   2.738  2.6542 -0.5742  0.5404
  271MOL0     H36585   1.878   8.142   2.854  1.0271  1.1992 -1.0127
  272MOL0     O36586   0.425   3.784   1.615  0.1655  0.5498  0.3381
  272MOL0     C36587   0.430   3.903   1.597 -0.2516 -0.2490 -0.6652
  272MOL0     O36588   0.328   3.981   1.545  0.1013 -0.3315  0.1043
  272MOL0     C36589   0.198   3.931   1.557 -0.6518 -0.1940 -0.0691
  272MOL0     C36590   0.152   3.825   1.471 -0.5762 -0.7820  0.9532
  272MOL0     C36591   0.017   3.800   1.465  0.6309 -0.1682 -0.0774
  272MOL0     C36592  -0.080   3.885   1.529 -0.8041 -0.8457 -0.6702
  272MOL0     O36593  -0.213   3.858   1.517  0.2597  0.4895  0.2177
  272MOL0     C36594  -0.305   3.937   1.590 -0.3837  0.0217 -0.1221
  272MOL0     C36595  -0.449   3.919   1.536  0.1994 -0.7084  0.3867
  272MOL0     C36596  -0.547   3.994   1.623  0.4640  0.3669 -0.3925
  272MOL0     C36597  -0.684   4.001   1.560  0.7783 -1.0002  0.0663
  272MOL0     C36598  -0.792   4.082   1.654  0.0823 -0.5940  0.6497
  272MOL0     C36599  -0.918   4.103   1.566  0.1690 -0.2252  0.5437
  272MOL0     C36600  -1.038   4.135   1.649 -0.9104  0.4445  0.8171
  272MOL0     C36601  -1.160   4.159   1.561  0.0483  0.0405 -0.6267
  272MOL0     N36602  -1.262   4.210   1.648  0.4743  0.4207  0.9632
  272MOL0     C36603  -1.343   4.130   1.710  0.5457  0.8480  0.0584
  272MOL0     C36604  -1.452   4.200   1.752 -0.2721 -0.2021 -1.0200
  272MOL0     C36605  -1.563   4.146   1.830 -0.0542  0.3409 -0.1651
  272MOL0     C36606  -1.559   4.195   1.973  0.5573 -0.0053 -0.3951
  272MOL0     C36607  -1.630   4.332   2.003  0.7946  0.0016 -0.0716
  272MOL0     C36608  -1.611   4.385   2.144  0.4096 -0.2237 -0.0670
  272MOL0     O36609  -1.689   4.508   2.153  0.1584  0.2829 -0.4403
  272MOL0     C36610  -1.701   4.565   2.279  0.8297 -0.0040  0.0373
  272MOL0     C36611  -1.792   4.674   2.284 -0.4668  0.6085  0.1499
  272MOL0     C36612  -1.817   4.729   2.405  0.1668  0.1288  0.2786
  272MOL0     C36613  -1.920   4.841   2.411  0.6714  0.3938  0.6970
  272MOL0     C36614  -1.752   4.688   2.523 -1.3958 -0.1335  0.5164
  272MOL0     C36615  -1.767   4.748   2.662  0.0757  0.7949 -0.7672
  272MOL0     O36616  -1.729   4.667   2.765 -0.5840  0.3521  0.2750
  272MOL0     C36617  -1.756   4.713   2.891 -0.5400 -0.6666 -0.5483
  272MOL0     C36618  -1.888   4.722   2.934  0.0772  0.2867  0.8420
  272MOL0     C36619  -1.922   4.796   3.041  0.4915  0.7765 -1.5018
  272MOL0     C36620  -1.824   4.841   3.135 -0.1029 -0.2402 -0.6301
  272MOL0     O36621  -1.863   4.892   3.261  0.2609  0.0015  1.0744
  272MOL0     C36622  -1.963   4.814   3.330 -0.7228  0.1439  0.0532
  272MOL0     C36623  -1.914   4.672   3.355 -0.3980  0.0139 -0.0015
  272MOL0     C36624  -2.028   4.592   3.413  0.6605  0.3888 -0.3968
  272MOL0     C36625  -2.083   4.642   3.551  0.3188 -0.0876  0.1450
  272MOL0     C36626  -2.154   4.541   3.646 -0.4607 -0.1109 -0.6866
  272MOL0     C36627  -2.054   4.448   3.721 -0.3514 -0.0332 -0.2561
  272MOL0     C36628  -2.132   4.335   3.799 -0.1629  0.1445 -0.5803
  272MOL0     C36629  -2.034   4.259   3.895 -0.2761 -0.3174 -0.9386
  272MOL0    Cl36630  -2.135   4.166   4.019 -0.0750  0.1028 -0.2029
  272MOL0     C36631  -1.689   4.832   3.095 -0.0062  0.4953  0.3153
  272MOL0     C36632  -1.659   4.775   2.971 -0.1878 -0.2228 -0.4214
  272MOL0     O36633  -1.819   4.851   2.675  0.0405 -0.2071  0.1566
  272MOL0     C36634  -1.649   4.596   2.509  0.5575  0.9092  0.0568
  272MOL0     C36635  -1.622   4.534   2.389 -0.1523 -0.1680 -0.0406
  272MOL0     N36636  -1.440   4.336   1.705 -1.0232  0.5789 -0.0319
  272MOL0     N36637  -1.322   4.335   1.642  0.1584 -0.5981 -0.5390
  272MOL0     C36638  -0.032   3.985   1.616 -0.8314 -0.5937  0.5519
  272MOL0     C36639   0.107   4.009   1.626  0.9557  0.4780  0.7940
  272MOL0     C36640   0.574   3.946   1.626  0.1302  0.6685 -0.6426
  272MOL0     C36641   0.671   3.859   1.681 -0.9945 -0.3679  0.4388
  272MOL0     C36642   0.800   3.900   1.698 -0.3461 -0.4156 -0.0932
  272MOL0     C36643   0.840   4.030   1.664  0.2825 -0.0526  0.0603
  272MOL0     O36644   0.965   4.072   1.687 -0.4222 -0.0867 -0.1217
  272MOL0     C36645   1.068   3.979   1.741  1.1577 -0.5192  0.4501
  272MOL0     C36646   1.198   4.054   1.740  0.0982 -0.1343 -0.6929
  272MOL0     C36647   1.318   3.969   1.794 -0.1110  0.5493  0.1308
  272MOL0     C36648   1.316   3.947   1.945 -0.1765 -0.4499 -0.8870
  272MOL0     C36649   1.443   3.895   1.995  0.3906 -0.1964  0.2288
  272MOL0     C36650   1.549   3.859   2.040  0.0059  0.5512  0.0062
  272MOL0     C36651   0.740   4.111   1.617  0.7227 -0.4607  0.6360
  272MOL0     C36652   0.603   4.074   1.601 -0.6779  0.0760  0.0231
  272MOL0     H36653   0.215   3.779   1.395  0.7310  2.7870 -0.3205
  272MOL0     H36654  -0.013   3.714   1.406  1.0454 -1.8293  2.0244
  272MOL0     H36655  -0.298   3.910   1.696 -1.2287 -1.2585 -0.3715
  272MOL0     H36656  -0.272   4.040   1.574  1.5252 -0.6897 -1.0177
  272MOL0     H36657  -0.452   3.945   1.430 -0.2921 -0.1988  0.5198
  272MOL0     H36658  -0.468   3.812   1.549 -0.3363 -0.7836 -0.8534
  272MOL0     H36659  -0.559   3.951   1.723 -2.9665  1.2911 -0.2677
  272MOL0     H36660  -0.515   4.098   1.637 -0.5439  0.8311 -1.3343
  272MOL0     H36661  -0.669   4.049   1.463  0.5634 -1.4315 -0.1826
  272MOL0     H36662  -0.730   3.904   1.538  1.9934 -1.5589 -0.1016
  272MOL0     H36663  -0.821   4.022   1.741  0.3307 -1.8074 -0.0787
  272MOL0     H36664  -0.749   4.177   1.686  1.7818  0.3831 -3.7535
  272MOL0     H36665  -0.900   4.177   1.487 -0.0401 -1.8174 -1.0828
  272MOL0     H36666  -0.935   4.009   1.513 -1.2383 -0.1762  0.8885
  272MOL0     H36667  -1.056   4.045   1.709 -2.6348 -1.7074 -2.6248
  272MOL0     H36668  -1.020   4.220   1.717  0.9559  0.8429 -0.1136
  272MOL0     H36669  -1.197   4.081   1.495 -1.8155  2.7015 -2.9339
  272MOL0     H36670  -1.135   4.240   1.491 -0.8355 -1.6619 -3.0351
  272MOL0     H36671  -1.343   4.023   1.727  0.8802  0.3243 -2.7486
  272MOL0     H36672  -1.662   4.168   1.790 -1.3055 -1.2243  1.8753
  272MOL0     H36673  -1.539   4.041   1.815  1.5136  0.3160  2.0071
  272MOL0     H36674  -1.461   4.191   2.020 -0.3493 -0.2456  1.5749
  272MOL0     H36675  -1.622   4.126   2.030  0.1766  0.9647  0.3959
  272MOL0     H36676  -1.735   4.306   1.986  0.6109  0.2857  0.5796
  272MOL0     H36677  -1.598   4.413   1.937  2.1114 -0.1094  0.4006
  272MOL0     H36678  -1.507   4.417   2.156 -0.3052  2.5629 -0.5230
  272MOL0     H36679  -1.632   4.307   2.218  0.1774 -1.6812 -1.5928
  272MOL0     H36680  -1.830   4.710   2.188  0.1732  0.0095 -0.3412
  272MOL0     H36681  -1.862   4.934   2.419  0.6571  0.3743  1.0647
  272MOL0     H36682  -1.966   4.855   2.313  1.8932 -2.4327 -0.3805
  272MOL0     H36683  -1.986   4.836   2.498 -0.1596  0.7356  0.0904
  272MOL0     H36684  -1.975   4.689   2.878 -0.5295  5.3804 -1.8074
  272MOL0     H36685  -2.028   4.811   3.059  0.1660 -2.1649 -0.3902
  272MOL0     H36686  -1.976   4.866   3.425  2.5127 -0.2532  0.8309
  272MOL0     H36687  -2.065   4.830   3.293  0.2157  0.3774 -2.7383
  272MOL0     H36688  -1.894   4.621   3.260  0.5327  0.2891  0.0348
  272MOL0     H36689  -1.820   4.664   3.411  0.8073 -3.4891 -2.1466
  272MOL0     H36690  -1.997   4.487   3.419 -1.5140 -0.2390  0.5683
  272MOL0     H36691  -2.116   4.587   3.348  0.4697  1.5013 -0.2423
  272MOL0     H36692  -1.996   4.689   3.596  0.2558  3.2438 -2.7385
  272MOL0     H36693  -2.162   4.717   3.533 -0.2382 -0.9996 -1.4295
  272MOL0     H36694  -2.225   4.473   3.597 -0.9688 -0.8261  0.9891
  272MOL0     H36695  -2.213   4.595   3.720  0.0752 -0.1177 -0.2564
  272MOL0     H36696  -1.995   4.399   3.642  1.0278 -1.1242  1.3879
  272MOL0     H36697  -1.989   4.497   3.794 -3.2073 -2.6645  4.5816
  272MOL0     H36698  -2.166   4.266   3.721  2.0649  1.7434 -3.1439
  272MOL0     H36699  -2.226   4.367   3.844 -1.0240 -1.0937 -1.4086
  272MOL0     H36700  -1.985   4.339   3.952 -3.6938  0.2926  1.4751
  272MOL0     H36701  -1.960   4.194   3.848  0.2736 -0.7591  0.4883
  272MOL0     H36702  -1.605   4.876   3.149  0.3530 -1.6701  1.6842
  272MOL0     H36703  -1.559   4.785   2.931 -0.3680 -1.4948 -1.2506
  272MOL0     H36704  -1.584   4.565   2.590  2.9877  0.4959 -1.9073
  272MOL0     H36705  -1.547   4.456   2.384 -3.9868 -4.1510 -3.6864
  272MOL0     H36706  -0.094   4.058   1.668 -1.7331  2.7479 -4.4635
  272MOL0     H36707   0.143   4.093   1.684 -0.2571  1.0001  0.8219
  272MOL0     H36708   0.653   3.753   1.697  1.8977 -0.6004  3.1499
  272MOL0     H36709   0.877   3.831   1.732 -0.1036 -0.8781 -1.5202
  272MOL0     H36710   1.047   3.929   1.836  0.2544 -1.1793 -0.0786
  272MOL0     H36711   1.088   3.906   1.662  1.7578 -0.4145  0.5040
  272MOL0     H36712   1.184   4.143   1.802  0.3333 -0.7415  0.2638
  272MOL0     H36713   1.223   4.083   1.638 -2.5417  0.0841 -1.3370
  272MOL0     H36714   1.415   4.018   1.776  0.7141 -0.6411  1.1885
  272MOL0     H36715   1.330   3.877   1.735 -0.4330  0.5851  0.0111
  272MOL0     H36716   1.240   3.872   1.965 -2.1110  1.5409 -0.4192
  272MOL0     H36717   1.288   4.039   1.998  1.0874 -0.2438 -0.5388
  272MOL0     H36718   1.629   3.815   2.097 -1.5560 -1.7813  0.5284
  272MOL0     H36719   0.751   4.219   1.609 -0.3063 -0.3009  1.1634
  272MOL0     H36720   0.522   4.144   1.581 -0.5612 -0.2077 -1.6021
  273MOL0     O36721   7.769   8.094  10.201 -0.0636  0.5835 -0.5652
  273MOL0     C36722   7.831   8.100  10.094 -0.2946 -0.1405 -0.6911
  273MOL0     O36723   7.780   8.131   9.971  0.8844 -0.4682  0.2991
  273MOL0     C36724   7.648   8.167   9.965  0.4561  0.4563  0.5384
  273MOL0     C36725   7.605   8.277   9.890  0.6604 -0.1374  0.4174
  273MOL0     C36726   7.466   8.308   9.874  0.2651 -0.9319  0.0581
  273MOL0     C36727   7.368   8.237   9.948  0.4460  0.2903  1.3222
  273MOL0     O36728   7.233   8.254   9.921 -0.0081 -0.6053  0.3451
  273MOL0     C36729   7.189   8.266   9.783 -0.2484 -0.2402  0.7568
  273MOL0     C36730   7.042   8.247   9.767 -0.1323 -1.7477 -0.7159
  273MOL0     C36731   6.982   8.382   9.820  0.1043 -0.6377 -0.1821
  273MOL0     C36732   6.829   8.370   9.849  0.7753  0.1150  0.2149
  273MOL0     C36733   6.768   8.497   9.894 -0.3959 -1.2479 -0.6408
  273MOL0     C36734   6.617   8.488   9.886 -0.1981  0.4711 -0.3043
  273MOL0     C36735   6.559   8.624   9.922 -0.3534 -0.7582  0.4905
  273MOL0     C36736   6.403   8.622   9.915 -0.4671 -0.2033  0.0897
  273MOL0     N36737   6.349   8.739   9.975 -0.0687 -0.9099  1.1982
  273MOL0     C36738   6.301   8.853   9.906 -0.2353 -0.5238  0.9563
  273MOL0     C36739   6.229   8.921   9.999  0.3538  0.9502 -0.7010
  273MOL0     C36740   6.158   9.051   9.993  0.9534 -0.0908 -0.2108
  273MOL0     C36741   6.021   9.043   9.936 -0.1806  0.7818 -0.8707
  273MOL0     C36742   5.931   9.171   9.917  0.7331  0.0773  0.5586
  273MOL0     C36743   5.780   9.152   9.953  0.1098 -0.4979  0.1134
  273MOL0     O36744   5.709   9.278   9.928  0.1492 -0.3455 -0.1802
  273MOL0     C36745   5.567   9.286   9.914  0.4643  0.8108  1.3340
  273MOL0     C36746   5.488   9.173   9.885  0.8399 -0.0296  0.1377
  273MOL0     C36747   5.354   9.190   9.849 -0.5650 -0.9961 -0.8583
  273MOL0     C36748   5.283   9.060   9.804  0.8493  0.1290 -0.2042
  273MOL0     C36749   5.287   9.310   9.869 -0.1876  0.4439  0.5961
  273MOL0     C36750   5.134   9.315   9.854 -0.2939 -0.3904 -0.3268
  273MOL0     O36751   5.085   9.448   9.835 -0.0530  0.4269  0.1650
  273MOL0     C36752   4.955   9.474   9.811  0.1017  0.1888  0.1796
  273MOL0     C36753   4.848   9.384   9.781  0.6621 -0.4911  0.3548
  273MOL0     C36754   4.723   9.434   9.734 -0.6458  0.5162 -0.8125
  273MOL0     C36755   4.695   9.570   9.729 -0.2503  0.6997  0.7315
  273MOL0     O36756   4.565   9.617   9.700 -0.3250  0.3142  0.0578
  273MOL0     C36757   4.453   9.526   9.711 -0.4217  0.2065  0.1614
  273MOL0     C36758   4.331   9.609   9.691  0.5510 -0.2414 -0.0769
  273MOL0     C36759   4.199   9.510   9.725 -0.2504  1.1425  0.7689
  273MOL0     C36760   4.075   9.591   9.692 -0.8664 -0.5375 -0.2109
  273MOL0     C36761   3.951   9.499   9.717 -0.0406  0.0854 -0.6367
  273MOL0     C36762   3.947   9.372   9.628  0.4296 -0.4251  0.7351
  273MOL0     C36763   3.817   9.287   9.630  0.0632  0.0630 -0.2258
  273MOL0     C36764   3.700   9.372   9.573  0.0002 -0.6112 -0.8256
  273MOL0    Cl36765   3.542   9.277   9.593 -0.0164  0.1328 -0.4828
  273MOL0     C36766   4.799   9.660   9.763  0.0321  0.1869 -0.7826
  273MOL0     C36767   4.923   9.612   9.814 -0.8746 -0.2253 -0.2964
  273MOL0     O36768   5.063   9.222   9.895  0.1080 -0.2456 -0.2954
  273MOL0     C36769   5.363   9.418   9.900  0.1127 -0.2715 -0.3769
  273MOL0     C36770   5.502   9.410   9.910  0.2874 -0.5157 -0.0528
  273MOL0     N36771   6.242   8.856  10.121  0.1673  0.1256 -0.2354
  273MOL0     N36772   6.324   8.752  10.113  0.7765 -0.1065  0.7534
  273MOL0     C36773   7.409   8.143  10.032 -0.1631  0.6284 -0.4060
  273MOL0     C36774   7.542   8.107  10.040 -0.1864  0.5933 -0.1260
  273MOL0     C36775   7.974   8.063  10.112  0.4427  0.3452  0.1503
  273MOL0     C36776   8.047   8.066  10.227  0.8140  0.7023  0.0279
  273MOL0     C36777   8.187   8.034  10.240  0.6143  0.5716  0.6032
  273MOL0     C36778   8.247   7.969  10.132 -0.1266  0.2819  0.0714
  273MOL0     O36779   8.372   7.912  10.153  0.3602 -0.0644 -0.3406
  273MOL0     C36780   8.430   7.835  10.047 -0.6234 -0.0793  0.0239
  273MOL0     C36781   8.581   7.794  10.094  0.1725 -0.0902 -0.2709
  273MOL0     C36782   8.641   7.705   9.982 -0.3364 -0.2639  0.2127
  273MOL0     C36783   8.783   7.666  10.019  0.0741 -0.3665  0.3346
  273MOL0     C36784   8.882   7.770  10.007  0.2813  0.1334  0.3062
  273MOL0     C36785   8.985   7.834  10.009 -0.4782 -0.4888  0.5564
  273MOL0     C36786   8.169   7.963  10.013  0.6562 -0.2663 -0.3246
  273MOL0     C36787   8.035   8.006  10.006 -0.2375  0.6447 -0.1027
  273MOL0     H36788   7.684   8.335   9.843  2.0990 -2.0018  0.4347
  273MOL0     H36789   7.455   8.397   9.814  0.9279  1.1786  2.8576
  273MOL0     H36790   7.220   8.362   9.740 -2.4178 -0.0745 -0.5631
  273MOL0     H36791   7.241   8.192   9.723 -1.7069  1.9214 -3.5705
  273MOL0     H36792   7.015   8.232   9.662  1.3910  2.7723 -1.9823
  273MOL0     H36793   7.007   8.157   9.819 -2.0058 -1.4207 -1.3293
  273MOL0     H36794   7.026   8.405   9.917  0.9304  0.5364 -0.8138
  273MOL0     H36795   7.000   8.462   9.747 -1.0451 -0.4980 -0.3327
  273MOL0     H36796   6.781   8.332   9.758  1.2921 -2.7701  1.0221
  273MOL0     H36797   6.813   8.290   9.922 -0.6890  0.5740  0.4076
  273MOL0     H36798   6.810   8.507   9.994  1.2551 -4.0255 -0.9594
  273MOL0     H36799   6.804   8.577   9.828 -0.1015 -1.2566 -0.4952
  273MOL0     H36800   6.590   8.458   9.784  1.7087 -3.1220  0.0576
  273MOL0     H36801   6.581   8.414   9.958 -1.6299  1.3963 -0.0282
  273MOL0     H36802   6.605   8.652  10.017  2.2560 -1.4477 -0.4988
  273MOL0     H36803   6.571   8.694   9.839 -4.0584  0.0772  0.4569
  273MOL0     H36804   6.364   8.542   9.978  0.2591 -1.9804 -1.6192
  273MOL0     H36805   6.361   8.615   9.814  0.3058  3.6343 -0.6660
  273MOL0     H36806   6.311   8.881   9.801 -0.4161  0.7741  1.2645
  273MOL0     H36807   6.157   9.092  10.094  2.6604 -2.2952  0.7878
  273MOL0     H36808   6.219   9.117   9.931  2.1209  2.3175  3.1629
  273MOL0     H36809   5.966   8.979  10.006  1.4933 -1.2928 -1.3730
  273MOL0     H36810   6.023   8.990   9.841  1.4959 -3.1028  1.1262
  273MOL0     H36811   5.937   9.193   9.810  0.1655  0.9311  0.6930
  273MOL0     H36812   5.975   9.245   9.985  0.3516 -1.9823  3.2123
  273MOL0     H36813   5.768   9.124  10.058  1.1066 -0.4080  0.2591
  273MOL0     H36814   5.736   9.073   9.891  2.0007  0.9621 -3.3586
  273MOL0     H36815   5.526   9.071   9.884  2.7590  0.6502 -0.5745
  273MOL0     H36816   5.358   8.987   9.775  0.1768 -0.0685 -1.5564
  273MOL0     H36817   5.225   9.017   9.886  0.0640  0.1543 -0.7337
  273MOL0     H36818   5.221   9.071   9.714  0.2447 -1.0621  0.0505
  273MOL0     H36819   4.865   9.279   9.801 -5.1118 -1.4689  1.9450
  273MOL0     H36820   4.642   9.363   9.723  0.3869 -0.7222 -0.6881
  273MOL0     H36821   4.465   9.450   9.633 -1.1301  1.5884 -1.3505
  273MOL0     H36822   4.451   9.471   9.805  2.3218  1.6227  1.1624
  273MOL0     H36823   4.325   9.692   9.762 -4.2854 -0.2840 -0.1137
  273MOL0     H36824   4.329   9.647   9.589  1.5592  0.4877  0.1602
  273MOL0     H36825   4.195   9.473   9.828 -1.6322  1.3761  0.8129
  273MOL0     H36826   4.213   9.426   9.657  0.1243  3.0757 -1.6904
  273MOL0     H36827   4.077   9.675   9.762 -0.3442 -1.1018  0.4721
  273MOL0     H36828   4.072   9.637   9.593  0.5166  0.9349  0.4009
  273MOL0     H36829   3.861   9.556   9.695 -0.0734 -0.2121 -1.2778
  273MOL0     H36830   3.923   9.469   9.818  0.0104  0.5348 -0.4849
  273MOL0     H36831   3.988   9.398   9.531 -2.0519 -0.1211 -0.3039
  273MOL0     H36832   4.012   9.302   9.682  0.9687  0.1464  0.8357
  273MOL0     H36833   3.800   9.250   9.732  0.2000 -0.6675 -0.4637
  273MOL0     H36834   3.838   9.200   9.568  2.5235 -0.1453  0.7863
  273MOL0     H36835   3.711   9.401   9.469  2.4369  1.2927 -0.1334
  273MOL0     H36836   3.684   9.459   9.638 -2.2334  0.1355 -2.2703
  273MOL0     H36837   4.777   9.766   9.768 -0.1833  0.0865  2.4371
  273MOL0     H36838   5.009   9.677   9.827  0.6872 -2.5467  1.8084
  273MOL0     H36839   5.317   9.514   9.921 -0.8051 -0.7294 -0.2311
  273MOL0     H36840   5.569   9.493   9.928  2.2780 -2.1115  0.2606
  273MOL0     H36841   7.334   8.086  10.085  1.2403 -0.3137  0.6389
  273MOL0     H36842   7.568   8.023  10.103  0.3078  0.9568  0.1711
  273MOL0     H36843   7.994   8.102  10.315  0.6983  3.6657 -1.1359
  273MOL0     H36844   8.240   8.043  10.334 -1.2985 -0.4072  1.8439
  273MOL0     H36845   8.372   7.748  10.015 -0.4390 -0.9781  1.9947
  273MOL0     H36846   8.447   7.898   9.959  0.1877 -1.8656 -1.1623
  273MOL0     H36847   8.574   7.740  10.189 -0.7868 -2.4907 -1.6096
  273MOL0     H36848   8.640   7.881  10.124 -0.3040 -0.2148  1.0721
  273MOL0     H36849   8.640   7.765   9.891  1.7239  0.7744  0.7991
  273MOL0     H36850   8.577   7.617   9.973  0.1238 -0.6909  0.9540
  273MOL0     H36851   8.819   7.581   9.960  0.4258 -2.2224  3.0269
  273MOL0     H36852   8.778   7.627  10.121 -1.0565  3.1753  1.7718
  273MOL0     H36853   9.075   7.892  10.006 -0.1761 -0.8822  1.5479
  273MOL0     H36854   8.223   7.926   9.926 -1.3764 -0.5594 -1.5249
  273MOL0     H36855   7.979   7.996   9.913 -3.1799 -0.5464  1.6580
  274MOL0     O36856   5.068   6.109   6.675 -0.0822 -0.4335 -0.7557
  274MOL0     C36857   5.107   6.134   6.787 -0.5487 -0.1294 -0.6216
  274MOL0     O36858   5.022   6.156   6.900 -0.6780  0.0706  0.1964
  274MOL0     C36859   4.891   6.163   6.888  0.0582  0.3199  0.2359
  274MOL0     C36860   4.810   6.067   6.962 -0.2538  0.4797 -0.0626
  274MOL0     C36861   4.674   6.071   6.959 -1.1615  0.2428 -0.3707
  274MOL0     C36862   4.604   6.161   6.875  0.5163 -0.5827 -1.2354
  274MOL0     O36863   4.466   6.165   6.862  0.2333 -0.0711 -0.0696
  274MOL0     C36864   4.401   6.227   6.972 -0.3862  0.1940 -0.6910
  274MOL0     C36865   4.391   6.380   6.968 -0.8531 -0.0416 -0.6602
  274MOL0     C36866   4.301   6.443   7.076  0.2221  0.2540  0.4442
  274MOL0     C36867   4.272   6.596   7.055  0.3521  0.2773 -0.1076
  274MOL0     C36868   4.190   6.659   7.170  0.2618  0.3840  0.0698
  274MOL0     C36869   4.179   6.819   7.174 -0.0494  0.9705 -0.3115
  274MOL0     C36870   4.099   6.859   7.298  0.2696  0.3695  0.0416
  274MOL0     C36871   3.947   6.823   7.292 -0.0446 -0.5000 -0.3459
  274MOL0     N36872   3.865   6.868   7.406 -0.2719  0.2840 -1.2365
  274MOL0     C36873   3.849   6.988   7.470  0.5114 -0.1776  0.8263
  274MOL0     C36874   3.755   6.966   7.569 -1.0877 -0.3873 -0.5288
  274MOL0     C36875   3.693   7.049   7.670 -0.1917  0.5684  0.7192
  274MOL0     C36876   3.581   6.978   7.750  0.2038 -0.6073 -0.3994
  274MOL0     C36877   3.630   6.887   7.862 -0.3667  0.9646 -0.2661
  274MOL0     C36878   3.511   6.821   7.925 -0.5949 -0.8774 -0.4328
  274MOL0     O36879   3.426   6.916   7.993  0.3552  0.2691 -0.1932
  274MOL0     C36880   3.311   6.869   8.042  0.2184  0.5961  0.0112
  274MOL0     C36881   3.212   6.956   8.061  0.1909  0.0680 -0.0049
  274MOL0     C36882   3.081   6.922   8.112  0.0986 -0.1310  0.2084
  274MOL0     C36883   2.979   7.038   8.128  0.0245 -0.3421 -0.0343
  274MOL0     C36884   3.056   6.785   8.130 -0.5653  0.1173  0.8039
  274MOL0     C36885   2.928   6.729   8.177 -0.6006  0.1452  0.5820
  274MOL0     O36886   2.931   6.640   8.279 -0.2079 -0.3504 -0.3144
  274MOL0     C36887   2.813   6.590   8.326  1.0079 -0.1996  0.1301
  274MOL0     C36888   2.734   6.506   8.237  0.7875 -0.8158  0.6261
  274MOL0     C36889   2.613   6.456   8.270  0.6719  0.4807  0.0337
  274MOL0     C36890   2.562   6.469   8.396  0.3861  0.1222 -1.3425
  274MOL0     O36891   2.443   6.414   8.438 -0.2998  0.2505 -0.2739
  274MOL0     C36892   2.350   6.365   8.341 -0.3945 -0.0915  0.1879
  274MOL0     C36893   2.211   6.331   8.389  0.9420  0.3160 -0.2971
  274MOL0     C36894   2.133   6.246   8.277 -0.2873 -0.2552 -0.6562
  274MOL0     C36895   1.973   6.259   8.285 -0.4548  0.2062 -0.0472
  274MOL0     C36896   1.911   6.169   8.179 -0.3596  0.2766  0.3728
  274MOL0     C36897   1.763   6.147   8.206  0.0410 -0.0469 -0.4435
  274MOL0     C36898   1.697   6.065   8.097 -0.4726 -0.3590 -0.0237
  274MOL0     C36899   1.723   6.121   7.959  0.2110  0.2319 -0.1530
  274MOL0    Cl36900   1.578   6.086   7.856 -0.1950  0.5401 -0.0641
  274MOL0     C36901   2.645   6.532   8.488  0.4182 -0.9094 -0.1088
  274MOL0     C36902   2.768   6.596   8.458  0.2435  0.1208  0.0367
  274MOL0     O36903   2.824   6.784   8.133  0.1519  0.0201  0.2457
  274MOL0     C36904   3.155   6.695   8.107 -0.1064  1.4356  0.2097
  274MOL0     C36905   3.279   6.734   8.061  0.2884 -0.8715  0.9110
  274MOL0     N36906   3.723   6.834   7.565 -0.1298 -0.1542  0.5192
  274MOL0     N36907   3.794   6.774   7.474 -0.0602 -0.2066 -0.0558
  274MOL0     C36908   4.674   6.243   6.793 -0.2513  0.1688  0.9955
  274MOL0     C36909   4.819   6.255   6.804 -0.1251  0.6915  0.2057
  274MOL0     C36910   5.252   6.156   6.806  1.1824  0.3544 -0.1425
  274MOL0     C36911   5.308   6.162   6.940 -0.4943  0.4398 -0.5674
  274MOL0     C36912   5.449   6.199   6.950  0.4803  1.1664 -0.4834
  274MOL0     C36913   5.520   6.220   6.841 -0.1497  0.5576  0.8484
  274MOL0     O36914   5.652   6.253   6.842 -0.5483  0.0296 -0.1294
  274MOL0     C36915   5.724   6.249   6.963 -0.3039 -0.2772 -0.6809
  274MOL0     C36916   5.874   6.274   6.930 -0.0492 -0.2806  0.0267
  274MOL0     C36917   5.930   6.186   6.810 -0.0293  0.4495 -0.2437
  274MOL0     C36918   6.070   6.226   6.767  0.1076 -0.2560 -0.3616
  274MOL0     C36919   6.073   6.356   6.694  0.2678 -0.2348  0.2500
  274MOL0     C36920   6.059   6.453   6.630  0.2152 -0.7410 -0.3000
  274MOL0     C36921   5.466   6.213   6.714 -0.1482  0.4121 -0.9998
  274MOL0     C36922   5.331   6.181   6.694 -0.2012 -0.6406  0.0752
  274MOL0     H36923   4.851   5.981   7.014 -2.3635 -2.1505 -2.4684
  274MOL0     H36924   4.628   5.998   7.026  0.6457 -2.5190 -1.9558
  274MOL0     H36925   4.299   6.189   6.984  0.6104 -1.8244  2.7939
  274MOL0     H36926   4.443   6.187   7.064  1.8724  3.0397 -0.3507
  274MOL0     H36927   4.493   6.421   6.964 -0.4106 -1.2078 -3.8342
  274MOL0     H36928   4.352   6.408   6.870 -0.0291  0.9260 -0.7263
  274MOL0     H36929   4.205   6.392   7.086  0.2181  0.2214  0.2365
  274MOL0     H36930   4.353   6.428   7.171 -0.2832  1.5452  0.9489
  274MOL0     H36931   4.370   6.642   7.036  0.8422 -0.8251 -0.3598
  274MOL0     H36932   4.207   6.597   6.967 -1.0497  2.2334  0.8961
  274MOL0     H36933   4.089   6.617   7.168 -0.0731  1.1651 -2.3652
  274MOL0     H36934   4.233   6.630   7.267 -2.0807 -0.4393  0.9210
  274MOL0     H36935   4.277   6.869   7.176 -0.8699  2.6519  0.1152
  274MOL0     H36936   4.124   6.853   7.086  1.3356  0.6121 -1.3575
  274MOL0     H36937   4.133   6.819   7.394 -2.0053  1.3803  1.3568
  274MOL0     H36938   4.104   6.968   7.302  2.7604  0.5163 -2.7571
  274MOL0     H36939   3.933   6.715   7.280  0.5236 -0.5651 -0.4838
  274MOL0     H36940   3.900   6.866   7.203 -1.6218 -1.6178 -0.0952
  274MOL0     H36941   3.905   7.074   7.436 -1.4625  0.7702 -0.2091
  274MOL0     H36942   3.756   7.087   7.750 -1.7706  1.3341  1.6451
  274MOL0     H36943   3.651   7.134   7.615  2.8600  1.6941 -0.0584
  274MOL0     H36944   3.513   6.926   7.682 -0.5369 -1.8619  1.2354
  274MOL0     H36945   3.529   7.055   7.806 -1.2557 -2.6821  1.2708
  274MOL0     H36946   3.705   6.929   7.930  0.8211  0.0505 -0.9737
  274MOL0     H36947   3.690   6.811   7.813  0.3036  1.2104  0.1539
  274MOL0     H36948   3.549   6.743   7.992 -0.1478  0.3077  0.7452
  274MOL0     H36949   3.452   6.779   7.844 -0.0841  0.1615 -1.3811
  274MOL0     H36950   3.224   7.060   8.031 -1.6418 -0.3952 -2.7553
  274MOL0     H36951   2.911   7.014   8.210  0.5428  1.1845  0.8873
  274MOL0     H36952   3.025   7.130   8.165  0.2801 -1.0300  1.4745
  274MOL0     H36953   2.926   7.056   8.034 -0.1159  3.0865  0.5992
  274MOL0     H36954   2.769   6.506   8.134  2.0241  0.7468  1.0041
  274MOL0     H36955   2.562   6.411   8.186  0.0113  2.6790 -0.8240
  274MOL0     H36956   2.358   6.428   8.252  4.1252 -0.1878  0.2860
  274MOL0     H36957   2.391   6.267   8.316  1.6171  1.3432 -2.7398
  274MOL0     H36958   2.216   6.263   8.475  0.1557 -1.1810 -1.3942
  274MOL0     H36959   2.140   6.413   8.406 -2.7691 -2.8127  0.6150
  274MOL0     H36960   2.163   6.142   8.289  1.0770  0.0121 -1.5658
  274MOL0     H36961   2.171   6.281   8.181  0.2873  2.7933  0.5528
  274MOL0     H36962   1.946   6.233   8.387 -2.1921  0.8740 -0.3152
  274MOL0     H36963   1.942   6.363   8.271 -1.0060  0.2755  1.4871
  274MOL0     H36964   1.955   6.069   8.182  0.9389  0.8456  2.3000
  274MOL0     H36965   1.918   6.209   8.078  0.1669  0.3820  0.4486
  274MOL0     H36966   1.735   6.100   8.301 -0.1830  2.4817  0.8040
  274MOL0     H36967   1.716   6.245   8.195 -2.2843 -1.2098 -2.1033
  274MOL0     H36968   1.589   6.071   8.114 -1.0413 -1.2278 -2.8654
  274MOL0     H36969   1.720   5.958   8.103 -2.8599 -0.8764  1.7581
  274MOL0     H36970   1.811   6.083   7.907  0.5332  0.9827 -0.1619
  274MOL0     H36971   1.745   6.228   7.967 -1.1743  0.4658  1.2200
  274MOL0     H36972   2.613   6.533   8.592 -0.4834 -1.1028 -0.3831
  274MOL0     H36973   2.829   6.645   8.532  0.9527  0.9103 -1.0407
  274MOL0     H36974   3.140   6.589   8.126 -1.8502  1.1158 -2.3576
  274MOL0     H36975   3.348   6.652   8.046  2.1339  0.2954  2.6381
  274MOL0     H36976   4.626   6.290   6.707  3.7453  0.2620 -1.4485
  274MOL0     H36977   4.878   6.325   6.743 -1.6862  1.6697 -0.2379
  274MOL0     H36978   5.257   6.140   7.033  0.6713  0.7860  0.1816
  274MOL0     H36979   5.493   6.205   7.049  3.0668 -3.2808 -1.1157
  274MOL0     H36980   5.692   6.321   7.039 -3.2046  2.8157 -4.4260
  274MOL0     H36981   5.723   6.144   6.992  0.9359 -1.0140 -3.0194
  274MOL0     H36982   5.938   6.241   7.012  0.9951  1.7470  0.0898
  274MOL0     H36983   5.887   6.382   6.922 -2.6991  0.3552  2.5463
  274MOL0     H36984   5.867   6.193   6.721  1.3921 -0.5265 -1.3810
  274MOL0     H36985   5.925   6.084   6.850  0.6365  1.8349  3.7964
  274MOL0     H36986   6.115   6.147   6.706 -1.2186 -0.5273 -1.0333
  274MOL0     H36987   6.124   6.223   6.862 -2.2595  0.9825  1.1199
  274MOL0     H36988   6.051   6.545   6.575 -0.1899 -1.5271 -1.6183
  274MOL0     H36989   5.531   6.237   6.631 -0.4893  1.5145 -0.9701
  274MOL0     H36990   5.290   6.184   6.594 -0.2224 -1.6876  0.0507
  275MOL0     O36991  10.056   8.486   5.091  0.2980 -0.0722  0.0609
  275MOL0     C36992  10.040   8.379   5.158  0.1127  0.1973  0.8554
  275MOL0     O36993   9.921   8.324   5.198 -0.1669  0.4223  0.1398
  275MOL0     C36994   9.795   8.378   5.175 -0.2685 -0.4555  0.2524
  275MOL0     C36995   9.753   8.484   5.088  0.2608  0.2225  0.4607
  275MOL0     C36996   9.624   8.530   5.085 -1.2706 -0.1396 -0.5128
  275MOL0     C36997   9.528   8.474   5.165  0.6055  0.2627 -0.4639
  275MOL0     O36998   9.402   8.536   5.156  0.3388  0.4192 -0.1940
  275MOL0     C36999   9.305   8.487   5.253  0.3821 -0.2838 -0.1990
  275MOL0     C37000   9.244   8.357   5.200  0.6962 -0.1713  0.9911
  275MOL0     C37001   9.141   8.299   5.303 -0.5521  0.8564 -0.3606
  275MOL0     C37002   9.051   8.190   5.231  0.3030 -0.2878  0.2869
  275MOL0     C37003   8.962   8.233   5.111 -0.4037 -0.1412  0.3631
  275MOL0     C37004   8.845   8.330   5.140  0.3063 -0.8563 -0.8306
  275MOL0     C37005   8.731   8.284   5.230  0.5769 -0.6153 -0.1110
  275MOL0     C37006   8.628   8.206   5.146 -0.2089  0.8686 -0.0303
  275MOL0     N37007   8.536   8.146   5.244  0.4002 -0.4271  0.7686
  275MOL0     C37008   8.440   8.221   5.310 -0.0661  0.0876 -0.1528
  275MOL0     C37009   8.377   8.132   5.393 -0.5727  0.9404  0.5938
  275MOL0     C37010   8.269   8.162   5.489  0.4989 -0.5452 -0.1814
  275MOL0     C37011   8.126   8.178   5.430  0.0417 -0.0692  0.4467
  275MOL0     C37012   8.029   8.251   5.520  0.0398  0.0468 -0.0100
  275MOL0     C37013   7.983   8.174   5.644 -0.1583 -0.4708  0.2520
  275MOL0     O37014   7.879   8.234   5.719 -0.3807  0.0787  1.0461
  275MOL0     C37015   7.898   8.290   5.841  0.9098  0.0526  1.2041
  275MOL0     C37016   7.789   8.325   5.914 -0.0946 -0.2127 -0.5356
  275MOL0     C37017   7.794   8.382   6.031 -1.2951 -0.1863 -0.8129
  275MOL0     C37018   7.662   8.409   6.108 -0.1483 -0.4064 -0.5736
  275MOL0     C37019   7.925   8.401   6.099  0.7583  0.7008  0.0475
  275MOL0     C37020   7.932   8.458   6.230 -0.1303 -0.4815 -0.0393
  275MOL0     O37021   8.063   8.436   6.288  0.7244 -0.0295  0.4197
  275MOL0     C37022   8.088   8.472   6.422 -0.3295  0.0176  0.6255
  275MOL0     C37023   8.224   8.499   6.447 -0.8138  0.5222 -0.5015
  275MOL0     C37024   8.264   8.518   6.580 -1.2473  1.3487 -0.0263
  275MOL0     C37025   8.171   8.522   6.686 -0.0532  1.2825 -0.6473
  275MOL0     O37026   8.205   8.538   6.821 -0.4070  0.3488  0.4194
  275MOL0     C37027   8.150   8.651   6.889 -0.1863  0.5760  0.0632
  275MOL0     C37028   8.257   8.683   6.994 -0.7720 -0.8467 -0.9635
  275MOL0     C37029   8.364   8.773   6.933 -0.3163  0.1118  0.3039
  275MOL0     C37030   8.479   8.692   6.870  0.2253 -0.0557  0.2492
  275MOL0     C37031   8.602   8.767   6.820  0.6526 -0.7012  1.2939
  275MOL0     C37032   8.712   8.664   6.783 -0.7164  0.0227  0.0049
  275MOL0     C37033   8.795   8.609   6.898 -0.0467 -0.1838 -0.3166
  275MOL0     C37034   8.932   8.561   6.865 -0.1331  0.3970 -0.8436
  275MOL0    Cl37035   8.953   8.459   6.722 -0.0818  0.3847  0.0433
  275MOL0     C37036   8.037   8.490   6.654 -0.2281  0.3818 -0.5626
  275MOL0     C37037   8.000   8.475   6.523  0.5762 -0.3273  0.5731
  275MOL0     O37038   7.845   8.532   6.265 -0.0038 -0.7727 -0.2071
  275MOL0     C37039   8.040   8.366   6.026 -0.3727 -0.0733  0.5857
  275MOL0     C37040   8.029   8.309   5.897  0.4628  0.4337 -0.1533
  275MOL0     N37041   8.450   8.009   5.380  0.6768  1.1909  0.1037
  275MOL0     N37042   8.545   8.025   5.303 -0.3196  0.0807  0.1823
  275MOL0     C37043   9.557   8.364   5.240 -0.2610 -0.0000  0.3047
  275MOL0     C37044   9.691   8.320   5.250 -0.3615  0.3885  0.4709
  275MOL0     C37045  10.170   8.323   5.196  0.3709  0.3256  0.5140
  275MOL0     C37046  10.188   8.241   5.315 -0.0222 -0.3618 -0.8723
  275MOL0     C37047  10.308   8.190   5.366 -0.7935  1.0905 -0.0825
  275MOL0     C37048  10.425   8.206   5.293  0.6827 -0.3826 -0.4309
  275MOL0     O37049  10.548   8.144   5.326  0.4372  0.6434 -0.1428
  275MOL0     C37050  10.565   8.102   5.462 -0.3693 -0.2219  0.3184
  275MOL0     C37051  10.702   8.052   5.504 -0.8001 -0.4240  0.0883
  275MOL0     C37052  10.782   8.177   5.547  0.7602  0.1133  0.5471
  275MOL0     C37053  10.923   8.141   5.584 -0.0419  0.2952  0.2407
  275MOL0     C37054  10.937   8.049   5.695 -0.1664 -0.5686  0.0445
  275MOL0     C37055  10.941   7.960   5.778  0.0878  0.2548 -0.3257
  275MOL0     C37056  10.414   8.283   5.173  0.5252  0.1998  1.1934
  275MOL0     C37057  10.292   8.332   5.123  0.6764 -0.3009  0.0525
  275MOL0     H37058   9.827   8.541   5.032 -1.4968  4.3248  1.9224
  275MOL0     H37059   9.615   8.624   5.031 -0.8771  0.0906 -0.1861
  275MOL0     H37060   9.345   8.481   5.354  1.6661 -0.6363 -0.7098
  275MOL0     H37061   9.220   8.556   5.258  0.2920 -0.4188  0.1352
  275MOL0     H37062   9.204   8.381   5.101  0.0581 -2.5505  0.6158
  275MOL0     H37063   9.313   8.275   5.178 -2.7090 -2.6172 -1.5974
  275MOL0     H37064   9.197   8.249   5.382 -3.2283 -1.2667  0.3481
  275MOL0     H37065   9.070   8.378   5.327 -3.3791 -0.9581 -1.9987
  275MOL0     H37066   9.113   8.103   5.206  0.5099 -0.0751  0.0561
  275MOL0     H37067   8.977   8.152   5.302 -1.1405  1.1955 -0.3822
  275MOL0     H37068   9.021   8.264   5.024 -0.8483 -1.7863 -0.5635
  275MOL0     H37069   8.910   8.145   5.075 -0.7815  0.2559 -0.0766
  275MOL0     H37070   8.880   8.428   5.176  0.4890 -0.6143 -1.6524
  275MOL0     H37071   8.797   8.352   5.044  1.6900 -0.4704 -1.4632
  275MOL0     H37072   8.772   8.225   5.312  2.5919 -0.0595 -0.6669
  275MOL0     H37073   8.685   8.368   5.282 -0.9773 -0.0491 -2.2617
  275MOL0     H37074   8.679   8.135   5.081  2.6063 -0.3405  3.2144
  275MOL0     H37075   8.579   8.285   5.088  0.0836 -0.0039 -1.5081
  275MOL0     H37076   8.413   8.325   5.301 -2.5000 -0.4437  0.3388
  275MOL0     H37077   8.258   8.081   5.562 -0.5971 -0.8158 -0.6225
  275MOL0     H37078   8.298   8.252   5.544  1.7173  1.5406 -3.8373
  275MOL0     H37079   8.092   8.078   5.402 -1.1084  1.4544 -4.7197
  275MOL0     H37080   8.134   8.229   5.334  0.2757  0.6936  0.8597
  275MOL0     H37081   7.948   8.282   5.453 -0.9137 -1.5276  0.3347
  275MOL0     H37082   8.074   8.346   5.547  2.9296  0.0192 -3.9267
  275MOL0     H37083   8.072   8.141   5.699  0.2388 -2.1561 -1.3344
  275MOL0     H37084   7.950   8.082   5.594  2.0565  0.3707 -3.1128
  275MOL0     H37085   7.690   8.310   5.874  0.3162 -0.3030 -1.5592
  275MOL0     H37086   7.583   8.351   6.060 -2.2100  1.7049  0.1057
  275MOL0     H37087   7.657   8.381   6.214  0.6234 -2.7274 -1.0796
  275MOL0     H37088   7.630   8.512   6.097  0.2263 -0.0468  1.3277
  275MOL0     H37089   8.291   8.490   6.363 -0.3162 -1.1417  0.0376
  275MOL0     H37090   8.367   8.544   6.602 -1.7122  2.5113  0.9001
  275MOL0     H37091   8.142   8.730   6.815  0.6379 -0.2475 -0.9430
  275MOL0     H37092   8.056   8.634   6.943  0.0992  2.8664  1.4092
  275MOL0     H37093   8.185   8.738   7.056  0.2915 -1.9837  1.4320
  275MOL0     H37094   8.299   8.594   7.043  0.9614  0.8872  0.9176
  275MOL0     H37095   8.418   8.817   7.017  1.7211  0.6891 -1.2311
  275MOL0     H37096   8.324   8.847   6.864 -0.6585  0.4238  0.8266
  275MOL0     H37097   8.518   8.623   6.946  1.0530  1.5907  1.3835
  275MOL0     H37098   8.435   8.628   6.793 -1.4024  0.1484  0.9782
  275MOL0     H37099   8.643   8.821   6.906  0.5380 -0.4851  1.2142
  275MOL0     H37100   8.589   8.838   6.738  1.5672 -2.2157 -0.2522
  275MOL0     H37101   8.682   8.578   6.722  1.4570  0.4045 -1.7413
  275MOL0     H37102   8.784   8.713   6.716  1.7299 -1.7596  1.1760
  275MOL0     H37103   8.723   8.542   6.946  0.3722 -0.3183  0.1351
  275MOL0     H37104   8.811   8.689   6.971 -1.1977 -1.9305  1.9787
  275MOL0     H37105   8.956   8.503   6.954  0.2174  1.2487 -0.3718
  275MOL0     H37106   9.011   8.638   6.862  0.8048 -0.4935  0.2436
  275MOL0     H37107   7.957   8.481   6.727 -0.8491 -2.1347 -1.4482
  275MOL0     H37108   7.892   8.469   6.521  0.4192  1.0082  2.2142
  275MOL0     H37109   8.136   8.379   6.073 -1.3857  3.2420  2.0598
  275MOL0     H37110   8.119   8.300   5.838  1.6008  1.7337  1.2733
  275MOL0     H37111   9.479   8.318   5.300  0.2911 -0.5640  0.6030
  275MOL0     H37112   9.722   8.239   5.315 -0.0906 -1.4237 -1.7478
  275MOL0     H37113  10.098   8.205   5.365 -0.6258 -0.1994 -1.8201
  275MOL0     H37114  10.296   8.125   5.453  0.2098  1.7994  0.5997
  275MOL0     H37115  10.520   8.176   5.529  1.7795  1.0504  0.4336
  275MOL0     H37116  10.508   8.009   5.478 -2.9445  1.5821  2.6700
  275MOL0     H37117  10.748   7.996   5.423 -0.0645 -1.4200  1.1650
  275MOL0     H37118  10.693   7.988   5.593 -0.4738  1.3726  1.4833
  275MOL0     H37119  10.735   8.211   5.641 -2.1530  2.2638 -1.5024
  275MOL0     H37120  10.783   8.261   5.477 -0.3951 -1.2720 -1.2158
  275MOL0     H37121  10.974   8.233   5.617  1.1057  0.3054 -1.4566
  275MOL0     H37122  10.973   8.094   5.499  2.8108  0.3428  1.7592
  275MOL0     H37123  10.931   7.888   5.856  2.1933 -0.7845 -0.9403
  275MOL0     H37124  10.510   8.298   5.124  0.5330 -2.9993 -0.0680
  275MOL0     H37125  10.301   8.379   5.026 -0.7212 -1.3531 -0.6301
  276MOL0     O37126   8.409   8.826   4.672  0.9372  0.6097 -0.0748
  276MOL0     C37127   8.382   8.838   4.550 -0.1153 -0.4526  0.2909
  276MOL0     O37128   8.261   8.888   4.499  0.7533 -0.6116 -0.6504
  276MOL0     C37129   8.165   8.900   4.592  0.0167  0.3448 -0.7651
  276MOL0     C37130   8.113   9.027   4.617  0.5800 -1.0053  0.7551
  276MOL0     C37131   8.016   9.039   4.713  0.5753  0.1549 -0.0573
  276MOL0     C37132   7.952   8.923   4.769  0.9612 -0.0018  0.3157
  276MOL0     O37133   7.848   8.925   4.858  0.2743  0.8137 -0.5717
  276MOL0     C37134   7.746   9.021   4.842 -0.6143  0.0526 -0.6216
  276MOL0     C37135   7.622   8.988   4.924 -0.2633 -1.2364 -1.0061
  276MOL0     C37136   7.530   9.113   4.922 -0.8756  0.7209  0.0108
  276MOL0     C37137   7.423   9.103   5.035  0.0889  0.4711  0.2803
  276MOL0     C37138   7.299   9.196   5.008 -0.0808  0.2648  0.5987
  276MOL0     C37139   7.197   9.109   4.928 -0.8531 -0.4270  0.1611
  276MOL0     C37140   7.078   9.206   4.890 -0.3993 -0.8879  0.0804
  276MOL0     C37141   6.974   9.126   4.811 -0.1919 -0.1475 -0.0281
  276MOL0     N37142   6.925   8.997   4.881 -0.8366  0.7444  0.3799
  276MOL0     C37143   6.878   8.977   5.008 -0.1128  0.1183 -0.6426
  276MOL0     C37144   6.854   8.839   5.010  0.1410  0.7221  0.0854
  276MOL0     C37145   6.800   8.766   5.128  0.4150  0.3484 -0.1993
  276MOL0     C37146   6.654   8.810   5.171  0.0607 -0.2013 -0.1561
  276MOL0     C37147   6.542   8.777   5.065 -1.0137  0.0381 -0.0159
  276MOL0     C37148   6.425   8.875   5.093  0.2196  0.2795  0.3415
  276MOL0     O37149   6.325   8.869   4.991 -0.3776  0.5342  0.3054
  276MOL0     C37150   6.206   8.926   5.008  0.1634 -0.7360 -0.2711
  276MOL0     C37151   6.201   9.064   5.029  0.7400  0.0980  0.8653
  276MOL0     C37152   6.078   9.133   5.057 -0.5623  0.4330  0.9649
  276MOL0     C37153   6.090   9.285   5.060  0.2596  0.0302 -0.7825
  276MOL0     C37154   5.957   9.054   5.060 -0.3369 -0.7084 -0.4162
  276MOL0     C37155   5.820   9.113   5.062 -0.4187  0.0953  0.4133
  276MOL0     O37156   5.710   9.028   5.089  0.0948  0.0547 -0.2632
  276MOL0     C37157   5.579   9.084   5.075 -0.2344 -0.4544 -0.1892
  276MOL0     C37158   5.485   9.044   5.158  0.6001 -0.8213  0.7450
  276MOL0     C37159   5.348   9.086   5.147  0.1030 -0.1010 -0.1106
  276MOL0     C37160   5.306   9.178   5.043  0.3208  1.1228 -1.1196
  276MOL0     O37161   5.178   9.216   5.020 -0.0583 -0.2071 -0.7730
  276MOL0     C37162   5.170   9.359   5.004  0.5742 -0.3792 -0.6763
  276MOL0     C37163   5.020   9.384   5.011  0.0251  0.8378  0.8009
  276MOL0     C37164   4.952   9.383   5.151 -0.2509  0.0252 -0.2253
  276MOL0     C37165   4.801   9.351   5.147 -0.7322 -0.2599 -0.2564
  276MOL0     C37166   4.756   9.204   5.139  0.6441 -0.2529  0.3910
  276MOL0     C37167   4.814   9.110   5.028  0.6944  0.6067 -0.3502
  276MOL0     C37168   4.758   8.965   5.057 -0.5409 -0.2528 -0.0239
  276MOL0     C37169   4.769   8.901   5.186 -1.1432 -0.1160  1.2149
  276MOL0    Cl37170   4.944   8.875   5.217  0.1681 -0.4974 -0.1865
  276MOL0     C37171   5.406   9.216   4.955 -0.9011 -0.1228 -0.9744
  276MOL0     C37172   5.539   9.164   4.966  0.2625 -0.4319 -0.2413
  276MOL0     O37173   5.811   9.232   5.045  0.3484 -0.1839 -0.0656
  276MOL0     C37174   5.972   8.918   5.035  0.9493 -0.0864  0.2644
  276MOL0     C37175   6.084   8.853   5.008 -0.3406  0.0278  0.0611
  276MOL0     N37176   6.863   8.790   4.885  0.9636  0.0910  0.0823
  276MOL0     N37177   6.905   8.881   4.809 -0.1122 -0.1480 -0.1384
  276MOL0     C37178   8.004   8.800   4.745  0.0934 -0.8983  0.1673
  276MOL0     C37179   8.113   8.785   4.651 -0.6571 -0.2046  0.3023
  276MOL0     C37180   8.492   8.812   4.456  0.8822  0.5513 -0.3624
  276MOL0     C37181   8.622   8.773   4.493 -0.4869 -0.0773 -0.0630
  276MOL0     C37182   8.721   8.752   4.391 -0.2202  0.9788  0.4725
  276MOL0     C37183   8.696   8.780   4.257  0.2759  0.2855 -0.3676
  276MOL0     O37184   8.808   8.781   4.181  0.1365 -0.8320 -0.0440
  276MOL0     C37185   8.803   8.811   4.038  0.2988 -0.3104  0.1363
  276MOL0     C37186   8.943   8.797   3.979  0.3631 -0.2504  0.2077
  276MOL0     C37187   9.016   8.927   3.993  0.2513 -1.1274  0.2916
  276MOL0     C37188   9.164   8.894   3.999 -0.2260  0.6565 -0.4178
  276MOL0     C37189   9.249   9.009   3.978 -0.8592  0.8621 -0.2732
  276MOL0     C37190   9.326   9.091   3.927 -0.3188 -0.8731 -0.6492
  276MOL0     C37191   8.567   8.809   4.225 -0.2684  0.8231  0.1841
  276MOL0     C37192   8.467   8.824   4.319  0.3747 -0.4117 -0.0245
  276MOL0     H37193   8.151   9.113   4.564  0.4753 -0.9782  0.7253
  276MOL0     H37194   7.972   9.136   4.736  0.8537 -0.3386  2.9541
  276MOL0     H37195   7.796   9.111   4.879  1.1302 -0.5573 -1.3722
  276MOL0     H37196   7.720   9.024   4.736  0.9459  1.4076 -1.0073
  276MOL0     H37197   7.578   8.899   4.879  0.5651 -3.0799  1.5865
  276MOL0     H37198   7.654   8.970   5.027 -0.7407  1.1099 -0.3930
  276MOL0     H37199   7.595   9.200   4.934  1.0938 -0.4175 -1.4810
  276MOL0     H37200   7.482   9.122   4.824 -1.7283 -3.0418 -0.0656
  276MOL0     H37201   7.387   9.000   5.045 -1.7689  1.1480  1.1036
  276MOL0     H37202   7.458   9.117   5.138 -1.1144 -0.2564  0.8217
  276MOL0     H37203   7.243   9.213   5.100  0.1137 -0.1407  0.7952
  276MOL0     H37204   7.312   9.292   4.958 -2.0569  0.9519  1.3168
  276MOL0     H37205   7.238   9.078   4.832 -1.4193 -2.6573  0.6007
  276MOL0     H37206   7.174   9.026   4.995  1.6237 -0.4979  1.0197
  276MOL0     H37207   7.023   9.230   4.982 -1.0521  0.3402 -0.5953
  276MOL0     H37208   7.122   9.291   4.836  0.7797  0.0436  2.3518
  276MOL0     H37209   7.021   9.112   4.714  0.0669 -2.3113  0.3718
  276MOL0     H37210   6.882   9.184   4.797  0.0056 -0.1702 -1.6282
  276MOL0     H37211   6.865   9.048   5.089  0.4983 -0.5780  0.0788
  276MOL0     H37212   6.808   8.659   5.111  1.7543 -0.0269  2.2954
  276MOL0     H37213   6.870   8.784   5.210  1.2544  0.9215 -1.0221
  276MOL0     H37214   6.648   8.918   5.187 -2.1700 -0.1767 -0.8618
  276MOL0     H37215   6.632   8.768   5.270 -1.3638  2.3123  0.6728
  276MOL0     H37216   6.498   8.678   5.072 -3.7747  1.1754  0.0835
  276MOL0     H37217   6.588   8.804   4.969 -0.2440  1.1810  0.6500
  276MOL0     H37218   6.453   8.980   5.107  0.6002 -0.0484  2.4026
  276MOL0     H37219   6.368   8.844   5.181 -2.5336  2.1399 -0.6406
  276MOL0     H37220   6.302   9.104   5.024  0.6589  0.1696 -2.4910
  276MOL0     H37221   6.186   9.324   5.025  0.3824 -0.4218 -0.9514
  276MOL0     H37222   6.013   9.325   4.993  0.1402  1.1016 -0.0324
  276MOL0     H37223   6.067   9.320   5.161  1.1937  1.1775 -0.9599
  276MOL0     H37224   5.498   8.965   5.232  1.1330 -1.2862  0.1625
  276MOL0     H37225   5.276   9.044   5.216 -1.0460 -0.9040 -1.7314
  276MOL0     H37226   5.228   9.418   5.076 -0.5690 -0.0172 -0.0345
  276MOL0     H37227   5.202   9.379   4.901  1.7683 -3.6979 -1.0630
  276MOL0     H37228   4.995   9.484   4.974 -1.9431 -0.4425 -1.6032
  276MOL0     H37229   4.970   9.310   4.948  0.1981  0.6439  0.8910
  276MOL0     H37230   4.965   9.476   5.208 -3.0652  1.1040 -1.1539
  276MOL0     H37231   5.007   9.306   5.205 -1.4553 -0.2350  0.6787
  276MOL0     H37232   4.754   9.403   5.231  2.3724  0.0220  1.4721
  276MOL0     H37233   4.765   9.392   5.052  0.5021 -0.5918 -0.8885
  276MOL0     H37234   4.648   9.207   5.119  0.3892 -0.1757  1.7058
  276MOL0     H37235   4.766   9.160   5.239  1.5240 -2.4532 -0.6017
  276MOL0     H37236   4.778   9.147   4.931 -1.9182 -1.9718 -0.4875
  276MOL0     H37237   4.922   9.097   5.037  0.5499 -0.2102  0.2419
  276MOL0     H37238   4.816   8.897   4.995 -0.9792 -1.7761  1.1808
  276MOL0     H37239   4.651   8.963   5.035 -0.3189  1.3528 -1.5174
  276MOL0     H37240   4.731   8.801   5.165 -1.4436  0.4416 -1.2526
  276MOL0     H37241   4.725   8.950   5.273 -4.1993 -0.5386  0.0128
  276MOL0     H37242   5.371   9.275   4.871 -1.9059 -0.0432 -0.5211
  276MOL0     H37243   5.612   9.197   4.892 -0.6542  1.5798 -0.3347
  276MOL0     H37244   5.883   8.858   5.020  1.5776 -0.7389 -1.0400
  276MOL0     H37245   6.092   8.746   4.996 -1.5838  0.0057 -0.8174
  276MOL0     H37246   7.969   8.722   4.811 -1.2158  1.4052  2.3800
  276MOL0     H37247   8.156   8.690   4.623  0.3801  1.1763 -3.5423
  276MOL0     H37248   8.646   8.775   4.599 -1.8048  4.8796  0.3988
  276MOL0     H37249   8.818   8.734   4.435  0.4217  1.4764 -0.6903
  276MOL0     H37250   8.727   8.751   3.987  0.1281 -2.3938  2.6161
  276MOL0     H37251   8.765   8.913   4.033 -1.4828 -0.9051  0.8185
  276MOL0     H37252   8.942   8.773   3.872 -0.8415  1.2702 -0.1601
  276MOL0     H37253   8.990   8.721   4.042  0.2776  0.9651  1.8066
  276MOL0     H37254   8.986   8.989   4.078  0.4247 -0.2745 -0.2517
  276MOL0     H37255   9.011   8.996   3.908  2.6832 -0.7966  0.3514
  276MOL0     H37256   9.184   8.814   3.928 -1.8799  0.0887 -0.2893
  276MOL0     H37257   9.192   8.857   4.097  0.7959  1.0475 -0.5493
  276MOL0     H37258   9.403   9.147   3.878 -1.4449  0.7408 -0.6614
  276MOL0     H37259   8.546   8.819   4.119  2.5713 -0.3130 -0.5848
  276MOL0     H37260   8.372   8.830   4.268 -0.1638 -1.9728  0.7182
  277MOL0     O37261   4.730   3.437  10.021 -0.0025 -0.5378 -0.7010
  277MOL0     C37262   4.789   3.374  10.107 -1.1365  0.4691  0.0547
  277MOL0     O37263   4.748   3.281  10.188 -0.2275 -0.6385  0.7158
  277MOL0     C37264   4.624   3.240  10.157 -0.5612 -0.3909 -0.1847
  277MOL0     C37265   4.608   3.120  10.086  0.5387 -0.3190  0.4979
  277MOL0     C37266   4.481   3.081  10.031 -0.0038  0.6549 -0.4705
  277MOL0     C37267   4.364   3.157  10.070 -0.2135  1.0046  0.0035
  277MOL0     O37268   4.245   3.121  10.023  0.4341  0.1577  0.1180
  277MOL0     C37269   4.222   3.057   9.898  0.1927 -0.0728  0.9311
  277MOL0     C37270   4.088   2.989   9.899  0.0060  0.2031 -0.4995
  277MOL0     C37271   4.055   2.916   9.763 -0.8652 -1.5122  0.7786
  277MOL0     C37272   3.933   2.835   9.767  0.0556  1.1328  0.0733
  277MOL0     C37273   3.896   2.784   9.619 -0.2164 -0.4462  0.6891
  277MOL0     C37274   3.776   2.679   9.622 -0.7029 -0.6541  1.6488
  277MOL0     C37275   3.767   2.593   9.499  0.8977 -0.1624 -0.7182
  277MOL0     C37276   3.892   2.517   9.461 -1.0087 -0.1330  0.6769
  277MOL0     N37277   3.937   2.416   9.567 -0.1240  0.3270  0.3327
  277MOL0     C37278   3.921   2.282   9.561  0.3980 -0.0964 -0.6945
  277MOL0     C37279   3.962   2.234   9.685  0.2216  0.3313 -0.3734
  277MOL0     C37280   3.990   2.088   9.713 -0.1883  0.3643  0.1196
  277MOL0     C37281   3.866   2.018   9.756  0.3156  0.5475 -0.8830
  277MOL0     C37282   3.826   2.063   9.896  0.2903  0.4504 -0.0467
  277MOL0     C37283   3.704   1.992   9.949 -0.1590  0.5594 -0.4621
  277MOL0     O37284   3.591   2.035   9.874 -0.6306  1.1165  0.1174
  277MOL0     C37285   3.466   2.018   9.925 -0.1784 -0.0007  0.4294
  277MOL0     C37286   3.440   1.932  10.030 -0.3390 -0.3830  1.0668
  277MOL0     C37287   3.314   1.939  10.086 -0.1038  0.3122  0.8363
  277MOL0     C37288   3.300   1.832  10.192  0.4604  0.9617  0.4884
  277MOL0     C37289   3.213   2.034  10.047  0.5330 -0.8563  0.6334
  277MOL0     C37290   3.065   2.030  10.074 -0.0639  1.2175  0.4821
  277MOL0     O37291   3.026   1.935  10.166 -0.1899 -0.2488 -0.0348
  277MOL0     C37292   2.903   1.939  10.234  0.8842  0.1992 -0.3157
  277MOL0     C37293   2.901   1.848  10.339  0.0640 -0.5518  0.1851
  277MOL0     C37294   2.784   1.838  10.421  0.1914 -0.6254 -0.3558
  277MOL0     C37295   2.667   1.900  10.389  0.0041  0.3693  0.3852
  277MOL0     O37296   2.552   1.861  10.457 -0.4360  0.2123  0.4061
  277MOL0     C37297   2.435   1.873  10.385 -0.2758 -0.5012  0.3594
  277MOL0     C37298   2.310   1.776  10.431 -0.2454 -0.6785  0.5829
  277MOL0     C37299   2.177   1.787  10.349 -0.6479  0.1839 -0.6881
  277MOL0     C37300   2.079   1.677  10.391 -0.0512  0.0024 -0.2534
  277MOL0     C37301   2.005   1.699  10.526  1.3174  0.3708 -0.0982
  277MOL0     C37302   1.902   1.585  10.535  0.2014 -0.6089 -0.3111
  277MOL0     C37303   1.800   1.620  10.641 -0.0035  0.5172 -0.4115
  277MOL0     C37304   1.694   1.515  10.664 -0.2029  0.0837 -0.3032
  277MOL0    Cl37305   1.586   1.560  10.809 -0.0672  0.5663 -0.1924
  277MOL0     C37306   2.671   2.000  10.289 -0.6846  0.2792 -0.3214
  277MOL0     C37307   2.788   2.025  10.213 -1.1166 -0.0674  0.7953
  277MOL0     O37308   2.991   2.107  10.012 -0.3647  0.4512  0.3536
  277MOL0     C37309   3.247   2.118   9.942 -0.6617 -0.2136  0.3320
  277MOL0     C37310   3.375   2.109   9.881 -0.1450  1.0966  0.4579
  277MOL0     N37311   3.997   2.340   9.758 -0.6348 -0.3900  0.2648
  277MOL0     N37312   3.986   2.453   9.683  0.1979 -0.7443  0.2039
  277MOL0     C37313   4.374   3.272  10.150  0.3179 -0.2369 -0.4835
  277MOL0     C37314   4.498   3.315  10.190 -0.3230  0.1871 -0.2115
  277MOL0     C37315   4.934   3.404  10.121  0.1325 -0.2857 -0.0362
  277MOL0     C37316   5.011   3.335  10.211 -0.2085  0.4101 -0.6533
  277MOL0     C37317   5.155   3.349  10.217  0.5874  0.4018 -0.9272
  277MOL0     C37318   5.220   3.438  10.133  0.0970  0.0902 -0.1076
  277MOL0     O37319   5.358   3.450  10.117 -0.0975  0.9431  0.3380
  277MOL0     C37320   5.444   3.369  10.200  0.2925 -0.6897 -0.0679
  277MOL0     C37321   5.589   3.390  10.155  0.6474  0.0091  0.2269
  277MOL0     C37322   5.656   3.527  10.203 -0.3653 -0.0190 -0.4207
  277MOL0     C37323   5.783   3.560  10.125  0.7338 -0.9829 -0.5916
  277MOL0     C37324   5.760   3.625   9.998  0.4016 -0.2285 -0.6498
  277MOL0     C37325   5.748   3.668   9.883  0.1510 -0.5733 -0.0446
  277MOL0     C37326   5.140   3.497  10.035 -0.5283  0.2912  0.2579
  277MOL0     C37327   5.002   3.487  10.030  0.8345  1.2510 -0.1107
  277MOL0     H37328   4.699   3.067  10.062  2.2060  3.0721 -1.3316
  277MOL0     H37329   4.475   2.981   9.989 -1.6669  1.0633 -1.2679
  277MOL0     H37330   4.220   3.126   9.814  0.4688 -0.2089  0.8097
  277MOL0     H37331   4.294   2.977   9.879 -1.0846 -0.7418 -1.4294
  277MOL0     H37332   4.102   2.914   9.977  0.5770  0.9419  0.1192
  277MOL0     H37333   4.016   3.067   9.926  3.0072  2.5604  1.2272
  277MOL0     H37334   4.045   2.985   9.678  1.9881 -2.7476 -0.7201
  277MOL0     H37335   4.144   2.860   9.733  0.3973  1.9094 -2.7892
  277MOL0     H37336   3.954   2.758   9.842  1.7754  1.5436  0.0616
  277MOL0     H37337   3.859   2.902   9.812  0.6948  4.3724 -3.2259
  277MOL0     H37338   3.872   2.865   9.550  0.0056  0.5538  1.7506
  277MOL0     H37339   3.989   2.740   9.582 -0.5767 -1.0670  0.5071
  277MOL0     H37340   3.789   2.601   9.697 -2.8900 -0.9299  1.7898
  277MOL0     H37341   3.679   2.727   9.637 -0.5130  0.1876  0.4054
  277MOL0     H37342   3.691   2.517   9.520 -0.3666  1.3589  0.4490
  277MOL0     H37343   3.728   2.650   9.414 -3.7455  1.5543  2.1570
  277MOL0     H37344   3.979   2.583   9.456  0.7367 -2.3029  0.6432
  277MOL0     H37345   3.886   2.471   9.362  0.1972 -0.7372  0.8572
  277MOL0     H37346   3.896   2.222   9.474 -3.1935 -0.7788  0.6196
  277MOL0     H37347   4.009   2.043   9.615 -1.2861  0.5100 -0.1775
  277MOL0     H37348   4.074   2.065   9.779 -2.1261  1.9176  3.3932
  277MOL0     H37349   3.893   1.912   9.756 -2.2080 -0.1736 -0.2776
  277MOL0     H37350   3.786   2.047   9.687 -1.6750 -2.9132 -0.2988
  277MOL0     H37351   3.806   2.171   9.887 -1.7000  0.0853 -0.4009
  277MOL0     H37352   3.909   2.048   9.966  1.5854 -0.1414 -1.6402
  277MOL0     H37353   3.684   2.010  10.055  0.3840 -1.9537  0.1323
  277MOL0     H37354   3.719   1.884   9.940  0.2721  0.1910  3.1698
  277MOL0     H37355   3.519   1.865  10.062  0.8677  0.8321  0.6907
  277MOL0     H37356   3.299   1.881  10.290 -0.8471  0.0149  0.9712
  277MOL0     H37357   3.210   1.771  10.179  1.8837 -1.0663 -0.5418
  277MOL0     H37358   3.377   1.755  10.184  1.2810  1.6928  1.2702
  277MOL0     H37359   2.991   1.787  10.344 -0.3736 -1.4933 -2.2570
  277MOL0     H37360   2.794   1.773  10.508 -2.2023  0.8267  1.1257
  277MOL0     H37361   2.410   1.979  10.390  2.7264  0.2200  3.0481
  277MOL0     H37362   2.449   1.835  10.283 -0.5656 -0.3712  0.2679
  277MOL0     H37363   2.352   1.676  10.435  0.7197 -0.4933 -2.3495
  277MOL0     H37364   2.294   1.807  10.535  1.2053 -1.3185  1.0193
  277MOL0     H37365   2.178   1.778  10.240 -0.2239 -1.4093 -0.5837
  277MOL0     H37366   2.134   1.884  10.374 -1.6174 -0.5831  0.7696
  277MOL0     H37367   2.002   1.682  10.313 -0.0503  0.5194 -0.2257
  277MOL0     H37368   2.125   1.578  10.386 -1.9536 -1.0411  1.3637
  277MOL0     H37369   1.955   1.796  10.527 -0.1614 -0.3618  1.0635
  277MOL0     H37370   2.069   1.691  10.615 -0.0809 -1.3170  0.8026
  277MOL0     H37371   1.843   1.581  10.443 -1.4731 -0.7631  0.7220
  277MOL0     H37372   1.952   1.488  10.547  2.5567  0.5934 -0.0058
  277MOL0     H37373   1.747   1.710  10.609 -0.8432  0.1082 -0.1903
  277MOL0     H37374   1.865   1.632  10.728  0.5420  1.2305 -0.9126
  277MOL0     H37375   1.752   1.425  10.685  4.0426  1.7225 -3.6514
  277MOL0     H37376   1.624   1.497  10.582 -2.3992 -1.7041  1.7879
  277MOL0     H37377   2.583   2.054  10.255 -0.1846 -0.2333 -2.5794
  277MOL0     H37378   2.782   2.090  10.126  0.9812  1.6872  1.8539
  277MOL0     H37379   3.187   2.198   9.901  1.9297  1.0790 -1.1696
  277MOL0     H37380   3.408   2.174   9.800 -0.3985 -2.5699 -2.8940
  277MOL0     H37381   4.286   3.334  10.168  0.4050 -0.3574  0.3810
  277MOL0     H37382   4.498   3.389  10.269 -1.5324 -2.0780  2.0741
  277MOL0     H37383   4.966   3.270  10.285  0.6394 -1.4435 -1.6933
  277MOL0     H37384   5.200   3.310  10.308 -2.6606  0.6831  0.9690
  277MOL0     H37385   5.423   3.398  10.303 -0.6799  2.5371 -1.0590
  277MOL0     H37386   5.424   3.261  10.195  1.8409 -1.1557  2.2687
  277MOL0     H37387   5.603   3.391  10.046  4.6576  2.2573  0.5836
  277MOL0     H37388   5.646   3.305  10.193 -0.0693 -1.7932 -2.4285
  277MOL0     H37389   5.688   3.516  10.307 -0.4264  0.3253 -0.3672
  277MOL0     H37390   5.586   3.610  10.195 -0.6983 -0.3550 -1.1212
  277MOL0     H37391   5.853   3.478  10.111  2.6854  0.4610  0.1527
  277MOL0     H37392   5.835   3.638  10.181  1.9821 -1.7563 -0.6402
  277MOL0     H37393   5.725   3.697   9.783  1.9329  0.1363 -0.2926
  277MOL0     H37394   5.176   3.550   9.948  1.4713 -3.9997 -1.8561
  277MOL0     H37395   4.943   3.536   9.954 -1.9073 -0.9789  0.4100
  278MOL0     O37396   2.200   6.854   4.196  0.0649  0.0646  0.5171
  278MOL0     C37397   2.239   6.923   4.293  0.5446 -0.3488  0.0968
  278MOL0     O37398   2.257   7.057   4.294  0.2106 -0.2168 -0.3358
  278MOL0     C37399   2.225   7.119   4.183  0.7333 -0.6430 -0.3421
  278MOL0     C37400   2.292   7.091   4.066 -0.2800  1.9648  0.2235
  278MOL0     C37401   2.251   7.152   3.947 -0.0206 -0.2845 -0.3091
  278MOL0     C37402   2.178   7.268   3.950 -0.1464 -0.1601 -0.2150
  278MOL0     O37403   2.135   7.327   3.835 -0.0509 -0.3686  0.0253
  278MOL0     C37404   2.201   7.314   3.706  0.8230 -0.7606  0.5342
  278MOL0     C37405   2.338   7.381   3.725  0.1670  0.1772 -0.4228
  278MOL0     C37406   2.328   7.527   3.771  0.3569 -0.6436 -0.6734
  278MOL0     C37407   2.464   7.590   3.800 -0.2600  1.3485 -0.2000
  278MOL0     C37408   2.546   7.622   3.679 -0.0197 -0.8910  0.1817
  278MOL0     C37409   2.651   7.729   3.702 -0.6134 -0.4757 -0.2161
  278MOL0     C37410   2.733   7.762   3.569 -0.6878 -0.9426 -0.7695
  278MOL0     C37411   2.810   7.902   3.599  0.5480 -0.2221 -0.2687
  278MOL0     N37412   2.917   7.946   3.506  0.1740 -1.0135 -0.6895
  278MOL0     C37413   3.045   7.899   3.517  0.3765 -1.3006  0.1690
  278MOL0     C37414   3.110   7.955   3.419  0.0783 -0.1309 -0.2807
  278MOL0     C37415   3.254   7.925   3.389 -0.4527  0.6856 -0.7098
  278MOL0     C37416   3.325   8.007   3.281  0.0762 -0.5472 -0.0347
  278MOL0     C37417   3.466   7.958   3.258  0.7087 -0.9556 -0.1456
  278MOL0     C37418   3.549   8.057   3.174  0.0466 -0.4320 -0.0953
  278MOL0     O37419   3.674   7.991   3.160  0.0265  0.4546  0.3685
  278MOL0     C37420   3.770   8.044   3.081 -0.7943 -0.1255 -0.3170
  278MOL0     C37421   3.745   8.143   2.991 -0.2672  0.2085  0.6557
  278MOL0     C37422   3.849   8.192   2.905 -0.2592 -0.6092  1.2334
  278MOL0     C37423   3.826   8.304   2.805 -1.4856 -0.1864  0.2642
  278MOL0     C37424   3.980   8.123   2.901  0.3574  0.8230  0.0550
  278MOL0     C37425   4.086   8.144   2.794 -0.3200  0.3183  0.4437
  278MOL0     O37426   4.207   8.090   2.839  0.6968 -0.2508  0.2505
  278MOL0     C37427   4.324   8.082   2.762  0.3228  0.5736  0.2794
  278MOL0     C37428   4.338   8.114   2.619 -0.3812  0.1857  1.0521
  278MOL0     C37429   4.469   8.101   2.561 -0.1906 -0.0239  0.0069
  278MOL0     C37430   4.578   8.080   2.640 -0.5747  0.2236  0.1186
  278MOL0     O37431   4.694   8.087   2.573  0.2762 -0.3321  0.8795
  278MOL0     C37432   4.818   8.040   2.636  0.6065 -0.1264  0.0345
  278MOL0     C37433   4.923   8.048   2.524 -0.3343 -0.1335 -0.2808
  278MOL0     C37434   5.051   7.979   2.548 -1.0473 -0.1033  0.6186
  278MOL0     C37435   5.124   8.045   2.657 -1.3209 -0.0960  0.3164
  278MOL0     C37436   5.267   7.985   2.656 -0.4149  0.3440 -0.2736
  278MOL0     C37437   5.262   7.841   2.700 -0.3294 -0.1115  0.2204
  278MOL0     C37438   5.400   7.773   2.704  0.4707 -0.2548 -0.6128
  278MOL0     C37439   5.413   7.628   2.761  0.2220  0.3779 -0.4917
  278MOL0    Cl37440   5.578   7.577   2.741  0.0071 -0.0916  0.4365
  278MOL0     C37441   4.568   8.056   2.778  0.3252 -0.8449 -0.2884
  278MOL0     C37442   4.436   8.053   2.837 -0.3641  0.5006  0.1356
  278MOL0     O37443   4.077   8.220   2.698 -0.6048  0.0906  0.0269
  278MOL0     C37444   4.004   8.023   2.998 -0.9211  0.2150 -0.4719
  278MOL0     C37445   3.904   7.988   3.092  0.6079 -0.8275  0.1269
  278MOL0     N37446   3.032   8.047   3.350  0.3267 -0.1481  0.4204
  278MOL0     N37447   2.921   8.042   3.413 -0.4145  0.1947 -0.2860
  278MOL0     C37448   2.136   7.316   4.074  0.0828 -0.3009 -0.7847
  278MOL0     C37449   2.147   7.235   4.195 -0.3868  0.1600  0.3099
  278MOL0     C37450   2.246   6.845   4.415  0.0555  0.1903 -0.2901
  278MOL0     C37451   2.179   6.716   4.419 -0.5382  0.1343 -0.0240
  278MOL0     C37452   2.210   6.620   4.517  0.2983 -0.1877 -0.7314
  278MOL0     C37453   2.290   6.666   4.623  0.4135  0.5425  0.1562
  278MOL0     O37454   2.326   6.586   4.729 -0.8254 -0.1865  0.1055
  278MOL0     C37455   2.305   6.444   4.731  0.0633 -0.0637 -0.7689
  278MOL0     C37456   2.393   6.360   4.631 -0.0441 -0.5071  0.2732
  278MOL0     C37457   2.532   6.364   4.684 -0.0609  0.1603 -0.3289
  278MOL0     C37458   2.642   6.294   4.604  0.8030  1.6678  0.7140
  278MOL0     C37459   2.687   6.379   4.492 -0.1299  0.1083 -0.0274
  278MOL0     C37460   2.716   6.446   4.392 -0.5883  0.3463  0.4950
  278MOL0     C37461   2.332   6.798   4.632 -0.1869  0.2902  0.3060
  278MOL0     C37462   2.311   6.885   4.526 -0.5133 -0.2047 -0.5952
  278MOL0     H37463   2.365   7.010   4.065 -1.7677  0.4054  3.6382
  278MOL0     H37464   2.283   7.097   3.860  0.0059 -0.1857 -0.3618
  278MOL0     H37465   2.196   7.207   3.683  0.4957 -1.0012  1.6593
  278MOL0     H37466   2.147   7.370   3.629  2.0965  0.8279  0.7518
  278MOL0     H37467   2.398   7.321   3.794 -1.2488 -1.6726 -0.7004
  278MOL0     H37468   2.388   7.379   3.628  1.2101  0.5495  0.0968
  278MOL0     H37469   2.276   7.583   3.692  2.0825 -0.4755 -1.7499
  278MOL0     H37470   2.260   7.548   3.853 -0.8348 -0.0994 -1.7630
  278MOL0     H37471   2.444   7.685   3.850 -2.0185  1.1648 -0.4801
  278MOL0     H37472   2.524   7.528   3.867 -2.0241  1.8454  1.9892
  278MOL0     H37473   2.591   7.527   3.648 -0.4568 -0.2752 -2.6181
  278MOL0     H37474   2.465   7.647   3.610 -0.2297 -0.9363  0.4069
  278MOL0     H37475   2.600   7.823   3.723  1.1777  0.0411  2.3858
  278MOL0     H37476   2.707   7.707   3.793 -0.9518 -0.6423 -0.0498
  278MOL0     H37477   2.812   7.686   3.567  0.0827 -0.1637 -0.7812
  278MOL0     H37478   2.676   7.759   3.476 -2.0957 -4.1619  0.0458
  278MOL0     H37479   2.844   7.896   3.703 -0.4986  0.8502  0.1570
  278MOL0     H37480   2.730   7.976   3.595 -0.2445 -0.8110  2.5990
  278MOL0     H37481   3.094   7.832   3.587  1.7256  0.1014  0.6149
  278MOL0     H37482   3.313   7.927   3.482 -1.0099  1.9227 -0.3702
  278MOL0     H37483   3.247   7.819   3.362 -0.8377  0.2089  1.0825
  278MOL0     H37484   3.326   8.107   3.324 -0.7955 -0.4544 -0.2108
  278MOL0     H37485   3.267   8.003   3.188  0.3104 -1.5979 -0.1511
  278MOL0     H37486   3.455   7.863   3.206 -3.1862 -1.0105  0.4474
  278MOL0     H37487   3.513   7.938   3.354 -1.2750  1.6306  1.5147
  278MOL0     H37488   3.562   8.161   3.206 -0.0441  1.0463 -4.3183
  278MOL0     H37489   3.490   8.075   3.084 -1.9963 -2.4549  0.7358
  278MOL0     H37490   3.655   8.202   2.978 -1.0357 -0.0299  3.8554
  278MOL0     H37491   3.793   8.263   2.710 -1.2668 -0.3834  0.2746
  278MOL0     H37492   3.750   8.371   2.848 -1.5232 -1.4937  2.3614
  278MOL0     H37493   3.913   8.370   2.800 -1.9817  0.7800  2.5920
  278MOL0     H37494   4.254   8.125   2.552  0.7188 -1.4361 -0.6963
  278MOL0     H37495   4.484   8.102   2.454  1.4457  1.0968  0.2011
  278MOL0     H37496   4.848   8.098   2.724  1.3322  2.2310 -1.6830
  278MOL0     H37497   4.798   7.935   2.661  1.2695 -0.0545  0.9222
  278MOL0     H37498   4.884   8.005   2.432 -1.8997  0.5735  0.0080
  278MOL0     H37499   4.951   8.151   2.504  1.3669 -0.4822  0.1457
  278MOL0     H37500   5.096   7.992   2.450 -0.0044 -0.3522  1.0563
  278MOL0     H37501   5.019   7.875   2.562 -2.6644  0.5909  2.5756
  278MOL0     H37502   5.145   8.149   2.630 -1.9290  0.0826  0.5148
  278MOL0     H37503   5.077   8.038   2.755  2.8490  0.9206  2.5954
  278MOL0     H37504   5.334   8.040   2.721 -1.1031 -1.0372  1.6945
  278MOL0     H37505   5.294   7.983   2.550 -3.8827 -1.5308 -1.3021
  278MOL0     H37506   5.231   7.845   2.805  0.9858  1.2020  0.5901
  278MOL0     H37507   5.195   7.784   2.635 -0.4441 -0.6665  0.8078
  278MOL0     H37508   5.458   7.841   2.767  0.1003 -0.5439  0.0479
  278MOL0     H37509   5.452   7.770   2.608  2.0191 -3.6418  0.1512
  278MOL0     H37510   5.339   7.565   2.711 -2.6588  1.7615  1.6992
  278MOL0     H37511   5.389   7.608   2.866  0.6536 -0.7234 -0.5886
  278MOL0     H37512   4.649   8.015   2.837 -0.6283 -2.9990 -0.3783
  278MOL0     H37513   4.434   8.018   2.939 -0.7741 -2.4549 -0.7918
  278MOL0     H37514   4.091   7.958   2.995 -1.1266 -0.0522 -0.6184
  278MOL0     H37515   3.945   7.928   3.172  2.3260  3.0935  2.4816
  278MOL0     H37516   2.099   7.418   4.081  1.8244  0.2852  1.2112
  278MOL0     H37517   2.116   7.265   4.295  1.0065 -2.2502  1.5516
  278MOL0     H37518   2.118   6.684   4.335 -0.7908  1.0394 -0.1978
  278MOL0     H37519   2.156   6.525   4.516 -0.8839  0.4673 -2.5550
  278MOL0     H37520   2.340   6.418   4.831 -2.8593  0.5816  0.5162
  278MOL0     H37521   2.202   6.412   4.715 -0.1585  0.4134 -0.3185
  278MOL0     H37522   2.384   6.384   4.525 -0.1120 -0.3863  0.3065
  278MOL0     H37523   2.358   6.256   4.634  0.4636 -0.6639  1.7077
  278MOL0     H37524   2.535   6.318   4.783  0.1233 -1.6612 -1.1252
  278MOL0     H37525   2.568   6.467   4.683  2.0302 -0.5097 -0.6902
  278MOL0     H37526   2.606   6.195   4.573 -0.9252  1.9768  1.6185
  278MOL0     H37527   2.724   6.284   4.675  1.1531  2.7141  0.4803
  278MOL0     H37528   2.726   6.512   4.308 -0.5084  0.0377  0.2603
  278MOL0     H37529   2.405   6.833   4.705  1.6603 -2.1302 -0.2270
  278MOL0     H37530   2.357   6.983   4.525 -0.6138 -0.1606 -1.1689
  279MOL0     O37531  10.842   8.869   9.147 -0.2703  0.0476 -0.0674
  279MOL0     C37532  10.859   8.750   9.125  0.0262  0.3266  0.1422
  279MOL0     O37533  10.765   8.653   9.126 -0.0841  0.5840 -0.1860
  279MOL0     C37534  10.634   8.684   9.167  0.0708 -0.0666  0.2355
  279MOL0     C37535  10.533   8.608   9.105 -0.3845  0.8049  0.5268
  279MOL0     C37536  10.402   8.607   9.138 -0.2052 -0.3000 -0.2286
  279MOL0     C37537  10.357   8.688   9.243 -0.3224  0.3090 -0.1539
  279MOL0     O37538  10.224   8.695   9.287 -0.8757 -0.3809 -0.2304
  279MOL0     C37539  10.134   8.601   9.229  0.4076  0.1815  0.4175
  279MOL0     C37540  10.005   8.605   9.308  0.1551  0.8225 -0.1891
  279MOL0     C37541   9.916   8.485   9.264 -0.4274  0.6767  0.3520
  279MOL0     C37542   9.875   8.472   9.114  0.3755  0.0545 -0.1246
  279MOL0     C37543   9.783   8.349   9.098 -0.8062  0.4307  0.1466
  279MOL0     C37544   9.751   8.316   8.948 -0.2229  0.0025 -0.3799
  279MOL0     C37545   9.675   8.176   8.926 -0.4188 -0.3243 -1.5507
  279MOL0     C37546   9.542   8.165   9.010  0.1608 -0.3886  0.0121
  279MOL0     N37547   9.438   8.262   8.958  0.9803 -0.2225  0.5590
  279MOL0     C37548   9.385   8.274   8.824 -0.3586  0.2826  0.0386
  279MOL0     C37549   9.297   8.372   8.825 -0.3085 -1.3308 -0.0974
  279MOL0     C37550   9.220   8.431   8.708 -0.4317  0.2926 -0.4936
  279MOL0     C37551   9.308   8.483   8.589 -0.3581  0.3381  0.0027
  279MOL0     C37552   9.448   8.537   8.635 -0.8404  0.0042 -0.5374
  279MOL0     C37553   9.446   8.660   8.709  1.4739 -0.5722  0.2031
  279MOL0     O37554   9.458   8.776   8.618 -0.2007 -0.2983  0.0160
  279MOL0     C37555   9.363   8.869   8.651  0.0956 -0.8198 -0.0752
  279MOL0     C37556   9.267   8.900   8.559 -0.1966  0.5528 -0.0619
  279MOL0     C37557   9.177   8.998   8.574 -0.0228  0.8765 -0.2783
  279MOL0     C37558   9.071   9.024   8.468  0.1424  0.0253 -0.5967
  279MOL0     C37559   9.187   9.089   8.685  0.5920  0.2724  0.3531
  279MOL0     C37560   9.084   9.181   8.740  0.1749 -0.2296  0.2486
  279MOL0     O37561   8.956   9.174   8.700  0.3202  0.2631  0.2965
  279MOL0     C37562   8.870   9.271   8.741 -0.2324 -0.1805 -0.8045
  279MOL0     C37563   8.784   9.244   8.850  0.1404 -0.4552  0.0732
  279MOL0     C37564   8.695   9.347   8.901 -0.0036  0.4336  0.4498
  279MOL0     C37565   8.692   9.468   8.838  0.3506 -0.4389 -0.2895
  279MOL0     O37566   8.630   9.586   8.877  0.5760 -0.3091  0.2983
  279MOL0     C37567   8.572   9.601   8.999  0.8767  0.0999  0.1093
  279MOL0     C37568   8.521   9.746   9.005  0.2427  0.0837  0.3292
  279MOL0     C37569   8.427   9.778   9.123 -0.0197 -0.1031  0.6525
  279MOL0     C37570   8.283   9.755   9.092 -1.4664 -0.0960 -0.3104
  279MOL0     C37571   8.192   9.805   9.199  0.4098  0.4011 -0.7761
  279MOL0     C37572   8.177   9.955   9.211  0.0804  0.9148 -0.0601
  279MOL0     C37573   8.048   9.997   9.295 -1.0810  0.9821  0.2360
  279MOL0     C37574   7.918   9.976   9.220 -0.0819 -0.5008  0.0410
  279MOL0    Cl37575   7.794  10.063   9.317  0.7020  0.1198  0.2042
  279MOL0     C37576   8.775   9.492   8.727 -0.2144  0.2280  0.0773
  279MOL0     C37577   8.864   9.393   8.673  0.7989  0.3930  0.2275
  279MOL0     O37578   9.135   9.282   8.789 -0.2890  0.1137  0.7157
  279MOL0     C37579   9.306   9.075   8.766  0.4448  1.0089 -0.4189
  279MOL0     C37580   9.388   8.961   8.756  0.4201  0.1463 -0.2261
  279MOL0     N37581   9.304   8.431   8.950  0.3238 -0.1872 -0.2894
  279MOL0     N37582   9.389   8.367   9.027  0.0136  0.0786 -0.2124
  279MOL0     C37583  10.453   8.769   9.307  0.4345  0.7045 -0.0661
  279MOL0     C37584  10.588   8.763   9.278 -1.3928 -0.4517  0.6594
  279MOL0     C37585  10.994   8.708   9.093 -0.5041  0.3473  0.2721
  279MOL0     C37586  11.023   8.573   9.053  0.3177 -0.3590  0.2988
  279MOL0     C37587  11.150   8.535   9.023  0.1356  0.2212  0.0551
  279MOL0     C37588  11.251   8.628   9.021  0.4167  0.6580  0.4251
  279MOL0     O37589  11.376   8.571   8.995  0.1643  0.2531  0.5818
  279MOL0     C37590  11.497   8.639   9.029 -0.1520 -0.6349 -0.5054
  279MOL0     C37591  11.586   8.627   8.915 -0.6115 -0.0175  0.0577
  279MOL0     C37592  11.726   8.694   8.936 -0.5128  0.3771  0.7972
  279MOL0     C37593  11.769   8.783   8.812 -0.0193  0.2552 -0.2952
  279MOL0     C37594  11.713   8.917   8.814  1.4583  0.5038  0.7128
  279MOL0     C37595  11.652   9.018   8.791  0.0002  0.0429 -0.1177
  279MOL0     C37596  11.219   8.764   9.062  0.3183  0.0689  0.2208
  279MOL0     C37597  11.090   8.806   9.092 -1.5538 -0.8117 -0.0376
  279MOL0     H37598  10.574   8.540   9.031  1.3081 -1.9521  3.6677
  279MOL0     H37599  10.337   8.539   9.084 -0.4235 -0.5418  0.3301
  279MOL0     H37600  10.117   8.627   9.124  0.4462 -1.2999  0.0297
  279MOL0     H37601  10.177   8.501   9.233 -0.2348 -0.0833  0.8585
  279MOL0     H37602  10.004   8.612   9.417 -1.5141 -2.4689  0.1424
  279MOL0     H37603   9.942   8.687   9.272 -0.3290  1.5361  2.1054
  279MOL0     H37604   9.966   8.393   9.297  0.7766  1.2800  0.2413
  279MOL0     H37605   9.822   8.493   9.319 -0.4453 -0.6117  0.5509
  279MOL0     H37606   9.820   8.559   9.078  1.9173  1.0933 -0.0995
  279MOL0     H37607   9.961   8.465   9.046  0.1122  0.0516 -0.4591
  279MOL0     H37608   9.835   8.258   9.130 -1.7849 -0.8496 -1.7352
  279MOL0     H37609   9.687   8.366   9.148 -0.1055 -0.7775  1.9932
  279MOL0     H37610   9.686   8.389   8.899 -0.1664  0.5868  0.3951
  279MOL0     H37611   9.846   8.320   8.895  0.3860 -1.7852  0.4906
  279MOL0     H37612   9.647   8.153   8.822 -0.1501 -4.2811 -0.9039
  279MOL0     H37613   9.738   8.090   8.950 -1.6870 -0.8647  0.0037
  279MOL0     H37614   9.582   8.177   9.111  1.1235 -0.2841 -0.3678
  279MOL0     H37615   9.511   8.062   8.990  0.0248  0.2592 -3.8731
  279MOL0     H37616   9.413   8.207   8.743 -3.1782 -0.3361 -0.5086
  279MOL0     H37617   9.140   8.361   8.683 -3.5356  3.5937 -0.5417
  279MOL0     H37618   9.167   8.520   8.743 -0.9453 -0.9213  2.0538
  279MOL0     H37619   9.264   8.568   8.535 -0.2524  1.2342  1.2754
  279MOL0     H37620   9.322   8.406   8.512  0.4373  2.3639 -2.0106
  279MOL0     H37621   9.519   8.545   8.552  1.2736 -0.3039  1.1357
  279MOL0     H37622   9.494   8.457   8.694 -1.0848 -3.0101 -4.0832
  279MOL0     H37623   9.529   8.660   8.780  3.0943  0.3877 -1.6136
  279MOL0     H37624   9.359   8.675   8.775  2.2097  1.5734  0.7841
  279MOL0     H37625   9.256   8.831   8.477 -1.9545  1.3438 -0.5267
  279MOL0     H37626   8.971   8.998   8.504  0.9792 -2.3040  0.2104
  279MOL0     H37627   9.066   9.129   8.438 -3.0765 -0.4289 -2.1358
  279MOL0     H37628   9.091   8.964   8.379  0.3327 -1.6362  0.5210
  279MOL0     H37629   8.789   9.147   8.897 -1.5726 -0.9539 -0.6961
  279MOL0     H37630   8.638   9.330   8.992 -2.1907  0.9362 -0.7714
  279MOL0     H37631   8.488   9.533   9.016  1.0481 -0.0739  0.2563
  279MOL0     H37632   8.643   9.582   9.079  3.6258  0.5730 -2.0644
  279MOL0     H37633   8.609   9.812   9.005 -1.4653  2.5846 -2.3935
  279MOL0     H37634   8.473   9.774   8.911 -1.6895  0.1361  1.2782
  279MOL0     H37635   8.436   9.886   9.137 -2.3256  0.4504 -1.4137
  279MOL0     H37636   8.464   9.732   9.215  3.3256  0.2032 -0.4135
  279MOL0     H37637   8.261   9.789   8.991 -2.1215 -0.6347 -0.3514
  279MOL0     H37638   8.270   9.647   9.097 -2.0409  0.0104  0.8811
  279MOL0     H37639   8.220   9.774   9.299 -0.7965  0.7238 -0.3187
  279MOL0     H37640   8.090   9.772   9.179  0.0822  1.9674 -1.9154
  279MOL0     H37641   8.269   9.987   9.261  0.2434  0.3946 -0.0206
  279MOL0     H37642   8.180  10.001   9.112  1.5281  0.2264 -0.3761
  279MOL0     H37643   8.060  10.104   9.314  0.2466  0.7757  0.6650
  279MOL0     H37644   8.048   9.934   9.385  2.0266  2.0736  1.1316
  279MOL0     H37645   7.894   9.870   9.221  1.7218 -0.9315  1.1307
  279MOL0     H37646   7.925  10.018   9.120 -0.2956 -0.9420 -0.1596
  279MOL0     H37647   8.757   9.584   8.672 -7.7274  0.6516  2.2234
  279MOL0     H37648   8.933   9.418   8.593  3.4804 -0.0577  2.2629
  279MOL0     H37649   9.329   9.141   8.848  0.7363 -2.0782  2.1692
  279MOL0     H37650   9.478   8.950   8.815 -1.3313  0.8963  2.7719
  279MOL0     H37651  10.417   8.846   9.375 -0.1396  0.8792 -0.5626
  279MOL0     H37652  10.654   8.833   9.329 -1.3650  1.4538 -1.7730
  279MOL0     H37653  10.947   8.496   9.056  0.1452 -0.1893  2.7631
  279MOL0     H37654  11.171   8.430   9.004 -2.8573 -0.3628 -0.5486
  279MOL0     H37655  11.486   8.748   9.039  0.8418 -0.2227 -3.0530
  279MOL0     H37656  11.546   8.597   9.117  1.0362  0.1662 -0.7556
  279MOL0     H37657  11.531   8.673   8.832  0.2049 -0.6729 -0.8629
  279MOL0     H37658  11.595   8.519   8.904 -1.0623 -0.4650  3.0984
  279MOL0     H37659  11.792   8.608   8.954 -2.5089 -1.1786  1.0640
  279MOL0     H37660  11.738   8.753   9.028  3.5620  0.6894  0.2602
  279MOL0     H37661  11.738   8.725   8.725  2.3602 -1.5802 -0.0202
  279MOL0     H37662  11.877   8.780   8.794 -0.3090 -2.5260 -2.1420
  279MOL0     H37663  11.611   9.117   8.793  2.4871  1.1447 -0.7738
  279MOL0     H37664  11.305   8.830   9.069  1.6989 -1.7196  1.2841
  279MOL0     H37665  11.070   8.910   9.118 -1.7482  0.6311 -4.9418
  280MOL0     O37666   9.307   7.860   7.290  0.2581 -0.1910 -0.0179
  280MOL0     C37667   9.354   7.747   7.295  0.5581  0.3985  0.5503
  280MOL0     O37668   9.287   7.629   7.329 -0.3075 -0.4245  0.0955
  280MOL0     C37669   9.161   7.640   7.382  0.1883 -0.0720  0.0717
  280MOL0     C37670   9.111   7.724   7.483 -0.4253  0.6027 -0.2341
  280MOL0     C37671   8.976   7.711   7.523 -0.3900  0.6262 -0.5056
  280MOL0     C37672   8.890   7.624   7.463 -0.2662  1.0097  0.4350
  280MOL0     O37673   8.757   7.627   7.503 -0.0762 -0.3908  0.0004
  280MOL0     C37674   8.662   7.573   7.419  0.2714 -0.2975 -0.1949
  280MOL0     C37675   8.583   7.461   7.491 -0.3210 -0.3808 -1.2873
  280MOL0     C37676   8.463   7.409   7.412  0.5842  0.0434 -0.2829
  280MOL0     C37677   8.378   7.322   7.497  0.5077 -0.0126 -0.6483
  280MOL0     C37678   8.236   7.316   7.457  0.3963 -0.3245  0.7657
  280MOL0     C37679   8.150   7.432   7.511  0.6781  0.0048  0.9335
  280MOL0     C37680   8.146   7.431   7.657 -0.4166  0.6380  0.1786
  280MOL0     C37681   8.037   7.526   7.714 -0.2509  0.9482 -0.3273
  280MOL0     N37682   8.040   7.533   7.863 -0.8607 -0.3638 -0.1427
  280MOL0     C37683   8.039   7.426   7.947  0.5905  0.0990 -0.0858
  280MOL0     C37684   8.098   7.471   8.061 -0.3560  0.6765  0.8130
  280MOL0     C37685   8.142   7.372   8.171  0.5568  0.8067  0.3957
  280MOL0     C37686   8.038   7.273   8.215 -0.1004  0.0040  0.0368
  280MOL0     C37687   7.902   7.337   8.242 -0.3546  0.4156 -0.0940
  280MOL0     C37688   7.790   7.243   8.291 -0.1139 -0.0724  0.2367
  280MOL0     O37689   7.768   7.128   8.204  0.0690 -0.2319 -0.3211
  280MOL0     C37690   7.698   7.163   8.090 -1.3138  0.3723 -0.4928
  280MOL0     C37691   7.571   7.211   8.110  0.5214 -1.0007  0.1905
  280MOL0     C37692   7.494   7.263   8.001  0.6158  0.0318 -0.6384
  280MOL0     C37693   7.340   7.289   8.035  0.3143 -0.1862 -0.0097
  280MOL0     C37694   7.555   7.269   7.866 -0.1377  0.2318  0.4130
  280MOL0     C37695   7.475   7.322   7.746 -0.2323  0.9120  0.5342
  280MOL0     O37696   7.550   7.352   7.639 -0.3719  0.0187  0.1081
  280MOL0     C37697   7.503   7.433   7.538  0.8309 -0.7219  0.0796
  280MOL0     C37698   7.543   7.567   7.528  0.6141 -0.4071 -0.4465
  280MOL0     C37699   7.491   7.644   7.423 -0.2068 -0.0527 -0.4758
  280MOL0     C37700   7.414   7.596   7.321  0.6910  0.7575  0.8133
  280MOL0     O37701   7.371   7.688   7.230 -0.7458 -0.5284 -0.5816
  280MOL0     C37702   7.249   7.652   7.158 -0.4230  0.6073 -0.8728
  280MOL0     C37703   7.219   7.764   7.069  0.4697 -0.5944  0.0718
  280MOL0     C37704   7.086   7.741   6.986  0.4185 -0.5014 -0.3095
  280MOL0     C37705   7.027   7.869   6.912 -0.2690 -0.0220 -0.2448
  280MOL0     C37706   6.933   7.957   6.987 -0.1267 -0.4449 -0.5192
  280MOL0     C37707   6.975   7.995   7.123  0.4278 -0.6372  0.6168
  280MOL0     C37708   6.875   8.103   7.172  1.0374 -0.2654  0.1679
  280MOL0     C37709   6.934   8.174   7.285  0.0758 -0.0116 -0.0476
  280MOL0    Cl37710   6.812   8.269   7.365 -0.2755 -0.2328 -0.0678
  280MOL0     C37711   7.379   7.458   7.327 -0.4847 -0.6837  0.2307
  280MOL0     C37712   7.418   7.389   7.437 -0.4926 -0.0491 -0.5862
  280MOL0     O37713   7.354   7.320   7.751 -0.2699 -0.0495 -0.5030
  280MOL0     C37714   7.691   7.230   7.855  0.6486 -0.7483 -0.3137
  280MOL0     C37715   7.755   7.165   7.961 -0.1671  0.2970  0.5529
  280MOL0     N37716   8.129   7.600   8.041 -0.9504  0.2051 -0.8347
  280MOL0     N37717   8.094   7.632   7.929  0.7989  0.0948  0.0665
  280MOL0     C37718   8.942   7.542   7.361  0.6391 -1.1585  0.2275
  280MOL0     C37719   9.074   7.549   7.324  0.3856 -0.8661  0.8152
  280MOL0     C37720   9.495   7.745   7.249 -0.0469  0.2533  0.5805
  280MOL0     C37721   9.559   7.862   7.222  0.4133 -0.0417  0.1877
  280MOL0     C37722   9.697   7.866   7.198  0.6370  0.2212 -0.3874
  280MOL0     C37723   9.778   7.756   7.204 -0.3568 -0.9643 -0.5182
  280MOL0     O37724   9.911   7.767   7.181 -0.2884  0.3746  0.0154
  280MOL0     C37725   9.990   7.823   7.288 -0.6936  0.5434  0.0119
  280MOL0     C37726  10.139   7.850   7.233  0.5163 -0.3295 -0.2866
  280MOL0     C37727  10.206   7.736   7.162 -0.2698  1.1072  0.0027
  280MOL0     C37728  10.315   7.670   7.253  0.6484  0.3953  0.3972
  280MOL0     C37729  10.423   7.768   7.274 -0.2600 -0.6950 -0.1300
  280MOL0     C37730  10.521   7.835   7.306  1.3208 -0.3828  0.0659
  280MOL0     C37731   9.717   7.634   7.242  0.1729  0.1322  0.4441
  280MOL0     C37732   9.572   7.626   7.255 -0.2535  0.4426 -0.2398
  280MOL0     H37733   9.179   7.787   7.539 -0.1334  0.9392 -0.9601
  280MOL0     H37734   8.954   7.766   7.615  0.3507  1.3345 -0.7370
  280MOL0     H37735   8.591   7.653   7.396  2.1210  1.2986 -0.6214
  280MOL0     H37736   8.697   7.529   7.325  0.5433  1.6602 -1.0609
  280MOL0     H37737   8.659   7.385   7.509 -2.0007 -1.8576 -0.1049
  280MOL0     H37738   8.544   7.503   7.584 -0.8532  0.9255 -2.0649
  280MOL0     H37739   8.406   7.495   7.375  0.5426  0.4608  0.6996
  280MOL0     H37740   8.499   7.354   7.325  4.5687 -0.2104  1.3477
  280MOL0     H37741   8.420   7.221   7.499  2.8412  0.8974  1.1992
  280MOL0     H37742   8.386   7.368   7.596  0.0127  1.9751 -1.4841
  280MOL0     H37743   8.224   7.312   7.349 -3.3092  1.8841  0.9294
  280MOL0     H37744   8.206   7.215   7.490 -3.0280  0.4106  0.2712
  280MOL0     H37745   8.181   7.530   7.472 -0.8070 -0.3818 -1.4190
  280MOL0     H37746   8.048   7.419   7.473 -0.1195  3.4586  1.5553
  280MOL0     H37747   8.121   7.331   7.693  1.8999  0.0672  0.3679
  280MOL0     H37748   8.244   7.465   7.692  0.5442  1.6703 -3.1400
  280MOL0     H37749   7.938   7.480   7.705  0.8434 -1.2731 -1.9783
  280MOL0     H37750   8.059   7.624   7.671  1.5074  0.6799 -0.1290
  280MOL0     H37751   8.020   7.323   7.919  1.7426 -0.0590 -0.3245
  280MOL0     H37752   8.227   7.314   8.135  0.7941  0.9721  0.6875
  280MOL0     H37753   8.179   7.426   8.258 -0.6368  2.0502  0.1617
  280MOL0     H37754   8.065   7.224   8.309 -3.3620  0.1273  1.1657
  280MOL0     H37755   8.031   7.192   8.142 -0.3848  0.4519 -0.4336
  280MOL0     H37756   7.866   7.395   8.156 -0.8184  1.4976  0.8149
  280MOL0     H37757   7.921   7.414   8.316 -2.6323  1.2139 -0.2406
  280MOL0     H37758   7.717   7.324   8.296  1.3347  1.4276 -1.1970
  280MOL0     H37759   7.804   7.208   8.393 -1.4910 -2.7225 -0.3982
  280MOL0     H37760   7.522   7.201   8.206  0.6032 -0.7368  0.2584
  280MOL0     H37761   7.316   7.391   8.005  1.5303 -0.5307 -2.4651
  280MOL0     H37762   7.283   7.216   7.977  0.9214  1.1249 -2.4246
  280MOL0     H37763   7.322   7.279   8.142 -0.5874  1.8518  0.0637
  280MOL0     H37764   7.607   7.612   7.604  2.4614 -1.6900 -1.1801
  280MOL0     H37765   7.522   7.748   7.425 -0.3199  0.0584  3.9638
  280MOL0     H37766   7.256   7.560   7.099 -1.9367  0.9742 -1.6794
  280MOL0     H37767   7.161   7.639   7.221  0.9354 -0.9889  0.8376
  280MOL0     H37768   7.210   7.853   7.133 -0.4709 -0.0684 -0.7512
  280MOL0     H37769   7.304   7.789   7.005  0.3981  1.0631  0.5658
  280MOL0     H37770   7.001   7.717   7.052 -1.0450  0.6911 -1.6663
  280MOL0     H37771   7.106   7.654   6.924  0.6844 -0.1112 -0.7755
  280MOL0     H37772   7.112   7.931   6.881  0.8180 -1.0792  0.5562
  280MOL0     H37773   6.979   7.813   6.831 -1.3045 -1.4724  1.3162
  280MOL0     H37774   6.838   7.903   6.991 -0.8383  0.6815 -1.7801
  280MOL0     H37775   6.908   8.046   6.930  2.4357  0.8967  0.2980
  280MOL0     H37776   6.979   7.916   7.199 -3.8377  0.4905  2.2834
  280MOL0     H37777   7.073   8.044   7.117 -0.6392  2.0679  3.0139
  280MOL0     H37778   6.786   8.048   7.206  1.1941  1.2268  3.3113
  280MOL0     H37779   6.857   8.182   7.099  0.1352 -0.9479 -0.3710
  280MOL0     H37780   7.012   8.241   7.249  0.0810 -0.6835 -1.3490
  280MOL0     H37781   6.964   8.099   7.359  2.7109  3.0175  2.2453
  280MOL0     H37782   7.308   7.422   7.254  0.7146  0.3250 -1.5310
  280MOL0     H37783   7.400   7.282   7.441  0.7713 -0.2762 -0.5398
  280MOL0     H37784   7.744   7.255   7.763 -2.4480 -2.2132 -2.7068
  280MOL0     H37785   7.861   7.149   7.941  0.0398  0.2842  1.6031
  280MOL0     H37786   8.874   7.474   7.311 -2.1458  3.3526 -2.9136
  280MOL0     H37787   9.112   7.478   7.251  0.4189 -0.7842  0.7534
  280MOL0     H37788   9.506   7.956   7.220  0.7327  0.1365 -0.9298
  280MOL0     H37789   9.727   7.968   7.175  0.3813  0.1864 -0.8925
  280MOL0     H37790   9.937   7.912   7.323 -0.6551  1.6041 -2.4398
  280MOL0     H37791   9.995   7.740   7.359  4.4652  0.0013 -0.6383
  280MOL0     H37792  10.205   7.882   7.315  0.9339 -0.7979 -0.4372
  280MOL0     H37793  10.122   7.933   7.164  1.7463 -0.9274 -1.3555
  280MOL0     H37794  10.264   7.765   7.074 -0.7878 -0.1534 -0.7679
  280MOL0     H37795  10.133   7.659   7.136  2.1443 -1.5816  0.6614
  280MOL0     H37796  10.368   7.591   7.199  0.5451  0.6513 -0.0813
  280MOL0     H37797  10.287   7.636   7.353  2.8244 -2.1389  0.2608
  280MOL0     H37798  10.603   7.901   7.326 -0.6834  2.0647  0.8481
  280MOL0     H37799   9.781   7.547   7.252  0.8683  0.7088  1.0957
  280MOL0     H37800   9.528   7.531   7.284  1.8941  0.0112  2.0022
  281MOL0     O37801   6.553   8.279   8.572 -0.5448 -0.2805  0.3109
  281MOL0     C37802   6.491   8.275   8.465 -0.1046 -0.4485  0.2234
  281MOL0     O37803   6.547   8.258   8.347  0.1232 -0.4955  0.3749
  281MOL0     C37804   6.683   8.267   8.322  0.4520  0.3598  0.1972
  281MOL0     C37805   6.752   8.386   8.307 -0.0092 -0.4779 -0.9496
  281MOL0     C37806   6.889   8.394   8.295 -1.2374  0.1562  0.1807
  281MOL0     C37807   6.964   8.282   8.292  0.5826  0.1598 -0.9174
  281MOL0     O37808   7.100   8.298   8.289 -0.4565  0.0408  0.2804
  281MOL0     C37809   7.179   8.202   8.224  0.4734  0.4860  0.0553
  281MOL0     C37810   7.301   8.282   8.164  0.7570 -0.2193  0.5738
  281MOL0     C37811   7.360   8.195   8.057  0.1411  0.4054  0.0807
  281MOL0     C37812   7.506   8.246   8.023  0.2993  0.5114  0.2462
  281MOL0     C37813   7.552   8.187   7.889  0.3201 -0.7048  0.2950
  281MOL0     C37814   7.522   8.039   7.873 -0.0257 -0.2440 -0.3319
  281MOL0     C37815   7.593   7.971   7.753 -0.8220 -0.4670 -0.1499
  281MOL0     C37816   7.751   7.981   7.751  0.4337 -0.0564 -0.4257
  281MOL0     N37817   7.801   7.918   7.633 -0.7381  0.0243 -0.2053
  281MOL0     C37818   7.803   7.974   7.505  0.7490  0.5275 -0.7792
  281MOL0     C37819   7.856   7.882   7.428 -0.1581  0.2089  0.9046
  281MOL0     C37820   7.870   7.884   7.281 -0.1352 -0.2702  0.1420
  281MOL0     C37821   7.732   7.890   7.220  1.0202  0.7879 -0.4154
  281MOL0     C37822   7.745   7.889   7.066 -0.2410 -0.3329 -0.5224
  281MOL0     C37823   7.629   7.958   6.992 -0.2579 -0.2156  0.1230
  281MOL0     O37824   7.638   8.100   7.021  0.6781 -0.2049  0.4249
  281MOL0     C37825   7.523   8.172   7.014 -0.2349  0.1880  0.4929
  281MOL0     C37826   7.529   8.297   7.065 -0.2088  0.4489 -0.4192
  281MOL0     C37827   7.419   8.379   7.074  0.6641  0.7075 -0.3883
  281MOL0     C37828   7.455   8.512   7.129  0.5741  0.2551 -0.5772
  281MOL0     C37829   7.293   8.337   7.028  1.4442 -0.2351  0.3758
  281MOL0     C37830   7.160   8.412   7.050 -0.2326 -0.1573 -0.5461
  281MOL0     O37831   7.061   8.375   6.964 -0.0956  0.3352 -0.2431
  281MOL0     C37832   6.965   8.476   6.962 -0.3729 -0.0179  0.3749
  281MOL0     C37833   6.963   8.541   6.846  0.0418 -0.7644  0.3742
  281MOL0     C37834   6.875   8.654   6.831 -0.4870  0.5174  0.3597
  281MOL0     C37835   6.793   8.698   6.935  0.1943  0.9038  0.1004
  281MOL0     O37836   6.734   8.823   6.926 -0.2145 -0.0227  0.3981
  281MOL0     C37837   6.587   8.837   6.946  0.6915  0.2172  0.4675
  281MOL0     C37838   6.514   8.893   6.824 -0.6692 -0.4573  0.1738
  281MOL0     C37839   6.532   8.797   6.702 -0.0803 -0.2518 -0.9733
  281MOL0     C37840   6.479   8.658   6.727 -0.4542 -0.2604  0.5712
  281MOL0     C37841   6.472   8.574   6.599 -0.3481 -0.2110 -0.1662
  281MOL0     C37842   6.360   8.467   6.606 -1.0622  0.6091  1.4000
  281MOL0     C37843   6.364   8.386   6.477 -0.3984  0.6653 -0.2992
  281MOL0     C37844   6.240   8.295   6.448 -0.0290  0.2327 -0.7715
  281MOL0    Cl37845   6.246   8.135   6.538 -0.0057  0.5050 -0.1003
  281MOL0     C37846   6.784   8.618   7.049  0.3301 -0.7756 -0.0790
  281MOL0     C37847   6.876   8.511   7.066  0.1809 -0.1533  0.0639
  281MOL0     O37848   7.158   8.504   7.132  0.4211  0.3254  0.8079
  281MOL0     C37849   7.282   8.209   6.976 -0.1874  0.1462  0.0223
  281MOL0     C37850   7.398   8.128   6.966  0.2743 -0.3476 -0.9157
  281MOL0     N37851   7.880   7.766   7.509  0.4699  0.0534  0.1504
  281MOL0     N37852   7.866   7.800   7.634 -0.4062 -0.2900 -0.1271
  281MOL0     C37853   6.904   8.153   8.314 -0.6783  0.0494 -1.2175
  281MOL0     C37854   6.765   8.148   8.326  0.1489  0.2148  0.0580
  281MOL0     C37855   6.344   8.254   8.464  0.3005 -0.1328 -0.3376
  281MOL0     C37856   6.264   8.254   8.580  0.4174 -0.4138 -0.5507
  281MOL0     C37857   6.127   8.234   8.577  0.0681  0.0088 -0.7822
  281MOL0     C37858   6.061   8.212   8.461  0.3022 -0.1828 -0.2101
  281MOL0     O37859   5.923   8.201   8.467  0.0286 -0.4773 -1.1392
  281MOL0     C37860   5.847   8.182   8.343 -0.6875  0.2223  0.1170
  281MOL0     C37861   5.819   8.311   8.271  0.3598 -0.0095 -0.1769
  281MOL0     C37862   5.692   8.305   8.184  0.0767 -0.4093  0.8264
  281MOL0     C37863   5.677   8.192   8.080  0.1054  0.4051 -0.3824
  281MOL0     C37864   5.794   8.181   7.998 -0.2255  0.0491 -0.6119
  281MOL0     C37865   5.899   8.181   7.940  0.5577 -0.2607  0.2967
  281MOL0     C37866   6.132   8.205   8.345  0.2262  0.5273 -0.0478
  281MOL0     C37867   6.271   8.241   8.340  0.2041  0.0874 -0.6580
  281MOL0     H37868   6.691   8.475   8.307 -0.3368 -0.6958 -0.3297
  281MOL0     H37869   6.937   8.491   8.286  1.4170 -1.2218 -2.0798
  281MOL0     H37870   7.222   8.137   8.301 -2.1835 -2.8071 -1.0203
  281MOL0     H37871   7.137   8.152   8.137  2.0720 -0.9186  0.0249
  281MOL0     H37872   7.261   8.375   8.121  0.8639 -1.2479 -1.9214
  281MOL0     H37873   7.376   8.295   8.242  0.2812  2.1315  0.7075
  281MOL0     H37874   7.373   8.095   8.099 -1.1680 -0.5652 -1.7047
  281MOL0     H37875   7.294   8.179   7.971  3.0344 -2.9170 -1.7563
  281MOL0     H37876   7.510   8.355   8.011 -1.7930  0.7303  1.0014
  281MOL0     H37877   7.576   8.210   8.099  0.9547  0.7999 -0.2086
  281MOL0     H37878   7.505   8.241   7.806 -2.3336 -2.3245  0.6145
  281MOL0     H37879   7.660   8.203   7.882  0.2850 -0.5369  0.1305
  281MOL0     H37880   7.549   7.986   7.965  0.0481  0.2624 -0.0558
  281MOL0     H37881   7.415   8.022   7.857  0.1050 -3.2566  1.2419
  281MOL0     H37882   7.563   7.866   7.741 -0.2720 -0.4448 -2.1749
  281MOL0     H37883   7.557   8.027   7.666 -0.9722  0.3951  0.4494
  281MOL0     H37884   7.799   7.935   7.838 -1.8633  0.8120  1.3956
  281MOL0     H37885   7.789   8.084   7.744 -1.1953  0.4450 -3.7195
  281MOL0     H37886   7.759   8.066   7.468 -0.4728  0.3009  0.0530
  281MOL0     H37887   7.930   7.970   7.251 -0.1108 -0.5015 -0.4896
  281MOL0     H37888   7.932   7.797   7.255  1.9438  0.9078  0.8831
  281MOL0     H37889   7.685   7.982   7.256  2.0012  1.7137 -1.4286
  281MOL0     H37890   7.670   7.804   7.248 -0.1990  1.4168 -1.0790
  281MOL0     H37891   7.748   7.784   7.036 -6.1806 -1.3712  1.1427
  281MOL0     H37892   7.835   7.938   7.027 -0.9088 -0.4881 -2.3325
  281MOL0     H37893   7.535   7.914   7.029  1.1313 -1.1089  2.8286
  281MOL0     H37894   7.638   7.936   6.885 -0.2718  0.4939 -0.0243
  281MOL0     H37895   7.628   8.331   7.093 -0.5022  1.8501 -1.0161
  281MOL0     H37896   7.386   8.586   7.088 -1.4646 -0.8526  0.7104
  281MOL0     H37897   7.439   8.530   7.235  0.8431  1.8812 -0.7761
  281MOL0     H37898   7.556   8.536   7.094  0.2302 -0.6203 -2.2805
  281MOL0     H37899   7.040   8.521   6.771 -1.0550  0.4383 -1.1259
  281MOL0     H37900   6.897   8.715   6.744  0.1014  1.5834  1.2240
  281MOL0     H37901   6.546   8.741   6.978 -0.1193 -0.2479 -1.7950
  281MOL0     H37902   6.573   8.907   7.029  0.6212 -0.4244  1.0046
  281MOL0     H37903   6.411   8.923   6.846  0.1701  2.4019  0.5140
  281MOL0     H37904   6.568   8.985   6.801 -3.6702  1.0765 -1.2549
  281MOL0     H37905   6.639   8.786   6.681  0.3358  2.0419 -0.3535
  281MOL0     H37906   6.472   8.828   6.615 -3.3481  1.0893  1.5535
  281MOL0     H37907   6.544   8.600   6.793  0.2660  0.0928  0.1868
  281MOL0     H37908   6.382   8.670   6.778 -0.8514  1.8727 -0.5536
  281MOL0     H37909   6.571   8.531   6.579 -0.5138  0.2720 -2.2705
  281MOL0     H37910   6.442   8.642   6.518 -2.5353 -1.7279 -0.7159
  281MOL0     H37911   6.376   8.402   6.692 -1.5383 -1.9669 -0.3453
  281MOL0     H37912   6.262   8.515   6.614 -0.0514  2.8031  1.2943
  281MOL0     H37913   6.453   8.322   6.484  0.8916  2.3657 -0.5154
  281MOL0     H37914   6.359   8.444   6.384 -2.3400  0.7728 -0.1736
  281MOL0     H37915   6.251   8.270   6.342  0.1627  0.0578 -0.7112
  281MOL0     H37916   6.141   8.339   6.465 -1.3630 -2.1291 -1.8036
  281MOL0     H37917   6.723   8.642   7.136  0.3444 -1.0550  0.0068
  281MOL0     H37918   6.878   8.444   7.151  0.5212 -0.3431 -0.0958
  281MOL0     H37919   7.187   8.159   6.957  0.1728 -0.8301  0.6811
  281MOL0     H37920   7.376   8.033   6.919 -2.8436  0.1972 -0.7446
  281MOL0     H37921   6.969   8.067   8.326  0.2270  0.8127 -0.5263
  281MOL0     H37922   6.714   8.053   8.333  0.0387 -0.0837 -3.2115
  281MOL0     H37923   6.303   8.276   8.679 -1.0813 -0.0296 -0.0196
  281MOL0     H37924   6.061   8.232   8.663  1.1553 -1.5216  0.0868
  281MOL0     H37925   5.898   8.112   8.277  0.4354 -0.8644  2.0706
  281MOL0     H37926   5.761   8.120   8.370 -1.1429  0.0178 -1.6924
  281MOL0     H37927   5.904   8.348   8.212  1.5647 -2.0673  0.1768
  281MOL0     H37928   5.794   8.388   8.345 -1.1378 -0.2695 -0.3705
  281MOL0     H37929   5.686   8.398   8.127 -0.3229 -0.5140  0.6922
  281MOL0     H37930   5.604   8.292   8.247  0.0970 -1.6886  0.6378
  281MOL0     H37931   5.588   8.204   8.017 -2.5172 -2.8536  2.2926
  281MOL0     H37932   5.663   8.092   8.123  1.6615  0.4856  0.3768
  281MOL0     H37933   5.985   8.180   7.877 -0.1024  1.5836 -0.7031
  281MOL0     H37934   6.085   8.189   8.249 -1.6073  4.6588 -0.0363
  281MOL0     H37935   6.317   8.255   8.243  1.9067 -1.9208 -0.2081
  282MOL0     O37936   5.846   3.744   0.414 -0.5392 -0.3550  0.0590
  282MOL0     C37937   5.890   3.799   0.314 -0.9125  0.5039  0.1127
  282MOL0     O37938   5.839   3.902   0.241 -0.3685  0.3792  0.7599
  282MOL0     C37939   5.707   3.922   0.269 -0.2360  0.0729  0.3433
  282MOL0     C37940   5.600   3.845   0.204  0.2178  0.0947 -0.2119
  282MOL0     C37941   5.469   3.875   0.231 -0.8082  0.2347  0.2542
  282MOL0     C37942   5.439   3.979   0.316  1.1695  0.5377  0.6161
  282MOL0     O37943   5.309   4.017   0.335  0.1631  0.4464  0.5425
  282MOL0     C37944   5.190   3.956   0.271  0.3726 -0.3282 -0.2536
  282MOL0     C37945   5.086   3.959   0.382 -0.0595  0.0372  0.1406
  282MOL0     C37946   4.934   3.954   0.331 -0.0465 -0.1389  0.2944
  282MOL0     C37947   4.912   3.854   0.219  0.6245 -0.8969  1.4056
  282MOL0     C37948   4.761   3.833   0.205  0.0977  0.6421 -0.0500
  282MOL0     C37949   4.742   3.758   0.080 -0.6907  1.1554  0.7625
  282MOL0     C37950   4.591   3.746   0.051  0.2449 -0.3792  0.0286
  282MOL0     C37951   4.506   3.696   0.172  0.0677 -0.2917  0.3953
  282MOL0     N37952   4.359   3.706   0.152 -0.1880 -0.0536 -0.0576
  282MOL0     C37953   4.286   3.823   0.164  0.0711 -0.3121  0.8420
  282MOL0     C37954   4.164   3.782   0.132  0.4280 -0.2674  0.1846
  282MOL0     C37955   4.037   3.862   0.158  0.1002  0.0046 -0.8980
  282MOL0     C37956   3.909   3.784   0.172 -0.3108 -0.1194 -0.2630
  282MOL0     C37957   3.797   3.880   0.230  0.4683 -0.0763  0.1431
  282MOL0     C37958   3.792   3.879   0.383  0.7459 -0.6892 -0.2097
  282MOL0     O37959   3.654   3.881   0.436  0.5332 -0.0506  0.3468
  282MOL0     C37960   3.625   3.893   0.573  0.5351 -0.6456 -0.6146
  282MOL0     C37961   3.714   3.944   0.666 -0.3829  0.4505  1.1321
  282MOL0     C37962   3.680   3.966   0.800 -0.3440 -0.0261  0.8147
  282MOL0     C37963   3.793   4.027   0.882 -0.2870  0.0137 -0.4705
  282MOL0     C37964   3.557   3.922   0.841 -1.1726  0.9643 -0.2971
  282MOL0     C37965   3.509   3.921   0.989  0.4808  0.2972  0.5933
  282MOL0     O37966   3.386   3.875   1.012 -0.5999  0.1884  0.0258
  282MOL0     C37967   3.344   3.872   1.146 -1.0169 -0.2599  0.0101
  282MOL0     C37968   3.271   3.752   1.175  0.4143  0.5930  0.1245
  282MOL0     C37969   3.217   3.740   1.305 -0.0839 -0.0507  0.1236
  282MOL0     C37970   3.213   3.845   1.391 -0.9999  0.0370 -0.0515
  282MOL0     O37971   3.149   3.831   1.511  0.1464  0.2683  0.0342
  282MOL0     C37972   3.234   3.816   1.627 -0.3198 -0.5050  0.2474
  282MOL0     C37973   3.150   3.836   1.752 -0.3914  0.1181  0.3972
  282MOL0     C37974   3.076   3.967   1.771  0.0181  0.8556  0.0881
  282MOL0     C37975   3.028   3.993   1.911  1.5833 -0.1385 -0.9321
  282MOL0     C37976   2.937   4.118   1.923  0.8041  0.7570 -0.1351
  282MOL0     C37977   3.011   4.253   1.904  0.0104 -1.0102 -0.0786
  282MOL0     C37978   3.114   4.296   2.009 -0.6672 -0.0889  0.2754
  282MOL0     C37979   3.181   4.435   1.990  0.2579 -0.8222 -0.4476
  282MOL0    Cl37980   3.258   4.487   2.139 -0.1639  0.1218  0.3445
  282MOL0     C37981   3.284   3.959   1.363 -0.3222 -0.4996  0.8923
  282MOL0     C37982   3.346   3.975   1.242 -0.6056  0.0641 -0.5620
  282MOL0     O37983   3.578   3.984   1.070  0.5590  0.0098  0.2191
  282MOL0     C37984   3.466   3.889   0.750  0.1176  0.3503  0.1269
  282MOL0     C37985   3.487   3.870   0.612 -0.4368  0.4339 -0.2597
  282MOL0     N37986   4.166   3.650   0.088  0.3189  0.4306  0.0969
  282MOL0     N37987   4.287   3.604   0.097 -0.4696  0.4338  0.3412
  282MOL0     C37988   5.533   4.063   0.369 -1.4426  0.4555 -0.4607
  282MOL0     C37989   5.671   4.029   0.354 -0.6426  0.9122 -0.1447
  282MOL0     C37990   6.027   3.758   0.279 -0.0987  0.8131 -0.6741
  282MOL0     C37991   6.090   3.790   0.155 -0.1509  0.3348 -0.1131
  282MOL0     C37992   6.220   3.739   0.137  0.3478  0.5750 -0.0120
  282MOL0     C37993   6.293   3.662   0.232  0.2700  0.2430 -0.5587
  282MOL0     O37994   6.409   3.612   0.180  0.1059  0.8308  0.0476
  282MOL0     C37995   6.522   3.634   0.264  0.3013  0.1892 -0.2930
  282MOL0     C37996   6.658   3.638   0.192  0.0891  1.1918 -0.0976
  282MOL0     C37997   6.656   3.720   0.057  0.2958 -0.5117 -0.1668
  282MOL0     C37998   6.783   3.735  -0.019  0.0430 -0.1172  0.5368
  282MOL0     C37999   6.760   3.750  -0.165 -0.3637  0.1107  0.1523
  282MOL0     C38000   6.747   3.780  -0.281  0.0235 -0.3653 -0.2947
  282MOL0     C38001   6.233   3.648   0.356  0.2473 -0.0999  0.5160
  282MOL0     C38002   6.107   3.697   0.384  0.3679  0.5436  0.4667
  282MOL0     H38003   5.608   3.760   0.138 -1.7389  1.7410 -2.8091
  282MOL0     H38004   5.399   3.811   0.178  2.6082 -0.6881 -3.6062
  282MOL0     H38005   5.147   4.016   0.191 -0.4772  1.9203  1.7932
  282MOL0     H38006   5.211   3.851   0.249 -0.7545 -0.4378 -0.8854
  282MOL0     H38007   5.099   3.864   0.434 -2.5357 -1.7960 -2.2381
  282MOL0     H38008   5.098   4.051   0.440  3.7326 -0.0996 -0.1745
  282MOL0     H38009   4.865   3.947   0.416  0.6156  3.5701  1.3190
  282MOL0     H38010   4.908   4.051   0.289 -0.7416 -1.5789 -2.9339
  282MOL0     H38011   4.942   3.887   0.119  2.8553 -2.7486  1.3818
  282MOL0     H38012   4.956   3.756   0.240  0.0108 -1.4469  0.2627
  282MOL0     H38013   4.726   3.776   0.291  2.1277 -0.6113 -0.0091
  282MOL0     H38014   4.699   3.923   0.195 -1.4265 -0.1839  1.3483
  282MOL0     H38015   4.765   3.816  -0.010  0.7525 -1.6748 -0.8417
  282MOL0     H38016   4.787   3.658   0.078  1.4187  1.9111  3.6268
  282MOL0     H38017   4.540   3.840   0.027  0.5636 -0.7029 -2.0542
  282MOL0     H38018   4.566   3.685  -0.036  0.0684 -0.9637  0.4860
  282MOL0     H38019   4.536   3.743   0.266  1.1702 -0.1142 -0.0253
  282MOL0     H38020   4.526   3.590   0.190  0.4260 -0.2313  0.3674
  282MOL0     H38021   4.319   3.917   0.205  0.6356  0.0223 -0.3331
  282MOL0     H38022   4.040   3.906   0.258 -0.0393 -1.6112 -0.1584
  282MOL0     H38023   4.026   3.939   0.081 -0.9080 -1.9845 -2.8486
  282MOL0     H38024   3.922   3.701   0.242 -0.6183  0.3524  0.3626
  282MOL0     H38025   3.878   3.764   0.068 -0.2602  2.4521 -0.8260
  282MOL0     H38026   3.707   3.830   0.193  1.4723 -1.4332 -0.5548
  282MOL0     H38027   3.795   3.979   0.183  1.6404 -0.4624 -0.7702
  282MOL0     H38028   3.849   3.966   0.417 -0.9935  0.4669 -0.1404
  282MOL0     H38029   3.844   3.787   0.412 -1.2211 -1.7147  0.2295
  282MOL0     H38030   3.819   3.958   0.642 -0.3463  1.7417  1.9363
  282MOL0     H38031   3.888   4.012   0.829 -0.6617 -3.0887 -0.4465
  282MOL0     H38032   3.778   4.135   0.892  2.0241  0.2977  0.5922
  282MOL0     H38033   3.808   3.974   0.976  0.7508  1.1517  0.0190
  282MOL0     H38034   3.245   3.669   1.110  3.0872 -0.7059  0.5591
  282MOL0     H38035   3.172   3.648   1.338 -0.4810  0.0909 -0.0162
  282MOL0     H38036   3.282   3.718   1.633  0.1575 -0.2488  0.6587
  282MOL0     H38037   3.316   3.887   1.633 -0.7923  0.4378 -2.7748
  282MOL0     H38038   3.077   3.757   1.730  1.0563 -0.6588 -1.9554
  282MOL0     H38039   3.209   3.821   1.843 -2.4847  0.9441  1.9702
  282MOL0     H38040   2.989   3.968   1.705 -0.3010 -2.8015  0.2846
  282MOL0     H38041   3.147   4.045   1.741  1.2712 -0.6401 -0.9357
  282MOL0     H38042   2.975   3.902   1.942  1.9473 -0.0242  0.0761
  282MOL0     H38043   3.105   4.000   1.988 -0.4574 -1.2463  1.3493
  282MOL0     H38044   2.896   4.120   2.024 -1.6554 -1.9537 -0.9339
  282MOL0     H38045   2.859   4.116   1.846  3.2644 -0.6168 -2.7648
  282MOL0     H38046   3.057   4.254   1.805  0.0180 -1.1122 -0.0760
  282MOL0     H38047   2.928   4.324   1.915 -0.3042 -1.4647  0.5619
  282MOL0     H38048   3.192   4.225   2.035  1.2663  2.5993  2.4469
  282MOL0     H38049   3.069   4.297   2.109  1.0341  0.2775  1.0597
  282MOL0     H38050   3.107   4.511   1.963  0.0913 -0.3736  1.1792
  282MOL0     H38051   3.259   4.433   1.914 -0.2186  0.7571 -1.0105
  282MOL0     H38052   3.297   4.037   1.438  3.5749 -1.9171  1.8931
  282MOL0     H38053   3.388   4.072   1.216 -3.3762  0.8848 -2.3375
  282MOL0     H38054   3.367   3.864   0.787  0.3471 -1.1849 -0.2080
  282MOL0     H38055   3.415   3.829   0.542 -0.5214 -0.7594  0.4943
  282MOL0     H38056   5.513   4.152   0.427  0.1461  1.6353 -1.6149
  282MOL0     H38057   5.750   4.082   0.406  0.8784 -1.8761  0.6019
  282MOL0     H38058   6.049   3.838   0.066  3.8850 -0.6368 -2.7640
  282MOL0     H38059   6.266   3.759   0.041  0.6670 -1.7260 -0.3930
  282MOL0     H38060   6.507   3.733   0.310 -1.5892  0.4945 -1.4562
  282MOL0     H38061   6.517   3.553   0.336  0.3501 -0.2832 -0.8139
  282MOL0     H38062   6.689   3.534   0.184 -1.8644  0.1419  3.6967
  282MOL0     H38063   6.733   3.684   0.257  0.5322  0.4979 -0.1073
  282MOL0     H38064   6.626   3.823   0.080  0.3435  0.4985 -3.9614
  282MOL0     H38065   6.574   3.685  -0.007 -0.7581  1.0372  0.2662
  282MOL0     H38066   6.835   3.640  -0.001  2.8884  0.8303 -1.8758
  282MOL0     H38067   6.840   3.822   0.017  0.1843 -0.9708  2.5229
  282MOL0     H38068   6.762   3.800  -0.385  2.1111 -2.2617 -0.4290
  282MOL0     H38069   6.291   3.593   0.430  3.2491  1.0708 -0.8099
  282MOL0     H38070   6.065   3.690   0.484 -0.7749  0.1508 -0.0260
  283MOL0     O38071   0.474   2.279   1.436  0.3035  0.0973 -0.5233
  283MOL0     C38072   0.425   2.214   1.529 -0.3669  0.3985 -1.1091
  283MOL0     O38073   0.288   2.187   1.548  0.1227 -0.0156  0.2838
  283MOL0     C38074   0.181   2.270   1.507  0.2611 -0.1882  0.4633
  283MOL0     C38075   0.051   2.217   1.504 -0.6889 -0.2233 -0.0391
  283MOL0     C38076  -0.063   2.299   1.469  0.2991  0.7589 -0.5248
  283MOL0     C38077  -0.047   2.430   1.434 -0.5707  0.1330  0.6414
  283MOL0     O38078  -0.155   2.511   1.420  0.1276  0.3647  0.1157
  283MOL0     C38079  -0.150   2.649   1.389 -1.1062  0.0675 -0.3509
  283MOL0     C38080  -0.286   2.699   1.345  0.4543  0.8672 -0.2696
  283MOL0     C38081  -0.387   2.686   1.458 -0.8933 -0.5351 -0.1081
  283MOL0     C38082  -0.527   2.740   1.418 -0.1600 -0.3268 -0.4492
  283MOL0     C38083  -0.620   2.722   1.534  0.2085 -0.0791 -0.3389
  283MOL0     C38084  -0.755   2.775   1.499  0.0657  0.1977  0.3913
  283MOL0     C38085  -0.846   2.748   1.617  0.1654 -0.0738 -0.1416
  283MOL0     C38086  -0.830   2.842   1.732 -0.1433 -0.6026  0.3576
  283MOL0     N38087  -0.930   2.815   1.838 -0.4703 -0.5800 -0.2274
  283MOL0     C38088  -1.049   2.880   1.849 -0.1352 -0.2068 -0.6899
  283MOL0     C38089  -1.113   2.831   1.955 -0.5643 -0.0226  0.2185
  283MOL0     C38090  -1.250   2.868   2.012 -0.1655  0.4166 -0.2336
  283MOL0     C38091  -1.287   2.812   2.147 -0.5440 -0.0036  0.0043
  283MOL0     C38092  -1.409   2.880   2.197 -0.5631 -0.1395 -0.1111
  283MOL0     C38093  -1.389   3.000   2.298 -0.5572  0.7836  0.2461
  283MOL0     O38094  -1.509   3.045   2.372 -0.4863 -0.3957 -0.4320
  283MOL0     C38095  -1.613   3.094   2.296  0.3515 -0.6194  0.0691
  283MOL0     C38096  -1.616   3.138   2.160 -0.3493  0.1566 -0.1673
  283MOL0     C38097  -1.736   3.184   2.105 -0.3895 -0.5221 -0.5177
  283MOL0     C38098  -1.728   3.226   1.963 -0.0484  0.3241 -0.1876
  283MOL0     C38099  -1.858   3.191   2.177  0.4113  0.4144  0.0046
  283MOL0     C38100  -1.991   3.230   2.108  0.3156 -0.5556  0.0188
  283MOL0     O38101  -2.098   3.246   2.195 -0.1213 -0.0112  1.1020
  283MOL0     C38102  -2.191   3.341   2.152 -0.2403 -1.1647 -0.4685
  283MOL0     C38103  -2.160   3.445   2.063 -0.4616 -0.4754  0.8733
  283MOL0     C38104  -2.261   3.539   2.033  0.3999  0.1732  0.2386
  283MOL0     C38105  -2.387   3.541   2.096  0.3902 -0.2729 -0.0494
  283MOL0     O38106  -2.481   3.627   2.044 -0.4563 -0.1440  0.2690
  283MOL0     C38107  -2.619   3.594   2.044  0.1409 -0.5953  0.1615
  283MOL0     C38108  -2.644   3.479   1.963 -0.1524  0.3259  0.8186
  283MOL0     C38109  -2.803   3.455   1.948 -0.4021 -0.7870  0.2129
  283MOL0     C38110  -2.829   3.328   1.874  0.2164 -0.8698  1.1017
  283MOL0     C38111  -2.944   3.323   1.778 -0.4198  0.0022 -0.4814
  283MOL0     C38112  -2.940   3.416   1.661  0.1983  0.2855 -0.2614
  283MOL0     C38113  -3.067   3.389   1.574  0.1857 -0.8933 -0.6770
  283MOL0     C38114  -3.093   3.506   1.474 -0.1112 -0.3928 -0.0399
  283MOL0    Cl38115  -2.959   3.515   1.357  0.0717  0.5345  0.0048
  283MOL0     C38116  -2.413   3.445   2.193  0.3041 -0.7082  0.0716
  283MOL0     C38117  -2.310   3.349   2.220 -0.4417 -0.1842 -0.0338
  283MOL0     O38118  -2.006   3.218   1.986 -0.2425  0.2733  0.6371
  283MOL0     C38119  -1.852   3.157   2.312  0.2318 -0.9425 -0.9142
  283MOL0     C38120  -1.733   3.116   2.369  0.5424  0.3414  0.4623
  283MOL0     N38121  -1.019   2.755   2.021  0.2847  0.1358 -0.1607
  283MOL0     N38122  -0.913   2.733   1.948  0.3760 -1.1399  1.1421
  283MOL0     C38123   0.088   2.477   1.434  0.1828 -0.1385  1.4174
  283MOL0     C38124   0.193   2.402   1.476  0.3409 -0.1277  1.1608
  283MOL0     C38125   0.520   2.151   1.632 -0.5231 -0.9930 -0.2210
  283MOL0     C38126   0.478   2.088   1.748  0.9583  0.7889 -0.8282
  283MOL0     C38127   0.561   2.025   1.840 -0.2982  0.4294  0.1782
  283MOL0     C38128   0.699   2.023   1.823  0.0303  0.1046  0.0177
  283MOL0     O38129   0.787   1.952   1.905  0.0977 -0.2473 -0.2431
  283MOL0     C38130   0.746   1.942   2.050  0.0652 -0.0895 -0.5755
  283MOL0     C38131   0.693   1.806   2.088  0.0173  0.2436  0.6927
  283MOL0     C38132   0.778   1.684   2.042 -0.7203 -0.2808 -0.3310
  283MOL0     C38133   0.731   1.630   1.914 -0.5415  0.8896 -0.1024
  283MOL0     C38134   0.729   1.481   1.927 -0.0409 -0.0012 -1.1946
  283MOL0     C38135   0.735   1.362   1.936 -0.1845  0.3930  0.1690
  283MOL0     C38136   0.742   2.090   1.711 -0.4296 -0.2307  0.6991
  283MOL0     C38137   0.655   2.153   1.616  0.5563 -0.4217 -1.5871
  283MOL0     H38138   0.049   2.117   1.545  2.1776  0.1982  1.3706
  283MOL0     H38139  -0.165   2.262   1.475  0.3893  0.6926  1.0418
  283MOL0     H38140  -0.110   2.701   1.476 -3.1707 -0.7462  1.1453
  283MOL0     H38141  -0.080   2.664   1.306 -0.8612 -0.5327 -0.2610
  283MOL0     H38142  -0.278   2.805   1.318  0.1531  1.5046  1.9309
  283MOL0     H38143  -0.321   2.637   1.262  0.9188  0.4476 -0.1581
  283MOL0     H38144  -0.382   2.583   1.495  1.3042 -0.7329 -0.8061
  283MOL0     H38145  -0.343   2.739   1.543 -1.3959 -2.3031  1.3246
  283MOL0     H38146  -0.513   2.846   1.398  3.5563 -0.5874 -0.0329
  283MOL0     H38147  -0.561   2.690   1.328 -1.3970  1.4845 -1.0314
  283MOL0     H38148  -0.622   2.616   1.559  0.3070  0.4515  2.1815
  283MOL0     H38149  -0.575   2.771   1.621  2.1172 -1.3637 -0.5457
  283MOL0     H38150  -0.750   2.882   1.481  0.7596  0.3655  1.4888
  283MOL0     H38151  -0.771   2.727   1.402  0.8401 -1.8690  1.2225
  283MOL0     H38152  -0.942   2.759   1.566  0.4183 -0.0336 -0.6129
  283MOL0     H38153  -0.841   2.644   1.652  0.0064  0.4799  1.6267
  283MOL0     H38154  -0.849   2.940   1.687  2.0079 -1.6477 -3.2892
  283MOL0     H38155  -0.728   2.846   1.772  0.2034  1.6526 -0.5951
  283MOL0     H38156  -1.088   2.947   1.774 -0.0030  0.3201 -0.2922
  283MOL0     H38157  -1.257   2.977   2.020 -3.0601  0.1980  1.5422
  283MOL0     H38158  -1.311   2.834   1.929 -0.0711 -1.6495  0.4846
  283MOL0     H38159  -1.205   2.842   2.213 -0.6823  0.4069 -0.0057
  283MOL0     H38160  -1.296   2.703   2.151  0.4629 -0.0751  2.6770
  283MOL0     H38161  -1.462   2.804   2.255  0.8754  0.0482  1.5322
  283MOL0     H38162  -1.464   2.907   2.106 -0.0887  0.1001 -0.3366
  283MOL0     H38163  -1.343   3.084   2.244  0.8634 -1.1702 -1.7473
  283MOL0     H38164  -1.322   2.962   2.375 -0.7045 -0.9324 -0.4278
  283MOL0     H38165  -1.528   3.145   2.097  0.4638  0.8669  0.9953
  283MOL0     H38166  -1.766   3.151   1.892  5.0995 -0.1380 -2.9494
  283MOL0     H38167  -1.775   3.322   1.939  1.4744  0.7953 -1.4277
  283MOL0     H38168  -1.624   3.250   1.941 -0.6039  1.6142 -1.6576
  283MOL0     H38169  -2.064   3.470   2.019 -0.1854  2.9634  3.0449
  283MOL0     H38170  -2.243   3.618   1.961 -1.0480 -0.0564 -0.3974
  283MOL0     H38171  -2.651   3.556   2.142 -1.6495 -2.0448 -0.9103
  283MOL0     H38172  -2.681   3.677   2.010 -1.6328 -0.9825  2.2033
  283MOL0     H38173  -2.604   3.486   1.862 -1.5381 -0.1953  0.2122
  283MOL0     H38174  -2.594   3.395   2.013 -0.0193 -2.4613 -3.4957
  283MOL0     H38175  -2.846   3.542   1.897  0.5752  1.7531  3.4059
  283MOL0     H38176  -2.861   3.442   2.040 -2.4253  1.7469 -0.5937
  283MOL0     H38177  -2.735   3.304   1.824  1.0299 -1.1059  2.6640
  283MOL0     H38178  -2.845   3.248   1.946  1.1626 -0.7827  1.4192
  283MOL0     H38179  -3.036   3.350   1.831  0.4950  1.6177  0.3615
  283MOL0     H38180  -2.944   3.219   1.744  0.0821 -0.2632  0.2872
  283MOL0     H38181  -2.948   3.518   1.702  0.4867 -0.6264  2.2468
  283MOL0     H38182  -2.853   3.406   1.596  0.7301  4.0351 -0.3760
  283MOL0     H38183  -3.159   3.366   1.628  0.7117 -1.7637 -0.1410
  283MOL0     H38184  -3.054   3.295   1.520 -1.9820 -1.1410 -0.8576
  283MOL0     H38185  -3.093   3.605   1.522  1.9712  0.2432 -1.2012
  283MOL0     H38186  -3.187   3.495   1.420  1.2612 -0.2713 -2.5663
  283MOL0     H38187  -2.506   3.440   2.250  1.1194  0.5543  1.5662
  283MOL0     H38188  -2.331   3.277   2.298  2.5444  0.8097  1.8586
  283MOL0     H38189  -1.940   3.176   2.372 -0.4054 -0.2976 -2.0015
  283MOL0     H38190  -1.731   3.087   2.474  0.5396  1.5688  0.8190
  283MOL0     H38191   0.104   2.579   1.402  2.8470 -0.4148  1.6851
  283MOL0     H38192   0.292   2.447   1.470  0.2613 -0.1635 -2.6912
  283MOL0     H38193   0.371   2.100   1.763  0.8977  0.6999 -1.1988
  283MOL0     H38194   0.509   1.968   1.917 -0.8753 -0.0429 -0.5425
  283MOL0     H38195   0.833   1.970   2.109  1.2729 -0.9374 -1.8716
  283MOL0     H38196   0.673   2.015   2.085 -0.0992 -0.8777  0.8057
  283MOL0     H38197   0.590   1.790   2.054  0.3851 -1.4709  0.2950
  283MOL0     H38198   0.698   1.807   2.197  3.9397  1.6371  0.6500
  283MOL0     H38199   0.770   1.615   2.126 -0.1681 -0.0629 -0.0979
  283MOL0     H38200   0.883   1.712   2.031 -0.7829 -0.1984 -0.7384
  283MOL0     H38201   0.790   1.661   1.827  1.0238 -0.9357  0.2408
  283MOL0     H38202   0.629   1.660   1.889 -0.7895  1.0276  1.0050
  283MOL0     H38203   0.731   1.256   1.941 -2.0081  0.4276 -0.0252
  283MOL0     H38204   0.848   2.096   1.689 -0.0277  1.3829  2.7357
  283MOL0     H38205   0.693   2.209   1.532 -1.2429  0.0659 -2.1302
  284MOL0     O38206   9.901   7.175   0.641  0.1921 -0.2445 -0.3837
  284MOL0     C38207   9.943   7.058   0.660  0.4348  0.7874  0.6124
  284MOL0     O38208   9.864   6.947   0.658 -0.2658 -0.2602 -0.0237
  284MOL0     C38209   9.728   6.959   0.655 -0.4017 -0.1319 -0.2768
  284MOL0     C38210   9.655   6.988   0.534 -0.6386  0.9178 -0.7867
  284MOL0     C38211   9.516   6.985   0.534  0.3568  0.3104 -0.2914
  284MOL0     C38212   9.448   6.959   0.654  0.1030  0.2257 -0.4085
  284MOL0     O38213   9.310   6.948   0.665 -1.0609  0.2098  0.7490
  284MOL0     C38214   9.255   6.875   0.555  0.1581 -0.7124 -0.2964
  284MOL0     C38215   9.098   6.855   0.590 -0.0007  0.3900  0.0654
  284MOL0     C38216   9.024   6.991   0.587  0.1107 -0.4196 -0.5243
  284MOL0     C38217   8.878   6.957   0.556  0.1161  0.3469  0.7651
  284MOL0     C38218   8.801   7.089   0.523 -0.1337  0.2837 -0.2792
  284MOL0     C38219   8.657   7.053   0.475  0.6372 -0.4341 -0.1069
  284MOL0     C38220   8.594   7.167   0.408  0.3816 -0.2046  0.1480
  284MOL0     C38221   8.442   7.136   0.384  0.5010  0.6306  0.5282
  284MOL0     N38222   8.433   7.041   0.271  0.4812  0.1437 -0.3721
  284MOL0     C38223   8.346   6.935   0.275 -0.2987 -0.4316 -0.1252
  284MOL0     C38224   8.333   6.884   0.151 -0.0437 -0.3018 -0.0402
  284MOL0     C38225   8.254   6.762   0.114  0.5677 -0.7606 -0.9864
  284MOL0     C38226   8.135   6.790   0.021 -0.6714  0.4788  0.1680
  284MOL0     C38227   8.033   6.873   0.099  0.1577  0.3276  0.9856
  284MOL0     C38228   7.907   6.890   0.025 -0.0062 -0.3569  0.0782
  284MOL0     O38229   7.811   6.796   0.070  0.0879  0.8982 -0.3837
  284MOL0     C38230   7.675   6.825   0.056  0.0059 -0.7635  0.9072
  284MOL0     C38231   7.616   6.912  -0.040 -0.3233 -0.8789 -0.4126
  284MOL0     C38232   7.476   6.916  -0.054 -0.5553 -0.4243  0.3614
  284MOL0     C38233   7.437   7.027  -0.146  1.1208 -0.7440 -0.2712
  284MOL0     C38234   7.390   6.825   0.018  0.2599 -0.0450 -0.3496
  284MOL0     C38235   7.248   6.830  -0.007 -0.6512  1.0901  0.3677
  284MOL0     O38236   7.170   6.864   0.097  0.1492  0.0712 -0.1912
  284MOL0     C38237   7.039   6.895   0.074  0.8318 -0.3382 -0.2502
  284MOL0     C38238   6.933   6.792   0.086 -1.0991 -0.2637  0.4711
  284MOL0     C38239   6.801   6.816   0.037  0.0068 -0.0298 -0.9352
  284MOL0     C38240   6.766   6.944  -0.017 -0.1953  0.0769  0.4477
  284MOL0     O38241   6.644   6.980  -0.073 -0.3314  0.4439  0.5447
  284MOL0     C38242   6.570   6.876  -0.139 -0.3027 -0.0897  0.1255
  284MOL0     C38243   6.431   6.928  -0.146 -0.1917 -0.0884  0.7490
  284MOL0     C38244   6.362   6.963  -0.008 -0.7752  0.2241  0.5247
  284MOL0     C38245   6.232   7.024  -0.039  0.4996 -0.2731 -0.1285
  284MOL0     C38246   6.181   7.081   0.089 -0.7190  1.5153  0.5713
  284MOL0     C38247   6.050   7.153   0.078 -0.4872 -0.0023  0.1335
  284MOL0     C38248   5.932   7.053   0.058 -0.2926  0.1838 -0.1723
  284MOL0     C38249   5.796   7.110   0.081 -0.1443  0.4428  0.2998
  284MOL0    Cl38250   5.755   7.107   0.253 -0.0008 -0.7059 -0.1171
  284MOL0     C38251   6.864   7.046  -0.003  0.6265 -0.4060 -0.1735
  284MOL0     C38252   6.997   7.024   0.045  0.0648  0.5553  0.2063
  284MOL0     O38253   7.205   6.803  -0.121 -0.4592  1.3627  0.5648
  284MOL0     C38254   7.452   6.738   0.113  0.2085 -0.5522  0.7612
  284MOL0     C38255   7.588   6.748   0.134  0.1355 -0.2170  1.0667
  284MOL0     N38256   8.419   6.960   0.064  0.3543  0.6339  0.2076
  284MOL0     N38257   8.477   7.052   0.138 -1.1001  0.1974  0.2538
  284MOL0     C38258   9.515   6.945   0.773  0.6573 -0.5961 -0.1530
  284MOL0     C38259   9.657   6.940   0.770 -0.4995 -0.2848  0.4485
  284MOL0     C38260  10.084   7.033   0.671  0.0547 -0.6659  0.2984
  284MOL0     C38261  10.124   6.935   0.757  0.2718  0.5846  0.2088
  284MOL0     C38262  10.258   6.936   0.800 -0.3281 -0.0685  0.2181
  284MOL0     C38263  10.351   7.026   0.742 -0.0397 -0.6033 -0.7075
  284MOL0     O38264  10.477   7.017   0.803  0.2912  0.4638  0.4070
  284MOL0     C38265  10.583   7.111   0.772 -0.0753 -0.0247  0.2352
  284MOL0     C38266  10.598   7.193   0.896 -0.2088  0.3735  0.8869
  284MOL0     C38267  10.487   7.301   0.897 -0.5055  0.4389 -0.1839
  284MOL0     C38268  10.518   7.411   0.997  0.9463  0.3784  0.0600
  284MOL0     C38269  10.407   7.509   1.005  0.1989 -0.8618  0.2405
  284MOL0     C38270  10.312   7.587   0.983 -0.8461  0.0130  0.5310
  284MOL0     C38271  10.315   7.110   0.641 -0.6889 -0.5287  0.5200
  284MOL0     C38272  10.181   7.109   0.609  0.5134  0.4542 -0.0698
  284MOL0     H38273   9.721   7.007   0.450  1.1829 -1.1033  0.0952
  284MOL0     H38274   9.470   7.011   0.440  0.2926  0.2587 -0.2741
  284MOL0     H38275   9.271   6.928   0.461  0.1745  2.6909  1.4558
  284MOL0     H38276   9.301   6.776   0.544  0.4413 -0.4735 -1.3255
  284MOL0     H38277   9.068   6.805   0.497 -0.4518 -0.1594  0.5019
  284MOL0     H38278   9.075   6.800   0.682 -0.6399  1.8904  0.8379
  284MOL0     H38279   9.018   7.027   0.690  2.5085 -0.1735 -0.4067
  284MOL0     H38280   9.061   7.072   0.522 -0.9972  2.6485  2.3926
  284MOL0     H38281   8.878   6.897   0.465  1.2009  0.7756  0.4670
  284MOL0     H38282   8.826   6.898   0.632 -1.3622 -0.8423 -1.0994
  284MOL0     H38283   8.813   7.144   0.617  0.4912  1.2928 -0.9371
  284MOL0     H38284   8.845   7.144   0.440 -1.8855  1.3461 -0.5585
  284MOL0     H38285   8.653   6.967   0.408  1.3023 -0.5099 -0.0558
  284MOL0     H38286   8.604   7.047   0.571 -0.1862  3.5784 -0.1314
  284MOL0     H38287   8.619   7.253   0.471  1.6767 -0.0263 -0.5590
  284MOL0     H38288   8.642   7.180   0.311  1.1627  1.0263  0.6783
  284MOL0     H38289   8.394   7.233   0.364  2.0121  1.3268  0.1384
  284MOL0     H38290   8.395   7.095   0.474  0.0969  1.3282  0.6489
  284MOL0     H38291   8.309   6.878   0.359  0.2569  0.2758  0.6193
  284MOL0     H38292   8.320   6.690   0.065 -0.7385 -2.1960 -0.7092
  284MOL0     H38293   8.220   6.721   0.209 -1.3146 -0.3884 -1.4547
  284MOL0     H38294   8.083   6.702  -0.017 -0.2990  0.1747  0.3562
  284MOL0     H38295   8.177   6.844  -0.065 -1.5044 -1.7445 -1.7449
  284MOL0     H38296   8.076   6.972   0.116  2.2622 -0.6864  2.0208
  284MOL0     H38297   8.018   6.826   0.196  2.8422 -1.6511  0.5694
  284MOL0     H38298   7.926   6.882  -0.082  3.5504  0.3054  0.5583
  284MOL0     H38299   7.875   6.995   0.029  2.6575  0.4897  2.2317
  284MOL0     H38300   7.680   6.974  -0.102 -2.1668  0.5500 -0.9643
  284MOL0     H38301   7.448   6.985  -0.246 -0.8076  1.2197 -1.3861
  284MOL0     H38302   7.338   7.069  -0.128  1.3392 -0.2715 -0.1466
  284MOL0     H38303   7.497   7.118  -0.142 -4.1170  3.1521  0.2271
  284MOL0     H38304   6.952   6.687   0.104 -2.3245 -0.7743 -1.0425
  284MOL0     H38305   6.721   6.743   0.029 -1.8436  1.6911  0.6914
  284MOL0     H38306   6.610   6.859  -0.239 -1.9840 -1.7881 -0.3248
  284MOL0     H38307   6.550   6.785  -0.082  0.5041 -0.7869 -0.7006
  284MOL0     H38308   6.432   7.019  -0.206  1.4751 -0.0835  0.7452
  284MOL0     H38309   6.362   6.872  -0.210  0.0219  0.5723 -0.0817
  284MOL0     H38310   6.427   7.034   0.044  1.6201 -0.7385 -0.9454
  284MOL0     H38311   6.344   6.874   0.054  1.2423 -0.3486  0.3595
  284MOL0     H38312   6.256   7.103  -0.111 -2.8051  0.9439 -0.0731
  284MOL0     H38313   6.157   6.959  -0.086  0.9596 -0.4595 -0.6176
  284MOL0     H38314   6.260   7.151   0.120 -2.1668  2.0963  3.1952
  284MOL0     H38315   6.169   7.006   0.167 -1.3746  2.5253  1.4647
  284MOL0     H38316   6.027   7.208   0.169 -1.9425  2.0406 -1.3728
  284MOL0     H38317   6.037   7.225  -0.004 -0.9301  1.0268  1.0896
  284MOL0     H38318   5.952   6.963   0.117 -1.0973  0.1608  0.0660
  284MOL0     H38319   5.923   7.011  -0.043 -2.5649  0.0335  0.0510
  284MOL0     H38320   5.721   7.047   0.034 -2.2233  1.9022  1.4775
  284MOL0     H38321   5.792   7.212   0.043  2.9061 -0.1277 -1.9068
  284MOL0     H38322   6.844   7.151  -0.021  0.3239  0.7165  5.1380
  284MOL0     H38323   7.061   7.112   0.049  0.6505  0.1132  0.8347
  284MOL0     H38324   7.386   6.682   0.179 -0.3435 -2.3522 -1.1775
  284MOL0     H38325   7.631   6.680   0.207 -0.2638  0.4324  1.9295
  284MOL0     H38326   9.458   6.927   0.864  4.4731 -2.8631  2.0549
  284MOL0     H38327   9.697   6.912   0.867  0.7254  0.7590  0.2752
  284MOL0     H38328  10.062   6.873   0.822  5.0414  1.2051  6.3182
  284MOL0     H38329  10.297   6.882   0.886 -0.9249 -0.4762  0.2363
  284MOL0     H38330  10.680   7.062   0.764  0.5665  1.3383 -0.8299
  284MOL0     H38331  10.575   7.180   0.688  1.5255  0.1266  0.1696
  284MOL0     H38332  10.698   7.237   0.890 -0.2133  0.3227  0.3663
  284MOL0     H38333  10.608   7.129   0.984  0.2365 -1.2755 -0.3053
  284MOL0     H38334  10.397   7.246   0.926  1.4834 -1.7390  2.3610
  284MOL0     H38335  10.461   7.349   0.802 -0.8416  3.5317  1.3178
  284MOL0     H38336  10.599   7.480   0.975  0.1710  2.0155  1.9668
  284MOL0     H38337  10.544   7.374   1.097  0.8256  0.1803  0.0217
  284MOL0     H38338  10.236   7.662   0.972 -2.2621 -0.9090  3.1259
  284MOL0     H38339  10.385   7.166   0.579 -0.8417 -2.4211 -1.5103
  284MOL0     H38340  10.144   7.181   0.537  1.4007 -0.8760 -1.9475
  285MOL0     O38341  10.342   4.764   9.418  0.6252  0.3518 -0.2036
  285MOL0     C38342  10.351   4.862   9.497 -0.3744  0.0361  0.2514
  285MOL0     O38343  10.255   4.928   9.557 -0.4116  0.0627  0.2862
  285MOL0     C38344  10.118   4.907   9.534 -0.4312 -0.2552  0.6152
  285MOL0     C38345  10.039   4.872   9.640  0.0302  0.0883  0.2300
  285MOL0     C38346   9.902   4.866   9.626 -0.6226 -0.1721 -0.5160
  285MOL0     C38347   9.834   4.879   9.504 -0.1314  0.2644 -0.2253
  285MOL0     O38348   9.698   4.862   9.475 -0.0264  0.5610 -0.0639
  285MOL0     C38349   9.604   4.815   9.578 -0.5494 -0.5157 -1.1387
  285MOL0     C38350   9.458   4.798   9.533 -0.6739 -1.0338  0.2595
  285MOL0     C38351   9.400   4.942   9.488  0.2769 -0.2243 -0.1875
  285MOL0     C38352   9.304   5.003   9.597 -0.3821 -0.8483  0.0719
  285MOL0     C38353   9.205   5.112   9.558 -0.1961 -0.8257  0.3594
  285MOL0     C38354   9.109   5.173   9.664  0.3761  0.5309  0.3402
  285MOL0     C38355   9.182   5.289   9.739  0.5598  0.2250  1.1675
  285MOL0     C38356   9.183   5.431   9.662  0.5072  0.1116 -0.3065
  285MOL0     N38357   9.211   5.536   9.755 -0.4770  0.0573 -0.7763
  285MOL0     C38358   9.332   5.574   9.808  0.1668  0.1245 -0.8774
  285MOL0     C38359   9.321   5.693   9.876  0.1485  0.5517 -0.2658
  285MOL0     C38360   9.430   5.775   9.926  1.1010  0.6310 -0.1941
  285MOL0     C38361   9.551   5.777   9.828 -0.2654  0.3296 -1.1374
  285MOL0     C38362   9.679   5.821   9.899  0.0214  0.4918  0.3178
  285MOL0     C38363   9.802   5.770   9.826 -0.1832  0.7956  0.8271
  285MOL0     O38364   9.908   5.805   9.911 -0.1847 -0.0941  0.0288
  285MOL0     C38365  10.037   5.774   9.873  0.8060 -0.1272  0.2515
  285MOL0     C38366  10.061   5.712   9.748  0.3832  0.0157 -0.8597
  285MOL0     C38367  10.191   5.679   9.707 -0.5004  0.6766  0.1106
  285MOL0     C38368  10.210   5.597   9.581 -0.0719  1.0332 -0.1134
  285MOL0     C38369  10.295   5.719   9.799 -0.8089 -0.2968  1.3105
  285MOL0     C38370  10.439   5.694   9.762 -0.2746  0.1608  0.0931
  285MOL0     O38371  10.530   5.692   9.868 -0.2841  0.5362  0.4459
  285MOL0     C38372  10.666   5.687   9.854 -0.0670 -0.0743 -0.2152
  285MOL0     C38373  10.742   5.695   9.736  0.4900 -0.0838  0.4340
  285MOL0     C38374  10.881   5.701   9.741 -0.3179  0.1043 -0.3243
  285MOL0     C38375  10.953   5.678   9.865 -0.2046 -0.9978  0.2464
  285MOL0     O38376  11.085   5.670   9.856  0.4392 -0.4946  0.0179
  285MOL0     C38377  11.164   5.677   9.974  0.0307 -0.3040  0.2224
  285MOL0     C38378  11.312   5.690   9.933 -0.4520 -0.3992  0.4663
  285MOL0     C38379  11.410   5.624  10.032 -0.2607  0.6259  0.3648
  285MOL0     C38380  11.552   5.617   9.973 -0.6848 -0.3234 -0.7444
  285MOL0     C38381  11.584   5.476   9.926  0.4343 -0.5215  0.0277
  285MOL0     C38382  11.729   5.463   9.880  0.0148  0.3005  0.3092
  285MOL0     C38383  11.763   5.324   9.812 -0.2159 -0.4033  0.1120
  285MOL0     C38384  11.752   5.219   9.919  0.6282  0.1548 -0.0298
  285MOL0    Cl38385  11.819   5.064   9.868  0.1002  0.0411  0.3404
  285MOL0     C38386  10.878   5.672   9.983 -0.1579 -0.2428  0.1627
  285MOL0     C38387  10.734   5.669   9.975 -0.0644 -1.0161 -0.1381
  285MOL0     O38388  10.469   5.703   9.645 -0.3538 -0.0292 -0.3137
  285MOL0     C38389  10.273   5.774   9.921  0.3619  0.5997 -0.4033
  285MOL0     C38390  10.138   5.803   9.969  0.7454  0.7548  0.6603
  285MOL0     N38391   9.186   5.726   9.855  0.1064  0.3220  0.0372
  285MOL0     N38392   9.123   5.632   9.790 -0.1383 -0.1530  0.3994
  285MOL0     C38393   9.911   4.903   9.389 -0.0093  0.8101 -0.0812
  285MOL0     C38394  10.051   4.916   9.409 -0.4775  0.1525 -0.3096
  285MOL0     C38395  10.487   4.921   9.527 -0.4805  0.3592  0.1360
  285MOL0     C38396  10.496   5.011   9.631 -0.1765 -0.6573 -0.4097
  285MOL0     C38397  10.615   5.084   9.658 -0.0631 -0.0506 -0.2918
  285MOL0     C38398  10.729   5.072   9.580 -1.1894  0.1362  0.1205
  285MOL0     O38399  10.847   5.137   9.607  0.2982  0.3003  0.3161
  285MOL0     C38400  10.872   5.182   9.743 -0.1718 -0.5954 -1.0050
  285MOL0     C38401  11.030   5.195   9.771  0.0315  0.5748  0.0598
  285MOL0     C38402  11.090   5.315   9.701 -0.2937  0.4495  0.3983
  285MOL0     C38403  11.216   5.355   9.776 -0.0117  0.9055  0.0013
  285MOL0     C38404  11.333   5.259   9.759  0.0787  0.4947 -0.1784
  285MOL0     C38405  11.428   5.187   9.753 -0.7075  0.1888 -0.2972
  285MOL0     C38406  10.716   4.979   9.471  0.4230  0.4058  0.1229
  285MOL0     C38407  10.602   4.902   9.446  0.7077 -0.7165  0.4853
  285MOL0     H38408  10.081   4.847   9.737 -1.4242 -1.9589  0.3790
  285MOL0     H38409   9.861   4.832   9.720  0.9257 -0.6409  0.0234
  285MOL0     H38410   9.640   4.724   9.626  1.1871  0.2994 -0.7959
  285MOL0     H38411   9.590   4.888   9.657 -3.8389 -0.9470 -1.2107
  285MOL0     H38412   9.447   4.725   9.452 -2.5045  0.7391 -1.2137
  285MOL0     H38413   9.396   4.757   9.613 -0.4556 -1.9479 -0.0322
  285MOL0     H38414   9.473   5.009   9.442  0.3087  0.8535  1.3423
  285MOL0     H38415   9.332   4.921   9.405 -1.3016  1.4284  0.6040
  285MOL0     H38416   9.240   4.917   9.618 -0.6096 -1.0082 -1.1573
  285MOL0     H38417   9.376   5.026   9.676  1.0783 -1.3767 -1.0501
  285MOL0     H38418   9.257   5.199   9.518  0.1926 -1.1414  0.1675
  285MOL0     H38419   9.134   5.063   9.490  0.5778 -0.4054 -0.7835
  285MOL0     H38420   9.018   5.208   9.615  0.5265  0.3432 -0.0786
  285MOL0     H38421   9.067   5.098   9.731 -0.3876  1.6914  1.2133
  285MOL0     H38422   9.112   5.315   9.820  2.2821  0.4632  2.6366
  285MOL0     H38423   9.273   5.248   9.784 -0.6001 -1.9309  1.6966
  285MOL0     H38424   9.084   5.453   9.622 -0.4585  2.9802  3.1279
  285MOL0     H38425   9.270   5.428   9.595  0.0337 -3.9185 -0.9449
  285MOL0     H38426   9.429   5.528   9.794  0.5473 -0.1114  1.9710
  285MOL0     H38427   9.386   5.875   9.934 -3.0737 -0.9325 -1.0496
  285MOL0     H38428   9.469   5.737  10.020  0.5031  1.8025  0.5492
  285MOL0     H38429   9.534   5.837   9.738  0.4486 -0.0587 -1.5330
  285MOL0     H38430   9.568   5.672   9.804  0.8176  0.0978  0.5186
  285MOL0     H38431   9.680   5.787  10.003  3.5031  0.1515  0.2613
  285MOL0     H38432   9.674   5.929   9.919 -1.0537  0.3841  0.7219
  285MOL0     H38433   9.801   5.824   9.731  1.4248  1.1662  1.0006
  285MOL0     H38434   9.804   5.660   9.822  0.5003  0.7726  1.6941
  285MOL0     H38435   9.977   5.684   9.685 -2.8639  2.7326  1.8292
  285MOL0     H38436  10.112   5.561   9.549  0.6152  0.7937 -2.1151
  285MOL0     H38437  10.252   5.659   9.501 -0.2756  0.0993 -0.9708
  285MOL0     H38438  10.272   5.509   9.604 -3.1384 -1.5177 -0.9165
  285MOL0     H38439  10.695   5.695   9.638  1.2880  2.2662 -0.0212
  285MOL0     H38440  10.932   5.721   9.648 -2.5117 -1.4699 -1.9802
  285MOL0     H38441  11.136   5.773  10.020  2.7617  0.9243 -0.5132
  285MOL0     H38442  11.160   5.592  10.043  1.8838 -1.5884 -1.1643
  285MOL0     H38443  11.337   5.627   9.847 -2.3590  1.1556 -1.3437
  285MOL0     H38444  11.339   5.795   9.922  0.2762 -0.7020 -0.7665
  285MOL0     H38445  11.385   5.526  10.073  1.1273  0.7998  1.7272
  285MOL0     H38446  11.411   5.684  10.124 -0.6260  0.8458  0.2261
  285MOL0     H38447  11.575   5.690   9.894  1.6102  1.6181  1.5345
  285MOL0     H38448  11.619   5.657  10.050 -0.3850 -1.9609 -0.1176
  285MOL0     H38449  11.526   5.466   9.834  0.3894 -2.1231  0.2159
  285MOL0     H38450  11.551   5.400   9.997 -0.4411  0.6590  0.9440
  285MOL0     H38451  11.752   5.549   9.818 -0.5421  0.2589  0.0408
  285MOL0     H38452  11.802   5.479   9.960 -1.4521 -0.3708  1.8453
  285MOL0     H38453  11.868   5.320   9.785  0.0186 -0.4354  0.9943
  285MOL0     H38454  11.711   5.312   9.717 -1.6310  1.3423  0.5993
  285MOL0     H38455  11.647   5.205   9.944 -0.2205  0.6677 -2.9599
  285MOL0     H38456  11.788   5.246  10.019 -2.3793 -2.8466  2.1068
  285MOL0     H38457  10.918   5.665  10.084  0.9799 -2.9819 -0.3931
  285MOL0     H38458  10.688   5.640  10.069 -0.2926  1.2494  0.5027
  285MOL0     H38459  10.354   5.804   9.987 -0.8604  2.0906  0.4823
  285MOL0     H38460  10.113   5.856  10.061 -1.1740 -0.1416  0.7017
  285MOL0     H38461   9.880   4.913   9.286  1.6474  0.2940 -0.6538
  285MOL0     H38462  10.111   4.949   9.324  0.9312  0.6786  0.8450
  285MOL0     H38463  10.407   5.038   9.687 -2.2699 -3.3700 -2.1782
  285MOL0     H38464  10.611   5.148   9.745 -1.3375  2.4533 -2.0734
  285MOL0     H38465  10.825   5.280   9.756  0.8827 -0.3012  0.9877
  285MOL0     H38466  10.824   5.109   9.808 -0.8346  0.8396  0.1721
  285MOL0     H38467  11.080   5.107   9.729 -1.0667  0.5607 -1.2978
  285MOL0     H38468  11.047   5.210   9.878  1.9148  0.3486 -0.1652
  285MOL0     H38469  11.036   5.410   9.697  4.7167  3.6791 -0.7882
  285MOL0     H38470  11.114   5.300   9.595 -3.4190  0.8516 -0.4553
  285MOL0     H38471  11.188   5.347   9.882  0.2965 -0.5741 -0.0128
  285MOL0     H38472  11.246   5.456   9.748 -0.7608  0.5745 -2.1711
  285MOL0     H38473  11.523   5.138   9.749 -0.5448  0.4111  0.6227
  285MOL0     H38474  10.799   4.952   9.406 -0.2926 -1.5315 -0.0647
  285MOL0     H38475  10.599   4.849   9.352  2.5704  0.3089 -0.1970
  286MOL0     O38476   3.293   4.948   2.569  0.7250  0.1707 -0.1182
  286MOL0     C38477   3.379   5.021   2.604  0.4675 -0.3731 -0.1565
  286MOL0     O38478   3.359   5.134   2.683 -0.3136  0.1290 -0.1252
  286MOL0     C38479   3.235   5.176   2.712  0.7541 -0.2068  0.0630
  286MOL0     C38480   3.208   5.312   2.721 -0.5644 -0.4691 -0.4004
  286MOL0     C38481   3.084   5.370   2.746 -0.0257 -0.3735 -0.1334
  286MOL0     C38482   2.974   5.285   2.762 -0.1886  0.1686 -0.4854
  286MOL0     O38483   2.852   5.337   2.786 -0.6495  0.8467  0.2523
  286MOL0     C38484   2.834   5.476   2.808  0.2297  0.0881  0.6063
  286MOL0     C38485   2.695   5.504   2.866  0.6436 -0.6698 -0.3612
  286MOL0     C38486   2.585   5.420   2.789 -0.2895  0.2408 -0.7891
  286MOL0     C38487   2.443   5.462   2.836 -0.6377  1.0053  1.1018
  286MOL0     C38488   2.337   5.399   2.747  0.2046  0.2463 -0.0467
  286MOL0     C38489   2.200   5.459   2.786 -0.9277  0.3944  0.9283
  286MOL0     C38490   2.094   5.376   2.720  0.8902 -0.0655 -0.3988
  286MOL0     C38491   2.068   5.237   2.769 -0.4292  0.2169  0.3036
  286MOL0     N38492   2.018   5.237   2.909 -0.0403 -0.0902  0.4874
  286MOL0     C38493   1.884   5.250   2.935 -0.1715 -0.2669  0.1361
  286MOL0     C38494   1.880   5.254   3.072  0.9341  0.0710 -0.3304
  286MOL0     C38495   1.764   5.281   3.167  0.9795 -0.1662  0.3174
  286MOL0     C38496   1.627   5.291   3.096 -0.8801 -0.4381 -0.8736
  286MOL0     C38497   1.509   5.307   3.191  0.3101  0.6266 -0.0716
  286MOL0     C38498   1.372   5.319   3.119  0.7828 -1.7538  0.2689
  286MOL0     O38499   1.362   5.444   3.047  0.4612 -0.4288 -0.4802
  286MOL0     C38500   1.337   5.564   3.109 -0.0143 -0.2738  0.3677
  286MOL0     C38501   1.341   5.680   3.029 -0.0236  1.0022 -0.7843
  286MOL0     C38502   1.306   5.803   3.077  0.4798 -0.8448 -0.9390
  286MOL0     C38503   1.273   5.921   2.987  0.3184 -0.9757  0.2050
  286MOL0     C38504   1.281   5.818   3.219 -0.5288 -0.1630  0.1033
  286MOL0     C38505   1.261   5.950   3.289  0.4959 -0.2199  0.0519
  286MOL0     O38506   1.193   5.937   3.406 -0.5648 -0.5989  0.1777
  286MOL0     C38507   1.156   6.046   3.468 -1.2820 -0.6854  0.4709
  286MOL0     C38508   1.081   6.158   3.424  0.9578  0.2881 -0.8071
  286MOL0     C38509   1.018   6.243   3.507  0.1600 -0.1936 -1.1820
  286MOL0     C38510   1.022   6.221   3.648  0.3265  0.8666  0.6702
  286MOL0     O38511   0.963   6.305   3.732  0.8902 -0.5408 -0.3117
  286MOL0     C38512   0.818   6.315   3.736 -0.4217 -0.6211  0.4227
  286MOL0     C38513   0.771   6.430   3.831  0.6371 -0.4072  0.2578
  286MOL0     C38514   0.636   6.389   3.899 -0.6443 -0.2718 -0.4466
  286MOL0     C38515   0.665   6.295   4.022  0.4697 -0.5318  0.4014
  286MOL0     C38516   0.534   6.251   4.086 -0.4256 -0.0423  0.1740
  286MOL0     C38517   0.482   6.371   4.166  0.2203 -0.1277  0.4047
  286MOL0     C38518   0.542   6.359   4.306 -0.3505  0.2479  0.3746
  286MOL0     C38519   0.509   6.467   4.397  0.3297  0.6257 -0.2645
  286MOL0    Cl38520   0.524   6.632   4.343 -0.0169 -0.2290  0.6041
  286MOL0     C38521   1.085   6.113   3.697 -0.5609  0.4702  0.0240
  286MOL0     C38522   1.159   6.030   3.615 -0.4833  0.6698  0.0559
  286MOL0     O38523   1.308   6.058   3.246  0.1386 -0.2859 -0.1081
  286MOL0     C38524   1.285   5.701   3.302  1.0142 -0.0735  0.9554
  286MOL0     C38525   1.302   5.578   3.241 -0.5380  0.2182 -0.8472
  286MOL0     N38526   2.009   5.253   3.116  0.4388 -0.1935 -0.6425
  286MOL0     N38527   2.091   5.247   3.021 -0.4323 -0.0199 -0.1934
  286MOL0     C38528   2.982   5.145   2.756 -0.9378 -0.6955  0.3133
  286MOL0     C38529   3.110   5.093   2.726 -0.7257  0.1128  0.5855
  286MOL0     C38530   3.512   4.972   2.572  0.3169 -0.0972 -0.1085
  286MOL0     C38531   3.624   5.058   2.598 -0.0962  0.3883 -1.2454
  286MOL0     C38532   3.755   5.029   2.561 -0.1681  0.5995  1.6090
  286MOL0     C38533   3.784   4.913   2.496 -0.5811 -1.1865 -0.4719
  286MOL0     O38534   3.916   4.876   2.460  0.6310 -0.2742 -0.3448
  286MOL0     C38535   4.019   4.972   2.452  0.6130  0.2345  0.5776
  286MOL0     C38536   4.140   4.899   2.402 -0.5946  0.4795 -1.4169
  286MOL0     C38537   4.266   4.972   2.442  0.0544 -0.3004  0.3403
  286MOL0     C38538   4.397   4.913   2.382 -0.2256  0.1563 -0.1280
  286MOL0     C38539   4.515   4.991   2.369  0.3887 -0.0668 -0.2801
  286MOL0     C38540   4.617   5.061   2.359 -1.1256 -0.3936  0.7685
  286MOL0     C38541   3.680   4.821   2.470  0.5633  0.1347  0.1334
  286MOL0     C38542   3.546   4.845   2.512  0.5010 -0.3788 -0.6137
  286MOL0     H38543   3.295   5.376   2.718  0.0736 -1.3394 -0.9847
  286MOL0     H38544   3.082   5.478   2.758 -1.1538 -0.4520  0.5716
  286MOL0     H38545   2.907   5.519   2.877 -0.2800  1.5617  0.2601
  286MOL0     H38546   2.849   5.524   2.711  0.7246 -0.5514  0.3559
  286MOL0     H38547   2.682   5.490   2.974 -0.4984 -0.0222 -0.3960
  286MOL0     H38548   2.678   5.610   2.843 -3.2172 -1.3833 -1.5651
  286MOL0     H38549   2.597   5.456   2.686  1.5506 -0.9198 -1.0148
  286MOL0     H38550   2.604   5.313   2.802  1.5454  0.7269  1.0564
  286MOL0     H38551   2.435   5.431   2.940 -1.2249 -3.7157 -0.1190
  286MOL0     H38552   2.433   5.571   2.824  0.4386  0.8311 -2.8239
  286MOL0     H38553   2.348   5.408   2.639 -0.1458  0.0656 -0.0985
  286MOL0     H38554   2.353   5.292   2.762 -1.0056  0.3840  3.0759
  286MOL0     H38555   2.183   5.459   2.894 -0.6390  1.1926  0.9777
  286MOL0     H38556   2.193   5.561   2.748 -0.2574 -0.8523 -2.9910
  286MOL0     H38557   1.994   5.420   2.725  0.8604 -0.1768  0.0544
  286MOL0     H38558   2.117   5.370   2.613  0.1814 -0.3020 -0.5381
  286MOL0     H38559   2.164   5.188   2.751 -0.4220  0.3815 -0.1158
  286MOL0     H38560   1.991   5.198   2.702  1.1448  1.1258 -2.1552
  286MOL0     H38561   1.807   5.258   2.859 -0.3978 -3.9288 -0.2023
  286MOL0     H38562   1.758   5.196   3.234  0.1832 -2.1956 -2.1441
  286MOL0     H38563   1.790   5.368   3.227  1.8130 -0.8511  0.9748
  286MOL0     H38564   1.622   5.201   3.034  1.7408 -1.3096  0.0525
  286MOL0     H38565   1.641   5.373   3.025  2.6763 -2.6040 -2.9917
  286MOL0     H38566   1.524   5.399   3.248 -1.7236  0.2397  1.1824
  286MOL0     H38567   1.510   5.222   3.260 -0.5044 -0.4739 -1.3640
  286MOL0     H38568   1.285   5.294   3.180 -0.3035 -1.9609 -1.3095
  286MOL0     H38569   1.356   5.243   3.041  0.1591 -4.0497  2.5028
  286MOL0     H38570   1.352   5.665   2.922 -1.3344  0.5866 -0.8831
  286MOL0     H38571   1.237   5.874   2.896  0.8801  0.2925 -0.7039
  286MOL0     H38572   1.195   5.984   3.031  1.8960  2.5293 -1.5369
  286MOL0     H38573   1.360   5.982   2.961 -0.7712 -0.4848 -2.5569
  286MOL0     H38574   1.063   6.181   3.319  0.4588  0.5192 -0.6706
  286MOL0     H38575   0.967   6.329   3.466  0.8738  0.6157 -0.4097
  286MOL0     H38576   0.784   6.329   3.633 -1.4090 -1.4001  0.6272
  286MOL0     H38577   0.798   6.214   3.773  0.5896 -1.1309 -0.3568
  286MOL0     H38578   0.849   6.450   3.904 -1.5223  1.3710  2.2514
  286MOL0     H38579   0.760   6.520   3.770 -0.3009 -1.2704 -0.9187
  286MOL0     H38580   0.572   6.335   3.828 -0.6355  0.1556 -0.7811
  286MOL0     H38581   0.577   6.478   3.923  2.1378  0.8730  3.2749
  286MOL0     H38582   0.722   6.211   3.980 -0.4875 -2.2791  2.4024
  286MOL0     H38583   0.729   6.340   4.098  0.4588 -1.5631  1.0379
  286MOL0     H38584   0.540   6.163   4.151 -4.8101 -0.7507 -0.0778
  286MOL0     H38585   0.455   6.223   4.017 -2.7440  0.6842  2.3637
  286MOL0     H38586   0.507   6.469   4.124 -0.1263  0.0657  0.6484
  286MOL0     H38587   0.373   6.367   4.168  0.1041 -0.0463 -2.1679
  286MOL0     H38588   0.651   6.369   4.307 -0.1990 -1.1290 -0.1009
  286MOL0     H38589   0.521   6.261   4.350  0.0918  0.7328  1.6904
  286MOL0     H38590   0.565   6.443   4.488 -0.6173 -3.8382 -0.6109
  286MOL0     H38591   0.406   6.450   4.428 -0.2049  0.9303 -1.7953
  286MOL0     H38592   1.068   6.096   3.803  1.8060 -3.0840 -0.0247
  286MOL0     H38593   1.219   5.950   3.658 -1.0557 -0.3085 -0.9192
  286MOL0     H38594   1.264   5.700   3.409 -2.3225  0.7165  0.4288
  286MOL0     H38595   1.305   5.486   3.298  1.8342  0.9044  0.2764
  286MOL0     H38596   2.894   5.088   2.787 -0.0451 -1.2068  2.0484
  286MOL0     H38597   3.114   4.985   2.722 -1.8377  0.0741  0.3051
  286MOL0     H38598   3.597   5.153   2.644 -2.7839 -0.5452 -0.7736
  286MOL0     H38599   3.836   5.094   2.593  0.6463 -0.1669  1.1515
  286MOL0     H38600   3.988   5.051   2.383 -1.5115  0.3470  1.5555
  286MOL0     H38601   4.032   5.018   2.550 -0.7348  0.8958  0.4703
  286MOL0     H38602   4.135   4.869   2.297 -0.0079  3.0444 -2.2395
  286MOL0     H38603   4.125   4.808   2.461 -0.0781  1.2406 -0.0716
  286MOL0     H38604   4.286   4.981   2.550  0.0872  2.0233  0.2068
  286MOL0     H38605   4.257   5.076   2.408  0.8068 -0.2170  0.3650
  286MOL0     H38606   4.364   4.891   2.280 -2.3417  2.2913  0.0037
  286MOL0     H38607   4.410   4.824   2.444 -1.4841  0.4972  0.6563
  286MOL0     H38608   4.712   5.107   2.339 -1.7519  0.6664  0.1699
  286MOL0     H38609   3.707   4.726   2.426 -0.8972  0.0612 -0.6422
  286MOL0     H38610   3.481   4.760   2.499 -1.1836  0.9153 -0.9753
  287MOL0     O38611   8.712   2.754   7.616  0.8247  0.4464 -0.6262
  287MOL0     C38612   8.743   2.807   7.509 -0.6200 -0.3543  0.0828
  287MOL0     O38613   8.651   2.869   7.423 -0.0941  0.1388  0.2992
  287MOL0     C38614   8.523   2.824   7.430  0.9371 -0.0866 -0.2417
  287MOL0     C38615   8.442   2.861   7.535  0.4544 -0.2411 -0.4484
  287MOL0     C38616   8.306   2.828   7.532 -0.2237  0.3326  0.4289
  287MOL0     C38617   8.251   2.781   7.412 -1.0620  0.6455 -0.1862
  287MOL0     O38618   8.112   2.755   7.411  0.0540 -0.0768 -0.1938
  287MOL0     C38619   8.042   2.686   7.301 -0.6592 -0.9170 -0.1547
  287MOL0     C38620   7.890   2.722   7.310 -0.1107 -0.2703 -0.1494
  287MOL0     C38621   7.810   2.619   7.236  0.1774  0.0761  1.5664
  287MOL0     C38622   7.657   2.655   7.247 -0.1611  0.1823 -0.1763
  287MOL0     C38623   7.573   2.538   7.182  0.2012 -0.1211 -0.7172
  287MOL0     C38624   7.420   2.567   7.188  0.9395  0.5349 -0.0027
  287MOL0     C38625   7.360   2.604   7.320 -1.1153 -0.4205 -0.0161
  287MOL0     C38626   7.205   2.631   7.311 -0.7138  0.6102 -1.0626
  287MOL0     N38627   7.161   2.725   7.207 -0.2001  0.2019  0.3700
  287MOL0     C38628   7.159   2.701   7.076  0.0762 -0.0449  0.2676
  287MOL0     C38629   7.117   2.811   7.022  1.0928  0.1391  0.2723
  287MOL0     C38630   7.116   2.847   6.875  0.8433 -0.8467  0.5167
  287MOL0     C38631   7.202   2.963   6.828 -0.3145 -1.0834 -0.6896
  287MOL0     C38632   7.219   2.990   6.671 -0.0092 -0.1855 -0.2201
  287MOL0     C38633   7.097   2.954   6.591 -0.5892 -0.1581  0.5779
  287MOL0     O38634   7.152   2.948   6.454  0.0177 -0.4022 -0.0348
  287MOL0     C38635   7.073   2.980   6.351 -0.2414 -0.5954  0.2722
  287MOL0     C38636   7.045   2.893   6.236  0.0450 -0.0110  0.1510
  287MOL0     C38637   6.973   2.943   6.127  0.0025 -0.4543  0.0102
  287MOL0     C38638   6.935   2.847   6.018  0.5720  0.2330 -0.0683
  287MOL0     C38639   6.930   3.081   6.121  0.1757  0.6088  0.0968
  287MOL0     C38640   6.858   3.153   6.018  0.0120 -1.3317 -0.6765
  287MOL0     O38641   6.770   3.260   6.057  0.1619 -0.1550 -0.7835
  287MOL0     C38642   6.695   3.336   5.971  0.1914 -0.5619  0.5270
  287MOL0     C38643   6.567   3.384   6.003  0.6269  0.3585 -0.4584
  287MOL0     C38644   6.491   3.457   5.911  0.4177  0.2838  0.2938
  287MOL0     C38645   6.542   3.506   5.792  0.2421  1.1945 -1.1315
  287MOL0     O38646   6.445   3.564   5.720 -0.7350  0.2594  0.3247
  287MOL0     C38647   6.464   3.556   5.578  0.9526  0.0389 -0.6158
  287MOL0     C38648   6.325   3.601   5.505 -0.8255 -0.1938 -0.0460
  287MOL0     C38649   6.200   3.521   5.538  0.3786 -0.4866  0.0827
  287MOL0     C38650   6.075   3.584   5.483  0.5563  0.2161 -0.0018
  287MOL0     C38651   5.954   3.489   5.507  0.1859  0.4894  0.0811
  287MOL0     C38652   5.825   3.563   5.462 -0.0271  0.0117 -0.1147
  287MOL0     C38653   5.696   3.488   5.508 -0.1359  0.4559 -0.3357
  287MOL0     C38654   5.576   3.548   5.433  0.2515 -0.4298 -0.8601
  287MOL0    Cl38655   5.435   3.445   5.443 -0.1245  0.0918 -0.3698
  287MOL0     C38656   6.676   3.474   5.764 -0.2950  0.2860 -0.3582
  287MOL0     C38657   6.752   3.391   5.845 -0.2514  0.7527 -0.9620
  287MOL0     O38658   6.880   3.128   5.901  0.0331 -0.2282 -0.2026
  287MOL0     C38659   6.968   3.157   6.233 -0.0014 -0.4092 -0.0421
  287MOL0     C38660   7.030   3.114   6.345 -0.0403 -0.3089 -0.0332
  287MOL0     N38661   7.079   2.895   7.124  0.0955  0.4928  0.5721
  287MOL0     N38662   7.096   2.842   7.233  0.1582 -0.7868 -0.3863
  287MOL0     C38663   8.329   2.746   7.301  0.2686  0.1764 -0.2948
  287MOL0     C38664   8.466   2.769   7.314 -0.5866  0.3295  0.4181
  287MOL0     C38665   8.887   2.814   7.469  0.3368 -0.4989  0.4673
  287MOL0     C38666   8.920   2.882   7.351  0.4598 -0.4056 -0.4160
  287MOL0     C38667   9.051   2.872   7.300 -0.9589  0.7971  0.5491
  287MOL0     C38668   9.149   2.810   7.374 -0.5932 -0.2432 -0.3492
  287MOL0     O38669   9.284   2.823   7.343 -1.0398  0.0981  0.0055
  287MOL0     C38670   9.380   2.770   7.435  0.1907  0.1233  0.0360
  287MOL0     C38671   9.524   2.766   7.376 -0.8880  0.9352  0.4753
  287MOL0     C38672   9.550   2.895   7.295 -0.4961  0.5781 -0.5617
  287MOL0     C38673   9.685   2.879   7.230 -0.2451 -0.5619  1.1000
  287MOL0     C38674   9.676   2.799   7.098 -0.1173  1.0450 -0.2670
  287MOL0     C38675   9.679   2.750   6.992  0.2701 -0.6378  0.3558
  287MOL0     C38676   9.115   2.744   7.499 -0.2634  0.3010  0.6661
  287MOL0     C38677   8.985   2.750   7.549 -0.3618  0.5661  0.1057
  287MOL0     H38678   8.483   2.913   7.622  0.8651  3.4930 -2.6500
  287MOL0     H38679   8.243   2.852   7.617 -0.2942  1.6746  0.0195
  287MOL0     H38680   8.073   2.727   7.205 -0.7162  0.8431  0.5512
  287MOL0     H38681   8.059   2.578   7.303  0.8021 -0.7158  2.5462
  287MOL0     H38682   7.853   2.707   7.412 -1.6900 -0.7753 -0.7683
  287MOL0     H38683   7.876   2.825   7.277 -2.0799 -0.5986 -0.4380
  287MOL0     H38684   7.845   2.629   7.133  3.4290 -0.3405  2.5092
  287MOL0     H38685   7.822   2.512   7.258  0.9660 -0.9286 -2.7138
  287MOL0     H38686   7.641   2.676   7.353  1.4823  1.3931 -0.1302
  287MOL0     H38687   7.649   2.746   7.187  1.1224  1.3560  1.3520
  287MOL0     H38688   7.610   2.506   7.084 -1.0588  1.6218 -1.8135
  287MOL0     H38689   7.569   2.451   7.247 -0.3787 -1.0746 -1.9849
  287MOL0     H38690   7.409   2.651   7.119  1.2884  0.8078  0.2745
  287MOL0     H38691   7.363   2.482   7.149  1.0907  0.0899  0.7282
  287MOL0     H38692   7.380   2.517   7.382 -2.2818 -1.8924 -1.6131
  287MOL0     H38693   7.409   2.692   7.362 -0.3972 -0.4455 -0.7818
  287MOL0     H38694   7.185   2.671   7.411  2.3249  0.3058 -0.2465
  287MOL0     H38695   7.150   2.537   7.315  0.1500  0.1028  2.8578
  287MOL0     H38696   7.206   2.611   7.036  2.3661  0.1205  2.3045
  287MOL0     H38697   7.142   2.759   6.815  2.5131  1.0904 -1.7376
  287MOL0     H38698   7.017   2.877   6.838  1.7209 -0.5175 -1.7055
  287MOL0     H38699   7.298   2.969   6.881 -0.4090  0.5755 -0.6495
  287MOL0     H38700   7.152   3.051   6.871  0.6687 -1.5757  1.6071
  287MOL0     H38701   7.308   2.937   6.637 -1.3813 -2.0503 -1.1217
  287MOL0     H38702   7.257   3.090   6.651  1.0147 -1.0988 -3.4349
  287MOL0     H38703   7.018   3.029   6.591 -2.1861 -1.7529  1.6861
  287MOL0     H38704   7.063   2.854   6.619  2.2626 -0.2226  4.6571
  287MOL0     H38705   7.077   2.791   6.255  2.1254  0.7037  0.8224
  287MOL0     H38706   6.980   2.873   5.922 -0.0273  3.6895  0.4642
  287MOL0     H38707   6.979   2.751   6.048  2.0824  0.8946 -0.0299
  287MOL0     H38708   6.828   2.843   5.999  0.0878 -1.8171  2.4564
  287MOL0     H38709   6.525   3.360   6.100  2.5364  3.8779  1.4333
  287MOL0     H38710   6.387   3.484   5.925 -1.0897 -2.3633 -3.8964
  287MOL0     H38711   6.543   3.624   5.544  0.3896  1.1698  0.2536
  287MOL0     H38712   6.487   3.455   5.544 -1.0816  0.0956 -2.3734
  287MOL0     H38713   6.314   3.705   5.534  0.4394 -0.3158  0.9721
  287MOL0     H38714   6.332   3.610   5.396 -1.4958  0.4474 -0.0370
  287MOL0     H38715   6.202   3.514   5.648 -1.2594 -0.4104  0.1438
  287MOL0     H38716   6.216   3.422   5.495 -1.3849 -0.1570 -1.4330
  287MOL0     H38717   6.068   3.676   5.541  0.6051  0.8649 -0.9984
  287MOL0     H38718   6.082   3.609   5.376 -0.4153 -1.2876 -0.4489
  287MOL0     H38719   5.927   3.483   5.612 -4.6628 -0.4652 -0.9930
  287MOL0     H38720   5.969   3.393   5.458  1.2235 -1.4352  3.8069
  287MOL0     H38721   5.830   3.661   5.510  0.7637  0.1357 -0.4351
  287MOL0     H38722   5.832   3.568   5.353  2.5937  1.0181  0.0368
  287MOL0     H38723   5.689   3.491   5.618  3.7134  0.1813  0.0704
  287MOL0     H38724   5.708   3.380   5.492  2.8196  0.5583  0.4500
  287MOL0     H38725   5.592   3.565   5.326 -2.3241  0.5845 -1.1442
  287MOL0     H38726   5.548   3.643   5.481  1.5814 -1.3051  1.8543
  287MOL0     H38727   6.707   3.493   5.662  0.7111 -1.0732 -0.3296
  287MOL0     H38728   6.852   3.364   5.814 -0.4561 -0.5521 -0.5339
  287MOL0     H38729   6.951   3.264   6.229  3.2908  0.1959 -0.5195
  287MOL0     H38730   7.054   3.180   6.428 -0.6523 -2.2661  1.7898
  287MOL0     H38731   8.285   2.720   7.206 -0.9859  2.7870 -0.5086
  287MOL0     H38732   8.515   2.741   7.221 -0.5831  0.6606  0.3183
  287MOL0     H38733   8.845   2.907   7.276 -0.1376 -3.1870 -0.8704
  287MOL0     H38734   9.084   2.928   7.213  2.2920  0.8127  1.6289
  287MOL0     H38735   9.391   2.818   7.532  2.1468 -1.3516  0.6136
  287MOL0     H38736   9.347   2.666   7.451  0.7117 -0.0002  0.3237
  287MOL0     H38737   9.539   2.674   7.319  0.0947  0.7413  1.0284
  287MOL0     H38738   9.598   2.770   7.456  1.7004  2.6443 -1.8042
  287MOL0     H38739   9.542   2.985   7.357 -2.6348 -0.6055  1.0358
  287MOL0     H38740   9.472   2.907   7.220 -0.9470  0.2857 -0.1467
  287MOL0     H38741   9.740   2.809   7.294  0.4498 -0.2926  0.8052
  287MOL0     H38742   9.732   2.977   7.219 -2.1866  0.4891  1.5916
  287MOL0     H38743   9.691   2.713   6.892 -0.1702  0.8166 -0.2614
  287MOL0     H38744   9.182   2.683   7.558  0.1647 -0.0053 -0.1295
  287MOL0     H38745   8.953   2.694   7.636 -0.0342  1.6913  0.9742
  288MOL0     O38746   0.745   2.718   8.438 -0.0289  0.0391  0.0015
  288MOL0     C38747   0.764   2.610   8.496 -0.2063 -0.1151  0.7903
  288MOL0     O38748   0.705   2.567   8.610 -0.2818 -0.5703 -0.0322
  288MOL0     C38749   0.638   2.663   8.668  1.2577  0.0629  0.4155
  288MOL0     C38750   0.700   2.755   8.750  0.0840  0.3133 -1.1608
  288MOL0     C38751   0.637   2.860   8.812  0.7178 -0.7677  0.1038
  288MOL0     C38752   0.495   2.874   8.792  1.0496  0.6029  0.2085
  288MOL0     O38753   0.424   2.965   8.857  0.2452  0.1415  0.2212
  288MOL0     C38754   0.447   3.101   8.805 -0.4327  0.2857  0.2996
  288MOL0     C38755   0.350   3.201   8.855  0.6584  0.2328  0.7495
  288MOL0     C38756   0.214   3.182   8.781  0.6027  0.1788 -0.6451
  288MOL0     C38757   0.112   3.273   8.846 -0.0829  0.3903  0.2586
  288MOL0     C38758  -0.032   3.235   8.808  0.2942  0.0073 -0.1514
  288MOL0     C38759  -0.129   3.358   8.828  0.7547 -0.6257  0.7385
  288MOL0     C38760  -0.255   3.351   8.739 -0.1847  0.7279 -0.3141
  288MOL0     C38761  -0.330   3.220   8.774  0.9021  0.4145 -0.1347
  288MOL0     N38762  -0.408   3.243   8.893 -0.1399  0.6245 -0.4555
  288MOL0     C38763  -0.501   3.343   8.912 -0.5232  0.4867 -0.9301
  288MOL0     C38764  -0.523   3.344   9.042  0.0694 -0.4966 -0.3948
  288MOL0     C38765  -0.617   3.438   9.104 -0.0567 -0.3137 -0.4527
  288MOL0     C38766  -0.763   3.397   9.075  0.2808 -0.3023  0.9434
  288MOL0     C38767  -0.809   3.287   9.175  0.4304  0.4262  0.6941
  288MOL0     C38768  -0.953   3.237   9.136  0.1195 -0.1710 -0.4479
  288MOL0     O38769  -1.012   3.144   9.230  0.4363 -0.3284  0.9237
  288MOL0     C38770  -1.146   3.109   9.209  0.3913  0.2707 -0.4712
  288MOL0     C38771  -1.217   3.126   9.090  0.0357 -0.3764  0.4956
  288MOL0     C38772  -1.345   3.098   9.070 -0.0284 -0.2239 -0.1398
  288MOL0     C38773  -1.408   3.116   8.928  0.2861 -0.5498  0.5209
  288MOL0     C38774  -1.419   3.044   9.184 -0.1443  0.3147 -0.0231
  288MOL0     C38775  -1.570   3.010   9.190  0.5110  0.3213 -0.4058
  288MOL0     O38776  -1.618   2.972   9.316 -0.3445  0.2054 -0.2103
  288MOL0     C38777  -1.755   2.982   9.346 -0.0781  0.1092 -0.8309
  288MOL0     C38778  -1.795   2.929   9.474  0.4716 -0.1365 -0.1200
  288MOL0     C38779  -1.918   2.952   9.526  0.2335  0.7064  0.0560
  288MOL0     C38780  -2.029   3.006   9.450 -0.1863 -1.0975  0.2214
  288MOL0     O38781  -2.157   3.001   9.506 -0.1129 -1.1493  0.3941
  288MOL0     C38782  -2.252   3.105   9.468  0.3545 -0.2287 -0.2530
  288MOL0     C38783  -2.375   3.102   9.566 -1.0494 -0.8047  0.4629
  288MOL0     C38784  -2.464   3.235   9.557 -0.3659  0.7513 -0.1781
  288MOL0     C38785  -2.401   3.361   9.628 -0.6658  0.0126  0.0402
  288MOL0     C38786  -2.502   3.476   9.624  0.3131  0.4162 -0.6108
  288MOL0     C38787  -2.443   3.618   9.667  0.3217  0.9280  0.9783
  288MOL0     C38788  -2.555   3.713   9.706 -0.1116  0.4731  0.2139
  288MOL0     C38789  -2.507   3.835   9.793 -0.0810  0.6748 -0.5112
  288MOL0    Cl38790  -2.650   3.940   9.834 -0.2180  0.0645  0.2102
  288MOL0     C38791  -1.993   3.067   9.328  0.4986  0.5266  0.4212
  288MOL0     C38792  -1.861   3.055   9.277  0.1646 -0.1853  0.3018
  288MOL0     O38793  -1.635   3.013   9.089 -0.4886  0.6075  0.3749
  288MOL0     C38794  -1.342   3.028   9.303  0.1033 -0.3052 -0.7777
  288MOL0     C38795  -1.204   3.052   9.317  0.3895 -0.4848 -0.1898
  288MOL0     N38796  -0.466   3.240   9.106  0.0565 -0.4271  0.3492
  288MOL0     N38797  -0.390   3.184   9.012  0.0592  0.0418 -0.6021
  288MOL0     C38798   0.420   2.776   8.726  0.3432  0.4529 -0.2922
  288MOL0     C38799   0.498   2.677   8.662 -0.6085  0.2413 -0.7113
  288MOL0     C38800   0.844   2.514   8.424  0.2963 -0.1175  0.0344
  288MOL0     C38801   0.918   2.549   8.317 -1.1913  0.0817 -0.2521
  288MOL0     C38802   0.983   2.451   8.243  0.2725 -0.3621 -0.4724
  288MOL0     C38803   0.979   2.316   8.278 -0.9716  0.2641  1.0790
  288MOL0     O38804   1.035   2.218   8.196 -0.1110  0.0946 -0.3637
  288MOL0     C38805   1.095   2.266   8.073 -0.4408 -0.0413 -1.1282
  288MOL0     C38806   1.154   2.137   8.023 -0.3157  0.5051  0.3096
  288MOL0     C38807   1.268   2.070   8.108 -0.6023  0.1313 -0.5242
  288MOL0     C38808   1.387   2.161   8.140 -1.0086 -0.8953  0.0414
  288MOL0     C38809   1.458   2.206   8.021  0.1702 -0.7453 -0.5007
  288MOL0     C38810   1.512   2.227   7.916  0.4163  0.1413 -0.1461
  288MOL0     C38811   0.912   2.286   8.390  0.3736  0.5767  0.1727
  288MOL0     C38812   0.844   2.384   8.465  0.7633 -0.3243  0.4025
  288MOL0     H38813   0.807   2.735   8.761  0.1486  1.5566  1.1517
  288MOL0     H38814   0.697   2.931   8.868 -0.9331  2.1427 -1.5603
  288MOL0     H38815   0.548   3.121   8.841  0.9697 -1.4128 -2.4037
  288MOL0     H38816   0.447   3.098   8.696 -0.8592 -1.8131  0.3150
  288MOL0     H38817   0.335   3.178   8.961  1.0026  1.7280  1.1382
  288MOL0     H38818   0.376   3.305   8.835 -3.4984  1.1460 -0.8621
  288MOL0     H38819   0.232   3.209   8.676  0.5189  3.0981  0.0012
  288MOL0     H38820   0.173   3.081   8.785 -2.8298  1.4824  0.1469
  288MOL0     H38821   0.127   3.270   8.954 -0.7808  2.0176  0.4337
  288MOL0     H38822   0.136   3.375   8.815  1.6897  0.2532  1.0697
  288MOL0     H38823  -0.020   3.208   8.702 -1.4774 -2.1953  0.1321
  288MOL0     H38824  -0.065   3.158   8.879  2.2302 -1.2828 -0.5645
  288MOL0     H38825  -0.155   3.366   8.934 -0.0885  0.3283  0.4804
  288MOL0     H38826  -0.073   3.445   8.793  2.1616 -1.8716 -0.2609
  288MOL0     H38827  -0.309   3.445   8.749  1.8554  2.0343 -1.0081
  288MOL0     H38828  -0.229   3.331   8.634  1.5474  1.0244  0.0328
  288MOL0     H38829  -0.263   3.135   8.786  0.6559  0.2512  0.0794
  288MOL0     H38830  -0.407   3.195   8.700  1.3985  0.2517 -0.6035
  288MOL0     H38831  -0.534   3.407   8.831  0.1832 -1.3569 -2.7612
  288MOL0     H38832  -0.605   3.438   9.212 -0.5141  0.4726 -0.3951
  288MOL0     H38833  -0.601   3.542   9.073 -0.3792 -0.0724  0.1758
  288MOL0     H38834  -0.769   3.360   8.973 -1.0377  2.1183  0.0655
  288MOL0     H38835  -0.836   3.477   9.089 -1.6760 -2.3731  3.7271
  288MOL0     H38836  -0.805   3.316   9.281 -2.6080  3.4597  0.1413
  288MOL0     H38837  -0.745   3.198   9.171  0.1471  0.2421  0.2746
  288MOL0     H38838  -0.932   3.187   9.041 -0.3397  1.2784 -1.3391
  288MOL0     H38839  -1.015   3.326   9.120  0.9369  0.4651 -0.1711
  288MOL0     H38840  -1.173   3.162   8.998  1.0825 -2.6196  0.0474
  288MOL0     H38841  -1.427   3.018   8.884 -2.1519 -0.2013  0.6273
  288MOL0     H38842  -1.506   3.163   8.946 -0.1528 -1.9480  2.0204
  288MOL0     H38843  -1.345   3.164   8.853  1.0124 -2.8776 -0.4478
  288MOL0     H38844  -1.719   2.873   9.527  2.2536  2.5510  0.3520
  288MOL0     H38845  -1.941   2.901   9.619 -3.4359 -1.3618 -1.7605
  288MOL0     H38846  -2.203   3.203   9.463 -2.7509  1.5305  0.9949
  288MOL0     H38847  -2.289   3.079   9.368  2.8666  0.9957 -1.5923
  288MOL0     H38848  -2.426   3.010   9.536 -1.7832 -0.0751 -0.5638
  288MOL0     H38849  -2.332   3.095   9.666 -0.5599  1.1565  0.4212
  288MOL0     H38850  -2.561   3.217   9.606 -0.0550 -0.2583  0.1033
  288MOL0     H38851  -2.497   3.248   9.453 -4.8488  1.4115  1.1161
  288MOL0     H38852  -2.390   3.339   9.735 -0.3173 -2.2808 -0.4070
  288MOL0     H38853  -2.307   3.389   9.581 -0.7720 -1.2345 -0.9827
  288MOL0     H38854  -2.592   3.449   9.681  0.5160  1.1903  0.0933
  288MOL0     H38855  -2.550   3.485   9.526  0.5854 -2.7659 -1.1457
  288MOL0     H38856  -2.385   3.605   9.759  2.6746  3.5531  0.0101
  288MOL0     H38857  -2.387   3.652   9.580 -1.4261  0.4194 -0.4005
  288MOL0     H38858  -2.627   3.663   9.770  1.0378 -1.0355  0.3981
  288MOL0     H38859  -2.595   3.757   9.614  0.3349 -1.3321 -0.9028
  288MOL0     H38860  -2.432   3.885   9.731  2.4132 -2.4303 -0.2627
  288MOL0     H38861  -2.457   3.806   9.886 -0.0955  2.1415 -0.0303
  288MOL0     H38862  -2.078   3.100   9.269  0.7948  0.5892  0.0265
  288MOL0     H38863  -1.849   3.106   9.181  1.8512  1.0201  1.0867
  288MOL0     H38864  -1.394   2.989   9.390 -0.0935 -2.0607 -1.6423
  288MOL0     H38865  -1.145   3.054   9.408  4.1267 -0.2690 -2.3838
  288MOL0     H38866   0.312   2.779   8.716  0.3444 -0.1294 -0.5369
  288MOL0     H38867   0.452   2.594   8.609  1.1707 -1.5701  0.4383
  288MOL0     H38868   0.912   2.648   8.273 -0.6912 -0.0787 -0.6895
  288MOL0     H38869   1.039   2.484   8.156  0.2450  1.1280  0.0365
  288MOL0     H38870   1.016   2.316   8.015 -1.8166  1.2323  1.6689
  288MOL0     H38871   1.179   2.335   8.089 -0.6001  0.8037 -3.4454
  288MOL0     H38872   1.188   2.166   7.924  0.9304  2.4189  1.2393
  288MOL0     H38873   1.082   2.056   8.005  2.4955 -2.5079  1.4613
  288MOL0     H38874   1.307   1.979   8.062  0.6907  0.1151  0.5393
  288MOL0     H38875   1.224   2.042   8.204 -0.9867 -2.7959 -1.4745
  288MOL0     H38876   1.456   2.107   8.205 -2.1753 -0.0170  2.1161
  288MOL0     H38877   1.347   2.248   8.192 -0.9280 -0.1003 -1.1881
  288MOL0     H38878   1.582   2.248   7.838  1.3444 -0.5764  0.4778
  288MOL0     H38879   0.920   2.183   8.423 -0.8320  0.4464  0.1196
  288MOL0     H38880   0.794   2.350   8.555 -3.8910  1.1196 -1.3334
  289MOL0     O38881   8.770   6.285   6.184 -0.2821  0.2953 -0.4085
  289MOL0     C38882   8.855   6.262   6.270  0.0588 -0.1646 -0.1354
  289MOL0     O38883   8.835   6.228   6.398 -0.3451  0.2314  0.1263
  289MOL0     C38884   8.708   6.178   6.428 -0.0143  0.0123 -1.1189
  289MOL0     C38885   8.674   6.193   6.565 -0.4047 -0.3932  0.4821
  289MOL0     C38886   8.547   6.149   6.598 -0.0757 -0.9164  0.1055
  289MOL0     C38887   8.462   6.089   6.504 -1.1708 -0.3242  0.3617
  289MOL0     O38888   8.331   6.062   6.541  0.3082 -0.1776  0.2155
  289MOL0     C38889   8.230   6.080   6.445  0.4122  1.4787 -0.0196
  289MOL0     C38890   8.192   5.945   6.370 -0.1096 -0.2313 -0.4699
  289MOL0     C38891   8.155   5.966   6.225  0.3988  0.0693 -0.0135
  289MOL0     C38892   8.088   5.842   6.159 -0.0304  0.0948 -0.3111
  289MOL0     C38893   7.933   5.841   6.181  0.0460  0.2036 -0.4590
  289MOL0     C38894   7.862   5.954   6.114  0.7626 -0.4843  0.7365
  289MOL0     C38895   7.711   5.946   6.111 -0.2042  0.9193 -0.1895
  289MOL0     C38896   7.640   5.967   6.244  0.3323 -0.2295  0.6960
  289MOL0     N38897   7.498   5.959   6.210  0.1979 -0.1623 -0.4645
  289MOL0     C38898   7.426   5.852   6.162  0.0508  0.0628 -0.0838
  289MOL0     C38899   7.301   5.905   6.143 -0.3928 -1.0068 -0.9804
  289MOL0     C38900   7.187   5.810   6.107 -0.9610  0.9848 -0.5138
  289MOL0     C38901   7.220   5.667   6.090  0.1940  0.2296 -0.2453
  289MOL0     C38902   7.086   5.585   6.094  0.4490 -0.4903  0.1821
  289MOL0     C38903   6.977   5.650   5.998 -0.1434  0.9177  0.6591
  289MOL0     O38904   6.871   5.555   6.017  0.4413  0.6136  0.4197
  289MOL0     C38905   6.748   5.594   6.063 -0.2306  0.4771  0.3400
  289MOL0     C38906   6.726   5.701   6.154 -0.4319 -0.0254  0.4336
  289MOL0     C38907   6.595   5.734   6.191  0.5480 -0.5302  0.0778
  289MOL0     C38908   6.566   5.849   6.291 -0.8205  0.2103 -0.3281
  289MOL0     C38909   6.490   5.660   6.142 -0.2169 -0.6599  0.0864
  289MOL0     C38910   6.344   5.695   6.153 -0.1244 -0.3609  0.4495
  289MOL0     O38911   6.273   5.679   6.030 -0.3757  0.7359 -0.8229
  289MOL0     C38912   6.132   5.664   6.028  0.0046 -0.7805 -1.1274
  289MOL0     C38913   6.064   5.547   6.070  0.0166 -0.1697  0.5376
  289MOL0     C38914   5.922   5.539   6.064 -0.1206  0.1467 -0.8707
  289MOL0     C38915   5.845   5.642   6.011  0.4472  0.6493 -0.4089
  289MOL0     O38916   5.717   5.625   5.996  0.6108 -0.2656  0.6324
  289MOL0     C38917   5.650   5.602   6.114  1.6085  0.2945 -0.8028
  289MOL0     C38918   5.494   5.612   6.086 -0.6006  0.8132 -0.3763
  289MOL0     C38919   5.434   5.525   5.971  0.4019 -0.0346 -0.4236
  289MOL0     C38920   5.281   5.539   5.984  0.1025  0.0879  0.1581
  289MOL0     C38921   5.208   5.422   5.922  0.2804  0.0391  0.3154
  289MOL0     C38922   5.055   5.442   5.905  0.0730 -0.0286  0.0912
  289MOL0     C38923   4.980   5.309   5.873 -0.3866  0.4708  0.4691
  289MOL0     C38924   4.967   5.310   5.719 -0.0990  0.5444  1.0032
  289MOL0    Cl38925   5.121   5.268   5.632  0.2147 -0.4819  0.3155
  289MOL0     C38926   5.910   5.756   5.957 -1.0908  0.5522  0.2860
  289MOL0     C38927   6.050   5.764   5.970  0.3931  0.0791 -0.2106
  289MOL0     O38928   6.303   5.754   6.248 -0.0396 -0.4360  0.2538
  289MOL0     C38929   6.518   5.550   6.065 -0.7066 -1.2635 -0.6415
  289MOL0     C38930   6.646   5.517   6.025  0.7234 -0.6316  1.0149
  289MOL0     N38931   7.300   6.041   6.183  0.1127 -0.4555 -0.0287
  289MOL0     N38932   7.415   6.071   6.226 -0.2382  0.5947 -0.3650
  289MOL0     C38933   8.508   6.060   6.369 -0.2444  1.1515  0.6449
  289MOL0     C38934   8.629   6.102   6.340  0.2894 -0.8442 -0.9395
  289MOL0     C38935   9.002   6.272   6.233 -0.1869  0.2919  0.3103
  289MOL0     C38936   9.096   6.300   6.332 -0.7050 -0.2432 -0.0134
  289MOL0     C38937   9.229   6.320   6.300 -0.6976 -0.4551  0.1097
  289MOL0     C38938   9.268   6.316   6.162 -0.2661  0.2559 -0.0934
  289MOL0     O38939   9.390   6.343   6.119 -0.2543  0.6881 -0.9204
  289MOL0     C38940   9.505   6.353   6.204  0.8273 -0.4800 -0.8102
  289MOL0     C38941   9.624   6.409   6.135 -0.0043  0.7321  0.1164
  289MOL0     C38942   9.677   6.332   6.011  0.3788  0.7996 -0.5422
  289MOL0     C38943   9.772   6.411   5.930  0.1726 -0.1471  0.9031
  289MOL0     C38944   9.910   6.404   5.975 -0.3196 -0.1499 -0.4289
  289MOL0     C38945  10.018   6.405   6.026  0.0078 -0.5068  0.7835
  289MOL0     C38946   9.180   6.296   6.059 -0.0347  0.6968 -0.6551
  289MOL0     C38947   9.044   6.277   6.097  0.3052 -0.6919 -0.0203
  289MOL0     H38948   8.739   6.249   6.632 -2.3664  3.1303 -0.3234
  289MOL0     H38949   8.503   6.176   6.694  2.2835  0.4431  0.8766
  289MOL0     H38950   8.130   6.109   6.480 -1.3850 -1.5621 -2.1139
  289MOL0     H38951   8.247   6.151   6.364 -1.9218  0.6525 -1.3543
  289MOL0     H38952   8.282   5.883   6.377  0.8829  1.3128  1.8129
  289MOL0     H38953   8.114   5.890   6.423 -0.8409  1.0774 -0.1589
  289MOL0     H38954   8.087   6.052   6.218 -1.5899 -1.5560 -2.9362
  289MOL0     H38955   8.250   5.987   6.174  1.3139 -1.9081  0.7677
  289MOL0     H38956   8.112   5.857   6.053  0.5584  1.3778 -0.0170
  289MOL0     H38957   8.130   5.750   6.201 -2.3228 -1.0294 -0.3139
  289MOL0     H38958   7.910   5.744   6.135  1.1752  0.6226 -2.0015
  289MOL0     H38959   7.908   5.833   6.287  2.0669 -2.2552 -0.0640
  289MOL0     H38960   7.897   6.051   6.152 -0.1976  1.0800 -2.0634
  289MOL0     H38961   7.890   5.962   6.008  0.4103 -0.8321  0.6160
  289MOL0     H38962   7.670   6.028   6.051 -1.3509 -0.3302 -1.1762
  289MOL0     H38963   7.685   5.853   6.060  1.1455 -0.4103  1.4069
  289MOL0     H38964   7.672   6.061   6.291 -0.0470 -1.0628  2.7175
  289MOL0     H38965   7.660   5.885   6.313 -0.1886 -0.5541  0.4616
  289MOL0     H38966   7.464   5.758   6.124  0.3883  0.4367 -0.6799
  289MOL0     H38967   7.113   5.817   6.188  0.0756  2.6067  0.3478
  289MOL0     H38968   7.140   5.846   6.015  0.5714  1.9755 -0.9432
  289MOL0     H38969   7.285   5.630   6.170  0.4488  2.8715  0.8566
  289MOL0     H38970   7.278   5.648   5.999  0.5053  0.9367 -0.1950
  289MOL0     H38971   7.045   5.572   6.195  2.2575 -1.0219  0.8966
  289MOL0     H38972   7.118   5.487   6.056 -0.1643  0.4228 -2.8791
  289MOL0     H38973   7.028   5.665   5.903  3.3180  6.6640  2.8814
  289MOL0     H38974   6.945   5.749   6.034 -0.9258  3.0705 -5.0218
  289MOL0     H38975   6.793   5.768   6.207 -2.5559  2.1279  0.5604
  289MOL0     H38976   6.519   5.827   6.387 -0.2598  2.2900  0.4787
  289MOL0     H38977   6.660   5.898   6.318 -0.0435 -1.0368 -0.7059
  289MOL0     H38978   6.501   5.919   6.237  2.2126  2.4902 -1.3258
  289MOL0     H38979   6.120   5.455   6.084  0.9746  0.4495  0.8820
  289MOL0     H38980   5.880   5.442   6.091 -0.0687  0.0856 -1.0041
  289MOL0     H38981   5.673   5.502   6.153  6.2752  0.9597 -1.3184
  289MOL0     H38982   5.673   5.683   6.183 -2.4018  2.0142 -1.2222
  289MOL0     H38983   5.452   5.579   6.182  0.3185 -0.0328 -0.2390
  289MOL0     H38984   5.482   5.718   6.066 -0.8479  0.1218 -4.9440
  289MOL0     H38985   5.473   5.423   5.969  0.8368 -0.0453  2.8276
  289MOL0     H38986   5.468   5.560   5.873  2.5565 -0.6029  0.0646
  289MOL0     H38987   5.263   5.525   6.091  1.0693 -1.4166  0.1692
  289MOL0     H38988   5.231   5.631   5.952  0.7829 -0.9391 -4.6255
  289MOL0     H38989   5.227   5.327   5.973  2.3550  0.4832  0.4552
  289MOL0     H38990   5.256   5.416   5.824  0.9613  0.6753  0.6010
  289MOL0     H38991   5.023   5.479   6.003  0.6629  0.3941  0.1240
  289MOL0     H38992   5.035   5.512   5.824 -2.1841 -3.2497 -2.4167
  289MOL0     H38993   4.882   5.314   5.921 -0.4974 -1.4599  0.5404
  289MOL0     H38994   5.033   5.220   5.908 -0.0321  0.2977 -0.4584
  289MOL0     H38995   4.921   5.403   5.684  0.6569  0.4358 -0.3344
  289MOL0     H38996   4.888   5.239   5.690 -0.9295  1.5813  0.6612
  289MOL0     H38997   5.851   5.829   5.904 -1.8528 -1.7038 -2.1896
  289MOL0     H38998   6.112   5.851   5.953 -0.5788  1.0996  1.2161
  289MOL0     H38999   6.439   5.489   6.022 -0.8049  0.7477 -3.5993
  289MOL0     H39000   6.670   5.427   5.970 -0.8706 -0.7029  0.3867
  289MOL0     H39001   8.457   5.999   6.296 -0.4654 -1.3050  2.7299
  289MOL0     H39002   8.658   6.089   6.236  0.5238  0.2044 -1.0083
  289MOL0     H39003   9.065   6.307   6.436 -0.5350 -1.1357  0.1088
  289MOL0     H39004   9.294   6.362   6.376 -2.6589  0.8599  1.1739
  289MOL0     H39005   9.480   6.415   6.291  3.0217  0.3369 -0.6845
  289MOL0     H39006   9.534   6.254   6.239 -0.2725 -0.9490 -1.1848
  289MOL0     H39007   9.701   6.403   6.212 -0.3485 -1.7501  0.3520
  289MOL0     H39008   9.611   6.515   6.109  0.1103  1.1832  1.8160
  289MOL0     H39009   9.594   6.293   5.951  1.6982 -3.0448 -0.1892
  289MOL0     H39010   9.720   6.237   6.045 -1.7223  0.7706  2.4000
  289MOL0     H39011   9.747   6.517   5.937  2.3416  0.5366 -0.5239
  289MOL0     H39012   9.768   6.376   5.826 -1.8299  0.3640  0.7799
  289MOL0     H39013  10.122   6.402   6.054  0.1660  0.7843  0.3736
  289MOL0     H39014   9.203   6.295   5.953 -1.1985 -4.0180 -1.1202
  289MOL0     H39015   8.969   6.282   6.019 -1.6948 -1.0345  1.7812
  290MOL0     O39016   0.442   8.592  11.097 -0.0803  1.0808 -0.4282
  290MOL0     C39017   0.518   8.493  11.076 -0.0580 -0.4727  0.6049
  290MOL0     O39018   0.477   8.392  10.998  0.1261  0.1004  0.1084
  290MOL0     C39019   0.344   8.392  10.976  0.1109 -0.5234 -0.5791
  290MOL0     C39020   0.254   8.343  11.067 -0.1371 -0.0652  0.9557
  290MOL0     C39021   0.119   8.362  11.044 -0.1550 -0.6399  0.7253
  290MOL0     C39022   0.078   8.418  10.915 -0.5544  0.6849  0.4118
  290MOL0     O39023  -0.056   8.441  10.887 -0.3810 -1.0302 -0.0467
  290MOL0     C39024  -0.114   8.557  10.950  0.2303  0.3127 -0.1074
  290MOL0     C39025  -0.267   8.534  10.974 -0.7262 -0.4529  0.0624
  290MOL0     C39026  -0.323   8.612  11.096 -0.3539  0.3118 -1.3566
  290MOL0     C39027  -0.473   8.626  11.081  0.6760  0.0855 -0.1157
  290MOL0     C39028  -0.547   8.695  11.201 -0.4163 -0.4670 -0.1875
  290MOL0     C39029  -0.706   8.686  11.186 -0.4903 -0.8821  0.2882
  290MOL0     C39030  -0.781   8.697  11.320 -0.6944  0.3587 -0.7037
  290MOL0     C39031  -0.930   8.716  11.294  0.3014  0.2613 -0.0674
  290MOL0     N39032  -0.963   8.853  11.252  0.2990  0.2957  1.0121
  290MOL0     C39033  -1.064   8.920  11.309  0.3521  0.1245  0.0750
  290MOL0     C39034  -1.076   9.038  11.249 -0.8144  0.0434 -0.2528
  290MOL0     C39035  -1.178   9.135  11.283  0.0946  0.0142  0.4528
  290MOL0     C39036  -1.322   9.097  11.238 -0.8117  0.8304  0.2363
  290MOL0     C39037  -1.422   9.196  11.297 -0.5122 -0.1233 -0.0829
  290MOL0     C39038  -1.567   9.170  11.244  0.5522 -0.6571  0.1270
  290MOL0     O39039  -1.656   9.251  11.320 -0.5234 -0.3953 -0.6220
  290MOL0     C39040  -1.794   9.237  11.312  0.0731 -0.1397  0.4300
  290MOL0     C39041  -1.878   9.298  11.401  0.2286  0.2671 -0.3644
  290MOL0     C39042  -2.011   9.307  11.392  0.1242 -0.2785 -0.5548
  290MOL0     C39043  -2.092   9.404  11.488 -0.1668 -0.0685  0.2817
  290MOL0     C39044  -2.078   9.218  11.299 -0.6566  0.5092  0.1944
  290MOL0     C39045  -2.222   9.211  11.280 -0.6003 -0.3497 -0.1843
  290MOL0     O39046  -2.266   9.088  11.278 -0.6463  0.2458  0.2742
  290MOL0     C39047  -2.395   9.044  11.288 -0.4136  1.0892 -0.3481
  290MOL0     C39048  -2.440   8.947  11.208 -0.5852  0.2160  0.2319
  290MOL0     C39049  -2.570   8.898  11.204 -0.4644  0.4368 -0.8294
  290MOL0     C39050  -2.664   8.961  11.281 -0.0525  0.2829  0.0850
  290MOL0     O39051  -2.799   8.924  11.261 -1.5026 -0.4684 -0.4889
  290MOL0     C39052  -2.900   9.024  11.291 -0.7263  0.3222  0.6332
  290MOL0     C39053  -2.902   9.133  11.189 -0.3553 -0.5588 -0.3803
  290MOL0     C39054  -3.041   9.176  11.138 -0.0527  1.0046 -0.2831
  290MOL0     C39055  -3.026   9.286  11.034  0.0583 -0.0803 -0.1705
  290MOL0     C39056  -3.164   9.344  10.989 -0.6469  1.1883  0.0819
  290MOL0     C39057  -3.129   9.441  10.873 -0.5815 -0.4644 -0.6776
  290MOL0     C39058  -3.253   9.516  10.821 -1.4352  0.7373  0.4695
  290MOL0     C39059  -3.211   9.610  10.709 -0.2446  0.3586 -0.0828
  290MOL0    Cl39060  -3.365   9.710  10.674  0.0218 -0.2454 -0.0349
  290MOL0     C39061  -2.624   9.062  11.368 -0.6251  0.2030  0.4397
  290MOL0     C39062  -2.486   9.098  11.375  0.1794 -0.3247 -0.6986
  290MOL0     O39063  -2.279   9.315  11.284  0.0807  0.8540  0.6822
  290MOL0     C39064  -1.995   9.135  11.216  0.0593  0.7209 -0.2609
  290MOL0     C39065  -1.853   9.150  11.221 -0.2895  0.2928 -0.8307
  290MOL0     N39066  -0.971   9.045  11.156  0.2505  0.0733  0.2599
  290MOL0     N39067  -0.898   8.938  11.164 -0.0282 -0.2210  0.1549
  290MOL0     C39068   0.174   8.454  10.821 -0.1702  0.1975 -0.1022
  290MOL0     C39069   0.306   8.452  10.857  0.4049  0.0221 -0.4663
  290MOL0     C39070   0.655   8.465  11.143 -0.5636  0.3765 -0.5835
  290MOL0     C39071   0.708   8.567  11.215  0.4917 -0.1610  0.4998
  290MOL0     C39072   0.831   8.546  11.283  0.1079 -0.4359  0.7565
  290MOL0     C39073   0.901   8.417  11.269  0.7617  0.4675  0.0676
  290MOL0     O39074   1.019   8.390  11.330 -0.0661 -0.0044 -0.5221
  290MOL0     C39075   1.129   8.448  11.270 -0.4064 -0.6137 -1.0000
  290MOL0     C39076   1.205   8.531  11.376  1.3321 -0.1124  0.3415
  290MOL0     C39077   1.284   8.449  11.480 -0.2032 -0.2285  1.4457
  290MOL0     C39078   1.311   8.542  11.598 -0.2885  0.4135 -0.2417
  290MOL0     C39079   1.392   8.483  11.709  0.8788  0.6715  0.5634
  290MOL0     C39080   1.463   8.428  11.790  0.0784 -0.6128 -0.1414
  290MOL0     C39081   0.837   8.326  11.188 -0.0580  0.5092  0.7813
  290MOL0     C39082   0.720   8.350  11.120 -0.2747 -1.2212  0.8619
  290MOL0     H39083   0.290   8.296  11.157 -0.7367 -1.8638  0.3032
  290MOL0     H39084   0.037   8.336  11.110 -0.7049 -0.0127  0.3110
  290MOL0     H39085  -0.069   8.582  11.046 -1.9522  2.3228  0.4840
  290MOL0     H39086  -0.103   8.645  10.886  0.4573  0.4180  0.0761
  290MOL0     H39087  -0.323   8.538  10.880  0.4825 -1.5429 -0.7341
  290MOL0     H39088  -0.282   8.431  11.009  0.8238 -0.4627  0.7748
  290MOL0     H39089  -0.302   8.553  11.186  0.9074 -0.9718 -2.4557
  290MOL0     H39090  -0.279   8.712  11.102  1.7317 -0.4931 -2.3456
  290MOL0     H39091  -0.495   8.670  10.984  0.8679 -0.6453 -0.5013
  290MOL0     H39092  -0.507   8.522  11.070  3.7716 -0.9083 -1.4521
  290MOL0     H39093  -0.514   8.648  11.294 -0.1157 -0.6403 -0.3803
  290MOL0     H39094  -0.518   8.800  11.214  2.3441 -0.7799 -2.7054
  290MOL0     H39095  -0.729   8.762  11.111  1.0731 -2.0177 -1.4188
  290MOL0     H39096  -0.739   8.593  11.139 -1.1883 -1.4343  1.7889
  290MOL0     H39097  -0.766   8.603  11.374  0.4229 -0.7944 -2.8845
  290MOL0     H39098  -0.756   8.784  11.382  1.2982  0.0758 -1.0386
  290MOL0     H39099  -0.979   8.708  11.392  1.5005 -0.4403  0.5048
  290MOL0     H39100  -0.969   8.644  11.221 -0.1399  1.9474 -1.5488
  290MOL0     H39101  -1.136   8.897  11.387  0.0157 -2.3495 -0.8719
  290MOL0     H39102  -1.185   9.155  11.391 -4.7894  2.2032 -0.0454
  290MOL0     H39103  -1.144   9.233  11.247 -0.3666  0.0312  0.0600
  290MOL0     H39104  -1.345   8.995  11.269 -0.0248 -0.3885 -2.8300
  290MOL0     H39105  -1.332   9.105  11.129 -1.1653 -0.1921  0.1851
  290MOL0     H39106  -1.386   9.298  11.279 -1.3467  0.0882 -0.5947
  290MOL0     H39107  -1.424   9.183  11.405  0.8747 -0.7749 -0.1182
  290MOL0     H39108  -1.608   9.069  11.249 -1.5002  0.0166 -1.6576
  290MOL0     H39109  -1.561   9.186  11.136 -3.5113 -1.0551 -0.3180
  290MOL0     H39110  -1.833   9.363  11.475 -2.7670  0.5747  1.3486
  290MOL0     H39111  -2.106   9.499  11.436 -0.6998  0.5090  1.4262
  290MOL0     H39112  -2.191   9.372  11.522 -0.3941 -0.0855 -0.3798
  290MOL0     H39113  -2.033   9.426  11.578  1.1119  0.9561 -0.7655
  290MOL0     H39114  -2.363   8.918  11.138  2.3503  3.7455  1.6855
  290MOL0     H39115  -2.603   8.824  11.132  1.1463 -0.9215 -0.2373
  290MOL0     H39116  -2.990   8.962  11.288 -1.1324  0.9398 -0.3177
  290MOL0     H39117  -2.876   9.076  11.385 -0.9766  0.6244  0.5308
  290MOL0     H39118  -2.850   9.212  11.244  0.9186 -0.1603 -2.0586
  290MOL0     H39119  -2.839   9.110  11.102 -1.3834 -1.5842 -0.8788
  290MOL0     H39120  -3.097   9.215  11.223 -0.2856  1.0128 -0.4400
  290MOL0     H39121  -3.086   9.086  11.096  2.0219 -0.6243  0.7693
  290MOL0     H39122  -2.965   9.364  11.079 -0.0508 -0.7158  1.1394
  290MOL0     H39123  -2.976   9.255  10.941 -0.9052  0.4815 -0.8985
  290MOL0     H39124  -3.203   9.407  11.069 -1.8807  0.2667  0.2189
  290MOL0     H39125  -3.235   9.265  10.968  0.4365 -0.3335  1.8434
  290MOL0     H39126  -3.059   9.517  10.907  0.2580 -1.4037 -0.2516
  290MOL0     H39127  -3.080   9.383  10.794 -1.7028 -1.7850 -0.4449
  290MOL0     H39128  -3.318   9.558  10.898 -2.9287 -1.7764  0.6998
  290MOL0     H39129  -3.311   9.442  10.765  1.4081 -1.3965  0.1228
  290MOL0     H39130  -3.171   9.557  10.622  1.4117 -0.7455  1.2965
  290MOL0     H39131  -3.128   9.677  10.734 -1.6891  2.5851 -0.8666
  290MOL0     H39132  -2.687   9.117  11.437 -1.2833 -2.1854  1.8831
  290MOL0     H39133  -2.450   9.177  11.441 -4.0100  0.4416  0.9938
  290MOL0     H39134  -2.037   9.077  11.135  1.4288 -0.4120 -0.1971
  290MOL0     H39135  -1.796   9.088  11.152 -0.0598  0.0650 -0.4395
  290MOL0     H39136   0.153   8.476  10.717  1.5332  1.9408 -0.1457
  290MOL0     H39137   0.386   8.476  10.787  0.2634 -0.3112 -0.7491
  290MOL0     H39138   0.643   8.654  11.223 -0.1605 -0.5607 -0.2601
  290MOL0     H39139   0.881   8.618  11.346  0.5204 -1.1007  1.2061
  290MOL0     H39140   1.205   8.376  11.238  2.4612  1.0297  1.5872
  290MOL0     H39141   1.095   8.517  11.192 -0.7133  1.5822  0.9652
  290MOL0     H39142   1.129   8.585  11.433  1.8621 -0.2909  1.2411
  290MOL0     H39143   1.273   8.603  11.330  0.1019  0.0052 -1.4073
  290MOL0     H39144   1.369   8.399  11.433 -0.9446 -0.1298 -0.0799
  290MOL0     H39145   1.211   8.379  11.524 -4.8309  2.7460 -0.6946
  290MOL0     H39146   1.217   8.581  11.640  0.4994  2.3790 -0.2150
  290MOL0     H39147   1.368   8.626  11.559  1.1053 -0.1898  0.4375
  290MOL0     H39148   1.510   8.357  11.855 -0.8695 -1.8075 -0.7268
  290MOL0     H39149   0.895   8.235  11.172  1.1073  1.5326 -1.2515
  290MOL0     H39150   0.686   8.268  11.057  0.1104  0.6726 -1.9927
  291MOL0     O39151   9.193   8.922   9.141  0.4931  0.0707  0.0481
  291MOL0     C39152   9.268   9.019   9.142 -0.1364  0.1681 -0.9580
  291MOL0     O39153   9.231   9.147   9.165  0.4047  0.1322 -0.0658
  291MOL0     C39154   9.105   9.187   9.186 -0.1282  0.4902  0.0105
  291MOL0     C39155   9.062   9.293   9.112  0.2337 -0.2484  0.0352
  291MOL0     C39156   8.939   9.346   9.125 -0.0633 -0.7892  0.1434
  291MOL0     C39157   8.847   9.296   9.221  0.1990  0.6646  0.3857
  291MOL0     O39158   8.726   9.363   9.219 -1.1095 -0.7458  0.0557
  291MOL0     C39159   8.628   9.334   9.324  0.8228 -0.6848 -0.3281
  291MOL0     C39160   8.493   9.403   9.283  0.0760 -0.1368  0.2030
  291MOL0     C39161   8.388   9.384   9.392  0.1849  0.1448  0.1568
  291MOL0     C39162   8.250   9.449   9.365  0.7224  0.9613 -0.3517
  291MOL0     C39163   8.150   9.427   9.484  0.3329 -0.2145 -1.0029
  291MOL0     C39164   8.024   9.521   9.460 -0.1431 -0.0352  0.3226
  291MOL0     C39165   7.905   9.499   9.560 -0.3675  0.3671 -0.2920
  291MOL0     C39166   7.951   9.493   9.704 -0.9135  0.0780 -0.3187
  291MOL0     N39167   7.831   9.517   9.791  0.2819 -0.0231  0.8633
  291MOL0     C39168   7.747   9.414   9.827  0.1248  0.0030 -0.6795
  291MOL0     C39169   7.632   9.481   9.874 -0.0970  0.0917  0.0556
  291MOL0     C39170   7.511   9.405   9.923  0.2813  0.1307 -0.0892
  291MOL0     C39171   7.423   9.497  10.016  0.4469 -0.0714  0.2654
  291MOL0     C39172   7.304   9.417  10.083  0.4278  0.9024 -0.0749
  291MOL0     C39173   7.251   9.493  10.209 -0.5440 -0.4332 -0.8102
  291MOL0     O39174   7.200   9.627  10.175 -0.4428  0.2874  0.1388
  291MOL0     C39175   7.066   9.649  10.144  0.3852  0.4396 -0.3519
  291MOL0     C39176   7.027   9.765  10.080 -0.2022  0.2229  0.3929
  291MOL0     C39177   6.895   9.794  10.024 -0.1977 -0.6106 -0.0286
  291MOL0     C39178   6.867   9.911   9.921 -0.7989  0.5234 -0.4914
  291MOL0     C39179   6.794   9.701  10.053 -0.0320  0.0385  0.6802
  291MOL0     C39180   6.654   9.712   9.999 -0.1020 -0.2071  0.5727
  291MOL0     O39181   6.583   9.826  10.025 -0.3575 -0.0863 -0.6616
  291MOL0     C39182   6.453   9.831   9.988  1.0926  0.5034  0.4971
  291MOL0     C39183   6.410   9.784   9.860  0.4279  1.0250 -0.1646
  291MOL0     C39184   6.289   9.813   9.816  1.2973  0.4231 -0.0414
  291MOL0     C39185   6.188   9.854   9.899  0.3066 -0.4022 -0.2791
  291MOL0     O39186   6.058   9.881   9.855 -0.1071  0.6662  0.8282
  291MOL0     C39187   6.052   9.920   9.720  0.1642 -1.3889 -0.4975
  291MOL0     C39188   5.913   9.981   9.707 -0.1810 -0.3336 -0.0120
  291MOL0     C39189   5.895  10.102   9.807 -0.9974 -0.4779 -0.1592
  291MOL0     C39190   5.786  10.202   9.762 -0.0697 -0.0713 -1.4152
  291MOL0     C39191   5.649  10.145   9.807  0.6982 -0.2544  0.9666
  291MOL0     C39192   5.544  10.222   9.723 -1.3211 -0.5081 -0.2335
  291MOL0     C39193   5.401  10.169   9.724 -0.2949  0.6869 -0.3944
  291MOL0     C39194   5.301  10.251   9.644 -0.4287 -0.3890 -0.8496
  291MOL0    Cl39195   5.145  10.166   9.635 -0.3326 -0.0015  0.3866
  291MOL0     C39196   6.226   9.892  10.031 -0.4138  0.4743  0.3070
  291MOL0     C39197   6.361   9.885  10.072  0.4147  0.9733 -0.3262
  291MOL0     O39198   6.599   9.609   9.974 -0.3913  0.3391  0.3808
  291MOL0     C39199   6.828   9.583  10.129  0.4337  0.0202  0.5067
  291MOL0     C39200   6.962   9.551  10.168  0.2674  0.4966  0.3675
  291MOL0     N39201   7.658   9.623   9.876 -0.0164 -0.0278  0.8525
  291MOL0     N39202   7.773   9.639   9.813  0.1069  0.4048  0.1689
  291MOL0     C39203   8.892   9.185   9.301 -1.4439 -0.4412 -0.0726
  291MOL0     C39204   9.028   9.136   9.295 -0.9889  0.0890  0.1049
  291MOL0     C39205   9.411   8.981   9.136  0.5964 -0.0528  0.1681
  291MOL0     C39206   9.517   9.075   9.157  0.3121 -0.4199  0.1729
  291MOL0     C39207   9.650   9.044   9.122 -0.3273 -0.1614  0.4678
  291MOL0     C39208   9.687   8.912   9.084  0.1967  0.1955 -0.2274
  291MOL0     O39209   9.817   8.868   9.069 -0.2743  0.5049  0.3329
  291MOL0     C39210   9.924   8.950   9.116  0.3504  0.2393 -0.1684
  291MOL0     C39211   9.931   8.980   9.264 -0.0608 -0.1613  0.8691
  291MOL0     C39212  10.054   9.078   9.282 -0.1999 -0.3582 -0.5688
  291MOL0     C39213  10.056   9.112   9.428 -0.3498 -0.3255  0.4609
  291MOL0     C39214  10.193   9.164   9.463 -1.1260  0.1873 -0.5536
  291MOL0     C39215  10.289   9.219   9.507  0.3993 -0.5296 -0.3732
  291MOL0     C39216   9.579   8.820   9.065 -0.1998  0.1073  0.0451
  291MOL0     C39217   9.442   8.848   9.094  0.7079 -0.7292  0.0174
  291MOL0     H39218   9.122   9.339   9.034 -0.0750 -0.5679 -0.3962
  291MOL0     H39219   8.897   9.430   9.070  1.6052 -0.1585 -0.2127
  291MOL0     H39220   8.618   9.225   9.332  0.4006 -0.5950  0.4215
  291MOL0     H39221   8.662   9.366   9.423 -0.1260 -1.7774  0.3877
  291MOL0     H39222   8.511   9.510   9.266 -1.6713 -0.1193 -2.0742
  291MOL0     H39223   8.455   9.364   9.188 -1.9585  1.0283  0.4601
  291MOL0     H39224   8.363   9.280   9.412  1.5002 -0.6778 -2.0423
  291MOL0     H39225   8.430   9.434   9.480 -0.2872 -1.9233  1.6209
  291MOL0     H39226   8.261   9.557   9.350  0.8532  0.8928 -0.7860
  291MOL0     H39227   8.219   9.397   9.274  0.1038 -0.7821  0.8003
  291MOL0     H39228   8.099   9.330   9.483 -0.3699  0.0058 -5.0244
  291MOL0     H39229   8.185   9.449   9.585 -2.0059  1.9000 -0.5486
  291MOL0     H39230   8.048   9.626   9.479  0.6118 -0.4045  1.5524
  291MOL0     H39231   7.981   9.506   9.361 -3.1156 -1.0312  1.6472
  291MOL0     H39232   7.824   9.571   9.546  0.2728  1.0471 -0.5298
  291MOL0     H39233   7.860   9.402   9.537  2.2625 -0.8396 -0.6875
  291MOL0     H39234   8.030   9.565   9.726  0.0357 -0.7863 -0.8045
  291MOL0     H39235   7.996   9.394   9.719  0.7042  1.1045  2.2550
  291MOL0     H39236   7.750   9.307   9.808 -0.8746 -0.9247  3.4483
  291MOL0     H39237   7.451   9.365   9.840  1.0450 -1.0353 -0.1197
  291MOL0     H39238   7.533   9.316   9.984 -2.4222 -1.2493 -0.9685
  291MOL0     H39239   7.384   9.577   9.952 -2.8849 -0.2130  1.8790
  291MOL0     H39240   7.488   9.539  10.093  1.9380 -0.1642 -0.8973
  291MOL0     H39241   7.337   9.316  10.107 -1.1402  0.1066 -1.1040
  291MOL0     H39242   7.221   9.412  10.012 -1.7130  0.8809  2.2948
  291MOL0     H39243   7.328   9.502  10.285 -2.4189 -1.0305  1.2648
  291MOL0     H39244   7.166   9.439  10.251 -1.7631  1.2775 -0.9472
  291MOL0     H39245   7.107   9.831  10.049 -1.0709  1.7914  1.3525
  291MOL0     H39246   6.965   9.958   9.905  1.2333 -3.4246 -0.8672
  291MOL0     H39247   6.835   9.867   9.827  0.7862 -0.0281 -0.8062
  291MOL0     H39248   6.798   9.988   9.958 -0.1284  0.1787  1.6356
  291MOL0     H39249   6.475   9.726   9.796 -0.1315  2.1582 -1.8182
  291MOL0     H39250   6.264   9.795   9.712  0.0918  0.6291  0.1939
  291MOL0     H39251   6.138   9.986   9.703 -0.0022 -0.7046  1.1344
  291MOL0     H39252   6.058   9.830   9.658 -0.9847 -1.7333 -0.1348
  291MOL0     H39253   5.897  10.012   9.604  1.5806  0.5321 -0.0521
  291MOL0     H39254   5.836   9.906   9.728 -0.5649  0.0014 -0.2086
  291MOL0     H39255   5.987  10.161   9.811 -1.7397  0.7028 -0.0412
  291MOL0     H39256   5.858  10.079   9.907 -0.8549  0.7799  0.1933
  291MOL0     H39257   5.811  10.296   9.811  1.4685 -1.0824 -0.1451
  291MOL0     H39258   5.798  10.226   9.656 -0.9689  1.8030 -1.1276
  291MOL0     H39259   5.639  10.151   9.916  4.6249  1.2032  1.3974
  291MOL0     H39260   5.637  10.043   9.769 -1.1287 -0.5892  2.2641
  291MOL0     H39261   5.543  10.323   9.767  3.5531 -0.9276  1.5020
  291MOL0     H39262   5.576  10.228   9.619  0.3092 -0.7076  0.2227
  291MOL0     H39263   5.374  10.167   9.830  5.2513  0.7393  1.3117
  291MOL0     H39264   5.404  10.064   9.693  4.1633  0.8400 -1.1441
  291MOL0     H39265   5.340  10.260   9.542  2.6748 -0.6285  0.2147
  291MOL0     H39266   5.297  10.353   9.683 -0.9627 -0.5753 -0.4013
  291MOL0     H39267   6.159   9.945  10.099 -0.6370 -0.0029  0.4621
  291MOL0     H39268   6.400   9.918  10.168  1.3628  0.7198 -0.6187
  291MOL0     H39269   6.755   9.503  10.119  0.8525 -0.4048  0.7949
  291MOL0     H39270   6.987   9.452  10.205  0.8827 -0.0081 -1.3160
  291MOL0     H39271   8.814   9.145   9.365 -1.7139 -1.2908 -0.9192
  291MOL0     H39272   9.055   9.044   9.345  1.7465 -0.3590 -1.9646
  291MOL0     H39273   9.493   9.181   9.155  0.1326 -0.4702 -0.9645
  291MOL0     H39274   9.722   9.125   9.131 -1.3886  1.0384 -1.2294
  291MOL0     H39275  10.021   8.917   9.078  1.3837  0.8893  1.7801
  291MOL0     H39276   9.914   9.046   9.064 -3.4330 -0.0308 -0.2592
  291MOL0     H39277   9.931   8.892   9.329 -3.1016 -2.6801 -2.1840
  291MOL0     H39278   9.842   9.034   9.297  0.4264  1.4764 -0.3642
  291MOL0     H39279  10.036   9.177   9.238 -0.9883  0.0329  0.6079
  291MOL0     H39280  10.146   9.027   9.251  1.0207  0.4359  1.5457
  291MOL0     H39281  10.036   9.020   9.484 -0.7975 -0.3640  0.2389
  291MOL0     H39282   9.986   9.192   9.455  1.1613  0.6624  1.7140
  291MOL0     H39283  10.380   9.263   9.543 -0.6060  2.4098 -1.1241
  291MOL0     H39284   9.594   8.726   9.013 -0.5792  0.0977 -0.0508
  291MOL0     H39285   9.366   8.773   9.070  1.6431 -1.5930 -0.3174
  292MOL0     O39286   2.152   9.254   2.532 -0.0500  0.8946 -0.1468
  292MOL0     C39287   2.110   9.215   2.638 -0.1168 -0.5557 -0.0927
  292MOL0     O39288   2.161   9.245   2.754 -0.2431 -0.5548  0.3232
  292MOL0     C39289   2.300   9.290   2.758  0.3820  0.6844 -0.2583
  292MOL0     C39290   2.352   9.404   2.697 -0.7339 -0.1261  0.2369
  292MOL0     C39291   2.491   9.438   2.728  0.0086  0.4877  0.1180
  292MOL0     C39292   2.578   9.364   2.801 -0.1565 -0.1102  0.4888
  292MOL0     O39293   2.708   9.397   2.819  0.5084 -0.6320 -0.2694
  292MOL0     C39294   2.751   9.521   2.767  0.0242  0.0080  0.5995
  292MOL0     C39295   2.891   9.555   2.846 -0.0249  0.8198 -0.7335
  292MOL0     C39296   2.968   9.667   2.767 -0.0742  0.2299 -0.6622
  292MOL0     C39297   3.103   9.699   2.819 -0.6237  0.1727  0.4342
  292MOL0     C39298   3.171   9.808   2.733 -0.1040  1.1276 -0.3661
  292MOL0     C39299   3.292   9.874   2.803 -0.0549  0.8647  0.8400
  292MOL0     C39300   3.389   9.959   2.705 -0.1376  0.1455 -0.1517
  292MOL0     C39301   3.304  10.066   2.628 -0.4145  0.1777  0.2332
  292MOL0     N39302   3.231  10.149   2.730 -0.0392  0.5435  0.0947
  292MOL0     C39303   3.093  10.169   2.728  0.7601  0.3479  0.7080
  292MOL0     C39304   3.071  10.272   2.813 -0.1129  0.2801 -0.5854
  292MOL0     C39305   2.944  10.322   2.869  0.0872 -0.3030  0.6237
  292MOL0     C39306   2.817  10.240   2.824 -0.1745  0.3310 -0.1901
  292MOL0     C39307   2.700  10.308   2.901 -0.6340 -0.2166 -0.0543
  292MOL0     C39308   2.568  10.237   2.868 -0.0229  0.4883 -0.5533
  292MOL0     O39309   2.540  10.263   2.732 -0.8931 -0.0215  0.0807
  292MOL0     C39310   2.452  10.177   2.669  0.2901 -0.1741  0.0012
  292MOL0     C39311   2.458  10.191   2.529 -0.8148 -0.2059  0.8039
  292MOL0     C39312   2.372  10.123   2.439  0.2914  0.2183  0.4734
  292MOL0     C39313   2.369  10.164   2.292 -0.5588  0.7512  0.2464
  292MOL0     C39314   2.283  10.026   2.500 -1.0778  0.2141  0.6869
  292MOL0     C39315   2.184   9.943   2.422  0.5032  0.6439  0.5506
  292MOL0     O39316   2.095   9.878   2.502 -1.1520 -0.9913 -0.5841
  292MOL0     C39317   2.023   9.779   2.444 -0.0170  0.3569 -0.7378
  292MOL0     C39318   2.084   9.673   2.371  0.1993 -0.1277  0.3354
  292MOL0     C39319   1.997   9.575   2.321  0.6815 -0.4985  0.5280
  292MOL0     C39320   1.864   9.580   2.337  0.3012 -0.9889  0.6411
  292MOL0     O39321   1.793   9.474   2.295 -0.0365  0.1616  0.2729
  292MOL0     C39322   1.743   9.498   2.162  0.4161  0.5730  1.1079
  292MOL0     C39323   1.654   9.378   2.132  0.0212  1.0428 -0.4867
  292MOL0     C39324   1.511   9.396   2.178 -0.3281 -0.1263  0.2457
  292MOL0     C39325   1.416   9.286   2.146  0.3677 -0.3301 -0.1265
  292MOL0     C39326   1.288   9.307   2.225 -0.4974  0.1774 -0.1790
  292MOL0     C39327   1.180   9.214   2.176  0.6590 -0.0522  0.7202
  292MOL0     C39328   1.038   9.269   2.220 -1.3502  0.2257 -0.8604
  292MOL0     C39329   0.932   9.160   2.199  1.0120 -0.4333 -0.2350
  292MOL0    Cl39330   0.764   9.207   2.248  0.4164 -0.4669 -0.0622
  292MOL0     C39331   1.803   9.678   2.418 -0.6207 -0.3940 -0.0001
  292MOL0     C39332   1.890   9.777   2.471  0.7939  0.6762 -0.4087
  292MOL0     O39333   2.192   9.931   2.302  0.5652  0.2360 -0.4552
  292MOL0     C39334   2.289  10.003   2.638  0.4740 -0.4410 -0.4496
  292MOL0     C39335   2.370  10.075   2.721 -0.6027 -0.8491  1.4783
  292MOL0     N39336   3.190  10.329   2.864 -0.1392  0.4026 -0.0870
  292MOL0     N39337   3.284  10.244   2.817  0.4362 -0.0862 -0.5309
  292MOL0     C39338   2.532   9.247   2.852  0.0463 -0.0117  0.5680
  292MOL0     C39339   2.394   9.214   2.836  0.3042  0.0980  0.1937
  292MOL0     C39340   2.004   9.120   2.629  0.3481 -0.1876  0.3634
  292MOL0     C39341   1.981   9.030   2.735  1.4574 -0.4962  0.3730
  292MOL0     C39342   1.866   8.944   2.731 -0.4587 -0.0072 -0.7766
  292MOL0     C39343   1.783   8.936   2.624  0.0698  0.4017  0.2838
  292MOL0     O39344   1.673   8.850   2.608 -0.5323 -0.5467  0.0732
  292MOL0     C39345   1.620   8.818   2.736 -0.3928  0.1453  1.0288
  292MOL0     C39346   1.463   8.795   2.732 -0.1352  1.2876  0.4951
  292MOL0     C39347   1.421   8.753   2.868  0.2084 -0.4043  0.5359
  292MOL0     C39348   1.384   8.872   2.961 -0.1213  0.2541 -0.2313
  292MOL0     C39349   1.326   8.848   3.097  0.0392  0.0824  0.6523
  292MOL0     C39350   1.270   8.841   3.196 -0.7160 -0.1549  0.8914
  292MOL0     C39351   1.809   9.017   2.517  0.4359 -0.1502  0.2675
  292MOL0     C39352   1.920   9.103   2.516  0.1682 -0.6561 -0.2642
  292MOL0     H39353   2.284   9.464   2.637 -1.8792 -2.9488 -1.5186
  292MOL0     H39354   2.518   9.535   2.687 -0.8274  1.2565  1.3354
  292MOL0     H39355   2.769   9.514   2.660 -0.0535 -0.9822  0.6417
  292MOL0     H39356   2.676   9.595   2.799  0.2942  0.2050  0.7815
  292MOL0     H39357   2.878   9.581   2.952  1.8897 -0.0544 -0.2422
  292MOL0     H39358   2.959   9.469   2.846 -2.1553 -0.9995  1.0632
  292MOL0     H39359   2.972   9.647   2.660 -1.6201  1.7855 -1.0482
  292MOL0     H39360   2.920   9.764   2.777 -1.5408 -0.5755  0.6057
  292MOL0     H39361   3.101   9.747   2.917  0.8336  1.0516  0.0674
  292MOL0     H39362   3.170   9.612   2.818  1.2521  1.5545  0.3943
  292MOL0     H39363   3.206   9.770   2.637  2.4002  2.3881 -0.0411
  292MOL0     H39364   3.105   9.892   2.709  0.1319  1.0353 -1.3983
  292MOL0     H39365   3.258   9.935   2.887  1.3742  3.6396 -0.4514
  292MOL0     H39366   3.347   9.794   2.851  1.3765  2.1386  1.3987
  292MOL0     H39367   3.460  10.004   2.774 -0.7618 -1.7773  1.8932
  292MOL0     H39368   3.449   9.901   2.635  0.6674 -1.7341  1.9548
  292MOL0     H39369   3.228  10.028   2.559 -1.2706  3.5401 -0.8510
  292MOL0     H39370   3.374  10.132   2.577 -2.8591  2.9559  0.2068
  292MOL0     H39371   3.017  10.103   2.687  3.1628 -3.4693  1.8247
  292MOL0     H39372   2.953  10.331   2.977 -0.4568 -2.4617  0.9055
  292MOL0     H39373   2.931  10.424   2.832  1.7643 -0.8705 -1.7506
  292MOL0     H39374   2.828  10.134   2.850  0.6896  0.9712  2.3664
  292MOL0     H39375   2.819  10.246   2.715  3.2866  1.5756 -0.1857
  292MOL0     H39376   2.700  10.412   2.869  2.3017  0.6301  2.2058
  292MOL0     H39377   2.712  10.309   3.010 -0.9902  0.5711 -0.0184
  292MOL0     H39378   2.488  10.281   2.928  0.4442  1.0125 -0.3092
  292MOL0     H39379   2.571  10.131   2.893  1.0224  0.0869 -2.2404
  292MOL0     H39380   2.516  10.279   2.503 -0.2354  1.0577  5.4823
  292MOL0     H39381   2.276  10.212   2.260 -0.7171 -0.6435 -1.5341
  292MOL0     H39382   2.453  10.233   2.282  2.5174 -2.7626 -0.1495
  292MOL0     H39383   2.377  10.080   2.223 -3.4822  0.0624  0.5896
  292MOL0     H39384   2.192   9.666   2.365  0.1185 -2.0702  0.5267
  292MOL0     H39385   2.036   9.491   2.264 -0.7778 -0.2004 -0.9747
  292MOL0     H39386   1.691   9.593   2.148 -1.4213 -0.7660 -2.1337
  292MOL0     H39387   1.829   9.491   2.095  2.3222  1.5724  3.3114
  292MOL0     H39388   1.652   9.357   2.025  2.8228 -0.0659 -0.4038
  292MOL0     H39389   1.693   9.286   2.178 -0.9825  0.8348 -0.0259
  292MOL0     H39390   1.477   9.493   2.140 -0.7447 -0.0481  0.8018
  292MOL0     H39391   1.529   9.410   2.284  1.1286  0.5947 -0.0739
  292MOL0     H39392   1.396   9.300   2.039  0.9943  2.6499  0.0732
  292MOL0     H39393   1.444   9.181   2.162  1.2681  0.0870  1.1355
  292MOL0     H39394   1.254   9.411   2.222 -1.1219 -0.0250 -0.3067
  292MOL0     H39395   1.303   9.286   2.332 -1.8175  2.1477  0.4560
  292MOL0     H39396   1.179   9.218   2.067 -1.1243  0.1335  0.7049
  292MOL0     H39397   1.197   9.112   2.211 -2.5506 -0.9022  0.1664
  292MOL0     H39398   1.023   9.361   2.163 -4.8077  1.2672  1.3754
  292MOL0     H39399   1.050   9.290   2.327 -0.2099 -1.6984 -0.5651
  292MOL0     H39400   0.962   9.060   2.230  3.8073  0.4563  0.2045
  292MOL0     H39401   0.911   9.153   2.092  1.4235  0.3108 -0.3722
  292MOL0     H39402   1.696   9.662   2.427 -0.6718 -1.4832 -1.9542
  292MOL0     H39403   1.849   9.863   2.522 -1.7848  2.0227 -4.2471
  292MOL0     H39404   2.212   9.941   2.684 -0.7127  1.1269 -0.2276
  292MOL0     H39405   2.376  10.061   2.828  2.1708 -1.1816  1.3566
  292MOL0     H39406   2.599   9.189   2.915  0.6845  2.2162  2.0675
  292MOL0     H39407   2.364   9.128   2.895 -0.6748 -0.0527 -0.4982
  292MOL0     H39408   2.032   9.049   2.829  0.0163  0.0012  1.0933
  292MOL0     H39409   1.851   8.883   2.819  1.5200  0.1020 -0.3092
  292MOL0     H39410   1.657   8.725   2.780  0.8566  0.5103  0.7771
  292MOL0     H39411   1.627   8.896   2.812 -2.5109  1.1679  0.2547
  292MOL0     H39412   1.429   8.712   2.668  0.9808 -0.0904  1.6280
  292MOL0     H39413   1.414   8.887   2.700  0.9787  1.1987 -1.6565
  292MOL0     H39414   1.488   8.682   2.917  1.4894 -0.1607 -0.7962
  292MOL0     H39415   1.329   8.694   2.853 -0.9548  1.7591 -1.5068
  292MOL0     H39416   1.310   8.928   2.903  1.4118 -1.6212 -4.3647
  292MOL0     H39417   1.467   8.942   2.979 -0.0260 -0.5498  3.1415
  292MOL0     H39418   1.227   8.820   3.291  1.3238  0.1508  1.9277
  292MOL0     H39419   1.742   9.026   2.432 -0.5640  1.9978  1.2121
  292MOL0     H39420   1.951   9.157   2.426 -3.0841  2.6507  0.3444
  293MOL0     O39421   3.750   1.572   2.038  0.3622  0.7217  0.0125
  293MOL0     C39422   3.778   1.657   1.949 -0.4920  0.2961  0.4778
  293MOL0     O39423   3.692   1.693   1.850 -0.7093  0.3528 -0.2904
  293MOL0     C39424   3.561   1.675   1.867 -0.3802  0.4036 -0.5131
  293MOL0     C39425   3.482   1.647   1.751  0.6739  0.7514 -1.3625
  293MOL0     C39426   3.346   1.620   1.763  0.3509 -0.1560 -0.6134
  293MOL0     C39427   3.282   1.626   1.889 -0.1849 -0.8127 -0.2014
  293MOL0     O39428   3.148   1.599   1.903 -0.3929  0.4559  1.0607
  293MOL0     C39429   3.057   1.599   1.796  0.1214  0.8648 -0.3086
  293MOL0     C39430   2.924   1.639   1.865  0.0827  0.2986 -0.3563
  293MOL0     C39431   2.807   1.619   1.767 -0.0081 -0.0764  0.0077
  293MOL0     C39432   2.678   1.619   1.835 -0.9470  0.0354 -0.4737
  293MOL0     C39433   2.562   1.579   1.737  0.5643 -0.0151  0.2710
  293MOL0     C39434   2.429   1.574   1.820 -0.3667  0.0788 -0.4023
  293MOL0     C39435   2.307   1.547   1.730  0.7586  0.0117  0.4366
  293MOL0     C39436   2.185   1.493   1.812 -1.3755 -0.3116 -0.2410
  293MOL0     N39437   2.065   1.461   1.733  0.5733  0.5010 -0.2758
  293MOL0     C39438   1.996   1.543   1.653 -0.3903  0.5999 -0.0081
  293MOL0     C39439   1.870   1.493   1.644  0.5399 -0.1769 -1.2378
  293MOL0     C39440   1.754   1.559   1.566  0.1594 -0.4436 -0.1740
  293MOL0     C39441   1.786   1.579   1.419 -0.2420  0.2260  0.1031
  293MOL0     C39442   1.776   1.455   1.323  0.2176 -0.3807 -0.2339
  293MOL0     C39443   1.626   1.431   1.285  0.0031  0.1882 -0.1738
  293MOL0     O39444   1.623   1.333   1.185 -0.0746  0.7126 -0.3272
  293MOL0     C39445   1.506   1.321   1.107 -0.5916 -0.7780 -0.1820
  293MOL0     C39446   1.397   1.412   1.101  0.8331  0.2259 -0.6932
  293MOL0     C39447   1.292   1.390   1.002 -0.5969 -0.8099  0.6130
  293MOL0     C39448   1.198   1.504   0.987  0.2080  0.2275  0.1284
  293MOL0     C39449   1.285   1.271   0.937  0.4962  0.1600 -0.1851
  293MOL0     C39450   1.161   1.207   0.871  0.0881 -0.3555  1.1626
  293MOL0     O39451   1.182   1.093   0.795  0.2825  0.6129 -0.6843
  293MOL0     C39452   1.087   1.031   0.716 -0.1107 -0.5849  0.3211
  293MOL0     C39453   1.083   0.898   0.701  0.1441  0.7646  0.6329
  293MOL0     C39454   0.992   0.832   0.616  0.0024 -0.4613  0.6126
  293MOL0     C39455   0.906   0.910   0.533 -0.7360 -0.7700  0.0679
  293MOL0     O39456   0.818   0.841   0.452  0.1441  0.1395 -0.4831
  293MOL0     C39457   0.780   0.887   0.322 -1.0218 -0.2940 -0.3236
  293MOL0     C39458   0.710   0.770   0.257  0.7109 -0.4653 -0.2173
  293MOL0     C39459   0.580   0.711   0.324 -0.0931  0.4900  0.0819
  293MOL0     C39460   0.478   0.809   0.377 -0.6910 -1.0883 -0.2363
  293MOL0     C39461   0.367   0.738   0.448  0.4377  1.0275 -0.4428
  293MOL0     C39462   0.258   0.833   0.497  0.2281  0.0331 -0.0979
  293MOL0     C39463   0.152   0.758   0.580 -0.2753  0.0267 -0.0450
  293MOL0     C39464   0.052   0.862   0.626  0.3712  0.6616 -0.1553
  293MOL0    Cl39465  -0.053   0.797   0.759 -0.3421  0.3008 -0.0848
  293MOL0     C39466   0.900   1.045   0.556 -0.2599  0.3538  0.2934
  293MOL0     C39467   0.992   1.107   0.638 -0.5421  0.2857  0.3325
  293MOL0     O39468   1.055   1.257   0.892  0.7534 -0.0793 -1.6459
  293MOL0     C39469   1.402   1.183   0.938 -0.0873  0.1428  0.2162
  293MOL0     C39470   1.514   1.215   1.011  0.0250 -0.1915  0.3475
  293MOL0     N39471   1.877   1.362   1.695 -0.2521 -0.6111  0.3373
  293MOL0     N39472   1.997   1.342   1.753  0.7382  0.5388 -0.2085
  293MOL0     C39473   3.364   1.668   1.998  0.7232  0.4036 -0.5964
  293MOL0     C39474   3.498   1.697   1.990 -0.5528 -0.7429  0.4967
  293MOL0     C39475   3.918   1.705   1.938  0.7806  0.1958 -0.4761
  293MOL0     C39476   3.966   1.776   1.827 -0.2599 -0.7129 -0.1030
  293MOL0     C39477   4.101   1.811   1.817  0.3387 -0.7100  0.1239
  293MOL0     C39478   4.192   1.763   1.908  0.3115  0.1476 -0.1678
  293MOL0     O39479   4.325   1.771   1.884  0.2377  0.5671 -0.6009
  293MOL0     C39480   4.374   1.848   1.776 -0.6462 -0.6940 -0.0253
  293MOL0     C39481   4.519   1.872   1.795 -0.0035  0.4152  0.2679
  293MOL0     C39482   4.608   1.741   1.778  1.1645 -0.5783  0.0011
  293MOL0     C39483   4.573   1.604   1.838  0.9144 -0.0096  0.7676
  293MOL0     C39484   4.677   1.508   1.838 -0.1334 -0.0407  0.4515
  293MOL0     C39485   4.762   1.427   1.871 -0.3710 -0.3970  0.7129
  293MOL0     C39486   4.153   1.684   2.022  0.0398 -0.2109  0.6146
  293MOL0     C39487   4.012   1.656   2.030  0.1000 -0.1057  0.0805
  293MOL0     H39488   3.535   1.640   1.656  1.0051 -0.6759 -1.0965
  293MOL0     H39489   3.282   1.601   1.677 -0.3498 -1.7822  0.2395
  293MOL0     H39490   3.075   1.662   1.708  0.3922  0.7344 -0.3484
  293MOL0     H39491   3.045   1.496   1.760 -0.8058  1.3376 -1.4431
  293MOL0     H39492   2.908   1.578   1.954 -1.5453 -0.3456 -1.0482
  293MOL0     H39493   2.927   1.744   1.897 -2.3400  0.3025  0.0187
  293MOL0     H39494   2.808   1.696   1.688  0.2398 -0.2950 -0.2033
  293MOL0     H39495   2.828   1.527   1.713  1.6637  0.8371 -1.0133
  293MOL0     H39496   2.683   1.539   1.908  0.2087  0.1860 -0.3653
  293MOL0     H39497   2.656   1.715   1.883 -1.3518 -0.1427 -0.3046
  293MOL0     H39498   2.572   1.648   1.652 -0.3611 -0.3620 -0.1314
  293MOL0     H39499   2.577   1.476   1.705 -1.8722  0.0604 -1.3478
  293MOL0     H39500   2.429   1.498   1.899 -1.6220 -1.6001 -1.9430
  293MOL0     H39501   2.408   1.672   1.864  1.0087  1.1837 -2.0757
  293MOL0     H39502   2.278   1.644   1.688  0.4291 -0.0850  0.4380
  293MOL0     H39503   2.329   1.479   1.647 -0.1797  0.2347 -0.0015
  293MOL0     H39504   2.159   1.572   1.883  0.9396 -0.9730  1.4701
  293MOL0     H39505   2.211   1.408   1.876 -1.8499 -0.1096  0.2288
  293MOL0     H39506   2.038   1.636   1.617 -0.0273  0.3758 -0.1602
  293MOL0     H39507   1.673   1.489   1.587  1.1732 -1.3320  0.8854
  293MOL0     H39508   1.730   1.661   1.598  0.0243  0.4506 -2.9254
  293MOL0     H39509   1.891   1.611   1.414 -0.7168  1.9242  0.3458
  293MOL0     H39510   1.729   1.658   1.369  0.3470  0.6448  0.0754
  293MOL0     H39511   1.817   1.366   1.370  2.3795  1.2575  1.1703
  293MOL0     H39512   1.835   1.470   1.231  2.3042 -1.8474  0.7921
  293MOL0     H39513   1.574   1.523   1.253  0.7154  1.5995  2.4225
  293MOL0     H39514   1.571   1.398   1.374 -0.7067  2.3771  0.2803
  293MOL0     H39515   1.384   1.496   1.168  3.0311  0.6492 -0.7298
  293MOL0     H39516   1.239   1.599   1.024  2.1570 -0.0065 -1.2867
  293MOL0     H39517   1.192   1.507   0.878  0.4082  0.4507  0.1222
  293MOL0     H39518   1.101   1.480   1.032 -0.5513 -1.4566 -2.2460
  293MOL0     H39519   1.150   0.829   0.752  0.8344  1.3257  0.4869
  293MOL0     H39520   0.993   0.724   0.617  2.5971 -0.5829 -1.9783
  293MOL0     H39521   0.715   0.975   0.326 -1.4987 -0.6715  0.7621
  293MOL0     H39522   0.871   0.914   0.267 -0.4903  0.2154  0.7658
  293MOL0     H39523   0.664   0.803   0.163  2.3392  0.7503 -0.6416
  293MOL0     H39524   0.777   0.685   0.241 -2.8224 -2.9295 -3.8858
  293MOL0     H39525   0.615   0.652   0.410 -1.0550 -1.4832 -0.8277
  293MOL0     H39526   0.529   0.645   0.254  0.0491 -1.0894  1.4053
  293MOL0     H39527   0.523   0.895   0.427 -3.3417  0.5055 -0.4220
  293MOL0     H39528   0.432   0.856   0.289  2.9202 -0.0001 -1.7284
  293MOL0     H39529   0.415   0.688   0.533 -0.0467  0.7547 -0.3278
  293MOL0     H39530   0.315   0.671   0.378 -2.4081 -0.4161  2.7966
  293MOL0     H39531   0.296   0.921   0.548 -2.1428  0.3005  1.3535
  293MOL0     H39532   0.208   0.880   0.411  1.3854  2.1430  0.3110
  293MOL0     H39533   0.191   0.704   0.667 -2.8794 -2.2222 -0.1357
  293MOL0     H39534   0.108   0.675   0.522  2.5883 -2.2038  0.7417
  293MOL0     H39535   0.002   0.914   0.544 -2.6013 -1.8726 -0.1325
  293MOL0     H39536   0.114   0.942   0.669 -2.1603  1.6521  1.9061
  293MOL0     H39537   0.820   1.100   0.507 -2.1587 -4.0935 -2.1438
  293MOL0     H39538   0.991   1.216   0.644  1.7961  0.3338  0.7653
  293MOL0     H39539   1.424   1.092   0.883  2.0771  0.2434  0.8098
  293MOL0     H39540   1.592   1.140   1.002  1.1634  0.6405  2.5030
  293MOL0     H39541   3.314   1.678   2.094  2.5520  0.7382  0.3587
  293MOL0     H39542   3.553   1.730   2.078  0.6147  0.8296 -0.7756
  293MOL0     H39543   3.890   1.803   1.754 -1.9029  0.9174  2.0599
  293MOL0     H39544   4.129   1.871   1.732 -1.6609 -0.7223 -0.5846
  293MOL0     H39545   4.381   1.800   1.678  1.0527  1.0966 -0.8333
  293MOL0     H39546   4.325   1.946   1.783  3.4391  1.4965  1.1769
  293MOL0     H39547   4.542   1.914   1.893  0.5257 -1.8910  1.1999
  293MOL0     H39548   4.545   1.946   1.719 -0.8348  0.5759  0.1324
  293MOL0     H39549   4.712   1.756   1.809  2.4160 -4.5863 -1.5497
  293MOL0     H39550   4.616   1.726   1.670 -2.5691 -0.9562 -0.3344
  293MOL0     H39551   4.495   1.561   1.774  0.1748  2.5202 -0.1597
  293MOL0     H39552   4.531   1.620   1.938  1.6460  1.8940  0.8083
  293MOL0     H39553   4.828   1.348   1.899  2.6454  2.3463  1.9316
  293MOL0     H39554   4.231   1.642   2.085 -0.1846  0.2393  1.1995
  293MOL0     H39555   3.966   1.591   2.103 -0.6982 -4.6144 -3.8844
  294MOL0     O39556   9.695   4.282   7.389  0.3664  0.5379  0.2564
  294MOL0     C39557   9.618   4.286   7.291  0.3251  1.0382 -0.6478
  294MOL0     O39558   9.652   4.262   7.157  0.2286  0.5969 -0.4031
  294MOL0     C39559   9.776   4.203   7.133  1.1556  0.7300 -0.2785
  294MOL0     C39560   9.771   4.084   7.059  0.2827 -0.4120 -0.2160
  294MOL0     C39561   9.889   4.016   7.028  0.7099 -0.0301  1.1004
  294MOL0     C39562  10.013   4.075   7.071 -0.1866 -0.3375  0.7607
  294MOL0     O39563  10.141   4.024   7.047  0.1642 -0.8652 -0.7573
  294MOL0     C39564  10.159   3.891   6.999  0.7789  0.7236  0.0114
  294MOL0     C39565  10.306   3.838   6.990 -0.2529 -0.1050 -0.3373
  294MOL0     C39566  10.410   3.911   6.909  0.4740  0.1488 -0.2153
  294MOL0     C39567  10.558   3.900   6.956  0.3934 -1.2550  0.4201
  294MOL0     C39568  10.589   4.018   7.049 -0.1356  0.2009  0.0550
  294MOL0     C39569  10.737   4.031   7.085  0.2521 -0.3526  0.1843
  294MOL0     C39570  10.763   4.148   7.176  0.1157 -0.1262  0.6047
  294MOL0     C39571  10.903   4.154   7.228 -0.3552 -0.8085  1.1360
  294MOL0     N39572  10.915   4.278   7.311 -0.2268 -0.0673  0.1091
  294MOL0     C39573  10.852   4.407   7.303  0.3133 -0.8322 -0.6061
  294MOL0     C39574  10.905   4.479   7.411  0.3451 -0.7852  0.6002
  294MOL0     C39575  10.880   4.625   7.434 -0.2016 -0.2033  0.6818
  294MOL0     C39576  10.951   4.678   7.554  0.6008 -0.1911 -0.4631
  294MOL0     C39577  11.103   4.685   7.538 -1.1834  1.1774  0.1496
  294MOL0     C39578  11.168   4.739   7.661  0.8218 -0.7367 -0.0153
  294MOL0     O39579  11.294   4.802   7.634 -0.0131 -0.2764 -0.8307
  294MOL0     C39580  11.415   4.752   7.675  0.5813 -0.2577  0.1729
  294MOL0     C39581  11.525   4.829   7.666  0.2191  0.8020  0.1951
  294MOL0     C39582  11.653   4.784   7.669 -0.4930  0.1722 -0.3391
  294MOL0     C39583  11.760   4.886   7.630 -0.2786 -0.0277 -0.3141
  294MOL0     C39584  11.673   4.649   7.705  0.4975 -0.6924  0.2119
  294MOL0     C39585  11.815   4.598   7.730 -0.5629 -0.4794  0.4560
  294MOL0     O39586  11.831   4.463   7.719 -0.7651  0.3358 -0.2618
  294MOL0     C39587  11.959   4.417   7.734 -0.0625  0.3164  0.6211
  294MOL0     C39588  12.059   4.430   7.638  0.4444  0.0080  1.0541
  294MOL0     C39589  12.187   4.400   7.666 -0.5238 -1.4045  0.2721
  294MOL0     C39590  12.233   4.353   7.792  0.4518  0.0611 -0.8515
  294MOL0     O39591  12.365   4.327   7.807  0.3965  0.0217  0.0891
  294MOL0     C39592  12.401   4.233   7.903  0.2522 -0.9390 -0.7087
  294MOL0     C39593  12.554   4.204   7.902 -0.4206 -0.3649  0.5573
  294MOL0     C39594  12.591   4.103   7.792  0.7176  0.7831 -0.3226
  294MOL0     C39595  12.733   4.059   7.805 -0.2554 -0.0448 -0.4292
  294MOL0     C39596  12.767   3.975   7.676  0.3786  0.5381  0.2305
  294MOL0     C39597  12.918   3.981   7.644  0.6204  1.1121  0.2859
  294MOL0     C39598  12.949   3.895   7.516 -0.0771 -1.1847  0.2196
  294MOL0     C39599  13.004   3.759   7.555 -1.2004 -0.3121 -0.3443
  294MOL0    Cl39600  13.168   3.800   7.609 -0.1740  0.1859 -0.3148
  294MOL0     C39601  12.129   4.337   7.895 -0.4311 -0.0966 -0.0481
  294MOL0     C39602  11.992   4.361   7.856 -0.1379 -0.7017 -0.6119
  294MOL0     O39603  11.904   4.676   7.758  0.5982 -0.4321  0.3931
  294MOL0     C39604  11.563   4.565   7.705  0.6018  0.4370 -0.5948
  294MOL0     C39605  11.432   4.617   7.702  0.4380 -0.8071 -0.0839
  294MOL0     N39606  10.987   4.396   7.477  0.8743  0.2182 -0.1946
  294MOL0     N39607  10.994   4.277   7.422 -0.4748 -0.0234  0.7090
  294MOL0     C39608  10.009   4.192   7.143 -0.4250 -0.1594  0.6949
  294MOL0     C39609   9.896   4.257   7.179 -0.5482 -0.6992 -0.0827
  294MOL0     C39610   9.474   4.307   7.322 -0.7251  0.2959  0.1088
  294MOL0     C39611   9.370   4.271   7.229 -1.0171 -0.5324 -0.1121
  294MOL0     C39612   9.238   4.290   7.268  0.1518 -0.2981  0.5503
  294MOL0     C39613   9.201   4.345   7.392 -0.6820  0.4669  0.1711
  294MOL0     O39614   9.069   4.355   7.423 -0.1581  0.1818  0.4282
  294MOL0     C39615   9.020   4.399   7.555  0.0657  0.3186  0.0382
  294MOL0     C39616   8.991   4.271   7.636 -0.5806  0.1087  1.1780
  294MOL0     C39617   9.119   4.233   7.715  0.6006  0.0047  0.3327
  294MOL0     C39618   9.102   4.124   7.818 -0.6389  0.0778 -0.4674
  294MOL0     C39619   9.165   4.157   7.948 -0.4012 -0.2018 -0.6623
  294MOL0     C39620   9.229   4.180   8.045 -0.5580 -0.3455  0.7502
  294MOL0     C39621   9.306   4.399   7.469 -0.1217 -1.2733  0.2769
  294MOL0     C39622   9.442   4.388   7.433  0.1502  0.3762  0.7750
  294MOL0     H39623   9.681   4.043   7.016  0.1654  2.7803 -3.4992
  294MOL0     H39624   9.885   3.924   6.972 -3.9028  0.6414 -0.0459
  294MOL0     H39625  10.101   3.821   7.059  0.7000  1.3595  0.6954
  294MOL0     H39626  10.125   3.888   6.895 -1.9793 -3.0871  0.8235
  294MOL0     H39627  10.334   3.836   7.095  0.8457  0.7440 -0.6039
  294MOL0     H39628  10.307   3.732   6.963 -2.9686 -0.6644  1.3889
  294MOL0     H39629  10.412   3.886   6.802 -0.6096  0.3800 -0.2931
  294MOL0     H39630  10.393   4.018   6.915  2.3529  0.4000  1.8950
  294MOL0     H39631  10.571   3.807   7.013  0.6138 -2.0733 -0.9335
  294MOL0     H39632  10.633   3.904   6.876 -0.1290  0.3175 -0.0209
  294MOL0     H39633  10.565   4.107   6.990 -0.1655 -0.3287 -0.7333
  294MOL0     H39634  10.523   4.002   7.135 -0.6579  2.3628  0.1273
  294MOL0     H39635  10.775   3.940   7.132  0.2961  0.5256  1.9103
  294MOL0     H39636  10.789   4.026   6.989 -1.6795 -0.0419 -0.9393
  294MOL0     H39637  10.753   4.241   7.120 -1.1620 -1.0960 -0.8558
  294MOL0     H39638  10.680   4.142   7.248 -2.3371 -2.1626 -2.1654
  294MOL0     H39639  10.975   4.161   7.147 -0.0720  0.2982  1.4684
  294MOL0     H39640  10.923   4.065   7.290  0.2421 -0.4659  1.4393
  294MOL0     H39641  10.771   4.437   7.238 -0.2656 -0.5099  0.2463
  294MOL0     H39642  10.906   4.692   7.351  0.5519 -1.3007  0.0043
  294MOL0     H39643  10.772   4.642   7.437 -0.1598  0.6017 -1.1032
  294MOL0     H39644  10.919   4.614   7.637 -0.7102  0.4626 -0.4283
  294MOL0     H39645  10.904   4.774   7.578  2.5532  0.5775  0.4613
  294MOL0     H39646  11.124   4.750   7.453 -0.4742  2.9514  1.6032
  294MOL0     H39647  11.147   4.587   7.514 -1.1509  1.2216  0.0329
  294MOL0     H39648  11.180   4.658   7.733  0.6176  0.3604  1.3039
  294MOL0     H39649  11.100   4.816   7.699  1.9138  0.0640  0.3511
  294MOL0     H39650  11.515   4.934   7.641 -1.3702  1.4529  3.1048
  294MOL0     H39651  11.817   4.921   7.718 -1.4675 -4.0905  2.3559
  294MOL0     H39652  11.835   4.838   7.567 -0.6192  0.5225 -1.1505
  294MOL0     H39653  11.716   4.972   7.579  2.4570  1.9641  0.4528
  294MOL0     H39654  12.030   4.487   7.551 -0.8438 -0.4716  1.1466
  294MOL0     H39655  12.243   4.431   7.579 -0.9663 -1.2237  0.0477
  294MOL0     H39656  12.375   4.273   8.001 -0.1025  0.6132 -1.4107
  294MOL0     H39657  12.340   4.144   7.886 -1.7090  0.3698 -0.8329
  294MOL0     H39658  12.610   4.294   7.872 -0.2266 -0.3448  0.9786
  294MOL0     H39659  12.590   4.172   8.000  1.2569  0.9957  0.4415
  294MOL0     H39660  12.575   4.146   7.693 -1.2430  1.9952  0.4679
  294MOL0     H39661  12.524   4.017   7.799  2.6795 -0.7978 -0.0546
  294MOL0     H39662  12.795   4.150   7.806 -1.5575  0.9023  1.4951
  294MOL0     H39663  12.747   4.005   7.899 -2.3559 -2.6064 -1.4565
  294MOL0     H39664  12.720   4.004   7.581  2.3222 -4.4415 -2.6325
  294MOL0     H39665  12.731   3.872   7.685  4.3111 -1.0338 -0.1491
  294MOL0     H39666  12.951   4.082   7.620 -0.0936  0.9611 -1.5197
  294MOL0     H39667  12.967   3.943   7.734 -0.9095 -0.3380  0.5717
  294MOL0     H39668  13.022   3.946   7.453 -0.5511 -1.1821 -0.3336
  294MOL0     H39669  12.863   3.872   7.452 -1.2683  0.9155  0.9389
  294MOL0     H39670  13.003   3.685   7.475 -4.4255 -1.3814  0.5553
  294MOL0     H39671  12.945   3.718   7.637 -0.3089 -2.2873 -0.6385
  294MOL0     H39672  12.143   4.316   8.001  0.5951 -0.2723 -0.2098
  294MOL0     H39673  11.918   4.349   7.934  0.0057 -2.4556 -0.7129
  294MOL0     H39674  11.573   4.460   7.730  0.4547  0.7702  0.9600
  294MOL0     H39675  11.354   4.542   7.710 -0.4939  0.2015  0.6867
  294MOL0     H39676  10.111   4.221   7.168  0.8370 -2.9980 -0.6407
  294MOL0     H39677   9.888   4.358   7.218  0.6392 -0.9406  0.8586
  294MOL0     H39678   9.396   4.221   7.136 -1.9976 -0.1291 -0.6117
  294MOL0     H39679   9.153   4.266   7.205  0.5177  0.7723 -0.3984
  294MOL0     H39680   9.091   4.469   7.602  0.3349  1.7828 -2.4005
  294MOL0     H39681   8.925   4.450   7.542 -0.1156 -0.3541 -1.4824
  294MOL0     H39682   8.960   4.190   7.569 -0.4509  0.6589  0.4424
  294MOL0     H39683   8.910   4.297   7.705  1.7572  2.3770  3.2500
  294MOL0     H39684   9.151   4.321   7.772  0.2711  0.9126 -0.8563
  294MOL0     H39685   9.193   4.202   7.640  0.1341  2.4046 -1.2146
  294MOL0     H39686   9.131   4.027   7.777  0.0291 -0.7833  1.8560
  294MOL0     H39687   8.996   4.113   7.844 -0.9534 -3.0257 -2.5681
  294MOL0     H39688   9.288   4.221   8.125  0.3313  4.0656 -1.8050
  294MOL0     H39689   9.280   4.465   7.551 -4.7857 -1.6311 -0.6509
  294MOL0     H39690   9.521   4.411   7.504 -0.1391 -1.8729  1.9067
  295MOL0     O39691   4.609   1.305   8.205 -0.0131  0.6171  0.0553
  295MOL0     C39692   4.597   1.243   8.312  0.7879 -0.1333  1.5301
  295MOL0     O39693   4.489   1.177   8.356  0.3163 -0.7903 -0.5913
  295MOL0     C39694   4.373   1.156   8.283  0.3607 -0.0288  0.0180
  295MOL0     C39695   4.255   1.119   8.353  0.3229 -1.1238  0.3259
  295MOL0     C39696   4.133   1.086   8.290  0.2536 -0.7480 -0.7320
  295MOL0     C39697   4.125   1.091   8.148 -0.3920 -0.6381  0.0176
  295MOL0     O39698   4.015   1.034   8.080 -0.4983 -0.9429 -0.5830
  295MOL0     C39699   4.055   0.943   7.979 -0.7423 -0.5446 -0.9094
  295MOL0     C39700   3.932   0.841   7.967 -0.3458  0.5437  0.1760
  295MOL0     C39701   3.818   0.917   7.893  0.0462  0.5058  0.5701
  295MOL0     C39702   3.693   0.828   7.882 -0.0933 -0.4223 -0.2328
  295MOL0     C39703   3.587   0.890   7.784 -0.0252  0.0990 -0.2863
  295MOL0     C39704   3.467   0.796   7.766  0.0695 -1.0889  0.0044
  295MOL0     C39705   3.344   0.839   7.678  0.7931  0.0182 -0.1986
  295MOL0     C39706   3.230   0.734   7.663 -0.2169  0.2430  0.2222
  295MOL0     N39707   3.153   0.725   7.790  0.2329 -0.7231 -0.3549
  295MOL0     C39708   3.134   0.605   7.838  0.1447  0.4424 -0.1610
  295MOL0     C39709   3.065   0.623   7.953  0.0455  0.3593  0.0151
  295MOL0     C39710   3.019   0.509   8.034  0.0715 -0.4345 -0.0130
  295MOL0     C39711   2.869   0.514   8.059  0.1830  0.7268  1.1426
  295MOL0     C39712   2.787   0.478   7.934 -0.4296 -0.0145 -0.3786
  295MOL0     C39713   2.642   0.489   7.967  0.3996  0.2768  1.2665
  295MOL0     O39714   2.570   0.455   7.838 -0.1038  0.1807 -0.2300
  295MOL0     C39715   2.436   0.419   7.841 -0.4453  0.5270  0.0539
  295MOL0     C39716   2.390   0.325   7.748 -0.0716 -0.3820 -0.5514
  295MOL0     C39717   2.250   0.294   7.750  1.2240 -0.2345  0.1287
  295MOL0     C39718   2.203   0.187   7.661 -0.1307  0.0317  1.2354
  295MOL0     C39719   2.168   0.367   7.839  0.6073 -0.2319 -0.0339
  295MOL0     C39720   2.023   0.338   7.851 -0.3132 -0.5106 -0.5084
  295MOL0     O39721   1.933   0.374   7.755  0.4276  0.0250  0.3285
  295MOL0     C39722   1.808   0.316   7.769 -0.3151  0.3876  0.4146
  295MOL0     C39723   1.690   0.396   7.794 -0.0611  0.3108  0.1558
  295MOL0     C39724   1.561   0.339   7.796 -0.5045  0.5936  0.4203
  295MOL0     C39725   1.534   0.202   7.767  0.0084 -0.3697  1.1652
  295MOL0     O39726   1.404   0.157   7.775 -0.1775  0.3596  0.3648
  295MOL0     C39727   1.377   0.012   7.759 -0.0243 -0.7685  0.3140
  295MOL0     C39728   1.228  -0.014   7.739 -0.5108 -0.6786  0.8669
  295MOL0     C39729   1.141   0.067   7.839 -0.1960  0.3984  0.3866
  295MOL0     C39730   0.997   0.019   7.854 -0.3610 -0.4280 -0.2672
  295MOL0     C39731   0.911   0.116   7.942  0.4033  0.2081  0.1550
  295MOL0     C39732   0.758   0.083   7.933 -0.4418 -0.9160 -0.3487
  295MOL0     C39733   0.691   0.139   8.068  0.1163 -0.6371  0.2502
  295MOL0     C39734   0.539   0.104   8.084  0.6302  0.5660 -0.2500
  295MOL0    Cl39735   0.467   0.089   7.917 -0.3683 -0.1903 -0.1024
  295MOL0     C39736   1.653   0.124   7.746 -0.4666 -0.3249 -0.9352
  295MOL0     C39737   1.787   0.176   7.752  0.9887 -0.1323  0.3470
  295MOL0     O39738   1.996   0.300   7.966  0.0497  0.4194  0.4228
  295MOL0     C39739   2.221   0.460   7.926  0.2705 -0.8789  0.9716
  295MOL0     C39740   2.355   0.493   7.922 -0.2960 -0.0985  0.8830
  295MOL0     N39741   3.039   0.757   7.967 -0.1441 -0.1622  0.0999
  295MOL0     N39742   3.101   0.821   7.873  0.4425  0.9742  0.3765
  295MOL0     C39743   4.245   1.128   8.075  0.4775  0.3638  0.2445
  295MOL0     C39744   4.365   1.161   8.140  0.7781  0.0633  0.4641
  295MOL0     C39745   4.710   1.224   8.394 -0.1776 -0.2418  0.2729
  295MOL0     C39746   4.844   1.233   8.346  0.3981 -0.3782 -0.0497
  295MOL0     C39747   4.950   1.222   8.441  0.1598  0.7621  0.7742
  295MOL0     C39748   4.922   1.203   8.571  0.7477  0.3110 -0.3184
  295MOL0     O39749   5.020   1.205   8.672 -0.0879  1.0996  0.8191
  295MOL0     C39750   5.148   1.156   8.636 -0.0255  0.1996 -0.1103
  295MOL0     C39751   5.151   1.010   8.597 -0.0187 -0.1216  0.3842
  295MOL0     C39752   5.299   0.963   8.566 -1.2283 -0.2164  0.7682
  295MOL0     C39753   5.302   0.819   8.503 -0.0113 -0.3304 -0.2108
  295MOL0     C39754   5.434   0.785   8.482 -0.4581  0.4887  0.3087
  295MOL0     C39755   5.553   0.757   8.478 -0.2610  0.3037  0.3281
  295MOL0     C39756   4.793   1.203   8.616 -0.2484 -0.0571  0.1113
  295MOL0     C39757   4.690   1.201   8.532 -0.1136 -0.1236 -0.1826
  295MOL0     H39758   4.264   1.125   8.461  1.3110  2.4607  0.1698
  295MOL0     H39759   4.036   1.082   8.340  0.0062  2.5762 -0.6939
  295MOL0     H39760   4.085   0.986   7.883  0.1658 -3.0256 -1.8163
  295MOL0     H39761   4.145   0.898   8.022  0.2932  1.5480 -0.7278
  295MOL0     H39762   3.948   0.751   7.907  0.0318  0.2150  0.7580
  295MOL0     H39763   3.903   0.803   8.066 -1.2632  0.5559 -0.0772
  295MOL0     H39764   3.788   1.008   7.947 -2.2092 -0.9019  1.8469
  295MOL0     H39765   3.853   0.937   7.791 -1.1418 -1.9505 -0.3937
  295MOL0     H39766   3.728   0.736   7.835 -2.4948  0.0684 -3.2994
  295MOL0     H39767   3.651   0.803   7.980 -0.4739 -0.4115 -0.3891
  295MOL0     H39768   3.572   0.995   7.809  1.9414  0.1476  0.8816
  295MOL0     H39769   3.634   0.889   7.685 -1.2303 -0.6684 -0.8735
  295MOL0     H39770   3.508   0.703   7.724  2.6110  0.4497 -1.1936
  295MOL0     H39771   3.418   0.785   7.863  0.7860  1.5371  0.7342
  295MOL0     H39772   3.286   0.918   7.727  0.7359  0.0063 -0.2483
  295MOL0     H39773   3.376   0.872   7.579 -3.6395 -0.5091 -2.0071
  295MOL0     H39774   3.257   0.632   7.636 -0.2793  0.1539  0.4974
  295MOL0     H39775   3.158   0.770   7.588  0.2649 -0.2257 -0.4774
  295MOL0     H39776   3.171   0.509   7.803  0.3930 -0.8392  3.2431
  295MOL0     H39777   3.049   0.409   8.002 -0.5112 -0.2615 -1.1576
  295MOL0     H39778   3.057   0.524   8.135 -1.5445  1.8895  0.3280
  295MOL0     H39779   2.841   0.607   8.109 -0.2454  3.0729 -2.9772
  295MOL0     H39780   2.851   0.435   8.132 -2.9194  0.1843 -0.0691
  295MOL0     H39781   2.817   0.377   7.904  0.7323  1.3249 -4.3285
  295MOL0     H39782   2.820   0.543   7.852  3.0170  0.7534  1.4080
  295MOL0     H39783   2.623   0.591   8.003  0.3518  1.1982 -1.1640
  295MOL0     H39784   2.615   0.408   8.034 -2.5332 -0.3552 -0.4898
  295MOL0     H39785   2.456   0.265   7.687  0.0541 -0.1043 -0.6893
  295MOL0     H39786   2.127   0.119   7.700 -0.8306 -0.5400 -0.9916
  295MOL0     H39787   2.150   0.230   7.575  1.1823  3.0629  1.8178
  295MOL0     H39788   2.282   0.115   7.635  2.6629  3.3182 -0.2048
  295MOL0     H39789   1.698   0.503   7.807 -1.1307  0.3628  0.4834
  295MOL0     H39790   1.487   0.414   7.822 -0.9964  0.7655 -1.3645
  295MOL0     H39791   1.426  -0.017   7.665 -0.9747 -0.4461 -0.2954
  295MOL0     H39792   1.416  -0.055   7.836 -3.3153 -4.4117 -0.8975
  295MOL0     H39793   1.183   0.011   7.643  4.2435 -0.3958 -1.5908
  295MOL0     H39794   1.226  -0.123   7.741  0.3019 -0.8843 -2.9016
  295MOL0     H39795   1.141   0.170   7.802 -3.3007  0.6509  0.7915
  295MOL0     H39796   1.183   0.056   7.940 -0.1529 -2.6953  0.1197
  295MOL0     H39797   0.951   0.022   7.754  2.3497 -2.3089 -1.6644
  295MOL0     H39798   0.996  -0.082   7.895 -0.3101 -0.1991  0.3029
  295MOL0     H39799   0.908   0.219   7.906 -0.9235  0.4710  0.9408
  295MOL0     H39800   0.957   0.115   8.042  3.5583 -0.9955 -1.1747
  295MOL0     H39801   0.716   0.132   7.845 -0.7937 -0.8507 -0.1452
  295MOL0     H39802   0.746  -0.025   7.923  2.3396 -1.3184 -0.1144
  295MOL0     H39803   0.703   0.248   8.074  0.9624 -0.7097 -0.0331
  295MOL0     H39804   0.750   0.107   8.155  0.8196 -0.2677 -0.0786
  295MOL0     H39805   0.487   0.183   8.139  0.6271 -1.2734  2.6064
  295MOL0     H39806   0.532   0.013   8.145 -1.1910  1.9230  1.7289
  295MOL0     H39807   1.646   0.018   7.728  0.0918 -1.0203  2.4009
  295MOL0     H39808   1.860   0.107   7.712 -0.4286  0.6753 -4.2862
  295MOL0     H39809   2.151   0.508   7.994  1.9001  1.0576  1.3904
  295MOL0     H39810   2.395   0.565   7.993 -2.7853  0.9861  1.2822
  295MOL0     H39811   4.262   1.112   7.969  1.2806 -2.3856  0.7099
  295MOL0     H39812   4.454   1.160   8.079  0.2569 -2.8584 -0.4116
  295MOL0     H39813   4.858   1.251   8.240 -2.3356  0.5361 -0.3130
  295MOL0     H39814   5.052   1.234   8.406 -0.1192  0.7441 -0.0831
  295MOL0     H39815   5.172   1.213   8.547 -2.7260 -0.7822 -1.5935
  295MOL0     H39816   5.224   1.176   8.712  1.3370 -0.0352 -1.3828
  295MOL0     H39817   5.089   1.003   8.507 -1.7097  3.6657  1.0801
  295MOL0     H39818   5.112   0.941   8.673 -2.1527 -2.3733 -2.5184
  295MOL0     H39819   5.363   0.970   8.654 -0.5316 -1.0650  0.3460
  295MOL0     H39820   5.345   1.036   8.498  1.3782 -1.4489  1.0964
  295MOL0     H39821   5.233   0.802   8.419 -0.5447 -0.0064  0.1575
  295MOL0     H39822   5.267   0.747   8.578 -0.6127 -1.3458 -1.4203
  295MOL0     H39823   5.655   0.739   8.451 -1.3102 -0.0351 -4.1217
  295MOL0     H39824   4.760   1.208   8.719 -1.0344 -1.8531 -0.0306
  295MOL0     H39825   4.595   1.184   8.582  0.2829  1.1936  1.0602
  296MOL0     O39826  10.738   6.254  10.724 -0.1712 -0.1656  1.0013
  296MOL0     C39827  10.690   6.214  10.614  0.1193  0.0326 -0.5736
  296MOL0     O39828  10.764   6.175  10.495  0.8437  0.2697 -0.2206
  296MOL0     C39829  10.900   6.203  10.487  0.6419 -0.2476  1.0814
  296MOL0     C39830  10.960   6.274  10.374  0.6079 -0.0808  0.2659
  296MOL0     C39831  11.099   6.289  10.364  0.3595  0.3920  0.0634
  296MOL0     C39832  11.181   6.221  10.452  1.0490  0.6838  0.3094
  296MOL0     O39833  11.315   6.223  10.426 -0.1297 -0.1366 -0.1654
  296MOL0     C39834  11.397   6.131  10.493 -0.1823 -0.2868 -0.6451
  296MOL0     C39835  11.547   6.129  10.446 -0.3613  0.4652 -1.2310
  296MOL0     C39836  11.593   6.275  10.414 -0.7479  0.3208  0.5398
  296MOL0     C39837  11.736   6.283  10.351  0.0508  0.5401  0.7890
  296MOL0     C39838  11.730   6.290  10.198  0.5001  0.0859  0.4715
  296MOL0     C39839  11.859   6.248  10.134 -0.2239  0.8435  0.4467
  296MOL0     C39840  11.958   6.364  10.137  1.4800  0.4306  1.2408
  296MOL0     C39841  11.920   6.472  10.034 -0.8646 -0.9233 -0.4254
  296MOL0     N39842  12.000   6.592  10.060  0.4137 -0.1835  0.3681
  296MOL0     C39843  12.136   6.592  10.076 -0.1005  0.0456 -0.1990
  296MOL0     C39844  12.169   6.721  10.108  0.5495  0.8811  0.2251
  296MOL0     C39845  12.301   6.778  10.154 -0.5370 -0.4402  0.2189
  296MOL0     C39846  12.376   6.702  10.272  0.3593 -0.1911 -1.0012
  296MOL0     C39847  12.302   6.697  10.411  0.6454 -0.2416 -0.2441
  296MOL0     C39848  12.260   6.844  10.460 -0.5727  0.3006  0.3216
  296MOL0     O39849  12.172   6.836  10.574  0.6581  0.0116  0.6560
  296MOL0     C39850  12.045   6.788  10.569 -0.3892 -0.7421 -1.2900
  296MOL0     C39851  11.974   6.766  10.688 -0.6823  0.2657 -0.5097
  296MOL0     C39852  11.843   6.711  10.684  0.1811 -0.5959  0.0680
  296MOL0     C39853  11.782   6.666  10.816  0.5006  0.5610 -0.1135
  296MOL0     C39854  11.785   6.689  10.554  0.3670 -0.4767  1.5072
  296MOL0     C39855  11.653   6.618  10.539  0.0685  0.1108  1.1773
  296MOL0     O39856  11.593   6.573  10.648  0.0581  0.3277  0.1035
  296MOL0     C39857  11.454   6.594  10.660 -0.2841 -0.7857 -0.5867
  296MOL0     C39858  11.361   6.494  10.665  0.0866  0.0969  0.6592
  296MOL0     C39859  11.222   6.524  10.673 -0.3554  0.3367 -0.9778
  296MOL0     C39860  11.179   6.661  10.677  0.6103  0.5329 -0.2765
  296MOL0     O39861  11.048   6.696  10.687  0.1520 -0.7112  0.2214
  296MOL0     C39862  10.952   6.611  10.615 -1.0436  0.2810  0.6869
  296MOL0     C39863  10.827   6.690  10.624  1.0431 -0.3084 -0.2980
  296MOL0     C39864  10.715   6.590  10.566  0.6960  0.0376  0.0008
  296MOL0     C39865  10.567   6.638  10.589  0.5533  0.2809  0.8186
  296MOL0     C39866  10.474   6.570  10.484 -0.0701 -0.1215 -0.4017
  296MOL0     C39867  10.324   6.585  10.516  1.0973  0.3916 -0.3202
  296MOL0     C39868  10.237   6.544  10.403  1.0172  0.4577  0.1714
  296MOL0     C39869  10.089   6.587  10.399  0.0070 -0.2220 -0.5449
  296MOL0    Cl39870  10.013   6.536  10.246  0.0409 -0.2842 -0.1336
  296MOL0     C39871  11.273   6.760  10.678 -0.2650  0.1129  1.0574
  296MOL0     C39872  11.410   6.729  10.672 -0.2245  0.0223 -0.2255
  296MOL0     O39873  11.599   6.628  10.426 -0.5211  0.2785 -0.8757
  296MOL0     C39874  11.870   6.706  10.439 -0.4839  0.0480  0.3484
  296MOL0     C39875  11.994   6.763  10.451  0.5763 -0.7046 -1.2591
  296MOL0     N39876  12.055   6.793  10.114  0.2615 -0.6442 -0.6842
  296MOL0     N39877  11.948   6.713  10.095 -0.2149  0.0823  0.0414
  296MOL0     C39878  11.125   6.167  10.567  0.2166 -0.2130  0.3088
  296MOL0     C39879  10.985   6.164  10.591  0.8276 -0.5420  0.4205
  296MOL0     C39880  10.545   6.205  10.609  0.2618 -0.1007 -0.9711
  296MOL0     C39881  10.478   6.134  10.504 -0.2783 -0.3406 -0.5492
  296MOL0     C39882  10.338   6.130  10.484  0.3524 -0.9456 -0.2292
  296MOL0     C39883  10.258   6.177  10.590 -0.2054  0.2115 -0.6529
  296MOL0     O39884  10.118   6.177  10.567 -0.3114  0.5791 -0.8564
  296MOL0     C39885  10.038   6.267  10.640 -0.1564  0.0260  0.1351
  296MOL0     C39886   9.897   6.285  10.572  0.2676 -0.2607  0.4227
  296MOL0     C39887   9.786   6.183  10.606  0.5072  0.0722  0.4374
  296MOL0     C39888   9.645   6.241  10.582 -0.0259  0.0585 -0.7614
  296MOL0     C39889   9.640   6.321  10.461 -0.0692 -0.3425  0.8199
  296MOL0     C39890   9.660   6.390  10.364 -0.2627 -0.0333  0.9378
  296MOL0     C39891  10.321   6.239  10.705  0.8585 -1.2301 -0.2217
  296MOL0     C39892  10.458   6.251  10.713 -0.3638  0.4632  0.3770
  296MOL0     H39893  10.888   6.304  10.298 -1.6550  0.3253  2.4674
  296MOL0     H39894  11.150   6.333  10.279  0.6152 -1.0612 -0.5717
  296MOL0     H39895  11.406   6.163  10.597  0.4713 -0.8161 -0.5333
  296MOL0     H39896  11.350   6.033  10.498  0.5116 -0.5699  2.0032
  296MOL0     H39897  11.607   6.084  10.525 -1.0867  2.0012  0.2538
  296MOL0     H39898  11.564   6.065  10.359  0.8206  0.2394 -0.8392
  296MOL0     H39899  11.521   6.311  10.340 -1.6682 -0.7293  0.8885
  296MOL0     H39900  11.597   6.340  10.502  0.6851  1.0514 -0.0404
  296MOL0     H39901  11.780   6.376  10.386 -0.2781  1.6484 -1.5392
  296MOL0     H39902  11.784   6.190  10.384  0.3927  0.5920  0.4369
  296MOL0     H39903  11.641   6.232  10.173 -0.2305  1.5333 -0.4391
  296MOL0     H39904  11.703   6.394  10.179 -0.2760 -0.2434 -0.3011
  296MOL0     H39905  11.905   6.165  10.188  1.3736  1.8867  0.7800
  296MOL0     H39906  11.835   6.221  10.030 -0.7974  3.1751 -0.0980
  296MOL0     H39907  11.952   6.410  10.236 -0.3725  2.3570  0.3006
  296MOL0     H39908  12.056   6.320  10.113  2.3338  1.4094  2.7712
  296MOL0     H39909  11.815   6.503  10.037 -1.0920 -1.7050  1.7379
  296MOL0     H39910  11.939   6.427   9.936  2.3502 -1.0263  0.1428
  296MOL0     H39911  12.203   6.507  10.078 -0.4679 -0.2395  0.5023
  296MOL0     H39912  12.373   6.788  10.073  0.4261  3.9713  1.3706
  296MOL0     H39913  12.285   6.882  10.183 -2.6479 -1.0394  1.4176
  296MOL0     H39914  12.474   6.746  10.290 -0.1719  0.0936  1.4923
  296MOL0     H39915  12.401   6.600  10.243  2.0115 -0.4671  1.1754
  296MOL0     H39916  12.359   6.647  10.490 -1.3972  1.5865  2.5900
  296MOL0     H39917  12.213   6.639  10.386  0.3160  0.2721 -0.2963
  296MOL0     H39918  12.216   6.895  10.374  2.3866  1.6344 -0.5483
  296MOL0     H39919  12.345   6.905  10.490 -0.5922 -0.1358  1.2920
  296MOL0     H39920  12.032   6.771  10.780 -0.3997  0.1731 -0.6806
  296MOL0     H39921  11.702   6.732  10.852 -0.5054 -1.0995  0.7970
  296MOL0     H39922  11.748   6.563  10.818  0.6469  0.4913 -0.8897
  296MOL0     H39923  11.864   6.660  10.889 -0.1860 -3.8709  0.5279
  296MOL0     H39924  11.403   6.393  10.668 -1.4365 -0.5612  3.2303
  296MOL0     H39925  11.155   6.439  10.681  3.7543 -3.0717  1.5007
  296MOL0     H39926  10.978   6.600  10.509 -0.7880 -1.0490  0.8643
  296MOL0     H39927  10.945   6.516  10.669  2.8928  0.3670  1.6645
  296MOL0     H39928  10.793   6.715  10.725  0.2221 -1.4104 -0.2794
  296MOL0     H39929  10.845   6.776  10.560  0.1978 -0.6337 -0.9908
  296MOL0     H39930  10.719   6.492  10.615  0.6089 -0.2389 -0.5302
  296MOL0     H39931  10.730   6.576  10.458  2.8432  3.2137 -0.2470
  296MOL0     H39932  10.548   6.601  10.690  1.8770  0.2921  1.0818
  296MOL0     H39933  10.565   6.747  10.580 -2.5891  0.5404  2.9368
  296MOL0     H39934  10.487   6.461  10.480  0.6640 -0.0341 -0.5032
  296MOL0     H39935  10.498   6.615  10.387 -2.8404  2.8240  0.1155
  296MOL0     H39936  10.300   6.526  10.605 -0.8785  1.1542 -0.2920
  296MOL0     H39937  10.318   6.692  10.539  0.3251  0.5635 -1.2480
  296MOL0     H39938  10.232   6.436  10.419  1.9343  0.7781  3.0093
  296MOL0     H39939  10.277   6.553  10.301  0.6215  0.0250 -0.0315
  296MOL0     H39940  10.077   6.695  10.412  3.4964  0.1889  0.0827
  296MOL0     H39941  10.038   6.543  10.486  0.4172  1.2792  0.5028
  296MOL0     H39942  11.227   6.858  10.681 -0.0902  0.3409 -1.6017
  296MOL0     H39943  11.493   6.799  10.677 -0.8798  0.7964 -0.0363
  296MOL0     H39944  11.846   6.689  10.335  5.0653  0.9556 -1.3880
  296MOL0     H39945  12.046   6.794  10.360  0.5105  2.7436 -0.2701
  296MOL0     H39946  11.185   6.144  10.654  1.3226  0.9772 -0.1141
  296MOL0     H39947  10.946   6.125  10.684 -1.5855  1.9326  0.5519
  296MOL0     H39948  10.543   6.094  10.427  0.9500  0.3761  0.0789
  296MOL0     H39949  10.289   6.093  10.394 -1.1953  0.1571  0.1222
  296MOL0     H39950  10.028   6.218  10.737  0.6675 -0.2994  0.0724
  296MOL0     H39951  10.084   6.366  10.649  1.6252 -0.8075  0.6828
  296MOL0     H39952   9.929   6.288  10.467  1.6178  0.4482  0.8285
  296MOL0     H39953   9.855   6.381  10.603 -0.3398  0.1995 -1.6572
  296MOL0     H39954   9.792   6.154  10.711 -0.1747  0.8451  0.6995
  296MOL0     H39955   9.808   6.092  10.548  0.8323  0.7798 -0.5696
  296MOL0     H39956   9.604   6.299  10.665 -2.0218 -0.6758 -1.1700
  296MOL0     H39957   9.567   6.164  10.574 -0.3639  0.4489 -1.2767
  296MOL0     H39958   9.674   6.468  10.292  1.7193  0.3181  1.6388
  296MOL0     H39959  10.254   6.266  10.785  0.3386 -2.3132 -0.2725
  296MOL0     H39960  10.505   6.297  10.799 -1.5041  3.2053 -0.3564
  297MOL0     O39961   4.588   3.050   4.470 -0.2658  0.1475  0.3352
  297MOL0     C39962   4.635   3.099   4.575 -0.3957  0.7718 -0.5977
  297MOL0     O39963   4.572   3.180   4.660 -0.0976 -0.3119 -0.2655
  297MOL0     C39964   4.452   3.226   4.635  0.3324  0.1709 -0.4884
  297MOL0     C39965   4.441   3.357   4.590  0.3576  0.1655 -0.8453
  297MOL0     C39966   4.314   3.414   4.559 -0.9570 -0.4187 -0.0718
  297MOL0     C39967   4.199   3.342   4.577 -0.4260  0.5508  0.3501
  297MOL0     O39968   4.081   3.402   4.554 -0.0001  0.6770  0.4656
  297MOL0     C39969   3.961   3.327   4.581  0.0012  0.1814  0.6246
  297MOL0     C39970   3.859   3.430   4.543  0.5306  0.1144  0.7234
  297MOL0     C39971   3.718   3.379   4.545  0.5218  0.1559  0.7284
  297MOL0     C39972   3.619   3.484   4.481  0.0853  0.4064 -0.2928
  297MOL0     C39973   3.477   3.431   4.483 -0.0301 -0.3751 -0.0126
  297MOL0     C39974   3.380   3.544   4.437 -0.3633 -0.1247 -0.0726
  297MOL0     C39975   3.240   3.507   4.493  0.3303  0.4837  0.7430
  297MOL0     C39976   3.145   3.619   4.456  0.3214 -0.6567 -0.1822
  297MOL0     N39977   3.005   3.590   4.497  1.0705 -0.7719 -0.1158
  297MOL0     C39978   2.913   3.684   4.529  0.6718  0.4818 -0.2357
  297MOL0     C39979   2.796   3.614   4.516 -1.0303 -1.2645 -0.8051
  297MOL0     C39980   2.674   3.684   4.550  0.6754 -0.7164  0.1104
  297MOL0     C39981   2.652   3.726   4.702 -0.6676  0.6709  0.3599
  297MOL0     C39982   2.513   3.774   4.735  0.3441 -0.7423 -0.1505
  297MOL0     C39983   2.510   3.865   4.856  1.1656  0.0302  0.5199
  297MOL0     O39984   2.378   3.896   4.901  1.1108 -0.0229  0.2428
  297MOL0     C39985   2.311   3.814   4.991 -0.1418  0.2792 -0.1347
  297MOL0     C39986   2.180   3.860   5.027  0.4354 -0.4092 -0.1315
  297MOL0     C39987   2.106   3.788   5.132  0.2327  0.4747  0.7766
  297MOL0     C39988   1.969   3.838   5.169  0.5865 -0.9605 -0.1934
  297MOL0     C39989   2.165   3.674   5.183  0.7171 -0.1190 -0.3621
  297MOL0     C39990   2.083   3.581   5.271 -0.2837  0.1014  0.0876
  297MOL0     O39991   1.951   3.572   5.240 -0.1568  0.1225  0.6193
  297MOL0     C39992   1.881   3.469   5.300 -0.1800 -0.2045 -0.0981
  297MOL0     C39993   1.922   3.337   5.281  0.6117  0.0868  0.8723
  297MOL0     C39994   1.861   3.230   5.342 -0.3648 -0.0989  0.4396
  297MOL0     C39995   1.745   3.245   5.420  0.3325 -0.3835  0.4874
  297MOL0     O39996   1.677   3.138   5.488 -0.8851  0.4102  0.0956
  297MOL0     C39997   1.718   2.997   5.471 -0.4072 -0.2445  0.8628
  297MOL0     C39998   1.600   2.901   5.510 -0.2359  0.0901 -0.3440
  297MOL0     C39999   1.481   2.900   5.421 -0.8152 -1.2688  0.6424
  297MOL0     C40000   1.356   2.847   5.490 -0.9281 -0.0752 -0.6442
  297MOL0     C40001   1.244   2.834   5.387  1.1786 -0.5861  1.1831
  297MOL0     C40002   1.136   2.765   5.469  0.7288 -0.8055  0.3480
  297MOL0     C40003   1.014   2.728   5.376 -0.1755 -0.9010  0.0493
  297MOL0     C40004   0.896   2.659   5.456 -0.0569  0.0452 -0.0014
  297MOL0    Cl40005   0.749   2.637   5.355  0.3894  0.1340 -0.2551
  297MOL0     C40006   1.690   3.372   5.436 -1.1286  0.5200 -0.0972
  297MOL0     C40007   1.765   3.487   5.383  0.9178  0.2807  0.2332
  297MOL0     O40008   2.137   3.530   5.367 -0.1377  0.3104  0.0295
  297MOL0     C40009   2.282   3.629   5.140  0.5187 -0.2020  0.3054
  297MOL0     C40010   2.359   3.696   5.049 -0.6230 -0.1747 -0.2085
  297MOL0     N40011   2.828   3.485   4.491 -0.4030  0.2118 -0.5614
  297MOL0     N40012   2.950   3.466   4.493 -0.9777  0.8685  0.2312
  297MOL0     C40013   4.210   3.214   4.632  0.1052 -0.8052 -1.0007
  297MOL0     C40014   4.334   3.151   4.660  0.1424 -0.0601  0.2078
  297MOL0     C40015   4.778   3.075   4.608 -0.2490 -0.5971  0.3908
  297MOL0     C40016   4.866   2.995   4.539 -0.0034  0.6281  0.3265
  297MOL0     C40017   4.996   2.973   4.582  0.4250 -0.2484 -0.2347
  297MOL0     C40018   5.043   3.040   4.687  0.2112  0.1291 -0.2971
  297MOL0     O40019   5.175   3.023   4.736 -0.2139 -0.1038 -0.3784
  297MOL0     C40020   5.268   2.950   4.667 -0.8954 -0.1973  0.2285
  297MOL0     C40021   5.391   2.927   4.759  0.3230 -0.5163  0.4483
  297MOL0     C40022   5.349   2.880   4.898  0.4043  0.6562 -0.4539
  297MOL0     C40023   5.474   2.839   4.977  0.0875  0.2332  0.4563
  297MOL0     C40024   5.439   2.806   5.119 -0.3592 -0.5617  0.9843
  297MOL0     C40025   5.437   2.781   5.232  0.1780 -1.4261 -0.0261
  297MOL0     C40026   4.957   3.116   4.775 -0.0831 -0.7984  0.6973
  297MOL0     C40027   4.831   3.144   4.726 -0.5385 -0.8548 -0.0965
  297MOL0     H40028   4.541   3.391   4.565  0.7999 -0.9877 -0.7012
  297MOL0     H40029   4.304   3.515   4.519 -2.5625  0.9781  3.4517
  297MOL0     H40030   3.940   3.242   4.515  0.9471  0.9412 -0.6928
  297MOL0     H40031   3.928   3.308   4.683 -2.5416 -1.7571 -0.4213
  297MOL0     H40032   3.870   3.513   4.614  1.4715 -1.2459  2.2598
  297MOL0     H40033   3.884   3.457   4.441  2.7484 -1.1645  0.8626
  297MOL0     H40034   3.708   3.287   4.487 -1.0212  1.3616 -1.0458
  297MOL0     H40035   3.683   3.353   4.645 -2.6201  3.1621  0.5989
  297MOL0     H40036   3.627   3.582   4.528  2.9549 -0.0708  0.4060
  297MOL0     H40037   3.642   3.484   4.374  0.2860 -1.7293 -0.2913
  297MOL0     H40038   3.471   3.344   4.417  0.1437  0.1245 -0.6982
  297MOL0     H40039   3.456   3.414   4.590  1.1070 -0.2303  0.2418
  297MOL0     H40040   3.421   3.639   4.472 -0.5902  0.3069 -0.9491
  297MOL0     H40041   3.380   3.542   4.328 -2.0981 -0.0849 -0.0905
  297MOL0     H40042   3.201   3.414   4.450  2.0141  0.0747  0.0428
  297MOL0     H40043   3.245   3.495   4.602 -1.0793  1.6572  0.9654
  297MOL0     H40044   3.139   3.655   4.353 -0.5905  2.0225  0.7155
  297MOL0     H40045   3.175   3.708   4.513  1.7718 -0.9196 -0.4952
  297MOL0     H40046   2.929   3.784   4.569  2.4239 -0.1680  0.7676
  297MOL0     H40047   2.667   3.772   4.486 -2.1200 -2.7265 -2.7090
  297MOL0     H40048   2.594   3.618   4.513 -0.1410 -0.1059  0.7401
  297MOL0     H40049   2.721   3.810   4.721 -0.7333  0.5090  1.3821
  297MOL0     H40050   2.682   3.638   4.759  1.0485 -0.3397 -1.9535
  297MOL0     H40051   2.441   3.691   4.740 -1.6916  0.3889 -4.7340
  297MOL0     H40052   2.463   3.831   4.656 -1.1112 -0.6639  0.7864
  297MOL0     H40053   2.543   3.966   4.828  1.0683  0.0351  0.4169
  297MOL0     H40054   2.571   3.824   4.936 -0.6055 -0.4875  1.6558
  297MOL0     H40055   2.134   3.943   4.975 -0.3065  0.3188  1.5970
  297MOL0     H40056   1.888   3.770   5.143 -0.3931  0.6243 -1.5334
  297MOL0     H40057   1.978   3.849   5.277  3.9525  3.0954 -0.6310
  297MOL0     H40058   1.944   3.933   5.121 -1.6011 -1.6750 -0.5742
  297MOL0     H40059   2.007   3.325   5.215  0.8694 -1.1500  1.3910
  297MOL0     H40060   1.906   3.132   5.325  2.0631  0.8921  0.7108
  297MOL0     H40061   1.746   2.983   5.366 -2.5854  0.8827  0.0560
  297MOL0     H40062   1.802   2.979   5.538  0.1121  1.1808  0.6258
  297MOL0     H40063   1.647   2.803   5.514  1.1263  0.7413  0.4136
  297MOL0     H40064   1.566   2.932   5.609 -0.3898  1.7120 -0.8694
  297MOL0     H40065   1.497   2.850   5.325 -3.1309  0.8589 -0.9647
  297MOL0     H40066   1.465   3.006   5.399  0.4145 -1.2300 -0.1833
  297MOL0     H40067   1.377   2.743   5.515  0.1686  0.2323 -0.1957
  297MOL0     H40068   1.332   2.907   5.578  0.4401  1.4126 -1.2254
  297MOL0     H40069   1.264   2.784   5.292  0.1633  0.1943  0.5363
  297MOL0     H40070   1.201   2.930   5.357  0.3810 -0.5524  2.3820
  297MOL0     H40071   1.173   2.669   5.505  0.0109 -0.0661  3.3550
  297MOL0     H40072   1.107   2.832   5.551 -0.2251  1.9081 -2.0225
  297MOL0     H40073   1.045   2.658   5.298  1.3919 -0.2557  0.0560
  297MOL0     H40074   0.981   2.816   5.318  0.3865 -0.7234 -0.0081
  297MOL0     H40075   0.864   2.728   5.534  1.8166  1.7497 -0.6662
  297MOL0     H40076   0.937   2.571   5.506  0.8347  0.5062  0.1055
  297MOL0     H40077   1.603   3.378   5.500  1.3636  0.8953  3.5796
  297MOL0     H40078   1.725   3.588   5.388 -0.6913 -0.2472 -1.1538
  297MOL0     H40079   2.328   3.542   5.186 -1.0734 -0.5655  1.2883
  297MOL0     H40080   2.452   3.645   5.026 -1.8313 -2.4759 -0.2986
  297MOL0     H40081   4.131   3.149   4.670 -0.9971  0.4916 -0.9807
  297MOL0     H40082   4.352   3.050   4.696  2.0855 -0.1964 -0.9834
  297MOL0     H40083   4.833   2.929   4.460  4.6903 -1.1485 -0.4646
  297MOL0     H40084   5.055   2.907   4.520 -0.4944 -0.4517 -0.9036
  297MOL0     H40085   5.221   2.858   4.628 -0.0572 -0.2065 -0.8173
  297MOL0     H40086   5.291   3.003   4.573 -1.4446  1.0117  0.7556
  297MOL0     H40087   5.449   3.019   4.766 -0.4563 -0.0784  1.4793
  297MOL0     H40088   5.448   2.845   4.715  0.0466 -0.3798 -0.1874
  297MOL0     H40089   5.282   2.794   4.895  2.4167 -0.9673 -1.7214
  297MOL0     H40090   5.305   2.966   4.951  0.2581  1.1093 -1.3010
  297MOL0     H40091   5.547   2.919   4.964 -2.8652  2.7608 -2.4024
  297MOL0     H40092   5.517   2.747   4.937  0.8621  0.6056  0.4170
  297MOL0     H40093   5.430   2.767   5.338  1.0731 -2.5730 -0.0868
  297MOL0     H40094   4.998   3.154   4.867  0.7080 -2.5957  1.1375
  297MOL0     H40095   4.763   3.199   4.791  1.4316  0.4267  0.9738
  298MOL0     O40096   0.152   7.258   8.231 -0.2328  0.4315  0.5260
  298MOL0     C40097   0.179   7.376   8.263  0.0445 -0.3552 -0.4072
  298MOL0     O40098   0.092   7.483   8.283 -0.1961  0.2355 -0.8826
  298MOL0     C40099  -0.040   7.451   8.256 -0.1064 -0.8070  0.0199
  298MOL0     C40100  -0.111   7.387   8.355  0.9516  0.5152  0.2286
  298MOL0     C40101  -0.249   7.365   8.333  0.0475  0.7429 -0.1588
  298MOL0     C40102  -0.318   7.417   8.216 -0.0223 -0.8045  0.4598
  298MOL0     O40103  -0.451   7.423   8.199 -0.3139 -0.0801  0.0455
  298MOL0     C40104  -0.534   7.330   8.287  0.1040  0.2866  0.2888
  298MOL0     C40105  -0.562   7.401   8.421  0.0165 -0.9254 -0.1775
  298MOL0     C40106  -0.706   7.399   8.476 -0.2912  0.4405  0.3127
  298MOL0     C40107  -0.703   7.447   8.623 -0.7759  0.6580 -0.0580
  298MOL0     C40108  -0.839   7.417   8.686 -0.8798  0.0097 -0.4865
  298MOL0     C40109  -0.836   7.401   8.835 -0.4769  0.0927 -0.3039
  298MOL0     C40110  -0.808   7.533   8.907  0.8599  0.3657  0.0579
  298MOL0     C40111  -0.838   7.514   9.055  0.2862  0.1355  0.6385
  298MOL0     N40112  -0.803   7.643   9.118 -0.0583 -0.0764 -0.2140
  298MOL0     C40113  -0.676   7.696   9.116  0.2540  0.2394 -0.4016
  298MOL0     C40114  -0.686   7.793   9.210  0.2944 -0.1392  0.2713
  298MOL0     C40115  -0.577   7.894   9.223  0.6591 -0.6477 -0.1720
  298MOL0     C40116  -0.445   7.828   9.271 -0.4487  0.0074  0.2740
  298MOL0     C40117  -0.464   7.712   9.378 -0.4229  0.0758  0.1883
  298MOL0     C40118  -0.322   7.653   9.425  0.2845  0.7613  0.3014
  298MOL0     O40119  -0.301   7.698   9.557 -0.1590  0.1373 -0.1189
  298MOL0     C40120  -0.171   7.712   9.588  0.2994 -0.3910 -0.6782
  298MOL0     C40121  -0.062   7.642   9.535 -0.4887  0.0858 -0.1076
  298MOL0     C40122   0.068   7.659   9.586 -0.0813 -0.2930  0.2118
  298MOL0     C40123   0.177   7.605   9.499 -0.0684 -0.4491 -0.1842
  298MOL0     C40124   0.084   7.741   9.700  0.3189  0.1289  0.1847
  298MOL0     C40125   0.214   7.733   9.785 -1.3306 -0.7551  0.3221
  298MOL0     O40126   0.326   7.661   9.747  0.0159  0.0968  0.4548
  298MOL0     C40127   0.430   7.636   9.840 -0.4542 -0.5383 -0.7764
  298MOL0     C40128   0.547   7.587   9.778 -0.2551  0.2041  0.2459
  298MOL0     C40129   0.656   7.545   9.854 -0.0246 -0.2583  0.9600
  298MOL0     C40130   0.638   7.534   9.991 -0.6256 -0.3251  0.5499
  298MOL0     O40131   0.746   7.471  10.048 -0.4781  0.6980 -0.0873
  298MOL0     C40132   0.727   7.424  10.181 -0.1211  0.6935  0.6247
  298MOL0     C40133   0.868   7.373  10.224 -1.4814 -0.5478 -0.2135
  298MOL0     C40134   0.878   7.314  10.361  0.8488  0.4693  0.0608
  298MOL0     C40135   1.014   7.261  10.393 -1.0747 -0.4194  0.0331
  298MOL0     C40136   1.123   7.366  10.378  0.0310 -0.4348 -0.9261
  298MOL0     C40137   1.247   7.294  10.424 -0.6612  0.1082 -0.1953
  298MOL0     C40138   1.303   7.200  10.319  0.5402 -0.0092  0.3599
  298MOL0     C40139   1.447   7.155  10.348 -0.7023 -0.5964 -0.2184
  298MOL0    Cl40140   1.449   7.037  10.470 -0.5549  0.4709 -0.3429
  298MOL0     C40141   0.526   7.585  10.057  0.2329  0.0355  0.6705
  298MOL0     C40142   0.423   7.640   9.984 -0.5649 -0.1086  0.4508
  298MOL0     O40143   0.219   7.815   9.881 -1.0115 -0.1866  0.0919
  298MOL0     C40144  -0.026   7.814   9.758  0.5341  0.3063 -0.0847
  298MOL0     C40145  -0.153   7.807   9.695  0.0096  0.4049  0.4999
  298MOL0     N40146  -0.809   7.806   9.262 -0.5547 -0.1217 -0.3448
  298MOL0     N40147  -0.874   7.709   9.204 -0.1977  0.2155 -0.1324
  298MOL0     C40148  -0.236   7.471   8.116  0.0871 -0.2045 -0.3920
  298MOL0     C40149  -0.100   7.498   8.140 -0.3057 -0.6039  0.4674
  298MOL0     C40150   0.324   7.414   8.281 -0.0309 -0.1674  0.0426
  298MOL0     C40151   0.356   7.550   8.285  0.5832 -0.4077  1.0247
  298MOL0     C40152   0.490   7.588   8.264  1.1466 -0.8294  0.1761
  298MOL0     C40153   0.594   7.494   8.246  0.2067 -0.0697  0.2889
  298MOL0     O40154   0.715   7.557   8.222 -0.6701 -0.1743  0.5495
  298MOL0     C40155   0.824   7.463   8.201  0.1775 -0.4337  0.6409
  298MOL0     C40156   0.870   7.397   8.325  0.7272  0.8708  0.6872
  298MOL0     C40157   0.978   7.472   8.407  0.8442  0.5020  1.1616
  298MOL0     C40158   1.027   7.378   8.519  0.0813 -0.2512 -0.5022
  298MOL0     C40159   1.143   7.440   8.573 -0.3414 -0.2684 -0.1962
  298MOL0     C40160   1.244   7.501   8.603 -0.2316  0.3076  0.0033
  298MOL0     C40161   0.561   7.361   8.245 -0.5033 -0.6222 -0.0138
  298MOL0     C40162   0.428   7.317   8.265 -0.0724 -1.0161  1.1349
  298MOL0     H40163  -0.069   7.370   8.454  1.0799  2.2667  0.5047
  298MOL0     H40164  -0.316   7.320   8.406  0.4079  1.7601  0.8304
  298MOL0     H40165  -0.628   7.308   8.235  0.5755  1.3949 -1.0927
  298MOL0     H40166  -0.488   7.235   8.316  1.5028  1.1055  0.8581
  298MOL0     H40167  -0.504   7.342   8.493 -0.5379  0.3837  1.3995
  298MOL0     H40168  -0.516   7.500   8.418 -0.3840 -0.7577 -2.1978
  298MOL0     H40169  -0.783   7.455   8.420  0.8316 -0.3941 -2.2301
  298MOL0     H40170  -0.745   7.298   8.465 -1.3341  1.0364 -2.2462
  298MOL0     H40171  -0.630   7.391   8.682 -0.6666 -1.0432 -1.7062
  298MOL0     H40172  -0.679   7.552   8.640 -2.0399  1.0438 -0.5381
  298MOL0     H40173  -0.910   7.491   8.648  0.2869  0.0341 -2.7858
  298MOL0     H40174  -0.876   7.317   8.662 -2.6903  0.2144  1.2007
  298MOL0     H40175  -0.934   7.365   8.867 -0.6108  1.8135  1.3928
  298MOL0     H40176  -0.752   7.338   8.867 -0.4733  0.1326 -0.2373
  298MOL0     H40177  -0.700   7.549   8.897  0.8147 -0.1209 -1.4563
  298MOL0     H40178  -0.874   7.607   8.861  0.3393 -1.2189 -1.8897
  298MOL0     H40179  -0.780   7.435   9.104 -0.2243  0.7172  2.2344
  298MOL0     H40180  -0.941   7.482   9.072  0.2352 -0.3001 -0.4261
  298MOL0     H40181  -0.596   7.661   9.052  0.0421  0.7289 -0.9457
  298MOL0     H40182  -0.560   7.957   9.135 -2.9602  0.2695 -0.3751
  298MOL0     H40183  -0.596   7.970   9.300 -0.0635 -2.2238  1.2704
  298MOL0     H40184  -0.386   7.906   9.320  1.2859 -0.3656 -1.1311
  298MOL0     H40185  -0.385   7.789   9.188 -0.3238 -1.7915  1.1629
  298MOL0     H40186  -0.513   7.629   9.326  1.4951 -0.0940 -1.4733
  298MOL0     H40187  -0.525   7.738   9.465 -0.3274  1.6574 -0.1878
  298MOL0     H40188  -0.234   7.683   9.368  1.3059 -0.4214  1.1836
  298MOL0     H40189  -0.313   7.544   9.426  2.1966  0.8861 -0.0737
  298MOL0     H40190  -0.064   7.574   9.450  0.1599  2.2589 -1.9484
  298MOL0     H40191   0.266   7.665   9.516 -0.5344 -0.6959  3.9456
  298MOL0     H40192   0.198   7.498   9.513  2.1786 -0.1744 -1.0813
  298MOL0     H40193   0.139   7.622   9.397 -0.3733  1.0309  0.1625
  298MOL0     H40194   0.548   7.594   9.670  0.3267  2.9404  0.3414
  298MOL0     H40195   0.751   7.513   9.811 -0.0641  2.5672 -1.6172
  298MOL0     H40196   0.695   7.503  10.251  0.4582 -0.2133  1.9537
  298MOL0     H40197   0.662   7.336  10.173  0.9114  0.0395 -0.7982
  298MOL0     H40198   0.896   7.288  10.161 -1.3177 -0.8076  0.2026
  298MOL0     H40199   0.944   7.450  10.210 -1.1773  0.3513  4.5620
  298MOL0     H40200   0.796   7.242  10.369 -0.5693  1.6528 -2.6308
  298MOL0     H40201   0.859   7.392  10.435 -0.5834  2.3400 -2.1388
  298MOL0     H40202   0.996   7.228  10.496 -2.6542 -2.0921 -0.7172
  298MOL0     H40203   1.043   7.175  10.332  0.9854  0.0279  0.3113
  298MOL0     H40204   1.101   7.443  10.452 -1.0899  0.0139 -1.6990
  298MOL0     H40205   1.146   7.427  10.290  0.3528 -0.4412 -0.8487
  298MOL0     H40206   1.314   7.369  10.467 -1.0878  0.0843  0.5329
  298MOL0     H40207   1.225   7.239  10.516  1.6143  1.0909  1.0233
  298MOL0     H40208   1.297   7.265  10.231  0.7983  1.5038  1.4331
  298MOL0     H40209   1.241   7.109  10.312 -0.0200  0.3468  0.5836
  298MOL0     H40210   1.520   7.232  10.372 -1.1051 -0.9638  2.4826
  298MOL0     H40211   1.477   7.109  10.253 -2.3111 -0.3921 -0.8518
  298MOL0     H40212   0.529   7.589  10.166 -1.7143 -0.1687  0.7737
  298MOL0     H40213   0.332   7.676  10.031 -0.1117  0.9328  0.5610
  298MOL0     H40214  -0.015   7.878   9.845 -1.9697 -0.9658  1.2783
  298MOL0     H40215  -0.235   7.871   9.725  0.8962  2.6715 -1.5831
  298MOL0     H40216  -0.291   7.511   8.031 -0.0772  0.7272  0.1354
  298MOL0     H40217  -0.039   7.546   8.064  1.3657 -2.8736  0.2362
  298MOL0     H40218   0.287   7.631   8.307  1.6212  1.5824 -2.1869
  298MOL0     H40219   0.510   7.693   8.247 -3.7906  0.7192  2.1838
  298MOL0     H40220   0.807   7.385   8.127  4.8494 -0.6369 -0.5265
  298MOL0     H40221   0.910   7.514   8.156  2.3269 -3.1617  1.3841
  298MOL0     H40222   0.905   7.299   8.291 -0.0681  1.0425 -0.7032
  298MOL0     H40223   0.788   7.380   8.396  1.7603  0.9018  1.9145
  298MOL0     H40224   0.938   7.564   8.451 -1.0160 -0.6510  2.0119
  298MOL0     H40225   1.060   7.493   8.338  1.1284  1.2799  1.7122
  298MOL0     H40226   1.051   7.277   8.484  0.1896 -0.8992  1.3128
  298MOL0     H40227   0.955   7.374   8.601  1.2119  3.4061  0.8607
  298MOL0     H40228   1.329   7.559   8.633 -1.6590  2.2735  0.4600
  298MOL0     H40229   0.640   7.287   8.244 -1.6136 -1.9209  2.2873
  298MOL0     H40230   0.395   7.214   8.258 -0.5931 -0.8787  1.4713
  299MOL0     O40231   2.088   4.187   5.105  0.3329  0.0240 -0.1281
  299MOL0     C40232   2.135   4.263   5.189 -0.0043 -0.7591  0.7939
  299MOL0     O40233   2.060   4.339   5.273 -0.2076  0.6105  0.0884
  299MOL0     C40234   1.928   4.290   5.274 -0.5526 -0.4000 -0.7685
  299MOL0     C40235   1.894   4.170   5.346 -0.2958 -0.1763  0.0209
  299MOL0     C40236   1.763   4.127   5.347 -0.3163 -0.5976  0.0151
  299MOL0     C40237   1.660   4.193   5.290 -0.3835  0.3135 -0.1685
  299MOL0     O40238   1.538   4.119   5.304  0.5829  0.5171  0.4118
  299MOL0     C40239   1.412   4.186   5.302 -0.3508 -0.1527 -0.0918
  299MOL0     C40240   1.303   4.080   5.343 -0.2999 -0.6539  0.0669
  299MOL0     C40241   1.160   4.129   5.328  0.2605  0.1285 -0.3437
  299MOL0     C40242   1.120   4.240   5.434  0.5067  0.7673 -0.3586
  299MOL0     C40243   0.971   4.273   5.444  0.0908  0.3431  0.4306
  299MOL0     C40244   0.918   4.336   5.313  0.1806  0.0632  0.2705
  299MOL0     C40245   0.789   4.276   5.253 -0.0306 -0.0898 -0.6217
  299MOL0     C40246   0.664   4.294   5.345 -0.4438  1.2927  0.4730
  299MOL0     N40247   0.538   4.306   5.268  0.7214 -0.4267  0.1497
  299MOL0     C40248   0.484   4.227   5.169  0.8789 -0.3165  0.6131
  299MOL0     C40249   0.365   4.287   5.132 -1.4208  0.2342  0.1861
  299MOL0     C40250   0.264   4.227   5.039  0.4472  0.4154 -0.3410
  299MOL0     C40251   0.126   4.260   5.082  0.4893 -0.5750  0.2713
  299MOL0     C40252   0.026   4.152   5.038 -0.0266 -0.0470  0.0535
  299MOL0     C40253  -0.112   4.204   5.077  0.4750  0.3857  1.0002
  299MOL0     O40254  -0.163   4.307   4.987  0.1306  0.0595 -0.5256
  299MOL0     C40255  -0.279   4.274   4.917 -0.1852  0.4061  0.3580
  299MOL0     C40256  -0.406   4.284   4.973 -0.0384 -0.4696 -0.4517
  299MOL0     C40257  -0.520   4.260   4.900 -0.6432 -0.4058  0.0433
  299MOL0     C40258  -0.650   4.270   4.973  0.2326  0.7046  0.0052
  299MOL0     C40259  -0.510   4.214   4.764  0.0131  0.4401 -0.8041
  299MOL0     C40260  -0.624   4.170   4.683  0.2983 -0.2455  0.6741
  299MOL0     O40261  -0.601   4.109   4.563 -0.3306 -0.0256  0.4063
  299MOL0     C40262  -0.708   4.065   4.485 -0.9934  0.2189 -0.1592
  299MOL0     C40263  -0.820   4.147   4.457 -0.7590  0.2169 -0.2293
  299MOL0     C40264  -0.926   4.090   4.388  0.1071  0.5708  0.8829
  299MOL0     C40265  -0.913   3.963   4.332  0.4918  0.6275 -0.0007
  299MOL0     O40266  -1.012   3.894   4.262 -1.0247 -0.0563 -0.9076
  299MOL0     C40267  -1.131   3.960   4.217  0.4006  0.5244  0.2164
  299MOL0     C40268  -1.217   3.863   4.126  0.6965 -1.0626  0.3707
  299MOL0     C40269  -1.141   3.790   4.011 -0.2864  0.5591 -0.3168
  299MOL0     C40270  -1.090   3.888   3.901  0.0224  0.2259 -0.0719
  299MOL0     C40271  -1.033   3.814   3.777 -0.5097  0.2505 -0.6310
  299MOL0     C40272  -0.889   3.778   3.784 -0.2541  0.7129 -0.3887
  299MOL0     C40273  -0.839   3.733   3.647 -0.4232  0.0570  0.5520
  299MOL0     C40274  -0.690   3.684   3.632 -0.0364  0.1707 -0.2121
  299MOL0    Cl40275  -0.576   3.825   3.644 -0.1856  0.3405  0.3712
  299MOL0     C40276  -0.804   3.882   4.357 -0.1977  0.0785 -0.2508
  299MOL0     C40277  -0.699   3.937   4.435 -0.6058 -0.1093  0.0016
  299MOL0     O40278  -0.738   4.166   4.729 -0.1805 -0.1415  0.1236
  299MOL0     C40279  -0.381   4.209   4.710 -1.4432 -0.8172  0.3217
  299MOL0     C40280  -0.263   4.237   4.785  0.2718 -0.5872 -0.0045
  299MOL0     N40281   0.359   4.407   5.207  0.3901  0.3673  0.7666
  299MOL0     N40282   0.460   4.418   5.290  0.1507 -0.3185  0.6362
  299MOL0     C40283   1.694   4.314   5.224  0.5294 -0.5780  1.1076
  299MOL0     C40284   1.829   4.366   5.219  0.6402  0.0156 -0.5724
  299MOL0     C40285   2.278   4.282   5.206  0.2826 -0.0092 -0.1541
  299MOL0     C40286   2.329   4.399   5.264 -0.1735 -0.7055 -0.1383
  299MOL0     C40287   2.470   4.413   5.272  0.7570 -0.2336 -0.6399
  299MOL0     C40288   2.563   4.318   5.234  0.2667  0.8766  0.4055
  299MOL0     O40289   2.695   4.335   5.245  0.5117 -0.3471  0.4718
  299MOL0     C40290   2.789   4.251   5.179  0.5391 -0.2402  0.3353
  299MOL0     C40291   2.915   4.310   5.202 -0.8471  0.1040  0.3349
  299MOL0     C40292   3.030   4.217   5.158 -0.5374 -0.0262 -0.2369
  299MOL0     C40293   3.167   4.286   5.162  0.4984  0.7061 -0.1513
  299MOL0     C40294   3.266   4.178   5.146  0.3951 -0.4845 -0.1947
  299MOL0     C40295   3.340   4.082   5.130 -0.3819 -0.9373  0.2632
  299MOL0     C40296   2.504   4.212   5.171 -0.2091  0.2720 -0.0826
  299MOL0     C40297   2.367   4.189   5.159  0.7255 -0.1969  0.1857
  299MOL0     H40298   1.978   4.114   5.386  0.4365 -1.6826 -3.2858
  299MOL0     H40299   1.743   4.033   5.397 -2.7438  0.5588  1.4216
  299MOL0     H40300   1.409   4.265   5.377  1.6970 -0.2124  0.1266
  299MOL0     H40301   1.392   4.231   5.204 -0.0406  1.3025  0.4825
  299MOL0     H40302   1.318   3.989   5.283  1.4032 -0.9842  0.9512
  299MOL0     H40303   1.327   4.052   5.446 -1.2343  0.8831  0.7353
  299MOL0     H40304   1.147   4.154   5.223  0.2400  0.6055 -0.2288
  299MOL0     H40305   1.095   4.042   5.346 -1.4571  1.4349  0.0582
  299MOL0     H40306   1.143   4.202   5.534  0.0402 -1.3683 -0.9923
  299MOL0     H40307   1.174   4.332   5.410  0.9997  0.1681 -1.6933
  299MOL0     H40308   0.921   4.182   5.477 -1.9502  1.1546 -0.2674
  299MOL0     H40309   0.961   4.344   5.527  0.2699  0.8546  0.0186
  299MOL0     H40310   0.895   4.442   5.322 -0.7007 -0.1053  0.1122
  299MOL0     H40311   1.003   4.329   5.245 -1.3906 -1.8103 -1.6306
  299MOL0     H40312   0.766   4.326   5.159  2.6657  4.1017  0.6610
  299MOL0     H40313   0.799   4.168   5.236 -1.7435 -0.3671 -0.0818
  299MOL0     H40314   0.670   4.390   5.397 -2.4453  2.4322 -1.2286
  299MOL0     H40315   0.659   4.204   5.406 -0.8785 -0.3174 -1.8216
  299MOL0     H40316   0.524   4.134   5.129  0.8777  0.0728 -0.3334
  299MOL0     H40317   0.284   4.261   4.937  2.1283  1.8947  0.4304
  299MOL0     H40318   0.281   4.119   5.035  1.6966  0.6206 -2.8636
  299MOL0     H40319   0.102   4.361   5.048  1.0723 -0.7654 -0.7649
  299MOL0     H40320   0.118   4.251   5.191 -1.5796 -0.8037  0.1279
  299MOL0     H40321   0.052   4.062   5.094  0.2510  1.0125  1.7121
  299MOL0     H40322   0.018   4.143   4.929 -2.1622  2.9299 -0.1754
  299MOL0     H40323  -0.121   4.242   5.180 -1.5523 -0.5931  1.2271
  299MOL0     H40324  -0.170   4.112   5.068  0.7470  0.1303  1.7880
  299MOL0     H40325  -0.411   4.309   5.078 -3.0734 -0.5953 -0.4938
  299MOL0     H40326  -0.704   4.176   4.965 -0.3585  0.7085  2.7296
  299MOL0     H40327  -0.645   4.306   5.077  0.9970  0.0128  0.2198
  299MOL0     H40328  -0.714   4.349   4.932 -1.9407 -0.8016  0.3381
  299MOL0     H40329  -0.830   4.238   4.515  0.3268  1.7893 -2.3939
  299MOL0     H40330  -1.021   4.142   4.388  0.9457  2.1506  1.0445
  299MOL0     H40331  -1.192   3.996   4.300 -1.1862 -1.4359 -0.0486
  299MOL0     H40332  -1.104   4.046   4.155  0.4120  0.8278  0.6339
  299MOL0     H40333  -1.261   3.789   4.194  1.2916 -0.9214  0.9124
  299MOL0     H40334  -1.297   3.915   4.073  2.0871  1.0457  0.2238
  299MOL0     H40335  -1.210   3.718   3.965 -0.2923 -1.0017  1.9904
  299MOL0     H40336  -1.061   3.731   4.057  0.6090  2.2600  0.3608
  299MOL0     H40337  -1.179   3.945   3.874 -0.0487 -0.0409 -0.4035
  299MOL0     H40338  -1.023   3.967   3.938 -0.2213  0.8883 -1.0119
  299MOL0     H40339  -1.044   3.886   3.696 -0.2274  0.5112 -0.4405
  299MOL0     H40340  -1.098   3.730   3.753  0.2337 -0.3455 -0.6043
  299MOL0     H40341  -0.835   3.867   3.817 -1.3377  0.3169  2.8041
  299MOL0     H40342  -0.860   3.696   3.850  0.2931 -0.3947 -1.9345
  299MOL0     H40343  -0.853   3.805   3.566  0.1228 -0.3066  0.1262
  299MOL0     H40344  -0.897   3.645   3.618  1.4459 -0.7393 -1.0228
  299MOL0     H40345  -0.690   3.645   3.530  0.6601 -2.6203  0.7646
  299MOL0     H40346  -0.668   3.602   3.701 -0.0275  0.1584 -0.2295
  299MOL0     H40347  -0.788   3.781   4.321 -1.1421 -0.6839  1.3537
  299MOL0     H40348  -0.615   3.872   4.458 -2.2122 -2.2600  0.0228
  299MOL0     H40349  -0.374   4.173   4.607 -0.5627  0.1511  0.0273
  299MOL0     H40350  -0.166   4.223   4.738  0.0693  3.3596 -2.0888
  299MOL0     H40351   1.626   4.372   5.164  1.7133 -0.4915 -0.2157
  299MOL0     H40352   1.857   4.459   5.170 -2.3313  1.2194 -0.1930
  299MOL0     H40353   2.258   4.477   5.289  1.4388  0.1041  2.1884
  299MOL0     H40354   2.497   4.510   5.312 -1.0195  0.6621 -1.4979
  299MOL0     H40355   2.776   4.152   5.224 -4.0460  0.4773  1.0335
  299MOL0     H40356   2.773   4.246   5.071 -0.5493 -1.0626  0.5236
  299MOL0     H40357   2.922   4.317   5.311 -0.0544  0.7108  0.2533
  299MOL0     H40358   2.916   4.403   5.143 -2.8042 -0.7689 -1.2256
  299MOL0     H40359   3.023   4.183   5.055  0.3012  1.2423 -0.7329
  299MOL0     H40360   3.025   4.128   5.223 -1.1434 -1.4930 -2.1979
  299MOL0     H40361   3.190   4.328   5.260  0.4130 -1.8023  1.0214
  299MOL0     H40362   3.182   4.364   5.087 -0.0655  0.9118 -0.0495
  299MOL0     H40363   3.377   3.984   5.110 -0.9402 -1.2156  0.5796
  299MOL0     H40364   2.573   4.138   5.131  1.7403  2.2606 -0.5975
  299MOL0     H40365   2.322   4.102   5.113 -0.0800  0.0550  0.4743
  300MOL0     O40366   0.220   5.952   9.835  0.8885  0.6180  0.3198
  300MOL0     C40367   0.259   6.032   9.744  0.0592  0.0520  0.0569
  300MOL0     O40368   0.186   6.085   9.641  0.2613 -0.0277  0.6596
  300MOL0     C40369   0.056   6.055   9.625  0.5637  0.2403 -0.4990
  300MOL0     C40370  -0.034   6.166   9.608  0.1813 -0.1779 -0.4474
  300MOL0     C40371  -0.171   6.143   9.616  0.2725 -0.5852  0.3015
  300MOL0     C40372  -0.216   6.011   9.638  0.5563  0.1746 -0.6346
  300MOL0     O40373  -0.347   5.978   9.647 -0.2527  0.1312 -0.0265
  300MOL0     C40374  -0.439   6.087   9.633  0.9345  0.3979 -0.5085
  300MOL0     C40375  -0.578   6.023   9.660  0.1168  0.5997 -0.2445
  300MOL0     C40376  -0.693   6.127   9.650  0.1611 -0.2090  0.9477
  300MOL0     C40377  -0.829   6.058   9.679  0.5400  0.2567 -0.0852
  300MOL0     C40378  -0.935   6.157   9.693 -0.1423  0.0863  0.0993
  300MOL0     C40379  -1.064   6.078   9.716  0.1088 -0.8546 -0.3847
  300MOL0     C40380  -1.185   6.181   9.694 -0.7103  1.2269 -0.1393
  300MOL0     C40381  -1.309   6.095   9.681  0.2727  0.1379  0.5965
  300MOL0     N40382  -1.430   6.161   9.635 -0.6567 -0.7497  0.6367
  300MOL0     C40383  -1.540   6.104   9.578 -0.9044 -0.5259  0.0622
  300MOL0     C40384  -1.620   6.214   9.547 -0.1861  0.1002 -0.7330
  300MOL0     C40385  -1.763   6.216   9.490  0.1861  0.6766 -0.7592
  300MOL0     C40386  -1.866   6.131   9.577  0.1874  0.2176  0.0229
  300MOL0     C40387  -1.846   6.157   9.724  1.2396 -0.5844 -0.3886
  300MOL0     C40388  -1.861   6.302   9.786 -0.2107  0.5709 -0.7580
  300MOL0     O40389  -1.984   6.361   9.743 -0.7746 -0.1804 -0.1970
  300MOL0     C40390  -2.083   6.340   9.831  1.0543 -0.1836  0.1894
  300MOL0     C40391  -2.083   6.405   9.956 -0.7611 -0.5805 -0.2160
  300MOL0     C40392  -2.177   6.386  10.060  0.5749  0.3176  0.4066
  300MOL0     C40393  -2.162   6.465  10.190  0.4160  0.1803 -0.6185
  300MOL0     C40394  -2.275   6.282  10.034  0.6283  0.2303 -1.2297
  300MOL0     C40395  -2.386   6.256  10.130  0.1855 -0.0957 -0.6956
  300MOL0     O40396  -2.349   6.221  10.261  0.4752  0.3480 -0.2386
  300MOL0     C40397  -2.453   6.205  10.344  0.0496  0.6374  0.3159
  300MOL0     C40398  -2.520   6.309  10.399  0.0627  0.0689 -0.1137
  300MOL0     C40399  -2.613   6.283  10.500 -0.0634  0.3032  0.5336
  300MOL0     C40400  -2.645   6.157  10.539  0.6082  0.3394 -0.2428
  300MOL0     O40401  -2.749   6.152  10.630 -0.3173  0.7410  0.3318
  300MOL0     C40402  -2.828   6.032  10.645  0.0500 -0.7006  0.7679
  300MOL0     C40403  -2.968   6.045  10.594 -0.1433 -0.1454 -0.1274
  300MOL0     C40404  -2.971   6.070  10.447 -0.3741 -0.4010  0.8908
  300MOL0     C40405  -3.119   6.081  10.401  0.9568  0.0384 -0.7600
  300MOL0     C40406  -3.205   5.950  10.414  0.6468 -0.3523  0.0085
  300MOL0     C40407  -3.350   5.962  10.369 -0.1762  0.8463 -0.2098
  300MOL0     C40408  -3.421   6.072  10.455 -0.5976 -0.0371  0.2542
  300MOL0     C40409  -3.568   6.076  10.414 -0.2008  0.4076 -0.5093
  300MOL0    Cl40410  -3.640   5.924  10.468 -0.1243  0.4079  0.3737
  300MOL0     C40411  -2.580   6.052  10.478  0.0335  0.4033 -0.9359
  300MOL0     C40412  -2.481   6.069  10.378  0.0825 -0.1361 -0.9051
  300MOL0     O40413  -2.500   6.279  10.100  0.5187 -0.6872 -0.0583
  300MOL0     C40414  -2.272   6.213   9.909  0.2935  0.7561  0.1273
  300MOL0     C40415  -2.178   6.245   9.809 -0.3374 -0.8133  0.4589
  300MOL0     N40416  -1.557   6.329   9.595  0.4063 -0.0089  0.2951
  300MOL0     N40417  -1.439   6.296   9.638  0.0583 -0.1718  0.8443
  300MOL0     C40418  -0.133   5.909   9.658 -0.7346  0.2278  0.1951
  300MOL0     C40419   0.003   5.926   9.647 -0.3970  0.0497  0.7723
  300MOL0     C40420   0.397   6.093   9.748  0.2422 -0.3651  0.3779
  300MOL0     C40421   0.403   6.227   9.715 -0.1938  0.6849  0.7098
  300MOL0     C40422   0.524   6.288   9.717  0.7037 -0.3390  0.2908
  300MOL0     C40423   0.639   6.220   9.768 -0.5185 -0.5564  0.1510
  300MOL0     O40424   0.759   6.293   9.760  0.1012  0.8316 -0.2604
  300MOL0     C40425   0.882   6.232   9.806 -0.8729 -0.8581  0.1523
  300MOL0     C40426   1.002   6.308   9.739  0.9083 -0.2649 -0.6858
  300MOL0     C40427   0.998   6.459   9.769 -0.8269 -0.6470  0.2148
  300MOL0     C40428   1.063   6.546   9.657  0.0525  0.7884  0.0373
  300MOL0     C40429   1.101   6.670   9.722 -0.1167 -0.5635 -0.5177
  300MOL0     C40430   1.135   6.777   9.776  0.2295 -0.9931  0.0364
  300MOL0     C40431   0.630   6.089   9.809  1.0266 -0.2355  0.2192
  300MOL0     C40432   0.509   6.024   9.805 -0.6904 -1.3227 -0.5338
  300MOL0     H40433  -0.009   6.269   9.583 -3.9845  1.2726  0.4985
  300MOL0     H40434  -0.235   6.230   9.602 -0.9884 -1.1456  2.1276
  300MOL0     H40435  -0.420   6.174   9.697 -0.8518 -0.0290  0.6741
  300MOL0     H40436  -0.439   6.109   9.526  3.1662  1.1389 -0.3910
  300MOL0     H40437  -0.600   5.939   9.594 -1.3160 -0.1706  1.1372
  300MOL0     H40438  -0.586   5.977   9.759 -1.8468  0.7418 -0.2859
  300MOL0     H40439  -0.684   6.201   9.730 -2.4456  0.1656  0.9944
  300MOL0     H40440  -0.698   6.176   9.553  0.5431  0.0767  1.0702
  300MOL0     H40441  -0.849   5.985   9.600  2.0050 -0.1161 -0.1308
  300MOL0     H40442  -0.819   5.998   9.770 -1.3165 -1.0728 -0.6736
  300MOL0     H40443  -0.919   6.221   9.781 -2.0787 -0.9413  1.2539
  300MOL0     H40444  -0.944   6.233   9.614 -0.4440  2.6290  2.4059
  300MOL0     H40445  -1.088   5.992   9.652 -1.3625 -0.1332 -0.8396
  300MOL0     H40446  -1.074   6.046   9.820 -0.1949  1.2323  0.2531
  300MOL0     H40447  -1.183   6.262   9.767 -0.7534  0.7952  0.3525
  300MOL0     H40448  -1.178   6.226   9.595  0.6289  1.2431 -0.0628
  300MOL0     H40449  -1.328   6.045   9.776 -2.1322 -1.5180 -0.6386
  300MOL0     H40450  -1.291   6.014   9.609  0.0208 -1.0131  1.7856
  300MOL0     H40451  -1.558   6.004   9.541 -1.2388 -0.1937 -0.6881
  300MOL0     H40452  -1.802   6.318   9.479 -0.1553  0.7406  0.8744
  300MOL0     H40453  -1.759   6.174   9.389  1.5419 -2.3006  0.4134
  300MOL0     H40454  -1.851   6.023   9.564  1.7404  0.0848  2.3075
  300MOL0     H40455  -1.968   6.145   9.539 -0.6130 -1.1615  1.5362
  300MOL0     H40456  -1.747   6.123   9.755  0.9353 -0.9248  0.2417
  300MOL0     H40457  -1.915   6.091   9.778  0.2461  1.3357  0.8327
  300MOL0     H40458  -1.772   6.356   9.752 -0.3105  0.8877 -0.5188
  300MOL0     H40459  -1.864   6.291   9.895  3.2991 -1.4434 -0.7208
  300MOL0     H40460  -1.998   6.473   9.962 -1.7541  0.7925 -1.0726
  300MOL0     H40461  -2.119   6.561  10.160 -1.6848  1.0035 -1.1430
  300MOL0     H40462  -2.258   6.484  10.239 -0.5958 -2.1354 -1.5510
  300MOL0     H40463  -2.090   6.423  10.261  0.5051  0.8901 -0.2844
  300MOL0     H40464  -2.491   6.410  10.374  1.9032 -0.4077 -0.0876
  300MOL0     H40465  -2.667   6.369  10.541 -2.2274 -0.6072 -0.2620
  300MOL0     H40466  -2.784   5.945  10.594 -0.3502 -1.2941  1.4299
  300MOL0     H40467  -2.815   6.010  10.751  1.9790 -1.5910  0.3966
  300MOL0     H40468  -3.028   5.960  10.627 -1.3944  0.4244 -0.8383
  300MOL0     H40469  -3.017   6.131  10.640 -3.4754 -1.1135 -1.5446
  300MOL0     H40470  -2.919   5.990  10.395 -1.3346 -0.7345  0.4146
  300MOL0     H40471  -2.908   6.157  10.425  0.9645 -0.7650  3.0104
  300MOL0     H40472  -3.173   6.157  10.460  0.3370 -2.5056  2.2402
  300MOL0     H40473  -3.129   6.119  10.299 -2.8011 -1.2109 -1.0089
  300MOL0     H40474  -3.209   5.924  10.520  0.6078 -0.4310 -0.0128
  300MOL0     H40475  -3.151   5.876  10.355  2.1542  0.8672 -0.1922
  300MOL0     H40476  -3.351   5.986  10.262 -2.7342  0.0450 -0.4279
  300MOL0     H40477  -3.389   5.860  10.378  0.7768  0.4919 -0.0453
  300MOL0     H40478  -3.367   6.166  10.441 -0.4178 -0.3083 -1.0132
  300MOL0     H40479  -3.420   6.046  10.561  0.8829 -0.1362  0.2504
  300MOL0     H40480  -3.584   6.090  10.306 -0.9263 -1.5788 -0.6996
  300MOL0     H40481  -3.624   6.158  10.458 -1.1789  0.5946 -2.0205
  300MOL0     H40482  -2.608   5.950  10.502 -3.1596  1.3363 -0.2112
  300MOL0     H40483  -2.451   5.979  10.327 -3.7431 -1.4612 -1.1502
  300MOL0     H40484  -2.345   6.134   9.902 -0.4900  1.3027  1.6182
  300MOL0     H40485  -2.166   6.187   9.717  1.4851  2.6791 -1.7189
  300MOL0     H40486  -0.163   5.805   9.668 -1.7495  0.2122 -2.2802
  300MOL0     H40487   0.067   5.841   9.664 -0.0751 -0.3978 -2.0888
  300MOL0     H40488   0.308   6.276   9.696 -0.6800 -0.8397 -1.0437
  300MOL0     H40489   0.526   6.394   9.695  0.2569 -0.7689 -2.1091
  300MOL0     H40490   0.900   6.247   9.913  0.3506  2.0761 -0.3776
  300MOL0     H40491   0.896   6.126   9.784  1.2087 -0.4952 -0.5219
  300MOL0     H40492   0.993   6.288   9.632 -2.7248 -2.7916 -0.1018
  300MOL0     H40493   1.094   6.268   9.782  2.3109  2.1949 -1.2120
  300MOL0     H40494   1.064   6.477   9.854  0.5055  1.8212 -1.2355
  300MOL0     H40495   0.901   6.497   9.801 -0.4358  0.8296 -0.2911
  300MOL0     H40496   0.990   6.565   9.578 -0.6861 -0.0922  0.4817
  300MOL0     H40497   1.155   6.495   9.626 -0.6145 -1.2657  1.2226
  300MOL0     H40498   1.154   6.872   9.821  0.4806  0.0377 -2.1414
  300MOL0     H40499   0.718   6.040   9.850  1.8699 -0.0073 -1.2399
  300MOL0     H40500   0.487   5.923   9.837 -0.9285 -0.5177  2.0460
  301MOL0     O40501   4.128   2.469   6.722  0.6555 -1.3354 -0.2895
  301MOL0     C40502   4.156   2.412   6.618  0.1061  0.6914 -0.0327
  301MOL0     O40503   4.069   2.348   6.545 -0.1371 -0.1901 -0.0161
  301MOL0     C40504   3.952   2.314   6.598 -0.6341  0.1662  0.2962
  301MOL0     C40505   3.928   2.187   6.655 -0.7985 -0.4256 -0.5932
  301MOL0     C40506   3.814   2.156   6.726 -0.1120 -0.2989  0.1335
  301MOL0     C40507   3.720   2.258   6.745  0.6966 -0.2302 -0.0971
  301MOL0     O40508   3.598   2.227   6.803 -0.2439  0.0170 -0.1690
  301MOL0     C40509   3.492   2.324   6.818  0.5050 -0.9528 -0.1034
  301MOL0     C40510   3.358   2.251   6.846 -0.4724 -0.3693 -0.4633
  301MOL0     C40511   3.248   2.356   6.849 -0.0574 -0.0874 -0.0638
  301MOL0     C40512   3.220   2.448   6.728  0.5621 -0.5032 -0.2798
  301MOL0     C40513   3.091   2.520   6.764  0.3921 -0.1010 -1.1081
  301MOL0     C40514   3.017   2.610   6.664 -0.5308 -0.4720  0.2511
  301MOL0     C40515   2.911   2.698   6.727  0.0064  0.0917 -1.0588
  301MOL0     C40516   2.888   2.833   6.665  0.3842 -0.3419 -0.3600
  301MOL0     N40517   2.882   2.814   6.516 -0.3630 -0.1100 -0.1933
  301MOL0     C40518   2.769   2.786   6.443 -0.1596 -0.2343 -0.2258
  301MOL0     C40519   2.813   2.777   6.319 -0.6045 -0.2387  0.5701
  301MOL0     C40520   2.729   2.749   6.203  0.1143  0.3619  0.6174
  301MOL0     C40521   2.737   2.588   6.182  0.5158 -0.6952 -0.2036
  301MOL0     C40522   2.643   2.522   6.279  0.1801 -0.7802  0.2279
  301MOL0     C40523   2.500   2.547   6.233  0.0601  0.2236  0.5238
  301MOL0     O40524   2.401   2.465   6.300  0.6166  0.1892 -0.5808
  301MOL0     C40525   2.265   2.481   6.284  0.1776  0.7354  0.0224
  301MOL0     C40526   2.170   2.427   6.371  0.3351  0.1480 -0.4084
  301MOL0     C40527   2.035   2.443   6.353 -0.3110  1.1269  0.0362
  301MOL0     C40528   1.945   2.353   6.447 -0.7458  0.5039  0.4065
  301MOL0     C40529   1.983   2.535   6.256  1.0701 -0.0868 -0.7940
  301MOL0     C40530   1.830   2.557   6.246 -0.5168 -0.0187 -0.3215
  301MOL0     O40531   1.745   2.491   6.328 -0.3155  0.3428  0.5699
  301MOL0     C40532   1.612   2.516   6.312  0.0593 -0.0695  0.4860
  301MOL0     C40533   1.540   2.402   6.331  0.2314  0.2567  0.0557
  301MOL0     C40534   1.402   2.403   6.327  0.3526  0.2715  0.1202
  301MOL0     C40535   1.337   2.522   6.308  0.5050  0.4965 -0.3894
  301MOL0     O40536   1.199   2.516   6.303 -0.4221 -0.5866 -0.3539
  301MOL0     C40537   1.115   2.629   6.311  1.1996 -0.4988 -0.0884
  301MOL0     C40538   0.967   2.611   6.328  0.1195  0.6499 -0.4206
  301MOL0     C40539   0.916   2.522   6.217  0.2360  0.3705 -0.0067
  301MOL0     C40540   0.761   2.530   6.218 -0.2694  0.1633  0.3608
  301MOL0     C40541   0.688   2.467   6.102 -0.6434  0.4433  0.1183
  301MOL0     C40542   0.532   2.488   6.113  0.4221  0.7117 -0.8392
  301MOL0     C40543   0.458   2.412   6.233  0.1135  0.1160  0.0626
  301MOL0     C40544   0.306   2.405   6.193  0.3224  0.2735  0.3509
  301MOL0    Cl40545   0.213   2.323   6.320 -0.0305 -0.4648 -0.3082
  301MOL0     C40546   1.406   2.642   6.301 -0.4539  0.3403  0.1439
  301MOL0     C40547   1.547   2.642   6.305 -0.7828 -0.5072 -0.0131
  301MOL0     O40548   1.808   2.646   6.165  0.1501  1.1053  0.3614
  301MOL0     C40549   2.073   2.588   6.161 -0.8374 -0.0379 -0.4221
  301MOL0     C40550   2.211   2.557   6.174  0.0754  1.1789 -0.1808
  301MOL0     N40551   2.947   2.791   6.313 -0.6652  0.0733  0.3671
  301MOL0     N40552   2.988   2.830   6.428 -0.6132  0.4237 -0.5894
  301MOL0     C40553   3.743   2.385   6.682  0.8949  0.2556  0.1623
  301MOL0     C40554   3.853   2.408   6.600 -0.0021 -0.5807  0.1034
  301MOL0     C40555   4.300   2.436   6.558 -0.7538 -0.2733 -0.6265
  301MOL0     C40556   4.331   2.386   6.429 -0.4059 -0.0739  0.8466
  301MOL0     C40557   4.459   2.398   6.385 -0.3245  0.8780  0.0939
  301MOL0     C40558   4.571   2.447   6.452 -0.6456  0.5920 -0.3074
  301MOL0     O40559   4.696   2.443   6.392 -0.4340 -0.2003 -0.3829
  301MOL0     C40560   4.795   2.537   6.435 -0.2239  0.4506  0.5283
  301MOL0     C40561   4.925   2.533   6.345  0.9455  0.3703  0.0310
  301MOL0     C40562   4.972   2.391   6.324  0.3087 -0.0771  0.2912
  301MOL0     C40563   5.119   2.399   6.276 -0.6567  0.0264  1.0628
  301MOL0     C40564   5.133   2.466   6.139 -0.5384 -0.0959  0.9610
  301MOL0     C40565   5.142   2.509   6.026  0.3373  1.0973 -0.1903
  301MOL0     C40566   4.539   2.500   6.578 -0.4940  0.8648 -0.5566
  301MOL0     C40567   4.405   2.489   6.634  0.4442  0.7445  0.5379
  301MOL0     H40568   4.012   2.118   6.664  0.9497  1.4853 -1.6365
  301MOL0     H40569   3.811   2.067   6.788 -0.5041  0.2604  0.9372
  301MOL0     H40570   3.516   2.391   6.902 -0.2236  1.3373 -1.6302
  301MOL0     H40571   3.481   2.385   6.728 -0.7267 -0.8467  0.0980
  301MOL0     H40572   3.339   2.187   6.760  1.0239 -0.0722 -1.0428
  301MOL0     H40573   3.367   2.196   6.941  0.4841 -0.5220 -0.6347
  301MOL0     H40574   3.159   2.301   6.879 -0.3534 -0.3027 -1.2885
  301MOL0     H40575   3.285   2.416   6.933  1.4871 -2.0586  0.7598
  301MOL0     H40576   3.302   2.520   6.720  0.0102  0.0369 -1.4049
  301MOL0     H40577   3.208   2.386   6.639  0.4232  0.9435 -1.3213
  301MOL0     H40578   3.022   2.448   6.809  1.7994 -0.5437  0.4299
  301MOL0     H40579   3.115   2.584   6.849 -2.6326 -0.5415  0.2275
  301MOL0     H40580   3.097   2.673   6.624  2.4473 -2.1163  3.1226
  301MOL0     H40581   2.971   2.537   6.596  0.7189 -2.8888  1.8643
  301MOL0     H40582   2.825   2.630   6.720  0.7142 -0.6376 -5.5674
  301MOL0     H40583   2.932   2.713   6.833  0.4815  0.7576 -1.2355
  301MOL0     H40584   2.970   2.902   6.687  1.5409 -2.3514  2.0368
  301MOL0     H40585   2.795   2.865   6.711  0.8615 -2.9723  2.8270
  301MOL0     H40586   2.668   2.769   6.478 -0.1957  0.1409 -0.1436
  301MOL0     H40587   2.627   2.786   6.217 -0.8418 -1.4439 -1.1258
  301MOL0     H40588   2.773   2.793   6.113 -0.6240 -1.3288 -0.6332
  301MOL0     H40589   2.841   2.558   6.199  0.3401 -2.3607 -1.7144
  301MOL0     H40590   2.718   2.549   6.081  0.3496 -1.5008  0.1344
  301MOL0     H40591   2.652   2.562   6.381  0.2303 -0.8600  0.2553
  301MOL0     H40592   2.654   2.414   6.290 -1.3301 -0.8170  1.8536
  301MOL0     H40593   2.487   2.541   6.125 -0.9655  1.9002  0.5167
  301MOL0     H40594   2.474   2.652   6.249 -3.1742 -0.1289 -1.4883
  301MOL0     H40595   2.211   2.363   6.448  2.8309  2.8163  0.6641
  301MOL0     H40596   1.890   2.283   6.383  1.3872 -0.3154 -0.6273
  301MOL0     H40597   2.004   2.290   6.514 -0.2855  0.6551  0.1422
  301MOL0     H40598   1.879   2.411   6.512 -0.9368 -0.2647  0.9178
  301MOL0     H40599   1.602   2.313   6.328  1.0920  0.8367  0.2437
  301MOL0     H40600   1.339   2.320   6.358 -1.2181  0.3532 -2.4986
  301MOL0     H40601   1.142   2.688   6.399 -2.1847  2.7974 -0.9705
  301MOL0     H40602   1.131   2.697   6.226  3.0946 -0.6866  0.0734
  301MOL0     H40603   0.943   2.563   6.423 -0.4130  2.1420  0.2265
  301MOL0     H40604   0.918   2.710   6.327  0.0420  0.6072 -1.1336
  301MOL0     H40605   0.959   2.422   6.230  0.0727  0.4476  1.2290
  301MOL0     H40606   0.949   2.551   6.117 -1.4442 -2.1088 -1.4013
  301MOL0     H40607   0.718   2.485   6.307  0.3759 -2.3292 -0.5142
  301MOL0     H40608   0.731   2.635   6.230 -4.5988 -1.0383  1.7278
  301MOL0     H40609   0.707   2.359   6.101 -1.3876  0.2837  1.3309
  301MOL0     H40610   0.730   2.513   6.011  1.6116  1.3346  1.5393
  301MOL0     H40611   0.501   2.591   6.130 -1.7363  0.2853 -1.7907
  301MOL0     H40612   0.482   2.453   6.022  1.1394 -3.3868  0.1231
  301MOL0     H40613   0.475   2.458   6.331  0.8479 -0.0795  0.0391
  301MOL0     H40614   0.489   2.307   6.238 -0.1427  0.0678  0.7315
  301MOL0     H40615   0.285   2.343   6.105 -1.2008  0.3387  0.6411
  301MOL0     H40616   0.270   2.506   6.173  3.0458  1.2491 -0.1492
  301MOL0     H40617   1.357   2.738   6.287 -1.5159 -0.0917  0.8483
  301MOL0     H40618   1.612   2.728   6.289  1.1133 -2.2813 -2.8810
  301MOL0     H40619   2.040   2.633   6.068 -3.5095 -0.8054  0.0409
  301MOL0     H40620   2.273   2.586   6.090  1.9955  0.7184  1.0151
  301MOL0     H40621   3.672   2.468   6.685  1.5167  0.7902  0.4879
  301MOL0     H40622   3.870   2.503   6.551  2.1449 -0.0751  1.6395
  301MOL0     H40623   4.258   2.332   6.371 -0.7715 -0.5035  1.6837
  301MOL0     H40624   4.463   2.352   6.287 -0.4069  1.6320 -0.2780
  301MOL0     H40625   4.751   2.635   6.420 -1.6671 -0.3857 -1.0531
  301MOL0     H40626   4.833   2.530   6.537  1.2535 -1.2934 -0.0859
  301MOL0     H40627   5.003   2.593   6.392  1.2394  0.4317 -0.5210
  301MOL0     H40628   4.898   2.580   6.249 -1.5667 -1.9589 -0.5406
  301MOL0     H40629   4.905   2.340   6.254  2.1421 -3.3017  0.7246
  301MOL0     H40630   4.968   2.346   6.424 -1.2444 -2.9687 -0.9595
  301MOL0     H40631   5.156   2.296   6.268 -0.5502  0.1532 -0.5650
  301MOL0     H40632   5.183   2.444   6.352 -1.4246 -0.2935  1.9078
  301MOL0     H40633   5.142   2.557   5.930 -2.4704  1.5210 -0.0367
  301MOL0     H40634   4.621   2.528   6.644  0.8018  0.6085 -1.9973
  301MOL0     H40635   4.392   2.517   6.738 -4.7541 -1.2410  0.7155
  302MOL0     O40636   4.979   2.219  11.048 -0.1505 -0.6601 -0.2063
  302MOL0     C40637   5.069   2.285  10.991  0.3233  0.0432 -0.3690
  302MOL0     O40638   5.051   2.382  10.898 -0.3880  0.3582 -0.0790
  302MOL0     C40639   4.922   2.424  10.865 -0.3462  0.3085 -0.5215
  302MOL0     C40640   4.875   2.414  10.735 -0.1983  0.6471  0.2306
  302MOL0     C40641   4.745   2.444  10.690  0.0992 -0.0244  0.0782
  302MOL0     C40642   4.655   2.483  10.783 -0.2697 -0.0926  0.8314
  302MOL0     O40643   4.519   2.485  10.748  0.1832  0.8095  0.4160
  302MOL0     C40644   4.471   2.604  10.678 -0.2068 -0.1010  0.4632
  302MOL0     C40645   4.321   2.610  10.681 -0.7568  0.0589 -0.0875
  302MOL0     C40646   4.243   2.499  10.610 -0.2011 -0.4603  0.0328
  302MOL0     C40647   4.091   2.516  10.635 -0.3699 -1.1492  0.5119
  302MOL0     C40648   4.051   2.486  10.773  0.0462  0.0097  0.1826
  302MOL0     C40649   3.910   2.541  10.827  0.9904 -0.0002 -0.1426
  302MOL0     C40650   3.788   2.516  10.735 -0.2071  1.1453  0.0169
  302MOL0     C40651   3.756   2.364  10.737 -0.1429  0.4086 -0.6507
  302MOL0     N40652   3.611   2.331  10.741  0.1270 -0.5015 -0.2735
  302MOL0     C40653   3.544   2.320  10.620  0.3241  0.8370  0.6517
  302MOL0     C40654   3.427   2.262  10.658  0.4902  0.2453 -0.5655
  302MOL0     C40655   3.307   2.235  10.572 -0.4875  0.1406 -0.3220
  302MOL0     C40656   3.251   2.092  10.599 -1.3785  0.5544  0.1403
  302MOL0     C40657   3.128   2.065  10.501  0.5258  0.1703  0.1094
  302MOL0     C40658   2.995   2.127  10.542 -0.8079 -0.4245 -0.2988
  302MOL0     O40659   2.963   2.096  10.676  0.1442 -0.4370  0.1372
  302MOL0     C40660   2.833   2.049  10.702  0.2043 -0.0244  0.8219
  302MOL0     C40661   2.826   1.916  10.739  0.9934 -0.0136  0.6259
  302MOL0     C40662   2.708   1.845  10.763  1.0747 -0.1059 -0.1613
  302MOL0     C40663   2.714   1.704  10.814 -0.0950  0.4015  0.1457
  302MOL0     C40664   2.582   1.909  10.746 -0.3565 -1.3866  0.0816
  302MOL0     C40665   2.443   1.853  10.766  0.2438 -0.7059  0.6189
  302MOL0     O40666   2.347   1.947  10.811 -0.6128  0.2853  0.0455
  302MOL0     C40667   2.233   1.897  10.869  0.0462  1.3128  0.4940
  302MOL0     C40668   2.238   1.848  11.002  0.3797 -0.1884  0.0858
  302MOL0     C40669   2.119   1.808  11.065  0.1434 -1.1981 -0.7924
  302MOL0     C40670   1.998   1.824  11.000  0.6063 -0.0198 -0.3902
  302MOL0     O40671   1.877   1.808  11.066 -0.4932 -0.3663 -0.0907
  302MOL0     C40672   1.857   1.679  11.119  0.2595  0.9757  0.0237
  302MOL0     C40673   1.721   1.652  11.171 -0.1437 -0.4854  0.9181
  302MOL0     C40674   1.621   1.754  11.111 -0.2719 -0.6437  0.2163
  302MOL0     C40675   1.492   1.742  11.182 -0.1941 -0.0485  0.6387
  302MOL0     C40676   1.392   1.834  11.116  0.7692  0.6575 -0.1258
  302MOL0     C40677   1.293   1.891  11.223  0.0969  0.3477 -0.6554
  302MOL0     C40678   1.183   1.787  11.272  0.8484 -0.2556 -0.2758
  302MOL0     C40679   1.109   1.843  11.390 -0.2411 -1.0735  0.3173
  302MOL0    Cl40680   1.046   1.996  11.341 -0.0800  0.0130 -0.0828
  302MOL0     C40681   1.985   1.881  10.867 -0.0520  0.3406 -0.3818
  302MOL0     C40682   2.109   1.901  10.806  0.6128  0.2259  0.9256
  302MOL0     O40683   2.423   1.733  10.748 -0.0553  0.5434 -0.2550
  302MOL0     C40684   2.590   2.053  10.702 -0.5019  1.2607  0.7853
  302MOL0     C40685   2.714   2.120  10.669  0.7032 -0.4875 -0.8972
  302MOL0     N40686   3.426   2.248  10.797 -0.4764 -0.5452  0.1159
  302MOL0     N40687   3.540   2.275  10.837 -1.4903 -1.4196 -0.5191
  302MOL0     C40688   4.700   2.504  10.911  0.6446 -1.9191 -0.0813
  302MOL0     C40689   4.829   2.477  10.954 -0.1166  0.1802 -0.0116
  302MOL0     C40690   5.209   2.270  11.022 -0.5281 -0.5790  0.2530
  302MOL0     C40691   5.249   2.235  11.152  0.5517 -0.3429 -0.0114
  302MOL0     C40692   5.381   2.206  11.184 -0.2616  0.2470  0.1984
  302MOL0     C40693   5.487   2.232  11.085  0.2161 -0.6792 -0.2524
  302MOL0     O40694   5.623   2.211  11.097  0.0726  0.2338  0.4069
  302MOL0     C40695   5.673   2.162  11.223 -0.3848 -0.2336  0.5972
  302MOL0     C40696   5.808   2.107  11.196  0.9034  0.1090  0.2595
  302MOL0     C40697   5.903   2.220  11.146  0.5629 -0.0555  0.9791
  302MOL0     C40698   6.039   2.172  11.101  0.9539 -0.3431  0.5476
  302MOL0     C40699   6.027   2.067  11.010 -0.2109 -0.8851  0.0712
  302MOL0     C40700   6.023   1.983  10.927 -1.3467  0.0853  0.0754
  302MOL0     C40701   5.448   2.277  10.969  0.7658  0.1803  0.0046
  302MOL0     C40702   5.313   2.305  10.929 -0.8037 -0.1751 -0.8904
  302MOL0     H40703   4.953   2.387  10.664  0.3167 -0.1910  1.0759
  302MOL0     H40704   4.721   2.427  10.586 -3.1469  2.3699  0.3065
  302MOL0     H40705   4.517   2.697  10.714 -3.1868  0.8163  2.3132
  302MOL0     H40706   4.503   2.599  10.574 -1.8410 -3.7836 -0.0077
  302MOL0     H40707   4.286   2.617  10.784  2.1836  1.4592  0.9157
  302MOL0     H40708   4.300   2.702  10.627  3.4870  0.5669 -1.2101
  302MOL0     H40709   4.251   2.511  10.501 -0.1839  2.1275  0.2476
  302MOL0     H40710   4.262   2.399  10.647 -4.1858 -0.3956  2.9080
  302MOL0     H40711   4.065   2.621  10.623 -0.2383 -0.9983  1.4828
  302MOL0     H40712   4.028   2.449  10.574  0.7229 -1.0279 -0.8052
  302MOL0     H40713   4.051   2.378  10.790 -0.5792 -0.3890 -2.0401
  302MOL0     H40714   4.120   2.531  10.845  1.5959 -0.1782 -1.1419
  302MOL0     H40715   3.884   2.502  10.926 -1.8882 -0.8423 -1.1231
  302MOL0     H40716   3.923   2.649  10.834  0.9547  0.0272 -0.4561
  302MOL0     H40717   3.705   2.580  10.766 -0.7484  0.5412 -0.1909
  302MOL0     H40718   3.809   2.538  10.630 -0.1674  0.3503 -0.1415
  302MOL0     H40719   3.799   2.317  10.826 -0.6010 -1.4926 -1.3823
  302MOL0     H40720   3.794   2.313  10.649 -1.3319 -2.2293  0.2457
  302MOL0     H40721   3.580   2.345  10.520  0.2374 -2.0303 -0.1841
  302MOL0     H40722   3.232   2.314  10.581 -1.1543 -0.5941  0.8577
  302MOL0     H40723   3.341   2.229  10.468  0.8717 -0.3930  0.1309
  302MOL0     H40724   3.213   2.099  10.701 -1.8785  0.5950 -0.0428
  302MOL0     H40725   3.329   2.017  10.587 -2.1915 -0.3653  0.4328
  302MOL0     H40726   3.106   1.958  10.495 -4.2732  0.9271  0.2998
  302MOL0     H40727   3.143   2.094  10.397 -0.4307 -0.0700 -0.1026
  302MOL0     H40728   2.915   2.091  10.475  0.4557  0.6834 -2.5314
  302MOL0     H40729   3.010   2.233  10.518 -2.0046 -0.3531 -0.7994
  302MOL0     H40730   2.923   1.867  10.731  0.7301 -0.3758 -0.6374
  302MOL0     H40731   2.661   1.642  10.742 -0.6229 -1.5508  2.1268
  302MOL0     H40732   2.817   1.668  10.822 -0.3888 -0.5314 -0.2404
  302MOL0     H40733   2.665   1.705  10.912 -0.0643  2.2254  0.1835
  302MOL0     H40734   2.333   1.839  11.053  0.7880 -0.0569 -0.6353
  302MOL0     H40735   2.130   1.761  11.162  1.3483 -2.2494 -1.4101
  302MOL0     H40736   1.900   1.603  11.054  3.5706 -0.1382  3.1764
  302MOL0     H40737   1.923   1.662  11.205 -0.5031  2.3206  0.9169
  302MOL0     H40738   1.702   1.549  11.139 -0.7119 -0.3509  0.8049
  302MOL0     H40739   1.707   1.671  11.278 -3.4363  1.3171  0.3042
  302MOL0     H40740   1.616   1.731  11.004  0.5136  3.0708 -0.7365
  302MOL0     H40741   1.655   1.858  11.106 -1.0382 -0.3890  0.1666
  302MOL0     H40742   1.446   1.643  11.181  0.1162 -0.2367  2.3321
  302MOL0     H40743   1.497   1.762  11.289  2.2712  1.1913  0.3551
  302MOL0     H40744   1.349   1.796  11.023  2.2072 -0.1880 -0.4843
  302MOL0     H40745   1.447   1.920  11.076  1.6839  0.9833  1.7153
  302MOL0     H40746   1.350   1.917  11.312  0.7607 -1.2143 -0.6050
  302MOL0     H40747   1.247   1.984  11.187  0.3178 -0.7856 -4.2707
  302MOL0     H40748   1.224   1.691  11.305  0.0979  0.1619  2.0045
  302MOL0     H40749   1.108   1.778  11.193  1.1198  1.3564 -0.7570
  302MOL0     H40750   1.165   1.850  11.484  0.2979  1.7546 -0.1110
  302MOL0     H40751   1.034   1.766  11.412 -0.0228 -1.0814  1.0858
  302MOL0     H40752   1.888   1.900  10.823 -1.3156 -2.4098  0.9393
  302MOL0     H40753   2.119   1.929  10.701  3.4131 -0.7289  0.8650
  302MOL0     H40754   2.502   2.107  10.667  0.9512  2.0146 -2.0905
  302MOL0     H40755   2.717   2.221  10.630 -0.6933  1.2538  2.9366
  302MOL0     H40756   4.635   2.538  10.991  0.7780 -2.6923  0.3613
  302MOL0     H40757   4.865   2.498  11.054  0.5347  0.4441 -0.2959
  302MOL0     H40758   5.162   2.228  11.216 -0.2629 -1.6532 -1.1895
  302MOL0     H40759   5.404   2.176  11.286  1.2155  0.4122 -0.0581
  302MOL0     H40760   5.682   2.250  11.288 -1.2800  1.2490 -1.1853
  302MOL0     H40761   5.603   2.085  11.256 -2.2128  1.8565  1.9474
  302MOL0     H40762   5.799   2.033  11.116 -2.0591  1.2925 -0.6222
  302MOL0     H40763   5.846   2.055  11.284  0.3897 -0.2259  0.2902
  302MOL0     H40764   5.911   2.291  11.229  0.4332  1.1549 -0.0033
  302MOL0     H40765   5.873   2.258  11.048  0.0630 -3.8397 -0.5033
  302MOL0     H40766   6.087   2.163  11.199  0.6972  2.1184  0.9680
  302MOL0     H40767   6.097   2.256  11.060 -2.4556  1.6821 -0.5157
  302MOL0     H40768   6.018   1.906  10.852  2.6581  0.5976 -0.9776
  302MOL0     H40769   5.508   2.298  10.881  0.9503  2.9637  0.7026
  302MOL0     H40770   5.297   2.356  10.835  1.1353  0.4956 -0.9021
  303MOL0     O40771   2.527   9.649   7.452 -0.3691  0.1213  0.7437
  303MOL0     C40772   2.514   9.550   7.378  0.5069  0.9278  0.3073
  303MOL0     O40773   2.392   9.506   7.331 -0.3224 -0.6011 -0.0700
  303MOL0     C40774   2.269   9.564   7.350  0.0769 -0.6131  0.4735
  303MOL0     C40775   2.232   9.676   7.435 -1.0555  0.3229 -0.0159
  303MOL0     C40776   2.100   9.708   7.452  1.0617  0.5055 -1.0580
  303MOL0     C40777   1.995   9.638   7.380  0.8418 -0.5853 -0.4184
  303MOL0     O40778   1.860   9.664   7.389 -0.0668 -0.5237  0.7476
  303MOL0     C40779   1.810   9.761   7.484 -0.0935  0.6888  0.1333
  303MOL0     C40780   1.863   9.906   7.457 -0.1824  1.0654 -0.0055
  303MOL0     C40781   1.746  10.008   7.410 -0.4351 -0.2506  0.3557
  303MOL0     C40782   1.821  10.139   7.387 -0.3570  0.5237  0.4806
  303MOL0     C40783   1.741  10.263   7.384  0.0982 -1.6971 -0.6057
  303MOL0     C40784   1.835  10.381   7.372 -0.3115 -0.1805  0.0139
  303MOL0     C40785   1.757  10.499   7.331 -0.1850 -0.0703 -0.8020
  303MOL0     C40786   1.661  10.547   7.448  0.0341 -0.4483  0.2816
  303MOL0     N40787   1.608  10.681   7.420 -0.2616  0.1654  0.1235
  303MOL0     C40788   1.505  10.747   7.483  0.5520  1.1768  0.0557
  303MOL0     C40789   1.504  10.867   7.425 -0.4355 -0.2190  0.2726
  303MOL0     C40790   1.421  10.980   7.478 -0.6182  0.3396  0.3764
  303MOL0     C40791   1.289  10.981   7.408  0.5891  0.4071  0.9717
  303MOL0     C40792   1.204  11.079   7.483 -0.0726 -0.0265  0.1054
  303MOL0     C40793   1.069  11.094   7.402 -0.0547 -0.1752 -0.5650
  303MOL0     O40794   1.015  11.214   7.455 -0.3766 -0.0852 -0.2659
  303MOL0     C40795   0.881  11.243   7.423 -0.2226 -0.1107  0.6913
  303MOL0     C40796   0.833  11.359   7.480  0.3466 -0.5207 -0.2725
  303MOL0     C40797   0.700  11.415   7.458 -0.4059 -0.2255  0.0460
  303MOL0     C40798   0.679  11.548   7.531 -0.5482 -0.1954 -0.1769
  303MOL0     C40799   0.604  11.346   7.369  0.2557 -0.9697  0.1060
  303MOL0     C40800   0.464  11.397   7.337 -0.5091  0.5267  0.6080
  303MOL0     O40801   0.415  11.375   7.210  0.2083 -0.4067 -0.4103
  303MOL0     C40802   0.283  11.373   7.188 -0.0508  1.0296 -0.3771
  303MOL0     C40803   0.199  11.260   7.227 -0.3584 -0.5406 -0.2605
  303MOL0     C40804   0.063  11.265   7.196  0.7341 -0.1133 -0.1566
  303MOL0     C40805   0.005  11.377   7.124  0.7845  0.1537  0.0617
  303MOL0     O40806  -0.132  11.400   7.109 -0.4493 -0.7168 -0.4194
  303MOL0     C40807  -0.179  11.478   6.999 -0.6153  0.9959 -0.2449
  303MOL0     C40808  -0.317  11.426   6.951  0.6161 -0.5903  0.9573
  303MOL0     C40809  -0.383  11.489   6.822 -0.1413  0.3051  0.1022
  303MOL0     C40810  -0.376  11.636   6.831 -1.2630 -0.4660 -0.2253
  303MOL0     C40811  -0.431  11.706   6.713 -0.7193 -0.3378 -0.4283
  303MOL0     C40812  -0.333  11.710   6.597 -0.7255  0.1491  0.6424
  303MOL0     C40813  -0.401  11.786   6.483  0.6905 -0.7947  0.8342
  303MOL0     C40814  -0.307  11.828   6.377 -0.1114  0.3964 -0.2412
  303MOL0    Cl40815  -0.382  11.930   6.253  0.1486 -0.0304 -0.4972
  303MOL0     C40816   0.095  11.474   7.086  0.2458 -0.1041  0.4689
  303MOL0     C40817   0.228  11.476   7.122  0.1177 -0.4000  0.1042
  303MOL0     O40818   0.397  11.460   7.423 -0.2201 -0.3830  0.5247
  303MOL0     C40819   0.654  11.233   7.298  0.1289  0.7808  0.2884
  303MOL0     C40820   0.790  11.183   7.324 -0.2488  0.2044 -0.8476
  303MOL0     N40821   1.586  10.870   7.319  0.4392 -0.7406 -0.5163
  303MOL0     N40822   1.651  10.762   7.314 -0.4798  0.2655 -0.0666
  303MOL0     C40823   2.029   9.548   7.288  0.1871  0.2872 -0.1030
  303MOL0     C40824   2.164   9.506   7.272  0.9510  0.1006  0.3974
  303MOL0     C40825   2.629   9.481   7.334 -0.0006 -0.0593  0.1121
  303MOL0     C40826   2.623   9.385   7.241  0.1634  1.3550 -0.0248
  303MOL0     C40827   2.732   9.302   7.212 -0.2542 -0.5366 -0.6184
  303MOL0     C40828   2.856   9.346   7.254 -0.0724  0.0892  1.0988
  303MOL0     O40829   2.960   9.266   7.223  0.0538 -0.0071 -0.0188
  303MOL0     C40830   3.090   9.337   7.212  0.7318  0.7841 -0.8578
  303MOL0     C40831   3.200   9.228   7.184 -0.1545 -0.0694 -0.1189
  303MOL0     C40832   3.345   9.265   7.164  0.6683 -0.7856  0.0957
  303MOL0     C40833   3.440   9.151   7.136  0.7943  0.2653  0.1249
  303MOL0     C40834   3.558   9.186   7.057  0.6165 -0.5060 -0.2342
  303MOL0     C40835   3.666   9.200   7.002  0.6925  0.3862  1.3698
  303MOL0     C40836   2.861   9.450   7.344 -0.0536 -0.5847 -0.3138
  303MOL0     C40837   2.755   9.531   7.376  0.5034 -0.2034  0.1551
  303MOL0     H40838   2.300   9.743   7.485 -0.5118  2.3202 -3.1502
  303MOL0     H40839   2.074   9.774   7.534 -0.7126 -1.1112 -0.2064
  303MOL0     H40840   1.701   9.755   7.477 -0.0749  1.1635 -0.6246
  303MOL0     H40841   1.839   9.737   7.587 -0.8291 -1.3985 -0.0926
  303MOL0     H40842   1.899   9.946   7.553 -1.3509  1.4461  0.2939
  303MOL0     H40843   1.946   9.911   7.386  0.6556  1.0622  0.9426
  303MOL0     H40844   1.713   9.987   7.308  0.8855  0.9428 -0.3578
  303MOL0     H40845   1.672  10.009   7.490  1.1293 -3.5433  2.0638
  303MOL0     H40846   1.894  10.156   7.467  1.3314 -2.6722 -0.2163
  303MOL0     H40847   1.873  10.133   7.291 -1.5541  3.0110 -0.4078
  303MOL0     H40848   1.669  10.266   7.302 -0.6219  3.6261 -0.1409
  303MOL0     H40849   1.683  10.264   7.477 -0.4326 -1.8708 -0.9319
  303MOL0     H40850   1.889  10.406   7.463  3.9079  0.0902 -2.3294
  303MOL0     H40851   1.911  10.354   7.298  0.5226 -0.6108  1.0159
  303MOL0     H40852   1.821  10.583   7.304 -1.8284  1.6558  0.3744
  303MOL0     H40853   1.698  10.474   7.242  0.5278 -2.8436 -0.5802
  303MOL0     H40854   1.735  10.556   7.529 -0.8717  2.4272  0.9000
  303MOL0     H40855   1.590  10.469   7.477 -0.5049  0.4571  1.4766
  303MOL0     H40856   1.443  10.715   7.566  3.2145 -2.5291  0.8846
  303MOL0     H40857   1.406  10.980   7.587 -1.1550  2.8949  0.3603
  303MOL0     H40858   1.469  11.074   7.449 -0.7828  0.7567  1.4033
  303MOL0     H40859   1.241  10.883   7.413  0.1393  0.6013  0.6048
  303MOL0     H40860   1.299  11.004   7.301  0.8856 -1.4800  0.5693
  303MOL0     H40861   1.254  11.175   7.495  1.4394 -0.6218 -1.1018
  303MOL0     H40862   1.186  11.029   7.578 -1.8746 -0.0128 -0.1785
  303MOL0     H40863   1.015  10.999   7.409  1.4614 -0.9900  1.2422
  303MOL0     H40864   1.097  11.111   7.298  2.2571  0.0865  0.0391
  303MOL0     H40865   0.905  11.422   7.532 -1.1006 -0.2064  1.4469
  303MOL0     H40866   0.738  11.544   7.623  0.0594  0.5067 -0.5200
  303MOL0     H40867   0.722  11.632   7.476  0.7703  0.5180  1.8277
  303MOL0     H40868   0.575  11.560   7.561 -0.7373 -0.8984 -0.5343
  303MOL0     H40869   0.231  11.172   7.281  2.1966 -0.6694 -1.8393
  303MOL0     H40870  -0.001  11.190   7.243 -0.3963 -0.4273 -2.0947
  303MOL0     H40871  -0.195  11.580   7.037 -0.3152  0.8167  0.3800
  303MOL0     H40872  -0.100  11.470   6.924  0.6906 -1.0609  1.2503
  303MOL0     H40873  -0.291  11.323   6.925  0.8668  0.1299 -1.9947
  303MOL0     H40874  -0.389  11.429   7.033  1.6960  1.5724  1.9042
  303MOL0     H40875  -0.487  11.454   6.814 -1.1981  2.8260  1.7720
  303MOL0     H40876  -0.322  11.466   6.734  0.9525  1.3272  0.5657
  303MOL0     H40877  -0.418  11.677   6.924 -1.2519  0.2726 -0.5416
  303MOL0     H40878  -0.269  11.655   6.826 -1.3622 -0.0422 -0.8557
  303MOL0     H40879  -0.446  11.811   6.741  0.0816 -0.7450  1.7214
  303MOL0     H40880  -0.521  11.655   6.679  0.1657 -1.8976 -0.5413
  303MOL0     H40881  -0.233  11.747   6.623 -0.8374  0.0330  1.2553
  303MOL0     H40882  -0.300  11.613   6.559 -0.2552  0.8363 -0.8062
  303MOL0     H40883  -0.449  11.876   6.522  0.6068  0.6401 -2.2933
  303MOL0     H40884  -0.476  11.718   6.441  0.0627 -0.7738  1.8635
  303MOL0     H40885  -0.271  11.741   6.322  0.1873  0.6521 -0.4530
  303MOL0     H40886  -0.234  11.896   6.422  0.7399 -0.9592  0.4867
  303MOL0     H40887   0.057  11.569   7.049  1.5231  0.0743 -0.4949
  303MOL0     H40888   0.279  11.568   7.096 -1.4153  0.0507 -1.5415
  303MOL0     H40889   0.601  11.185   7.216 -1.7977 -2.5859  3.2266
  303MOL0     H40890   0.820  11.100   7.261 -1.5413 -1.9039  1.1298
  303MOL0     H40891   1.945   9.503   7.236 -1.9136 -1.4343  4.2150
  303MOL0     H40892   2.194   9.433   7.198  2.2423  0.1999  0.8062
  303MOL0     H40893   2.527   9.355   7.202  0.3935  1.7927 -0.9493
  303MOL0     H40894   2.737   9.210   7.154 -0.0454 -1.8705  1.4322
  303MOL0     H40895   3.108   9.408   7.131  3.2414 -1.7247 -2.6980
  303MOL0     H40896   3.111   9.376   7.312  0.4122  0.1586 -0.5399
  303MOL0     H40897   3.166   9.165   7.102 -1.5893 -2.1778  1.9538
  303MOL0     H40898   3.204   9.166   7.274 -0.7439  0.4136  0.2567
  303MOL0     H40899   3.372   9.315   7.257  0.9611 -0.6732 -0.0493
  303MOL0     H40900   3.360   9.341   7.087 -1.0642 -0.9443 -0.4609
  303MOL0     H40901   3.381   9.079   7.078  0.6250 -0.1366  0.7867
  303MOL0     H40902   3.461   9.105   7.233 -0.2515 -1.1842 -0.2946
  303MOL0     H40903   3.759   9.195   6.950  0.2352  1.3474  0.4116
  303MOL0     H40904   2.946   9.480   7.404 -0.5137 -0.1186  0.1184
  303MOL0     H40905   2.772   9.610   7.449 -1.1937 -0.5935  1.0215
  304MOL0     O40906   0.229   1.347   0.047 -0.5569 -0.1772 -0.6259
  304MOL0     C40907   0.225   1.377  -0.076 -0.1075  0.7451  0.5502
  304MOL0     O40908   0.123   1.356  -0.163 -0.8322  0.1553 -0.6748
  304MOL0     C40909  -0.001   1.310  -0.121 -0.2990  0.1025  0.1376
  304MOL0     C40910  -0.054   1.188  -0.173  0.1406 -0.8067 -1.1979
  304MOL0     C40911  -0.177   1.148  -0.127  1.1943 -0.5951 -0.0841
  304MOL0     C40912  -0.259   1.230  -0.047 -0.3294 -1.4190 -0.1370
  304MOL0     O40913  -0.384   1.191  -0.017  0.4983 -0.7986  0.1488
  304MOL0     C40914  -0.477   1.267   0.068  0.2183  0.2434  0.3833
  304MOL0     C40915  -0.599   1.180   0.089 -0.2434 -0.3634  0.7260
  304MOL0     C40916  -0.694   1.263   0.181  0.4884 -0.0162 -0.7381
  304MOL0     C40917  -0.830   1.186   0.203 -0.9086  0.1006  0.5308
  304MOL0     C40918  -0.924   1.269   0.273 -0.9347  0.4191 -0.8924
  304MOL0     C40919  -1.039   1.186   0.295 -1.1922 -0.4949  0.1570
  304MOL0     C40920  -1.142   1.262   0.377  0.3130  0.1825  0.2836
  304MOL0     C40921  -1.271   1.310   0.279 -0.1079 -0.0979 -0.1850
  304MOL0     N40922  -1.341   1.422   0.346  0.0520 -0.5928  0.5261
  304MOL0     C40923  -1.461   1.432   0.419  0.3248  0.2730 -0.2147
  304MOL0     C40924  -1.484   1.565   0.447 -0.0320 -0.6363  0.6621
  304MOL0     C40925  -1.611   1.621   0.507  0.0279 -0.4172  0.0695
  304MOL0     C40926  -1.659   1.762   0.453 -0.2469 -0.4093  0.0061
  304MOL0     C40927  -1.739   1.752   0.318  0.1733  0.0082  0.7540
  304MOL0     C40928  -1.875   1.678   0.310 -0.3157  0.0470 -1.0853
  304MOL0     O40929  -1.972   1.736   0.234  1.0118 -0.2712 -0.3243
  304MOL0     C40930  -2.105   1.698   0.260 -1.1175 -0.3333 -0.6624
  304MOL0     C40931  -2.208   1.777   0.234  0.1721  0.5288 -0.7494
  304MOL0     C40932  -2.335   1.742   0.260 -0.6501  0.9280 -0.1640
  304MOL0     C40933  -2.444   1.840   0.220 -0.2354  0.4426 -0.4892
  304MOL0     C40934  -2.369   1.618   0.302  0.9154  0.2498 -0.0508
  304MOL0     C40935  -2.507   1.568   0.326 -0.0496  0.5856  0.2400
  304MOL0     O40936  -2.511   1.432   0.355 -0.4391 -0.0997  0.0325
  304MOL0     C40937  -2.634   1.366   0.375 -0.1601 -0.1032 -0.0700
  304MOL0     C40938  -2.606   1.237   0.417  0.5405  0.6377 -0.9064
  304MOL0     C40939  -2.724   1.144   0.432 -0.2487 -0.5261 -0.2679
  304MOL0     C40940  -2.857   1.194   0.415  0.5723 -0.1510  0.1719
  304MOL0     O40941  -2.971   1.113   0.423 -0.2444 -0.6857  0.1927
  304MOL0     C40942  -3.075   1.173   0.504  0.0696  0.0840 -0.1525
  304MOL0     C40943  -3.167   1.051   0.538 -0.2529  0.1597 -0.5723
  304MOL0     C40944  -3.277   1.070   0.645 -0.3137  0.3661  0.4381
  304MOL0     C40945  -3.352   0.927   0.648  0.5532 -0.3607 -0.3639
  304MOL0     C40946  -3.473   0.936   0.748  0.1722  0.0421  0.1224
  304MOL0     C40947  -3.540   0.798   0.773 -0.5705 -0.3219 -0.3253
  304MOL0     C40948  -3.636   0.753   0.657 -0.6279  0.4758  0.4481
  304MOL0     C40949  -3.731   0.848   0.607  0.3210  0.3665 -0.0146
  304MOL0    Cl40950  -3.855   0.907   0.718 -0.2069  0.4531 -0.0022
  304MOL0     C40951  -2.873   1.324   0.364 -0.3694  0.7195 -0.6851
  304MOL0     C40952  -2.765   1.407   0.346 -0.0812  0.3788 -0.1395
  304MOL0     O40953  -2.604   1.642   0.329 -0.0125  0.5171  0.0950
  304MOL0     C40954  -2.263   1.538   0.334 -0.3745  0.1070 -0.9460
  304MOL0     C40955  -2.133   1.578   0.314  0.4555 -0.0659  0.0036
  304MOL0     N40956  -1.371   1.639   0.402  0.2274 -0.5412  0.1809
  304MOL0     N40957  -1.296   1.556   0.342  0.6244  0.3116  0.4053
  304MOL0     C40958  -0.212   1.359  -0.017 -0.4110 -0.3923 -0.0424
  304MOL0     C40959  -0.078   1.394  -0.052 -1.0210  0.0409  0.6027
  304MOL0     C40960   0.358   1.418  -0.131  0.2082  0.7045 -0.6876
  304MOL0     C40961   0.461   1.457  -0.051 -0.1278  1.2036 -1.1022
  304MOL0     C40962   0.589   1.485  -0.105 -0.3131  0.1017  0.1498
  304MOL0     C40963   0.612   1.491  -0.244  0.5223  0.4402  0.3777
  304MOL0     O40964   0.719   1.536  -0.319  0.5358  0.5366  0.2138
  304MOL0     C40965   0.831   1.597  -0.248 -0.0261  0.0404  0.1993
  304MOL0     C40966   0.926   1.492  -0.188  0.2468  0.8844  0.2546
  304MOL0     C40967   0.970   1.391  -0.292 -0.4559 -0.0888  0.7792
  304MOL0     C40968   1.059   1.280  -0.232  0.4958  0.0666  0.3960
  304MOL0     C40969   1.187   1.335  -0.183  0.6082 -0.0304 -0.6138
  304MOL0     C40970   1.295   1.386  -0.160  0.3524 -0.3026  0.5522
  304MOL0     C40971   0.501   1.436  -0.315 -0.3234 -1.0368  1.0196
  304MOL0     C40972   0.373   1.412  -0.270  0.7624  0.5651 -0.0902
  304MOL0     H40973   0.005   1.119  -0.232  0.2314 -1.0064 -0.8727
  304MOL0     H40974  -0.228   1.063  -0.170 -2.2560  0.2981  1.8959
  304MOL0     H40975  -0.426   1.294   0.162 -0.3642 -1.1196  1.1236
  304MOL0     H40976  -0.502   1.358   0.012 -2.5313 -1.3628 -1.2207
  304MOL0     H40977  -0.644   1.154  -0.007  0.1214  0.0141  0.4503
  304MOL0     H40978  -0.579   1.088   0.145 -0.8885 -0.5818  0.6031
  304MOL0     H40979  -0.640   1.273   0.276 -0.6631  1.1653 -0.1781
  304MOL0     H40980  -0.707   1.364   0.141  2.0768  2.4778  4.1388
  304MOL0     H40981  -0.874   1.159   0.106  1.2310 -1.3552 -0.1064
  304MOL0     H40982  -0.810   1.086   0.243 -0.2980 -1.9066 -4.1386
  304MOL0     H40983  -0.879   1.289   0.371 -0.0658 -1.4629 -0.8648
  304MOL0     H40984  -0.954   1.366   0.231  0.6113  2.4700  2.3119
  304MOL0     H40985  -1.079   1.140   0.203 -0.1393 -3.0141  0.8730
  304MOL0     H40986  -1.002   1.107   0.361  0.1892  0.8141  0.9905
  304MOL0     H40987  -1.185   1.205   0.459 -1.6694 -0.2924 -1.0275
  304MOL0     H40988  -1.093   1.345   0.430 -1.2594  0.9236  0.6463
  304MOL0     H40989  -1.346   1.232   0.263  2.3303 -2.1873 -2.4531
  304MOL0     H40990  -1.235   1.345   0.182  2.0103  1.3580  1.0368
  304MOL0     H40991  -1.517   1.341   0.437  2.0797 -1.1682 -1.7744
  304MOL0     H40992  -1.689   1.546   0.491 -2.0631  1.4409  1.0956
  304MOL0     H40993  -1.595   1.630   0.614  0.2303 -1.1565  0.1118
  304MOL0     H40994  -1.576   1.831   0.438 -0.4665  0.0714  0.9465
  304MOL0     H40995  -1.716   1.815   0.529  0.2392  1.1256 -0.6507
  304MOL0     H40996  -1.684   1.738   0.224  0.9557 -1.0408  1.3501
  304MOL0     H40997  -1.783   1.852   0.316  2.9482  1.3426 -1.3943
  304MOL0     H40998  -1.919   1.676   0.410 -1.7220 -0.0736 -1.6819
  304MOL0     H40999  -1.868   1.578   0.266  0.2535  0.1874 -1.3218
  304MOL0     H41000  -2.204   1.878   0.193 -2.9877  0.1000 -2.3948
  304MOL0     H41001  -2.501   1.882   0.304 -0.9052 -0.2553 -0.5869
  304MOL0     H41002  -2.400   1.923   0.164  0.0496  1.5621  1.2939
  304MOL0     H41003  -2.513   1.788   0.153 -1.7138 -0.9710  1.9581
  304MOL0     H41004  -2.508   1.198   0.441  0.6683  1.4644 -0.0564
  304MOL0     H41005  -2.708   1.044   0.472  2.6982 -0.2070 -0.4053
  304MOL0     H41006  -3.044   1.227   0.594 -1.6953  2.2656 -0.7367
  304MOL0     H41007  -3.128   1.257   0.456 -2.9115 -0.7776  1.3975
  304MOL0     H41008  -3.217   1.016   0.447 -3.1368  0.7612  0.6839
  304MOL0     H41009  -3.113   0.964   0.577 -2.5941 -0.9383  0.3822
  304MOL0     H41010  -3.352   1.141   0.611 -1.7248 -0.3253  1.9862
  304MOL0     H41011  -3.241   1.085   0.747  1.0108 -1.5997  0.3263
  304MOL0     H41012  -3.382   0.884   0.552  1.4013 -0.2737 -0.6788
  304MOL0     H41013  -3.284   0.850   0.686 -0.4100  0.1420  2.6172
  304MOL0     H41014  -3.548   1.001   0.702 -1.7482  0.6034  3.6784
  304MOL0     H41015  -3.430   0.985   0.836  0.0269 -0.2883  0.3794
  304MOL0     H41016  -3.464   0.724   0.800 -0.4508  0.6846  2.3347
  304MOL0     H41017  -3.608   0.823   0.855 -0.7010 -0.8721 -0.2614
  304MOL0     H41018  -3.690   0.661   0.683  0.4672 -1.2944 -2.8912
  304MOL0     H41019  -3.561   0.720   0.585  1.4422  1.6446  1.9311
  304MOL0     H41020  -3.780   0.799   0.522  4.2609 -3.1869 -0.6321
  304MOL0     H41021  -3.682   0.940   0.576 -1.9072  1.2324 -1.1188
  304MOL0     H41022  -2.975   1.358   0.348 -1.0233 -0.8809 -0.1588
  304MOL0     H41023  -2.777   1.509   0.308  3.8289  1.0988  0.1665
  304MOL0     H41024  -2.262   1.436   0.372  1.7779 -0.2056 -1.7409
  304MOL0     H41025  -2.058   1.504   0.337 -1.1150 -2.0568 -1.0457
  304MOL0     H41026  -0.260   1.426   0.053  0.6734  1.4014 -0.9680
  304MOL0     H41027  -0.045   1.495  -0.030 -0.7293 -0.1316  0.9646
  304MOL0     H41028   0.442   1.466   0.055 -1.7751  2.6069 -1.4800
  304MOL0     H41029   0.664   1.520  -0.034 -1.0376  0.6318  0.6748
  304MOL0     H41030   0.887   1.655  -0.322  0.7656 -0.4316  0.4157
  304MOL0     H41031   0.795   1.661  -0.167 -1.3777 -1.4248  0.7982
  304MOL0     H41032   0.874   1.440  -0.107  1.8155  0.4620  1.0484
  304MOL0     H41033   1.016   1.542  -0.150  0.4711  1.9623 -1.5892
  304MOL0     H41034   1.009   1.426  -0.388 -0.8441  2.5317  1.4768
  304MOL0     H41035   0.880   1.335  -0.319 -0.0146  0.0899 -1.1725
  304MOL0     H41036   1.083   1.208  -0.311 -2.6317  0.8386 -1.4376
  304MOL0     H41037   1.005   1.225  -0.154 -0.7699  1.4237  0.5279
  304MOL0     H41038   1.395   1.422  -0.149  0.3251  0.1911 -0.6574
  304MOL0     H41039   0.518   1.427  -0.421 -0.9096  0.0529  0.8217
  304MOL0     H41040   0.287   1.381  -0.327  0.7102 -0.3521  0.4783
  305MOL0     O41041   8.008   7.794   2.619  0.1303  0.0086 -0.1169
  305MOL0     C41042   7.961   7.737   2.522  0.0893  0.4190  0.0702
  305MOL0     O41043   8.030   7.683   2.416  0.8228  0.0743 -0.1779
  305MOL0     C41044   8.173   7.702   2.408  0.7007 -0.1042 -0.4592
  305MOL0     C41045   8.232   7.719   2.286 -0.2531  0.2158  0.8691
  305MOL0     C41046   8.359   7.763   2.271 -0.0656  0.2454  0.5643
  305MOL0     C41047   8.440   7.766   2.379  0.5940 -0.1900 -0.0047
  305MOL0     O41048   8.571   7.816   2.365  0.4191 -0.0254 -0.1834
  305MOL0     C41049   8.657   7.783   2.252  0.3367  0.3756 -0.1472
  305MOL0     C41050   8.805   7.781   2.308 -0.6713 -0.5775 -0.3303
  305MOL0     C41051   8.912   7.747   2.204  0.0318  0.8664 -0.4305
  305MOL0     C41052   9.041   7.710   2.282 -0.1316  0.4574 -0.3993
  305MOL0     C41053   9.142   7.647   2.180 -0.7210  0.7703  0.6248
  305MOL0     C41054   9.259   7.563   2.248 -0.2519 -0.7959  0.3546
  305MOL0     C41055   9.362   7.650   2.323  0.3355 -0.3988 -0.0821
  305MOL0     C41056   9.468   7.569   2.389 -1.0055  0.5504  0.4075
  305MOL0     N41057   9.568   7.661   2.447 -0.4634 -0.6722 -0.2799
  305MOL0     C41058   9.700   7.627   2.456 -0.0268 -0.4696 -0.1009
  305MOL0     C41059   9.761   7.715   2.532  0.3554 -0.3578  0.4745
  305MOL0     C41060   9.908   7.746   2.544 -0.4651 -0.2373  0.5520
  305MOL0     C41061  10.006   7.631   2.520 -0.4490  0.7662 -0.4863
  305MOL0     C41062   9.993   7.494   2.589  0.4206  0.1359 -0.5160
  305MOL0     C41063  10.013   7.501   2.737  0.3849  0.4890  0.6079
  305MOL0     O41064   9.894   7.565   2.789 -0.1292  0.0987  0.1085
  305MOL0     C41065   9.873   7.582   2.924 -0.0864  0.3359 -0.2181
  305MOL0     C41066   9.762   7.662   2.966 -0.4192  0.6272  0.2695
  305MOL0     C41067   9.726   7.694   3.097 -0.4791 -0.2663  0.6481
  305MOL0     C41068   9.582   7.748   3.124 -0.1151 -0.5381 -0.0902
  305MOL0     C41069   9.812   7.646   3.197  0.4878  0.8846  0.0298
  305MOL0     C41070   9.792   7.672   3.346  0.0693 -0.4251  0.6345
  305MOL0     O41071   9.843   7.576   3.438 -0.1944  0.1683  0.3007
  305MOL0     C41072   9.848   7.609   3.565  0.5768 -0.4003 -0.8009
  305MOL0     C41073   9.972   7.613   3.634 -0.1517 -0.9511 -0.4947
  305MOL0     C41074   9.973   7.633   3.775 -0.0657 -0.1767 -0.4545
  305MOL0     C41075   9.858   7.650   3.845  0.4861  0.5881  0.4907
  305MOL0     O41076   9.872   7.682   3.974  0.5054 -0.1694 -0.5265
  305MOL0     C41077   9.772   7.640   4.072  0.2562  0.4634 -0.3743
  305MOL0     C41078   9.682   7.745   4.133 -0.2460  0.0359 -0.0606
  305MOL0     C41079   9.603   7.703   4.255  0.4202 -0.4554  0.4914
  305MOL0     C41080   9.510   7.818   4.297  0.8870 -0.5323  0.6331
  305MOL0     C41081   9.579   7.910   4.392 -0.2677 -0.2088  0.5517
  305MOL0     C41082   9.468   8.015   4.416 -0.5757  0.9877  0.2012
  305MOL0     C41083   9.491   8.116   4.529  0.2447  0.7378  0.1599
  305MOL0     C41084   9.359   8.182   4.575 -0.1703  0.2424 -0.4378
  305MOL0    Cl41085   9.254   8.066   4.675  0.1007  0.3034 -0.2033
  305MOL0     C41086   9.731   7.637   3.778  0.1337 -0.1001  0.6599
  305MOL0     C41087   9.727   7.626   3.636 -0.6927  0.1034 -0.4553
  305MOL0     O41088   9.733   7.776   3.383  0.9097  0.8491  0.7370
  305MOL0     C41089   9.930   7.570   3.160 -0.0822 -0.7271 -0.5431
  305MOL0     C41090   9.954   7.547   3.025 -1.2127  0.1797 -0.2244
  305MOL0     N41091   9.659   7.811   2.564  0.3543 -0.2623 -1.3044
  305MOL0     N41092   9.545   7.784   2.511 -0.2061  0.4012 -0.4633
  305MOL0     C41093   8.388   7.723   2.505 -0.3005 -0.4249  0.2360
  305MOL0     C41094   8.253   7.689   2.518 -0.4357  0.4699  0.2344
  305MOL0     C41095   7.809   7.726   2.526  0.5982 -0.0866  1.0168
  305MOL0     C41096   7.723   7.728   2.639 -0.4122 -0.3003  0.2852
  305MOL0     C41097   7.585   7.725   2.618 -0.9379 -0.4127 -0.1544
  305MOL0     C41098   7.524   7.725   2.490  0.5054  0.8304 -0.0497
  305MOL0     O41099   7.384   7.722   2.496 -0.1597 -0.2195 -0.2655
  305MOL0     C41100   7.305   7.702   2.383 -0.0334  0.6063  0.1394
  305MOL0     C41101   7.151   7.720   2.423 -1.0084 -0.5129  0.0966
  305MOL0     C41102   7.128   7.875   2.467 -0.9863 -0.0343 -1.0035
  305MOL0     C41103   6.983   7.908   2.471  0.0384 -0.7588 -0.3139
  305MOL0     C41104   6.924   7.926   2.336 -0.2413  0.1327  0.1762
  305MOL0     C41105   6.877   7.930   2.219 -0.9081  0.0736  0.4359
  305MOL0     C41106   7.608   7.721   2.377  0.5051 -1.1760 -0.2715
  305MOL0     C41107   7.751   7.724   2.398  0.6039 -0.1141  0.2965
  305MOL0     H41108   8.159   7.720   2.206 -0.6985 -1.1547  1.2284
  305MOL0     H41109   8.398   7.802   2.178 -0.2531 -1.8681 -0.4779
  305MOL0     H41110   8.615   7.693   2.206  1.2853 -0.8224  1.2527
  305MOL0     H41111   8.644   7.866   2.183  1.4505  2.5438  2.1019
  305MOL0     H41112   8.822   7.881   2.349  2.1664 -1.8191  1.8124
  305MOL0     H41113   8.811   7.722   2.400 -0.7998  2.2495  1.6481
  305MOL0     H41114   8.871   7.674   2.134 -3.9318  2.1085  0.3428
  305MOL0     H41115   8.929   7.835   2.141 -1.1406  1.5056  0.1199
  305MOL0     H41116   9.085   7.795   2.335  0.7426  1.1788 -2.2100
  305MOL0     H41117   9.009   7.636   2.357  0.3338 -0.5522 -1.1700
  305MOL0     H41118   9.082   7.582   2.116 -0.4166  1.8404 -0.7863
  305MOL0     H41119   9.189   7.724   2.118 -0.4231  0.6546  0.7070
  305MOL0     H41120   9.207   7.487   2.307 -1.3881 -2.3578 -2.4655
  305MOL0     H41121   9.319   7.510   2.173  5.0249  0.4388  3.1859
  305MOL0     H41122   9.402   7.721   2.251 -2.0796  0.5032 -0.6463
  305MOL0     H41123   9.312   7.707   2.401  1.1334 -0.9955  0.8757
  305MOL0     H41124   9.513   7.502   2.316 -0.6151  0.2806  0.8913
  305MOL0     H41125   9.424   7.517   2.475  2.2951  1.1312  2.6289
  305MOL0     H41126   9.751   7.554   2.394 -1.7790  0.6824 -3.1087
  305MOL0     H41127   9.944   7.826   2.480 -2.0105 -0.7042 -0.9988
  305MOL0     H41128   9.920   7.773   2.650  1.0555  2.1346 -0.1694
  305MOL0     H41129  10.110   7.663   2.537  0.5120 -2.9991  2.1026
  305MOL0     H41130  10.018   7.609   2.414  2.3141 -0.5881  0.0146
  305MOL0     H41131  10.057   7.414   2.551 -0.6569 -0.1331 -1.8634
  305MOL0     H41132   9.892   7.465   2.560 -1.1712  3.8665  0.7243
  305MOL0     H41133  10.105   7.558   2.757  1.8539  0.0858 -3.7253
  305MOL0     H41134  10.021   7.403   2.783  0.8997  0.7585  1.1027
  305MOL0     H41135   9.706   7.698   2.880 -0.8719 -0.1238  0.2511
  305MOL0     H41136   9.533   7.776   3.030 -2.2090  0.6930  1.2972
  305MOL0     H41137   9.512   7.680   3.172 -2.0005  0.4640 -1.2858
  305MOL0     H41138   9.600   7.836   3.187 -0.8270 -1.9079  2.1102
  305MOL0     H41139  10.068   7.600   3.584  0.3103  0.9682 -0.2190
  305MOL0     H41140  10.064   7.636   3.834  1.5894 -1.9956 -2.7029
  305MOL0     H41141   9.709   7.560   4.032 -0.3083  1.3186 -1.2286
  305MOL0     H41142   9.828   7.598   4.157 -1.0203  1.5414  1.0493
  305MOL0     H41143   9.751   7.827   4.157  1.3124 -0.6487 -1.8621
  305MOL0     H41144   9.614   7.780   4.054  0.2672 -1.6632 -1.3219
  305MOL0     H41145   9.673   7.679   4.335 -0.0127 -2.8894  0.2017
  305MOL0     H41146   9.538   7.617   4.239  0.1760 -0.8561  3.1455
  305MOL0     H41147   9.473   7.865   4.206  1.9086  0.7509  0.8391
  305MOL0     H41148   9.433   7.764   4.352 -0.7517  0.5279 -0.5473
  305MOL0     H41149   9.657   7.970   4.346 -3.1956  2.9509 -0.6985
  305MOL0     H41150   9.613   7.870   4.488  2.9851  3.4892  1.1908
  305MOL0     H41151   9.450   8.074   4.325  1.8004  1.3842 -0.0650
  305MOL0     H41152   9.379   7.952   4.431 -0.7132  0.8498 -1.0590
  305MOL0     H41153   9.557   8.200   4.504  1.5224 -0.2575  0.0594
  305MOL0     H41154   9.532   8.059   4.613 -2.1491  0.2710  1.0939
  305MOL0     H41155   9.297   8.219   4.493 -2.1985 -2.8638 -0.4561
  305MOL0     H41156   9.391   8.270   4.633 -2.7043  1.5940 -0.9524
  305MOL0     H41157   9.636   7.645   3.829  1.0018  0.6090  2.2539
  305MOL0     H41158   9.638   7.598   3.581 -2.0792  0.5695  1.4122
  305MOL0     H41159   9.999   7.536   3.236 -0.6733  1.8278  1.2390
  305MOL0     H41160  10.055   7.519   2.997 -1.2020 -0.9528  0.8089
  305MOL0     H41161   8.471   7.718   2.575  1.0929  0.0220 -1.3178
  305MOL0     H41162   8.217   7.635   2.604  1.6527 -1.6409 -0.1208
  305MOL0     H41163   7.753   7.726   2.743 -0.2608  2.7335  0.3895
  305MOL0     H41164   7.519   7.722   2.704 -1.0653  0.4296 -0.2132
  305MOL0     H41165   7.321   7.778   2.306 -0.8173  1.8945  1.2276
  305MOL0     H41166   7.329   7.598   2.359 -1.2526 -0.1746  2.0664
  305MOL0     H41167   7.130   7.661   2.512 -0.0545  1.8160  2.0067
  305MOL0     H41168   7.088   7.686   2.340  2.3392 -2.8982 -1.7094
  305MOL0     H41169   7.191   7.930   2.396  2.0822 -3.2551 -1.0755
  305MOL0     H41170   7.171   7.886   2.567  0.7114  0.9732 -1.8083
  305MOL0     H41171   6.984   8.008   2.515  0.5837 -0.3512 -1.2236
  305MOL0     H41172   6.926   7.835   2.529 -1.2290 -2.0861 -3.0475
  305MOL0     H41173   6.822   7.925   2.127 -1.0921  2.6067  0.3406
  305MOL0     H41174   7.563   7.721   2.279 -0.1687 -3.5723 -0.0055
  305MOL0     H41175   7.816   7.734   2.312 -2.2636  1.1689 -1.8875
  306MOL0     O41176   5.112   0.426  11.313  0.0362  0.5262 -0.6698
  306MOL0     C41177   5.084   0.460  11.431 -0.3422  0.4962  0.4501
  306MOL0     O41178   4.969   0.519  11.466 -0.0004 -0.3325 -0.3511
  306MOL0     C41179   4.865   0.526  11.373  0.0303 -0.6040 -0.2907
  306MOL0     C41180   4.740   0.566  11.428 -0.5396 -0.8524 -0.2109
  306MOL0     C41181   4.619   0.583  11.357  0.5945  0.1214  0.4969
  306MOL0     C41182   4.623   0.541  11.220 -0.1010 -0.2950 -0.0032
  306MOL0     O41183   4.504   0.525  11.147  0.0666  0.1095 -1.0100
  306MOL0     C41184   4.505   0.587  11.015  0.6815 -0.0208 -0.0461
  306MOL0     C41185   4.373   0.667  10.993 -0.2546 -0.0096 -0.0571
  306MOL0     C41186   4.254   0.575  11.014  0.5288  0.0573 -0.3161
  306MOL0     C41187   4.130   0.639  10.962  0.3602  0.3391  0.2547
  306MOL0     C41188   4.025   0.529  10.929  0.8927  0.2211  0.0902
  306MOL0     C41189   3.892   0.595  10.877 -0.1138  0.0782  0.5086
  306MOL0     C41190   3.787   0.501  10.815 -0.6205  0.0013 -0.2061
  306MOL0     C41191   3.748   0.399  10.917  0.4191 -0.2081  0.0969
  306MOL0     N41192   3.635   0.319  10.866 -0.2170 -0.5673 -0.4344
  306MOL0     C41193   3.505   0.357  10.868  0.1052 -0.5840  1.0473
  306MOL0     C41194   3.426   0.250  10.838 -0.7500 -0.4649 -0.2293
  306MOL0     C41195   3.270   0.225  10.850 -0.1504  0.0036 -0.8329
  306MOL0     C41196   3.219   0.117  10.756  0.0464 -0.3003 -0.3371
  306MOL0     C41197   3.209  -0.015  10.832 -0.3111  0.7998  0.2088
  306MOL0     C41198   3.169  -0.136  10.751 -0.0977 -0.2960  0.2179
  306MOL0     O41199   3.029  -0.116  10.711  0.2154 -0.1252 -0.5886
  306MOL0     C41200   2.954  -0.225  10.669 -0.3664 -0.0641  0.3304
  306MOL0     C41201   3.023  -0.335  10.623  0.0620  0.1252 -0.7242
  306MOL0     C41202   2.958  -0.444  10.566 -0.6076 -0.6597 -0.0578
  306MOL0     C41203   3.044  -0.568  10.550 -0.3426  0.3779 -0.0243
  306MOL0     C41204   2.814  -0.444  10.554 -1.3078  0.3384  0.4897
  306MOL0     C41205   2.731  -0.559  10.510 -0.3761 -0.1420  0.5933
  306MOL0     O41206   2.783  -0.682  10.530 -0.2516  0.2933 -0.3262
  306MOL0     C41207   2.707  -0.786  10.488 -0.6619  0.2373  0.3948
  306MOL0     C41208   2.710  -0.818  10.347  0.7309 -0.4070  0.0828
  306MOL0     C41209   2.620  -0.909  10.296  0.5869  0.1672 -0.2504
  306MOL0     C41210   2.527  -0.978  10.377 -0.9503 -0.0672 -0.5387
  306MOL0     O41211   2.440  -1.075  10.319  0.9097  0.2573  0.1647
  306MOL0     C41212   2.377  -1.040  10.192  0.5597  0.3685 -0.4650
  306MOL0     C41213   2.265  -1.138  10.168 -0.4186  0.8759  0.5283
  306MOL0     C41214   2.216  -1.154  10.032 -0.8938 -0.3776 -0.8089
  306MOL0     C41215   2.119  -1.273  10.012  0.3275 -0.2647  0.2792
  306MOL0     C41216   1.984  -1.271  10.080 -0.7177 -0.6905 -0.4636
  306MOL0     C41217   1.909  -1.402  10.053 -0.9204 -0.5849 -0.1857
  306MOL0     C41218   1.767  -1.406  10.107  0.5831  0.1094  0.5303
  306MOL0     C41219   1.699  -1.526  10.042 -0.3806 -0.5928  0.6674
  306MOL0    Cl41220   1.558  -1.578  10.114  0.3710 -0.6744  0.1625
  306MOL0     C41221   2.528  -0.951  10.517 -0.8610 -0.4054  0.8617
  306MOL0     C41222   2.619  -0.861  10.569 -0.4015  1.1364 -0.4477
  306MOL0     O41223   2.625  -0.533  10.457  0.1512  0.4150  0.2280
  306MOL0     C41224   2.750  -0.324  10.579 -0.3300 -0.2838 -0.2928
  306MOL0     C41225   2.822  -0.213  10.637 -0.2803 -0.6629 -0.5707
  306MOL0     N41226   3.511   0.142  10.823  0.4686 -0.2200 -0.0556
  306MOL0     N41227   3.628   0.184  10.854 -0.4346  0.4863  0.4062
  306MOL0     C41228   4.743   0.511  11.160  0.2390 -0.3292  0.2168
  306MOL0     C41229   4.852   0.495  11.238  0.6679  0.3486 -0.1193
  306MOL0     C41230   5.189   0.447  11.535 -0.0966  0.0525 -0.3531
  306MOL0     C41231   5.307   0.387  11.510  0.0393  0.5122  0.1766
  306MOL0     C41232   5.418   0.408  11.598  0.5221  0.0837  0.0075
  306MOL0     C41233   5.399   0.474  11.720 -0.1111 -0.3754  0.4977
  306MOL0     O41234   5.511   0.474  11.802 -0.2256 -0.4429  0.0985
  306MOL0     C41235   5.520   0.570  11.908 -0.3021 -0.0583  0.3290
  306MOL0     C41236   5.565   0.710  11.855 -1.0743 -0.2382  0.0790
  306MOL0     C41237   5.711   0.707  11.805  0.4402  1.1024 -0.1634
  306MOL0     C41238   5.811   0.687  11.918 -0.1448 -0.9188 -0.0181
  306MOL0     C41239   5.866   0.802  11.988 -0.3075 -1.2876  0.0074
  306MOL0     C41240   5.908   0.894  12.056  0.4445  0.1447 -0.3349
  306MOL0     C41241   5.273   0.521  11.748 -0.4003  0.9544  0.2550
  306MOL0     C41242   5.167   0.512  11.659 -0.5619  0.3997  1.0862
  306MOL0     H41243   4.731   0.595  11.532 -2.2519 -1.7991 -0.0602
  306MOL0     H41244   4.533   0.624  11.408  0.2986  0.4300 -0.2371
  306MOL0     H41245   4.586   0.657  10.992  2.3236 -2.3740 -1.9401
  306MOL0     H41246   4.510   0.514  10.934 -1.8714  2.9743 -3.1644
  306MOL0     H41247   4.360   0.759  11.050 -1.0313 -0.3331  0.3127
  306MOL0     H41248   4.370   0.708  10.892  0.8062  1.1643  0.3700
  306MOL0     H41249   4.271   0.474  10.976 -0.0688  0.3341 -1.3384
  306MOL0     H41250   4.247   0.557  11.122  2.2658 -0.7226 -0.3038
  306MOL0     H41251   4.089   0.706  11.039 -0.4832  1.2613 -0.9582
  306MOL0     H41252   4.147   0.706  10.877  0.4779  1.5154  1.1705
  306MOL0     H41253   4.057   0.461  10.850 -2.3304 -1.3004 -0.0704
  306MOL0     H41254   4.010   0.463  11.015  0.4784  0.0402 -0.1187
  306MOL0     H41255   3.849   0.655  10.958 -3.0423 -1.2898  0.0786
  306MOL0     H41256   3.923   0.665  10.799 -0.4718  2.0828  2.0929
  306MOL0     H41257   3.703   0.566  10.787  0.2470  1.5628  0.6820
  306MOL0     H41258   3.825   0.458  10.721 -2.4439 -1.7461 -0.2058
  306MOL0     H41259   3.722   0.438  11.016 -0.5983 -1.3215  0.2887
  306MOL0     H41260   3.838   0.338  10.928  0.7163  0.1056 -0.5048
  306MOL0     H41261   3.486   0.462  10.887  3.4403  0.5175 -0.8707
  306MOL0     H41262   3.252   0.211  10.957 -1.6046  0.4922 -0.9924
  306MOL0     H41263   3.222   0.319  10.823 -0.8678  0.7134  2.4705
  306MOL0     H41264   3.288   0.104  10.671 -1.4067  0.5073 -1.6889
  306MOL0     H41265   3.123   0.138  10.709  1.0133 -1.3449 -2.9902
  306MOL0     H41266   3.139  -0.005  10.915  1.6986  0.6391  2.0082
  306MOL0     H41267   3.305  -0.037  10.879 -0.4590 -0.1541  0.0738
  306MOL0     H41268   3.181  -0.218  10.823  0.5533  0.5023  1.0364
  306MOL0     H41269   3.232  -0.147  10.662  1.5780 -0.2932  1.3543
  306MOL0     H41270   3.129  -0.343  10.644 -0.2598 -1.9178  0.3934
  306MOL0     H41271   3.022  -0.624  10.459 -0.2738 -2.5351  1.6519
  306MOL0     H41272   3.153  -0.556  10.556  0.3189 -3.8422 -0.3536
  306MOL0     H41273   3.008  -0.635  10.629 -0.2660 -2.0386 -1.9227
  306MOL0     H41274   2.782  -0.767  10.284 -1.9225  3.7395  0.0504
  306MOL0     H41275   2.617  -0.934  10.190 -1.4393 -2.1343  0.2622
  306MOL0     H41276   2.322  -0.951  10.224 -4.0251 -2.7775  1.6126
  306MOL0     H41277   2.448  -1.018  10.112  0.4128  1.7668 -0.2364
  306MOL0     H41278   2.303  -1.234  10.203  0.1260  1.2288  0.9130
  306MOL0     H41279   2.183  -1.109  10.234  0.7706  1.1800  1.9150
  306MOL0     H41280   2.302  -1.168   9.967  1.4366  0.4235  1.8867
  306MOL0     H41281   2.161  -1.063  10.006 -0.7713 -0.3132 -0.8424
  306MOL0     H41282   2.107  -1.280   9.903 -1.4284  1.5357  0.3130
  306MOL0     H41283   2.175  -1.361  10.045 -0.1332  0.2105  2.4969
  306MOL0     H41284   1.920  -1.187  10.052  0.9390  0.8989  0.2908
  306MOL0     H41285   2.017  -1.263  10.184  1.8988  1.3705 -1.3286
  306MOL0     H41286   1.915  -1.432   9.948 -2.0166  1.5769 -0.9277
  306MOL0     H41287   1.966  -1.480  10.105  0.9869  0.6009 -0.3984
  306MOL0     H41288   1.712  -1.313  10.094 -1.2858 -1.3880 -3.8340
  306MOL0     H41289   1.770  -1.428  10.215 -0.0400  2.5316  1.1006
  306MOL0     H41290   1.771  -1.608  10.035 -0.2107 -0.3966  0.0494
  306MOL0     H41291   1.671  -1.495   9.941 -1.1551  0.5809  1.2144
  306MOL0     H41292   2.457  -1.007  10.577 -1.7981 -1.1915 -0.9228
  306MOL0     H41293   2.629  -0.832  10.673  1.7152  2.0258 -0.8413
  306MOL0     H41294   2.645  -0.300  10.565 -0.2810 -0.0678 -0.2963
  306MOL0     H41295   2.773  -0.119  10.661 -0.1462 -1.1856  1.9692
  306MOL0     H41296   4.737   0.478  11.057 -0.3488  2.2431 -0.6613
  306MOL0     H41297   4.938   0.455  11.185  1.3107  0.8512  0.5113
  306MOL0     H41298   5.330   0.331  11.419  2.6506 -2.2188  2.3240
  306MOL0     H41299   5.520   0.385  11.570  0.3916 -0.6195  0.0757
  306MOL0     H41300   5.419   0.585  11.947 -0.1555 -0.5358  0.9144
  306MOL0     H41301   5.586   0.532  11.987  0.7381  1.6123  0.2988
  306MOL0     H41302   5.556   0.780  11.939 -1.2551  0.2830 -0.3716
  306MOL0     H41303   5.509   0.736  11.765  2.8414 -1.6208 -3.0541
  306MOL0     H41304   5.732   0.802  11.755  1.3233  0.1372 -1.7192
  306MOL0     H41305   5.735   0.629  11.732  2.2584  0.0754  1.4171
  306MOL0     H41306   5.898   0.637  11.874  0.7816  1.2082 -0.7422
  306MOL0     H41307   5.774   0.625  12.000  1.2168  0.9218  2.1001
  306MOL0     H41308   5.923   0.981  12.117 -2.3148  0.2742  0.2918
  306MOL0     H41309   5.244   0.560  11.845  0.0979 -3.5910  2.4981
  306MOL0     H41310   5.069   0.546  11.689 -2.4026 -1.6828 -2.0295
  307MOL0     O41311   7.580   4.498   6.113  0.5572  0.2855 -0.1818
  307MOL0     C41312   7.587   4.399   6.051 -0.8437  0.3326 -0.2844
  307MOL0     O41313   7.483   4.350   5.968  0.2125 -0.2304 -0.3040
  307MOL0     C41314   7.368   4.423   5.956 -0.6980 -0.1537 -0.5926
  307MOL0     C41315   7.345   4.482   5.837  0.0054 -0.0978  0.0723
  307MOL0     C41316   7.229   4.561   5.812  0.1062  0.0445 -0.1269
  307MOL0     C41317   7.138   4.570   5.914 -0.1118  0.3217 -0.7451
  307MOL0     O41318   7.025   4.646   5.888  0.4835  0.0131  0.0786
  307MOL0     C41319   6.893   4.591   5.900 -0.7818 -0.3657 -0.0789
  307MOL0     C41320   6.794   4.697   5.878 -0.3178 -0.3258 -0.0851
  307MOL0     C41321   6.649   4.643   5.877 -0.1258 -0.5471 -0.2476
  307MOL0     C41322   6.541   4.747   5.919 -0.6326  0.4457  0.1325
  307MOL0     C41323   6.479   4.821   5.793 -0.4468 -0.4296  0.1197
  307MOL0     C41324   6.369   4.907   5.850 -0.3381 -0.4348 -0.3738
  307MOL0     C41325   6.295   4.963   5.727  0.6889  0.2057 -0.0494
  307MOL0     C41326   6.209   5.088   5.760  0.5599  0.2017 -1.1200
  307MOL0     N41327   6.126   5.072   5.877 -0.5163  0.4164 -0.9376
  307MOL0     C41328   6.001   5.006   5.871 -0.2034  0.1525  0.1900
  307MOL0     C41329   5.959   5.016   6.000  0.2245 -0.4985 -0.5103
  307MOL0     C41330   5.832   4.946   6.052  0.4046 -0.3452  0.4026
  307MOL0     C41331   5.709   5.036   6.084 -0.2392  0.0861  0.2248
  307MOL0     C41332   5.608   5.038   5.968  0.1687 -0.5631  1.5310
  307MOL0     C41333   5.458   5.071   6.008  0.1067  0.1141 -0.8011
  307MOL0     O41334   5.396   5.015   6.126 -0.2783 -0.0978 -0.0350
  307MOL0     C41335   5.374   4.880   6.128 -0.0172 -0.1300 -0.0810
  307MOL0     C41336   5.389   4.831   6.255 -0.3326 -0.0481 -0.3653
  307MOL0     C41337   5.347   4.707   6.288  1.0869  0.7886  0.9836
  307MOL0     C41338   5.359   4.667   6.437 -0.5517 -0.6812 -0.7538
  307MOL0     C41339   5.307   4.616   6.184  0.5065 -0.1710 -0.4887
  307MOL0     C41340   5.280   4.468   6.206 -1.0174 -0.6203 -0.2914
  307MOL0     O41341   5.258   4.396   6.092 -0.1969 -0.2403 -0.3952
  307MOL0     C41342   5.192   4.277   6.094 -0.2328 -0.2387  1.0685
  307MOL0     C41343   5.087   4.236   6.177 -0.1275 -0.6145 -0.5192
  307MOL0     C41344   5.034   4.109   6.163  0.4235 -0.7748 -0.4466
  307MOL0     C41345   5.064   4.013   6.058 -0.1585 -0.7648 -0.3262
  307MOL0     O41346   5.006   3.893   6.065  0.7884  0.3285 -0.4375
  307MOL0     C41347   5.005   3.817   5.941 -0.5353 -0.9343 -0.0476
  307MOL0     C41348   4.931   3.887   5.823 -1.0329 -0.7076  0.4273
  307MOL0     C41349   4.787   3.942   5.844  0.5660  0.5195 -0.4218
  307MOL0     C41350   4.748   4.021   5.713 -0.0349  0.7426 -0.8712
  307MOL0     C41351   4.620   4.101   5.736 -0.3099  0.4540 -0.1869
  307MOL0     C41352   4.564   4.178   5.616 -0.9630 -0.1985  0.3475
  307MOL0     C41353   4.525   4.080   5.502 -0.1546  0.7066 -0.3428
  307MOL0     C41354   4.423   4.154   5.406  0.0687  0.1278  0.0240
  307MOL0    Cl41355   4.507   4.252   5.292  0.4108 -0.1068  0.0389
  307MOL0     C41356   5.173   4.062   5.978  0.4087  0.4210 -0.9463
  307MOL0     C41357   5.246   4.183   6.002  0.1284 -0.6200 -0.5634
  307MOL0     O41358   5.275   4.419   6.316  0.9426 -0.7060 -0.1376
  307MOL0     C41359   5.287   4.673   6.059 -0.1251 -0.4124 -0.1857
  307MOL0     C41360   5.318   4.802   6.030  0.2598 -0.4770 -0.3400
  307MOL0     N41361   6.054   5.082   6.085  0.5078  0.3378 -0.1028
  307MOL0     N41362   6.158   5.109   6.009 -0.0822  0.6890 -0.0776
  307MOL0     C41363   7.153   4.491   6.031 -0.2169 -0.1738  0.1923
  307MOL0     C41364   7.272   4.420   6.052 -0.4199 -0.0503 -0.0502
  307MOL0     C41365   7.715   4.326   6.056 -0.0864 -0.0601 -0.7832
  307MOL0     C41366   7.817   4.349   6.149  0.4318 -0.2386 -0.2763
  307MOL0     C41367   7.930   4.265   6.151 -1.0253 -0.8960 -0.0596
  307MOL0     C41368   7.961   4.173   6.053 -0.1097 -0.2729  0.6535
  307MOL0     O41369   8.063   4.088   6.042 -0.6020 -0.2318  0.9353
  307MOL0     C41370   8.166   4.106   6.139 -0.1327 -0.3227 -0.0884
  307MOL0     C41371   8.277   3.995   6.133 -0.9313  0.3211  0.4526
  307MOL0     C41372   8.334   4.008   5.987 -0.4675  0.4524 -0.2781
  307MOL0     C41373   8.455   3.919   5.967  0.5497  0.0629 -0.5478
  307MOL0     C41374   8.583   3.970   6.016  0.2526 -1.1305  0.7416
  307MOL0     C41375   8.684   4.003   6.060 -0.2612 -0.3116 -0.4999
  307MOL0     C41376   7.863   4.138   5.974  1.0159 -0.0248  0.1745
  307MOL0     C41377   7.740   4.215   5.976 -0.4153 -0.5831 -1.0697
  307MOL0     H41378   7.426   4.483   5.764  0.0071 -0.1584  0.0726
  307MOL0     H41379   7.219   4.620   5.721  0.3132  2.1058  1.1050
  307MOL0     H41380   6.876   4.513   5.825  1.1481 -1.7538  0.8445
  307MOL0     H41381   6.890   4.550   6.002  3.9375 -0.3641  0.2742
  307MOL0     H41382   6.808   4.779   5.949 -0.1063  0.6070 -1.1744
  307MOL0     H41383   6.806   4.728   5.773 -1.7829 -1.2803 -0.5691
  307MOL0     H41384   6.611   4.589   5.790  1.1302 -0.6510 -0.7458
  307MOL0     H41385   6.650   4.568   5.957 -0.1494  0.0206  0.2951
  307MOL0     H41386   6.457   4.700   5.972 -0.8291 -0.1948 -0.7180
  307MOL0     H41387   6.583   4.823   5.985 -0.1618  1.0817 -0.8932
  307MOL0     H41388   6.559   4.879   5.746  0.3206 -2.5661 -1.3763
  307MOL0     H41389   6.440   4.748   5.722 -1.4308 -0.3500  0.5591
  307MOL0     H41390   6.305   4.853   5.920  0.0501  0.6291  0.8468
  307MOL0     H41391   6.416   4.989   5.906  1.1080 -1.4528 -0.0599
  307MOL0     H41392   6.369   4.993   5.652  0.6365 -2.4071 -1.2446
  307MOL0     H41393   6.223   4.895   5.681 -0.4540  0.7262  0.9151
  307MOL0     H41394   6.144   5.127   5.681  1.3597  1.0382 -1.3732
  307MOL0     H41395   6.280   5.165   5.790  1.1051 -1.0035  0.8527
  307MOL0     H41396   5.948   4.965   5.786 -1.4298  1.6937  0.1459
  307MOL0     H41397   5.802   4.855   5.999 -2.4182  0.8970 -0.2940
  307MOL0     H41398   5.862   4.912   6.152  0.3908 -0.6279  0.3108
  307MOL0     H41399   5.732   5.139   6.114  0.8654 -0.5969  1.8217
  307MOL0     H41400   5.664   4.975   6.162 -0.5163 -0.0257 -0.0193
  307MOL0     H41401   5.610   4.951   5.903  1.0978  1.3502 -1.1605
  307MOL0     H41402   5.644   5.121   5.906  1.1406 -1.2740  1.1257
  307MOL0     H41403   5.385   5.049   5.929 -3.1598 -0.6196  2.2108
  307MOL0     H41404   5.439   5.179   6.003 -0.0904  0.0593 -1.4196
  307MOL0     H41405   5.422   4.896   6.336  1.2498 -2.2702  0.8704
  307MOL0     H41406   5.282   4.602   6.478  1.0743 -1.1711  1.7465
  307MOL0     H41407   5.454   4.614   6.451  0.2916  1.1578  0.9954
  307MOL0     H41408   5.353   4.759   6.495  1.4377 -0.2851 -1.1050
  307MOL0     H41409   5.054   4.305   6.254  0.5661  0.2061 -0.9428
  307MOL0     H41410   4.970   4.081   6.246 -1.1555  1.8160 -0.6663
  307MOL0     H41411   5.109   3.797   5.915 -0.1706 -1.6261  1.7517
  307MOL0     H41412   4.952   3.722   5.957 -1.5758 -0.3561  0.0232
  307MOL0     H41413   5.004   3.963   5.793  1.1373 -2.3659  1.1800
  307MOL0     H41414   4.930   3.806   5.749 -2.6223 -1.1740  0.9159
  307MOL0     H41415   4.797   4.007   5.931  2.3059  1.1860 -1.0768
  307MOL0     H41416   4.725   3.854   5.867  0.4063  0.8197  0.2989
  307MOL0     H41417   4.823   4.086   5.669 -2.3366  2.6382 -2.2543
  307MOL0     H41418   4.718   3.942   5.644 -0.9037 -1.8317  2.2196
  307MOL0     H41419   4.627   4.166   5.824 -0.2881  0.2327 -0.0244
  307MOL0     H41420   4.541   4.032   5.767 -2.4390  1.3595 -3.0818
  307MOL0     H41421   4.476   4.233   5.651  0.1418  0.0778  2.9329
  307MOL0     H41422   4.641   4.248   5.581 -2.2560  1.5940  0.9378
  307MOL0     H41423   4.474   3.999   5.555  1.9370 -0.1869  0.3972
  307MOL0     H41424   4.610   4.040   5.446 -0.6998  0.8128 -1.2558
  307MOL0     H41425   4.353   4.222   5.455  1.9279  0.9371  1.6842
  307MOL0     H41426   4.355   4.082   5.359 -0.0316 -0.5582  1.1895
  307MOL0     H41427   5.220   4.003   5.901 -0.8850 -1.2389 -0.5218
  307MOL0     H41428   5.332   4.229   5.955 -0.0670  1.2976  0.8408
  307MOL0     H41429   5.235   4.620   5.980 -2.0851  0.6108  0.3573
  307MOL0     H41430   5.292   4.850   5.936  2.2706 -0.6727 -1.0598
  307MOL0     H41431   7.067   4.491   6.096 -0.1997 -0.1555  0.2152
  307MOL0     H41432   7.314   4.373   6.140  4.1331  1.0231 -1.3663
  307MOL0     H41433   7.814   4.429   6.222 -1.6625 -0.0880 -0.4588
  307MOL0     H41434   8.008   4.294   6.221 -1.9844 -0.7569  0.9873
  307MOL0     H41435   8.203   4.209   6.135 -1.6760  0.2542 -0.0613
  307MOL0     H41436   8.114   4.102   6.235 -1.0854 -1.2874 -0.6207
  307MOL0     H41437   8.235   3.894   6.146 -2.1187  0.7602  0.1520
  307MOL0     H41438   8.354   4.007   6.210 -1.2646  3.8860  0.4035
  307MOL0     H41439   8.373   4.106   5.958  2.4408 -0.0997  1.4469
  307MOL0     H41440   8.257   3.964   5.922 -1.3435  0.5430  0.6662
  307MOL0     H41441   8.485   3.881   5.869 -0.1843 -2.1040  0.0234
  307MOL0     H41442   8.425   3.829   6.021 -0.1834  0.5749 -0.0911
  307MOL0     H41443   8.772   4.040   6.110 -1.8891  1.8223  0.9598
  307MOL0     H41444   7.873   4.052   5.909 -2.2014 -0.7338  0.4429
  307MOL0     H41445   7.654   4.193   5.914 -1.4469  1.1549 -0.3413
  308MOL0     O41446   7.891   1.135   8.918  0.2548  0.5031 -1.0716
  308MOL0     C41447   7.934   1.027   8.943 -0.0380 -0.5129  0.5517
  308MOL0     O41448   7.872   0.935   9.021  0.4649  0.0525  0.3146
  308MOL0     C41449   7.741   0.931   9.018  0.2064  0.2152 -0.2618
  308MOL0     C41450   7.666   1.029   9.083  0.1248 -0.0146  0.2168
  308MOL0     C41451   7.525   1.013   9.072 -0.2113 -0.7769 -0.7037
  308MOL0     C41452   7.459   0.913   9.003  0.0884 -1.2977  0.8040
  308MOL0     O41453   7.322   0.929   9.000 -1.4156  0.1949  0.8843
  308MOL0     C41454   7.242   0.808   8.990 -0.3680 -0.9723 -0.5135
  308MOL0     C41455   7.104   0.849   9.044  0.0245 -0.2329  0.1535
  308MOL0     C41456   7.012   0.723   9.041  0.0533 -0.7370  0.7984
  308MOL0     C41457   6.880   0.741   9.102  0.7839  0.1913  0.3205
  308MOL0     C41458   6.758   0.708   8.995  0.5503  0.2719  0.4509
  308MOL0     C41459   6.626   0.720   9.064  0.2421  0.6663 -0.0128
  308MOL0     C41460   6.503   0.719   8.968  0.1534 -0.8768  0.3013
  308MOL0     C41461   6.489   0.586   8.902  0.0146  0.3526  0.1652
  308MOL0     N41462   6.360   0.567   8.832 -1.0988 -0.1873  0.1672
  308MOL0     C41463   6.337   0.632   8.718 -0.1025 -0.4626 -0.5776
  308MOL0     C41464   6.221   0.587   8.670  0.0652 -0.0491  0.8554
  308MOL0     C41465   6.148   0.630   8.543  0.4307 -0.2714  0.0942
  308MOL0     C41466   6.044   0.738   8.569 -0.0189 -0.0394 -0.8890
  308MOL0     C41467   5.953   0.725   8.693  0.0402 -0.0238  0.1797
  308MOL0     C41468   5.852   0.605   8.678  0.9503  0.2359  0.0537
  308MOL0     O41469   5.749   0.579   8.780 -0.1290  0.9304  0.1671
  308MOL0     C41470   5.666   0.670   8.826  0.1464 -0.2149  0.5651
  308MOL0     C41471   5.704   0.793   8.890  0.0461  0.3239 -0.4437
  308MOL0     C41472   5.600   0.883   8.923 -0.7763 -0.4195  0.2780
  308MOL0     C41473   5.649   1.014   8.988 -0.5299 -0.3208  0.4124
  308MOL0     C41474   5.461   0.844   8.913 -0.1016  0.4015  0.4041
  308MOL0     C41475   5.349   0.934   8.946  0.1753 -0.7243 -0.7233
  308MOL0     O41476   5.236   0.873   8.969  0.4455  0.4038 -0.0897
  308MOL0     C41477   5.118   0.946   8.985  0.7514  0.3781 -0.7607
  308MOL0     C41478   5.086   1.080   8.960 -0.2548  0.8807  0.6280
  308MOL0     C41479   4.957   1.123   8.970  0.4240  0.1802  0.0255
  308MOL0     C41480   4.851   1.048   9.022  0.6845 -0.7410  0.6361
  308MOL0     O41481   4.729   1.107   9.048 -0.7381  0.2052 -0.1010
  308MOL0     C41482   4.624   1.017   9.078 -0.3446 -0.4047  0.5123
  308MOL0     C41483   4.501   1.107   9.093  0.0577  0.2550  0.1214
  308MOL0     C41484   4.380   1.026   9.131 -0.5632  0.7514  0.0643
  308MOL0     C41485   4.319   0.973   9.010 -0.2709  0.0959  0.2914
  308MOL0     C41486   4.226   1.070   8.935 -0.2949 -0.2038 -1.5136
  308MOL0     C41487   4.142   0.998   8.829 -0.4650 -0.2913 -0.1510
  308MOL0     C41488   4.050   1.095   8.756 -0.9893 -0.5698  0.4526
  308MOL0     C41489   3.922   1.112   8.841  0.2176  0.6102  0.5629
  308MOL0    Cl41490   3.821   1.199   8.734 -0.2196  0.0148 -0.1904
  308MOL0     C41491   4.884   0.910   9.045  0.1941 -0.7826 -0.1926
  308MOL0     C41492   5.007   0.861   9.018  0.0176 -0.2909 -0.5318
  308MOL0     O41493   5.375   1.053   8.968 -0.2915  0.1481 -0.7855
  308MOL0     C41494   5.432   0.712   8.863  0.4264 -0.2983 -0.5763
  308MOL0     C41495   5.531   0.630   8.821  0.1421 -0.0040 -0.0983
  308MOL0     N41496   6.180   0.488   8.752  0.5450  0.4528 -0.7176
  308MOL0     N41497   6.255   0.483   8.853 -0.7445 -0.1412  0.2826
  308MOL0     C41498   7.536   0.810   8.941  0.3105 -0.8220  0.2930
  308MOL0     C41499   7.676   0.825   8.941  0.0679  0.4287  0.2334
  308MOL0     C41500   8.081   0.999   8.926 -0.6788  1.0637  0.7459
  308MOL0     C41501   8.141   0.909   9.019  0.2596  0.3477  0.1103
  308MOL0     C41502   8.276   0.890   9.015  0.2651  0.1338  0.1007
  308MOL0     C41503   8.362   0.962   8.926  0.0018 -0.5114 -0.0151
  308MOL0     O41504   8.493   0.917   8.928 -0.7186 -0.2101 -0.3339
  308MOL0     C41505   8.597   0.977   8.848  0.1256  0.4021 -0.6995
  308MOL0     C41506   8.602   0.924   8.704 -1.0184  0.4956 -0.2781
  308MOL0     C41507   8.745   0.929   8.645 -0.7160  0.8917 -0.0525
  308MOL0     C41508   8.802   1.067   8.640  0.2815 -0.5973  0.1870
  308MOL0     C41509   8.940   1.061   8.593  0.8614 -0.0705  0.5919
  308MOL0     C41510   9.049   1.065   8.564  0.6700  0.4542 -0.2321
  308MOL0     C41511   8.300   1.034   8.823  0.5719 -0.3872 -0.9228
  308MOL0     C41512   8.157   1.059   8.828 -1.3305 -0.3421 -0.3584
  308MOL0     H41513   7.713   1.106   9.143 -1.9130  0.8824  0.7596
  308MOL0     H41514   7.469   1.085   9.131 -1.5341 -0.4160 -2.2947
  308MOL0     H41515   7.232   0.762   8.891 -3.3547 -1.7553  0.0329
  308MOL0     H41516   7.283   0.730   9.054 -0.2379  0.5782  1.3826
  308MOL0     H41517   7.113   0.882   9.148 -1.1442  0.2675  0.1145
  308MOL0     H41518   7.049   0.929   8.992 -1.5361 -1.2564  0.1558
  308MOL0     H41519   7.009   0.682   8.939 -1.9269  1.4484 -0.1209
  308MOL0     H41520   7.067   0.651   9.101  0.1187  0.0956  1.7573
  308MOL0     H41521   6.875   0.669   9.185  0.8417  1.3146  1.3186
  308MOL0     H41522   6.862   0.843   9.137  0.1806  0.8704 -1.8318
  308MOL0     H41523   6.758   0.784   8.916 -0.0887 -0.7509 -0.5453
  308MOL0     H41524   6.774   0.610   8.950 -0.4898  0.6752 -0.8514
  308MOL0     H41525   6.612   0.630   9.125  1.9744 -0.3975 -1.1085
  308MOL0     H41526   6.614   0.812   9.121 -2.3511  0.2905  0.1864
  308MOL0     H41527   6.413   0.736   9.027  2.2669  1.6936  3.1128
  308MOL0     H41528   6.499   0.802   8.897 -3.6210 -0.5084  0.7546
  308MOL0     H41529   6.484   0.501   8.971  1.9922 -0.3808 -0.5244
  308MOL0     H41530   6.581   0.580   8.843 -0.9429 -0.9431 -1.2779
  308MOL0     H41531   6.397   0.709   8.671  0.0109 -1.8626 -2.8946
  308MOL0     H41532   6.206   0.659   8.454  0.2159  1.6303  0.5228
  308MOL0     H41533   6.097   0.540   8.507  0.9152 -0.3395 -0.4387
  308MOL0     H41534   5.978   0.746   8.482 -0.4354 -2.7246 -0.8944
  308MOL0     H41535   6.105   0.827   8.585  2.5550 -2.0830  1.7781
  308MOL0     H41536   5.903   0.822   8.702  0.9454  0.5191 -0.5682
  308MOL0     H41537   6.014   0.720   8.784 -0.5519 -0.3761  0.5659
  308MOL0     H41538   5.903   0.510   8.664 -3.6521 -2.4261 -0.9075
  308MOL0     H41539   5.808   0.613   8.579  2.3193 -1.4809 -0.7422
  308MOL0     H41540   5.810   0.815   8.902  0.6278 -2.1147 -0.5291
  308MOL0     H41541   5.757   1.028   8.984 -0.6471  0.2654 -1.6284
  308MOL0     H41542   5.610   1.100   8.934  0.7255  0.0262  0.0376
  308MOL0     H41543   5.621   1.028   9.093  4.2930  1.7656  1.6878
  308MOL0     H41544   5.160   1.142   8.911 -0.5238  0.7162  0.0060
  308MOL0     H41545   4.940   1.225   8.935  0.2234  0.1085 -0.0887
  308MOL0     H41546   4.594   0.944   9.003 -1.5706 -0.3060  0.8697
  308MOL0     H41547   4.640   0.972   9.177 -3.1113 -0.2718  1.1081
  308MOL0     H41548   4.527   1.180   9.171 -4.2587  1.5024  0.6533
  308MOL0     H41549   4.486   1.157   8.997 -0.8202  2.2857  1.2286
  308MOL0     H41550   4.306   1.071   9.198 -1.2421  0.1967 -0.2952
  308MOL0     H41551   4.428   0.942   9.182  2.1619  0.8052 -2.1644
  308MOL0     H41552   4.387   0.925   8.939 -1.0722 -1.4170  0.5002
  308MOL0     H41553   4.250   0.891   9.034 -2.2384  1.7005  0.3803
  308MOL0     H41554   4.275   1.148   8.875 -3.3416 -0.2871 -4.3727
  308MOL0     H41555   4.168   1.118   9.015 -0.0632 -1.3590 -0.6201
  308MOL0     H41556   4.209   0.969   8.748  1.4026  1.7934  0.5495
  308MOL0     H41557   4.088   0.913   8.871 -0.8713 -0.7563 -1.5584
  308MOL0     H41558   4.014   1.063   8.658  1.2206  1.3440 -1.0997
  308MOL0     H41559   4.103   1.190   8.743  0.5523 -1.6282 -1.5099
  308MOL0     H41560   3.941   1.153   8.940  0.5372  0.9239  0.3771
  308MOL0     H41561   3.879   1.012   8.852  2.8561 -1.0465 -2.4377
  308MOL0     H41562   4.810   0.842   9.086  0.9648 -2.5133 -1.5315
  308MOL0     H41563   5.030   0.756   9.034  1.0609 -0.1886 -1.2694
  308MOL0     H41564   5.331   0.672   8.860  0.1070  0.5004 -0.7360
  308MOL0     H41565   5.520   0.533   8.773  0.5964 -1.6352  2.8800
  308MOL0     H41566   7.485   0.729   8.889  1.2738 -0.3490 -1.4690
  308MOL0     H41567   7.735   0.760   8.877  0.4333  1.7739 -0.8382
  308MOL0     H41568   8.078   0.871   9.100 -1.5604  3.1751  0.1622
  308MOL0     H41569   8.323   0.832   9.094  0.0121  0.2870  0.3688
  308MOL0     H41570   8.588   1.085   8.847 -0.0238  0.3841 -1.4060
  308MOL0     H41571   8.694   0.961   8.896  1.2048 -2.8720 -3.5514
  308MOL0     H41572   8.536   0.978   8.635 -0.0150 -0.1414 -1.7767
  308MOL0     H41573   8.567   0.821   8.708 -4.9270  1.5507 -2.2526
  308MOL0     H41574   8.736   0.872   8.552 -0.9861  2.1267 -0.8067
  308MOL0     H41575   8.808   0.871   8.713 -1.3686  1.7113  1.3155
  308MOL0     H41576   8.800   1.124   8.734 -1.6364  0.0417 -0.1837
  308MOL0     H41577   8.738   1.114   8.565  0.0166 -1.6240 -0.2414
  308MOL0     H41578   9.152   1.074   8.535  1.1440 -0.3201  1.1195
  308MOL0     H41579   8.360   1.067   8.739 -0.2950 -0.8113 -1.7382
  308MOL0     H41580   8.116   1.128   8.754  1.6984  1.7334 -0.3013
  309MOL0     O41581  10.805   1.635   0.219 -0.0214  0.4028  0.0224
  309MOL0     C41582  10.900   1.612   0.288 -0.2069  0.1638 -0.2832
  309MOL0     O41583  10.895   1.556   0.417 -0.2154  0.5110  0.1980
  309MOL0     C41584  10.777   1.517   0.487 -0.2580 -0.9698  0.8212
  309MOL0     C41585  10.645   1.549   0.449  0.3735  0.2559 -0.5387
  309MOL0     C41586  10.541   1.509   0.539  0.5628 -0.4822  0.2937
  309MOL0     C41587  10.563   1.441   0.658 -0.1238 -0.3737 -0.4620
  309MOL0     O41588  10.458   1.396   0.746 -0.1648 -0.3887  0.5003
  309MOL0     C41589  10.338   1.466   0.734  0.1631 -0.3790 -1.1566
  309MOL0     C41590  10.265   1.453   0.866 -0.2883  0.4437  0.4613
  309MOL0     C41591  10.122   1.506   0.860  0.1358  0.0776 -0.0943
  309MOL0     C41592  10.034   1.432   0.972  0.0950  0.3118  0.0969
  309MOL0     C41593   9.885   1.429   0.930 -0.4764 -1.1852 -1.1272
  309MOL0     C41594   9.796   1.326   1.019 -0.5023 -0.2192  0.9790
  309MOL0     C41595   9.791   1.371   1.167 -0.3524 -0.9479  0.5635
  309MOL0     C41596   9.699   1.299   1.253 -1.1718  0.3338 -0.1640
  309MOL0     N41597   9.567   1.290   1.216  0.8372 -0.0005 -0.2481
  309MOL0     C41598   9.487   1.179   1.174 -0.1925 -0.2891  0.5909
  309MOL0     C41599   9.364   1.227   1.142  0.1927 -0.0933  0.5578
  309MOL0     C41600   9.238   1.155   1.103 -0.1385 -0.3294  0.4295
  309MOL0     C41601   9.166   1.107   1.225  0.5868  0.6661 -0.3992
  309MOL0     C41602   9.073   0.985   1.200  0.4123 -0.1746 -0.1645
  309MOL0     C41603   8.968   0.993   1.086  0.1477  0.4714 -0.0693
  309MOL0     O41604   8.913   1.129   1.070 -0.7112  0.5775 -0.1004
  309MOL0     C41605   8.802   1.174   1.141 -0.0449  0.4792  1.1243
  309MOL0     C41606   8.795   1.312   1.124  0.4158  0.2394 -0.9219
  309MOL0     C41607   8.687   1.380   1.179  1.8331 -0.4019  0.0508
  309MOL0     C41608   8.661   1.521   1.136 -0.0535  0.6614  0.1651
  309MOL0     C41609   8.591   1.305   1.262 -0.4386  0.0731 -0.9281
  309MOL0     C41610   8.473   1.371   1.329 -0.0864  1.4975  0.5514
  309MOL0     O41611   8.390   1.282   1.402  0.1425  0.3371 -0.1063
  309MOL0     C41612   8.264   1.331   1.425 -0.5473  0.2756 -0.2675
  309MOL0     C41613   8.179   1.384   1.332  0.3553  0.3753  0.2027
  309MOL0     C41614   8.050   1.426   1.369  0.4578  0.2114  0.1082
  309MOL0     C41615   8.003   1.401   1.497 -0.8097 -0.1427 -0.4123
  309MOL0     O41616   7.873   1.436   1.536 -0.9965  0.6180 -0.3043
  309MOL0     C41617   7.776   1.443   1.431 -0.2877  0.2041 -0.0628
  309MOL0     C41618   7.631   1.437   1.492  0.0124 -0.0163  0.4064
  309MOL0     C41619   7.588   1.523   1.611  0.2052  0.1555 -0.0025
  309MOL0     C41620   7.456   1.473   1.674  0.3876 -0.6382 -0.3751
  309MOL0     C41621   7.403   1.555   1.789  0.4765  0.3540 -0.6878
  309MOL0     C41622   7.301   1.472   1.875  0.1282 -0.5388 -0.5093
  309MOL0     C41623   7.185   1.560   1.936  0.8379  0.9115 -0.1281
  309MOL0     C41624   7.249   1.654   2.027 -0.0902 -0.2096 -0.3723
  309MOL0    Cl41625   7.131   1.754   2.103  0.0049  0.1906 -0.4153
  309MOL0     C41626   8.091   1.352   1.591  0.9799  1.2526 -0.1019
  309MOL0     C41627   8.220   1.324   1.556  0.7779  0.2507 -0.0702
  309MOL0     O41628   8.466   1.493   1.335 -0.2185  0.3015 -0.6738
  309MOL0     C41629   8.606   1.169   1.282  0.3912 -0.3267 -0.3953
  309MOL0     C41630   8.710   1.100   1.224 -0.5068 -0.1233 -0.3692
  309MOL0     N41631   9.362   1.361   1.179 -0.1908 -0.0213 -0.5772
  309MOL0     N41632   9.489   1.397   1.197  1.0602  0.2770 -0.2526
  309MOL0     C41633  10.694   1.402   0.686 -0.9059  0.4059  1.0235
  309MOL0     C41634  10.798   1.437   0.599 -0.0371 -0.0738 -0.1104
  309MOL0     C41635  11.031   1.635   0.228 -0.5025 -0.3870  0.0896
  309MOL0     C41636  11.150   1.606   0.306 -0.2092 -0.0422 -0.1592
  309MOL0     C41637  11.273   1.653   0.271 -0.3573  0.9868  0.9226
  309MOL0     C41638  11.282   1.723   0.145 -0.1916 -1.2520 -0.2870
  309MOL0     O41639  11.400   1.768   0.090 -0.6881  0.3509 -0.3411
  309MOL0     C41640  11.515   1.776   0.181 -0.3555  0.4691 -0.9637
  309MOL0     C41641  11.591   1.647   0.206 -0.0860  0.9482  0.5850
  309MOL0     C41642  11.685   1.648   0.335 -0.1814 -0.4019  0.5224
  309MOL0     C41643  11.763   1.782   0.360  0.7985  0.7741  1.2330
  309MOL0     C41644  11.847   1.798   0.246 -0.6421 -0.1139  0.3975
  309MOL0     C41645  11.928   1.805   0.148  0.2888  0.0936 -0.0806
  309MOL0     C41646  11.174   1.753   0.065  0.7404  0.1885 -0.4662
  309MOL0     C41647  11.047   1.716   0.114 -0.1099 -0.4629  0.8836
  309MOL0     H41648  10.610   1.618   0.373 -1.1688  1.1931  0.9378
  309MOL0     H41649  10.441   1.537   0.509 -1.2488 -0.4379  5.4575
  309MOL0     H41650  10.354   1.570   0.707 -0.2044 -0.0488 -0.1485
  309MOL0     H41651  10.272   1.425   0.656 -1.1893 -1.0298  0.2837
  309MOL0     H41652  10.251   1.346   0.877 -0.1872  0.0626 -2.3230
  309MOL0     H41653  10.325   1.497   0.946 -0.2078 -0.3181  0.8187
  309MOL0     H41654  10.127   1.615   0.866  0.3189 -0.0085  2.8497
  309MOL0     H41655  10.088   1.501   0.756  3.0929  6.3385 -1.8756
  309MOL0     H41656  10.073   1.332   0.995  0.9446  0.9008  1.3837
  309MOL0     H41657  10.040   1.479   1.071  2.3487  2.0701 -0.7994
  309MOL0     H41658   9.853   1.529   0.961  1.0631 -0.2374 -2.4747
  309MOL0     H41659   9.865   1.405   0.825  0.0235  0.3739 -1.6100
  309MOL0     H41660   9.693   1.324   0.982 -0.2169  3.2176 -0.4115
  309MOL0     H41661   9.828   1.222   1.006  2.1048  0.8508 -2.7100
  309MOL0     H41662   9.889   1.338   1.204  0.0597 -0.1244  0.2591
  309MOL0     H41663   9.781   1.480   1.172  1.3109 -0.6256 -1.4961
  309MOL0     H41664   9.701   1.359   1.345  1.8544  0.2451 -0.0594
  309MOL0     H41665   9.739   1.199   1.268 -0.9467  0.4528  0.0413
  309MOL0     H41666   9.514   1.074   1.175 -0.4466 -0.5660 -3.5859
  309MOL0     H41667   9.177   1.225   1.045  1.0519 -1.1859 -2.0275
  309MOL0     H41668   9.263   1.073   1.034 -1.5950 -0.1238 -0.3906
  309MOL0     H41669   9.117   1.186   1.283 -2.6894 -2.0534  0.8582
  309MOL0     H41670   9.248   1.070   1.287  0.7934 -0.9852 -1.5887
  309MOL0     H41671   9.019   0.957   1.291 -1.4486  0.6800 -0.9772
  309MOL0     H41672   9.149   0.908   1.182  2.1018  1.0149  1.4145
  309MOL0     H41673   8.887   0.922   1.100 -2.3941  2.2497 -4.0340
  309MOL0     H41674   9.021   0.963   0.995  0.3014  0.3474  0.0618
  309MOL0     H41675   8.868   1.371   1.069  1.6493 -0.5874 -0.2185
  309MOL0     H41676   8.558   1.526   1.101  0.3034 -0.7623 -1.1536
  309MOL0     H41677   8.688   1.584   1.222  1.0401  0.4829 -0.0316
  309MOL0     H41678   8.725   1.549   1.052 -1.3431 -1.7711 -1.7156
  309MOL0     H41679   8.198   1.406   1.227 -0.6530 -2.1302 -0.5721
  309MOL0     H41680   7.998   1.478   1.290  0.4089 -0.5994 -0.3983
  309MOL0     H41681   7.798   1.535   1.376  1.3470  1.4288  2.4997
  309MOL0     H41682   7.798   1.354   1.371 -0.0234 -1.0021  1.7537
  309MOL0     H41683   7.560   1.466   1.414 -3.4113 -0.6952  3.0306
  309MOL0     H41684   7.624   1.331   1.517  1.7237 -0.8763 -2.2992
  309MOL0     H41685   7.573   1.622   1.568 -1.7141  0.8614  2.0706
  309MOL0     H41686   7.662   1.516   1.691  2.0750  2.9429 -1.3368
  309MOL0     H41687   7.384   1.468   1.592 -1.7048  1.0939  1.2409
  309MOL0     H41688   7.473   1.369   1.702  2.8197 -0.5330 -1.1254
  309MOL0     H41689   7.358   1.648   1.752  1.0126  0.6203 -0.6762
  309MOL0     H41690   7.489   1.576   1.853 -1.4102  2.4430  1.3351
  309MOL0     H41691   7.251   1.385   1.831 -0.1048 -1.1067  0.8195
  309MOL0     H41692   7.358   1.422   1.954 -4.8035 -2.5146  2.2574
  309MOL0     H41693   7.113   1.498   1.990  2.1338  1.2647  2.1609
  309MOL0     H41694   7.123   1.616   1.866  0.3296  0.4731 -0.0341
  309MOL0     H41695   7.320   1.716   1.973 -0.7885 -0.9254 -2.1919
  309MOL0     H41696   7.305   1.597   2.102 -0.6750  1.0365  1.0785
  309MOL0     H41697   8.060   1.353   1.695 -0.5127 -0.5635 -0.4713
  309MOL0     H41698   8.293   1.291   1.629 -1.8270 -0.8014  2.2253
  309MOL0     H41699   8.523   1.110   1.322 -0.0971 -0.6818 -1.8698
  309MOL0     H41700   8.715   0.992   1.228 -1.1624 -0.2183 -1.6647
  309MOL0     H41701  10.723   1.346   0.774 -1.3922 -0.3325  0.7275
  309MOL0     H41702  10.899   1.408   0.625 -0.6277 -2.2050 -0.0126
  309MOL0     H41703  11.149   1.539   0.392  3.3901  0.4515  0.4321
  309MOL0     H41704  11.361   1.624   0.328 -0.9701  1.7554  2.3236
  309MOL0     H41705  11.580   1.859   0.154  0.8851 -0.5594 -1.2337
  309MOL0     H41706  11.477   1.811   0.278 -1.3545 -0.7113 -0.9038
  309MOL0     H41707  11.634   1.625   0.108 -0.6270  3.2619 -0.2390
  309MOL0     H41708  11.534   1.556   0.226  0.7097  0.5809  1.2583
  309MOL0     H41709  11.746   1.558   0.325 -1.9212 -1.4471 -1.5062
  309MOL0     H41710  11.617   1.632   0.419 -0.6928 -1.2401 -0.0411
  309MOL0     H41711  11.822   1.774   0.452  2.4858 -3.9132 -0.0245
  309MOL0     H41712  11.690   1.863   0.372 -0.0879 -0.0116  1.2779
  309MOL0     H41713  11.985   1.806   0.057 -0.8342 -1.3131 -0.8429
  309MOL0     H41714  11.194   1.800  -0.031  0.2967 -2.1612 -1.7731
  309MOL0     H41715  10.958   1.741   0.057 -1.3456  0.6976  3.1874
  310MOL0     O41716  10.053   0.632   3.669 -0.6178  0.1921 -0.5634
  310MOL0     C41717  10.124   0.533   3.681 -0.0327 -0.5487 -0.0385
  310MOL0     O41718  10.106   0.430   3.764 -0.6179  0.0666 -0.2475
  310MOL0     C41719   9.986   0.417   3.839  0.0098  0.7697  0.8499
  310MOL0     C41720  10.003   0.340   3.957 -0.1516 -0.0326  0.2725
  310MOL0     C41721   9.893   0.300   4.023  0.4418  0.3697 -1.0136
  310MOL0     C41722   9.764   0.343   3.984 -0.0536 -0.2162  0.0463
  310MOL0     O41723   9.652   0.287   4.050 -0.4510  0.2429  0.8058
  310MOL0     C41724   9.627   0.339   4.184  0.0177 -0.6265 -0.2593
  310MOL0     C41725   9.482   0.291   4.199  0.4181 -0.7629  0.1748
  310MOL0     C41726   9.436   0.278   4.347 -0.0071 -0.5661  0.1216
  310MOL0     C41727   9.297   0.215   4.363 -0.6377  0.6548  1.0203
  310MOL0     C41728   9.290   0.061   4.332 -0.4895  0.2143  0.0627
  310MOL0     C41729   9.154   0.006   4.326  0.1040  0.0229 -0.1963
  310MOL0     C41730   9.107  -0.045   4.462  0.4786 -0.8137  0.3807
  310MOL0     C41731   8.958  -0.083   4.461  0.5260 -0.5870  0.4047
  310MOL0     N41732   8.901  -0.098   4.595 -0.0454 -0.8925  0.2032
  310MOL0     C41733   8.778  -0.048   4.645 -0.0913  0.5810 -0.0427
  310MOL0     C41734   8.769  -0.099   4.769  0.6118  0.1555  0.7850
  310MOL0     C41735   8.651  -0.093   4.858 -0.4965  1.1086  0.0011
  310MOL0     C41736   8.644  -0.226   4.943 -0.7710  0.1908  0.7162
  310MOL0     C41737   8.513  -0.236   5.005 -1.0311 -0.1712 -0.1095
  310MOL0     C41738   8.478  -0.130   5.096  0.2558 -0.0509 -1.0068
  310MOL0     O41739   8.361  -0.161   5.165  0.4500  0.2922 -0.3006
  310MOL0     C41740   8.310  -0.056   5.232 -0.7445  0.8127  0.0901
  310MOL0     C41741   8.382   0.060   5.253  0.0212 -0.0319 -0.2769
  310MOL0     C41742   8.317   0.162   5.329  1.1255  0.7165  0.6141
  310MOL0     C41743   8.393   0.287   5.346 -0.1289 -0.5763 -0.2823
  310MOL0     C41744   8.177   0.147   5.383 -0.0390 -1.4023  0.6063
  310MOL0     C41745   8.104   0.245   5.468  0.3112  0.4479  0.7837
  310MOL0     O41746   8.026   0.198   5.568 -0.1489 -0.0828 -0.6735
  310MOL0     C41747   7.968   0.283   5.652 -0.9778  0.8379 -0.5100
  310MOL0     C41748   7.974   0.242   5.787 -0.9408 -0.8065  1.0538
  310MOL0     C41749   7.913   0.315   5.879  0.5978 -0.6074  0.3377
  310MOL0     C41750   7.831   0.422   5.850 -0.0735 -0.8467 -0.2647
  310MOL0     O41751   7.766   0.489   5.952 -0.0637  0.2609 -0.0024
  310MOL0     C41752   7.653   0.576   5.922 -0.6227 -0.1954  0.1866
  310MOL0     C41753   7.615   0.648   6.050  0.8780 -0.9992 -0.7798
  310MOL0     C41754   7.511   0.761   6.030  0.3208 -0.6879 -0.3451
  310MOL0     C41755   7.372   0.704   5.980 -0.5269  0.0282  0.5856
  310MOL0     C41756   7.249   0.768   6.037  0.7911 -0.1239 -0.1680
  310MOL0     C41757   7.131   0.722   5.947  0.2228 -0.2141 -0.8272
  310MOL0     C41758   6.989   0.773   6.004 -1.0408  0.4148  0.0968
  310MOL0     C41759   6.882   0.751   5.901 -0.1397 -0.3410  0.2761
  310MOL0    Cl41760   6.895   0.868   5.758 -0.1563 -0.2044 -0.1578
  310MOL0     C41761   7.819   0.464   5.712  0.4799 -0.4403  0.4578
  310MOL0     C41762   7.890   0.395   5.610 -0.4937 -0.3335  0.1859
  310MOL0     O41763   8.110   0.366   5.433  0.0478  0.9251 -0.4893
  310MOL0     C41764   8.123   0.017   5.361  0.7483  0.9611 -0.0839
  310MOL0     C41765   8.182  -0.074   5.282 -0.2039 -0.6682  0.1061
  310MOL0     N41766   8.891  -0.156   4.802  0.1096  0.6133 -0.8898
  310MOL0     N41767   8.972  -0.162   4.702 -0.3256 -0.9973  0.7516
  310MOL0     C41768   9.745   0.424   3.865 -1.1840  0.0546 -0.0455
  310MOL0     C41769   9.865   0.461   3.795  0.4948  0.6102  0.0028
  310MOL0     C41770  10.250   0.535   3.600 -0.0598 -0.1269  0.3738
  310MOL0     C41771  10.314   0.413   3.571  0.0638 -0.3347  0.4416
  310MOL0     C41772  10.431   0.412   3.502  0.0124  0.1620 -0.1891
  310MOL0     C41773  10.491   0.526   3.460 -0.4917  0.3047 -0.9662
  310MOL0     O41774  10.627   0.514   3.421 -0.7116  0.8363  0.6828
  310MOL0     C41775  10.716   0.626   3.436  0.2609  0.4837 -0.1551
  310MOL0     C41776  10.864   0.599   3.407  0.1781  0.3161  0.5520
  310MOL0     C41777  10.919   0.491   3.497  0.0060  0.4131  0.1740
  310MOL0     C41778  11.075   0.484   3.494  0.4467  0.2610  0.2651
  310MOL0     C41779  11.123   0.612   3.554  0.1648 -0.2828  0.4191
  310MOL0     C41780  11.151   0.721   3.588 -0.1227 -0.3612  0.3643
  310MOL0     C41781  10.436   0.647   3.493 -0.1005 -0.0301 -0.1143
  310MOL0     C41782  10.308   0.650   3.549 -0.2388 -0.0026 -1.3027
  310MOL0     H41783  10.103   0.310   3.989  0.2500  0.3658 -0.5820
  310MOL0     H41784   9.904   0.226   4.102  2.3607  1.2123 -0.4433
  310MOL0     H41785   9.676   0.310   4.277 -2.9861 -1.6519  1.1278
  310MOL0     H41786   9.627   0.448   4.187 -2.4713 -0.4020 -2.9163
  310MOL0     H41787   9.413   0.361   4.152 -0.9628 -1.2871  1.3365
  310MOL0     H41788   9.468   0.191   4.157 -0.6868  0.5266 -2.8018
  310MOL0     H41789   9.514   0.215   4.393  1.5208 -0.1480 -1.7555
  310MOL0     H41790   9.428   0.380   4.384 -0.4978 -1.6786  3.5206
  310MOL0     H41791   9.260   0.222   4.465 -0.2044  0.4949  1.1889
  310MOL0     H41792   9.233   0.268   4.291  1.0116 -0.0713 -1.0919
  310MOL0     H41793   9.328   0.052   4.230  4.3592  2.5844  1.3495
  310MOL0     H41794   9.362   0.005   4.392  0.1419  0.3688 -0.5346
  310MOL0     H41795   9.085   0.083   4.292  1.5275  1.2907 -0.3388
  310MOL0     H41796   9.149  -0.082   4.262  1.1869  0.4537 -0.9066
  310MOL0     H41797   9.158  -0.137   4.491  1.4613  0.0658  1.5482
  310MOL0     H41798   9.126   0.031   4.539 -1.3941 -0.3210  0.4000
  310MOL0     H41799   8.930  -0.174   4.407 -2.6321  0.7995 -0.5671
  310MOL0     H41800   8.904   0.000   4.415 -1.1889 -1.7937  0.1177
  310MOL0     H41801   8.693  -0.006   4.592 -1.9409 -1.5425  1.0438
  310MOL0     H41802   8.667  -0.013   4.932 -1.0339  1.9052 -0.7159
  310MOL0     H41803   8.560  -0.073   4.800 -1.5556 -0.3923  1.0635
  310MOL0     H41804   8.720  -0.228   5.022  0.6721  1.8569 -0.5308
  310MOL0     H41805   8.662  -0.311   4.876 -0.6049  0.9986 -0.2843
  310MOL0     H41806   8.507  -0.326   5.067 -1.3966  1.0473  1.7281
  310MOL0     H41807   8.441  -0.238   4.924 -0.9651  0.9571 -0.2129
  310MOL0     H41808   8.466  -0.036   5.042  2.0874  0.4232 -0.6779
  310MOL0     H41809   8.554  -0.119   5.175 -1.8274 -1.7263  1.4230
  310MOL0     H41810   8.477   0.083   5.207  0.6239  0.0007  0.9470
  310MOL0     H41811   8.474   0.316   5.279  2.7331 -0.8030  2.8062
  310MOL0     H41812   8.328   0.373   5.325  1.9120  1.2545  0.5289
  310MOL0     H41813   8.436   0.296   5.446 -2.9062  2.2389  0.8647
  310MOL0     H41814   8.025   0.148   5.808 -1.1958 -1.9123 -2.6327
  310MOL0     H41815   7.911   0.284   5.983  1.7144  2.4514  1.3774
  310MOL0     H41816   7.682   0.652   5.849 -1.0259 -1.7615 -1.7066
  310MOL0     H41817   7.565   0.529   5.876 -0.5318  0.7639 -1.0067
  310MOL0     H41818   7.575   0.582   6.128  1.4255  0.1418  0.4919
  310MOL0     H41819   7.705   0.696   6.090  2.0396 -1.2620 -2.9416
  310MOL0     H41820   7.540   0.841   5.962 -1.6721  0.1545 -0.2980
  310MOL0     H41821   7.485   0.810   6.125  0.3058 -1.3034 -0.0226
  310MOL0     H41822   7.379   0.720   5.872  0.9940 -2.7897  0.1894
  310MOL0     H41823   7.376   0.602   6.019  0.5076 -0.0142  0.3743
  310MOL0     H41824   7.243   0.877   6.023 -0.0167 -0.3307 -1.6149
  310MOL0     H41825   7.231   0.734   6.140  1.8666 -0.1359  0.0222
  310MOL0     H41826   7.154   0.755   5.845  0.2002 -3.0319 -1.8323
  310MOL0     H41827   7.131   0.613   5.946 -0.1240 -0.3587  2.6910
  310MOL0     H41828   6.989   0.880   6.026  1.2755  0.7909 -1.3697
  310MOL0     H41829   6.966   0.725   6.100 -1.3189  3.7327  1.8324
  310MOL0     H41830   6.787   0.772   5.951 -0.0544 -0.6330  0.5602
  310MOL0     H41831   6.871   0.651   5.859  3.1165 -0.2685 -1.0399
  310MOL0     H41832   7.754   0.544   5.678  0.6371 -0.4665  0.0856
  310MOL0     H41833   7.883   0.421   5.505  2.6067  0.7117  0.1189
  310MOL0     H41834   8.025  -0.007   5.401  0.2179  1.5656 -0.9898
  310MOL0     H41835   8.130  -0.168   5.269 -1.1281 -0.2168  0.4473
  310MOL0     H41836   9.649   0.443   3.820 -0.5010 -1.5198 -2.3719
  310MOL0     H41837   9.856   0.522   3.706  0.5788 -0.3119 -0.6470
  310MOL0     H41838  10.279   0.313   3.596  0.4916 -0.8054 -0.7823
  310MOL0     H41839  10.484   0.324   3.468  1.5389  0.6575  0.7812
  310MOL0     H41840  10.677   0.708   3.374 -0.8168  0.3071  0.2644
  310MOL0     H41841  10.718   0.658   3.540  2.3080  1.1504 -0.3657
  310MOL0     H41842  10.919   0.693   3.419  2.0147 -0.7141  0.5678
  310MOL0     H41843  10.884   0.570   3.303  0.5461  4.7629 -0.8008
  310MOL0     H41844  10.874   0.398   3.462  2.4704 -0.9385  0.4506
  310MOL0     H41845  10.876   0.506   3.597  0.6017 -1.6487  0.7717
  310MOL0     H41846  11.112   0.460   3.394  0.9752  0.8228  0.3181
  310MOL0     H41847  11.110   0.407   3.564  0.3515  1.9122  2.2391
  310MOL0     H41848  11.170   0.825   3.608 -1.3464 -0.0864  0.1886
  310MOL0     H41849  10.479   0.743   3.464 -0.5797  0.8835  1.9817
  310MOL0     H41850  10.258   0.742   3.574 -1.5407 -1.4128  1.7589
  311MOL0     O41851   9.925   2.574  11.103 -0.7624  0.5907  1.0218
  311MOL0     C41852   9.963   2.643  11.013  0.6265  0.2174 -0.8560
  311MOL0     O41853   9.881   2.684  10.914  0.5824 -0.0159  0.0412
  311MOL0     C41854   9.746   2.647  10.896 -0.7386 -0.8396  0.3859
  311MOL0     C41855   9.662   2.596  10.987 -0.2377 -0.2639  0.2840
  311MOL0     C41856   9.532   2.560  10.945 -0.6089  0.3642 -0.7710
  311MOL0     C41857   9.492   2.574  10.815  0.7966  1.5902  0.2343
  311MOL0     O41858   9.373   2.530  10.791  0.4155 -0.3232 -0.0935
  311MOL0     C41859   9.351   2.397  10.735 -0.9783 -0.5955  0.3057
  311MOL0     C41860   9.276   2.305  10.819  0.0330  0.1701  0.2411
  311MOL0     C41861   9.143   2.361  10.861  0.3632 -0.0938 -0.5278
  311MOL0     C41862   9.058   2.244  10.916 -1.0844 -0.1087  0.2847
  311MOL0     C41863   8.918   2.297  10.931  1.1544  0.5577  0.9680
  311MOL0     C41864   8.840   2.305  10.793 -0.1388  0.2197  0.3263
  311MOL0     C41865   8.708   2.389  10.810  0.0801 -0.3182  0.4837
  311MOL0     C41866   8.614   2.327  10.906  0.3694  0.0257 -0.2864
  311MOL0     N41867   8.546   2.212  10.846  0.5733  0.0769 -1.1280
  311MOL0     C41868   8.586   2.082  10.860 -0.1759 -0.3378 -0.4767
  311MOL0     C41869   8.481   2.007  10.813  0.5027 -0.3089  0.1746
  311MOL0     C41870   8.486   1.862  10.808 -0.0299 -0.6313 -0.3810
  311MOL0     C41871   8.384   1.801  10.913 -0.5591  0.5176 -0.5756
  311MOL0     C41872   8.401   1.653  10.925 -1.3824  0.4781 -0.2638
  311MOL0     C41873   8.545   1.619  10.993  0.4085 -0.0309  0.5426
  311MOL0     O41874   8.570   1.676  11.121  0.0560  0.6908  0.5059
  311MOL0     C41875   8.502   1.639  11.234  0.7351  0.0626  0.9292
  311MOL0     C41876   8.516   1.727  11.342 -0.2870 -0.2710  0.8163
  311MOL0     C41877   8.434   1.710  11.457 -0.0469  0.3910 -0.6051
  311MOL0     C41878   8.457   1.806  11.561  0.7821  0.1140  0.3090
  311MOL0     C41879   8.351   1.599  11.473 -0.1790  0.2704 -0.2482
  311MOL0     C41880   8.263   1.572  11.594  0.4864  0.5268 -0.5946
  311MOL0     O41881   8.137   1.508  11.565 -0.0830 -0.7408  0.7328
  311MOL0     C41882   8.035   1.495  11.658  0.3543  0.4271  0.4037
  311MOL0     C41883   7.905   1.468  11.610 -0.4152  0.0369 -0.6707
  311MOL0     C41884   7.796   1.438  11.691 -0.6756 -0.3345  0.1565
  311MOL0     C41885   7.806   1.435  11.828  0.7678  0.0664 -0.9328
  311MOL0     O41886   7.696   1.398  11.902  0.3397  0.7432 -0.0155
  311MOL0     C41887   7.707   1.427  12.044 -0.0851 -0.2431  0.2114
  311MOL0     C41888   7.571   1.417  12.118 -0.1521  0.0520 -0.5898
  311MOL0     C41889   7.478   1.533  12.080 -0.3844  0.5471  0.8952
  311MOL0     C41890   7.363   1.546  12.180  1.2122  0.7630  0.1396
  311MOL0     C41891   7.306   1.682  12.172 -0.1403 -0.0733 -0.5179
  311MOL0     C41892   7.166   1.684  12.237 -0.3164  0.5696  0.6000
  311MOL0     C41893   7.115   1.829  12.241 -0.0286  0.8222  0.5505
  311MOL0     C41894   6.977   1.837  12.314  0.1910 -0.5864 -0.8980
  311MOL0    Cl41895   6.985   1.752  12.475  0.1314 -0.0537 -0.0350
  311MOL0     C41896   7.943   1.437  11.881 -0.0273 -0.5123  0.2346
  311MOL0     C41897   8.053   1.484  11.795 -0.5123 -0.7978 -0.0982
  311MOL0     O41898   8.301   1.612  11.707  0.4301  0.2055  0.1651
  311MOL0     C41899   8.349   1.503  11.369  0.3511 -0.1918 -1.1777
  311MOL0     C41900   8.419   1.523  11.249 -0.5109 -0.0782  0.2268
  311MOL0     N41901   8.375   2.091  10.766  0.1991 -0.0740  0.0746
  311MOL0     N41902   8.422   2.210  10.779 -0.2810  0.1071  0.1211
  311MOL0     C41903   9.583   2.609  10.721  0.7778  0.1067  0.3744
  311MOL0     C41904   9.705   2.655  10.760  0.4518  0.3787  0.4230
  311MOL0     C41905  10.099   2.689  11.014  1.1140 -0.8786 -1.0374
  311MOL0     C41906  10.202   2.623  11.091 -0.6686  0.4446  0.0207
  311MOL0     C41907  10.331   2.663  11.063 -0.2695  0.6059  0.1908
  311MOL0     C41908  10.374   2.749  10.967  0.9781 -0.0952  0.3027
  311MOL0     O41909  10.502   2.788  10.940  0.3161  0.3903  0.2174
  311MOL0     C41910  10.616   2.739  11.011  0.7588  0.1038 -0.6876
  311MOL0     C41911  10.740   2.733  10.922 -0.4537 -0.1442  0.2350
  311MOL0     C41912  10.776   2.881  10.882  1.3299 -0.7843 -0.2175
  311MOL0     C41913  10.885   2.931  10.973 -0.0613  0.1936 -0.3951
  311MOL0     C41914  11.010   2.860  10.950 -0.1896 -0.9470  0.3171
  311MOL0     C41915  11.114   2.811  10.921  0.0970  0.1997 -0.1096
  311MOL0     C41916  10.274   2.812  10.901  0.7354  0.7738 -0.1453
  311MOL0     C41917  10.132   2.781  10.921  0.1376 -0.8993  0.6504
  311MOL0     H41918   9.697   2.566  11.085  0.1026 -1.1295 -0.0865
  311MOL0     H41919   9.457   2.526  11.016 -1.7984  2.4759 -0.9418
  311MOL0     H41920   9.296   2.410  10.641 -1.7660 -1.4241  0.6367
  311MOL0     H41921   9.444   2.346  10.708 -2.2731 -2.3058 -1.1945
  311MOL0     H41922   9.258   2.208  10.772 -3.5184  0.7506  0.1687
  311MOL0     H41923   9.336   2.282  10.908 -0.9360 -1.9929  0.4020
  311MOL0     H41924   9.160   2.430  10.944  3.8022 -1.4651  0.0527
  311MOL0     H41925   9.094   2.397  10.770 -1.0821 -1.1974 -0.2221
  311MOL0     H41926   9.074   2.155  10.854  2.3347 -0.9923  2.1938
  311MOL0     H41927   9.111   2.224  11.010 -0.8100  4.1871  1.2366
  311MOL0     H41928   8.866   2.228  10.999  0.2476  1.0835  0.8247
  311MOL0     H41929   8.917   2.392  10.984 -1.2661  0.0912  1.8848
  311MOL0     H41930   8.900   2.354  10.716 -0.7310 -1.2483 -1.1261
  311MOL0     H41931   8.822   2.203  10.758  2.1496 -0.0576 -0.2050
  311MOL0     H41932   8.731   2.493  10.835  0.5822 -0.5305  0.9451
  311MOL0     H41933   8.677   2.398  10.706  1.6079  3.7879  0.1918
  311MOL0     H41934   8.527   2.388  10.933 -1.0003 -1.9008 -0.0853
  311MOL0     H41935   8.658   2.303  11.004 -4.2519 -0.3727  1.9636
  311MOL0     H41936   8.680   2.045  10.902  0.6383  3.3260  1.3216
  311MOL0     H41937   8.446   1.836  10.710 -0.5245  3.2712 -1.3959
  311MOL0     H41938   8.587   1.822  10.825 -0.4690 -1.6250 -0.0270
  311MOL0     H41939   8.282   1.821  10.879 -0.1518  3.1819 -0.4610
  311MOL0     H41940   8.413   1.849  11.006  1.2211 -1.8181  0.1827
  311MOL0     H41941   8.383   1.604  10.829  0.0882 -1.1448  0.2204
  311MOL0     H41942   8.320   1.607  10.983 -0.6724 -0.5852 -0.0701
  311MOL0     H41943   8.623   1.659  10.927 -3.3215  1.5690 -3.3875
  311MOL0     H41944   8.559   1.510  10.987  0.6059  0.0428 -0.6608
  311MOL0     H41945   8.594   1.799  11.325 -2.1400  1.2014 -2.3284
  311MOL0     H41946   8.521   1.772  11.642  1.5219 -2.4694 -1.2438
  311MOL0     H41947   8.501   1.898  11.520 -0.3237  0.8841  0.7836
  311MOL0     H41948   8.360   1.838  11.601 -0.0785 -2.0332  0.0694
  311MOL0     H41949   7.892   1.481  11.503  0.6711  2.3957 -0.5969
  311MOL0     H41950   7.694   1.425  11.657 -1.2460 -0.7807  1.9405
  311MOL0     H41951   7.765   1.345  12.085  0.6880 -0.9382 -2.1096
  311MOL0     H41952   7.757   1.522  12.067  1.3168 -1.6011  3.3284
  311MOL0     H41953   7.507   1.328  12.109 -1.0319  0.4816  1.0142
  311MOL0     H41954   7.602   1.431  12.222  2.1031  0.8397 -1.3173
  311MOL0     H41955   7.440   1.506  11.981  1.5465  0.8761  0.0186
  311MOL0     H41956   7.534   1.626  12.075  0.6480 -0.1044 -0.9892
  311MOL0     H41957   7.285   1.470  12.166  2.5366 -0.2137 -2.9980
  311MOL0     H41958   7.395   1.514  12.279 -1.3661  3.5997  2.0330
  311MOL0     H41959   7.302   1.717  12.069 -1.0807  1.0481 -0.1224
  311MOL0     H41960   7.371   1.751  12.228 -2.6371  1.3113  0.8641
  311MOL0     H41961   7.088   1.621  12.195  1.1944 -1.2766  0.4727
  311MOL0     H41962   7.190   1.650  12.338 -1.5367 -0.9781  0.4076
  311MOL0     H41963   7.111   1.860  12.137  1.2214  0.8079  0.4831
  311MOL0     H41964   7.184   1.886  12.304  2.0608  0.6683 -1.4985
  311MOL0     H41965   6.898   1.786  12.257 -3.7843  0.3405  3.1701
  311MOL0     H41966   6.933   1.937  12.311 -2.9844 -1.7557  1.2844
  311MOL0     H41967   7.951   1.416  11.987 -1.8308  2.1299  0.9594
  311MOL0     H41968   8.142   1.505  11.854  0.1029  1.2810 -1.6642
  311MOL0     H41969   8.273   1.425  11.371 -0.8690  0.9624  0.4326
  311MOL0     H41970   8.396   1.451  11.172 -0.3874 -1.4622  1.4501
  311MOL0     H41971   9.560   2.589  10.617 -1.6555  1.8946  0.4637
  311MOL0     H41972   9.776   2.682  10.683 -1.1765 -0.4512 -1.4619
  311MOL0     H41973  10.189   2.537  11.156 -0.5327 -0.1060 -0.6805
  311MOL0     H41974  10.406   2.622  11.131 -0.2317 -1.1072 -0.8319
  311MOL0     H41975  10.639   2.802  11.098  1.0558  0.6360 -1.1416
  311MOL0     H41976  10.599   2.638  11.049  0.6466  0.8214  1.3279
  311MOL0     H41977  10.717   2.672  10.834 -2.0656  0.9191 -0.1338
  311MOL0     H41978  10.818   2.678  10.975 -0.3739 -2.0719 -1.7249
  311MOL0     H41979  10.688   2.944  10.901  1.0011 -1.2435 -0.2073
  311MOL0     H41980  10.807   2.911  10.782  2.0857  1.4085  0.6099
  311MOL0     H41981  10.833   2.911  11.068 -3.0199  0.7131 -1.7909
  311MOL0     H41982  10.898   3.040  10.980 -3.1475  0.6088  0.7161
  311MOL0     H41983  11.206   2.772  10.883  0.8279  1.1881  0.5944
  311MOL0     H41984  10.300   2.875  10.816 -1.9126  1.7241 -0.3376
  311MOL0     H41985  10.059   2.822  10.852 -0.2472 -0.0236  1.5665
  312MOL0     O41986   9.126  10.444   9.933 -1.0246  0.2896 -1.4244
  312MOL0     C41987   9.187  10.538   9.883 -1.2952 -0.8352 -0.1464
  312MOL0     O41988   9.130  10.658   9.843  0.2076  0.6359  0.4703
  312MOL0     C41989   9.005  10.697   9.877 -0.0520 -0.1243  0.2450
  312MOL0     C41990   8.965  10.671  10.006  0.5336 -0.5360  0.2975
  312MOL0     C41991   8.841  10.724  10.045  0.2126  0.3600  0.4319
  312MOL0     C41992   8.743  10.774   9.955 -0.6459  0.3219 -0.3596
  312MOL0     O41993   8.615  10.805   9.996  0.0564 -0.9711 -0.4574
  312MOL0     C41994   8.558  10.728  10.103 -0.4275 -0.0357  0.2276
  312MOL0     C41995   8.405  10.731  10.093  0.0424 -0.6583  0.2318
  312MOL0     C41996   8.356  10.698   9.944 -0.2021  0.3168 -0.5091
  312MOL0     C41997   8.205  10.690   9.935  0.1406  0.3428  0.4390
  312MOL0     C41998   8.136  10.581  10.017 -0.5324 -0.4950  0.3586
  312MOL0     C41999   7.989  10.609  10.040  0.4376 -0.7649  0.6477
  312MOL0     C42000   7.900  10.645   9.921  0.1212 -0.4029 -0.2147
  312MOL0     C42001   7.792  10.749   9.973  0.1125 -0.2610  1.0876
  312MOL0     N42002   7.683  10.688  10.060 -0.2100 -0.0358 -0.3100
  312MOL0     C42003   7.571  10.618  10.024 -0.5194 -0.6925  0.4628
  312MOL0     C42004   7.522  10.560  10.137  0.8401 -0.0406  0.4457
  312MOL0     C42005   7.397  10.474  10.152  1.2423 -0.3152  0.1137
  312MOL0     C42006   7.268  10.561  10.124 -0.0666 -0.6466  1.2152
  312MOL0     C42007   7.154  10.470  10.096  0.2421 -0.1401 -0.0176
  312MOL0     C42008   7.120  10.367  10.200  0.3075 -0.8204  0.0955
  312MOL0     O42009   7.035  10.261  10.157  0.2960  0.6286  0.5661
  312MOL0     C42010   6.901  10.260  10.193 -0.3471  0.1584 -0.3297
  312MOL0     C42011   6.835  10.146  10.233  0.4117 -0.4074 -0.0221
  312MOL0     C42012   6.694  10.145  10.265  1.5241 -1.3349  1.5942
  312MOL0     C42013   6.640  10.013  10.327 -0.2245 -0.1730  0.1052
  312MOL0     C42014   6.616  10.265  10.245 -0.7000  0.1317  0.6568
  312MOL0     C42015   6.467  10.264  10.241  1.2081  0.6173  0.6891
  312MOL0     O42016   6.411  10.367  10.165  0.5094  0.6830 -0.4539
  312MOL0     C42017   6.269  10.389  10.161  0.5108 -0.5595 -0.2346
  312MOL0     C42018   6.175  10.291  10.119  1.0398  0.2947 -0.0009
  312MOL0     C42019   6.036  10.320  10.127 -0.7670  0.3230  0.2896
  312MOL0     C42020   6.000  10.441  10.190 -0.1592  0.0441  0.0874
  312MOL0     O42021   5.863  10.452  10.202 -0.6868  0.3456 -0.5384
  312MOL0     C42022   5.810  10.583  10.250 -0.7647 -0.1526 -0.4089
  312MOL0     C42023   5.659  10.576  10.262  0.1076  0.1187 -0.0231
  312MOL0     C42024   5.596  10.713  10.281  0.0382 -0.6304  0.1426
  312MOL0     C42025   5.451  10.716  10.245  0.6186 -0.4313 -0.3450
  312MOL0     C42026   5.382  10.855  10.231  0.0278 -0.2130 -0.9466
  312MOL0     C42027   5.231  10.839  10.187 -0.0166 -0.7989  0.2609
  312MOL0     C42028   5.163  10.972  10.137  0.2593  0.2446  0.8490
  312MOL0     C42029   5.180  11.079  10.243  0.4487 -0.1364 -0.1912
  312MOL0    Cl42030   5.091  11.226  10.204 -0.2367  0.0227 -0.4642
  312MOL0     C42031   6.093  10.531  10.235 -0.4929 -0.1227 -0.2827
  312MOL0     C42032   6.226  10.519  10.208 -0.0593 -0.5052 -0.3662
  312MOL0     O42033   6.397  10.173  10.284 -0.3482 -0.9920 -0.3072
  312MOL0     C42034   6.687  10.379  10.203  0.2135 -0.2844  0.8604
  312MOL0     C42035   6.826  10.375  10.175  0.0436  0.1532  0.2834
  312MOL0     N42036   7.606  10.595  10.236 -0.5770  0.0059  0.0258
  312MOL0     N42037   7.702  10.667  10.193 -0.4357 -0.5626 -0.0311
  312MOL0     C42038   8.780  10.791   9.824 -0.7319  0.5734  0.3249
  312MOL0     C42039   8.915  10.751   9.784 -0.6956  0.5642  0.0109
  312MOL0     C42040   9.332  10.532   9.861 -0.3052  0.2188 -0.0566
  312MOL0     C42041   9.398  10.413   9.905  0.6679 -0.6776 -0.5233
  312MOL0     C42042   9.535  10.412   9.904  0.8586  0.4392  0.5882
  312MOL0     C42043   9.616  10.523   9.870 -1.2897  0.3983  0.2473
  312MOL0     O42044   9.758  10.513   9.876  0.3853  0.2666 -0.0648
  312MOL0     C42045   9.836  10.605   9.798  0.0348 -0.5841 -0.4761
  312MOL0     C42046   9.979  10.605   9.851 -0.0704  0.5145 -0.2529
  312MOL0     C42047   9.990  10.713   9.965  0.2675  0.7902  0.6124
  312MOL0     C42048  10.121  10.691  10.054  0.3447 -0.3698 -0.2007
  312MOL0     C42049  10.235  10.701   9.968  0.1819 -0.2594  0.4545
  312MOL0     C42050  10.335  10.703   9.903  0.4192 -0.4579 -0.3841
  312MOL0     C42051   9.552  10.632   9.817 -0.1763  0.1132 -0.1916
  312MOL0     C42052   9.418  10.641   9.817 -0.1379  0.0268 -0.5555
  312MOL0     H42053   9.020  10.617  10.083  1.1015  0.3676  0.5496
  312MOL0     H42054   8.822  10.711  10.151 -1.8437  0.4340  0.1203
  312MOL0     H42055   8.595  10.628  10.077  1.4083  1.3655 -3.3158
  312MOL0     H42056   8.594  10.759  10.202 -0.2837  1.6583 -0.3156
  312MOL0     H42057   8.376  10.664  10.175 -0.2683 -0.1364  0.5494
  312MOL0     H42058   8.377  10.834  10.117 -1.7372 -1.2625  0.9351
  312MOL0     H42059   8.385  10.786   9.886 -0.1938  0.0209 -0.9672
  312MOL0     H42060   8.398  10.602   9.910  1.9627  1.8038 -2.3655
  312MOL0     H42061   8.169  10.792   9.951 -1.9800 -0.2818 -0.0742
  312MOL0     H42062   8.182  10.678   9.828  1.2099  0.5233  0.1789
  312MOL0     H42063   8.134  10.484   9.967  4.0463  0.2489 -1.8165
  312MOL0     H42064   8.186  10.575  10.114 -0.9310  1.4212  0.7213
  312MOL0     H42065   7.947  10.518  10.083 -1.4143 -0.7461 -1.0014
  312MOL0     H42066   7.993  10.692  10.110 -1.1841 -1.0687  1.1463
  312MOL0     H42067   7.961  10.681   9.837 -0.6149 -2.5650 -1.7728
  312MOL0     H42068   7.850  10.556   9.880 -0.4890 -0.0675 -0.2186
  312MOL0     H42069   7.731  10.797   9.895 -1.3314 -0.5753  1.9857
  312MOL0     H42070   7.849  10.828  10.023 -0.4136  0.2595  0.8729
  312MOL0     H42071   7.536  10.617   9.921  2.2854  0.1134 -0.6178
  312MOL0     H42072   7.419  10.384  10.093  2.2033 -2.0713  2.9493
  312MOL0     H42073   7.389  10.444  10.257  1.0231  0.9788  0.4814
  312MOL0     H42074   7.282  10.631  10.041 -2.7844  1.5807  2.4748
  312MOL0     H42075   7.240  10.629  10.204  2.9589  0.7128  1.2630
  312MOL0     H42076   7.178  10.412  10.006 -0.4122 -0.5750  0.0830
  312MOL0     H42077   7.063  10.526  10.072  1.0010  0.3566 -1.9402
  312MOL0     H42078   7.082  10.419  10.288 -0.2555 -1.7471  0.4197
  312MOL0     H42079   7.213  10.328  10.243  1.2181  1.2569  0.1276
  312MOL0     H42080   6.906  10.065  10.238  3.3306  2.0389  1.0792
  312MOL0     H42081   6.600  10.025  10.428  0.0696  2.4646 -0.0032
  312MOL0     H42082   6.567   9.976  10.254 -1.1597  0.8213  0.5009
  312MOL0     H42083   6.720   9.939  10.325 -0.8020 -0.8049 -0.0483
  312MOL0     H42084   6.198  10.190  10.089 -2.5814 -0.4220 -0.8497
  312MOL0     H42085   5.956  10.259  10.086 -0.9754  0.4667  0.4822
  312MOL0     H42086   5.855  10.606  10.347 -2.9825 -3.5500  1.6677
  312MOL0     H42087   5.830  10.665  10.181 -2.8521  0.5719 -0.2434
  312MOL0     H42088   5.618  10.529  10.172 -0.3868  2.7988 -1.3049
  312MOL0     H42089   5.638  10.516  10.351 -1.4110  1.5473  0.6261
  312MOL0     H42090   5.640  10.793  10.220 -1.3900 -0.1709 -0.3458
  312MOL0     H42091   5.595  10.731  10.389 -0.7244 -1.6581  0.3244
  312MOL0     H42092   5.438  10.670  10.147 -2.0309 -0.1695 -0.2081
  312MOL0     H42093   5.410  10.642  10.315  1.6164 -0.1831  0.5289
  312MOL0     H42094   5.443  10.917  10.165  1.8712 -0.2587  0.6281
  312MOL0     H42095   5.381  10.915  10.323 -0.0543 -1.7523  0.1075
  312MOL0     H42096   5.216  10.773  10.102 -0.4938 -0.8728  0.3989
  312MOL0     H42097   5.171  10.798  10.269  1.1516 -3.6753 -0.2311
  312MOL0     H42098   5.057  10.949  10.129  0.7391 -2.8336  1.9067
  312MOL0     H42099   5.203  10.984  10.036 -1.0026  1.9537  0.5036
  312MOL0     H42100   5.287  11.101  10.244  0.5138 -0.4049 -0.9314
  312MOL0     H42101   5.155  11.036  10.341  4.5512  0.4393  1.2842
  312MOL0     H42102   6.064  10.630  10.270 -0.0616  1.9353 -5.0255
  312MOL0     H42103   6.295  10.602  10.217 -0.5118  0.4722 -4.3131
  312MOL0     H42104   6.636  10.474  10.187 -2.5334 -1.2463  3.1737
  312MOL0     H42105   6.879  10.460  10.133 -0.7469  0.1547 -0.7638
  312MOL0     H42106   8.706  10.829   9.755 -1.7684 -2.7357 -0.5578
  312MOL0     H42107   8.953  10.762   9.683 -1.2496  0.1727 -0.2489
  312MOL0     H42108   9.348  10.325   9.945  0.8129 -0.6241 -0.2268
  312MOL0     H42109   9.579  10.317   9.933  1.3521  0.5200  0.1280
  312MOL0     H42110   9.843  10.567   9.696 -2.4495  0.3004 -1.0337
  312MOL0     H42111   9.795  10.706   9.798 -1.2697 -1.0808 -1.2902
  312MOL0     H42112  10.052  10.628   9.773  0.2505 -2.4686 -0.9455
  312MOL0     H42113  10.003  10.509   9.898  0.0561  0.7385  0.1369
  312MOL0     H42114   9.902  10.704  10.029 -0.8902  3.2037 -0.5333
  312MOL0     H42115   9.987  10.812   9.920  1.4970  0.9043  0.7322
  312MOL0     H42116  10.109  10.590  10.094  2.3318 -0.1850  1.0301
  312MOL0     H42117  10.140  10.759  10.138  1.8268 -1.1444  0.1306
  312MOL0     H42118  10.424  10.710   9.844 -1.2441  1.2233 -2.9088
  312MOL0     H42119   9.602  10.724   9.788 -1.3090  0.6545 -0.4514
  312MOL0     H42120   9.375  10.737   9.792 -0.0024  0.3819  0.5504
  313MOL0     O42121   8.425   5.467   8.625  0.0288 -0.2665  0.5325
  313MOL0     C42122   8.445   5.583   8.656  0.0664 -0.7615  0.7588
  313MOL0     O42123   8.356   5.673   8.711 -0.1104  0.1577  0.0437
  313MOL0     C42124   8.237   5.620   8.765  0.4676  0.4048  0.2993
  313MOL0     C42125   8.226   5.526   8.870 -0.7302  0.5902 -0.0779
  313MOL0     C42126   8.100   5.467   8.907 -0.2646 -0.3682 -0.1617
  313MOL0     C42127   7.985   5.505   8.836  0.0736  0.2076  0.2823
  313MOL0     O42128   7.866   5.439   8.859 -0.2871 -0.5038  0.9912
  313MOL0     C42129   7.870   5.306   8.816 -0.1480  1.2658  0.0978
  313MOL0     C42130   7.755   5.219   8.878  0.2667  0.1441  0.5243
  313MOL0     C42131   7.617   5.249   8.814  0.6477  0.0366 -0.3296
  313MOL0     C42132   7.507   5.176   8.900  0.2229 -0.0424  0.3104
  313MOL0     C42133   7.378   5.173   8.826 -0.1054 -0.4016  0.0635
  313MOL0     C42134   7.273   5.094   8.897  0.2233  0.5297 -0.0222
  313MOL0     C42135   7.163   5.035   8.807  0.2512 -0.1976 -0.1796
  313MOL0     C42136   7.078   4.924   8.868  1.3124 -1.6211  0.5832
  313MOL0     N42137   6.994   4.975   8.975 -0.8422 -0.4576  0.6069
  313MOL0     C42138   6.883   5.058   8.961 -0.0162  1.6091 -0.2964
  313MOL0     C42139   6.863   5.116   9.078  0.6696  0.1982 -1.0299
  313MOL0     C42140   6.747   5.187   9.129 -0.0157  0.4921  0.7354
  313MOL0     C42141   6.661   5.099   9.221  0.0475 -0.3373 -0.0181
  313MOL0     C42142   6.557   5.188   9.297  0.0356  0.3071  0.7029
  313MOL0     C42143   6.463   5.094   9.376 -0.5439 -0.8561 -0.4444
  313MOL0     O42144   6.371   5.168   9.455 -0.0752  0.4144 -0.0249
  313MOL0     C42145   6.244   5.169   9.404 -0.4371 -1.2177 -0.0254
  313MOL0     C42146   6.208   5.296   9.365  0.2265  0.8961 -0.0934
  313MOL0     C42147   6.076   5.315   9.319 -0.0295 -0.0192 -0.4964
  313MOL0     C42148   6.036   5.455   9.295 -0.2934  0.3672 -0.7405
  313MOL0     C42149   5.982   5.203   9.304  1.0157 -0.0017 -0.2641
  313MOL0     C42150   5.836   5.214   9.260 -0.1375  0.2703 -0.6158
  313MOL0     O42151   5.764   5.110   9.236  0.8112  1.4060  0.3296
  313MOL0     C42152   5.627   5.102   9.248  0.3730 -1.0480 -0.1513
  313MOL0     C42153   5.552   5.163   9.355  0.1669  0.6044 -0.1802
  313MOL0     C42154   5.411   5.157   9.356  0.9622  0.1036  0.0595
  313MOL0     C42155   5.336   5.069   9.271  0.0528  0.2471 -0.5065
  313MOL0     O42156   5.201   5.046   9.272 -0.3255 -0.7465 -0.6958
  313MOL0     C42157   5.117   5.144   9.333  0.7942 -0.0503  0.5282
  313MOL0     C42158   4.965   5.101   9.350  0.0241 -0.0025 -0.0098
  313MOL0     C42159   4.885   5.215   9.409  0.9629 -0.1020  0.3159
  313MOL0     C42160   4.734   5.183   9.399  0.1627  0.2073  0.3967
  313MOL0     C42161   4.651   5.282   9.487  0.5744 -0.7063 -0.2179
  313MOL0     C42162   4.501   5.255   9.470 -0.3716  0.0427  0.8282
  313MOL0     C42163   4.409   5.358   9.541  0.9576  0.2038  0.0223
  313MOL0     C42164   4.264   5.361   9.485 -0.6252 -0.1214  0.3236
  313MOL0    Cl42165   4.144   5.425   9.609 -0.4342  0.0627  0.3653
  313MOL0     C42166   5.417   4.988   9.194 -0.9895 -0.3858 -0.0632
  313MOL0     C42167   5.559   5.008   9.173  0.4197  0.5732 -0.0380
  313MOL0     O42168   5.786   5.329   9.257  0.5262 -0.3738 -0.5121
  313MOL0     C42169   6.033   5.083   9.336  0.4293  0.0756 -0.4038
  313MOL0     C42170   6.161   5.060   9.380  0.1928 -0.4794 -0.3076
  313MOL0     N42171   6.963   5.072   9.160 -0.7237  0.1707 -0.3425
  313MOL0     N42172   7.037   4.985   9.100  0.2420  0.5451 -0.9248
  313MOL0     C42173   8.004   5.598   8.732  0.2977  0.1619 -0.4124
  313MOL0     C42174   8.125   5.657   8.700  0.1340 -0.4634 -0.6541
  313MOL0     C42175   8.592   5.642   8.643  0.0154  1.3542  0.0015
  313MOL0     C42176   8.619   5.781   8.655 -0.0417  0.5413 -0.9003
  313MOL0     C42177   8.748   5.831   8.652 -0.5122  0.1152  0.2129
  313MOL0     C42178   8.849   5.740   8.639 -0.4769  0.7608 -0.4254
  313MOL0     O42179   8.978   5.775   8.651  0.4863  0.5577 -0.6403
  313MOL0     C42180   9.014   5.880   8.562 -0.4655 -0.7267  0.2140
  313MOL0     C42181   9.161   5.918   8.553 -0.2653  0.3761 -0.2705
  313MOL0     C42182   9.212   5.980   8.684  1.0520  0.7106  0.4922
  313MOL0     C42183   9.360   5.995   8.696 -0.5307 -0.4184 -0.4722
  313MOL0     C42184   9.409   6.061   8.576  0.0476  0.7095 -1.0921
  313MOL0     C42185   9.457   6.110   8.480 -0.3788  0.8495 -1.0203
  313MOL0     C42186   8.827   5.608   8.626 -0.0524 -0.0375  0.2116
  313MOL0     C42187   8.695   5.556   8.628  0.7832  0.6665  0.3346
  313MOL0     H42188   8.313   5.486   8.919 -0.6010  1.2156  0.2141
  313MOL0     H42189   8.087   5.392   8.985  1.9829 -2.2674 -1.4741
  313MOL0     H42190   7.860   5.307   8.707 -0.2806  2.3146  0.1057
  313MOL0     H42191   7.959   5.252   8.847 -1.2022 -2.5259 -2.7529
  313MOL0     H42192   7.775   5.112   8.881  0.7712  0.1013 -2.0591
  313MOL0     H42193   7.740   5.259   8.978  1.2756  2.0917 -0.0491
  313MOL0     H42194   7.589   5.354   8.813  0.9221  0.1747  1.5168
  313MOL0     H42195   7.622   5.197   8.718  1.8745 -0.4143 -0.0451
  313MOL0     H42196   7.526   5.069   8.912 -2.4302 -0.5624  0.6960
  313MOL0     H42197   7.494   5.219   9.000 -2.6730 -0.9928  0.4534
  313MOL0     H42198   7.337   5.274   8.817  0.4902  0.2189  3.3287
  313MOL0     H42199   7.402   5.124   8.731  2.8397 -0.1597  0.5890
  313MOL0     H42200   7.318   5.006   8.946  2.8506  1.3829 -0.7580
  313MOL0     H42201   7.239   5.156   8.980  2.6100  0.5545  1.0269
  313MOL0     H42202   7.106   5.116   8.760 -0.3308  0.4702  1.6043
  313MOL0     H42203   7.203   4.988   8.716 -0.4041  0.3920 -0.7897
  313MOL0     H42204   7.127   4.840   8.917 -1.2340 -2.0178  2.6620
  313MOL0     H42205   7.012   4.884   8.791  2.0396  0.6420 -1.3449
  313MOL0     H42206   6.828   5.065   8.868 -0.4418 -2.8860 -0.6051
  313MOL0     H42207   6.768   5.275   9.190 -2.1286  1.3721  0.2484
  313MOL0     H42208   6.693   5.236   9.048  1.1721  1.5109  0.5201
  313MOL0     H42209   6.732   5.052   9.289 -3.2055 -1.9659  2.5483
  313MOL0     H42210   6.618   5.023   9.154  0.4525 -2.0225  1.5453
  313MOL0     H42211   6.508   5.256   9.227 -2.1095  2.0649  3.6657
  313MOL0     H42212   6.612   5.245   9.373 -0.0164  0.9445  0.2671
  313MOL0     H42213   6.519   5.023   9.437 -1.1623 -1.9435 -1.1029
  313MOL0     H42214   6.409   5.032   9.303 -0.8880 -1.7142  0.5202
  313MOL0     H42215   6.272   5.383   9.371  0.5570  0.6967 -0.6926
  313MOL0     H42216   5.940   5.480   9.341 -1.2171 -3.6547 -0.0860
  313MOL0     H42217   6.115   5.522   9.332  2.1152 -2.4008 -0.4385
  313MOL0     H42218   6.036   5.467   9.187  2.1522 -0.6508 -0.9212
  313MOL0     H42219   5.605   5.229   9.423  0.4928 -0.9277  1.0930
  313MOL0     H42220   5.348   5.226   9.410 -1.7855 -0.9823 -1.5643
  313MOL0     H42221   5.151   5.168   9.434 -0.4914 -2.7888  1.7240
  313MOL0     H42222   5.119   5.236   9.274  4.1282  0.1799  0.8370
  313MOL0     H42223   4.926   5.081   9.249 -0.4378 -0.4929  0.2629
  313MOL0     H42224   4.974   5.014   9.416  2.7366  0.5976  0.5524
  313MOL0     H42225   4.909   5.311   9.361 -2.5217 -0.1473 -1.8931
  313MOL0     H42226   4.906   5.237   9.514 -3.8217 -0.1918  1.5012
  313MOL0     H42227   4.687   5.188   9.300 -0.6652  0.7603  0.8057
  313MOL0     H42228   4.711   5.079   9.424 -1.9235  0.4918 -0.1428
  313MOL0     H42229   4.663   5.384   9.448  1.4191 -0.5736  0.3655
  313MOL0     H42230   4.677   5.291   9.593  3.5787  2.7779 -1.0256
  313MOL0     H42231   4.480   5.239   9.364  0.8166 -1.4849  0.7957
  313MOL0     H42232   4.480   5.157   9.514 -0.0108 -1.3325 -1.8783
  313MOL0     H42233   4.455   5.457   9.530 -0.0232  0.6108 -0.6355
  313MOL0     H42234   4.415   5.336   9.647  1.4329  1.3951  0.2625
  313MOL0     H42235   4.243   5.256   9.464  0.0260 -0.4642  1.3018
  313MOL0     H42236   4.272   5.419   9.392 -4.1486 -0.1711 -0.1311
  313MOL0     H42237   5.370   4.910   9.135  1.7314 -3.6428  1.7268
  313MOL0     H42238   5.602   4.937   9.103  1.6194 -1.5948  2.7083
  313MOL0     H42239   5.965   4.998   9.332 -1.1419  1.2812 -0.3307
  313MOL0     H42240   6.198   4.962   9.410 -2.3699 -1.0424  1.3827
  313MOL0     H42241   7.915   5.634   8.680  1.8711  1.2466 -2.5034
  313MOL0     H42242   8.130   5.730   8.620 -1.5697 -0.8850 -1.1865
  313MOL0     H42243   8.542   5.857   8.662 -1.2429 -0.7125 -0.1095
  313MOL0     H42244   8.752   5.938   8.672  1.6920  0.1742 -0.2642
  313MOL0     H42245   8.978   5.861   8.460  1.0724 -0.3797 -0.4219
  313MOL0     H42246   8.959   5.969   8.593  0.7525 -0.1186  0.6847
  313MOL0     H42247   9.176   5.976   8.462 -0.1022 -0.5699 -0.8579
  313MOL0     H42248   9.223   5.829   8.541 -0.3671  0.2611  0.0476
  313MOL0     H42249   9.178   5.917   8.767 -0.4524 -1.6871 -1.7852
  313MOL0     H42250   9.168   6.080   8.688 -1.8707 -0.4838  0.8939
  313MOL0     H42251   9.406   5.898   8.716  0.5885  0.2487  0.2661
  313MOL0     H42252   9.373   6.056   8.786  1.6300 -1.7277  0.1788
  313MOL0     H42253   9.495   6.147   8.387  0.4756 -0.2789 -1.1408
  313MOL0     H42254   8.903   5.530   8.618  1.6600  0.8914  4.3539
  313MOL0     H42255   8.685   5.450   8.607  0.7384  0.4238  1.5369
  314MOL0     O42256   4.071   7.872   7.286 -0.0896 -0.5212 -0.0638
  314MOL0     C42257   4.187   7.835   7.246  0.8010 -0.1363 -0.6165
  314MOL0     O42258   4.213   7.792   7.121 -0.3921 -0.6299 -0.0698
  314MOL0     C42259   4.111   7.765   7.032  0.1947 -0.0342  0.3564
  314MOL0     C42260   4.078   7.855   6.925 -0.2460 -0.2767  0.1018
  314MOL0     C42261   3.993   7.836   6.825 -0.5483  0.4928  0.4863
  314MOL0     C42262   3.916   7.719   6.835  0.7437 -0.5307  0.2868
  314MOL0     O42263   3.810   7.678   6.749  0.4577  0.2615 -0.5751
  314MOL0     C42264   3.835   7.655   6.608 -0.8570 -0.2366 -0.3697
  314MOL0     C42265   3.775   7.746   6.504 -0.1532 -0.5577 -0.2596
  314MOL0     C42266   3.633   7.707   6.462  0.5839 -0.0475 -0.0059
  314MOL0     C42267   3.550   7.644   6.579 -1.3289 -0.3271 -0.3787
  314MOL0     C42268   3.402   7.638   6.541  0.2247  0.2521  0.0169
  314MOL0     C42269   3.324   7.671   6.672 -0.2234 -0.8205 -0.0098
  314MOL0     C42270   3.176   7.702   6.655 -0.5855 -0.2527 -0.1822
  314MOL0     C42271   3.157   7.826   6.562  0.7009  0.0756 -0.7296
  314MOL0     N42272   3.019   7.856   6.547  0.3691 -1.1858 -0.3715
  314MOL0     C42273   2.963   7.874   6.423 -0.7155  0.4122 -0.3066
  314MOL0     C42274   2.831   7.915   6.444  0.0373 -1.0186  0.1254
  314MOL0     C42275   2.734   7.952   6.344  0.1089  0.0606  0.0778
  314MOL0     C42276   2.631   7.843   6.328  0.3312 -0.4892 -0.4293
  314MOL0     C42277   2.540   7.830   6.453 -0.0702 -0.4061  1.3218
  314MOL0     C42278   2.418   7.739   6.428 -0.7041  0.7454  0.7941
  314MOL0     O42279   2.338   7.775   6.310 -0.4008 -0.0054  0.4707
  314MOL0     C42280   2.238   7.860   6.327  0.7742  0.2481  0.7617
  314MOL0     C42281   2.221   7.940   6.446 -0.0966 -0.1416  0.3836
  314MOL0     C42282   2.105   8.017   6.460  0.1325 -0.4180 -0.1889
  314MOL0     C42283   2.109   8.127   6.566  0.8369  0.1443 -0.5572
  314MOL0     C42284   1.996   8.005   6.372  0.3837  0.7677  0.2164
  314MOL0     C42285   1.871   8.072   6.400 -0.0247  0.0067  0.5916
  314MOL0     O42286   1.786   8.098   6.299 -0.1814 -0.0823  0.0582
  314MOL0     C42287   1.694   8.192   6.293 -0.0829  0.2877  0.4027
  314MOL0     C42288   1.708   8.332   6.311  1.6655  0.4372  0.2285
  314MOL0     C42289   1.592   8.417   6.310 -0.7221 -0.7887  0.4185
  314MOL0     C42290   1.471   8.381   6.266  0.0222  1.0409 -0.4276
  314MOL0     O42291   1.369   8.471   6.248  0.7397  0.1112 -0.3516
  314MOL0     C42292   1.237   8.428   6.216  1.0341 -0.6648  0.1942
  314MOL0     C42293   1.135   8.547   6.220  0.6192 -0.0805 -0.2897
  314MOL0     C42294   1.176   8.674   6.136 -0.0209  0.1942 -0.7057
  314MOL0     C42295   1.188   8.639   5.991 -0.5442 -0.6453 -0.2140
  314MOL0     C42296   1.262   8.757   5.929  0.0051  0.0825  0.0657
  314MOL0     C42297   1.208   8.788   5.785 -0.3020 -0.5284 -0.3454
  314MOL0     C42298   1.297   8.886   5.705  0.5422 -0.5168 -0.0852
  314MOL0     C42299   1.366   8.992   5.794  0.3600  0.1332 -0.0359
  314MOL0    Cl42300   1.244   9.117   5.831 -0.1854  0.1380  0.3478
  314MOL0     C42301   1.462   8.245   6.226  1.0444  0.2941  0.2862
  314MOL0     C42302   1.565   8.155   6.248 -0.5491  0.2552  0.1746
  314MOL0     O42303   1.840   8.098   6.518 -0.5738 -1.1027 -0.5423
  314MOL0     C42304   2.012   7.921   6.254 -0.2352 -0.6120 -0.4019
  314MOL0     C42305   2.127   7.856   6.233 -0.5380 -0.0685 -0.3679
  314MOL0     N42306   2.822   7.920   6.582  0.2934  0.0908 -0.0654
  314MOL0     N42307   2.925   7.871   6.647 -1.0335 -0.5074 -0.2931
  314MOL0     C42308   3.929   7.633   6.943 -0.5342 -0.7864  0.3599
  314MOL0     C42309   4.030   7.649   7.032 -1.1129  0.1472  0.0249
  314MOL0     C42310   4.296   7.862   7.339  0.0935 -0.3411  1.2247
  314MOL0     C42311   4.425   7.815   7.317 -0.3727  0.6831 -0.0039
  314MOL0     C42312   4.526   7.835   7.417 -0.6092 -0.6730  1.2176
  314MOL0     C42313   4.495   7.889   7.542  0.4404  0.0043  0.4981
  314MOL0     O42314   4.577   7.898   7.657  0.2198 -0.2847  0.4476
  314MOL0     C42315   4.717   7.904   7.634  0.0448  0.0390  0.0091
  314MOL0     C42316   4.787   7.933   7.768 -0.8508  0.9566 -0.4829
  314MOL0     C42317   4.769   8.072   7.833  0.0881  0.1367  0.4541
  314MOL0     C42318   4.743   8.190   7.736 -1.1742 -0.7229  0.0354
  314MOL0     C42319   4.757   8.314   7.814  0.0068  0.4292  0.1676
  314MOL0     C42320   4.798   8.422   7.863  0.2592  0.5242  0.2540
  314MOL0     C42321   4.368   7.930   7.562  0.2270 -0.4288 -0.5704
  314MOL0     C42322   4.273   7.924   7.462  0.2316  0.8411 -0.5024
  314MOL0     H42323   4.124   7.953   6.915 -1.0165  0.0416 -0.4714
  314MOL0     H42324   3.974   7.906   6.745 -2.1613  1.3948  1.6007
  314MOL0     H42325   3.943   7.667   6.601 -0.8218 -1.0386 -1.3608
  314MOL0     H42326   3.819   7.550   6.585 -1.3904 -0.7195  1.9562
  314MOL0     H42327   3.792   7.851   6.532  2.0541 -0.4384 -1.7608
  314MOL0     H42328   3.836   7.736   6.413 -0.0205 -0.2267 -0.2097
  314MOL0     H42329   3.580   7.802   6.450 -1.8919 -1.1445  1.5910
  314MOL0     H42330   3.631   7.656   6.365 -1.5744  0.3540 -0.2049
  314MOL0     H42331   3.582   7.548   6.622 -1.6403  0.7366  2.4110
  314MOL0     H42332   3.563   7.711   6.664  0.6353 -0.4433 -0.5336
  314MOL0     H42333   3.374   7.710   6.464 -0.6384 -0.0353  0.0438
  314MOL0     H42334   3.373   7.542   6.497 -3.6888  1.0528  0.4899
  314MOL0     H42335   3.340   7.590   6.743 -1.7517 -2.7838 -1.7803
  314MOL0     H42336   3.356   7.769   6.709 -1.9689  0.5152 -1.8437
  314MOL0     H42337   3.124   7.615   6.613  1.6788 -1.0268 -1.5548
  314MOL0     H42338   3.140   7.714   6.757  1.3647 -2.4808  0.8687
  314MOL0     H42339   3.195   7.816   6.460 -3.0942 -0.9200 -2.2205
  314MOL0     H42340   3.203   7.907   6.619 -1.4416  0.0950  1.1204
  314MOL0     H42341   3.017   7.866   6.330  0.0105 -0.7859  0.2038
  314MOL0     H42342   2.685   8.047   6.366 -0.1230  0.1890 -0.9286
  314MOL0     H42343   2.785   7.965   6.248  0.9015 -2.6960  0.0235
  314MOL0     H42344   2.689   7.752   6.308  0.8210  0.0016 -1.3088
  314MOL0     H42345   2.563   7.868   6.246  0.8112 -2.1909 -1.3833
  314MOL0     H42346   2.496   7.929   6.467 -0.7067  0.3456 -3.9434
  314MOL0     H42347   2.592   7.790   6.541 -0.1806  0.3827  1.7487
  314MOL0     H42348   2.373   7.726   6.527  0.1063 -0.0206  1.0757
  314MOL0     H42349   2.456   7.641   6.399 -0.9516  1.1476 -0.9872
  314MOL0     H42350   2.308   7.955   6.509  3.0763  1.7708 -3.9003
  314MOL0     H42351   2.061   8.080   6.653  0.4360 -0.3195 -1.0173
  314MOL0     H42352   2.212   8.152   6.590  0.2033 -0.1797  2.9587
  314MOL0     H42353   2.052   8.215   6.534 -0.7890 -0.7509 -0.2676
  314MOL0     H42354   1.795   8.375   6.360 -0.6358  1.7043  3.5372
  314MOL0     H42355   1.608   8.517   6.348  1.4680  0.2190 -2.7306
  314MOL0     H42356   1.236   8.383   6.116  1.3780  0.1192 -0.1682
  314MOL0     H42357   1.199   8.354   6.287 -3.1903  1.7274  0.7834
  314MOL0     H42358   1.034   8.514   6.196  0.9833 -0.9497 -0.6674
  314MOL0     H42359   1.142   8.582   6.324 -2.7971  0.7135 -0.2160
  314MOL0     H42360   1.268   8.719   6.174 -0.4740 -1.2732  2.4628
  314MOL0     H42361   1.104   8.756   6.145  0.8484  0.9930 -0.8948
  314MOL0     H42362   1.229   8.540   5.970 -1.7666 -0.9650 -1.2714
  314MOL0     H42363   1.089   8.632   5.944 -2.6859  3.0210  3.1230
  314MOL0     H42364   1.370   8.740   5.929  0.7305  3.6390  2.8119
  314MOL0     H42365   1.256   8.846   5.991  0.5681  0.5395 -0.5283
  314MOL0     H42366   1.196   8.691   5.736  1.1634 -1.1020  0.3772
  314MOL0     H42367   1.110   8.833   5.802 -0.3146 -1.0844  1.2701
  314MOL0     H42368   1.247   8.941   5.625  0.1572  1.3088  1.3511
  314MOL0     H42369   1.374   8.828   5.654  2.0819  0.5201  0.9430
  314MOL0     H42370   1.451   9.047   5.751  0.5187 -1.2971 -1.6174
  314MOL0     H42371   1.412   8.952   5.885 -1.2420 -1.5132  0.1033
  314MOL0     H42372   1.367   8.212   6.184  0.2118  1.8636  0.8503
  314MOL0     H42373   1.539   8.050   6.240 -0.0961  0.2106 -0.9760
  314MOL0     H42374   1.936   7.910   6.177  1.1770 -3.2533 -1.4995
  314MOL0     H42375   2.140   7.791   6.147 -0.7227 -1.0649  0.3435
  314MOL0     H42376   3.860   7.550   6.958 -1.8716  0.2374  0.0987
  314MOL0     H42377   4.053   7.565   7.097  0.0790  0.0707 -0.4817
  314MOL0     H42378   4.450   7.746   7.237  0.1118 -0.4031  1.0578
  314MOL0     H42379   4.625   7.790   7.409 -0.6556 -0.4791 -0.7326
  314MOL0     H42380   4.742   7.804   7.598 -4.9436 -1.8034  0.8137
  314MOL0     H42381   4.744   7.975   7.556  1.0757 -0.9926 -0.6072
  314MOL0     H42382   4.894   7.926   7.746 -1.0311  4.0804 -2.9910
  314MOL0     H42383   4.755   7.857   7.841 -1.0089 -0.1146 -1.6315
  314MOL0     H42384   4.861   8.088   7.891 -0.7111  4.6459  0.8177
  314MOL0     H42385   4.698   8.081   7.915  0.9499  2.0240  1.0623
  314MOL0     H42386   4.642   8.175   7.696 -1.5045 -0.7783  0.8626
  314MOL0     H42387   4.813   8.181   7.653  0.2139  0.5441  1.0148
  314MOL0     H42388   4.814   8.521   7.902 -1.2555  1.1545 -0.6336
  314MOL0     H42389   4.346   7.972   7.659  0.6575 -0.1036 -0.6065
  314MOL0     H42390   4.175   7.971   7.475  0.4752  1.1980  0.1475
  315MOL0     O42391  10.323   9.845   6.879 -1.0002 -0.4585  0.6120
  315MOL0     C42392  10.270   9.957   6.886  0.0658  1.3032  0.4235
  315MOL0     O42393  10.166  10.001   6.814  0.6213  0.8752 -0.6824
  315MOL0     C42394  10.104   9.914   6.729 -0.4889  0.3540  0.1260
  315MOL0     C42395  10.167   9.882   6.605 -0.0351  0.6581  0.3141
  315MOL0     C42396  10.101   9.805   6.515 -0.0828  0.3762  1.2081
  315MOL0     C42397   9.971   9.763   6.533  1.0122  0.7236  0.4941
  315MOL0     O42398   9.893   9.681   6.455  0.2124 -0.3750  0.5871
  315MOL0     C42399   9.945   9.649   6.330 -0.4254  1.0024  0.2937
  315MOL0     C42400   9.837   9.583   6.245  0.0228  0.1863  0.1086
  315MOL0     C42401   9.743   9.690   6.197  0.0635 -0.4474  0.2268
  315MOL0     C42402   9.612   9.619   6.133 -0.5875 -0.4641  1.1771
  315MOL0     C42403   9.502   9.721   6.119 -0.2389 -1.4537  0.7387
  315MOL0     C42404   9.366   9.654   6.081  1.0561  0.9695 -0.1401
  315MOL0     C42405   9.245   9.754   6.092  0.4464  0.0955  0.0299
  315MOL0     C42406   9.255   9.862   5.981 -0.2554 -0.0304  0.9328
  315MOL0     N42407   9.127   9.934   5.951 -0.8983  0.0189  0.3648
  315MOL0     C42408   9.002   9.877   5.946 -0.3585  0.7377 -0.6016
  315MOL0     C42409   8.918   9.981   5.915  0.0441 -0.4181  0.2425
  315MOL0     C42410   8.776   9.981   5.887  0.2704  0.4218 -0.0375
  315MOL0     C42411   8.689  10.106   5.885  0.3363 -0.3839 -0.7216
  315MOL0     C42412   8.536  10.083   5.858  0.2437 -0.4726 -0.3654
  315MOL0     C42413   8.447  10.199   5.880  0.2833  0.2388 -0.2908
  315MOL0     O42414   8.428  10.230   6.018  0.3849  0.4074  0.2541
  315MOL0     C42415   8.314  10.297   6.062  0.1350  0.8674 -0.2006
  315MOL0     C42416   8.290  10.298   6.197  0.2309 -0.9445 -0.7031
  315MOL0     C42417   8.172  10.366   6.251  1.2354 -0.0709  0.0909
  315MOL0     C42418   8.148  10.370   6.400 -0.2191 -0.4353  1.2181
  315MOL0     C42419   8.077  10.425   6.160 -0.4728 -0.6948  0.7937
  315MOL0     C42420   7.941  10.489   6.188 -0.7667  0.5842 -0.1666
  315MOL0     O42421   7.857  10.481   6.082  0.1457  0.0407 -0.0459
  315MOL0     C42422   7.731  10.538   6.074  0.8926 -0.0064 -0.7263
  315MOL0     C42423   7.621  10.466   6.013  0.0899 -0.5621 -0.3609
  315MOL0     C42424   7.499  10.525   6.006  0.2833  0.6800  1.0180
  315MOL0     C42425   7.465  10.653   6.058  0.1924  0.6589  0.1516
  315MOL0     O42426   7.342  10.703   6.043  0.6942 -0.0194  0.3340
  315MOL0     C42427   7.224  10.618   6.061  0.3862 -0.0041 -0.5154
  315MOL0     C42428   7.100  10.697   6.051  0.5154  0.9587  0.2724
  315MOL0     C42429   7.081  10.751   5.902 -0.0039 -0.4754  0.3003
  315MOL0     C42430   6.951  10.825   5.871  0.3980  1.0431  0.2023
  315MOL0     C42431   6.961  10.905   5.745 -0.0830  0.4279  0.1577
  315MOL0     C42432   6.925  11.054   5.783 -0.1378 -0.3493  1.1355
  315MOL0     C42433   6.896  11.127   5.653  0.0688 -0.2635 -1.1248
  315MOL0     C42434   6.824  11.269   5.670 -0.3652  0.5690  0.5479
  315MOL0    Cl42435   6.703  11.284   5.541 -0.1956 -0.1109 -0.4172
  315MOL0     C42436   7.566  10.715   6.130 -0.4322  0.5639  0.3550
  315MOL0     C42437   7.698  10.665   6.133 -0.8468  0.2327  0.8364
  315MOL0     O42438   7.915  10.533   6.297 -0.1860 -0.2790 -0.3105
  315MOL0     C42439   8.113  10.420   6.018  0.2729 -1.0587  0.3285
  315MOL0     C42440   8.227  10.351   5.975 -0.3497 -1.4055  1.3187
  315MOL0     N42441   8.992  10.100   5.919 -0.0103 -0.1915 -0.1743
  315MOL0     N42442   9.119  10.066   5.939  0.0151 -0.5849  0.6003
  315MOL0     C42443   9.905   9.790   6.648  0.5177  0.1445  0.2170
  315MOL0     C42444   9.971   9.863   6.743 -0.4953 -2.0542 -0.0478
  315MOL0     C42445  10.339  10.059   6.972 -1.0433  0.6564  0.2793
  315MOL0     C42446  10.324  10.196   6.953 -0.0870 -0.5483 -0.5939
  315MOL0     C42447  10.388  10.299   7.042 -0.4524  1.0469 -0.1253
  315MOL0     C42448  10.456  10.250   7.159  0.6086  0.5501  0.4258
  315MOL0     O42449  10.502  10.327   7.261 -0.6717 -0.1910  0.2944
  315MOL0     C42450  10.477  10.473   7.265  0.3005 -0.2449  0.1001
  315MOL0     C42451  10.539  10.533   7.394 -0.2092  0.9177  0.5622
  315MOL0     C42452  10.545  10.687   7.376  1.0448 -0.0467  0.6194
  315MOL0     C42453  10.682  10.731   7.428 -1.1040 -0.2127 -0.4954
  315MOL0     C42454  10.719  10.664   7.559  0.3559  0.7777 -0.6288
  315MOL0     C42455  10.713  10.610   7.671  0.0328 -0.5199  0.5894
  315MOL0     C42456  10.469  10.112   7.176 -0.3944  0.1077 -0.6221
  315MOL0     C42457  10.416  10.022   7.088  0.3606 -0.5877  0.1376
  315MOL0     H42458  10.262   9.927   6.579  0.3067 -0.1732  0.0956
  315MOL0     H42459  10.167   9.784   6.431  0.6820  0.9372  1.6541
  315MOL0     H42460   9.962   9.743   6.276  4.1352  0.2944  0.1186
  315MOL0     H42461  10.037   9.591   6.330  0.8319  2.8840  1.5420
  315MOL0     H42462   9.882   9.526   6.163  1.8897  1.2199  0.3629
  315MOL0     H42463   9.786   9.514   6.313  2.2233 -1.5039  0.1412
  315MOL0     H42464   9.714   9.754   6.280  0.2022 -0.6589  0.4408
  315MOL0     H42465   9.799   9.739   6.116  4.8651 -2.5153  1.9300
  315MOL0     H42466   9.635   9.579   6.034 -1.5970  3.0093 -0.6267
  315MOL0     H42467   9.579   9.534   6.194 -1.2168  0.5865  2.3617
  315MOL0     H42468   9.501   9.787   6.206 -0.3992 -3.4397  2.2943
  315MOL0     H42469   9.533   9.792   6.041 -1.9325 -0.6923  0.7082
  315MOL0     H42470   9.374   9.611   5.981 -1.5474  0.1931 -0.0979
  315MOL0     H42471   9.341   9.573   6.151  1.5532 -0.5373 -1.6242
  315MOL0     H42472   9.157   9.690   6.078  0.7183  0.0583 -1.7165
  315MOL0     H42473   9.243   9.806   6.188 -1.9707  1.8743 -0.8951
  315MOL0     H42474   9.284   9.810   5.889 -0.8038 -1.3515  1.4752
  315MOL0     H42475   9.335   9.928   6.014 -0.0528 -0.2452  0.8757
  315MOL0     H42476   8.970   9.778   5.978  0.4076  0.4203 -0.8036
  315MOL0     H42477   8.761   9.932   5.791 -1.9081 -0.1987  0.5524
  315MOL0     H42478   8.738   9.912   5.964  0.0591 -1.1629 -1.5173
  315MOL0     H42479   8.720  10.168   5.800 -0.2956 -0.3412 -0.9218
  315MOL0     H42480   8.698  10.161   5.979  1.4978 -4.2149  1.6508
  315MOL0     H42481   8.500   9.998   5.916  2.0047 -2.6816 -2.3292
  315MOL0     H42482   8.531  10.060   5.752  1.4290 -0.4906 -0.4320
  315MOL0     H42483   8.357  10.190   5.819 -0.7852  0.7129  1.1712
  315MOL0     H42484   8.488  10.293   5.844 -0.9928 -0.3326 -3.6271
  315MOL0     H42485   8.355  10.250   6.269  1.3646  1.0095 -0.3579
  315MOL0     H42486   8.238  10.328   6.446  0.4464 -1.2436 -0.7486
  315MOL0     H42487   8.116  10.468   6.435 -1.4342 -0.1523 -0.5769
  315MOL0     H42488   8.063  10.306   6.424 -0.6438  0.2585  1.5976
  315MOL0     H42489   7.655  10.371   5.973  0.7325 -0.3787 -0.2568
  315MOL0     H42490   7.422  10.462   5.963  1.0852 -0.7508  1.6025
  315MOL0     H42491   7.211  10.550   5.976  0.3110  0.1683 -0.6431
  315MOL0     H42492   7.224  10.569   6.159  1.6226 -0.6266 -0.7982
  315MOL0     H42493   7.020  10.624   6.058 -0.2414  1.7911  0.4752
  315MOL0     H42494   7.087  10.773   6.128  0.7409  1.4905 -0.2029
  315MOL0     H42495   7.082  10.673   5.825 -2.2498  1.3483 -1.7536
  315MOL0     H42496   7.164  10.819   5.885  0.4003 -1.3707 -1.5768
  315MOL0     H42497   6.882  10.741   5.857  1.5236 -0.3117  2.2368
  315MOL0     H42498   6.918  10.886   5.956 -2.7575  3.0280 -2.2248
  315MOL0     H42499   6.906  10.857   5.663  0.4729  2.6380 -1.5819
  315MOL0     H42500   7.062  10.904   5.704 -0.5647 -0.2393 -1.0630
  315MOL0     H42501   6.837  11.059   5.849 -1.3338  4.0620 -0.4116
  315MOL0     H42502   7.004  11.102   5.842  0.1415  0.5904  0.0383
  315MOL0     H42503   6.837  11.066   5.586 -1.4656  0.1365 -0.1891
  315MOL0     H42504   6.988  11.143   5.596  1.1373  0.3767  0.6724
  315MOL0     H42505   6.905  11.342   5.676  1.7437 -1.4924 -0.6401
  315MOL0     H42506   6.767  11.268   5.763  0.8741 -2.0564  1.3835
  315MOL0     H42507   7.538  10.812   6.170  2.6238  2.4082 -1.5004
  315MOL0     H42508   7.788  10.706   6.177  0.0375 -1.8085  1.0424
  315MOL0     H42509   8.052  10.476   5.947  1.6497  0.0892  0.0047
  315MOL0     H42510   8.243  10.357   5.868  1.3252  0.8529  1.6230
  315MOL0     H42511   9.801   9.763   6.665  0.7185  0.5471  2.4110
  315MOL0     H42512   9.921   9.893   6.835  1.9473 -0.4279  0.8607
  315MOL0     H42513  10.258  10.227   6.873  0.2120  1.3283 -0.1659
  315MOL0     H42514  10.382  10.399   7.001 -2.6962  0.4223 -1.5117
  315MOL0     H42515  10.518  10.526   7.179 -1.8477  0.2265 -0.6877
  315MOL0     H42516  10.369  10.490   7.276  0.3855  0.6270 -0.3858
  315MOL0     H42517  10.630  10.479   7.422 -0.4992 -0.7620 -1.5058
  315MOL0     H42518  10.463  10.514   7.470  1.1689 -1.9875  1.3485
  315MOL0     H42519  10.467  10.734   7.436 -0.9668  1.6668 -3.0182
  315MOL0     H42520  10.517  10.700   7.271  0.0708 -2.7322  0.4524
  315MOL0     H42521  10.685  10.839   7.442  0.6447 -0.0066 -2.1154
  315MOL0     H42522  10.764  10.715   7.358  1.3258  2.5727  1.5001
  315MOL0     H42523  10.694  10.548   7.756 -2.7272  1.8602  1.8912
  315MOL0     H42524  10.508  10.073   7.270 -1.0409 -2.3745 -1.3002
  315MOL0     H42525  10.436   9.917   7.107  0.4584 -0.9337 -1.6698
  316MOL0     O42526   8.025   9.558   2.307 -0.6280 -0.1609  0.0274
  316MOL0     C42527   8.052   9.577   2.425  0.9039 -0.0594  0.0832
  316MOL0     O42528   7.965   9.613   2.513 -0.7956 -0.1828  0.0698
  316MOL0     C42529   7.834   9.596   2.476 -0.1463 -0.6405  0.8143
  316MOL0     C42530   7.756   9.661   2.375 -0.9683  0.0540  0.4894
  316MOL0     C42531   7.625   9.643   2.346 -0.0444  0.0696 -1.0437
  316MOL0     C42532   7.554   9.557   2.434 -0.0633 -0.5022  1.2960
  316MOL0     O42533   7.425   9.530   2.407 -0.6117  0.8418  0.1871
  316MOL0     C42534   7.324   9.514   2.512 -0.4400 -0.0017  0.5885
  316MOL0     C42535   7.182   9.515   2.453  0.0995 -0.6489 -0.3431
  316MOL0     C42536   7.149   9.393   2.372 -0.6286  0.2119 -0.3382
  316MOL0     C42537   7.191   9.248   2.431  0.7620  0.1210 -0.0269
  316MOL0     C42538   7.216   9.155   2.311  0.2749 -1.1266 -0.9947
  316MOL0     C42539   7.092   9.089   2.251 -0.4395  0.1667  0.0209
  316MOL0     C42540   7.012   8.988   2.337 -0.4202  0.5820 -0.2648
  316MOL0     C42541   6.903   8.899   2.278 -0.5472  0.1814 -0.5473
  316MOL0     N42542   6.789   8.854   2.362 -0.7280  0.7289 -1.4772
  316MOL0     C42543   6.702   8.752   2.338  0.2489 -0.5040  0.8853
  316MOL0     C42544   6.592   8.788   2.414 -0.0393 -0.2579 -0.4469
  316MOL0     C42545   6.473   8.710   2.422 -0.4987  1.6220  0.2036
  316MOL0     C42546   6.370   8.759   2.322 -0.1837 -0.6086  0.4030
  316MOL0     C42547   6.248   8.662   2.321  1.0439  0.3129 -0.4432
  316MOL0     C42548   6.144   8.699   2.211 -0.3519  0.1836 -0.1070
  316MOL0     O42549   6.067   8.581   2.188  0.1720 -0.9495  0.1421
  316MOL0     C42550   5.936   8.596   2.145  0.5563 -0.6368  0.7953
  316MOL0     C42551   5.869   8.716   2.114 -0.1440  0.4040 -0.8043
  316MOL0     C42552   5.734   8.723   2.070 -0.5847  0.9289 -0.1232
  316MOL0     C42553   5.688   8.855   2.030 -0.1040 -1.3497 -0.1412
  316MOL0     C42554   5.666   8.597   2.061 -0.3421 -0.2033 -0.1312
  316MOL0     C42555   5.526   8.598   2.016  0.1830 -0.2832  0.7821
  316MOL0     O42556   5.479   8.665   1.905  0.1791  0.3401  0.1489
  316MOL0     C42557   5.342   8.677   1.882 -0.3633 -0.5278  0.6713
  316MOL0     C42558   5.276   8.603   1.778 -0.2109 -0.8025  0.0994
  316MOL0     C42559   5.143   8.629   1.752  1.6756 -0.4404  0.3375
  316MOL0     C42560   5.065   8.724   1.828 -0.4839  0.6170 -0.3997
  316MOL0     O42561   4.932   8.747   1.796  0.0748  0.2397 -0.1773
  316MOL0     C42562   4.858   8.854   1.855 -0.9138  0.2912 -0.6060
  316MOL0     C42563   4.720   8.868   1.800  0.1306  0.2521  0.2492
  316MOL0     C42564   4.635   8.964   1.880  0.1709 -0.3829  0.9598
  316MOL0     C42565   4.504   8.977   1.808 -0.0342 -0.2060 -0.7997
  316MOL0     C42566   4.505   9.105   1.721  0.8360 -0.0421 -0.1530
  316MOL0     C42567   4.425   9.096   1.592 -0.5719  0.9722  0.5171
  316MOL0     C42568   4.412   9.221   1.497  0.5677 -0.0620 -0.5011
  316MOL0     C42569   4.541   9.257   1.422  0.4485  0.4280  0.4343
  316MOL0    Cl42570   4.645   9.371   1.521 -0.4908  0.2196 -0.1903
  316MOL0     C42571   5.122   8.790   1.936  0.3695  0.2181  0.5282
  316MOL0     C42572   5.267   8.780   1.951 -0.1724  0.0065  0.3048
  316MOL0     O42573   5.454   8.535   2.092  0.1227 -0.5106  0.2752
  316MOL0     C42574   5.723   8.479   2.104 -0.3389  0.1217 -0.5494
  316MOL0     C42575   5.860   8.479   2.152 -0.2087  0.3527 -0.3252
  316MOL0     N42576   6.631   8.893   2.499  1.1543  0.1163 -0.7012
  316MOL0     N42577   6.751   8.930   2.468 -0.3911  0.9617  0.3948
  316MOL0     C42578   7.613   9.501   2.547 -0.7880 -0.0509  0.8842
  316MOL0     C42579   7.756   9.504   2.555  0.8302 -0.0957 -0.6249
  316MOL0     C42580   8.198   9.588   2.454  0.1891  0.5218 -0.1412
  316MOL0     C42581   8.291   9.549   2.362  0.0469 -0.2499  0.1030
  316MOL0     C42582   8.429   9.576   2.388 -0.4416  0.2332 -0.3637
  316MOL0     C42583   8.477   9.623   2.513  0.5325 -0.0738 -0.0848
  316MOL0     O42584   8.602   9.657   2.543 -0.1548 -0.2807 -0.6432
  316MOL0     C42585   8.704   9.638   2.443  0.0011  0.2754  0.1095
  316MOL0     C42586   8.845   9.656   2.487  0.3542  0.2662 -0.4223
  316MOL0     C42587   8.942   9.674   2.370  1.6840 -0.7696  1.3174
  316MOL0     C42588   9.082   9.672   2.427 -0.0375  0.1783  0.0680
  316MOL0     C42589   9.181   9.696   2.335 -0.0051  0.0082  0.7777
  316MOL0     C42590   9.270   9.728   2.257  0.3133  0.3798 -0.0319
  316MOL0     C42591   8.373   9.656   2.605 -0.7192 -0.4525 -0.2682
  316MOL0     C42592   8.239   9.642   2.575  0.4079  0.1616 -0.2369
  316MOL0     H42593   7.826   9.724   2.319 -1.7320  0.3537 -0.1483
  316MOL0     H42594   7.567   9.679   2.261 -0.1193  1.0593 -0.5925
  316MOL0     H42595   7.345   9.437   2.586 -0.6290 -0.9785 -0.3572
  316MOL0     H42596   7.320   9.608   2.568  0.2179  0.0985  0.4740
  316MOL0     H42597   7.111   9.528   2.535  0.9711 -4.4770  1.2345
  316MOL0     H42598   7.162   9.599   2.385  1.1691 -0.1343 -0.0298
  316MOL0     H42599   7.041   9.380   2.356 -0.5736 -2.8632  1.0182
  316MOL0     H42600   7.187   9.411   2.272  0.7594  2.2491  0.5018
  316MOL0     H42601   7.271   9.252   2.506 -0.2200 -1.2899  1.1673
  316MOL0     H42602   7.106   9.214   2.491 -0.1919  2.2019 -0.1006
  316MOL0     H42603   7.263   9.210   2.229  1.4372 -3.1061 -1.7294
  316MOL0     H42604   7.284   9.075   2.340  2.7507  1.3014  0.3666
  316MOL0     H42605   7.032   9.168   2.207 -1.8990 -0.5976  0.5641
  316MOL0     H42606   7.132   9.033   2.166  1.7978 -0.2387  1.2509
  316MOL0     H42607   7.085   8.916   2.375 -1.1428 -1.3852 -2.3679
  316MOL0     H42608   6.967   9.036   2.425 -0.3115 -2.8480  1.8423
  316MOL0     H42609   6.941   8.803   2.241 -2.9168 -0.7162 -0.7948
  316MOL0     H42610   6.860   8.950   2.191 -1.7227 -1.4556 -0.9590
  316MOL0     H42611   6.703   8.668   2.269 -0.2908  0.4944 -0.3791
  316MOL0     H42612   6.498   8.609   2.386 -4.6639  0.5776 -0.2154
  316MOL0     H42613   6.430   8.701   2.522 -1.7388 -1.4038 -0.4785
  316MOL0     H42614   6.413   8.764   2.221 -1.6253  3.0060 -0.2089
  316MOL0     H42615   6.336   8.861   2.343  1.2485  0.1333 -0.7042
  316MOL0     H42616   6.200   8.662   2.419  1.4729 -0.6970 -0.2221
  316MOL0     H42617   6.281   8.560   2.296 -0.8357  0.1011 -2.3211
  316MOL0     H42618   6.194   8.735   2.121 -0.0757 -0.1680 -0.0927
  316MOL0     H42619   6.076   8.773   2.255 -1.0200 -0.0672 -0.6912
  316MOL0     H42620   5.917   8.814   2.121  0.1013  0.3177 -1.2215
  316MOL0     H42621   5.712   8.866   1.924 -0.2218  0.9931  0.0361
  316MOL0     H42622   5.580   8.856   2.044 -0.2252 -2.1118 -0.9277
  316MOL0     H42623   5.734   8.930   2.094 -3.1247 -0.1555  0.7989
  316MOL0     H42624   5.346   8.545   1.718 -0.4067 -0.0746 -0.8753
  316MOL0     H42625   5.086   8.587   1.670 -1.3978  3.0076  0.4199
  316MOL0     H42626   4.852   8.839   1.963 -4.8678 -1.2759 -0.8464
  316MOL0     H42627   4.918   8.944   1.840  0.7056 -0.8714 -1.4122
  316MOL0     H42628   4.729   8.905   1.697 -0.3908 -0.4236 -0.0478
  316MOL0     H42629   4.663   8.775   1.806 -0.9822  0.8530 -0.5422
  316MOL0     H42630   4.686   9.061   1.886 -0.7730  0.1483  0.6328
  316MOL0     H42631   4.618   8.935   1.984 -0.4005 -0.3042  0.8903
  316MOL0     H42632   4.494   8.887   1.747  2.1047  0.4711 -2.2943
  316MOL0     H42633   4.423   8.975   1.882  1.8270 -2.7581  1.3819
  316MOL0     H42634   4.609   9.130   1.698 -0.2135  3.6400 -1.5980
  316MOL0     H42635   4.471   9.189   1.783  1.0737  1.7132 -2.2732
  316MOL0     H42636   4.465   9.017   1.529  3.7247  2.0637  1.5481
  316MOL0     H42637   4.329   9.061   1.631 -1.5229  3.4709  0.6251
  316MOL0     H42638   4.360   9.306   1.544 -1.4265 -2.4298  1.9256
  316MOL0     H42639   4.333   9.186   1.429 -2.5790 -0.3399  2.9559
  316MOL0     H42640   4.525   9.294   1.320 -0.1884 -2.1300 -0.4764
  316MOL0     H42641   4.588   9.166   1.384  0.8619  1.5156 -1.8191
  316MOL0     H42642   5.065   8.860   1.996 -0.3704  2.2272 -2.3350
  316MOL0     H42643   5.308   8.847   2.027  0.2838  0.4095 -0.2883
  316MOL0     H42644   5.664   8.389   2.108 -0.6021  0.1872 -2.2414
  316MOL0     H42645   5.917   8.392   2.184 -0.4199  0.8255  1.4334
  316MOL0     H42646   7.560   9.435   2.616 -1.2305 -1.6332 -0.8735
  316MOL0     H42647   7.804   9.442   2.630  1.9245 -1.0690 -2.0699
  316MOL0     H42648   8.248   9.531   2.263  1.5813  1.2579 -0.8848
  316MOL0     H42649   8.498   9.547   2.309 -0.2954  1.6283 -0.7605
  316MOL0     H42650   8.696   9.532   2.418 -1.1932  1.1955 -4.2212
  316MOL0     H42651   8.676   9.695   2.354 -0.2423 -1.2549 -0.8245
  316MOL0     H42652   8.876   9.573   2.551 -0.3071 -0.9209 -1.6045
  316MOL0     H42653   8.839   9.744   2.552 -0.2752 -1.2148  1.6388
  316MOL0     H42654   8.909   9.770   2.330  2.1755  0.6057  3.9418
  316MOL0     H42655   8.927   9.592   2.300  1.3300  2.3369 -2.5648
  316MOL0     H42656   9.089   9.575   2.477 -0.9352  0.1281  0.1067
  316MOL0     H42657   9.079   9.750   2.504 -2.4997  0.7728 -0.5470
  316MOL0     H42658   9.358   9.724   2.197  0.5604 -1.3952  0.3975
  316MOL0     H42659   8.413   9.683   2.703  1.2603 -1.3647 -0.7759
  316MOL0     H42660   8.158   9.680   2.635 -0.4200 -2.0503  0.1313
  317MOL0     O42661   6.243  10.680  10.528  0.4033 -0.5566  0.2600
  317MOL0     C42662   6.352  10.736  10.531 -0.5517 -0.2894 -0.1481
  317MOL0     O42663   6.373  10.867  10.510 -0.1465  0.1577 -0.9903
  317MOL0     C42664   6.267  10.939  10.453  0.2855  0.7573  0.3959
  317MOL0     C42665   6.231  10.905  10.316  0.2126  1.0489 -0.1796
  317MOL0     C42666   6.108  10.959  10.260 -0.0637 -0.2461 -0.2857
  317MOL0     C42667   6.028  11.048  10.338  0.1211  0.5304  0.1740
  317MOL0     O42668   5.918  11.116  10.293 -0.4547 -0.2642  0.6583
  317MOL0     C42669   5.861  11.094  10.163 -0.2401  0.1257  0.3236
  317MOL0     C42670   5.731  11.156  10.136  0.2761  0.0725  0.7889
  317MOL0     C42671   5.644  11.092  10.025 -1.1403  0.4029 -0.0406
  317MOL0     C42672   5.706  11.112   9.885 -0.1001  0.4796 -0.5155
  317MOL0     C42673   5.591  11.079   9.789  0.2959  0.0287 -0.2517
  317MOL0     C42674   5.618  11.123   9.642 -0.5025 -0.2966  0.7362
  317MOL0     C42675   5.495  11.095   9.563  0.1656  0.0073 -0.0075
  317MOL0     C42676   5.496  11.133   9.417  0.2752 -0.0200  0.3760
  317MOL0     N42677   5.370  11.095   9.345  0.2720  0.5587  1.0125
  317MOL0     C42678   5.246  11.148   9.365  0.6214 -0.4019 -0.3346
  317MOL0     C42679   5.164  11.087   9.267  0.4374 -0.8348  0.9854
  317MOL0     C42680   5.016  11.106   9.245 -0.7094  0.6640 -0.1844
  317MOL0     C42681   4.919  10.996   9.283 -0.4393 -0.1676 -0.0214
  317MOL0     C42682   4.936  10.882   9.188 -0.2807  0.5815 -0.9217
  317MOL0     C42683   4.815  10.783   9.200  0.9508 -0.2718  0.1341
  317MOL0     O42684   4.697  10.849   9.160  0.3303 -0.0670 -0.3510
  317MOL0     C42685   4.580  10.779   9.157  0.0824  0.1338 -0.6963
  317MOL0     C42686   4.457  10.855   9.145 -0.2508 -0.3945  0.5547
  317MOL0     C42687   4.331  10.795   9.143 -0.1210  0.0323  0.2629
  317MOL0     C42688   4.213  10.889   9.152  0.8485  0.3858 -0.3149
  317MOL0     C42689   4.330  10.652   9.146 -0.6594  0.1173 -0.6370
  317MOL0     C42690   4.208  10.569   9.148  0.5897  0.1791  0.9811
  317MOL0     O42691   4.208  10.438   9.176  0.2190 -0.2870  1.0584
  317MOL0     C42692   4.088  10.370   9.203 -0.8770 -0.3217 -0.3901
  317MOL0     C42693   4.057  10.318   9.329 -0.3706  0.7175  0.0441
  317MOL0     C42694   3.941  10.248   9.354 -0.0779 -0.8283 -0.2872
  317MOL0     C42695   3.841  10.242   9.264 -0.5801  0.1049  0.6213
  317MOL0     O42696   3.730  10.173   9.293 -0.0016 -0.6656  0.1794
  317MOL0     C42697   3.634  10.143   9.192  0.0446 -0.0385  0.5936
  317MOL0     C42698   3.492  10.107   9.249  1.3478 -0.6403  0.0684
  317MOL0     C42699   3.483   9.948   9.257 -0.8711 -0.5268  0.1290
  317MOL0     C42700   3.434   9.885   9.126  0.2054  1.0471  0.4112
  317MOL0     C42701   3.287   9.925   9.099 -0.8559  0.1799 -0.0425
  317MOL0     C42702   3.211   9.888   9.234 -0.1835 -0.5562 -0.0526
  317MOL0     C42703   3.057   9.903   9.212 -0.3428 -0.7698  0.2291
  317MOL0     C42704   3.015  10.054   9.222 -0.0852  0.3941 -0.0862
  317MOL0    Cl42705   3.014  10.098   9.400  0.4920 -0.3728  0.2089
  317MOL0     C42706   3.867  10.299   9.139  0.3517  0.0327  0.3474
  317MOL0     C42707   3.991  10.357   9.108 -0.1123  0.0064 -0.3614
  317MOL0     O42708   4.106  10.629   9.110 -0.3780  0.3312 -0.1457
  317MOL0     C42709   4.450  10.582   9.145 -0.5196  0.3457 -0.3232
  317MOL0     C42710   4.575  10.644   9.146  0.1294  0.6835 -0.3653
  317MOL0     N42711   5.245  11.003   9.198 -0.2202 -0.4386  0.6886
  317MOL0     N42712   5.361  11.001   9.245  0.1391  0.4586 -0.4551
  317MOL0     C42713   6.084  11.079  10.468  1.0613  0.5925 -0.3912
  317MOL0     C42714   6.197  11.024  10.527 -1.6761 -0.1987 -0.3879
  317MOL0     C42715   6.480  10.660  10.558  0.4451 -0.1168 -1.3696
  317MOL0     C42716   6.488  10.523  10.525 -0.3520 -0.6727 -0.5324
  317MOL0     C42717   6.601  10.439  10.557  0.2712  0.5921  0.4970
  317MOL0     C42718   6.702  10.499  10.633  0.2931 -0.1356 -0.3429
  317MOL0     O42719   6.810  10.427  10.676  0.4720  0.5865  0.6935
  317MOL0     C42720   6.856  10.322  10.592  0.7135 -0.2313  0.6149
  317MOL0     C42721   6.998  10.274  10.612  0.5437 -0.0728 -0.1318
  317MOL0     C42722   7.029  10.139  10.542 -0.6694 -0.2174 -0.0135
  317MOL0     C42723   6.991  10.017  10.626 -0.4835  0.5744  1.5510
  317MOL0     C42724   6.979   9.907  10.532 -0.2868 -0.6104 -0.3167
  317MOL0     C42725   6.972   9.814  10.456  0.0690  0.6263 -0.4773
  317MOL0     C42726   6.698  10.633  10.671  0.4952 -0.7289 -0.3672
  317MOL0     C42727   6.586  10.711  10.645 -0.2079  1.2543 -0.0814
  317MOL0     H42728   6.281  10.833  10.252 -2.3491 -0.4530 -0.6321
  317MOL0     H42729   6.089  10.941  10.155 -0.8324 -1.6574  0.0749
  317MOL0     H42730   5.927  11.144  10.092  0.0199  1.5994  1.5382
  317MOL0     H42731   5.845  10.988  10.141  0.3136 -0.1896  1.3586
  317MOL0     H42732   5.675  11.159  10.230 -1.5808 -3.2926 -0.0614
  317MOL0     H42733   5.749  11.260  10.105 -1.9340 -0.7085 -4.0170
  317MOL0     H42734   5.618  10.986  10.036 -0.2876  0.1646 -0.2377
  317MOL0     H42735   5.547  11.142  10.023 -2.0334 -0.9702  3.1370
  317MOL0     H42736   5.739  11.216   9.879 -2.0952  1.4078  2.0652
  317MOL0     H42737   5.790  11.045   9.869 -1.0320 -0.5120 -1.4446
  317MOL0     H42738   5.563  10.974   9.795 -1.9615  0.5023 -1.3266
  317MOL0     H42739   5.498  11.134   9.808 -0.8985 -1.7878 -0.5774
  317MOL0     H42740   5.636  11.230   9.655 -2.3178  0.0822  0.4687
  317MOL0     H42741   5.707  11.081   9.594 -0.7781  1.5421 -1.5390
  317MOL0     H42742   5.471  10.988   9.564  1.4445 -0.3846 -2.4015
  317MOL0     H42743   5.413  11.154   9.603 -1.0075  0.7777 -3.3036
  317MOL0     H42744   5.583  11.080   9.376  0.0616  0.2862 -0.5165
  317MOL0     H42745   5.498  11.241   9.398 -1.5285  0.3857  2.1764
  317MOL0     H42746   5.214  11.215   9.444  2.8750 -1.0461  1.2392
  317MOL0     H42747   4.990  11.198   9.299  1.6878  2.0960 -1.3367
  317MOL0     H42748   4.998  11.112   9.137  4.0333  0.7162 -1.1998
  317MOL0     H42749   4.817  11.034   9.275 -0.4064 -0.3800 -1.6896
  317MOL0     H42750   4.930  10.955   9.384  0.3332  0.1313  0.0255
  317MOL0     H42751   5.027  10.824   9.207 -1.1065 -0.5641 -0.3648
  317MOL0     H42752   4.956  10.920   9.087  0.8805  1.8339 -0.2643
  317MOL0     H42753   4.808  10.751   9.304 -1.6280 -2.1101 -0.5119
  317MOL0     H42754   4.838  10.706   9.125 -1.0388  0.4568 -1.3262
  317MOL0     H42755   4.475  10.962   9.152 -2.5232  0.0270  0.9428
  317MOL0     H42756   4.133  10.850   9.089 -0.2421 -1.0223  1.8127
  317MOL0     H42757   4.174  10.895   9.254  2.1045  1.6725  0.1401
  317MOL0     H42758   4.248  10.983   9.109  0.3207 -0.4586 -2.7295
  317MOL0     H42759   4.124  10.327   9.414 -2.3677 -2.5062  2.1956
  317MOL0     H42760   3.922  10.212   9.455 -1.4524  1.5645  0.3873
  317MOL0     H42761   3.619  10.230   9.128  3.0520  0.4570  0.4336
  317MOL0     H42762   3.660  10.055   9.132 -1.5271 -0.7434  0.8853
  317MOL0     H42763   3.475  10.156   9.345  0.2973  2.3276 -1.5009
  317MOL0     H42764   3.414  10.150   9.185 -0.9150 -2.8562  1.1636
  317MOL0     H42765   3.434   9.904   9.345 -1.3983 -1.2595 -0.5154
  317MOL0     H42766   3.587   9.914   9.263  0.0117  1.9829 -0.0436
  317MOL0     H42767   3.498   9.916   9.043  0.8373  2.1270  1.2577
  317MOL0     H42768   3.446   9.777   9.130 -0.3578  1.0051  1.2262
  317MOL0     H42769   3.262   9.855   9.019  0.9863  1.4440 -1.8043
  317MOL0     H42770   3.266  10.027   9.065 -0.8722 -0.0700 -0.7963
  317MOL0     H42771   3.227   9.782   9.256 -0.6334 -0.3187  1.6276
  317MOL0     H42772   3.245   9.942   9.323 -0.0662 -1.8409  0.7208
  317MOL0     H42773   3.006   9.852   9.295 -2.1451  2.6077  1.3614
  317MOL0     H42774   3.031   9.853   9.119  1.9882  2.4517 -2.3977
  317MOL0     H42775   2.908  10.057   9.199 -0.2376 -0.2773  0.5295
  317MOL0     H42776   3.056  10.122   9.146 -0.3234  0.3273 -0.2747
  317MOL0     H42777   3.799  10.299   9.054  2.5206  1.9111 -1.5028
  317MOL0     H42778   4.018  10.395   9.010  0.7852 -0.3570 -0.2643
  317MOL0     H42779   4.439  10.474   9.139 -3.0807  0.6323 -3.0407
  317MOL0     H42780   4.669  10.592   9.130 -0.1953  0.4242 -1.5223
  317MOL0     H42781   6.028  11.146  10.532 -1.5379 -2.9002  1.3511
  317MOL0     H42782   6.224  11.045  10.630  1.2395  1.6249 -1.4049
  317MOL0     H42783   6.404  10.486  10.467  0.3938 -1.8113 -0.9107
  317MOL0     H42784   6.600  10.333  10.534  2.0424  0.8013 -0.7261
  317MOL0     H42785   6.795  10.233  10.608  3.0651 -2.0289  0.1163
  317MOL0     H42786   6.857  10.365  10.491  0.9100  1.7366  1.4100
  317MOL0     H42787   7.019  10.262  10.718 -1.5468  1.8550  0.5820
  317MOL0     H42788   7.070  10.347  10.574  3.1870 -1.6373  1.5781
  317MOL0     H42789   7.137  10.133  10.524 -0.7920 -1.2936 -0.4975
  317MOL0     H42790   6.971  10.142  10.450  1.6419  0.6596 -1.5177
  317MOL0     H42791   6.895  10.034  10.676 -1.9673  0.2956 -0.9914
  317MOL0     H42792   7.062   9.982  10.701  1.8463 -0.3402 -0.8908
  317MOL0     H42793   6.963   9.727  10.394  2.5653 -0.2075  0.1954
  317MOL0     H42794   6.785  10.679  10.716  1.1661 -1.9306 -0.3877
  317MOL0     H42795   6.600  10.811  10.684  3.6123  1.9622 -2.7134
  318MOL0     O42796   4.144   5.808   6.064  0.2376  0.2065  0.3192
  318MOL0     C42797   4.154   5.925   6.101 -0.5730 -0.0551 -0.9936
  318MOL0     O42798   4.061   5.992   6.178 -0.5551  0.6963  0.7586
  318MOL0     C42799   3.948   5.931   6.220  0.0289  0.6719 -0.3102
  318MOL0     C42800   3.919   5.941   6.354 -0.7193  0.1488  0.2548
  318MOL0     C42801   3.820   5.855   6.409  0.6627 -0.3770 -0.2053
  318MOL0     C42802   3.741   5.770   6.325 -0.2284  0.0118  0.1968
  318MOL0     O42803   3.644   5.687   6.386 -0.3296  0.3904 -0.0547
  318MOL0     C42804   3.531   5.643   6.305 -0.4056 -0.4210  0.9136
  318MOL0     C42805   3.453   5.529   6.379 -0.8219 -0.7479  0.3775
  318MOL0     C42806   3.338   5.460   6.299  0.1690  0.1478 -0.0628
  318MOL0     C42807   3.256   5.373   6.403  0.7740 -0.1023 -0.5782
  318MOL0     C42808   3.202   5.250   6.332  0.1872 -0.3817 -0.1838
  318MOL0     C42809   3.109   5.288   6.219  0.2254 -0.1236 -0.1767
  318MOL0     C42810   3.076   5.156   6.150  0.6917 -0.3482 -0.2108
  318MOL0     C42811   2.966   5.078   6.221 -0.6257 -0.0217  0.4239
  318MOL0     N42812   2.833   5.137   6.182 -0.0927 -0.0263 -0.5841
  318MOL0     C42813   2.764   5.106   6.073  0.7986 -0.6631  0.9619
  318MOL0     C42814   2.637   5.172   6.084  0.4726  0.0230 -1.1179
  318MOL0     C42815   2.520   5.163   5.984 -0.2746  0.3652 -0.0479
  318MOL0     C42816   2.422   5.049   6.028 -0.3362  0.2449 -0.2295
  318MOL0     C42817   2.324   4.999   5.920 -0.4933  1.2265 -0.4395
  318MOL0     C42818   2.197   5.073   5.922  0.1713  0.4910 -0.2706
  318MOL0     O42819   2.114   5.050   5.804  0.2659  0.1041  0.0911
  318MOL0     C42820   1.991   5.105   5.797  0.6666 -0.0995 -0.6247
  318MOL0     C42821   1.949   5.226   5.868 -0.9833  0.4573  0.8048
  318MOL0     C42822   1.815   5.275   5.844 -0.1792  0.0248 -0.2013
  318MOL0     C42823   1.787   5.413   5.908  0.9422 -0.0784  0.1692
  318MOL0     C42824   1.712   5.207   5.769 -0.1208 -0.3764  0.5050
  318MOL0     C42825   1.565   5.240   5.743 -0.0341  0.1603 -0.8291
  318MOL0     O42826   1.483   5.164   5.662  0.1691 -0.0752 -0.1420
  318MOL0     C42827   1.347   5.182   5.670  1.2880 -0.1122  0.0356
  318MOL0     C42828   1.283   5.149   5.794 -0.3633 -0.3040  0.5605
  318MOL0     C42829   1.144   5.143   5.803  0.1551 -0.8303  0.1602
  318MOL0     C42830   1.071   5.168   5.688 -0.6951 -0.2751 -0.6361
  318MOL0     O42831   0.933   5.176   5.685 -0.2848 -0.4403  0.2698
  318MOL0     C42832   0.849   5.115   5.789  0.3888  0.0733  0.9197
  318MOL0     C42833   0.708   5.134   5.743 -0.3343 -0.5220  0.5608
  318MOL0     C42834   0.675   5.282   5.721 -0.5899  0.3420  0.0726
  318MOL0     C42835   0.520   5.300   5.691  0.5815  0.1623  0.3188
  318MOL0     C42836   0.464   5.450   5.684 -0.3204  0.2131  0.4304
  318MOL0     C42837   0.308   5.455   5.667 -1.0712 -0.5825  0.4163
  318MOL0     C42838   0.261   5.412   5.527  0.3638 -0.4122 -0.1027
  318MOL0     C42839   0.153   5.507   5.479 -0.5332 -0.4614 -0.0417
  318MOL0    Cl42840   0.015   5.527   5.606 -0.0506  0.0841 -0.1908
  318MOL0     C42841   1.136   5.194   5.569 -0.8313 -0.1185  0.8274
  318MOL0     C42842   1.269   5.199   5.560  0.0622  0.0704  1.1275
  318MOL0     O42843   1.527   5.345   5.801  0.2201 -0.6657  0.1035
  318MOL0     C42844   1.765   5.094   5.704 -0.3123  0.2747  0.3719
  318MOL0     C42845   1.900   5.047   5.711 -0.4478  0.7432 -0.5411
  318MOL0     N42846   2.634   5.230   6.211 -0.6123 -0.5388 -0.4445
  318MOL0     N42847   2.748   5.198   6.270  0.3428  0.2411 -0.7572
  318MOL0     C42848   3.766   5.773   6.183 -0.7530  1.6525 -0.1472
  318MOL0     C42849   3.871   5.847   6.133 -0.4327  0.5047 -0.3816
  318MOL0     C42850   4.273   6.003   6.054 -1.2022 -0.3587 -0.1270
  318MOL0     C42851   4.401   5.939   6.043  0.3729  1.0149 -0.0519
  318MOL0     C42852   4.515   6.004   5.990  0.1070 -0.2938 -0.5481
  318MOL0     C42853   4.509   6.137   5.950  0.1520 -0.5281 -0.0091
  318MOL0     O42854   4.605   6.216   5.895 -0.6168  0.2916 -0.0424
  318MOL0     C42855   4.744   6.164   5.891 -0.0941 -0.3719  0.2095
  318MOL0     C42856   4.853   6.273   5.890  0.5337  0.1186 -0.9924
  318MOL0     C42857   4.830   6.393   5.979  0.4821 -0.4445 -1.1325
  318MOL0     C42858   4.953   6.477   5.987 -0.1307 -0.5285 -0.0899
  318MOL0     C42859   5.006   6.519   5.858  0.1913 -0.2031 -0.6702
  318MOL0     C42860   5.070   6.549   5.763  0.2815  0.0959  0.5221
  318MOL0     C42861   4.388   6.198   5.959 -0.2074 -0.2575 -1.3304
  318MOL0     C42862   4.267   6.127   6.001 -0.2132 -0.8987 -0.1165
  318MOL0     H42863   3.980   6.005   6.417  1.7554 -0.3132 -1.5217
  318MOL0     H42864   3.813   5.852   6.518 -1.8510 -0.8002 -0.3177
  318MOL0     H42865   3.463   5.727   6.295 -0.6627 -0.5795  1.3027
  318MOL0     H42866   3.559   5.610   6.205  2.4403  0.4854  1.3189
  318MOL0     H42867   3.529   5.450   6.388  2.6150  1.9942 -1.6383
  318MOL0     H42868   3.409   5.562   6.473 -1.3349  0.9800 -0.4339
  318MOL0     H42869   3.268   5.537   6.265 -0.4659  0.0140  0.8945
  318MOL0     H42870   3.367   5.401   6.212 -0.1350 -0.2316  0.0938
  318MOL0     H42871   3.320   5.345   6.487  0.3350  0.3878 -0.0699
  318MOL0     H42872   3.169   5.433   6.430  0.3290 -0.8738 -0.2620
  318MOL0     H42873   3.286   5.192   6.293 -0.2701 -1.7990  0.8493
  318MOL0     H42874   3.149   5.187   6.405  0.9072 -0.1624  0.5481
  318MOL0     H42875   3.017   5.333   6.258 -1.3844 -2.1204 -1.4738
  318MOL0     H42876   3.149   5.368   6.155 -0.9986 -0.0343 -0.8460
  318MOL0     H42877   3.033   5.177   6.052 -0.7330 -1.3517  0.1669
  318MOL0     H42878   3.158   5.084   6.147  0.6489 -0.5975  2.3870
  318MOL0     H42879   2.975   5.074   6.330  1.2226  0.6436  0.3336
  318MOL0     H42880   2.968   4.978   6.176 -1.0145  0.4886 -0.7806
  318MOL0     H42881   2.801   5.046   5.990  1.9275  0.7594  0.4003
  318MOL0     H42882   2.476   5.263   5.975 -0.0669  0.6422  1.7189
  318MOL0     H42883   2.569   5.122   5.895 -0.6692 -4.0136  1.5391
  318MOL0     H42884   2.371   5.066   6.124  1.2709 -0.6711  0.8491
  318MOL0     H42885   2.486   4.963   6.053 -0.9426 -0.2993 -0.5285
  318MOL0     H42886   2.295   4.902   5.960  1.9356  1.2486  1.5624
  318MOL0     H42887   2.382   4.995   5.827 -0.0479 -2.7084 -0.1494
  318MOL0     H42888   2.220   5.180   5.924  0.9755  0.3136  0.6209
  318MOL0     H42889   2.149   5.053   6.018  2.2676  0.7660  0.8990
  318MOL0     H42890   2.016   5.285   5.929 -0.0977  0.4104 -0.0885
  318MOL0     H42891   1.698   5.412   5.970  1.1138 -0.2354  0.4134
  318MOL0     H42892   1.869   5.451   5.970 -0.5250  1.5410  1.2259
  318MOL0     H42893   1.772   5.479   5.822  2.0766  0.7500  0.5781
  318MOL0     H42894   1.343   5.143   5.885 -0.5151  0.2100  0.7006
  318MOL0     H42895   1.097   5.118   5.897 -1.7654 -1.3834 -0.8761
  318MOL0     H42896   0.882   5.011   5.779  1.5519  0.6314 -1.7690
  318MOL0     H42897   0.870   5.148   5.891  0.9652 -0.0265  0.8385
  318MOL0     H42898   0.699   5.077   5.650  3.4706 -0.2451 -0.1112
  318MOL0     H42899   0.651   5.081   5.821 -1.4051 -2.8814 -1.6810
  318MOL0     H42900   0.743   5.319   5.644 -1.1040  1.0757 -0.0433
  318MOL0     H42901   0.691   5.328   5.819 -0.0745 -1.3200  0.7999
  318MOL0     H42902   0.501   5.255   5.593 -1.1161  2.0628 -0.2774
  318MOL0     H42903   0.459   5.253   5.768  3.9057 -2.4440  1.6026
  318MOL0     H42904   0.510   5.519   5.613  1.6751 -1.9224 -0.4520
  318MOL0     H42905   0.477   5.499   5.781  1.1393  0.7209  0.0046
  318MOL0     H42906   0.267   5.388   5.742 -1.7136  0.0991  0.6889
  318MOL0     H42907   0.274   5.558   5.688  2.0548  1.6266 -3.8033
  318MOL0     H42908   0.227   5.308   5.536 -0.6126  0.0607  2.4366
  318MOL0     H42909   0.336   5.421   5.448  0.0843 -3.3169 -0.8289
  318MOL0     H42910   0.097   5.469   5.393 -2.6012 -0.1037  1.0920
  318MOL0     H42911   0.203   5.603   5.463  0.1057 -0.9418 -1.0978
  318MOL0     H42912   1.072   5.218   5.484 -0.2079 -2.1543 -0.2981
  318MOL0     H42913   1.314   5.235   5.468 -4.2332 -0.3422 -1.4261
  318MOL0     H42914   1.693   5.048   5.636  1.1649  0.9941 -1.7845
  318MOL0     H42915   1.942   4.967   5.652 -0.4264  0.4681 -0.1598
  318MOL0     H42916   3.712   5.713   6.111  1.7722 -1.7435  0.5601
  318MOL0     H42917   3.893   5.832   6.027  1.1253 -2.9097  0.2863
  318MOL0     H42918   4.422   5.835   6.068 -1.3488  0.5431 -0.4498
  318MOL0     H42919   4.611   5.954   5.992  0.2238 -0.0743 -0.6414
  318MOL0     H42920   4.757   6.113   5.986  0.5916  1.3122  1.0573
  318MOL0     H42921   4.760   6.095   5.808  2.0367 -0.6264  0.7980
  318MOL0     H42922   4.859   6.304   5.785  0.8009 -2.8867 -1.9597
  318MOL0     H42923   4.952   6.232   5.911  0.0618 -0.1144  0.8890
  318MOL0     H42924   4.786   6.349   6.070  0.5415  0.9680 -0.3931
  318MOL0     H42925   4.752   6.457   5.937  1.0034  0.6463 -0.4742
  318MOL0     H42926   5.034   6.435   6.047  2.1451  0.3604 -2.3762
  318MOL0     H42927   4.928   6.569   6.040  0.6593  0.3294 -1.1653
  318MOL0     H42928   5.126   6.591   5.682  2.7127 -0.6310  1.7400
  318MOL0     H42929   4.387   6.305   5.945  0.6427 -0.3801 -2.5428
  318MOL0     H42930   4.176   6.183   6.013  0.6880  0.8063 -0.8479
  319MOL0     O42931   6.431   5.495   3.837 -0.5419 -0.2106  0.4631
  319MOL0     C42932   6.460   5.461   3.955 -0.5860  0.2074  0.8030
  319MOL0     O42933   6.395   5.500   4.063 -0.1623 -0.7057  0.0346
  319MOL0     C42934   6.281   5.580   4.056 -0.9644 -0.0011  0.5002
  319MOL0     C42935   6.271   5.691   3.976  0.4989 -0.1543  0.8418
  319MOL0     C42936   6.153   5.767   3.982  0.1743 -0.1487 -0.1528
  319MOL0     C42937   6.043   5.716   4.057  0.4940 -0.3059  0.2559
  319MOL0     O42938   5.925   5.790   4.058  0.7707  0.4407  0.4460
  319MOL0     C42939   5.802   5.736   4.108 -0.0153 -0.7476 -0.1754
  319MOL0     C42940   5.767   5.618   4.025  0.1582  0.2564 -0.1235
  319MOL0     C42941   5.624   5.570   4.054  0.5434  0.0169  0.0898
  319MOL0     C42942   5.524   5.635   3.954  0.3733  1.1159  0.1778
  319MOL0     C42943   5.389   5.584   3.985 -0.2539  0.8144  0.3479
  319MOL0     C42944   5.331   5.626   4.112 -0.6185  0.0602 -0.2462
  319MOL0     C42945   5.182   5.596   4.125  0.0107 -0.0230  0.2722
  319MOL0     C42946   5.104   5.659   4.011  0.2387  0.1915  0.2685
  319MOL0     N42947   4.956   5.651   4.039 -0.2642  0.2686 -0.2097
  319MOL0     C42948   4.893   5.602   4.153  0.2509 -0.2863  0.1925
  319MOL0     C42949   4.766   5.641   4.145 -0.4823  0.2739  0.3692
  319MOL0     C42950   4.661   5.627   4.256  0.1417  0.1038 -0.1146
  319MOL0     C42951   4.522   5.671   4.197 -0.2424 -0.0885 -0.3614
  319MOL0     C42952   4.446   5.577   4.101 -1.0154  0.1877 -0.4331
  319MOL0     C42953   4.296   5.614   4.096 -1.6030  0.6735  0.9718
  319MOL0     O42954   4.224   5.529   4.008 -0.6970  0.4771  0.2239
  319MOL0     C42955   4.089   5.562   4.006 -0.2438 -0.3188 -0.9040
  319MOL0     C42956   4.040   5.691   4.010 -0.6571 -0.3180  0.8541
  319MOL0     C42957   3.902   5.721   3.991  0.4257 -0.0054  0.7925
  319MOL0     C42958   3.853   5.872   4.000  0.6474 -0.6127  0.1663
  319MOL0     C42959   3.819   5.622   3.952  0.9847  0.1552  0.2593
  319MOL0     C42960   3.674   5.633   3.920 -0.0496 -0.2991 -0.3686
  319MOL0     O42961   3.597   5.515   3.911  0.0576  0.0527  0.0759
  319MOL0     C42962   3.463   5.515   3.941  0.0678 -0.5601 -0.3709
  319MOL0     C42963   3.372   5.446   3.859 -0.2301  0.4834 -0.0515
  319MOL0     C42964   3.239   5.437   3.887 -0.7182 -0.4977 -0.1189
  319MOL0     C42965   3.191   5.494   4.002 -0.0995 -0.1261  0.3146
  319MOL0     O42966   3.057   5.488   4.017  0.2716 -0.1094  0.0517
  319MOL0     C42967   2.993   5.525   4.139  0.5103 -0.0320 -0.4980
  319MOL0     C42968   2.847   5.556   4.115 -1.0944  0.2479  0.1824
  319MOL0     C42969   2.763   5.437   4.067 -0.5920 -1.0856 -0.1355
  319MOL0     C42970   2.622   5.488   4.039  0.6441 -0.1423  0.5112
  319MOL0     C42971   2.536   5.375   3.968  0.4847 -0.6482  1.4006
  319MOL0     C42972   2.451   5.292   4.074  0.2380 -0.6995 -0.0062
  319MOL0     C42973   2.416   5.153   4.010 -0.0052 -0.9025 -0.2376
  319MOL0     C42974   2.284   5.098   4.067 -0.6465  0.4121 -0.7267
  319MOL0    Cl42975   2.267   4.936   3.992  0.3463  0.0324 -0.0930
  319MOL0     C42976   3.275   5.550   4.092  0.1430  0.2138 -0.8084
  319MOL0     C42977   3.415   5.557   4.065  0.1643 -0.0769  0.9746
  319MOL0     O42978   3.632   5.742   3.888  0.6296  0.4153  0.1263
  319MOL0     C42979   3.861   5.491   3.956 -1.0701  0.8031  0.0271
  319MOL0     C42980   3.996   5.463   3.985  0.1433 -0.2947  0.5676
  319MOL0     N42981   4.751   5.698   4.019 -0.6222  0.4274 -0.0566
  319MOL0     N42982   4.862   5.696   3.955  0.4329  0.3912 -0.1693
  319MOL0     C42983   6.056   5.602   4.142  0.3527 -0.2118 -0.1999
  319MOL0     C42984   6.183   5.544   4.141 -0.0098  0.8259 -0.6090
  319MOL0     C42985   6.559   5.355   3.963  0.1467 -0.4615 -0.7860
  319MOL0     C42986   6.607   5.325   4.088  1.1775 -0.9755  0.4557
  319MOL0     C42987   6.702   5.224   4.108 -0.3380  0.2844  0.7243
  319MOL0     C42988   6.743   5.144   4.007  0.1653  0.2505  0.4820
  319MOL0     O42989   6.826   5.031   4.028  0.0470 -0.1779  0.3718
  319MOL0     C42990   6.891   5.023   4.156 -0.4153  0.0440  0.0425
  319MOL0     C42991   6.979   4.896   4.174  0.2856 -0.0957  0.7678
  319MOL0     C42992   6.903   4.764   4.137  0.2400  0.2372  0.4588
  319MOL0     C42993   6.990   4.639   4.117  0.4277 -0.6731  0.0829
  319MOL0     C42994   7.062   4.656   3.987  0.5589 -0.7135 -0.3807
  319MOL0     C42995   7.138   4.673   3.900 -0.4241  0.1952  0.1559
  319MOL0     C42996   6.685   5.169   3.886  0.4374  0.3260 -0.0130
  319MOL0     C42997   6.588   5.271   3.856  0.7885  0.4260  0.2449
  319MOL0     H42998   6.359   5.713   3.917  0.2004  0.9548  0.7846
  319MOL0     H42999   6.137   5.862   3.932 -0.9581  0.7925  1.9304
  319MOL0     H43000   5.818   5.713   4.214  0.3930 -1.9553 -0.4813
  319MOL0     H43001   5.726   5.814   4.099  0.5036 -0.2509 -0.2952
  319MOL0     H43002   5.782   5.635   3.918  2.1592 -2.2900 -0.3314
  319MOL0     H43003   5.834   5.532   4.037  1.8441  1.2445 -1.7439
  319MOL0     H43004   5.626   5.461   4.046  2.2274 -0.3297  3.2459
  319MOL0     H43005   5.613   5.599   4.159 -0.4608 -1.0812  0.3033
  319MOL0     H43006   5.526   5.744   3.957  2.8621  1.1185  0.7059
  319MOL0     H43007   5.561   5.603   3.856  2.0462 -0.1513  1.1731
  319MOL0     H43008   5.317   5.601   3.905 -0.8846 -1.5008  0.3558
  319MOL0     H43009   5.415   5.478   3.989  1.6759  1.1520 -1.3240
  319MOL0     H43010   5.386   5.576   4.192 -1.4618 -3.0844 -1.4731
  319MOL0     H43011   5.348   5.734   4.118 -0.6283  0.3219 -3.3752
  319MOL0     H43012   5.159   5.489   4.128  0.4413 -0.2569 -2.5919
  319MOL0     H43013   5.135   5.637   4.215 -1.1711  1.4815 -0.9629
  319MOL0     H43014   5.126   5.606   3.918 -0.9625 -1.3729  0.8514
  319MOL0     H43015   5.133   5.764   3.996  1.6611 -0.0917  0.8632
  319MOL0     H43016   4.923   5.554   4.246 -4.8790  0.7799  2.7417
  319MOL0     H43017   4.648   5.520   4.273 -1.5681  0.3253  0.1548
  319MOL0     H43018   4.687   5.681   4.348 -0.2731  1.0942 -0.5631
  319MOL0     H43019   4.525   5.769   4.147 -3.1712 -0.5793 -1.6985
  319MOL0     H43020   4.465   5.693   4.288  0.4192  0.9441 -0.1821
  319MOL0     H43021   4.463   5.474   4.133 -1.3715 -0.2377 -1.5608
  319MOL0     H43022   4.496   5.577   4.003  0.8123  1.4276  0.4505
  319MOL0     H43023   4.295   5.716   4.057  4.2466  0.1414 -1.6855
  319MOL0     H43024   4.253   5.618   4.196 -3.2077  0.4382  0.3139
  319MOL0     H43025   4.103   5.779   4.024 -1.3033  0.1323  0.9974
  319MOL0     H43026   3.940   5.933   4.027  1.1539 -1.2284 -0.0594
  319MOL0     H43027   3.833   5.915   3.901  0.3789 -1.6399 -0.2356
  319MOL0     H43028   3.769   5.885   4.069  0.1398  0.8179 -0.6548
  319MOL0     H43029   3.408   5.405   3.765 -2.1526 -0.8952 -0.2579
  319MOL0     H43030   3.176   5.375   3.825 -1.4292 -2.1884  2.1722
  319MOL0     H43031   3.001   5.456   4.224 -0.4503  1.4704  0.8732
  319MOL0     H43032   3.041   5.617   4.175 -1.8818  1.1018 -0.0381
  319MOL0     H43033   2.812   5.586   4.214  1.2239 -1.1866  1.4972
  319MOL0     H43034   2.842   5.639   4.043 -0.3609 -1.3411 -1.7857
  319MOL0     H43035   2.755   5.366   4.150 -0.2555 -1.0217 -0.0471
  319MOL0     H43036   2.807   5.385   3.982  1.0567  0.9265 -0.5867
  319MOL0     H43037   2.582   5.535   4.129  1.6528 -0.5647  1.1897
  319MOL0     H43038   2.628   5.567   3.963  0.8458 -0.8586 -0.2273
  319MOL0     H43039   2.599   5.303   3.914 -3.3840 -2.0320 -1.7318
  319MOL0     H43040   2.469   5.425   3.898  0.9129 -1.3419  0.4715
  319MOL0     H43041   2.501   5.299   4.171  1.1643  3.2426 -0.6047
  319MOL0     H43042   2.358   5.345   4.097  0.6214  0.0164 -0.0838
  319MOL0     H43043   2.504   5.089   4.023  0.2013 -1.0338 -2.0446
  319MOL0     H43044   2.409   5.164   3.902  0.2605 -0.4974 -0.2156
  319MOL0     H43045   2.201   5.165   4.045  0.2022  2.0654  0.8106
  319MOL0     H43046   2.288   5.077   4.175 -0.6435 -2.3917 -1.1855
  319MOL0     H43047   3.248   5.591   4.189  0.4190  1.0548 -1.0747
  319MOL0     H43048   3.479   5.604   4.139 -3.2231 -0.0399  4.2008
  319MOL0     H43049   3.798   5.409   3.924  0.0480  1.5525 -4.9210
  319MOL0     H43050   4.035   5.362   3.989 -0.4830 -0.5286  0.9157
  319MOL0     H43051   5.974   5.564   4.201 -1.0726 -0.4702 -2.2296
  319MOL0     H43052   6.201   5.464   4.212 -0.3264  2.8766  1.9685
  319MOL0     H43053   6.568   5.388   4.167  0.8370  2.0495 -1.9422
  319MOL0     H43054   6.743   5.229   4.209 -2.2984 -1.2351  1.6601
  319MOL0     H43055   6.959   5.108   4.172 -0.3504  0.1166 -0.5856
  319MOL0     H43056   6.817   5.020   4.236 -1.7947 -0.8889 -1.2223
  319MOL0     H43057   7.017   4.894   4.277 -0.9201 -2.0583  1.2285
  319MOL0     H43058   7.067   4.908   4.110 -0.8098 -3.3250 -1.6439
  319MOL0     H43059   6.860   4.776   4.037  1.0139  0.3358  0.1235
  319MOL0     H43060   6.827   4.748   4.214 -1.5006 -1.1332 -1.4244
  319MOL0     H43061   6.933   4.546   4.103 -1.1560  0.0600  1.4579
  319MOL0     H43062   7.055   4.625   4.203  0.6946 -0.6714 -0.1171
  319MOL0     H43063   7.171   4.701   3.802  0.8886 -5.5619 -1.4376
  319MOL0     H43064   6.705   5.095   3.809 -1.6267 -1.8688  1.4267
  319MOL0     H43065   6.555   5.273   3.752  1.2000 -0.0836  0.1005
  320MOL0     O43066   9.207   1.640   8.191 -0.2432  0.2251  0.7557
  320MOL0     C43067   9.209   1.624   8.069  0.8276  0.0809  0.6184
  320MOL0     O43068   9.102   1.596   7.993 -0.1514 -0.2831 -0.6721
  320MOL0     C43069   8.969   1.600   8.024 -0.2695 -0.1220 -0.3923
  320MOL0     C43070   8.925   1.673   8.129  0.4986  0.8044 -0.2845
  320MOL0     C43071   8.790   1.683   8.161  0.2258  0.6169 -0.1370
  320MOL0     C43072   8.695   1.607   8.089  1.4903  0.0399 -0.2858
  320MOL0     O43073   8.559   1.615   8.136 -0.2588 -0.0231 -0.0799
  320MOL0     C43074   8.463   1.654   8.036 -1.2371 -0.3170  0.5433
  320MOL0     C43075   8.352   1.559   8.031  0.5008  0.3077  0.2977
  320MOL0     C43076   8.221   1.632   8.023  0.9750  0.4246 -0.1588
  320MOL0     C43077   8.104   1.540   8.000  0.0068  0.2930  0.7699
  320MOL0     C43078   7.983   1.613   8.022  0.1529 -0.5353 -0.6364
  320MOL0     C43079   7.871   1.523   7.960 -0.7748 -0.6869 -0.0053
  320MOL0     C43080   7.744   1.578   7.996  0.4229  0.3079 -0.3630
  320MOL0     C43081   7.633   1.527   7.906 -0.8048  0.1964  0.8447
  320MOL0     N43082   7.506   1.548   7.979 -0.2161  0.3533  0.0367
  320MOL0     C43083   7.445   1.449   8.063 -0.5873  0.9902  0.6224
  320MOL0     C43084   7.334   1.515   8.101  0.0577  0.3599  0.7353
  320MOL0     C43085   7.218   1.476   8.185 -0.5495  0.4791 -0.3864
  320MOL0     C43086   7.095   1.421   8.108  0.5677  0.3438  0.3201
  320MOL0     C43087   7.003   1.534   8.071 -0.0113 -1.2597  0.0772
  320MOL0     C43088   6.914   1.479   7.962 -0.4664 -0.7814  0.3595
  320MOL0     O43089   6.818   1.379   8.002  0.2275 -0.1902 -0.5260
  320MOL0     C43090   6.740   1.338   7.893  0.5362 -0.7081 -0.3462
  320MOL0     C43091   6.746   1.369   7.758 -0.0894 -0.2429 -0.0638
  320MOL0     C43092   6.658   1.317   7.662  0.1326  0.0801  0.2967
  320MOL0     C43093   6.698   1.343   7.518  0.2273  0.3780 -0.2632
  320MOL0     C43094   6.553   1.233   7.693 -0.4508  1.0193 -0.1927
  320MOL0     C43095   6.460   1.169   7.601  0.8774 -0.0519  0.6369
  320MOL0     O43096   6.399   1.051   7.634  0.2602 -0.3030  0.0407
  320MOL0     C43097   6.277   1.015   7.579 -0.3135  0.0360 -0.0763
  320MOL0     C43098   6.236   0.881   7.598 -0.7988  0.7410  0.7766
  320MOL0     C43099   6.111   0.841   7.554 -0.4102  0.1945 -0.2024
  320MOL0     C43100   6.020   0.927   7.504 -0.0904 -0.6652  1.2979
  320MOL0     O43101   5.881   0.900   7.492 -0.5246  0.3079 -0.0483
  320MOL0     C43102   5.826   0.776   7.522  1.0846 -0.5452  0.0510
  320MOL0     C43103   5.672   0.779   7.490  0.4468  0.5525 -0.3486
  320MOL0     C43104   5.631   0.630   7.518 -0.3168  0.1862  0.6951
  320MOL0     C43105   5.485   0.622   7.489  0.6084  0.4600 -1.0367
  320MOL0     C43106   5.433   0.474   7.486  0.2704  0.4109 -0.9542
  320MOL0     C43107   5.279   0.451   7.460 -0.2965  0.6853 -0.8062
  320MOL0     C43108   5.185   0.544   7.538  0.6244  0.4695  0.8829
  320MOL0     C43109   5.037   0.480   7.561  0.0592 -0.1316  0.6141
  320MOL0    Cl43110   4.948   0.451   7.407 -0.4311 -0.1181 -0.0174
  320MOL0     C43111   6.063   1.055   7.488 -0.0044 -0.7205  0.8792
  320MOL0     C43112   6.188   1.106   7.515 -1.0646 -0.4623 -0.1392
  320MOL0     O43113   6.452   1.235   7.501  0.1367 -0.0139  1.1481
  320MOL0     C43114   6.557   1.196   7.830 -0.6823  0.4236  0.4354
  320MOL0     C43115   6.640   1.249   7.931 -0.3174 -0.0419  1.2505
  320MOL0     N43116   7.321   1.639   8.040  0.5247 -0.1955  0.6424
  320MOL0     N43117   7.426   1.661   7.965 -0.5370  0.3272 -0.1317
  320MOL0     C43118   8.738   1.527   7.979 -0.7175 -0.0138 -0.0728
  320MOL0     C43119   8.877   1.531   7.945  1.0224  1.3783  0.2968
  320MOL0     C43120   9.338   1.629   7.994  0.1051  0.7386  0.7432
  320MOL0     C43121   9.334   1.634   7.847  0.0004  0.0659 -0.1140
  320MOL0     C43122   9.451   1.626   7.774  0.4599 -0.1198  0.0208
  320MOL0     C43123   9.573   1.615   7.832  0.2767 -0.2034 -0.2203
  320MOL0     O43124   9.684   1.611   7.755  0.5077  0.1879  0.5354
  320MOL0     C43125   9.808   1.560   7.805 -0.7417 -0.1219  0.6551
  320MOL0     C43126   9.907   1.674   7.809 -1.1954 -0.6584  0.1601
  320MOL0     C43127   9.993   1.672   7.685  0.1079 -1.3758 -0.0246
  320MOL0     C43128  10.086   1.790   7.677  0.5919  0.0804 -0.2866
  320MOL0     C43129  10.092   1.852   7.540  0.0652  0.4750 -0.4539
  320MOL0     C43130  10.078   1.905   7.433  0.3859  0.4403 -0.2168
  320MOL0     C43131   9.574   1.607   7.971 -0.2771  0.6232  0.0076
  320MOL0     C43132   9.465   1.613   8.047  0.0986 -0.2511 -0.2906
  320MOL0     H43133   8.994   1.731   8.190  0.3689 -1.7391  2.5674
  320MOL0     H43134   8.765   1.749   8.243  0.7730  0.4072  0.2021
  320MOL0     H43135   8.433   1.754   8.070 -0.1261  0.7394 -1.3443
  320MOL0     H43136   8.512   1.676   7.940 -0.3040 -0.0086  1.0758
  320MOL0     H43137   8.370   1.505   7.938 -0.8019 -0.4064  0.4373
  320MOL0     H43138   8.357   1.484   8.111  1.9088  0.7450  0.6467
  320MOL0     H43139   8.206   1.683   8.119  1.0782 -1.3821  0.8650
  320MOL0     H43140   8.227   1.698   7.937  1.1412 -0.8834 -1.1888
  320MOL0     H43141   8.120   1.488   7.905 -0.8761  0.4931  0.5050
  320MOL0     H43142   8.107   1.454   8.068 -0.5905 -0.6441 -0.3610
  320MOL0     H43143   7.975   1.622   8.131 -1.0542 -3.0460 -0.4430
  320MOL0     H43144   7.985   1.713   7.978  3.2017  0.5112  1.5350
  320MOL0     H43145   7.888   1.527   7.852 -2.0242 -3.2900 -0.3696
  320MOL0     H43146   7.873   1.420   7.997 -0.6276 -0.6408  0.1178
  320MOL0     H43147   7.711   1.565   8.099 -3.7708  2.7314 -1.1893
  320MOL0     H43148   7.740   1.687   7.998  0.9601  0.3639  2.6673
  320MOL0     H43149   7.634   1.422   7.876  2.2533  0.4622 -0.2860
  320MOL0     H43150   7.636   1.589   7.816  0.9098 -0.7706  0.1837
  320MOL0     H43151   7.493   1.357   8.093  1.7961  1.8286 -0.3694
  320MOL0     H43152   7.253   1.398   8.253 -1.0783 -0.3621 -1.0695
  320MOL0     H43153   7.179   1.549   8.256 -1.2811 -0.8073  0.5760
  320MOL0     H43154   7.044   1.353   8.177 -1.3561 -0.4945 -1.8267
  320MOL0     H43155   7.128   1.360   8.024 -0.1410 -2.2978  1.8440
  320MOL0     H43156   7.051   1.627   8.041 -1.6643  0.2081  1.7252
  320MOL0     H43157   6.941   1.563   8.156  0.2715  0.8821 -0.3833
  320MOL0     H43158   6.975   1.447   7.877  1.4313 -2.4255  2.2319
  320MOL0     H43159   6.845   1.558   7.931  0.3341  1.2192  3.2528
  320MOL0     H43160   6.817   1.444   7.723  0.3774 -0.6381  0.0274
  320MOL0     H43161   6.636   1.421   7.471 -1.2943 -0.8804 -0.4452
  320MOL0     H43162   6.801   1.378   7.505  0.4911 -0.2286  0.1660
  320MOL0     H43163   6.686   1.247   7.467  0.3691  1.3616 -2.2490
  320MOL0     H43164   6.298   0.801   7.637 -0.9311  1.5119  2.6962
  320MOL0     H43165   6.084   0.738   7.574  3.3217 -0.9943 -0.4894
  320MOL0     H43166   5.873   0.700   7.458  1.2144 -0.8718  0.5277
  320MOL0     H43167   5.848   0.733   7.620  2.6455  1.5853  0.7201
  320MOL0     H43168   5.619   0.843   7.561 -1.5483  0.0607 -1.3308
  320MOL0     H43169   5.654   0.809   7.387 -1.5485  1.4103  0.2042
  320MOL0     H43170   5.654   0.602   7.621  1.8531 -0.8482  0.0102
  320MOL0     H43171   5.690   0.559   7.459  0.4076  1.8799 -0.6991
  320MOL0     H43172   5.437   0.685   7.564  1.5411 -0.8833  0.7594
  320MOL0     H43173   5.472   0.674   7.394  0.3067  0.0560 -1.2202
  320MOL0     H43174   5.458   0.430   7.583 -1.7670  1.7330  0.2419
  320MOL0     H43175   5.477   0.414   7.406  2.2716  2.7943 -1.7808
  320MOL0     H43176   5.250   0.469   7.356  0.2545 -2.1599 -1.5278
  320MOL0     H43177   5.244   0.351   7.486  0.1591  0.5821 -0.5839
  320MOL0     H43178   5.186   0.630   7.471  1.5912 -1.0151 -1.1157
  320MOL0     H43179   5.232   0.569   7.633  1.9582 -1.1709  0.7062
  320MOL0     H43180   4.989   0.562   7.614  0.7248  2.8236 -2.9732
  320MOL0     H43181   5.055   0.401   7.635 -0.1569 -0.7141  0.0540
  320MOL0     H43182   5.980   1.124   7.476  0.3017 -0.6102 -0.7712
  320MOL0     H43183   6.194   1.214   7.530  1.0316 -0.7531  1.7789
  320MOL0     H43184   6.496   1.114   7.867 -0.2778 -1.2322 -2.3374
  320MOL0     H43185   6.626   1.212   8.032 -2.1783 -1.6579  0.4526
  320MOL0     H43186   8.671   1.474   7.911  1.2796 -1.8818 -0.7101
  320MOL0     H43187   8.902   1.470   7.859 -2.3508 -0.3176  0.3701
  320MOL0     H43188   9.244   1.651   7.788 -0.3745  0.1024  0.4552
  320MOL0     H43189   9.448   1.619   7.666  0.8023 -1.0750  0.0696
  320MOL0     H43190   9.814   1.502   7.898  0.5639 -0.3170  0.4645
  320MOL0     H43191   9.833   1.485   7.730  1.3836  1.2704 -0.1315
  320MOL0     H43192   9.966   1.664   7.901  1.1863  0.5639 -1.1271
  320MOL0     H43193   9.848   1.766   7.812  1.7138  1.3841 -0.6795
  320MOL0     H43194   9.925   1.667   7.600 -0.1914  1.9625 -0.1087
  320MOL0     H43195  10.053   1.581   7.678 -0.5189 -1.8046  0.0498
  320MOL0     H43196  10.188   1.753   7.689  1.3399  2.2068  0.3846
  320MOL0     H43197  10.065   1.868   7.751  1.9953  0.8742 -0.7014
  320MOL0     H43198  10.069   1.943   7.333 -0.0221  0.9994  0.0266
  320MOL0     H43199   9.674   1.600   8.013 -0.1361  1.2630 -0.2147
  320MOL0     H43200   9.484   1.590   8.151 -0.3461  1.5825  0.2355
  321MOL0     O43201   4.435   0.662   9.512 -0.3207  0.0985 -0.1316
  321MOL0     C43202   4.425   0.585   9.598  0.3893 -0.8551 -0.1967
  321MOL0     O43203   4.328   0.485   9.599 -0.7140  0.2517  0.5031
  321MOL0     C43204   4.240   0.444   9.491  0.0107 -0.2463 -0.7994
  321MOL0     C43205   4.246   0.483   9.355 -0.5475  0.3419  0.1094
  321MOL0     C43206   4.166   0.420   9.259  0.0929 -0.2965 -0.7463
  321MOL0     C43207   4.057   0.338   9.294 -0.3617 -0.0662 -0.9703
  321MOL0     O43208   3.987   0.277   9.194  0.0396 -0.4397  0.0201
  321MOL0     C43209   3.846   0.274   9.205  0.3990  0.0898 -0.4453
  321MOL0     C43210   3.767   0.298   9.076  0.8427 -0.2939  0.4162
  321MOL0     C43211   3.729   0.170   8.985 -0.4408 -0.5675  0.2401
  321MOL0     C43212   3.596   0.191   8.913 -0.7168  0.5133 -0.2327
  321MOL0     C43213   3.550   0.054   8.865 -0.2451  0.5508  0.7301
  321MOL0     C43214   3.430   0.051   8.776  0.7435 -0.1196 -0.0492
  321MOL0     C43215   3.317   0.045   8.882 -0.3159  0.3480  0.1002
  321MOL0     C43216   3.189   0.079   8.816  0.0706  0.6493 -0.3350
  321MOL0     N43217   3.070   0.062   8.901 -0.0659 -1.0847  0.5915
  321MOL0     C43218   3.040  -0.049   8.978 -0.1526 -0.9421 -0.2553
  321MOL0     C43219   2.913  -0.017   9.017  0.4387 -0.3740 -0.0816
  321MOL0     C43220   2.843  -0.101   9.117 -0.1278  0.7144 -0.2958
  321MOL0     C43221   2.704  -0.054   9.159  0.5674 -0.3404  0.7658
  321MOL0     C43222   2.634  -0.170   9.238  0.2603 -0.4146  0.0367
  321MOL0     C43223   2.484  -0.154   9.240  1.3905 -0.4122 -0.2642
  321MOL0     O43224   2.428  -0.172   9.106 -0.4856 -0.0812  0.2885
  321MOL0     C43225   2.291  -0.161   9.077 -0.5322 -0.2762  0.5539
  321MOL0     C43226   2.207  -0.116   9.173  0.3900 -0.1152  0.9848
  321MOL0     C43227   2.068  -0.109   9.156 -0.3122  0.5308 -0.5080
  321MOL0     C43228   1.975  -0.066   9.277  0.3807 -0.2135  1.3215
  321MOL0     C43229   2.015  -0.139   9.024  0.7245 -0.4779 -0.8733
  321MOL0     C43230   1.881  -0.115   8.984 -0.8794  0.3935  1.0866
  321MOL0     O43231   1.865  -0.108   8.842 -0.2398  0.3625 -0.5428
  321MOL0     C43232   1.740  -0.082   8.792  0.0253 -1.5817  0.1553
  321MOL0     C43233   1.704   0.045   8.745  0.1085 -0.6323 -0.9120
  321MOL0     C43234   1.579   0.069   8.692  0.6478  0.5979  0.1913
  321MOL0     C43235   1.481  -0.037   8.689 -0.4431 -0.1769  0.8744
  321MOL0     O43236   1.363   0.004   8.629  0.1726 -0.2224 -1.1292
  321MOL0     C43237   1.247  -0.079   8.654 -0.0742  1.1119 -0.5268
  321MOL0     C43238   1.110  -0.009   8.636 -0.5669 -0.5161  0.0834
  321MOL0     C43239   0.995  -0.103   8.676  0.5249  0.2109 -0.0627
  321MOL0     C43240   0.853  -0.029   8.654 -0.9053 -0.2638 -0.1734
  321MOL0     C43241   0.743  -0.127   8.667  0.1863  0.8196  0.0236
  321MOL0     C43242   0.735  -0.204   8.529  0.6609 -0.3166 -0.4779
  321MOL0     C43243   0.619  -0.310   8.538  0.3643 -0.2295  0.2013
  321MOL0     C43244   0.483  -0.252   8.521 -0.8864 -0.1389  0.1588
  321MOL0    Cl43245   0.347  -0.361   8.527  0.6711  0.4143 -0.2316
  321MOL0     C43246   1.524  -0.166   8.715  0.2759  0.1213 -0.7991
  321MOL0     C43247   1.648  -0.187   8.774 -0.1940 -0.5987  1.2864
  321MOL0     O43248   1.796  -0.082   9.060  0.3837 -0.1370  0.3918
  321MOL0     C43249   2.102  -0.193   8.928 -0.9184 -0.0828 -0.2430
  321MOL0     C43250   2.237  -0.206   8.955  0.2229  0.0092  0.2712
  321MOL0     N43251   2.878   0.115   8.969  0.0947  0.1297 -0.7952
  321MOL0     N43252   2.979   0.161   8.906  0.1863 -0.5110 -0.4318
  321MOL0     C43253   4.040   0.309   9.431  0.9706 -1.2419 -0.5257
  321MOL0     C43254   4.127   0.360   9.527 -0.3211 -0.6793  0.6431
  321MOL0     C43255   4.522   0.590   9.712  0.0063 -0.8218 -0.4213
  321MOL0     C43256   4.521   0.487   9.811  0.7369 -0.0518 -0.0798
  321MOL0     C43257   4.611   0.489   9.919 -0.1837 -1.5650 -0.2959
  321MOL0     C43258   4.706   0.591   9.922 -0.2978  0.7409  0.9942
  321MOL0     O43259   4.796   0.595  10.022 -0.1203 -0.0282  0.4063
  321MOL0     C43260   4.846   0.472  10.072 -0.6597  0.6386  0.4792
  321MOL0     C43261   4.985   0.490  10.150 -0.0183 -0.0213 -0.3956
  321MOL0     C43262   5.081   0.575  10.078  0.2639  0.5617 -0.3693
  321MOL0     C43263   5.220   0.587  10.154  0.1171  0.7310  0.5355
  321MOL0     C43264   5.203   0.608  10.296 -0.2879 -0.1651  0.0281
  321MOL0     C43265   5.203   0.614  10.418 -0.1607  0.1408 -0.4162
  321MOL0     C43266   4.704   0.698   9.829  0.6217  0.0640  0.4135
  321MOL0     C43267   4.614   0.690   9.721  0.3074  0.5712 -0.7092
  321MOL0     H43268   4.325   0.552   9.326 -1.6441  1.8276  0.5113
  321MOL0     H43269   4.188   0.441   9.154  0.2433 -1.1655 -0.8961
  321MOL0     H43270   3.820   0.182   9.257  0.3373  1.7794  2.7548
  321MOL0     H43271   3.818   0.353   9.275 -0.9790 -1.4785  0.8400
  321MOL0     H43272   3.676   0.339   9.120  0.4728 -0.1090 -0.5011
  321MOL0     H43273   3.826   0.375   9.026  1.5413  1.0739  3.1196
  321MOL0     H43274   3.821   0.155   8.927  0.8032 -0.3118  2.0650
  321MOL0     H43275   3.715   0.081   9.047  2.5370 -1.4838 -0.2416
  321MOL0     H43276   3.522   0.229   8.983 -1.3626  1.5478 -1.4332
  321MOL0     H43277   3.603   0.264   8.832  0.1648  0.5087 -0.1761
  321MOL0     H43278   3.623   0.015   8.793 -1.2049  0.8480 -0.4327
  321MOL0     H43279   3.540  -0.016   8.948  1.3420 -1.5619 -0.7613
  321MOL0     H43280   3.420   0.137   8.709 -0.8638 -2.1565 -2.6295
  321MOL0     H43281   3.422  -0.037   8.712 -0.4970  1.0477 -1.5936
  321MOL0     H43282   3.304  -0.057   8.920  2.0530  1.0405  3.1074
  321MOL0     H43283   3.331   0.106   8.971 -1.0816  3.1139 -1.5587
  321MOL0     H43284   3.177   0.008   8.734  1.4659 -0.0801  0.0539
  321MOL0     H43285   3.193   0.182   8.779  0.7480  0.2031 -1.5716
  321MOL0     H43286   3.084  -0.148   8.985 -2.7681 -2.3440 -1.9231
  321MOL0     H43287   2.817  -0.197   9.074 -4.4358  1.5278  0.0496
  321MOL0     H43288   2.909  -0.109   9.204 -0.2132  0.7943 -0.2226
  321MOL0     H43289   2.640  -0.022   9.076  4.0525  1.2480 -1.5422
  321MOL0     H43290   2.698   0.036   9.221  1.2368 -0.3476  0.8433
  321MOL0     H43291   2.669  -0.170   9.341 -0.5329  2.6705  0.3986
  321MOL0     H43292   2.643  -0.267   9.189 -1.2439 -0.2050 -0.7015
  321MOL0     H43293   2.458  -0.059   9.289 -1.4755 -0.2547 -1.8814
  321MOL0     H43294   2.441  -0.227   9.308 -1.3255 -0.1555 -1.5902
  321MOL0     H43295   2.242  -0.087   9.272 -1.0592  0.6997  1.2916
  321MOL0     H43296   1.927   0.022   9.232  0.8025 -1.7510 -2.5584
  321MOL0     H43297   1.902  -0.140   9.312 -0.8277 -0.2055 -0.9693
  321MOL0     H43298   2.036  -0.031   9.360  1.2264  0.6312  0.3659
  321MOL0     H43299   1.775   0.127   8.740  0.0623 -0.5261 -0.0040
  321MOL0     H43300   1.537   0.161   8.651 -2.6489 -1.5661 -1.8300
  321MOL0     H43301   1.258  -0.177   8.608  2.8311  0.3796  1.4142
  321MOL0     H43302   1.244  -0.123   8.754 -2.0780 -2.6186 -2.0390
  321MOL0     H43303   1.095   0.076   8.704 -0.7168  0.0844 -0.6918
  321MOL0     H43304   1.104   0.035   8.536  0.4588  1.2175  0.7340
  321MOL0     H43305   1.000  -0.138   8.780 -0.9855 -0.8707 -0.3064
  321MOL0     H43306   1.005  -0.198   8.623 -2.1979 -1.1640  1.6071
  321MOL0     H43307   0.850   0.042   8.737  0.7323 -0.9921  0.5419
  321MOL0     H43308   0.848   0.029   8.561 -1.2501 -0.4832 -0.2925
  321MOL0     H43309   0.648  -0.072   8.672 -0.4017 -0.1120 -0.4466
  321MOL0     H43310   0.757  -0.191   8.755 -1.2298  0.4772  0.0293
  321MOL0     H43311   0.718  -0.141   8.442  1.2386  0.1248 -0.2814
  321MOL0     H43312   0.827  -0.262   8.518  1.0553 -0.0665  1.1752
  321MOL0     H43313   0.625  -0.354   8.638 -0.8747  2.6169  1.6573
  321MOL0     H43314   0.626  -0.395   8.470  0.9165 -0.5261  0.6228
  321MOL0     H43315   0.487  -0.209   8.420  0.5820 -0.2948  0.1353
  321MOL0     H43316   0.473  -0.171   8.594  0.0565 -1.2722  1.5883
  321MOL0     H43317   1.474  -0.258   8.686  0.3502  0.0718 -0.7702
  321MOL0     H43318   1.668  -0.282   8.821  0.2606  0.2189  2.8260
  321MOL0     H43319   2.064  -0.223   8.831 -3.1473  3.3273 -0.5946
  321MOL0     H43320   2.293  -0.258   8.878 -2.4232 -0.2183 -1.6511
  321MOL0     H43321   3.949   0.263   9.471  0.3106  1.5253  1.4431
  321MOL0     H43322   4.109   0.333   9.631 -2.5949 -1.4919  0.1045
  321MOL0     H43323   4.451   0.404   9.811 -2.4623  2.3497  2.1456
  321MOL0     H43324   4.611   0.401   9.983 -0.5730  0.2280  2.3092
  321MOL0     H43325   4.774   0.453  10.152 -1.0708  3.1940  0.8099
  321MOL0     H43326   4.849   0.387  10.003  1.2636  1.3423 -0.3799
  321MOL0     H43327   5.023   0.391  10.176 -3.1481 -1.3763 -0.4422
  321MOL0     H43328   4.963   0.547  10.241 -2.3133 -3.4004  1.4005
  321MOL0     H43329   5.042   0.676  10.065 -1.3014 -0.1752 -1.9278
  321MOL0     H43330   5.096   0.527   9.980 -1.4515 -1.4988  0.3039
  321MOL0     H43331   5.279   0.669  10.112 -1.1681  3.1998  3.2425
  321MOL0     H43332   5.272   0.492  10.143 -2.9384 -0.8497 -1.7998
  321MOL0     H43333   5.209   0.618  10.525  0.0942 -0.4172 -0.4075
  321MOL0     H43334   4.783   0.770   9.846  2.7645 -1.9287 -0.6971
  321MOL0     H43335   4.635   0.762   9.642  3.1292  2.8667  1.8557
  322MOL0     O43336   2.283  10.942   6.077  0.2115  0.0815  0.5351
  322MOL0     C43337   2.228  11.049   6.083 -0.0505 -0.0896 -0.4644
  322MOL0     O43338   2.116  11.089   6.009 -1.0114 -0.5005 -0.1843
  322MOL0     C43339   2.075  11.003   5.911  0.1266  0.1033 -0.5933
  322MOL0     C43340   2.161  10.957   5.807  0.2057 -0.0658 -0.4517
  322MOL0     C43341   2.116  10.862   5.702 -0.6450 -0.8005 -0.3764
  322MOL0     C43342   1.986  10.819   5.698 -0.4716  0.3180  0.3285
  322MOL0     O43343   1.946  10.739   5.593  0.1679 -1.0410 -0.2238
  322MOL0     C43344   1.816  10.702   5.575  0.9067 -0.5156 -0.4164
  322MOL0     C43345   1.773  10.587   5.667 -0.3802  0.5053  0.5282
  322MOL0     C43346   1.622  10.594   5.715 -0.0699 -0.6375  0.1519
  322MOL0     C43347   1.589  10.475   5.804  0.8034  0.7616 -0.7816
  322MOL0     C43348   1.455  10.487   5.871 -0.5661  0.0181  0.0109
  322MOL0     C43349   1.382  10.348   5.895  0.2496 -0.4200 -0.8267
  322MOL0     C43350   1.253  10.367   5.973  0.6266 -0.5719  0.4916
  322MOL0     C43351   1.122  10.393   5.886  0.0757 -0.3393  0.6341
  322MOL0     N43352   1.099  10.532   5.835  0.1978 -0.7781 -0.4715
  322MOL0     C43353   1.165  10.646   5.877  0.5431 -0.8752  0.4194
  322MOL0     C43354   1.101  10.746   5.813 -0.6861  0.9480  0.0054
  322MOL0     C43355   1.131  10.889   5.835  0.3824 -0.9461  0.4372
  322MOL0     C43356   1.007  10.963   5.890 -0.3469 -0.3253 -0.1357
  322MOL0     C43357   1.042  11.101   5.927  0.4454 -0.2827  0.1035
  322MOL0     C43358   0.898  11.160   5.950 -0.1683  0.4406  0.1594
  322MOL0     O43359   0.824  11.089   6.059  0.9187  0.0047 -0.4970
  322MOL0     C43360   0.687  11.074   6.038  0.6016 -0.5649 -0.3055
  322MOL0     C43361   0.636  10.967   6.111  0.3774 -0.5178  0.7739
  322MOL0     C43362   0.496  10.948   6.119 -0.3697 -0.1410  0.9431
  322MOL0     C43363   0.441  10.839   6.212  0.6577  0.4065  0.3986
  322MOL0     C43364   0.401  11.038   6.057 -0.1265 -0.0850 -0.0529
  322MOL0     C43365   0.250  11.040   6.083  0.0864 -0.4051  0.2880
  322MOL0     O43366   0.198  11.001   6.202 -0.2726  0.3732  0.9394
  322MOL0     C43367   0.061  10.978   6.197  0.6027  0.1205  0.4108
  322MOL0     C43368  -0.020  11.058   6.282  0.1846  0.6807 -0.2016
  322MOL0     C43369  -0.156  11.041   6.285 -0.6510 -0.5138 -0.8353
  322MOL0     C43370  -0.220  10.952   6.202  0.4371  0.0660 -0.0895
  322MOL0     O43371  -0.358  10.933   6.210  0.1879 -0.2252 -0.1334
  322MOL0     C43372  -0.435  11.051   6.185  0.7851 -0.8770  0.2908
  322MOL0     C43373  -0.585  11.013   6.162 -0.0992 -0.7618  0.2213
  322MOL0     C43374  -0.659  11.143   6.140  0.8689 -0.0785  0.5101
  322MOL0     C43375  -0.811  11.131   6.105 -0.6590 -0.0637  1.1180
  322MOL0     C43376  -0.891  11.261   6.120  0.1840  0.3998 -0.7497
  322MOL0     C43377  -1.035  11.212   6.081  0.7241  0.4354  0.1501
  322MOL0     C43378  -1.103  11.157   6.205  0.3315  0.0601  0.8046
  322MOL0     C43379  -1.224  11.082   6.164  0.0153 -0.5258 -0.1075
  322MOL0    Cl43380  -1.341  11.050   6.295 -0.0293  0.5582 -0.1489
  322MOL0     C43381  -0.138  10.864   6.126  0.9852 -0.2777 -0.7415
  322MOL0     C43382  -0.007  10.880   6.123 -1.1689 -0.7572 -0.4532
  322MOL0     O43383   0.187  11.081   5.989 -0.0677 -0.3406 -0.2497
  322MOL0     C43384   0.461  11.127   5.962 -0.3955 -0.0978 -1.0397
  322MOL0     C43385   0.596  11.148   5.960  0.3790 -0.5081 -0.5111
  322MOL0     N43386   1.000  10.693   5.736 -0.4101  0.2665  0.7712
  322MOL0     N43387   0.987  10.565   5.758 -0.3063 -0.0029 -0.3474
  322MOL0     C43388   1.903  10.858   5.800 -0.1159  0.7660  0.0819
  322MOL0     C43389   1.947  10.952   5.900 -0.2578 -0.0909  0.1622
  322MOL0     C43390   2.281  11.135   6.189  0.1188 -1.0659 -0.2696
  322MOL0     C43391   2.400  11.111   6.259 -0.1423  0.3127 -0.2252
  322MOL0     C43392   2.449  11.200   6.358  0.1220  0.4805 -0.1713
  322MOL0     C43393   2.374  11.319   6.390 -1.3722 -0.1671 -0.3660
  322MOL0     O43394   2.443  11.397   6.484  0.6279  0.2883 -0.1203
  322MOL0     C43395   2.389  11.501   6.557 -0.2654  0.7515  0.9628
  322MOL0     C43396   2.280  11.447   6.650  0.6249  0.4821  0.0376
  322MOL0     C43397   2.210  11.564   6.722  0.7085  0.0121 -0.2559
  322MOL0     C43398   2.153  11.668   6.641  0.9751  0.5428  0.1486
  322MOL0     C43399   2.056  11.747   6.716 -0.9729 -0.0205  0.2218
  322MOL0     C43400   1.966  11.812   6.769 -0.2010  0.0293 -0.7018
  322MOL0     C43401   2.258  11.344   6.319  0.0037  0.0513 -0.4552
  322MOL0     C43402   2.207  11.252   6.223  0.1571 -0.4370 -0.3037
  322MOL0     H43403   2.264  10.990   5.817 -0.1585  0.2436  4.1375
  322MOL0     H43404   2.168  10.837   5.611 -0.0985  0.8688 -0.5397
  322MOL0     H43405   1.753  10.788   5.596  0.8819 -1.0384  2.0023
  322MOL0     H43406   1.789  10.668   5.475  2.5440 -1.6573 -0.5177
  322MOL0     H43407   1.795  10.497   5.608 -3.3541 -0.3610  0.6279
  322MOL0     H43408   1.840  10.586   5.753  2.0458 -1.9224 -1.1918
  322MOL0     H43409   1.608  10.685   5.775  1.9462  0.8821 -1.5394
  322MOL0     H43410   1.551  10.601   5.633 -0.3214  2.7691  0.5304
  322MOL0     H43411   1.580  10.383   5.745 -4.5131  1.0045 -0.8363
  322MOL0     H43412   1.675  10.471   5.871 -0.0689  2.9696  0.5838
  322MOL0     H43413   1.473  10.530   5.969  3.1868 -0.6341 -0.2383
  322MOL0     H43414   1.396  10.554   5.808  0.8160  0.1680 -1.1834
  322MOL0     H43415   1.385  10.289   5.803  3.2220 -2.2190  0.2772
  322MOL0     H43416   1.446  10.287   5.960 -1.9475 -0.4939  1.4252
  322MOL0     H43417   1.230  10.268   6.015 -1.1571  0.5844  2.4387
  322MOL0     H43418   1.259  10.434   6.059 -0.3669  0.9417 -0.5770
  322MOL0     H43419   1.031  10.352   5.932  0.4771  0.7011  2.4516
  322MOL0     H43420   1.143  10.328   5.800  1.8651  0.3399  0.5147
  322MOL0     H43421   1.250  10.656   5.944  0.4226  2.3377  0.2730
  322MOL0     H43422   1.209  10.888   5.913 -0.9963  2.7044  2.1118
  322MOL0     H43423   1.172  10.943   5.750  0.7277  0.1964  1.2947
  322MOL0     H43424   0.977  10.916   5.984  2.3920  1.7959  2.0088
  322MOL0     H43425   0.936  10.959   5.807  0.9583  1.4378 -1.4285
  322MOL0     H43426   1.105  11.155   5.855  0.0599  0.1464  0.0867
  322MOL0     H43427   1.106  11.106   6.016  1.3227 -2.2358 -0.3571
  322MOL0     H43428   0.858  11.146   5.849  1.3977  0.2043 -0.4655
  322MOL0     H43429   0.899  11.268   5.968  4.4699  0.7349 -0.5215
  322MOL0     H43430   0.705  10.907   6.170  0.9498 -1.3561 -0.6867
  322MOL0     H43431   0.518  10.773   6.253  2.1491  0.7776 -1.6594
  322MOL0     H43432   0.386  10.875   6.299 -0.7915 -2.6988  0.8815
  322MOL0     H43433   0.373  10.772   6.158 -1.0400  2.4234 -0.0954
  322MOL0     H43434   0.023  11.143   6.336  0.7678  2.0455 -2.6480
  322MOL0     H43435  -0.208  11.115   6.344 -0.4088  1.2983 -2.7892
  322MOL0     H43436  -0.423  11.132   6.258  1.0115 -1.5379  0.9992
  322MOL0     H43437  -0.399  11.087   6.088  0.6703 -2.6791 -0.4738
  322MOL0     H43438  -0.601  10.942   6.080 -0.5284  1.2723 -1.5593
  322MOL0     H43439  -0.626  10.960   6.249 -2.1634  0.5424  0.1149
  322MOL0     H43440  -0.608  11.202   6.064  1.9190 -0.9700  0.5049
  322MOL0     H43441  -0.653  11.189   6.240 -0.9675  0.8045  0.2476
  322MOL0     H43442  -0.816  11.105   5.999 -2.0837  2.3855  0.4923
  322MOL0     H43443  -0.850  11.046   6.162  0.4364 -0.3393  1.4736
  322MOL0     H43444  -0.873  11.342   6.049 -1.7253  2.1499  0.6541
  322MOL0     H43445  -0.895  11.309   6.218 -0.8902 -0.7654 -0.1913
  322MOL0     H43446  -1.096  11.294   6.041  0.3866  0.3156  0.4231
  322MOL0     H43447  -1.028  11.138   6.000  2.1407  1.0327 -0.3050
  322MOL0     H43448  -1.144  11.232   6.273 -0.3391 -0.0122  0.4872
  322MOL0     H43449  -1.044  11.087   6.265  0.6941 -0.7127 -0.4128
  322MOL0     H43450  -1.191  10.986   6.125  1.4563 -0.7197  1.4693
  322MOL0     H43451  -1.281  11.136   6.088 -0.1521  0.0905  0.4437
  322MOL0     H43452  -0.182  10.781   6.073 -0.3614  0.3964 -0.7122
  322MOL0     H43453   0.058  10.818   6.062 -2.7410 -1.0383 -1.9137
  322MOL0     H43454   0.399  11.202   5.913 -1.8933  0.5621  1.6342
  322MOL0     H43455   0.643  11.227   5.902 -1.5594  1.0902 -0.0084
  322MOL0     H43456   1.800  10.824   5.805  0.4790 -0.9914  2.7381
  322MOL0     H43457   1.881  10.994   5.976  0.1274  0.0466  0.4230
  322MOL0     H43458   2.458  11.023   6.233 -1.9192 -0.9350 -0.1440
  322MOL0     H43459   2.540  11.170   6.408  0.3503  1.1231 -0.1915
  322MOL0     H43460   2.474  11.551   6.604 -1.2600  2.0130  1.4742
  322MOL0     H43461   2.334  11.568   6.491 -3.3648 -2.8839 -0.4886
  322MOL0     H43462   2.325  11.381   6.724 -0.4624 -1.0161 -0.5853
  322MOL0     H43463   2.202  11.391   6.597 -1.5395  1.2563  2.2188
  322MOL0     H43464   2.284  11.606   6.791 -2.2237  1.5283  2.1851
  322MOL0     H43465   2.133  11.522   6.787 -0.6044 -0.7133 -2.1936
  322MOL0     H43466   2.104  11.620   6.556  0.8094  0.1459  0.4624
  322MOL0     H43467   2.243  11.719   6.607  1.1970 -0.3206 -0.5794
  322MOL0     H43468   1.881  11.869   6.801  1.0660  1.1635  0.8399
  322MOL0     H43469   2.196  11.432   6.337 -0.3227 -0.5060  1.3852
  322MOL0     H43470   2.105  11.271   6.193 -0.8114 -3.2667  0.8770
  323MOL0     O43471   5.379   3.278   2.112 -0.3455 -0.1744  0.1390
  323MOL0     C43472   5.451   3.184   2.074 -0.1061  1.1268 -0.0046
  323MOL0     O43473   5.414   3.054   2.081 -0.4946 -0.6362  0.6152
  323MOL0     C43474   5.304   3.017   2.154 -0.2205  0.3546  0.3851
  323MOL0     C43475   5.228   2.906   2.100  0.0324  1.0647 -0.1062
  323MOL0     C43476   5.116   2.853   2.154 -0.1994  0.0673  0.5406
  323MOL0     C43477   5.070   2.919   2.266 -0.4812  0.0953 -0.1108
  323MOL0     O43478   4.958   2.863   2.335 -0.6964  0.6960 -0.5049
  323MOL0     C43479   4.844   2.945   2.373  0.6690  0.0436  0.8332
  323MOL0     C43480   4.720   2.854   2.389 -0.4517  0.3728 -0.5830
  323MOL0     C43481   4.604   2.929   2.447 -0.9548  0.5493  0.5807
  323MOL0     C43482   4.466   2.869   2.401 -0.2317 -0.2183 -0.0617
  323MOL0     C43483   4.356   2.929   2.485  0.2784  0.1122 -0.9863
  323MOL0     C43484   4.228   2.875   2.436 -0.0464  1.1993  0.1922
  323MOL0     C43485   4.115   2.927   2.529 -1.1406  0.1992  0.1559
  323MOL0     C43486   3.988   2.847   2.510  0.0932  0.2562 -0.0665
  323MOL0     N43487   4.009   2.714   2.572  0.2621 -0.0760  0.1255
  323MOL0     C43488   4.033   2.682   2.705  0.4031  0.5270  0.1603
  323MOL0     C43489   4.012   2.549   2.711  0.0373 -0.4246  0.2080
  323MOL0     C43490   4.022   2.473   2.843  0.2879 -0.0461 -0.5605
  323MOL0     C43491   3.905   2.388   2.880  0.8736  0.9367  0.6787
  323MOL0     C43492   3.764   2.452   2.858  0.3921 -0.2696  0.1816
  323MOL0     C43493   3.746   2.562   2.965 -0.7051  0.5283 -0.9106
  323MOL0     O43494   3.621   2.617   2.958  0.6755  0.1637  0.5619
  323MOL0     C43495   3.507   2.542   2.986 -0.3753  0.1340 -0.0860
  323MOL0     C43496   3.498   2.438   3.081  1.0415  0.8878  0.4182
  323MOL0     C43497   3.377   2.376   3.114  0.5343  0.5769  0.8486
  323MOL0     C43498   3.380   2.256   3.206 -0.2197  0.4765 -0.0089
  323MOL0     C43499   3.257   2.415   3.046  0.1181 -0.5256 -0.9760
  323MOL0     C43500   3.126   2.344   3.065 -0.2911 -1.1902  0.0627
  323MOL0     O43501   3.022   2.424   3.074  0.9402  0.3764 -0.4832
  323MOL0     C43502   2.894   2.372   3.084  0.1436 -0.1377 -0.7094
  323MOL0     C43503   2.852   2.319   3.207 -0.6768  0.9089  0.1721
  323MOL0     C43504   2.726   2.264   3.238  0.8679 -0.3594  0.4434
  323MOL0     C43505   2.632   2.261   3.132  0.0153  0.5735 -0.2175
  323MOL0     O43506   2.518   2.194   3.140 -0.7179 -0.7128 -0.1660
  323MOL0     C43507   2.525   2.072   3.213  0.1530 -0.1511  0.0579
  323MOL0     C43508   2.385   2.012   3.211 -0.0435 -0.7332 -0.4973
  323MOL0     C43509   2.285   2.091   3.296 -0.0118 -1.0177 -0.0247
  323MOL0     C43510   2.157   2.019   3.313 -0.7329 -0.4846  0.1248
  323MOL0     C43511   2.095   1.986   3.173 -0.3587 -0.7156 -0.5754
  323MOL0     C43512   1.949   1.949   3.176  0.4697  0.2319 -0.5563
  323MOL0     C43513   1.896   1.944   3.036 -0.1523 -0.3027  0.5212
  323MOL0     C43514   1.752   1.900   3.033  0.2785 -0.4375 -0.7993
  323MOL0    Cl43515   1.660   1.952   2.893  0.4390  0.2597  0.2826
  323MOL0     C43516   2.670   2.324   3.018  0.7801  0.3582 -0.3488
  323MOL0     C43517   2.796   2.373   2.988 -0.0567 -0.3143 -0.3057
  323MOL0     O43518   3.123   2.223   3.078 -0.5737  0.1124  0.5037
  323MOL0     C43519   3.262   2.525   2.969 -1.1601  0.4910  0.3782
  323MOL0     C43520   3.386   2.584   2.926  1.0119 -0.4227 -0.4193
  323MOL0     N43521   3.989   2.500   2.581 -0.8295  1.1532  0.3266
  323MOL0     N43522   4.006   2.599   2.500 -0.0029 -0.4133 -0.4760
  323MOL0     C43523   5.130   3.028   2.326  0.5725  0.0420 -0.3035
  323MOL0     C43524   5.253   3.076   2.271  0.2723  0.2899 -0.0302
  323MOL0     C43525   5.582   3.208   2.002 -0.1859  0.8343  0.3722
  323MOL0     C43526   5.654   3.324   2.037 -0.1435 -0.5501 -0.1745
  323MOL0     C43527   5.771   3.356   1.979  0.7573  0.3679  0.3775
  323MOL0     C43528   5.826   3.266   1.886 -0.5256 -0.3378  0.1339
  323MOL0     O43529   5.953   3.301   1.830  0.2702 -0.2488  0.1630
  323MOL0     C43530   6.038   3.196   1.776 -0.7563  0.8313  0.5284
  323MOL0     C43531   6.163   3.269   1.725  0.1958  0.0247 -0.3922
  323MOL0     C43532   6.273   3.172   1.684 -0.5335 -0.5183  0.1573
  323MOL0     C43533   6.401   3.247   1.651 -0.3065  0.3885  0.3546
  323MOL0     C43534   6.401   3.344   1.552 -0.1442  0.3133  0.6910
  323MOL0     C43535   6.374   3.425   1.468  0.4833  0.6431  0.1983
  323MOL0     C43536   5.761   3.143   1.849 -0.2991 -0.8296 -0.3108
  323MOL0     C43537   5.639   3.119   1.909  0.7510  0.3009  0.1462
  323MOL0     H43538   5.257   2.854   2.009  1.4825  1.7266 -0.0450
  323MOL0     H43539   5.068   2.767   2.109 -0.7971  0.4965  0.3430
  323MOL0     H43540   4.859   2.988   2.472 -2.5338  2.8122  0.2833
  323MOL0     H43541   4.841   3.029   2.302  6.1540  1.5168  1.9089
  323MOL0     H43542   4.696   2.817   2.289  2.6279 -1.3863 -0.8048
  323MOL0     H43543   4.745   2.765   2.446 -0.6031  1.6345  1.5571
  323MOL0     H43544   4.622   2.912   2.554  1.3221  0.8228  0.2850
  323MOL0     H43545   4.618   3.030   2.409  1.8312 -0.0451 -0.1958
  323MOL0     H43546   4.444   2.895   2.296 -0.9250 -0.4357  0.0226
  323MOL0     H43547   4.460   2.762   2.422 -3.5553 -0.5190 -1.7780
  323MOL0     H43548   4.367   2.914   2.593  1.2346  0.2602 -1.0601
  323MOL0     H43549   4.351   3.038   2.474  2.1371  0.4196  0.6912
  323MOL0     H43550   4.217   2.904   2.331  0.6854  1.6071  0.2228
  323MOL0     H43551   4.223   2.766   2.438 -0.3047  1.2228  1.6893
  323MOL0     H43552   4.151   2.918   2.632  3.5111 -1.8828 -1.3938
  323MOL0     H43553   4.115   3.032   2.499  2.4239  0.5107  0.7182
  323MOL0     H43554   3.958   2.841   2.405 -0.5111 -1.1097  0.1623
  323MOL0     H43555   3.907   2.896   2.565 -1.9880 -1.7393 -1.1751
  323MOL0     H43556   4.036   2.752   2.788 -2.2127  0.1558  0.6620
  323MOL0     H43557   4.115   2.414   2.842  1.5864  1.7015  2.6729
  323MOL0     H43558   4.049   2.546   2.919  2.9754 -0.5360 -0.9451
  323MOL0     H43559   3.914   2.352   2.982 -1.6927  1.0405  1.0244
  323MOL0     H43560   3.908   2.303   2.811  0.9980  1.2499  0.2967
  323MOL0     H43561   3.679   2.383   2.854  0.3145 -0.1417 -2.8518
  323MOL0     H43562   3.770   2.495   2.758 -1.7606  0.2441  0.2136
  323MOL0     H43563   3.823   2.639   2.970 -0.1866 -0.0538  3.0187
  323MOL0     H43564   3.767   2.503   3.055  1.2555  1.6461 -0.5765
  323MOL0     H43565   3.582   2.401   3.138  1.5442  0.5907 -0.5082
  323MOL0     H43566   3.476   2.237   3.256  0.1211  0.2117 -0.7538
  323MOL0     H43567   3.310   2.267   3.289  0.0922 -3.1743  0.9046
  323MOL0     H43568   3.340   2.165   3.160 -3.6940  0.7417  2.1382
  323MOL0     H43569   2.925   2.316   3.288  1.4732  0.6997 -1.6651
  323MOL0     H43570   2.706   2.221   3.336 -2.3622  0.8078  0.4187
  323MOL0     H43571   2.590   1.994   3.172  1.1204  0.9708 -0.6063
  323MOL0     H43572   2.548   2.085   3.319  1.4841 -3.6840  0.3322
  323MOL0     H43573   2.367   1.993   3.105  1.7804 -1.9109 -0.6389
  323MOL0     H43574   2.392   1.910   3.251  3.2231 -0.9702 -1.4291
  323MOL0     H43575   2.273   2.186   3.243 -0.4092 -0.6157  0.7652
  323MOL0     H43576   2.326   2.122   3.393  0.9400  0.1864 -0.7736
  323MOL0     H43577   2.188   1.925   3.361  0.9129 -0.1037 -0.1103
  323MOL0     H43578   2.087   2.072   3.378  1.8486 -0.4698  3.2044
  323MOL0     H43579   2.144   1.901   3.125  2.1804  0.8652 -0.9954
  323MOL0     H43580   2.107   2.075   3.111  0.4546 -0.6601 -0.3553
  323MOL0     H43581   1.926   1.856   3.228 -0.1527  1.2104  1.0052
  323MOL0     H43582   1.886   2.020   3.231  1.1561 -1.0637  2.0559
  323MOL0     H43583   1.953   1.873   2.975 -1.4179  1.4221 -2.9410
  323MOL0     H43584   1.913   2.033   2.975  3.6539 -1.4213 -0.3442
  323MOL0     H43585   1.697   1.933   3.121  3.5095 -0.8389  1.5617
  323MOL0     H43586   1.753   1.791   3.035 -1.0670 -0.5705 -3.2341
  323MOL0     H43587   2.606   2.325   2.930  1.5420 -0.9680 -0.9508
  323MOL0     H43588   2.802   2.440   2.903  2.1554  1.2359  0.9514
  323MOL0     H43589   3.171   2.579   2.944 -0.0795  2.0912 -0.2797
  323MOL0     H43590   3.396   2.676   2.870 -0.1809 -1.6361 -2.7843
  323MOL0     H43591   5.097   3.075   2.418 -0.8153  1.1736 -1.3228
  323MOL0     H43592   5.301   3.165   2.309  1.0360 -0.8792  1.9012
  323MOL0     H43593   5.613   3.388   2.114  0.8044  1.9064 -1.6055
  323MOL0     H43594   5.810   3.451   2.014  0.9616  0.0940  0.8994
  323MOL0     H43595   6.055   3.127   1.859  0.0198  1.8026  1.2097
  323MOL0     H43596   5.994   3.137   1.696 -0.2929  1.3056 -0.0860
  323MOL0     H43597   6.204   3.337   1.800 -0.4344  0.9501 -0.8769
  323MOL0     H43598   6.139   3.332   1.639 -0.8912  3.4233  2.1912
  323MOL0     H43599   6.247   3.107   1.600  1.0361  1.1879 -1.7547
  323MOL0     H43600   6.274   3.099   1.766 -0.1596 -2.1935 -1.2900
  323MOL0     H43601   6.475   3.173   1.619 -1.2415  0.6897 -2.7894
  323MOL0     H43602   6.438   3.299   1.741 -1.4798  2.4632 -0.2778
  323MOL0     H43603   6.350   3.494   1.389 -0.4564 -1.1235 -1.1348
  323MOL0     H43604   5.800   3.066   1.783  1.7699  0.8650 -1.1685
  323MOL0     H43605   5.588   3.026   1.884  1.8017 -0.8051  1.9310
  324MOL0     O43606  10.965   5.858   7.009  0.8184  0.1099  0.4281
  324MOL0     C43607  11.064   5.820   6.954 -0.3360  0.6174  0.4443
  324MOL0     O43608  11.077   5.812   6.822 -0.2564  0.6158 -0.3267
  324MOL0     C43609  10.978   5.844   6.731 -0.9321  0.1258  0.1478
  324MOL0     C43610  10.854   5.774   6.726 -0.1487  0.6959  0.4480
  324MOL0     C43611  10.755   5.799   6.624 -0.2164  0.1185 -0.6420
  324MOL0     C43612  10.787   5.899   6.532 -0.0264  1.0464 -0.0982
  324MOL0     O43613  10.685   5.937   6.457 -0.4097  0.5259  0.8143
  324MOL0     C43614  10.725   5.974   6.313 -0.1097  0.3759 -0.7077
  324MOL0     C43615  10.593   6.002   6.233 -0.1878  0.3966  0.0001
  324MOL0     C43616  10.527   6.130   6.274  0.5650 -0.9952  0.4824
  324MOL0     C43617  10.426   6.173   6.161  0.2910 -1.1283 -0.6115
  324MOL0     C43618  10.296   6.089   6.137 -0.7317  0.7310  0.9002
  324MOL0     C43619  10.232   6.099   5.994 -0.2143 -0.1955 -0.3241
  324MOL0     C43620  10.089   6.046   5.994  0.2394 -0.0011 -0.0338
  324MOL0     C43621  10.034   6.073   5.848  0.3574 -0.0252  0.3456
  324MOL0     N43622   9.899   6.026   5.824 -0.4576 -0.0302 -0.9275
  324MOL0     C43623   9.836   6.044   5.712 -0.3541  0.1290 -0.2674
  324MOL0     C43624   9.715   5.993   5.736  0.7533  0.2450  0.3666
  324MOL0     C43625   9.606   5.977   5.630 -0.4565  0.0637 -1.1498
  324MOL0     C43626   9.565   6.107   5.564 -0.0739  0.0642  0.6311
  324MOL0     C43627   9.485   6.208   5.656  1.0982 -0.9584  0.3307
  324MOL0     C43628   9.359   6.249   5.577  0.2685 -0.5828  0.5947
  324MOL0     O43629   9.250   6.161   5.605 -0.0055  0.9120 -0.4396
  324MOL0     C43630   9.130   6.182   5.548 -0.4834  0.3413  0.7360
  324MOL0     C43631   9.101   6.271   5.443  0.3315 -0.1825  0.1356
  324MOL0     C43632   8.969   6.292   5.408 -0.4326 -1.3611 -0.4408
  324MOL0     C43633   8.957   6.394   5.304  0.4942  0.2054 -0.6419
  324MOL0     C43634   8.865   6.214   5.461  0.0179  0.1961 -0.3691
  324MOL0     C43635   8.725   6.231   5.435  0.0395  0.1359  1.3466
  324MOL0     O43636   8.644   6.120   5.457 -0.4774 -0.1415 -0.4808
  324MOL0     C43637   8.517   6.117   5.401 -0.5162  0.6626  0.0373
  324MOL0     C43638   8.418   6.087   5.492  0.0576 -0.5682  0.5775
  324MOL0     C43639   8.281   6.083   5.455 -0.2437  1.1190 -0.3415
  324MOL0     C43640   8.252   6.086   5.315  0.1223 -0.8475 -0.9042
  324MOL0     O43641   8.123   6.068   5.265 -0.0447 -0.1998 -0.1911
  324MOL0     C43642   8.037   5.978   5.338  0.0308  0.9557  0.2352
  324MOL0     C43643   7.903   5.967   5.251 -0.1619 -0.2896 -0.8789
  324MOL0     C43644   7.832   6.104   5.239  0.0771 -0.7021  0.4012
  324MOL0     C43645   7.759   6.115   5.104  0.9813 -0.6720  0.9219
  324MOL0     C43646   7.773   6.254   5.038 -0.2180  0.6195 -0.4120
  324MOL0     C43647   7.675   6.366   5.095 -0.0932  0.1902  0.1477
  324MOL0     C43648   7.721   6.501   5.049 -0.4825 -0.8866  0.1414
  324MOL0     C43649   7.613   6.613   5.051 -0.5682  0.0883 -0.6648
  324MOL0    Cl43650   7.509   6.589   5.188  0.2834 -0.3819 -0.0440
  324MOL0     C43651   8.348   6.100   5.221  0.4846  0.4080 -0.1800
  324MOL0     C43652   8.483   6.121   5.263  0.6834  0.0846 -0.7190
  324MOL0     O43653   8.686   6.339   5.383 -0.2818 -0.3347 -0.5559
  324MOL0     C43654   8.899   6.109   5.555  0.0934 -0.3420 -0.0309
  324MOL0     C43655   9.029   6.101   5.593  0.2235 -0.2354 -0.4520
  324MOL0     N43656   9.707   5.953   5.866  0.5818  0.2302 -0.1303
  324MOL0     N43657   9.818   5.973   5.919  0.3636 -0.0350 -0.5689
  324MOL0     C43658  10.910   5.961   6.526 -0.0722 -0.7699  0.3347
  324MOL0     C43659  11.000   5.933   6.625 -0.0664 -0.5710  0.7324
  324MOL0     C43660  11.173   5.778   7.040  0.0518  0.2002 -0.2013
  324MOL0     C43661  11.303   5.760   6.993  0.7690 -0.7124 -0.3531
  324MOL0     C43662  11.396   5.756   7.095 -0.6843 -0.0574  0.0474
  324MOL0     C43663  11.375   5.740   7.231 -0.0453 -0.8346  0.1024
  324MOL0     O43664  11.481   5.726   7.321 -0.5594  0.0523 -0.2597
  324MOL0     C43665  11.462   5.685   7.456 -0.0121 -0.3127 -0.4780
  324MOL0     C43666  11.590   5.632   7.506 -0.0458  0.0045 -0.3303
  324MOL0     C43667  11.624   5.496   7.450  0.1832  0.2646  0.2639
  324MOL0     C43668  11.518   5.382   7.473  0.3852 -0.5400  0.3818
  324MOL0     C43669  11.508   5.341   7.615  0.3842 -0.0804  0.1067
  324MOL0     C43670  11.498   5.330   7.744 -0.6500 -0.7274 -0.0557
  324MOL0     C43671  11.245   5.749   7.275 -0.3972  0.1747 -0.1312
  324MOL0     C43672  11.147   5.773   7.179 -0.5296 -0.4478 -0.4160
  324MOL0     H43673  10.818   5.715   6.810  3.0347 -0.2026  1.2985
  324MOL0     H43674  10.657   5.753   6.629 -1.2505  2.3712  1.5463
  324MOL0     H43675  10.793   6.059   6.307  1.8308 -0.8504  1.9964
  324MOL0     H43676  10.767   5.883   6.269  1.4163  0.6822  0.0740
  324MOL0     H43677  10.613   6.000   6.125 -0.2745 -3.3460 -0.0909
  324MOL0     H43678  10.514   5.927   6.245 -0.3160  0.3863 -0.8353
  324MOL0     H43679  10.476   6.115   6.370 -0.5846 -1.5969 -0.1944
  324MOL0     H43680  10.594   6.216   6.286 -1.7900  0.8867  0.9481
  324MOL0     H43681  10.403   6.279   6.173 -0.0583 -0.8644 -3.0409
  324MOL0     H43682  10.483   6.188   6.069 -0.6906  2.8012 -0.7753
  324MOL0     H43683  10.320   5.983   6.145  1.7283  1.0631 -1.0005
  324MOL0     H43684  10.218   6.104   6.213 -1.5081  0.6873  0.1310
  324MOL0     H43685  10.238   6.204   5.963  0.7287  0.2683  1.2931
  324MOL0     H43686  10.299   6.065   5.915 -0.2277 -0.8307 -0.0736
  324MOL0     H43687  10.087   5.941   6.023  0.0077 -0.1152 -0.4560
  324MOL0     H43688  10.032   6.097   6.073  1.6628 -2.3892  2.6933
  324MOL0     H43689  10.107   6.033   5.778 -0.2302 -0.0744 -0.2503
  324MOL0     H43690  10.021   6.181   5.831 -2.4725 -0.6299 -2.0729
  324MOL0     H43691   9.869   6.096   5.623  1.4351  2.7433  1.7312
  324MOL0     H43692   9.654   5.898   5.572 -1.0175 -2.8296  2.0374
  324MOL0     H43693   9.519   5.931   5.676  0.5589  0.2714  1.1023
  324MOL0     H43694   9.503   6.079   5.478 -1.8668  1.9387  1.2143
  324MOL0     H43695   9.656   6.162   5.538  1.1597  0.0744  4.3946
  324MOL0     H43696   9.556   6.289   5.670  1.6430 -1.1298 -1.2246
  324MOL0     H43697   9.457   6.157   5.749 -2.0732 -0.7286 -0.3796
  324MOL0     H43698   9.385   6.265   5.472  1.1372  0.7276  0.9882
  324MOL0     H43699   9.332   6.349   5.611  1.3610 -0.4493  1.1276
  324MOL0     H43700   9.178   6.334   5.399 -0.3801  0.0633 -0.7818
  324MOL0     H43701   8.932   6.487   5.357  0.2117  0.2523 -0.8545
  324MOL0     H43702   9.047   6.413   5.244  1.0431 -2.9801 -0.9707
  324MOL0     H43703   8.882   6.365   5.230  1.7817 -0.4634 -1.7256
  324MOL0     H43704   8.450   6.076   5.595 -0.6587  1.6627  1.0824
  324MOL0     H43705   8.213   6.053   5.534  0.9369  1.6658  0.9177
  324MOL0     H43706   8.078   5.877   5.344 -2.2142 -0.2043 -2.3439
  324MOL0     H43707   8.004   6.029   5.430 -0.3393  1.7624 -0.3275
  324MOL0     H43708   7.914   5.932   5.148 -0.4346  2.1798 -1.8055
  324MOL0     H43709   7.843   5.891   5.302  0.8878  0.1224  1.0784
  324MOL0     H43710   7.904   6.185   5.252  0.7417 -1.2913  0.4516
  324MOL0     H43711   7.754   6.111   5.316  1.1307 -0.4212  1.4700
  324MOL0     H43712   7.791   6.037   5.035  1.5151 -0.8163  1.3242
  324MOL0     H43713   7.653   6.094   5.122  0.5387  1.1025  0.6181
  324MOL0     H43714   7.752   6.232   4.933 -0.4919  0.1472 -0.2638
  324MOL0     H43715   7.875   6.288   5.062 -0.2671  1.4870 -1.4021
  324MOL0     H43716   7.573   6.348   5.061 -0.9465  4.0295  0.2299
  324MOL0     H43717   7.665   6.357   5.204  3.7537  2.1854  0.8550
  324MOL0     H43718   7.755   6.497   4.945  1.5557  2.2065  0.5245
  324MOL0     H43719   7.807   6.543   5.103 -0.3655 -0.1010 -0.6247
  324MOL0     H43720   7.556   6.601   4.958  1.8774  1.2121 -2.4153
  324MOL0     H43721   7.671   6.706   5.053 -0.4917  0.0449  1.4488
  324MOL0     H43722   8.314   6.134   5.124 -1.6079 -0.1336  0.2922
  324MOL0     H43723   8.558   6.142   5.186  2.2137 -2.1875  0.0433
  324MOL0     H43724   8.827   6.049   5.610 -3.1787  3.2034  0.0338
  324MOL0     H43725   9.052   6.029   5.671 -2.3019 -1.1277 -0.4347
  324MOL0     H43726  10.918   6.033   6.445 -3.0421  0.5465  1.0687
  324MOL0     H43727  11.099   5.978   6.618  0.0102 -0.9369 -1.0916
  324MOL0     H43728  11.325   5.765   6.887  2.0921 -2.3447 -0.2000
  324MOL0     H43729  11.495   5.756   7.052 -1.0685 -1.1510 -0.8901
  324MOL0     H43730  11.442   5.775   7.515  0.6916 -0.1167 -0.5337
  324MOL0     H43731  11.375   5.620   7.469 -0.3358  0.3095  0.6267
  324MOL0     H43732  11.583   5.615   7.614 -0.8218 -2.3792 -0.6787
  324MOL0     H43733  11.665   5.709   7.487 -0.1711  0.4887  1.0278
  324MOL0     H43734  11.720   5.463   7.491 -0.2633 -2.0113 -0.3590
  324MOL0     H43735  11.649   5.506   7.344  1.3730 -0.2055  0.4830
  324MOL0     H43736  11.549   5.295   7.414  0.4936 -0.1890 -0.0886
  324MOL0     H43737  11.421   5.411   7.432 -2.3019 -5.3701  2.5684
  324MOL0     H43738  11.488   5.324   7.851  0.6983  1.9798  0.3286
  324MOL0     H43739  11.211   5.752   7.378  0.5444  2.9735  0.1872
  324MOL0     H43740  11.048   5.791   7.218 -0.7414  1.6878 -1.7480
  325MOL0     O43741   1.212   2.288   8.944 -0.3683 -0.3393  0.6637
  325MOL0     C43742   1.160   2.309   8.833  0.0101  0.5987 -0.1188
  325MOL0     O43743   1.033   2.334   8.809 -0.2588 -0.0267  0.1655
  325MOL0     C43744   0.938   2.348   8.909 -0.6974  0.2236  0.0689
  325MOL0     C43745   0.918   2.238   8.989  0.7113 -0.3378  0.0037
  325MOL0     C43746   0.808   2.246   9.079 -0.5560  0.1373  0.0192
  325MOL0     C43747   0.725   2.355   9.078  0.3341 -0.7096  0.0389
  325MOL0     O43748   0.607   2.343   9.158 -0.1019  0.1813 -0.8070
  325MOL0     C43749   0.508   2.446   9.167  0.5335  0.0671 -0.6027
  325MOL0     C43750   0.544   2.534   9.290  1.1424 -0.2283  0.2453
  325MOL0     C43751   0.446   2.651   9.297 -0.0873 -0.6292  0.4318
  325MOL0     C43752   0.468   2.753   9.183  0.6322 -0.3923  0.2177
  325MOL0     C43753   0.359   2.864   9.184 -0.4749 -0.5681 -0.9273
  325MOL0     C43754   0.223   2.802   9.145 -1.3627 -0.5658 -0.0173
  325MOL0     C43755   0.134   2.915   9.105  0.1923  0.4770  0.3474
  325MOL0     C43756   0.090   3.008   9.223  0.2688 -0.4416  0.7962
  325MOL0     N43757  -0.036   2.964   9.276 -0.1438  0.7565  0.3106
  325MOL0     C43758  -0.156   3.027   9.270  0.3214 -0.2986 -0.1033
  325MOL0     C43759  -0.242   2.944   9.335 -0.1090 -0.2557  0.8856
  325MOL0     C43760  -0.388   2.955   9.351  0.0681 -0.0661  0.7525
  325MOL0     C43761  -0.445   2.913   9.212  0.4449 -0.0253 -0.4292
  325MOL0     C43762  -0.577   2.977   9.202 -0.9441 -0.0107  0.1243
  325MOL0     C43763  -0.688   2.903   9.277 -0.5060  0.7417  0.4557
  325MOL0     O43764  -0.715   2.792   9.183 -0.0958 -1.2582 -0.0773
  325MOL0     C43765  -0.838   2.758   9.140 -0.8896  0.6632  0.3770
  325MOL0     C43766  -0.855   2.664   9.043 -0.2166  0.5394  1.1859
  325MOL0     C43767  -0.975   2.637   8.974 -0.2063 -0.2903 -0.3751
  325MOL0     C43768  -0.974   2.538   8.860 -0.8356  0.2738 -0.0322
  325MOL0     C43769  -1.091   2.700   9.026  0.2582  0.0717 -0.3296
  325MOL0     C43770  -1.226   2.662   8.969  0.6579 -0.6868  0.3944
  325MOL0     O43771  -1.318   2.762   8.968  0.1488  0.0287 -0.3699
  325MOL0     C43772  -1.426   2.744   8.879  0.5808 -2.0830 -0.4295
  325MOL0     C43773  -1.402   2.743   8.736  0.0838 -0.5738 -0.6813
  325MOL0     C43774  -1.505   2.712   8.639  0.0290  0.1753 -0.5582
  325MOL0     C43775  -1.636   2.698   8.690  0.5696  0.9315  0.8515
  325MOL0     O43776  -1.752   2.673   8.622  0.2464  0.2601 -0.2833
  325MOL0     C43777  -1.764   2.703   8.481 -0.6556 -0.0788 -0.9065
  325MOL0     C43778  -1.731   2.589   8.387 -0.1024  0.1958  1.1574
  325MOL0     C43779  -1.762   2.641   8.238  1.2089 -0.9898 -0.3120
  325MOL0     C43780  -1.647   2.706   8.185 -0.7073  0.1391  0.7295
  325MOL0     C43781  -1.688   2.793   8.073  0.1330 -0.1278 -0.0431
  325MOL0     C43782  -1.575   2.850   7.994 -0.0798 -0.6535  1.3221
  325MOL0     C43783  -1.618   2.941   7.883  0.3795 -0.6757 -0.2560
  325MOL0     C43784  -1.681   2.871   7.765  0.7927  0.0954  0.6834
  325MOL0    Cl43785  -1.563   2.791   7.663 -0.0571  0.2979 -0.0243
  325MOL0     C43786  -1.657   2.711   8.826 -0.7484  0.0743 -0.3810
  325MOL0     C43787  -1.552   2.728   8.927 -0.2329 -0.6050 -0.2616
  325MOL0     O43788  -1.255   2.555   8.924  0.3055  0.1950 -0.4443
  325MOL0     C43789  -1.076   2.791   9.129 -0.2601  0.1154 -1.2165
  325MOL0     C43790  -0.949   2.816   9.189 -0.1479  0.2036 -0.4951
  325MOL0     N43791  -0.185   2.833   9.381  0.5211  0.1601 -1.1286
  325MOL0     N43792  -0.062   2.842   9.348 -0.2713 -0.0532 -0.3795
  325MOL0     C43793   0.749   2.468   8.995 -0.2007 -0.4315  0.3303
  325MOL0     C43794   0.865   2.466   8.914 -0.2631  1.0203 -0.6470
  325MOL0     C43795   1.252   2.338   8.724  0.1190  0.3025  0.3103
  325MOL0     C43796   1.388   2.358   8.748  0.4309  0.1345  0.0568
  325MOL0     C43797   1.483   2.371   8.644  0.0516  0.4276  0.3540
  325MOL0     C43798   1.438   2.377   8.512  0.0561  0.1613 -0.1186
  325MOL0     O43799   1.519   2.406   8.399  0.3851  0.5148  1.0569
  325MOL0     C43800   1.650   2.470   8.409 -0.2824  0.0753  0.3679
  325MOL0     C43801   1.736   2.359   8.355 -0.1699 -1.1965  0.4997
  325MOL0     C43802   1.708   2.340   8.206 -0.3129 -0.7770 -0.5099
  325MOL0     C43803   1.817   2.405   8.109  0.2684 -0.2336 -0.6807
  325MOL0     C43804   1.842   2.548   8.131  0.9615  0.3447 -0.5429
  325MOL0     C43805   1.856   2.669   8.136  0.4647  0.1915  0.0869
  325MOL0     C43806   1.301   2.345   8.483  0.1128 -0.5951 -0.1974
  325MOL0     C43807   1.208   2.333   8.588 -0.3285 -0.6262 -0.9227
  325MOL0     H43808   0.989   2.158   8.975 -0.1547 -0.9279 -1.1834
  325MOL0     H43809   0.782   2.158   9.137  1.6034 -1.9708 -1.9859
  325MOL0     H43810   0.476   2.497   9.075 -2.0325  0.7301  0.5442
  325MOL0     H43811   0.408   2.408   9.192 -1.0165  3.8372 -0.4030
  325MOL0     H43812   0.541   2.476   9.383  0.7506  0.2287  0.5242
  325MOL0     H43813   0.644   2.577   9.278  0.7623  0.8865  0.9488
  325MOL0     H43814   0.342   2.620   9.284 -0.6584  0.3411  2.3471
  325MOL0     H43815   0.454   2.699   9.394 -1.9550  1.8350 -0.5298
  325MOL0     H43816   0.562   2.808   9.194  1.2875 -0.9642 -2.0301
  325MOL0     H43817   0.481   2.724   9.079  3.5901  3.6667 -0.8190
  325MOL0     H43818   0.349   2.905   9.285 -2.9883  1.8789 -2.0442
  325MOL0     H43819   0.396   2.946   9.123  0.7644  2.6157  3.6233
  325MOL0     H43820   0.231   2.732   9.062 -4.3319 -2.4711  1.1621
  325MOL0     H43821   0.185   2.737   9.224 -0.2714  0.8591  1.7821
  325MOL0     H43822   0.188   2.986   9.041  1.6478 -0.0297  0.9751
  325MOL0     H43823   0.055   2.858   9.056  1.1871 -2.5508  2.0228
  325MOL0     H43824   0.072   3.110   9.189 -0.7414 -0.8134  0.1889
  325MOL0     H43825   0.165   3.010   9.303  1.6227  0.7457 -0.4450
  325MOL0     H43826  -0.169   3.126   9.227  0.0946  0.7127  2.1169
  325MOL0     H43827  -0.433   2.880   9.415 -2.9168  0.8073 -0.1795
  325MOL0     H43828  -0.418   3.059   9.368 -2.0807 -0.5648  0.2575
  325MOL0     H43829  -0.461   2.805   9.212  0.3324 -0.0092 -0.5719
  325MOL0     H43830  -0.386   2.945   9.126  0.1697 -2.5905 -1.6632
  325MOL0     H43831  -0.608   2.971   9.097 -4.7472 -4.5090  1.1384
  325MOL0     H43832  -0.578   3.077   9.246 -1.5493 -1.3107  3.3878
  325MOL0     H43833  -0.771   2.973   9.296 -0.3258  0.7294  1.2963
  325MOL0     H43834  -0.647   2.862   9.369 -0.8182  0.3065  0.4008
  325MOL0     H43835  -0.763   2.613   9.015  0.4484  1.1408  2.2293
  325MOL0     H43836  -0.875   2.497   8.837 -0.5372  0.1864  1.3312
  325MOL0     H43837  -1.032   2.450   8.888  0.6069 -0.2097  1.6314
  325MOL0     H43838  -1.016   2.590   8.774 -0.3097  2.2207  0.8373
  325MOL0     H43839  -1.307   2.768   8.690  0.8063 -0.9262  0.5911
  325MOL0     H43840  -1.493   2.700   8.532  0.8648  2.7754 -0.8029
  325MOL0     H43841  -1.865   2.740   8.461 -0.2819  0.7608 -1.2940
  325MOL0     H43842  -1.694   2.785   8.462  0.6934 -0.9316  0.1698
  325MOL0     H43843  -1.628   2.553   8.394  0.0689  0.4217 -0.0643
  325MOL0     H43844  -1.796   2.505   8.413 -2.3079  0.5500 -2.4918
  325MOL0     H43845  -1.846   2.711   8.248 -0.5533 -2.3494 -3.8413
  325MOL0     H43846  -1.803   2.570   8.165 -0.9246  1.8608 -2.1116
  325MOL0     H43847  -1.600   2.771   8.260 -0.4097 -0.0916  0.7472
  325MOL0     H43848  -1.569   2.634   8.156 -3.1716 -1.5884 -2.1193
  325MOL0     H43849  -1.741   2.876   8.120  1.6846  1.4414 -0.9587
  325MOL0     H43850  -1.758   2.746   8.003  0.8246  0.9182 -1.4912
  325MOL0     H43851  -1.509   2.905   8.062 -0.0664  0.5201  0.3991
  325MOL0     H43852  -1.524   2.765   7.949 -0.3480 -1.5869  2.7261
  325MOL0     H43853  -1.539   3.009   7.849 -1.9933  1.2560 -2.3251
  325MOL0     H43854  -1.688   3.010   7.931  1.4333  1.1860 -1.2597
  325MOL0     H43855  -1.726   2.953   7.708  3.2156 -0.5696 -2.4865
  325MOL0     H43856  -1.764   2.802   7.785  0.0302  0.6736 -0.3223
  325MOL0     H43857  -1.760   2.695   8.856  0.1257 -3.8093  1.2849
  325MOL0     H43858  -1.571   2.746   9.032 -1.2173  0.7410 -0.6313
  325MOL0     H43859  -1.166   2.826   9.180  1.2492  0.0558  1.6849
  325MOL0     H43860  -0.961   2.887   9.270 -1.3295  0.7363 -1.1179
  325MOL0     H43861   0.678   2.550   8.996  0.4672  0.1453  1.4634
  325MOL0     H43862   0.893   2.543   8.843 -0.9840  1.6349 -0.2843
  325MOL0     H43863   1.439   2.355   8.844 -0.0607  1.5163  0.3810
  325MOL0     H43864   1.589   2.384   8.663  0.8899 -2.1565 -1.9250
  325MOL0     H43865   1.657   2.557   8.344 -0.1294  0.1871  0.5342
  325MOL0     H43866   1.664   2.506   8.511 -3.0560  1.0285  0.4795
  325MOL0     H43867   1.736   2.265   8.410  2.4743 -0.2390  2.3608
  325MOL0     H43868   1.841   2.391   8.363 -0.3384 -0.8341  1.4310
  325MOL0     H43869   1.611   2.386   8.183  0.4763 -0.0914 -2.6797
  325MOL0     H43870   1.691   2.237   8.173 -3.9667  0.8153 -4.5716
  325MOL0     H43871   1.771   2.396   8.010 -0.5733  0.7469 -0.3925
  325MOL0     H43872   1.913   2.351   8.105  0.8040  0.6429  0.0233
  325MOL0     H43873   1.858   2.775   8.147  0.0007  0.1034  1.0542
  325MOL0     H43874   1.279   2.336   8.377  1.7437  0.0568 -0.6239
  325MOL0     H43875   1.108   2.303   8.562 -0.4151 -1.1097 -0.0865
  326MOL0     O43876   5.573  10.350   0.679  0.4233  0.6342 -0.4690
  326MOL0     C43877   5.653  10.290   0.753 -0.5753 -0.1921  0.4027
  326MOL0     O43878   5.660  10.295   0.890  0.5924  0.2553 -0.0668
  326MOL0     C43879   5.546  10.338   0.960 -0.4767 -0.1363  0.4422
  326MOL0     C43880   5.507  10.254   1.070  0.0087 -0.6599 -0.3806
  326MOL0     C43881   5.395  10.272   1.156  0.1638 -0.0583 -0.9011
  326MOL0     C43882   5.298  10.362   1.124  0.1552 -0.5791  0.3730
  326MOL0     O43883   5.183  10.387   1.204  0.3846 -0.0446  0.2936
  326MOL0     C43884   5.081  10.474   1.160 -1.4730 -0.5936 -0.6146
  326MOL0     C43885   4.962  10.449   1.246  0.6995 -0.3654 -0.0453
  326MOL0     C43886   4.844  10.549   1.236  0.3037  0.2745 -0.2768
  326MOL0     C43887   4.799  10.579   1.096  0.5968  0.2343 -0.6651
  326MOL0     C43888   4.687  10.684   1.097 -0.3251  0.2170 -0.9641
  326MOL0     C43889   4.551  10.627   1.148 -0.7274  0.9258 -0.2353
  326MOL0     C43890   4.463  10.738   1.202 -0.5577  0.9358 -0.0472
  326MOL0     C43891   4.410  10.842   1.111 -0.4467 -0.2664  0.2243
  326MOL0     N43892   4.352  10.952   1.191  0.2487  0.9183 -0.3217
  326MOL0     C43893   4.236  10.938   1.265 -0.5615 -1.1519  0.2212
  326MOL0     C43894   4.213  11.065   1.301 -0.1990 -0.2800  0.7173
  326MOL0     C43895   4.097  11.117   1.376  0.8613 -0.4866 -0.1869
  326MOL0     C43896   3.967  11.045   1.326  0.8292 -0.2116  0.0883
  326MOL0     C43897   3.843  11.106   1.391 -0.4743 -0.2142 -0.4388
  326MOL0     C43898   3.712  11.034   1.365 -0.7237 -0.2099  0.2128
  326MOL0     O43899   3.631  11.091   1.468 -0.2769 -0.7560  0.0044
  326MOL0     C43900   3.509  11.033   1.503  0.2071  1.1915  0.8606
  326MOL0     C43901   3.430  11.082   1.607  0.3435 -0.2384  0.2316
  326MOL0     C43902   3.310  11.023   1.643  0.3775 -0.0021 -0.2338
  326MOL0     C43903   3.249  11.079   1.761 -0.0732 -0.3194  0.2672
  326MOL0     C43904   3.268  10.906   1.583 -0.6054  0.7806 -0.4233
  326MOL0     C43905   3.137  10.841   1.614 -0.2579  0.9306  0.3145
  326MOL0     O43906   3.080  10.779   1.509  0.8655 -0.3595 -0.5753
  326MOL0     C43907   2.974  10.689   1.527  0.0589  0.4859 -0.0486
  326MOL0     C43908   2.942  10.607   1.636 -0.3294 -0.5069 -0.0943
  326MOL0     C43909   2.829  10.517   1.630  0.3410 -0.8636  0.2316
  326MOL0     C43910   2.771  10.503   1.502  0.8449  0.2657 -0.7984
  326MOL0     O43911   2.662  10.426   1.479  0.1302 -0.2702 -0.6132
  326MOL0     C43912   2.662  10.300   1.543  0.5272  0.1411  0.7882
  326MOL0     C43913   2.522  10.243   1.540 -0.1345 -0.5006 -0.1164
  326MOL0     C43914   2.516  10.086   1.555 -0.7277 -0.1336 -0.3051
  326MOL0     C43915   2.375  10.044   1.591  0.5678 -1.0495  0.0138
  326MOL0     C43916   2.288  10.051   1.467 -0.8156  0.3806 -0.0078
  326MOL0     C43917   2.138  10.020   1.493  0.7476  0.2651  0.4741
  326MOL0     C43918   2.046   9.983   1.362  0.4832  0.0729  0.4449
  326MOL0     C43919   2.022  10.101   1.268  0.6360  0.2312  0.1430
  326MOL0    Cl43920   1.893  10.207   1.351  0.2015  0.5252 -0.5662
  326MOL0     C43921   2.796  10.586   1.390 -0.7494  0.4545 -0.4962
  326MOL0     C43922   2.900  10.671   1.408 -0.8771  0.3803 -0.4398
  326MOL0     O43923   3.105  10.837   1.729 -0.0072 -0.1260 -0.1327
  326MOL0     C43924   3.356  10.843   1.483  0.6033 -0.0113  0.4074
  326MOL0     C43925   3.472  10.907   1.442  0.3132  0.5812 -0.2598
  326MOL0     N43926   4.313  11.145   1.249 -0.1590 -0.2870 -0.0095
  326MOL0     N43927   4.389  11.080   1.179 -0.5352  0.4127 -0.3860
  326MOL0     C43928   5.322  10.436   0.995  0.2590  0.9393 -0.7535
  326MOL0     C43929   5.448  10.428   0.922  0.0912  0.8353 -0.6196
  326MOL0     C43930   5.772  10.217   0.677  0.2874 -0.9899 -0.8798
  326MOL0     C43931   5.809  10.234   0.549 -0.0774  0.1161 -0.6618
  326MOL0     C43932   5.928  10.193   0.498 -0.5107 -0.4391 -0.6542
  326MOL0     C43933   6.015  10.119   0.570 -0.0045 -0.5675  0.1023
  326MOL0     O43934   6.131  10.057   0.518 -0.7363 -0.1559 -0.4996
  326MOL0     C43935   6.209  10.132   0.422 -0.0772  0.6418  0.6976
  326MOL0     C43936   6.351  10.067   0.407 -0.0915  0.4185  0.4601
  326MOL0     C43937   6.420  10.049   0.545 -0.0095 -0.1003  0.0794
  326MOL0     C43938   6.573  10.050   0.525 -0.6294  0.0433 -0.0713
  326MOL0     C43939   6.623   9.938   0.450 -0.3594 -0.2523  1.3963
  326MOL0     C43940   6.672   9.851   0.379  0.1660  0.0222 -0.1641
  326MOL0     C43941   5.980  10.089   0.699  0.3677  0.0748 -0.7226
  326MOL0     C43942   5.859  10.135   0.755  1.2143  0.2020  0.2272
  326MOL0     H43943   5.573  10.172   1.093 -0.7449 -1.0295  0.5267
  326MOL0     H43944   5.378  10.222   1.250 -0.2885 -1.2398 -1.5917
  326MOL0     H43945   5.123  10.571   1.186 -0.3639 -0.7664 -1.6737
  326MOL0     H43946   5.056  10.473   1.053 -0.4614  1.6638 -0.9318
  326MOL0     H43947   4.931  10.354   1.202  0.1150 -0.7520  1.1465
  326MOL0     H43948   4.978  10.418   1.350  0.0595  1.6020  0.6825
  326MOL0     H43949   4.762  10.508   1.295  1.6108 -2.1781 -0.0132
  326MOL0     H43950   4.878  10.636   1.293 -0.6586 -0.1892  1.0440
  326MOL0     H43951   4.883  10.620   1.039 -0.5615  1.9207 -1.2197
  326MOL0     H43952   4.760  10.487   1.052  2.3950 -0.0356 -1.8020
  326MOL0     H43953   4.717  10.764   1.166 -0.8256  0.7215 -1.3239
  326MOL0     H43954   4.668  10.729   0.999  0.4292  0.3996 -1.0291
  326MOL0     H43955   4.505  10.573   1.065 -1.4737 -1.7296  1.7856
  326MOL0     H43956   4.554  10.549   1.224 -0.3309 -0.5934 -1.7460
  326MOL0     H43957   4.377  10.687   1.247  0.9535  1.1274  3.3751
  326MOL0     H43958   4.510  10.786   1.289  0.2796  0.6064 -0.3143
  326MOL0     H43959   4.336  10.804   1.040  1.6614 -1.4089 -1.5009
  326MOL0     H43960   4.490  10.896   1.059 -2.1927  0.8400 -1.4335
  326MOL0     H43961   4.182  10.847   1.291  0.2629 -1.5047  0.7656
  326MOL0     H43962   4.107  11.101   1.484  0.7196  0.8933  0.0499
  326MOL0     H43963   4.088  11.225   1.361 -3.1299 -0.8131 -1.0931
  326MOL0     H43964   3.965  10.939   1.356 -2.1099 -0.8471 -1.9060
  326MOL0     H43965   3.950  11.056   1.219 -0.1514 -1.4244  0.0937
  326MOL0     H43966   3.820  11.210   1.364  2.1175  0.9449  1.3961
  326MOL0     H43967   3.860  11.098   1.499  0.5734 -2.1458 -0.7144
  326MOL0     H43968   3.733  10.927   1.371  3.1040  0.3361 -0.9853
  326MOL0     H43969   3.671  11.060   1.267  0.4256 -0.5216 -0.3682
  326MOL0     H43970   3.460  11.167   1.666  0.7907  0.6085 -1.1724
  326MOL0     H43971   3.294  11.039   1.853  1.1556 -0.0503 -0.1983
  326MOL0     H43972   3.262  11.187   1.756 -1.3140 -0.2097 -3.1477
  326MOL0     H43973   3.140  11.065   1.763 -0.0123 -1.9737 -2.5699
  326MOL0     H43974   3.011  10.607   1.721 -0.9963  1.8198  0.5014
  326MOL0     H43975   2.795  10.465   1.719 -0.8451 -1.1521 -0.3773
  326MOL0     H43976   2.717  10.225   1.484 -1.9086 -0.1240 -1.3357
  326MOL0     H43977   2.691  10.308   1.648 -0.5763  1.9169  0.9953
  326MOL0     H43978   2.465  10.300   1.613 -1.5388 -2.3960  0.3386
  326MOL0     H43979   2.480  10.273   1.443  0.7191  0.1931 -0.2882
  326MOL0     H43980   2.575  10.069   1.645 -0.8755  1.2752  0.0750
  326MOL0     H43981   2.554  10.025   1.473 -2.3832 -0.4030 -0.9188
  326MOL0     H43982   2.363   9.943   1.631  1.4821 -1.9792 -1.9252
  326MOL0     H43983   2.332  10.122   1.655 -0.2433 -2.2641  0.9916
  326MOL0     H43984   2.329   9.978   1.396 -2.5870 -0.4226 -0.2794
  326MOL0     H43985   2.314  10.143   1.414 -0.9979  1.2970  1.4360
  326MOL0     H43986   2.117   9.935   1.558  0.4938 -0.9493 -1.1131
  326MOL0     H43987   2.094  10.106   1.544  3.0128  0.6814  1.8485
  326MOL0     H43988   1.964   9.926   1.406  2.0517 -1.2309  1.8219
  326MOL0     H43989   2.098   9.903   1.308 -2.3981 -1.9611  0.4292
  326MOL0     H43990   1.990  10.061   1.171 -0.4558 -0.3050  0.7037
  326MOL0     H43991   2.121  10.145   1.253  1.1835 -1.1377 -0.4386
  326MOL0     H43992   2.749  10.574   1.292  1.7051 -1.0076 -1.5911
  326MOL0     H43993   2.945  10.721   1.323  0.3178 -1.2466 -0.8031
  326MOL0     H43994   3.321  10.751   1.437  1.2417  0.7499 -1.7188
  326MOL0     H43995   3.537  10.867   1.365  2.1341 -1.2860  2.0987
  326MOL0     H43996   5.249  10.508   0.959  1.8454  1.7635 -2.5007
  326MOL0     H43997   5.464  10.499   0.842  0.1713  0.9269 -0.5227
  326MOL0     H43998   5.754  10.305   0.487 -0.9037 -0.3640 -0.4957
  326MOL0     H43999   5.952  10.201   0.393 -2.3609 -0.3428 -1.1079
  326MOL0     H44000   6.160  10.142   0.325 -0.7816  1.4693  1.1216
  326MOL0     H44001   6.221  10.230   0.468 -1.2199 -0.2678  3.1221
  326MOL0     H44002   6.419  10.111   0.334 -0.5246 -0.2608 -0.3780
  326MOL0     H44003   6.336   9.965   0.369 -1.9664  0.4922  0.9244
  326MOL0     H44004   6.398   9.950   0.587  3.9994 -1.1198  0.1031
  326MOL0     H44005   6.400  10.134   0.612  1.0113  1.5771 -1.6592
  326MOL0     H44006   6.628  10.046   0.620  0.5489  0.3096 -0.7237
  326MOL0     H44007   6.596  10.150   0.486  2.1066 -0.2832  0.5220
  326MOL0     H44008   6.705   9.768   0.320  2.0481 -0.8288  1.9450
  326MOL0     H44009   6.042  10.027   0.763  0.4995  0.9870  0.0436
  326MOL0     H44010   5.837  10.118   0.860  0.3881 -4.9615 -0.4813
  327MOL0     O44011   6.619   4.198  11.154 -0.6882  0.1662 -0.7707
  327MOL0     C44012   6.657   4.139  11.259 -0.1116  0.0904 -0.4953
  327MOL0     O44013   6.576   4.084  11.357  0.3988 -0.1697 -0.9863
  327MOL0     C44014   6.441   4.092  11.344  0.1414  0.2058 -0.1839
  327MOL0     C44015   6.351   4.177  11.403 -0.3194  0.2691  0.1423
  327MOL0     C44016   6.212   4.170  11.387 -0.1649  0.4176 -1.0459
  327MOL0     C44017   6.164   4.062  11.314 -0.3875 -0.6404 -0.3287
  327MOL0     O44018   6.040   4.049  11.276  0.1609  0.3430 -0.3678
  327MOL0     C44019   5.936   4.136  11.324  0.0379  0.3528  0.2132
  327MOL0     C44020   5.814   4.102  11.235  0.7373 -0.2417 -0.3598
  327MOL0     C44021   5.745   3.971  11.275 -1.1765 -0.9948  0.1859
  327MOL0     C44022   5.640   3.935  11.170 -0.3301  0.8951  0.8192
  327MOL0     C44023   5.514   4.018  11.163 -0.2541 -0.6568 -0.1728
  327MOL0     C44024   5.436   4.029  11.295  0.0297  0.0983 -0.0792
  327MOL0     C44025   5.320   4.126  11.294  0.5395  0.0170  0.1496
  327MOL0     C44026   5.205   4.043  11.226 -0.8942 -0.2361 -0.3626
  327MOL0     N44027   5.076   4.114  11.238 -0.7736  1.0576  0.1491
  327MOL0     C44028   4.994   4.140  11.136  0.0027  0.2718  0.2718
  327MOL0     C44029   4.890   4.201  11.195 -0.3652 -0.2002  0.1992
  327MOL0     C44030   4.770   4.269  11.149 -0.5536  0.1855 -0.2899
  327MOL0     C44031   4.661   4.173  11.114 -0.8716  0.3451  0.7690
  327MOL0     C44032   4.608   4.105  11.244  0.6470 -0.2348  0.6921
  327MOL0     C44033   4.462   4.073  11.235 -0.4811 -0.0821 -0.3333
  327MOL0     O44034   4.379   4.185  11.211  0.3419 -0.3616  0.7899
  327MOL0     C44035   4.242   4.162  11.204 -0.0871  0.2641  0.1964
  327MOL0     C44036   4.160   4.272  11.179 -0.3613  0.1034  0.5147
  327MOL0     C44037   4.021   4.257  11.167 -0.2593  0.0302  0.2225
  327MOL0     C44038   3.934   4.385  11.146 -0.7289 -0.7651  0.2075
  327MOL0     C44039   3.969   4.124  11.184  0.5803 -0.6753  0.7905
  327MOL0     C44040   3.819   4.115  11.159 -0.7155 -1.0141 -0.6708
  327MOL0     O44041   3.779   4.141  11.040  0.3106 -0.0021  0.4049
  327MOL0     C44042   3.649   4.181  11.013  0.5865  0.6255  0.3390
  327MOL0     C44043   3.604   4.159  10.882  0.9207  0.1034 -0.0361
  327MOL0     C44044   3.465   4.159  10.847 -0.3924  0.3632 -0.4585
  327MOL0     C44045   3.370   4.217  10.937  0.4022 -0.0905  0.4580
  327MOL0     O44046   3.242   4.224  10.893 -0.2528  0.7625 -0.3870
  327MOL0     C44047   3.157   4.313  10.962 -0.0885  0.3431  0.0353
  327MOL0     C44048   3.026   4.303  10.887  1.3672 -0.1207  0.9685
  327MOL0     C44049   3.051   4.373  10.758  0.7690  0.7217 -0.5218
  327MOL0     C44050   2.922   4.419  10.682 -0.5694  0.1899 -0.4365
  327MOL0     C44051   2.937   4.480  10.544  0.1091  0.2740  0.4102
  327MOL0     C44052   2.794   4.503  10.478  0.1556 -0.3617 -0.2114
  327MOL0     C44053   2.804   4.530  10.324  0.7769 -0.6404  0.0357
  327MOL0     C44054   2.699   4.461  10.245  0.1169  0.9462  0.3556
  327MOL0    Cl44055   2.539   4.500  10.304  0.2179 -0.5185  0.0727
  327MOL0     C44056   3.425   4.261  11.062 -0.4258 -0.2676 -1.2714
  327MOL0     C44057   3.557   4.242  11.103  0.2471 -0.1724  1.4215
  327MOL0     O44058   3.760   4.051  11.245 -0.0176  0.4814  0.3737
  327MOL0     C44059   4.052   4.012  11.199  0.4858 -0.3301  0.1792
  327MOL0     C44060   4.190   4.031  11.211  0.4337 -0.1852  0.0116
  327MOL0     N44061   4.911   4.197  11.328 -0.5492  0.3219 -1.0256
  327MOL0     N44062   5.019   4.142  11.360  0.5997  0.6163 -0.3987
  327MOL0     C44063   6.248   3.965  11.255 -0.0601  0.1480  0.1558
  327MOL0     C44064   6.386   3.988  11.257  0.5249 -0.3146 -0.6158
  327MOL0     C44065   6.801   4.150  11.298  0.0194 -0.6820 -0.8527
  327MOL0     C44066   6.831   4.124  11.432 -0.2198  0.1447  0.0490
  327MOL0     C44067   6.966   4.155  11.484  0.1839 -0.0467  1.1995
  327MOL0     C44068   7.068   4.186  11.398  0.1703 -0.1016 -0.2729
  327MOL0     O44069   7.199   4.195  11.452  0.5099  0.0815  0.7591
  327MOL0     C44070   7.310   4.169  11.363 -0.3428  0.1716  0.2840
  327MOL0     C44071   7.419   4.127  11.459 -0.0811  0.8098 -0.4144
  327MOL0     C44072   7.540   4.054  11.401 -0.4320 -0.2814  0.1557
  327MOL0     C44073   7.643   4.007  11.500  0.3506  0.2539 -0.3345
  327MOL0     C44074   7.589   3.936  11.619 -0.1288  0.3011  1.0025
  327MOL0     C44075   7.544   3.876  11.722  0.6511  0.2712  0.7914
  327MOL0     C44076   7.027   4.221  11.265 -0.0406  0.5478  0.0185
  327MOL0     C44077   6.898   4.195  11.217 -0.6453  0.4604 -0.2597
  327MOL0     H44078   6.400   4.257  11.457 -2.8036  2.5104 -0.6313
  327MOL0     H44079   6.158   4.249  11.439  0.5078  2.0975 -2.7364
  327MOL0     H44080   5.930   4.110  11.430 -1.0924 -2.5466 -0.4548
  327MOL0     H44081   5.967   4.240  11.310  3.2428 -0.4082  0.6724
  327MOL0     H44082   5.751   4.192  11.238  3.0942  1.4871  1.3130
  327MOL0     H44083   5.858   4.093  11.136  0.1353  0.6616 -0.7263
  327MOL0     H44084   5.813   3.886  11.268 -1.1254 -1.0746  1.4706
  327MOL0     H44085   5.719   3.966  11.381  2.1058  1.3727  1.2844
  327MOL0     H44086   5.687   3.936  11.072  1.0734 -0.5964  1.4277
  327MOL0     H44087   5.611   3.831  11.187 -1.8436  1.0405 -0.6692
  327MOL0     H44088   5.534   4.118  11.126 -1.5725  0.4172  1.8569
  327MOL0     H44089   5.448   3.978  11.085  0.4007 -3.0106  0.4043
  327MOL0     H44090   5.402   3.934  11.338  3.8297 -0.4391  2.2621
  327MOL0     H44091   5.501   4.067  11.375  0.2753  0.2213 -0.3371
  327MOL0     H44092   5.285   4.145  11.396  0.2573 -1.5728  0.3734
  327MOL0     H44093   5.339   4.220  11.241  0.7670  1.0498  1.9773
  327MOL0     H44094   5.194   3.942  11.265 -0.0497 -0.4980 -0.7902
  327MOL0     H44095   5.229   4.038  11.119 -0.3282  1.1818 -0.3291
  327MOL0     H44096   5.004   4.129  11.028 -1.0242 -2.1564  0.3644
  327MOL0     H44097   4.740   4.334  11.231  0.6452 -1.0264  1.1656
  327MOL0     H44098   4.790   4.333  11.062 -0.9666  1.5556  0.5939
  327MOL0     H44099   4.704   4.103  11.042  0.7241  0.6136  1.4162
  327MOL0     H44100   4.587   4.226  11.054 -3.0683 -3.1967  0.0784
  327MOL0     H44101   4.622   4.172  11.329 -1.3948  1.1688 -0.0033
  327MOL0     H44102   4.668   4.017  11.267  0.3881 -0.2779  1.2132
  327MOL0     H44103   4.434   4.028  11.330 -1.1882  4.5073  1.9417
  327MOL0     H44104   4.441   4.001  11.156 -3.0457  1.9194 -1.6509
  327MOL0     H44105   4.200   4.373  11.174  0.8054 -0.1772  2.7623
  327MOL0     H44106   4.002   4.470  11.159 -0.8515 -1.0428  3.5760
  327MOL0     H44107   3.885   4.388  11.048 -2.8038  1.6403  1.2108
  327MOL0     H44108   3.869   4.388  11.234  2.1920 -3.2760  2.6879
  327MOL0     H44109   3.671   4.115  10.808 -0.5133  0.9054 -1.9050
  327MOL0     H44110   3.425   4.133  10.750  1.0748  1.1015 -1.2917
  327MOL0     H44111   3.137   4.285  11.066 -1.8659  0.5928 -0.2029
  327MOL0     H44112   3.204   4.411  10.960  0.4590  0.1149 -2.5999
  327MOL0     H44113   2.987   4.202  10.871 -1.4810  1.1476 -0.7755
  327MOL0     H44114   2.955   4.363  10.944  3.2253  1.4683  1.7326
  327MOL0     H44115   3.106   4.305  10.693  0.7157  0.7689 -0.6186
  327MOL0     H44116   3.116   4.460  10.765  0.1418  1.6020 -3.7329
  327MOL0     H44117   2.865   4.326  10.676  0.6524 -0.5071 -3.0644
  327MOL0     H44118   2.865   4.481  10.752  2.9648 -2.0341  5.0289
  327MOL0     H44119   2.997   4.411  10.484 -0.1255 -0.6952  1.2760
  327MOL0     H44120   3.000   4.570  10.549  3.2241 -1.5135 -2.0326
  327MOL0     H44121   2.741   4.407  10.484 -0.8051  0.1434 -0.4358
  327MOL0     H44122   2.746   4.582  10.536  0.4587  0.5749 -1.2100
  327MOL0     H44123   2.902   4.501  10.282  0.5139 -1.8807  0.2299
  327MOL0     H44124   2.805   4.638  10.312  0.1994 -0.5739  0.5705
  327MOL0     H44125   2.717   4.354  10.256  1.6850  1.2062  0.5840
  327MOL0     H44126   2.707   4.474  10.136 -0.2518 -2.3294 -0.1577
  327MOL0     H44127   3.357   4.288  11.142 -1.9048 -2.5848 -1.6532
  327MOL0     H44128   3.586   4.277  11.202 -0.0819  2.7349  0.5682
  327MOL0     H44129   4.011   3.913  11.216 -0.5826  0.1973  0.7846
  327MOL0     H44130   4.253   3.944  11.225  1.4174  0.8747  2.9575
  327MOL0     H44131   6.212   3.879  11.200 -2.0833  0.1488  1.3679
  327MOL0     H44132   6.458   3.920  11.214  2.4795  0.7963  0.7136
  327MOL0     H44133   6.754   4.096  11.504  0.2550  1.4007  1.0719
  327MOL0     H44134   6.995   4.144  11.588 -1.9563 -1.5668  1.7187
  327MOL0     H44135   7.298   4.096  11.283  1.5484 -0.4501  0.5264
  327MOL0     H44136   7.331   4.262  11.308 -0.8301  0.0252 -0.1595
  327MOL0     H44137   7.371   4.064  11.534  0.8620  1.3403  0.6604
  327MOL0     H44138   7.451   4.208  11.524 -1.6514 -0.7718  2.5280
  327MOL0     H44139   7.604   4.112  11.333  1.4415 -0.1476  1.9437
  327MOL0     H44140   7.507   3.968  11.342  0.5166 -0.4971 -0.0796
  327MOL0     H44141   7.697   4.095  11.537 -0.7055  1.6706 -1.9605
  327MOL0     H44142   7.709   3.941  11.444 -0.9805  0.0158 -1.6983
  327MOL0     H44143   7.507   3.826  11.809 -1.5026 -0.2172 -0.3456
  327MOL0     H44144   7.100   4.268  11.200 -0.2983  0.3134 -0.4453
  327MOL0     H44145   6.878   4.215  11.112  0.6728 -3.0731 -1.3527
  328MOL0     O44146   4.587   3.113   5.712 -0.6108 -0.5169 -0.5576
  328MOL0     C44147   4.527   3.096   5.608 -0.1327 -0.1597  0.6401
  328MOL0     O44148   4.390   3.101   5.587 -0.7792 -0.4216 -0.1316
  328MOL0     C44149   4.306   3.125   5.688  0.7282  0.3412  0.2553
  328MOL0     C44150   4.331   3.228   5.783  0.8204 -0.1987 -0.7870
  328MOL0     C44151   4.241   3.250   5.886  0.8767  0.0979 -0.2759
  328MOL0     C44152   4.133   3.168   5.891 -0.3670 -0.3133 -0.7384
  328MOL0     O44153   4.035   3.185   5.989  0.3637 -0.6470 -0.1524
  328MOL0     C44154   4.053   3.278   6.102  0.0998  0.5681  0.4513
  328MOL0     C44155   3.946   3.247   6.206  0.6323 -0.0130 -1.4801
  328MOL0     C44156   3.801   3.285   6.159  0.1401  0.3819 -0.0228
  328MOL0     C44157   3.694   3.279   6.266  0.2914  1.4141  0.8508
  328MOL0     C44158   3.559   3.306   6.225  1.1674  0.7273  0.7536
  328MOL0     C44159   3.504   3.199   6.118  0.1401  0.1041  0.3706
  328MOL0     C44160   3.356   3.226   6.086 -0.0416 -0.0563  0.1288
  328MOL0     C44161   3.298   3.109   6.005  0.3348 -0.5455  1.3473
  328MOL0     N44162   3.153   3.129   5.982  0.2180  0.0375  1.0486
  328MOL0     C44163   3.097   3.216   5.886  0.4809 -0.6928 -0.2052
  328MOL0     C44164   2.968   3.158   5.880 -0.2495 -0.1557 -0.0248
  328MOL0     C44165   2.859   3.206   5.784 -0.2884 -0.0372 -0.3909
  328MOL0     C44166   2.732   3.226   5.859  0.3086 -0.0630 -0.9902
  328MOL0     C44167   2.624   3.272   5.770  0.5459  0.0716 -0.1984
  328MOL0     C44168   2.489   3.289   5.846  0.6416  0.2076 -0.5888
  328MOL0     O44169   2.417   3.401   5.783  0.1986  0.1261  0.7700
  328MOL0     C44170   2.329   3.475   5.856 -0.7153  0.1106  0.3999
  328MOL0     C44171   2.309   3.611   5.831  1.3897 -0.0386 -0.6122
  328MOL0     C44172   2.210   3.680   5.906  0.6231 -0.2974  0.7998
  328MOL0     C44173   2.185   3.822   5.864 -0.3924 -0.1603  0.0741
  328MOL0     C44174   2.132   3.614   6.001  1.4470  0.2581 -0.2108
  328MOL0     C44175   2.025   3.686   6.075  0.4057 -0.6965 -0.6550
  328MOL0     O44176   2.063   3.803   6.123 -0.9444 -0.7206  0.2107
  328MOL0     C44177   1.965   3.886   6.174  0.4583  0.6952  0.3430
  328MOL0     C44178   1.933   3.889   6.304 -0.8362 -0.5639  0.2640
  328MOL0     C44179   1.824   3.960   6.352  0.7058  0.2539 -0.6558
  328MOL0     C44180   1.755   4.055   6.264  0.3227  0.3569  0.3095
  328MOL0     O44181   1.645   4.121   6.301 -0.8546 -0.1601 -0.1814
  328MOL0     C44182   1.606   4.122   6.443 -0.3910  0.7763 -0.5238
  328MOL0     C44183   1.454   4.169   6.471 -0.6347 -0.2586  0.0609
  328MOL0     C44184   1.364   4.055   6.445 -0.1505  0.5170 -0.1717
  328MOL0     C44185   1.213   4.098   6.459  0.2093 -0.6517  0.0684
  328MOL0     C44186   1.121   4.017   6.561  0.3044  0.3274  0.0239
  328MOL0     C44187   1.031   3.925   6.474  0.3433  0.5762 -0.2423
  328MOL0     C44188   0.968   3.821   6.562 -0.0458 -0.0809  0.0536
  328MOL0     C44189   0.883   3.727   6.478  0.0370  0.0797  0.0437
  328MOL0    Cl44190   0.748   3.822   6.402 -0.4072  0.3595 -0.2338
  328MOL0     C44191   1.787   4.049   6.124 -1.0519 -0.4309  0.3891
  328MOL0     C44192   1.891   3.960   6.081 -0.1474  0.4314  0.0579
  328MOL0     O44193   1.913   3.639   6.087  0.2029  0.5081  0.0243
  328MOL0     C44194   2.151   3.478   6.024 -0.0630 -0.4265 -0.3214
  328MOL0     C44195   2.252   3.415   5.956 -0.4331  0.8600  0.4096
  328MOL0     N44196   2.951   3.051   5.966 -0.4970 -0.6273  0.4266
  328MOL0     N44197   3.063   3.040   6.032  0.1674 -0.6088 -0.5695
  328MOL0     C44198   4.096   3.073   5.794 -0.5774 -1.0657 -0.6673
  328MOL0     C44199   4.190   3.045   5.695  0.6418  0.3154 -0.0363
  328MOL0     C44200   4.620   3.080   5.496 -0.7675 -0.0946 -0.6491
  328MOL0     C44201   4.758   3.045   5.508 -0.0354  0.3590  0.0031
  328MOL0     C44202   4.834   3.026   5.388 -0.0232  0.1147 -0.3833
  328MOL0     C44203   4.794   3.057   5.262  0.3656 -0.0678 -0.0843
  328MOL0     O44204   4.877   3.058   5.157 -0.3781  0.4748  0.2159
  328MOL0     C44205   5.003   2.994   5.161  0.4579  0.5587  0.2228
  328MOL0     C44206   4.984   2.840   5.167 -0.1028 -0.2592  1.2886
  328MOL0     C44207   5.037   2.766   5.043  0.3224  0.3542  0.7186
  328MOL0     C44208   5.022   2.614   5.042  0.3835  0.6914  0.1452
  328MOL0     C44209   5.120   2.555   4.948 -0.1434  0.3089  0.1987
  328MOL0     C44210   5.207   2.522   4.861  0.2556 -0.4084  0.2127
  328MOL0     C44211   4.662   3.101   5.251  0.4426 -0.7933 -0.4023
  328MOL0     C44212   4.583   3.109   5.367  0.4713 -0.4998  0.0717
  328MOL0     H44213   4.424   3.283   5.768  0.7880 -0.3124 -1.4164
  328MOL0     H44214   4.264   3.320   5.966  3.3553 -2.6450  1.6255
  328MOL0     H44215   4.150   3.272   6.152  0.3770 -0.9117 -0.2054
  328MOL0     H44216   4.039   3.382   6.073 -1.7442 -0.6793 -3.7960
  328MOL0     H44217   3.944   3.140   6.228 -0.7050  0.1295 -0.7844
  328MOL0     H44218   3.975   3.295   6.299 -0.6631 -0.5304 -0.7776
  328MOL0     H44219   3.801   3.380   6.104 -0.3453 -1.0720 -2.7129
  328MOL0     H44220   3.775   3.213   6.081 -0.3292  4.0649 -3.6625
  328MOL0     H44221   3.706   3.178   6.308 -0.6794  1.9162  2.4390
  328MOL0     H44222   3.725   3.350   6.343  1.3946  0.0844  1.7037
  328MOL0     H44223   3.488   3.310   6.308  0.3436  0.6827  0.0725
  328MOL0     H44224   3.559   3.402   6.172 -1.6306 -1.3465 -3.6652
  328MOL0     H44225   3.561   3.203   6.025 -1.5862  0.0825 -0.7362
  328MOL0     H44226   3.517   3.105   6.173  0.1803 -0.6708 -0.9389
  328MOL0     H44227   3.298   3.236   6.178  2.4014 -0.0420  1.7679
  328MOL0     H44228   3.355   3.315   6.022 -0.3490  0.6871  1.1427
  328MOL0     H44229   3.303   3.009   6.049 -2.3049 -1.6563 -0.5797
  328MOL0     H44230   3.343   3.108   5.905 -2.9617  0.3664 -0.2968
  328MOL0     H44231   3.133   3.299   5.827 -1.0210  0.5174  0.5156
  328MOL0     H44232   2.894   3.301   5.743  1.8030 -0.3264  0.5813
  328MOL0     H44233   2.835   3.140   5.700  1.8099  0.4399 -1.4233
  328MOL0     H44234   2.744   3.306   5.933  0.5503 -0.9819 -0.0134
  328MOL0     H44235   2.699   3.130   5.900 -2.4149  0.6243 -1.4380
  328MOL0     H44236   2.612   3.207   5.683 -1.0470 -1.1306  0.8388
  328MOL0     H44237   2.653   3.373   5.741  1.5672 -0.2181 -0.2112
  328MOL0     H44238   2.487   3.310   5.953 -2.4970  1.1144 -0.7252
  328MOL0     H44239   2.425   3.201   5.832  0.3562 -0.0362  1.8670
  328MOL0     H44240   2.360   3.661   5.750  0.9805  0.0111 -0.8461
  328MOL0     H44241   2.077   3.841   5.857 -0.7853 -2.4498 -0.8574
  328MOL0     H44242   2.241   3.894   5.926 -1.5603 -0.0234  1.0145
  328MOL0     H44243   2.217   3.837   5.761  0.5435 -2.2300  0.0204
  328MOL0     H44244   1.988   3.818   6.367 -0.2655 -0.7037 -0.3759
  328MOL0     H44245   1.810   3.962   6.459 -3.7912 -0.3064 -1.0619
  328MOL0     H44246   1.624   4.024   6.489  2.1384  0.4112 -2.0678
  328MOL0     H44247   1.676   4.184   6.500  1.3794 -0.1676 -1.5812
  328MOL0     H44248   1.444   4.206   6.574 -0.7563  0.2342 -0.1223
  328MOL0     H44249   1.429   4.253   6.405 -1.7165 -0.5768  0.0395
  328MOL0     H44250   1.399   3.962   6.491 -0.0645 -0.2691 -1.7548
  328MOL0     H44251   1.371   4.028   6.340  0.8718  1.5077 -0.3684
  328MOL0     H44252   1.208   4.200   6.497  0.0040 -1.2907  1.8761
  328MOL0     H44253   1.177   4.104   6.356  5.7600  0.5541 -2.1894
  328MOL0     H44254   1.059   4.080   6.625  1.0753  1.0675  0.0679
  328MOL0     H44255   1.194   3.964   6.622  2.8527  0.8355 -2.3658
  328MOL0     H44256   0.947   3.982   6.435  0.3673  1.7571  1.3217
  328MOL0     H44257   1.083   3.867   6.397 -0.7625 -3.0113  1.5190
  328MOL0     H44258   0.890   3.857   6.630  0.5837  0.2460  0.6121
  328MOL0     H44259   1.047   3.759   6.606 -0.5394 -0.9850 -0.3170
  328MOL0     H44260   0.835   3.648   6.536  0.9197 -2.0306 -1.9303
  328MOL0     H44261   0.942   3.693   6.392  0.0903 -0.7724  0.4120
  328MOL0     H44262   1.739   4.109   6.047  0.2898  0.9359  0.5649
  328MOL0     H44263   1.919   3.950   5.977 -1.7382  0.9979 -0.4531
  328MOL0     H44264   2.099   3.430   6.106 -1.4823 -1.9676 -2.0372
  328MOL0     H44265   2.266   3.311   5.986  0.6193  0.2717 -1.8644
  328MOL0     H44266   4.005   3.015   5.795  0.5751 -3.0293 -2.4760
  328MOL0     H44267   4.157   2.975   5.619 -1.1947 -0.8067  1.7116
  328MOL0     H44268   4.799   3.022   5.606  0.9818 -0.8670 -0.6741
  328MOL0     H44269   4.937   2.993   5.398 -0.0847 -0.7466 -2.2368
  328MOL0     H44270   5.040   3.015   5.061 -2.6125 -4.7310 -2.4613
  328MOL0     H44271   5.060   3.031   5.247 -0.3252  0.6128  0.7338
  328MOL0     H44272   4.886   2.813   5.207 -0.8103 -0.4474 -0.4934
  328MOL0     H44273   5.058   2.818   5.245  0.3374 -0.3069  0.8611
  328MOL0     H44274   5.142   2.797   5.036 -0.2205  1.9700 -2.8309
  328MOL0     H44275   4.982   2.793   4.952  0.8179  2.5866  1.0297
  328MOL0     H44276   4.919   2.595   5.009  1.6115  1.4115 -4.9545
  328MOL0     H44277   5.039   2.567   5.139  0.6575 -3.2296 -1.6083
  328MOL0     H44278   5.269   2.506   4.776 -0.6542 -1.9547 -0.2152
  328MOL0     H44279   4.620   3.117   5.153  2.5307 -3.1024 -1.7790
  328MOL0     H44280   4.478   3.131   5.352 -0.2882 -3.9736 -0.6299
  329MOL0     O44281   0.535   0.640   6.842 -0.1595  0.2839 -0.0766
  329MOL0     C44282   0.532   0.536   6.768  0.0198 -0.4681  0.0088
  329MOL0     O44283   0.419   0.453   6.744 -0.1028  0.5625  0.2689
  329MOL0     C44284   0.300   0.462   6.806 -0.4956 -1.3508 -0.3491
  329MOL0     C44285   0.190   0.414   6.742  0.8096 -0.3137  0.2154
  329MOL0     C44286   0.067   0.411   6.806  0.7358  0.6156  0.5315
  329MOL0     C44287   0.047   0.464   6.926 -0.0594 -0.3054 -0.5355
  329MOL0     O44288  -0.082   0.459   6.979  0.1045 -0.4724  0.7066
  329MOL0     C44289  -0.133   0.531   7.095  1.3347 -0.7360 -0.7868
  329MOL0     C44290  -0.291   0.537   7.118 -0.4076 -0.0947 -0.0112
  329MOL0     C44291  -0.355   0.621   7.009 -0.6748  0.0743  0.3373
  329MOL0     C44292  -0.509   0.648   7.023 -0.2488 -0.1134  1.3559
  329MOL0     C44293  -0.592   0.523   6.996  0.0255  0.8486  0.2667
  329MOL0     C44294  -0.735   0.546   7.046 -0.5989  0.1746 -0.3812
  329MOL0     C44295  -0.806   0.658   6.962 -0.5546  0.1961  0.2454
  329MOL0     C44296  -0.961   0.642   6.979  0.0709 -0.5690 -0.8194
  329MOL0     N44297  -1.019   0.729   6.878 -0.2830 -0.4259  0.1278
  329MOL0     C44298  -1.022   0.866   6.879  0.0313  1.0749 -0.1289
  329MOL0     C44299  -1.091   0.905   6.771  0.8486 -0.1466  0.3617
  329MOL0     C44300  -1.128   1.043   6.734 -0.1313 -0.2310  0.0286
  329MOL0     C44301  -1.250   1.083   6.809 -0.1170 -0.1131 -0.4407
  329MOL0     C44302  -1.281   1.240   6.785  0.1588  0.7549 -0.3401
  329MOL0     C44303  -1.417   1.274   6.848 -0.7012 -0.0778  0.1607
  329MOL0     O44304  -1.406   1.410   6.891  0.5464 -0.0793 -0.1134
  329MOL0     C44305  -1.511   1.494   6.879  0.4991 -0.3913 -0.4069
  329MOL0     C44306  -1.486   1.633   6.892 -0.2487  1.1102  0.7346
  329MOL0     C44307  -1.588   1.721   6.912  0.0792  0.0460  0.6605
  329MOL0     C44308  -1.539   1.867   6.913  0.3159  0.5077  0.0900
  329MOL0     C44309  -1.718   1.676   6.912  0.2364  0.2998 -0.3822
  329MOL0     C44310  -1.834   1.764   6.929 -0.2729  0.3227  0.7961
  329MOL0     O44311  -1.954   1.712   6.888  0.2346  0.0521 -0.4206
  329MOL0     C44312  -2.056   1.796   6.878 -0.2900  0.3369  0.1777
  329MOL0     C44313  -2.123   1.807   6.998  0.3325 -0.6711  0.3593
  329MOL0     C44314  -2.221   1.906   7.003 -0.1257  0.4096 -0.0361
  329MOL0     C44315  -2.251   1.999   6.910 -0.3390  0.0861 -0.5291
  329MOL0     O44316  -2.348   2.101   6.919  0.6509 -0.1290  0.8848
  329MOL0     C44317  -2.458   2.089   7.014 -0.1564 -0.5021  0.1380
  329MOL0     C44318  -2.556   1.981   6.968 -0.3494  0.1784  0.2153
  329MOL0     C44319  -2.698   2.007   7.033  0.3140 -0.4645 -0.3110
  329MOL0     C44320  -2.767   2.131   6.989  0.4596  0.0824  0.5569
  329MOL0     C44321  -2.912   2.108   6.947 -0.0425  0.4406  0.4733
  329MOL0     C44322  -2.991   2.044   7.058 -0.2469 -0.4213  0.3924
  329MOL0     C44323  -3.140   2.060   7.045  1.3152 -0.9287 -0.6232
  329MOL0     C44324  -3.200   1.950   6.961 -0.8088  0.0624 -0.1142
  329MOL0    Cl44325  -3.376   1.941   6.981  0.0434  0.4053  0.0068
  329MOL0     C44326  -2.181   1.983   6.790  0.0579  0.0749  0.5288
  329MOL0     C44327  -2.081   1.885   6.769 -0.5307  0.2747 -0.0673
  329MOL0     O44328  -1.813   1.865   6.998 -0.3170 -0.5120 -0.2325
  329MOL0     C44329  -1.745   1.536   6.903 -0.0417  0.5022  0.2692
  329MOL0     C44330  -1.644   1.444   6.888  0.0817  0.6330  0.0803
  329MOL0     N44331  -1.127   0.789   6.705  0.0903 -0.6797 -0.2232
  329MOL0     N44332  -1.089   0.689   6.774 -0.4298 -0.1434 -0.2776
  329MOL0     C44333   0.154   0.509   6.997  0.0908 -0.6081 -0.4895
  329MOL0     C44334   0.283   0.510   6.942 -0.0704  0.3972  1.1411
  329MOL0     C44335   0.654   0.514   6.687  0.5306  0.6374  0.7873
  329MOL0     C44336   0.760   0.607   6.685  1.6831 -0.1351  0.9156
  329MOL0     C44337   0.874   0.587   6.621 -0.9945  0.4349  0.1352
  329MOL0     C44338   0.887   0.484   6.522  0.4178 -0.9175  0.2374
  329MOL0     O44339   0.999   0.443   6.454 -0.7824 -0.4040  0.1987
  329MOL0     C44340   1.118   0.522   6.490 -0.0492  0.2042  0.3535
  329MOL0     C44341   1.242   0.474   6.410 -0.5427 -0.0148 -0.9712
  329MOL0     C44342   1.203   0.381   6.288 -0.7644  0.1220 -0.8529
  329MOL0     C44343   1.326   0.325   6.223  0.3166  0.5060 -0.5726
  329MOL0     C44344   1.408   0.431   6.167  1.4382  0.6263  0.1320
  329MOL0     C44345   1.471   0.526   6.142 -0.6751 -0.4036  0.0352
  329MOL0     C44346   0.778   0.404   6.509  0.0495  0.8830  0.4956
  329MOL0     C44347   0.663   0.415   6.594 -0.4334  0.2325  0.2120
  329MOL0     H44348   0.204   0.374   6.642  1.5641  0.4567  0.0055
  329MOL0     H44349  -0.016   0.364   6.755  2.0987 -1.1774 -0.1189
  329MOL0     H44350  -0.098   0.466   7.176  1.8999 -1.2733 -1.4521
  329MOL0     H44351  -0.079   0.626   7.102  1.4563 -0.5958 -3.0450
  329MOL0     H44352  -0.326   0.433   7.113 -0.4624 -0.0981  0.3701
  329MOL0     H44353  -0.313   0.578   7.217 -1.5204  0.8295 -0.6195
  329MOL0     H44354  -0.306   0.718   7.002 -0.9826  0.1877 -0.2806
  329MOL0     H44355  -0.326   0.569   6.917  0.7699  0.6089  0.4584
  329MOL0     H44356  -0.532   0.703   7.114  2.0671 -1.8083  3.1037
  329MOL0     H44357  -0.535   0.718   6.943 -1.7336 -2.5520 -0.4445
  329MOL0     H44358  -0.602   0.490   6.892 -0.1102  0.8222  0.2883
  329MOL0     H44359  -0.541   0.447   7.056  0.1977  2.3755  2.1862
  329MOL0     H44360  -0.790   0.452   7.052 -0.0082 -0.1349  0.3798
  329MOL0     H44361  -0.738   0.578   7.150  1.2424  2.2282 -0.8770
  329MOL0     H44362  -0.769   0.752   7.004 -0.9534  1.7168 -2.5492
  329MOL0     H44363  -0.786   0.660   6.854  1.3438 -0.2211  0.5694
  329MOL0     H44364  -1.007   0.669   7.075  0.4430 -0.7589 -0.5865
  329MOL0     H44365  -0.990   0.540   6.951  0.3284 -0.1857 -2.5841
  329MOL0     H44366  -0.988   0.927   6.962  2.7908 -0.4852  0.0021
  329MOL0     H44367  -1.042   1.100   6.770 -0.5822 -0.5676  1.7056
  329MOL0     H44368  -1.145   1.066   6.628 -0.2243  1.1195  0.3259
  329MOL0     H44369  -1.228   1.066   6.915  0.0011 -1.8611 -0.7182
  329MOL0     H44370  -1.343   1.030   6.788 -0.6654 -0.8176  3.1224
  329MOL0     H44371  -1.275   1.266   6.679 -2.1344  0.3269 -0.6194
  329MOL0     H44372  -1.204   1.300   6.835  0.7353  0.0411 -0.3528
  329MOL0     H44373  -1.422   1.206   6.934  4.1670  1.1061  1.7159
  329MOL0     H44374  -1.493   1.254   6.772  0.9552 -1.1945 -1.2930
  329MOL0     H44375  -1.381   1.661   6.884 -0.1223  0.3708 -0.4286
  329MOL0     H44376  -1.604   1.932   6.853 -1.5116 -0.0739  1.3512
  329MOL0     H44377  -1.543   1.904   7.017 -4.1581  1.6415 -0.2787
  329MOL0     H44378  -1.438   1.876   6.873 -0.7113  0.6830 -2.6613
  329MOL0     H44379  -2.088   1.758   7.088  2.4115 -0.1066 -0.0800
  329MOL0     H44380  -2.272   1.916   7.098  1.0426  1.5008  0.5116
  329MOL0     H44381  -2.419   2.077   7.115 -0.8720  2.0213  0.7739
  329MOL0     H44382  -2.510   2.185   7.018 -0.4652 -0.7170  2.1620
  329MOL0     H44383  -2.567   1.994   6.861  0.5358  2.3502  0.3344
  329MOL0     H44384  -2.521   1.881   6.996  0.0032  0.6816  1.6843
  329MOL0     H44385  -2.695   2.016   7.142  1.0000  0.7421 -0.4132
  329MOL0     H44386  -2.763   1.919   7.025  0.4524 -1.0406  3.2653
  329MOL0     H44387  -2.764   2.209   7.066 -2.0638  0.4467  0.3590
  329MOL0     H44388  -2.714   2.170   6.902  0.1249  0.7821  0.6595
  329MOL0     H44389  -2.899   2.031   6.869  2.9151 -0.4547  1.6888
  329MOL0     H44390  -2.964   2.197   6.911 -2.0401  0.7094  3.7353
  329MOL0     H44391  -2.981   1.936   7.070  1.4105 -0.1110  2.4648
  329MOL0     H44392  -2.955   2.092   7.150  0.6954 -2.4259  1.1391
  329MOL0     H44393  -3.157   2.161   7.007 -0.1273 -1.0422 -0.3187
  329MOL0     H44394  -3.184   2.045   7.144  0.9439 -1.9532 -0.9328
  329MOL0     H44395  -3.165   1.856   7.004  3.5583  1.3517 -0.3868
  329MOL0     H44396  -3.184   1.950   6.852  1.8195 -0.5028  0.2062
  329MOL0     H44397  -2.198   2.035   6.696  0.5186  2.3376  1.6352
  329MOL0     H44398  -2.031   1.883   6.673 -1.8383  2.3618 -0.8529
  329MOL0     H44399  -1.848   1.501   6.899 -0.1419  0.8369 -0.4922
  329MOL0     H44400  -1.662   1.337   6.877 -2.9345  0.8213  1.9349
  329MOL0     H44401   0.130   0.540   7.099 -1.7985 -0.7916 -0.8332
  329MOL0     H44402   0.367   0.536   7.006  0.8330 -0.7561  0.4537
  329MOL0     H44403   0.752   0.693   6.751  2.3477  1.5636 -1.1171
  329MOL0     H44404   0.954   0.658   6.639 -0.7416  0.5275 -1.2368
  329MOL0     H44405   1.106   0.628   6.466 -4.0178 -0.3149 -0.6016
  329MOL0     H44406   1.130   0.506   6.597  1.0929  1.8033  0.4933
  329MOL0     H44407   1.299   0.411   6.479  1.7602 -0.5587 -3.2161
  329MOL0     H44408   1.305   0.557   6.378  1.5819 -1.2028 -0.0377
  329MOL0     H44409   1.138   0.432   6.217 -2.1664 -1.0365 -0.4785
  329MOL0     H44410   1.148   0.293   6.323 -0.7972  0.1314 -0.8802
  329MOL0     H44411   1.301   0.252   6.144  3.1667 -0.5866 -0.5839
  329MOL0     H44412   1.384   0.279   6.303 -0.9661  1.1084  0.7422
  329MOL0     H44413   1.532   0.607   6.108  0.0374  0.1282  2.4063
  329MOL0     H44414   0.788   0.342   6.421  2.4062  0.0028  1.3077
  329MOL0     H44415   0.581   0.346   6.579 -0.1804  0.2279 -1.3020
  330MOL0     O44416   0.024   1.446   1.329  0.0127  0.4582 -0.0421
  330MOL0     C44417   0.002   1.327   1.361 -0.0150 -0.2678  0.5284
  330MOL0     O44418  -0.110   1.278   1.402  0.2673 -0.5059  0.0171
  330MOL0     C44419  -0.209   1.364   1.441  0.1645 -1.4406 -0.5235
  330MOL0     C44420  -0.233   1.397   1.575 -0.4199  0.2269  0.3968
  330MOL0     C44421  -0.335   1.480   1.610  0.8802 -0.0698 -0.1911
  330MOL0     C44422  -0.430   1.519   1.508 -0.2801  0.6497 -0.6355
  330MOL0     O44423  -0.539   1.592   1.534  0.2078  0.0751 -0.8921
  330MOL0     C44424  -0.539   1.680   1.657  0.3029  0.7590  1.5120
  330MOL0     C44425  -0.640   1.790   1.634 -0.4915 -0.2501 -0.4568
  330MOL0     C44426  -0.784   1.738   1.616  0.1230  1.0476 -0.6554
  330MOL0     C44427  -0.904   1.836   1.645 -0.0040 -0.2159 -0.1939
  330MOL0     C44428  -1.042   1.769   1.640  0.1230 -0.9767 -0.3386
  330MOL0     C44429  -1.152   1.875   1.665  0.3900 -0.2421 -0.1149
  330MOL0     C44430  -1.297   1.804   1.643 -0.5391  0.4939  1.0209
  330MOL0     C44431  -1.414   1.892   1.675  0.1444  0.2082 -0.1848
  330MOL0     N44432  -1.539   1.860   1.601 -0.3463 -0.1527 -0.1520
  330MOL0     C44433  -1.577   1.732   1.563  0.2060 -0.3203 -0.0501
  330MOL0     C44434  -1.705   1.746   1.522  0.1058  0.1823  0.1696
  330MOL0     C44435  -1.793   1.625   1.493 -0.0292 -0.1039  0.6582
  330MOL0     C44436  -1.945   1.640   1.513 -0.9530 -0.6800 -0.1606
  330MOL0     C44437  -1.972   1.700   1.652 -0.7502  0.0810 -1.2308
  330MOL0     C44438  -1.915   1.642   1.777 -0.0982 -0.8886  0.1039
  330MOL0     O44439  -1.946   1.501   1.791  1.0931 -0.1937  0.4469
  330MOL0     C44440  -2.054   1.460   1.868 -1.1558 -0.2731 -0.2152
  330MOL0     C44441  -2.055   1.324   1.907  0.2196  0.0592 -0.7265
  330MOL0     C44442  -2.164   1.281   1.988 -0.3362  0.3226 -0.4390
  330MOL0     C44443  -2.173   1.136   2.012 -0.5955 -0.0194 -0.0395
  330MOL0     C44444  -2.265   1.372   2.020 -0.5935  0.9076 -0.2408
  330MOL0     C44445  -2.394   1.331   2.084  1.1924 -0.3451 -0.2715
  330MOL0     O44446  -2.389   1.228   2.173 -0.8232 -0.1122 -0.5159
  330MOL0     C44447  -2.503   1.165   2.210  0.5249 -0.4868 -0.9528
  330MOL0     C44448  -2.566   1.043   2.153  0.1879  0.7118 -0.0366
  330MOL0     C44449  -2.691   1.001   2.204 -0.3456  0.2737 -0.9211
  330MOL0     C44450  -2.754   1.060   2.315  0.0972 -0.3199 -0.4909
  330MOL0     O44451  -2.865   1.014   2.375  0.1967 -0.4166 -0.2345
  330MOL0     C44452  -2.893   0.870   2.394  0.3364  0.5677 -0.1023
  330MOL0     C44453  -3.035   0.857   2.436 -0.2702  0.5033 -0.0284
  330MOL0     C44454  -3.123   0.925   2.333 -0.0605 -0.0814 -0.5675
  330MOL0     C44455  -3.274   0.879   2.355  1.1604 -0.2528 -0.5327
  330MOL0     C44456  -3.379   0.968   2.285 -0.8681 -0.0065  1.1237
  330MOL0     C44457  -3.521   0.908   2.308 -0.2488  0.2305 -0.5803
  330MOL0     C44458  -3.630   0.981   2.227 -0.4048  0.2484 -0.0049
  330MOL0     C44459  -3.746   0.884   2.195 -0.4807 -0.7391  0.2693
  330MOL0    Cl44460  -3.689   0.743   2.085 -0.0342 -0.0312  0.5468
  330MOL0     C44461  -2.698   1.174   2.363  0.5711  0.6970  0.5651
  330MOL0     C44462  -2.575   1.227   2.313 -0.0382  0.1148  0.1198
  330MOL0     O44463  -2.500   1.376   2.042  0.1485 -0.9943  0.7414
  330MOL0     C44464  -2.255   1.499   1.979  0.6869  0.2237 -0.0819
  330MOL0     C44465  -2.156   1.548   1.905  0.1852 -0.0196  0.3481
  330MOL0     N44466  -1.741   1.873   1.538  0.0912 -0.0173  0.9039
  330MOL0     N44467  -1.645   1.935   1.599  0.3367 -0.0498  0.3853
  330MOL0     C44468  -0.403   1.480   1.372  0.6360  0.2329 -0.2045
  330MOL0     C44469  -0.299   1.396   1.345  0.3458  0.5918  0.5736
  330MOL0     C44470   0.119   1.239   1.336 -0.5679 -0.4257  0.3016
  330MOL0     C44471   0.115   1.110   1.381 -0.0513  0.5164  0.4753
  330MOL0     C44472   0.227   1.028   1.364  0.0447 -0.9936 -0.4090
  330MOL0     C44473   0.353   1.089   1.341 -0.3909 -0.4672  0.5468
  330MOL0     O44474   0.467   1.011   1.351  0.2708  0.7243 -0.1777
  330MOL0     C44475   0.593   1.038   1.281 -0.0530 -0.8304  1.1592
  330MOL0     C44476   0.691   0.923   1.280 -1.0216  0.2351 -0.4035
  330MOL0     C44477   0.825   0.942   1.195  0.1930  0.9338 -0.9581
  330MOL0     C44478   0.895   0.810   1.188 -0.8507 -0.6201  0.9583
  330MOL0     C44479   1.014   0.830   1.101 -0.1478  0.3400  0.0121
  330MOL0     C44480   1.109   0.837   1.023 -0.7106 -0.0780  0.8806
  330MOL0     C44481   0.350   1.219   1.290  0.0657 -0.0857 -0.2516
  330MOL0     C44482   0.233   1.299   1.278 -0.3766 -0.0530 -0.4149
  330MOL0     H44483  -0.172   1.348   1.650 -1.3737 -3.4417 -1.0409
  330MOL0     H44484  -0.339   1.523   1.710  1.3776  1.7497 -0.9205
  330MOL0     H44485  -0.549   1.631   1.754  1.3778  0.5103  1.5077
  330MOL0     H44486  -0.441   1.728   1.666  2.1122 -1.6694 -2.5258
  330MOL0     H44487  -0.633   1.851   1.724  0.7295  1.2557 -1.5175
  330MOL0     H44488  -0.617   1.848   1.544 -0.6571 -0.0538 -0.3705
  330MOL0     H44489  -0.788   1.704   1.512  0.5275 -0.5472 -0.1775
  330MOL0     H44490  -0.801   1.653   1.684 -1.4797 -1.2163 -3.6494
  330MOL0     H44491  -0.894   1.894   1.737  3.5510  1.3732 -1.3886
  330MOL0     H44492  -0.891   1.906   1.562  0.7097  0.5761  0.5661
  330MOL0     H44493  -1.063   1.724   1.543 -2.2118  1.1991 -0.9291
  330MOL0     H44494  -1.053   1.702   1.725 -0.0967  1.1466  1.3959
  330MOL0     H44495  -1.149   1.907   1.769  1.9465 -1.4621  0.2541
  330MOL0     H44496  -1.144   1.958   1.594  1.7590 -0.3682 -0.1350
  330MOL0     H44497  -1.294   1.769   1.540 -2.3590 -1.9021  1.6856
  330MOL0     H44498  -1.303   1.709   1.698  0.1532 -1.0011 -1.3496
  330MOL0     H44499  -1.399   1.993   1.636 -0.8210  0.4969  0.1425
  330MOL0     H44500  -1.433   1.912   1.781 -0.5795  1.7959 -0.5757
  330MOL0     H44501  -1.533   1.636   1.588 -2.4171 -1.0282  2.3635
  330MOL0     H44502  -1.775   1.600   1.388  1.6804  0.0831  0.8859
  330MOL0     H44503  -1.765   1.544   1.561 -2.1500  0.4821  2.3701
  330MOL0     H44504  -1.999   1.546   1.499 -1.6956  0.0212 -2.4827
  330MOL0     H44505  -1.990   1.707   1.440 -0.9400 -0.3461  0.1343
  330MOL0     H44506  -2.080   1.701   1.662 -0.5493 -1.9012  2.9849
  330MOL0     H44507  -1.940   1.805   1.647 -1.1910  0.4186  1.7147
  330MOL0     H44508  -1.953   1.697   1.863 -1.3382 -1.5171 -0.0103
  330MOL0     H44509  -1.809   1.668   1.777 -0.5808  1.5203 -2.0801
  330MOL0     H44510  -1.970   1.258   1.896  0.4965  0.1558  0.7281
  330MOL0     H44511  -2.274   1.094   2.009  0.0913 -1.7084 -1.3646
  330MOL0     H44512  -2.113   1.081   1.938  0.9460 -0.3090  1.3625
  330MOL0     H44513  -2.121   1.108   2.104 -0.2458  1.9696  0.4027
  330MOL0     H44514  -2.515   0.987   2.076 -2.6203 -0.0878 -1.4686
  330MOL0     H44515  -2.734   0.915   2.153  1.9485 -2.4143  1.3648
  330MOL0     H44516  -2.883   0.809   2.303 -0.3194  0.0495  0.1577
  330MOL0     H44517  -2.828   0.827   2.471 -0.0583  0.4691  0.1842
  330MOL0     H44518  -3.060   0.750   2.440  0.5058  0.3416  1.7509
  330MOL0     H44519  -3.051   0.894   2.538 -0.2021 -2.1095  1.0160
  330MOL0     H44520  -3.082   0.891   2.238  0.2789 -0.1384 -0.4037
  330MOL0     H44521  -3.118   1.034   2.334  3.2981 -0.1122 -2.0909
  330MOL0     H44522  -3.281   0.779   2.310  1.6825 -1.2195  1.4285
  330MOL0     H44523  -3.309   0.870   2.458  0.2425  1.7045 -0.6326
  330MOL0     H44524  -3.359   0.958   2.178  1.0989 -1.4283  1.5696
  330MOL0     H44525  -3.365   1.073   2.312  1.1537  0.3769 -1.0882
  330MOL0     H44526  -3.535   0.801   2.297 -2.8729  0.3687  0.7630
  330MOL0     H44527  -3.534   0.916   2.416  1.9413  1.6853 -0.3416
  330MOL0     H44528  -3.588   1.023   2.135 -1.5059  0.6489 -0.3489
  330MOL0     H44529  -3.678   1.056   2.290  1.2216  1.0526  0.3367
  330MOL0     H44530  -3.828   0.940   2.150 -0.1689  0.5432  1.2155
  330MOL0     H44531  -3.790   0.854   2.290 -2.6347  4.2997  1.2292
  330MOL0     H44532  -2.751   1.227   2.441 -3.2250 -1.0107 -0.6524
  330MOL0     H44533  -2.539   1.321   2.354  0.4700  0.0258 -0.1163
  330MOL0     H44534  -2.329   1.567   2.020  0.4070  0.3436 -0.7653
  330MOL0     H44535  -2.175   1.650   1.873 -2.2408 -0.6245 -0.3547
  330MOL0     H44536  -0.481   1.491   1.297 -0.1983  2.3871  0.8954
  330MOL0     H44537  -0.276   1.348   1.251  0.6844 -1.1057  1.4871
  330MOL0     H44538   0.021   1.070   1.417  0.3547 -0.3899  0.5628
  330MOL0     H44539   0.217   0.925   1.395  0.7230 -0.5553  1.3463
  330MOL0     H44540   0.572   1.076   1.180  2.1531  3.8040  2.1522
  330MOL0     H44541   0.651   1.120   1.324  6.6339 -2.0458 -3.9273
  330MOL0     H44542   0.641   0.837   1.234 -0.4257  0.9770 -2.5607
  330MOL0     H44543   0.707   0.896   1.385 -1.2012  0.2733 -0.3663
  330MOL0     H44544   0.895   1.008   1.247  1.9937 -1.5590 -0.0146
  330MOL0     H44545   0.796   0.970   1.093  0.0950  1.5589 -0.7645
  330MOL0     H44546   0.836   0.730   1.143  0.5517 -0.3376 -1.5333
  330MOL0     H44547   0.913   0.773   1.290  1.7760 -1.2410  0.3401
  330MOL0     H44548   1.190   0.869   0.959 -1.4127 -0.2705 -0.1266
  330MOL0     H44549   0.446   1.267   1.275  1.1320 -1.1621  2.4773
  330MOL0     H44550   0.237   1.401   1.241 -1.0370  0.1635  0.1019
  331MOL0     O44551  11.063   3.040   1.457 -0.2296 -0.6662 -0.1263
  331MOL0     C44552  11.128   3.027   1.559  0.4534 -0.2566  0.3989
  331MOL0     O44553  11.082   3.027   1.687  0.0976 -0.0074 -0.1263
  331MOL0     C44554  10.960   3.072   1.728  0.9718 -0.4130  0.2834
  331MOL0     C44555  10.849   3.105   1.648  0.2560 -0.6345  0.5171
  331MOL0     C44556  10.726   3.147   1.697  0.4185 -0.5780  0.0367
  331MOL0     C44557  10.699   3.130   1.839 -0.0292  0.2067  0.2349
  331MOL0     O44558  10.575   3.157   1.886  0.2798  0.0805  0.2992
  331MOL0     C44559  10.552   3.139   2.023  0.2766 -0.6621  0.1356
  331MOL0     C44560  10.412   3.178   2.054 -0.9512  0.3575 -0.1425
  331MOL0     C44561  10.376   3.117   2.190  0.1058 -0.1114 -0.2063
  331MOL0     C44562  10.476   3.140   2.303 -0.4360 -0.2960 -0.3633
  331MOL0     C44563  10.445   3.060   2.434 -0.8131 -0.7957  0.8072
  331MOL0     C44564  10.537   3.121   2.546  0.7232  0.0081  0.4196
  331MOL0     C44565  10.535   3.045   2.682 -0.4535  0.0350 -0.2489
  331MOL0     C44566  10.612   3.115   2.781  0.1168 -0.6451  0.1348
  331MOL0     N44567  10.549   3.243   2.819 -0.7348 -0.0144 -0.5796
  331MOL0     C44568  10.576   3.367   2.760 -0.5107  0.0347  0.9577
  331MOL0     C44569  10.471   3.446   2.798  0.4036  0.8100 -0.1938
  331MOL0     C44570  10.429   3.580   2.732  0.8037  0.3381  0.3865
  331MOL0     C44571  10.295   3.614   2.787  1.4786 -0.4236 -0.9281
  331MOL0     C44572  10.274   3.764   2.761  0.1211  0.2245 -0.2070
  331MOL0     C44573  10.131   3.803   2.803 -0.0218  0.0242 -0.5001
  331MOL0     O44574  10.035   3.731   2.716  0.5258  0.1072 -0.5972
  331MOL0     C44575   9.912   3.722   2.776 -0.0833  0.4633 -0.4128
  331MOL0     C44576   9.808   3.798   2.717 -0.3511  0.3457 -0.3852
  331MOL0     C44577   9.676   3.785   2.763 -0.5463  0.7740 -0.7672
  331MOL0     C44578   9.573   3.866   2.693  0.3202  0.1422  0.2642
  331MOL0     C44579   9.643   3.699   2.871  0.4984 -0.2314 -0.2939
  331MOL0     C44580   9.504   3.666   2.911 -0.2891  0.3464 -0.5419
  331MOL0     O44581   9.487   3.541   2.958  0.1699 -0.1772  0.4688
  331MOL0     C44582   9.357   3.496   2.980 -0.1418  0.2789 -0.1982
  331MOL0     C44583   9.348   3.403   3.089  0.1861  0.2194 -0.1509
  331MOL0     C44584   9.220   3.353   3.132 -0.7767  0.9228 -0.1912
  331MOL0     C44585   9.105   3.387   3.066  0.5899 -0.1906 -0.2706
  331MOL0     O44586   8.987   3.330   3.102  0.2594 -0.0300 -0.2846
  331MOL0     C44587   8.930   3.244   3.010  0.0763  0.4932 -0.7518
  331MOL0     C44588   8.799   3.216   3.070  0.9756 -0.5007 -0.3710
  331MOL0     C44589   8.694   3.324   3.027  0.3343  0.0935  1.0254
  331MOL0     C44590   8.559   3.262   2.980 -0.5610  0.0647 -0.1771
  331MOL0     C44591   8.441   3.356   3.009 -0.9620 -0.1391  0.1684
  331MOL0     C44592   8.339   3.353   2.895  0.2683 -0.2156 -0.2542
  331MOL0     C44593   8.217   3.415   2.947  0.2308 -0.7154 -0.5752
  331MOL0     C44594   8.109   3.459   2.855 -0.2481  0.6843  0.2163
  331MOL0    Cl44595   8.184   3.559   2.712  0.0019  0.2404 -0.6852
  331MOL0     C44596   9.111   3.485   2.968  0.4250  0.1367  0.7108
  331MOL0     C44597   9.238   3.541   2.927  0.5757  0.1793 -0.1157
  331MOL0     O44598   9.427   3.756   2.918  0.5457  0.1882 -0.0717
  331MOL0     C44599   9.746   3.627   2.927  0.0174  0.4544 -0.2178
  331MOL0     C44600   9.884   3.642   2.880  0.2883 -0.1118 -0.2169
  331MOL0     N44601  10.394   3.372   2.889  0.3628 -0.6756 -0.1998
  331MOL0     N44602  10.449   3.256   2.911  0.0478  0.2307 -0.0778
  331MOL0     C44603  10.812   3.095   1.923 -0.3370 -0.5635 -0.1307
  331MOL0     C44604  10.938   3.075   1.866 -0.7109 -0.4634  0.3075
  331MOL0     C44605  11.267   2.986   1.530 -0.9271  0.4839  0.6136
  331MOL0     C44606  11.320   2.979   1.403  0.2187  0.1725  0.1223
  331MOL0     C44607  11.458   2.954   1.372 -0.4042  0.4367  0.1197
  331MOL0     C44608  11.551   2.949   1.477 -0.6713 -0.7057  0.4009
  331MOL0     O44609  11.682   2.929   1.443 -0.2815 -0.7422 -0.5117
  331MOL0     C44610  11.783   2.893   1.541 -0.2281  0.0066  0.3720
  331MOL0     C44611  11.798   2.734   1.544 -0.2129  0.2659  0.6303
  331MOL0     C44612  11.952   2.700   1.555  0.1911  0.4707 -0.5882
  331MOL0     C44613  11.964   2.548   1.537 -0.0558  0.3580 -0.2477
  331MOL0     C44614  12.101   2.496   1.583  0.0161  0.5059 -0.6277
  331MOL0     C44615  12.201   2.446   1.633 -0.3332  0.2275  0.3008
  331MOL0     C44616  11.506   2.957   1.607  0.5363 -0.0340  1.1579
  331MOL0     C44617  11.364   2.976   1.629 -1.4171  0.4540 -0.3443
  331MOL0     H44618  10.854   3.093   1.540  0.0828  1.5739  0.2087
  331MOL0     H44619  10.642   3.183   1.638 -0.5628  1.8648  2.6897
  331MOL0     H44620  10.555   3.035   2.056 -0.7113 -0.6637  0.2439
  331MOL0     H44621  10.629   3.194   2.077  1.5333 -0.1233 -2.0949
  331MOL0     H44622  10.388   3.284   2.052  0.1419  0.8203  3.9563
  331MOL0     H44623  10.351   3.120   1.984 -0.4714 -0.1163 -0.1789
  331MOL0     H44624  10.273   3.149   2.212  0.3665  1.0935 -0.6439
  331MOL0     H44625  10.371   3.010   2.169  1.9139  0.1087 -2.0843
  331MOL0     H44626  10.581   3.126   2.277 -0.0893 -1.0836  1.2905
  331MOL0     H44627  10.457   3.243   2.335  1.2692  0.1246 -0.5848
  331MOL0     H44628  10.339   3.066   2.460 -1.0069 -2.3600  0.4730
  331MOL0     H44629  10.471   2.955   2.416 -0.8809 -0.9089  1.3323
  331MOL0     H44630  10.640   3.135   2.511  0.3056  0.9382 -0.4857
  331MOL0     H44631  10.497   3.221   2.563  1.3873  0.5717 -1.1522
  331MOL0     H44632  10.430   3.036   2.710 -1.3544 -0.7306 -3.4093
  331MOL0     H44633  10.570   2.942   2.668 -1.3500 -0.2995 -0.1228
  331MOL0     H44634  10.718   3.124   2.753  0.2933  1.1558  1.2535
  331MOL0     H44635  10.603   3.051   2.869 -1.2991  1.6761  1.7844
  331MOL0     H44636  10.637   3.393   2.674 -3.3362  2.9461 -0.3539
  331MOL0     H44637  10.507   3.650   2.761 -0.3285  1.6044  0.5121
  331MOL0     H44638  10.434   3.571   2.623  3.8738 -3.3277  0.6725
  331MOL0     H44639  10.297   3.594   2.895 -0.1925 -0.7641 -0.9266
  331MOL0     H44640  10.213   3.555   2.744 -0.9205  0.9443  1.4280
  331MOL0     H44641  10.282   3.785   2.654  0.5620 -0.3380 -0.2856
  331MOL0     H44642  10.355   3.821   2.807  1.2533 -0.6521 -1.0678
  331MOL0     H44643  10.115   3.911   2.804  2.9480  0.5617  1.4710
  331MOL0     H44644  10.128   3.771   2.907  0.2070 -1.6564 -0.9707
  331MOL0     H44645   9.826   3.855   2.627  3.5386  2.4244  1.4255
  331MOL0     H44646   9.524   3.949   2.744 -4.0209  0.6690 -4.0595
  331MOL0     H44647   9.617   3.900   2.599  0.6282  0.4990  0.5356
  331MOL0     H44648   9.491   3.798   2.669 -0.0445  1.2728 -1.8993
  331MOL0     H44649   9.439   3.376   3.141 -0.4516 -0.4438  0.6324
  331MOL0     H44650   9.218   3.283   3.215 -1.2289 -0.5364 -1.3955
  331MOL0     H44651   8.933   3.290   2.911 -1.1367 -1.8341 -1.9555
  331MOL0     H44652   8.993   3.155   3.011  1.2381  0.9963  5.1717
  331MOL0     H44653   8.756   3.121   3.034  1.6511  0.2052 -3.2958
  331MOL0     H44654   8.810   3.192   3.176 -0.0094 -0.1902 -0.1863
  331MOL0     H44655   8.732   3.382   2.942 -1.8152 -0.0276 -0.0622
  331MOL0     H44656   8.668   3.392   3.108 -1.5047  0.1457  0.4267
  331MOL0     H44657   8.562   3.247   2.872 -4.1894 -3.5252 -0.0212
  331MOL0     H44658   8.540   3.160   3.015 -1.9827  0.4519  0.2442
  331MOL0     H44659   8.472   3.460   3.017 -3.3931  0.7005 -0.5675
  331MOL0     H44660   8.403   3.330   3.108 -1.1025  0.6155  0.3171
  331MOL0     H44661   8.382   3.403   2.808  1.5383 -3.0134 -1.3674
  331MOL0     H44662   8.314   3.250   2.866  1.0643 -0.8175  1.1037
  331MOL0     H44663   8.237   3.505   3.005 -1.7810 -2.2130  2.7919
  331MOL0     H44664   8.177   3.344   3.021 -2.1316 -0.3045 -1.3761
  331MOL0     H44665   8.020   3.505   2.898 -0.0116  1.8602 -0.4992
  331MOL0     H44666   8.083   3.367   2.801  2.0692  1.1626 -1.9129
  331MOL0     H44667   9.024   3.524   2.918  1.2196  0.1376 -0.7365
  331MOL0     H44668   9.247   3.605   2.839  1.6501 -0.3402 -0.4036
  331MOL0     H44669   9.719   3.574   3.018 -2.6154  2.3287  0.2347
  331MOL0     H44670   9.971   3.611   2.936 -1.0492  2.9599  4.0776
  331MOL0     H44671  10.797   3.094   2.030  0.2039  2.0858  0.0463
  331MOL0     H44672  11.022   3.046   1.929  0.7109 -3.9257 -2.8252
  331MOL0     H44673  11.248   2.984   1.322  0.5453 -1.0205 -0.2602
  331MOL0     H44674  11.473   2.959   1.265 -2.4176  3.1808 -0.1283
  331MOL0     H44675  11.873   2.939   1.498 -1.4784  0.0437 -2.4128
  331MOL0     H44676  11.767   2.931   1.643 -2.2437 -2.9002  1.2712
  331MOL0     H44677  11.760   2.701   1.447 -1.6605  0.9848  0.9229
  331MOL0     H44678  11.741   2.711   1.634 -1.3917  3.2827  0.7970
  331MOL0     H44679  11.983   2.722   1.658  1.3972 -1.0082 -0.6004
  331MOL0     H44680  12.020   2.758   1.493  1.8888 -1.2462 -0.4527
  331MOL0     H44681  11.943   2.522   1.433  2.1879  0.1010 -0.6963
  331MOL0     H44682  11.884   2.503   1.597 -1.0659  2.7637  0.3246
  331MOL0     H44683  12.300   2.424   1.669 -0.8581 -1.7881  0.6329
  331MOL0     H44684  11.565   2.948   1.698 -1.7283  0.7447  2.8100
  331MOL0     H44685  11.337   2.979   1.734 -0.2391 -1.6678  0.0848
  332MOL0     O44686   9.676   8.607  10.667 -0.5119  0.6103 -0.0147
  332MOL0     C44687   9.725   8.499  10.697  0.0005 -0.5753  0.5856
  332MOL0     O44688   9.668   8.405  10.776 -0.8353 -0.1459 -1.0938
  332MOL0     C44689   9.539   8.402  10.830  0.0366  0.4095  0.2610
  332MOL0     C44690   9.429   8.480  10.791  0.6060 -0.4794 -0.7591
  332MOL0     C44691   9.306   8.465  10.864 -0.1920 -0.0036  0.6332
  332MOL0     C44692   9.285   8.369  10.960 -0.0467 -0.6973  0.1241
  332MOL0     O44693   9.167   8.347  11.025 -0.3219  0.0888 -0.6362
  332MOL0     C44694   9.068   8.459  11.033  1.0792  0.4916 -0.6460
  332MOL0     C44695   8.948   8.405  11.113 -0.0385  0.3101 -0.1072
  332MOL0     C44696   8.844   8.516  11.104 -0.0252  0.6727  0.4065
  332MOL0     C44697   8.721   8.456  11.164 -0.1296 -0.1110  0.2047
  332MOL0     C44698   8.604   8.562  11.187  0.9197  0.4945  0.2003
  332MOL0     C44699   8.467   8.504  11.235 -0.9361  0.3855 -0.5537
  332MOL0     C44700   8.352   8.598  11.248 -1.2244  0.4318  0.6876
  332MOL0     C44701   8.219   8.533  11.293 -0.8189  0.6670  0.2070
  332MOL0     N44702   8.112   8.625  11.329 -0.3748  0.2092  0.0795
  332MOL0     C44703   8.108   8.759  11.287 -0.8160  0.3341 -1.0345
  332MOL0     C44704   7.989   8.807  11.327  0.5483 -1.0909 -0.1245
  332MOL0     C44705   7.951   8.951  11.333  0.2391 -0.4282 -0.6605
  332MOL0     C44706   7.821   8.994  11.398  0.2851  0.3378 -0.2366
  332MOL0     C44707   7.697   8.915  11.359 -0.3849 -0.0773 -0.1334
  332MOL0     C44708   7.566   8.980  11.390  0.7032  0.1455  1.0306
  332MOL0     O44709   7.517   8.952  11.514  0.1961 -0.1147  0.0582
  332MOL0     C44710   7.391   8.993  11.545  0.1163 -0.1037  0.5299
  332MOL0     C44711   7.315   8.920  11.629  0.9157  0.9608 -0.4010
  332MOL0     C44712   7.180   8.952  11.659 -0.5217 -0.2752 -0.2301
  332MOL0     C44713   7.105   8.864  11.755 -0.4431  0.9537 -0.2869
  332MOL0     C44714   7.120   9.074  11.611 -0.0606 -0.0813 -0.5999
  332MOL0     C44715   6.988   9.121  11.649  0.3199 -0.9295  0.3216
  332MOL0     O44716   6.952   9.247  11.622  1.1099  0.8418 -0.1137
  332MOL0     C44717   6.818   9.282  11.605 -0.0987  0.1524  0.1405
  332MOL0     C44718   6.717   9.193  11.566 -0.1003 -0.4230  0.2553
  332MOL0     C44719   6.584   9.241  11.553  0.0359  0.1867 -0.2645
  332MOL0     C44720   6.552   9.376  11.584 -0.2320  0.7144  0.6814
  332MOL0     O44721   6.422   9.430  11.568  0.1179  0.2699  0.9642
  332MOL0     C44722   6.336   9.396  11.672  0.1511 -0.6038  0.1342
  332MOL0     C44723   6.240   9.508  11.700  0.4865 -1.0327  0.8158
  332MOL0     C44724   6.149   9.468  11.816  0.1691  0.5306  0.3889
  332MOL0     C44725   6.131   9.573  11.921 -0.5358  0.3448  0.3673
  332MOL0     C44726   6.022   9.537  12.025  0.5838  0.1687 -0.7671
  332MOL0     C44727   5.875   9.565  11.976 -0.0124  1.1243  0.0639
  332MOL0     C44728   5.785   9.559  12.094 -0.6593 -0.7511  0.1614
  332MOL0     C44729   5.645   9.599  12.062  0.1095  0.1075  0.0218
  332MOL0    Cl44730   5.558   9.489  11.952  0.1821  0.3837 -0.0796
  332MOL0     C44731   6.656   9.454  11.639  0.2434 -1.4176  0.3664
  332MOL0     C44732   6.787   9.409  11.641  0.1260 -0.2512  0.9226
  332MOL0     O44733   6.912   9.032  11.693  0.0503 -0.4564 -0.0340
  332MOL0     C44734   7.199   9.152  11.526  0.3503  0.0929  0.2246
  332MOL0     C44735   7.327   9.111  11.487  0.4196  0.2316 -0.3250
  332MOL0     N44736   7.920   8.703  11.391  0.8685 -0.4307  0.5634
  332MOL0     N44737   7.992   8.598  11.383  0.5112 -0.4148 -0.2632
  332MOL0     C44738   9.394   8.289  10.995  1.0038 -0.8865 -0.3631
  332MOL0     C44739   9.518   8.298  10.933  0.0028 -0.4856 -0.4411
  332MOL0     C44740   9.855   8.469  10.633 -0.2730 -0.1451  0.1134
  332MOL0     C44741   9.893   8.548  10.520 -0.5529 -0.0969  0.0539
  332MOL0     C44742  10.014   8.515  10.461 -0.1879 -0.3305 -0.4925
  332MOL0     C44743  10.095   8.403  10.504  0.0417 -1.0008 -0.1081
  332MOL0     O44744  10.212   8.386  10.430  0.3361  0.5445  0.3205
  332MOL0     C44745  10.305   8.292  10.477 -0.6911 -0.0419  0.3320
  332MOL0     C44746  10.435   8.300  10.402 -0.1300 -0.3214  0.0720
  332MOL0     C44747  10.517   8.425  10.424  0.1645  0.3025  0.3449
  332MOL0     C44748  10.647   8.432  10.335 -0.3225 -0.4228  0.4616
  332MOL0     C44749  10.609   8.406  10.197  0.4429  0.6987 -0.7756
  332MOL0     C44750  10.589   8.371  10.085 -1.2804 -0.2965 -0.1145
  332MOL0     C44751  10.046   8.325  10.612 -0.0802 -0.1715 -0.7789
  332MOL0     C44752   9.934   8.365  10.682 -0.0453 -0.4665  0.0827
  332MOL0     H44753   9.437   8.539  10.700  2.5346 -2.0754 -1.6695
  332MOL0     H44754   9.228   8.529  10.826  0.3699 -0.7275 -1.9572
  332MOL0     H44755   9.105   8.558  11.058  2.3668 -0.2750  0.5996
  332MOL0     H44756   9.038   8.481  10.930  4.8498  1.8763 -1.6007
  332MOL0     H44757   8.908   8.312  11.073 -1.4595  0.0226  1.8066
  332MOL0     H44758   8.976   8.383  11.217 -1.4496 -0.6520  0.0970
  332MOL0     H44759   8.874   8.602  11.164  1.1661 -0.8999  2.1573
  332MOL0     H44760   8.833   8.554  11.002  0.8836  0.2345  0.1347
  332MOL0     H44761   8.683   8.375  11.102 -1.4046  1.8873 -1.7972
  332MOL0     H44762   8.746   8.412  11.261 -1.6420 -0.6440  0.3914
  332MOL0     H44763   8.650   8.628  11.262 -0.0609 -0.8134  2.0136
  332MOL0     H44764   8.595   8.622  11.096 -1.9842 -0.7658 -0.4493
  332MOL0     H44765   8.452   8.430  11.156  0.2452 -2.3588  1.5905
  332MOL0     H44766   8.474   8.448  11.329  1.7010  0.3743 -0.6752
  332MOL0     H44767   8.383   8.675  11.320 -3.0025  0.5743  1.3432
  332MOL0     H44768   8.336   8.638  11.147 -2.8971 -0.2734  0.6477
  332MOL0     H44769   8.232   8.457  11.370 -1.2891 -0.4623 -0.8061
  332MOL0     H44770   8.187   8.465  11.214 -0.6143 -0.8687  1.4103
  332MOL0     H44771   8.193   8.816  11.250 -1.5783  0.5667 -2.5428
  332MOL0     H44772   8.024   9.006  11.394  0.2842 -0.4854 -0.6629
  332MOL0     H44773   7.959   8.990  11.231 -1.4093 -0.4358 -0.8218
  332MOL0     H44774   7.799   9.097  11.370 -4.3524 -1.1786 -3.3795
  332MOL0     H44775   7.826   8.986  11.507  2.0741  0.9908 -0.2372
  332MOL0     H44776   7.689   8.811  11.393 -0.2215 -0.1126 -0.1964
  332MOL0     H44777   7.705   8.908  11.250 -0.5430 -0.4227 -0.1222
  332MOL0     H44778   7.496   8.953  11.310 -0.2812  2.0860  1.1787
  332MOL0     H44779   7.578   9.088  11.385 -1.3598  0.3389 -2.1529
  332MOL0     H44780   7.356   8.827  11.667  1.2514  2.2003  2.5257
  332MOL0     H44781   7.178   8.788  11.784 -2.8074 -1.4547 -0.2719
  332MOL0     H44782   7.068   8.918  11.843 -1.0294 -0.0170  0.0862
  332MOL0     H44783   7.023   8.809  11.709 -0.9348 -0.2279  1.8437
  332MOL0     H44784   6.742   9.089  11.551 -0.0369 -0.2164 -1.1876
  332MOL0     H44785   6.501   9.171  11.543 -1.3284  1.3522  1.9944
  332MOL0     H44786   6.273   9.310  11.646  2.2675 -1.6026 -2.0351
  332MOL0     H44787   6.388   9.371  11.765  2.1473  2.2291 -0.0847
  332MOL0     H44788   6.291   9.602  11.723  4.1375 -2.8444  0.7683
  332MOL0     H44789   6.180   9.531  11.611  2.7264 -0.4238 -0.6108
  332MOL0     H44790   6.202   9.385  11.864  2.0061  1.2322 -0.3147
  332MOL0     H44791   6.051   9.436  11.779  0.3001  0.6628 -0.0761
  332MOL0     H44792   6.224   9.601  11.972 -0.0057 -1.9264  0.7545
  332MOL0     H44793   6.104   9.657  11.857  1.6498  0.1361 -0.9401
  332MOL0     H44794   6.046   9.614  12.099  0.2573 -0.2940 -0.1662
  332MOL0     H44795   6.039   9.432  12.053 -0.6309  0.3118  0.6163
  332MOL0     H44796   5.873   9.658  11.918 -3.7678  1.2984  0.2266
  332MOL0     H44797   5.832   9.490  11.909  0.3716  0.6739  0.3189
  332MOL0     H44798   5.837   9.625  12.163  0.0077 -0.5468 -0.5204
  332MOL0     H44799   5.778   9.462  12.145 -3.0306 -0.2566  0.8976
  332MOL0     H44800   5.649   9.698  12.015 -0.4156  1.0352  1.8305
  332MOL0     H44801   5.599   9.615  12.160 -0.2162  2.1698 -0.4051
  332MOL0     H44802   6.622   9.546  11.688 -0.0375 -2.2888  1.8739
  332MOL0     H44803   6.880   9.451  11.678  2.1929 -1.5812 -2.2983
  332MOL0     H44804   7.166   9.250  11.492  1.2787  0.7292  1.1204
  332MOL0     H44805   7.381   9.172  11.416  1.0733 -1.2667 -1.1777
  332MOL0     H44806   9.377   8.219  11.075 -2.6899 -0.9406 -1.0198
  332MOL0     H44807   9.607   8.239  10.953 -0.3200 -1.1507 -0.9301
  332MOL0     H44808   9.846   8.632  10.471  2.5261  1.3929 -0.5831
  332MOL0     H44809  10.053   8.582  10.385 -0.6322 -0.8289 -1.1731
  332MOL0     H44810  10.332   8.314  10.581  0.2616  1.1247 -0.1338
  332MOL0     H44811  10.260   8.193  10.478  1.2152 -1.0038 -1.8502
  332MOL0     H44812  10.406   8.283  10.298  0.1201 -0.2331 -0.0119
  332MOL0     H44813  10.503   8.222  10.437  2.0389  2.2528  2.0084
  332MOL0     H44814  10.552   8.427  10.528 -0.2580 -2.6770  0.6141
  332MOL0     H44815  10.458   8.515  10.403 -1.8650 -1.1290 -0.3101
  332MOL0     H44816  10.725   8.359  10.356  3.2306  2.5665 -1.2210
  332MOL0     H44817  10.702   8.526  10.343 -0.2520 -0.4733  0.5599
  332MOL0     H44818  10.564   8.305  10.005  0.4060  1.1585 -1.9411
  332MOL0     H44819  10.107   8.240  10.643 -2.0045 -1.1619  0.4786
  332MOL0     H44820   9.911   8.301  10.766  0.2836 -0.6158  0.0623
  333MOL0     O44821   5.080   9.438   8.478  0.2470  0.4823  0.1968
  333MOL0     C44822   5.146   9.376   8.562  0.2896 -0.1114  0.3912
  333MOL0     O44823   5.095   9.294   8.664  0.4695  0.3757  0.4024
  333MOL0     C44824   4.969   9.322   8.694 -0.3508  1.1698  0.1233
  333MOL0     C44825   4.885   9.242   8.613 -0.4214  0.2514  0.3092
  333MOL0     C44826   4.751   9.251   8.641  0.1328 -0.4324 -1.0783
  333MOL0     C44827   4.695   9.333   8.744  0.6530  0.5364  0.2396
  333MOL0     O44828   4.564   9.325   8.771  0.2146 -0.2028 -0.3467
  333MOL0     C44829   4.497   9.419   8.856 -0.4211 -0.6976  0.0959
  333MOL0     C44830   4.481   9.555   8.783  0.8871  0.0657  0.0205
  333MOL0     C44831   4.427   9.654   8.881 -0.3443 -0.3040  0.0408
  333MOL0     C44832   4.383   9.782   8.815  1.1656  0.1857 -0.5650
  333MOL0     C44833   4.229   9.784   8.811  0.4016 -0.2654  0.6353
  333MOL0     C44834   4.179   9.882   8.695  0.5369  0.6867 -0.0502
  333MOL0     C44835   4.190  10.036   8.734  0.1078  0.1728  0.8229
  333MOL0     C44836   4.092  10.082   8.846  0.1483  0.7689 -0.3905
  333MOL0     N44837   3.946  10.059   8.824  0.0274 -0.9167 -1.0852
  333MOL0     C44838   3.860  10.124   8.743 -0.2038  1.0521  0.0865
  333MOL0     C44839   3.738  10.068   8.773 -0.4421 -0.3727  0.1840
  333MOL0     C44840   3.598  10.085   8.726  0.2128 -0.0067  0.0062
  333MOL0     C44841   3.538  10.216   8.784 -1.0921 -0.6613 -0.4549
  333MOL0     C44842   3.391  10.256   8.749  0.0225 -0.1471  0.3815
  333MOL0     C44843   3.286  10.158   8.791 -0.3233  0.5384  0.0891
  333MOL0     O44844   3.156  10.201   8.745 -0.2614 -1.0576  0.1416
  333MOL0     C44845   3.041  10.136   8.787 -0.6566 -0.2251 -0.0966
  333MOL0     C44846   2.921  10.204   8.783  0.1258  0.2223 -0.5588
  333MOL0     C44847   2.802  10.150   8.839  0.7470  0.7780 -0.0162
  333MOL0     C44848   2.679  10.238   8.842 -0.5066 -0.2928  0.6103
  333MOL0     C44849   2.801  10.018   8.891  0.0513  0.6150  0.1239
  333MOL0     C44850   2.681   9.954   8.950 -0.7525 -0.0573  0.2559
  333MOL0     O44851   2.576  10.025   8.994  0.2584 -0.4012  0.3687
  333MOL0     C44852   2.491   9.960   9.078  0.1180  0.4436 -0.1337
  333MOL0     C44853   2.360   9.935   9.031  0.5395  0.3734 -0.2709
  333MOL0     C44854   2.275   9.847   9.104  0.1984  0.0457 -0.2416
  333MOL0     C44855   2.323   9.786   9.223 -0.3185 -0.1914 -0.8657
  333MOL0     O44856   2.245   9.706   9.306  0.3361 -0.2956  0.0107
  333MOL0     C44857   2.116   9.652   9.243 -0.6994 -0.3359  0.3291
  333MOL0     C44858   1.996   9.735   9.276  0.0092  0.1214 -0.1918
  333MOL0     C44859   1.868   9.686   9.212 -1.0349 -0.0304 -0.0995
  333MOL0     C44860   1.757   9.769   9.272  0.4946  0.0493  0.3165
  333MOL0     C44861   1.624   9.725   9.210 -0.0271  0.1801  0.0802
  333MOL0     C44862   1.509   9.814   9.265  0.3600  0.2870  0.0737
  333MOL0     C44863   1.402   9.829   9.149 -0.1923  0.0999  0.6291
  333MOL0     C44864   1.270   9.860   9.222 -0.3658  0.5857  0.4244
  333MOL0    Cl44865   1.280  10.010   9.298  0.1901 -0.2838  0.5804
  333MOL0     C44866   2.450   9.825   9.275 -0.3187 -0.4531 -0.4258
  333MOL0     C44867   2.533   9.907   9.198 -0.1012  0.9634 -0.1746
  333MOL0     O44868   2.677   9.828   8.946 -0.1314 -0.9042  0.2211
  333MOL0     C44869   2.921   9.951   8.884 -0.4376  0.4057 -0.4835
  333MOL0     C44870   3.039  10.010   8.836 -0.0833 -0.1664 -0.3080
  333MOL0     N44871   3.757   9.992   8.883  1.0941 -0.4110 -0.0439
  333MOL0     N44872   3.879   9.989   8.917 -0.2457 -0.0713 -0.1882
  333MOL0     C44873   4.791   9.407   8.819  0.9255  0.9836 -0.1310
  333MOL0     C44874   4.926   9.399   8.798 -0.1894  0.1013 -0.2545
  333MOL0     C44875   5.291   9.394   8.566  0.8118 -0.8213 -0.3903
  333MOL0     C44876   5.373   9.292   8.616 -0.6172  0.3659  0.4763
  333MOL0     C44877   5.511   9.321   8.622  0.3615 -0.0124 -0.6501
  333MOL0     C44878   5.557   9.442   8.599 -0.5732 -0.7894 -0.0715
  333MOL0     O44879   5.688   9.469   8.603 -0.1670  0.0576  0.2030
  333MOL0     C44880   5.786   9.374   8.554  0.4653  0.6547  0.5019
  333MOL0     C44881   5.932   9.410   8.570 -0.1495  0.0571 -0.6202
  333MOL0     C44882   5.952   9.545   8.498  0.6086  0.0492 -0.5334
  333MOL0     C44883   6.091   9.604   8.504 -0.2213  0.5740  0.2895
  333MOL0     C44884   6.190   9.506   8.455  0.4774 -0.5084  0.8897
  333MOL0     C44885   6.275   9.420   8.413  0.4093  0.8874 -0.1574
  333MOL0     C44886   5.472   9.542   8.560  1.2967  0.2322 -0.2235
  333MOL0     C44887   5.341   9.523   8.543  0.2809 -0.3516 -0.6263
  333MOL0     H44888   4.925   9.173   8.539 -1.0434  0.3087 -0.0908
  333MOL0     H44889   4.681   9.199   8.576  1.3739 -1.8430 -1.3374
  333MOL0     H44890   4.401   9.369   8.873  0.0149 -0.9794  1.9592
  333MOL0     H44891   4.542   9.434   8.955  0.9653  5.4836 -1.0562
  333MOL0     H44892   4.577   9.581   8.738 -0.1161  0.4251 -2.0887
  333MOL0     H44893   4.414   9.546   8.697  0.2102 -2.1616  0.7181
  333MOL0     H44894   4.345   9.619   8.944 -1.5316  1.6129 -0.3647
  333MOL0     H44895   4.515   9.669   8.945 -0.3928  0.3769 -0.0377
  333MOL0     H44896   4.421   9.864   8.878  0.3342 -0.6924  1.1486
  333MOL0     H44897   4.429   9.793   8.716  0.2537  1.0850 -0.9124
  333MOL0     H44898   4.195   9.686   8.776  0.6592  0.4436 -1.7131
  333MOL0     H44899   4.188   9.807   8.910  2.1622  0.6843  1.2044
  333MOL0     H44900   4.239   9.870   8.604  1.0073  2.6225 -0.0270
  333MOL0     H44901   4.079   9.852   8.665  1.6475 -1.0517 -2.3786
  333MOL0     H44902   4.295  10.055   8.760 -0.4359  1.3451  2.3809
  333MOL0     H44903   4.168  10.090   8.642 -0.1394 -2.7781 -0.9423
  333MOL0     H44904   4.112  10.188   8.862 -3.8395  1.6550 -0.3522
  333MOL0     H44905   4.104  10.020   8.935 -2.3767 -0.3118 -0.7188
  333MOL0     H44906   3.882  10.185   8.655  0.3570  2.3267  1.0808
  333MOL0     H44907   3.600  10.106   8.619  1.0807 -0.7839 -0.1410
  333MOL0     H44908   3.528  10.001   8.728 -0.4655  0.3009 -3.6580
  333MOL0     H44909   3.593  10.302   8.744 -3.6603  1.1582 -0.3219
  333MOL0     H44910   3.555  10.217   8.892  2.1269  0.2365 -0.8563
  333MOL0     H44911   3.386  10.256   8.639  2.3583  0.0539  0.2263
  333MOL0     H44912   3.355  10.357   8.769 -0.7423 -0.3679  0.1825
  333MOL0     H44913   3.294  10.142   8.899 -0.3399 -0.7133 -0.0891
  333MOL0     H44914   3.309  10.065   8.739  0.9940  1.3207 -0.7871
  333MOL0     H44915   2.904  10.305   8.746  0.1538  1.0609  1.6118
  333MOL0     H44916   2.650  10.252   8.946 -3.3777 -3.4394  0.4025
  333MOL0     H44917   2.698  10.326   8.779  0.2712 -0.0204  1.2180
  333MOL0     H44918   2.590  10.192   8.799 -0.5789 -0.6106  1.1013
  333MOL0     H44919   2.316   9.980   8.942  1.6890  1.4291 -0.3263
  333MOL0     H44920   2.178   9.829   9.060  0.7694 -3.7114 -0.2790
  333MOL0     H44921   2.121   9.639   9.134 -2.6959  1.6154 -0.0668
  333MOL0     H44922   2.103   9.552   9.286 -1.4545 -1.5735 -2.5512
  333MOL0     H44923   1.985   9.729   9.384  2.5585 -1.0909  0.0606
  333MOL0     H44924   2.021   9.839   9.249 -0.5739 -0.2588 -2.4594
  333MOL0     H44925   1.852   9.579   9.229 -0.7221  0.0027  0.4164
  333MOL0     H44926   1.877   9.700   9.104  4.4226 -0.4588  0.0335
  333MOL0     H44927   1.747   9.762   9.380  0.2621  1.3105  0.3927
  333MOL0     H44928   1.774   9.875   9.251  0.8558  0.1575  1.1377
  333MOL0     H44929   1.607   9.620   9.237  0.4983  0.7446  2.8715
  333MOL0     H44930   1.639   9.739   9.103  3.1182  1.7715  0.6134
  333MOL0     H44931   1.468   9.759   9.351  2.5407 -2.8557 -0.7325
  333MOL0     H44932   1.536   9.915   9.297 -3.8629  1.0884  1.8358
  333MOL0     H44933   1.395   9.737   9.090  1.0839  0.7237 -0.5460
  333MOL0     H44934   1.416   9.908   9.075  0.3582 -0.9642 -0.4366
  333MOL0     H44935   1.247   9.785   9.298  0.4994 -1.2136 -1.0009
  333MOL0     H44936   1.191   9.861   9.147  0.2746  1.2693 -0.2770
  333MOL0     H44937   2.484   9.792   9.373 -5.5256 -1.0467  1.4791
  333MOL0     H44938   2.632   9.931   9.236  0.1352  3.1225 -1.9868
  333MOL0     H44939   2.935   9.850   8.921  1.4662  0.7976 -0.0686
  333MOL0     H44940   3.119   9.937   8.833  0.2233  0.1910 -0.8663
  333MOL0     H44941   4.757   9.466   8.903 -2.8075 -1.0314 -0.0204
  333MOL0     H44942   5.002   9.458   8.847  2.0545  0.6579 -3.9816
  333MOL0     H44943   5.337   9.191   8.630  5.4502 -1.8740  3.2907
  333MOL0     H44944   5.576   9.243   8.659  1.8472  1.3601 -0.2500
  333MOL0     H44945   5.780   9.280   8.609  0.7966  1.3385  1.7345
  333MOL0     H44946   5.776   9.361   8.446 -1.1569  0.2784  0.6661
  333MOL0     H44947   5.989   9.327   8.529  0.4041 -0.7783  1.6928
  333MOL0     H44948   5.964   9.417   8.674 -2.3125 -0.0432  0.1094
  333MOL0     H44949   5.885   9.616   8.546  0.0674 -1.9327  1.8671
  333MOL0     H44950   5.928   9.539   8.392 -0.1295  0.7943 -0.4127
  333MOL0     H44951   6.114   9.625   8.609  2.2608 -2.9582  0.6225
  333MOL0     H44952   6.098   9.691   8.437  2.0288 -1.5454 -2.4954
  333MOL0     H44953   6.357   9.357   8.383 -0.9287 -1.4669  0.9038
  333MOL0     H44954   5.528   9.634   8.542  2.6018 -0.7238 -1.2211
  333MOL0     H44955   5.283   9.606   8.503 -0.8851 -1.5623 -1.5495
  334MOL0     O44956   1.855   3.866   6.681  0.7488 -0.2478  0.2886
  334MOL0     C44957   1.779   3.795   6.739 -0.1245  0.9954  0.2287
  334MOL0     O44958   1.655   3.830   6.771 -0.0620  0.0835 -0.1590
  334MOL0     C44959   1.606   3.958   6.803 -0.7295  0.0611  0.4756
  334MOL0     C44960   1.681   4.078   6.803  0.3924 -1.0224  0.2597
  334MOL0     C44961   1.623   4.205   6.835  0.8807 -0.1637  0.1827
  334MOL0     C44962   1.479   4.203   6.852  0.5347  0.3149 -0.4786
  334MOL0     O44963   1.415   4.323   6.872  0.0326  0.0372  0.0409
  334MOL0     C44964   1.273   4.321   6.883  0.2916  0.1209  0.5151
  334MOL0     C44965   1.215   4.469   6.861 -0.4848  0.3734 -0.6696
  334MOL0     C44966   1.072   4.475   6.915  0.9032  0.2726 -0.1679
  334MOL0     C44967   0.968   4.442   6.807  0.6293  0.6817 -0.3814
  334MOL0     C44968   0.827   4.460   6.871 -0.2198 -0.0068  0.1467
  334MOL0     C44969   0.709   4.421   6.778  0.2551 -0.1705  0.8702
  334MOL0     C44970   0.564   4.451   6.826  0.0873  0.0943  0.2083
  334MOL0     C44971   0.544   4.597   6.868  0.2386  0.0960  0.8866
  334MOL0     N44972   0.404   4.637   6.867  0.6511 -0.4690 -1.0040
  334MOL0     C44973   0.362   4.771   6.883  0.2844  0.5371  0.1012
  334MOL0     C44974   0.226   4.770   6.873  0.3473  0.1442 -0.3887
  334MOL0     C44975   0.143   4.891   6.850  0.1618 -0.0688  0.3432
  334MOL0     C44976   0.087   4.887   6.704 -0.4491  0.4684  0.0516
  334MOL0     C44977  -0.026   4.987   6.666 -0.6903 -0.3025  0.0149
  334MOL0     C44978  -0.151   4.979   6.746  0.0540 -0.5797 -0.4223
  334MOL0     O44979  -0.230   4.861   6.723  0.0419  0.0727 -0.4021
  334MOL0     C44980  -0.363   4.869   6.726  0.4532  0.1511 -0.7246
  334MOL0     C44981  -0.440   4.981   6.769 -0.2608  0.4038 -0.6454
  334MOL0     C44982  -0.582   4.982   6.770 -0.4470  0.2034  0.7067
  334MOL0     C44983  -0.647   5.110   6.843  0.3362  0.8341  0.5634
  334MOL0     C44984  -0.644   4.870   6.718 -0.1542 -1.2734 -0.5847
  334MOL0     C44985  -0.800   4.856   6.710 -0.5776 -0.0277 -0.8522
  334MOL0     O44986  -0.847   4.740   6.672  0.1223 -0.1513  0.4605
  334MOL0     C44987  -0.980   4.700   6.659 -1.2063 -0.6820 -0.7611
  334MOL0     C44988  -1.084   4.771   6.717  0.6727 -0.0889 -0.1036
  334MOL0     C44989  -1.212   4.712   6.711  0.6942 -0.7180  0.5600
  334MOL0     C44990  -1.231   4.595   6.638  0.2598 -0.4211  0.7022
  334MOL0     O44991  -1.354   4.530   6.643  0.5009  0.1893  0.0843
  334MOL0     C44992  -1.430   4.548   6.522  0.4362 -0.3607 -0.1794
  334MOL0     C44993  -1.556   4.630   6.549  0.1185 -0.5491 -0.5854
  334MOL0     C44994  -1.635   4.650   6.418 -0.0835 -0.3069  0.5285
  334MOL0     C44995  -1.765   4.720   6.446 -0.0695  0.2579  0.9186
  334MOL0     C44996  -1.839   4.746   6.320 -0.4981  0.1004 -0.3841
  334MOL0     C44997  -1.964   4.839   6.328  0.5500 -0.2970 -0.8002
  334MOL0     C44998  -2.082   4.789   6.240 -0.5305 -0.2525 -0.0056
  334MOL0     C44999  -2.048   4.750   6.099 -0.0992 -0.0199 -0.8413
  334MOL0    Cl45000  -1.982   4.895   6.021 -0.3905 -0.1792  0.3303
  334MOL0     C45001  -1.125   4.541   6.568 -0.1928  0.5664 -0.5777
  334MOL0     C45002  -0.998   4.582   6.586 -0.2950 -0.6088 -0.5016
  334MOL0     O45003  -0.870   4.949   6.752 -0.2702 -0.2878  0.0012
  334MOL0     C45004  -0.561   4.769   6.662 -1.0305 -0.0059  0.2225
  334MOL0     C45005  -0.428   4.769   6.657 -0.5453 -0.2793 -0.3531
  334MOL0     N45006   0.189   4.631   6.857  0.4189 -0.2939 -0.2162
  334MOL0     N45007   0.293   4.556   6.846 -0.1825  0.4667  0.3795
  334MOL0     C45008   1.407   4.076   6.855 -0.9646 -0.2933  0.0461
  334MOL0     C45009   1.473   3.952   6.829  0.3905  0.2951 -0.3263
  334MOL0     C45010   1.812   3.651   6.779 -0.1734 -0.1360  0.2663
  334MOL0     C45011   1.725   3.568   6.857  0.2418 -0.5032  0.2194
  334MOL0     C45012   1.758   3.437   6.876  0.5689 -0.2259 -0.8289
  334MOL0     C45013   1.885   3.384   6.846 -0.0445  0.5388 -0.5834
  334MOL0     O45014   1.899   3.244   6.877  0.1744 -0.1597 -0.6562
  334MOL0     C45015   2.029   3.190   6.848 -0.3193 -0.2399 -0.3713
  334MOL0     C45016   2.055   3.081   6.952  0.5183  0.3839 -0.7390
  334MOL0     C45017   2.133   2.955   6.897 -0.7871 -0.5216 -0.0427
  334MOL0     C45018   2.284   2.985   6.867 -0.8024  0.1377  0.0588
  334MOL0     C45019   2.328   3.097   6.773  0.3005  0.5155  0.4317
  334MOL0     C45020   2.357   3.196   6.709 -0.1772 -0.2049 -0.0773
  334MOL0     C45021   1.977   3.470   6.790  0.0776 -0.0988 -0.2334
  334MOL0     C45022   1.942   3.604   6.755 -0.2492 -0.3487  0.2643
  334MOL0     H45023   1.786   4.087   6.778 -0.6561  0.4664 -4.4974
  334MOL0     H45024   1.666   4.304   6.824 -1.0716  0.7613  0.5344
  334MOL0     H45025   1.234   4.256   6.804  0.8991  0.2771  0.0747
  334MOL0     H45026   1.251   4.283   6.983  2.5013 -1.6149  0.4254
  334MOL0     H45027   1.281   4.547   6.901 -2.3612  2.3873 -1.3283
  334MOL0     H45028   1.219   4.489   6.754 -1.0919  1.4050 -0.5202
  334MOL0     H45029   1.051   4.411   7.001 -1.3491 -0.7143 -1.3607
  334MOL0     H45030   1.049   4.579   6.940 -2.4633 -0.9325  2.4353
  334MOL0     H45031   0.981   4.519   6.730 -1.3319  1.4787  0.0319
  334MOL0     H45032   0.991   4.341   6.771 -1.4489  0.2854 -0.7084
  334MOL0     H45033   0.824   4.399   6.962 -1.6995 -1.3525 -0.7478
  334MOL0     H45034   0.823   4.565   6.901  1.5659 -0.8809  4.1330
  334MOL0     H45035   0.725   4.475   6.684  0.7333  0.2346  1.1820
  334MOL0     H45036   0.717   4.312   6.766 -1.3820 -0.5163  2.6100
  334MOL0     H45037   0.502   4.431   6.737  1.6113 -2.1682 -0.4442
  334MOL0     H45038   0.541   4.374   6.900 -0.6586 -0.8188 -0.9299
  334MOL0     H45039   0.595   4.665   6.799 -1.4208 -1.0856 -1.6512
  334MOL0     H45040   0.580   4.616   6.969  2.2930 -0.8525  0.3764
  334MOL0     H45041   0.427   4.856   6.900  0.2480  0.6525 -0.3076
  334MOL0     H45042   0.057   4.901   6.917 -2.7785 -2.5661 -2.7062
  334MOL0     H45043   0.202   4.984   6.859 -1.8985  1.3438 -0.0999
  334MOL0     H45044   0.059   4.789   6.666  3.5161  0.4696 -3.7414
  334MOL0     H45045   0.164   4.913   6.631 -0.8090  4.1566  0.7745
  334MOL0     H45046  -0.043   4.962   6.561  1.0341  2.8343 -1.1505
  334MOL0     H45047   0.009   5.090   6.677  1.6897 -0.5972 -3.3233
  334MOL0     H45048  -0.205   5.071   6.723  0.5151 -0.5925 -1.5993
  334MOL0     H45049  -0.128   4.988   6.853 -1.0113  1.0553 -0.2842
  334MOL0     H45050  -0.389   5.064   6.818  0.4078 -0.7649  0.7027
  334MOL0     H45051  -0.583   5.195   6.869 -0.5428  1.4826  0.6674
  334MOL0     H45052  -0.713   5.155   6.768 -0.4156 -0.1131  0.6369
  334MOL0     H45053  -0.707   5.069   6.924  2.1614 -3.5702 -0.0618
  334MOL0     H45054  -1.075   4.860   6.779 -1.3002  0.5210 -0.6133
  334MOL0     H45055  -1.287   4.758   6.775  1.2915 -0.4394  1.0797
  334MOL0     H45056  -1.372   4.601   6.446  2.5392 -2.2983 -0.0415
  334MOL0     H45057  -1.451   4.447   6.484  1.0918 -0.4615 -0.2870
  334MOL0     H45058  -1.624   4.578   6.617  1.2924 -1.5753 -0.1773
  334MOL0     H45059  -1.530   4.729   6.587 -2.2491  1.8928 -4.5935
  334MOL0     H45060  -1.654   4.553   6.372  2.7106  0.0009 -1.5159
  334MOL0     H45061  -1.564   4.712   6.363  1.8632  0.2549  3.4382
  334MOL0     H45062  -1.828   4.638   6.483 -0.1129 -0.8895 -1.5339
  334MOL0     H45063  -1.737   4.814   6.495 -0.3827  1.6501 -1.4060
  334MOL0     H45064  -1.863   4.645   6.283  0.5100  0.3591 -1.8259
  334MOL0     H45065  -1.765   4.780   6.247  1.7792 -2.7694  0.3958
  334MOL0     H45066  -1.990   4.838   6.434  3.1872  2.5452  0.0010
  334MOL0     H45067  -1.946   4.945   6.308  0.5259  0.2620  1.8379
  334MOL0     H45068  -2.156   4.868   6.220 -0.1264  0.0507 -0.3107
  334MOL0     H45069  -2.125   4.708   6.300 -4.0271  1.7409  0.4997
  334MOL0     H45070  -2.135   4.717   6.041  1.6177 -2.0778 -2.3891
  334MOL0     H45071  -1.972   4.672   6.091  1.3704  1.2853 -0.2304
  334MOL0     H45072  -1.144   4.455   6.504  0.7561 -0.2623  0.2063
  334MOL0     H45073  -0.923   4.528   6.529  0.0894 -0.7974  0.1735
  334MOL0     H45074  -0.606   4.680   6.620 -1.2828 -0.7488  1.9421
  334MOL0     H45075  -0.369   4.684   6.624 -1.9441 -1.1600 -0.6426
  334MOL0     H45076   1.302   4.074   6.882 -0.5204 -0.7364  1.8569
  334MOL0     H45077   1.419   3.858   6.826 -1.2542  1.1373  0.8603
  334MOL0     H45078   1.630   3.610   6.889 -0.5699 -0.0178 -2.5125
  334MOL0     H45079   1.701   3.363   6.932  1.7625 -0.3250  0.3420
  334MOL0     H45080   2.010   3.149   6.749 -2.4491 -0.3136  0.0265
  334MOL0     H45081   2.113   3.260   6.845 -0.0149 -0.5785  0.0528
  334MOL0     H45082   1.961   3.042   6.990  0.4399  1.6058  0.3743
  334MOL0     H45083   2.102   3.131   7.037 -1.0558 -1.1240  1.1016
  334MOL0     H45084   2.082   2.916   6.809 -1.5402  0.4719 -0.0622
  334MOL0     H45085   2.133   2.878   6.976 -1.5288 -1.1927 -0.6788
  334MOL0     H45086   2.325   2.896   6.817  0.6034  1.0267 -0.4219
  334MOL0     H45087   2.340   2.997   6.960 -0.4844  0.7051 -0.1990
  334MOL0     H45088   2.387   3.281   6.651  1.5430 -1.2291 -0.7806
  334MOL0     H45089   2.080   3.440   6.773  1.7571  4.8620 -0.3805
  334MOL0     H45090   2.021   3.663   6.710  1.6548 -2.0537  1.2049
  335MOL0     O45091   6.874   5.233   0.252 -0.3682 -0.1489  0.4868
  335MOL0     C45092   6.926   5.232   0.362 -0.0720 -0.3332  0.8092
  335MOL0     O45093   6.924   5.327   0.458  0.4388 -0.2293 -0.3388
  335MOL0     C45094   6.844   5.436   0.440  0.6593  0.2629  0.3385
  335MOL0     C45095   6.712   5.411   0.419  0.1740  0.0421 -0.2482
  335MOL0     C45096   6.620   5.514   0.408 -0.9327 -0.1902  0.7865
  335MOL0     C45097   6.666   5.654   0.417  0.4402  0.4000  0.7609
  335MOL0     O45098   6.570   5.743   0.386  0.0982  0.6546 -0.3305
  335MOL0     C45099   6.586   5.884   0.409  0.3329 -0.3497  0.0352
  335MOL0     C45100   6.444   5.943   0.417 -0.7085 -0.3885  0.3217
  335MOL0     C45101   6.360   5.946   0.282  0.0818 -0.7281 -0.4567
  335MOL0     C45102   6.414   6.060   0.192 -0.7021 -0.3456 -0.3501
  335MOL0     C45103   6.304   6.116   0.085  0.4923  0.7951 -1.2034
  335MOL0     C45104   6.282   6.041  -0.050 -0.4704 -0.7827  0.1779
  335MOL0     C45105   6.199   6.138  -0.143 -0.0606  0.3644  0.1972
  335MOL0     C45106   6.131   6.064  -0.262  0.2116 -0.6049 -0.6165
  335MOL0     N45107   6.081   6.170  -0.355  0.0648  0.3497  0.5553
  335MOL0     C45108   5.957   6.230  -0.342 -0.7742 -0.2080  0.2060
  335MOL0     C45109   5.938   6.307  -0.454  0.8812 -0.2723  0.5720
  335MOL0     C45110   5.815   6.383  -0.489  1.0330  0.0594 -0.3651
  335MOL0     C45111   5.680   6.297  -0.515 -0.2050 -0.3082  0.3206
  335MOL0     C45112   5.565   6.390  -0.571  0.5960 -0.5947 -0.0441
  335MOL0     C45113   5.434   6.312  -0.585 -0.6973 -0.3466  0.5151
  335MOL0     O45114   5.370   6.299  -0.460  0.4119  0.0287 -0.8383
  335MOL0     C45115   5.237   6.255  -0.450  0.3138 -0.0465 -0.6122
  335MOL0     C45116   5.158   6.211  -0.561  0.3833 -0.0245  0.1978
  335MOL0     C45117   5.020   6.181  -0.548 -0.4122  0.1941 -0.4278
  335MOL0     C45118   4.940   6.139  -0.669  0.2536  0.0665 -0.4763
  335MOL0     C45119   4.959   6.196  -0.417  0.8682  0.3989  0.0905
  335MOL0     C45120   4.813   6.182  -0.388 -0.5672 -0.1357 -0.7816
  335MOL0     O45121   4.762   6.236  -0.270  0.8894 -0.4752 -0.0227
  335MOL0     C45122   4.643   6.210  -0.216 -0.4650  0.4649  0.9582
  335MOL0     C45123   4.568   6.099  -0.255 -0.3469  0.0596  0.2008
  335MOL0     C45124   4.451   6.049  -0.182 -0.6085  0.7362  0.2930
  335MOL0     C45125   4.408   6.123  -0.082 -0.3382 -0.8053 -1.4081
  335MOL0     O45126   4.307   6.082   0.001 -0.9637  0.6155  0.4967
  335MOL0     C45127   4.206   6.175   0.032  0.5674  0.2130  0.1617
  335MOL0     C45128   4.075   6.100   0.063  0.4365 -0.2301 -0.0914
  335MOL0     C45129   4.019   6.039  -0.066  0.1251 -0.3033 -0.3619
  335MOL0     C45130   3.875   5.992  -0.047 -0.3413  0.3929 -0.5928
  335MOL0     C45131   3.838   5.912  -0.184  0.8453  0.5277 -0.8091
  335MOL0     C45132   3.697   5.868  -0.166  0.2057  0.8844  0.6024
  335MOL0     C45133   3.636   5.800  -0.286  0.1431 -0.2189  1.1226
  335MOL0     C45134   3.500   5.734  -0.241 -0.8587  0.4371 -0.6745
  335MOL0    Cl45135   3.379   5.865  -0.212  0.1642 -0.0182 -0.5100
  335MOL0     C45136   4.476   6.241  -0.041 -0.3773  0.2435  0.2593
  335MOL0     C45137   4.593   6.287  -0.117 -0.9111 -0.0096 -0.3138
  335MOL0     O45138   4.745   6.126  -0.478 -0.2382  0.3460 -0.6103
  335MOL0     C45139   5.039   6.225  -0.307  0.6904 -1.1714  0.4300
  335MOL0     C45140   5.178   6.252  -0.325 -0.2302  0.2554  0.0266
  335MOL0     N45141   6.054   6.304  -0.527 -0.2738  0.2443 -0.0138
  335MOL0     N45142   6.137   6.225  -0.472  0.1194 -0.2317 -0.1580
  335MOL0     C45143   6.800   5.681   0.429 -0.3684  0.0733  0.4193
  335MOL0     C45144   6.892   5.569   0.441 -0.7241  0.1953  0.9406
  335MOL0     C45145   7.022   5.125   0.383  0.8370  0.6116  0.6305
  335MOL0     C45146   7.116   5.140   0.487  0.5448  0.1143  0.4728
  335MOL0     C45147   7.218   5.045   0.508 -0.9450 -0.7041 -0.3147
  335MOL0     C45148   7.223   4.931   0.425  0.1458 -0.6083 -0.4480
  335MOL0     O45149   7.314   4.828   0.435 -0.6475  0.5693 -0.2246
  335MOL0     C45150   7.443   4.853   0.500 -0.4108  0.0137  0.0037
  335MOL0     C45151   7.556   4.753   0.493  0.1132 -0.5574 -0.0893
  335MOL0     C45152   7.551   4.643   0.606 -0.1226  0.0817 -1.2435
  335MOL0     C45153   7.418   4.575   0.620 -0.4592  0.0328  1.6123
  335MOL0     C45154   7.400   4.490   0.489  0.1528  0.7913 -0.0997
  335MOL0     C45155   7.378   4.433   0.386 -0.0110 -0.1027 -0.3264
  335MOL0     C45156   7.127   4.916   0.325 -0.9482  1.2734  0.2224
  335MOL0     C45157   7.027   5.010   0.301 -0.5292  0.2392  0.1369
  335MOL0     H45158   6.676   5.309   0.411  0.4393 -0.0261 -0.6220
  335MOL0     H45159   6.517   5.490   0.384  0.5637 -3.8727 -3.2122
  335MOL0     H45160   6.625   5.911   0.508 -0.7540  1.0855  0.1025
  335MOL0     H45161   6.652   5.931   0.335 -0.2315 -3.1052 -2.3965
  335MOL0     H45162   6.386   5.888   0.492  2.4006 -4.2933  0.1675
  335MOL0     H45163   6.454   6.042   0.463 -1.6503 -1.4193  2.9319
  335MOL0     H45164   6.362   5.848   0.234 -1.8567 -1.1929  0.3126
  335MOL0     H45165   6.257   5.961   0.316  0.4795 -1.1605  1.0208
  335MOL0     H45166   6.448   6.145   0.253 -1.4477 -1.5198  1.8210
  335MOL0     H45167   6.504   6.020   0.145  1.5423  0.6128  2.7822
  335MOL0     H45168   6.210   6.126   0.140  0.4358 -0.6764 -0.9957
  335MOL0     H45169   6.339   6.218   0.071 -0.2909  1.6490  2.1753
  335MOL0     H45170   6.371   6.001  -0.101 -0.8540 -0.2368 -0.9687
  335MOL0     H45171   6.218   5.955  -0.033 -1.8149  0.3944  1.2233
  335MOL0     H45172   6.128   6.197  -0.084  2.7715  2.3310  1.8750
  335MOL0     H45173   6.260   6.217  -0.188 -1.7476  1.1679 -0.8042
  335MOL0     H45174   6.046   6.005  -0.226 -0.5896  0.8923  0.0710
  335MOL0     H45175   6.203   5.996  -0.308  0.7380  0.2157 -1.0277
  335MOL0     H45176   5.886   6.208  -0.263 -1.7791 -2.9796 -1.3095
  335MOL0     H45177   5.806   6.462  -0.413  2.8599 -1.5372  1.6613
  335MOL0     H45178   5.830   6.449  -0.575 -0.3362  3.4335  1.7397
  335MOL0     H45179   5.653   6.256  -0.418  2.0885 -0.7383  0.8325
  335MOL0     H45180   5.705   6.214  -0.582  1.6766 -0.5325  1.2385
  335MOL0     H45181   5.602   6.427  -0.666  1.5371 -2.0046 -0.2681
  335MOL0     H45182   5.545   6.471  -0.500  2.3740 -0.4349  0.3199
  335MOL0     H45183   5.452   6.210  -0.621  1.4826 -0.5111  1.8400
  335MOL0     H45184   5.379   6.376  -0.654 -1.0840  0.9544  1.9767
  335MOL0     H45185   5.218   6.209  -0.652 -0.6241  0.0398 -0.4856
  335MOL0     H45186   4.849   6.198  -0.679 -0.0124 -0.4504 -1.1994
  335MOL0     H45187   4.999   6.152  -0.760 -1.6153 -1.3054 -1.9665
  335MOL0     H45188   4.906   6.036  -0.656 -0.1418  0.3767  1.2675
  335MOL0     H45189   4.591   6.027  -0.333  2.3796 -0.9523  1.8164
  335MOL0     H45190   4.392   5.961  -0.207 -1.9125  1.9709 -1.2203
  335MOL0     H45191   4.246   6.231   0.117  0.5276  2.0866 -1.0145
  335MOL0     H45192   4.172   6.246  -0.043 -4.1932  0.0127  1.8189
  335MOL0     H45193   4.095   6.031   0.145 -0.7904 -0.1932  0.2489
  335MOL0     H45194   4.016   6.189   0.088  3.1904  1.5542  0.6151
  335MOL0     H45195   4.084   5.952  -0.084  2.1979  1.3511 -1.3369
  335MOL0     H45196   4.019   6.102  -0.155 -2.0550  0.6677  0.2721
  335MOL0     H45197   3.854   5.931   0.041 -0.3045  1.4864  0.2008
  335MOL0     H45198   3.814   6.078  -0.017  0.2874  0.1943  1.3980
  335MOL0     H45199   3.890   5.819  -0.206  0.6783  0.1604  0.2930
  335MOL0     H45200   3.838   5.985  -0.265  0.2423  0.9807 -0.4137
  335MOL0     H45201   3.702   5.791  -0.088  0.3618  1.5286  1.2393
  335MOL0     H45202   3.633   5.945  -0.122  1.6000  1.6141  1.4292
  335MOL0     H45203   3.711   5.728  -0.321 -0.7018 -1.0926  1.0432
  335MOL0     H45204   3.614   5.863  -0.373  2.4361  0.4390  0.9394
  335MOL0     H45205   3.520   5.677  -0.151  0.6351 -0.8200 -1.7509
  335MOL0     H45206   3.463   5.661  -0.314 -3.6130 -2.6417  3.3498
  335MOL0     H45207   4.453   6.301   0.045  1.1353 -1.1016  1.6788
  335MOL0     H45208   4.641   6.375  -0.074  0.0534 -1.8284  2.5988
  335MOL0     H45209   4.989   6.238  -0.212 -1.7895 -0.7933 -0.8554
  335MOL0     H45210   5.233   6.292  -0.240  0.2233  2.4080 -1.2096
  335MOL0     H45211   6.819   5.787   0.436 -0.0911 -0.0876  3.8082
  335MOL0     H45212   6.998   5.590   0.448 -0.9485  1.5466  0.4820
  335MOL0     H45213   7.118   5.234   0.542  1.0294  0.8204 -0.7208
  335MOL0     H45214   7.290   5.060   0.587  0.2951 -2.0445 -1.1557
  335MOL0     H45215   7.485   4.949   0.471  0.1974 -0.0164  0.7661
  335MOL0     H45216   7.419   4.866   0.606 -0.7602 -1.4152  0.1257
  335MOL0     H45217   7.656   4.797   0.495 -0.2053  0.2164 -0.6559
  335MOL0     H45218   7.559   4.706   0.394  0.4923  3.2568 -2.0764
  335MOL0     H45219   7.557   4.695   0.702 -6.4991 -3.8284  1.9880
  335MOL0     H45220   7.632   4.571   0.599 -0.1973 -0.3068  1.2116
  335MOL0     H45221   7.337   4.646   0.638  0.2652  2.0580 -2.0911
  335MOL0     H45222   7.417   4.503   0.702  1.8544 -0.8340  0.9788
  335MOL0     H45223   7.353   4.392   0.290  0.4258  0.0021 -0.4873
  335MOL0     H45224   7.130   4.829   0.261 -3.2278  1.0032  0.3879
  335MOL0     H45225   6.964   4.997   0.214  0.6154  0.2645 -0.7170
  336MOL0     O45226   9.262   8.792   1.364 -0.0903 -0.6253 -0.1081
  336MOL0     C45227   9.354   8.877   1.355  0.4864 -0.5317 -0.2196
  336MOL0     O45228   9.339   8.997   1.287  0.0935 -0.3199 -1.1693
  336MOL0     C45229   9.216   9.017   1.226 -0.0674  0.5643  0.1091
  336MOL0     C45230   9.090   9.009   1.295  0.2684  0.8800  0.6220
  336MOL0     C45231   8.973   9.048   1.228  0.4477  0.0620  0.4917
  336MOL0     C45232   8.977   9.107   1.102 -0.0657  0.6758 -0.2640
  336MOL0     O45233   8.867   9.148   1.026  0.0481 -0.0291 -0.2977
  336MOL0     C45234   8.779   9.226   1.104  0.6136 -0.0069 -0.0633
  336MOL0     C45235   8.657   9.268   1.014  0.3382  0.5674 -0.0965
  336MOL0     C45236   8.534   9.294   1.104  0.8134 -0.5842  0.4244
  336MOL0     C45237   8.414   9.342   1.026 -0.1981  0.1653  0.8301
  336MOL0     C45238   8.298   9.366   1.121  0.0541  1.0110  0.0808
  336MOL0     C45239   8.169   9.370   1.041 -0.0982  0.5718 -0.8166
  336MOL0     C45240   8.054   9.403   1.135 -0.4145  0.0956 -0.1132
  336MOL0     C45241   7.908   9.407   1.082 -0.3299  0.2878 -0.2290
  336MOL0     N45242   7.885   9.532   1.009  0.2131  0.6874  0.6235
  336MOL0     C45243   7.787   9.527   0.912 -0.3248  0.9315 -0.3319
  336MOL0     C45244   7.796   9.649   0.849 -0.0624 -0.4271 -0.1172
  336MOL0     C45245   7.685   9.689   0.759  0.1781 -0.7824 -0.3410
  336MOL0     C45246   7.567   9.740   0.836 -0.7574  0.0910  0.3653
  336MOL0     C45247   7.588   9.872   0.912 -0.4159 -0.4788 -0.0622
  336MOL0     C45248   7.462   9.933   0.967  0.1777 -0.1223  0.6091
  336MOL0     O45249   7.378   9.999   0.866 -0.1137  0.6498 -0.3050
  336MOL0     C45250   7.252  10.038   0.916  0.6069 -0.5856 -1.0683
  336MOL0     C45251   7.194   9.998   1.040 -0.4473  0.8121  0.1653
  336MOL0     C45252   7.065  10.038   1.077 -0.6518  0.2854 -0.0124
  336MOL0     C45253   7.025   9.982   1.210  0.2383  0.9980  1.3600
  336MOL0     C45254   6.980  10.114   0.995  0.0898 -0.7901 -0.7174
  336MOL0     C45255   6.836  10.147   1.017 -0.3867 -0.0358  0.3529
  336MOL0     O45256   6.803  10.273   0.989  0.1805 -0.1090 -0.5196
  336MOL0     C45257   6.666  10.300   0.984 -0.2616  0.1531 -0.3651
  336MOL0     C45258   6.612  10.374   1.086  0.1911 -0.4473 -0.5633
  336MOL0     C45259   6.474  10.401   1.093 -0.1994 -0.1560  0.0098
  336MOL0     C45260   6.383  10.364   0.991 -0.4075 -0.1776  0.1855
  336MOL0     O45261   6.242  10.368   0.987  0.0560 -0.1588  0.2423
  336MOL0     C45262   6.179  10.451   1.087  0.3602  0.2532 -0.1133
  336MOL0     C45263   6.032  10.409   1.103  0.2927  0.1046 -0.0596
  336MOL0     C45264   5.939  10.489   1.007  0.1500 -0.3653  0.7667
  336MOL0     C45265   5.846  10.581   1.082 -0.6525 -0.6185 -0.3156
  336MOL0     C45266   5.751  10.660   0.998 -0.8811 -0.0177  0.3952
  336MOL0     C45267   5.658  10.756   1.080 -0.2479 -0.1517 -0.3733
  336MOL0     C45268   5.560  10.811   0.966  0.3117 -0.4115 -0.0811
  336MOL0     C45269   5.466  10.919   1.007  0.0843 -0.2268  0.0222
  336MOL0    Cl45270   5.383  10.878   1.149  0.5922  0.1772 -0.4659
  336MOL0     C45271   6.443  10.299   0.881  0.1258 -1.0732  0.9096
  336MOL0     C45272   6.576  10.265   0.875 -0.2215  0.1067 -0.5534
  336MOL0     O45273   6.764  10.058   1.064 -0.7914 -0.3809  0.0996
  336MOL0     C45274   7.031  10.144   0.868  0.5370  0.1657  0.2467
  336MOL0     C45275   7.170  10.118   0.834  0.5467  0.6313 -1.1426
  336MOL0     N45276   7.910   9.715   0.899 -0.6363  0.4678 -0.2750
  336MOL0     N45277   7.958   9.646   1.002  0.3116  0.4168 -0.3006
  336MOL0     C45278   9.101   9.116   1.041 -0.5071  0.2265  0.0747
  336MOL0     C45279   9.220   9.065   1.094 -0.5352 -0.5866 -0.0647
  336MOL0     C45280   9.500   8.842   1.390  0.4586  0.7679 -0.2486
  336MOL0     C45281   9.604   8.930   1.378 -0.7987 -0.4664  0.6633
  336MOL0     C45282   9.724   8.914   1.452  0.7250 -0.4248 -0.1911
  336MOL0     C45283   9.753   8.801   1.516 -0.7869 -0.1327 -0.4887
  336MOL0     O45284   9.880   8.784   1.572 -0.1410 -0.5249 -0.6890
  336MOL0     C45285   9.935   8.643   1.580  0.8684 -0.4786 -0.6400
  336MOL0     C45286   9.932   8.563   1.446 -0.8408 -0.4392  0.1987
  336MOL0     C45287   9.984   8.650   1.332  0.9760 -0.1368  0.7291
  336MOL0     C45288   9.983   8.574   1.199 -0.1814 -0.3863 -0.3973
  336MOL0     C45289  10.042   8.654   1.089  0.7116  0.4841  1.2933
  336MOL0     C45290  10.102   8.715   1.006 -0.1544 -0.4586  0.8345
  336MOL0     C45291   9.659   8.706   1.515  0.3815  0.4257 -0.1665
  336MOL0     C45292   9.526   8.721   1.456 -0.9220 -0.9433 -0.4763
  336MOL0     H45293   9.086   8.972   1.397  1.5683 -0.3183  0.2622
  336MOL0     H45294   8.883   9.029   1.286 -0.1733 -0.0644 -0.4953
  336MOL0     H45295   8.732   9.165   1.183 -1.4595 -0.5458 -1.6090
  336MOL0     H45296   8.830   9.308   1.154 -1.3662  0.5362  1.2040
  336MOL0     H45297   8.677   9.358   0.955  2.7675  1.0150  1.2748
  336MOL0     H45298   8.636   9.183   0.949 -1.6938  2.0255 -1.4523
  336MOL0     H45299   8.499   9.201   1.149  1.6788 -1.2526 -0.2752
  336MOL0     H45300   8.549   9.366   1.185 -0.5828  2.3213 -1.7139
  336MOL0     H45301   8.440   9.430   0.966  1.2165 -0.7747  0.0389
  336MOL0     H45302   8.391   9.266   0.952  1.3354 -0.1593  0.6705
  336MOL0     H45303   8.290   9.284   1.194 -0.1612  0.5859 -0.4172
  336MOL0     H45304   8.313   9.459   1.176  1.2498  0.1961  1.1957
  336MOL0     H45305   8.184   9.435   0.954  1.7486 -0.1373 -1.0707
  336MOL0     H45306   8.148   9.270   1.003 -0.9379  0.5471 -0.3070
  336MOL0     H45307   8.055   9.338   1.223  0.8064 -0.2998 -0.4064
  336MOL0     H45308   8.072   9.501   1.180 -1.0279 -0.2930  1.0452
  336MOL0     H45309   7.836   9.395   1.165  1.3116 -1.2236  1.0550
  336MOL0     H45310   7.897   9.327   1.009  2.1360  0.8565 -1.3163
  336MOL0     H45311   7.722   9.442   0.899 -0.4809  0.9437  0.3465
  336MOL0     H45312   7.718   9.767   0.690 -1.4909 -0.9262 -1.3492
  336MOL0     H45313   7.660   9.602   0.697  2.0783 -0.1238 -2.1469
  336MOL0     H45314   7.536   9.669   0.914  0.8663 -1.1341 -0.0505
  336MOL0     H45315   7.485   9.746   0.764 -1.9825  0.6324  1.7429
  336MOL0     H45316   7.638   9.950   0.854  0.1692 -0.2665  0.7095
  336MOL0     H45317   7.644   9.853   1.004 -1.6584 -1.7084  0.4787
  336MOL0     H45318   7.497  10.007   1.040  3.2116 -2.5231  1.8443
  336MOL0     H45319   7.414   9.846   1.013  0.0359 -1.2794 -1.6186
  336MOL0     H45320   7.246   9.927   1.103 -2.6941  0.0818  1.3014
  336MOL0     H45321   6.939   9.914   1.209  1.0819 -0.1357 -0.6782
  336MOL0     H45322   7.114   9.942   1.259  0.1973 -1.4013 -0.3117
  336MOL0     H45323   6.982  10.064   1.269 -1.0299  0.5819  1.0603
  336MOL0     H45324   6.675  10.413   1.166  0.4036 -0.4441 -0.7294
  336MOL0     H45325   6.440  10.473   1.168 -0.3265  1.4348 -1.5193
  336MOL0     H45326   6.228  10.437   1.184  0.8193  0.2533 -0.3409
  336MOL0     H45327   6.179  10.556   1.057 -2.7533  0.0850 -1.0249
  336MOL0     H45328   6.023  10.307   1.063  2.7842  0.7150 -2.5687
  336MOL0     H45329   6.000  10.419   1.207 -0.8992  0.2508 -0.4302
  336MOL0     H45330   5.874  10.421   0.952 -1.4831  1.6609  0.0485
  336MOL0     H45331   5.990  10.552   0.933 -0.1383  2.5343  2.8588
  336MOL0     H45332   5.795  10.515   1.153  0.3608 -1.7212 -0.5774
  336MOL0     H45333   5.917  10.643   1.137  0.6869 -2.4849  0.1900
  336MOL0     H45334   5.685  10.589   0.947 -0.7805  0.4403 -0.3812
  336MOL0     H45335   5.792  10.718   0.915 -0.5342 -0.2347  0.4117
  336MOL0     H45336   5.595  10.704   1.153  1.3243 -0.1809  1.0386
  336MOL0     H45337   5.719  10.834   1.126 -2.0431  0.4099  1.1697
  336MOL0     H45338   5.489  10.729   0.948 -2.3715  1.8985 -0.6956
  336MOL0     H45339   5.612  10.839   0.874  1.0834 -0.3958  0.3496
  336MOL0     H45340   5.396  10.944   0.926  0.7449 -3.1195 -1.5531
  336MOL0     H45341   5.527  11.006   1.034  1.2930  0.0538 -3.1414
  336MOL0     H45342   6.385  10.259   0.799  0.4101 -2.8732  1.5413
  336MOL0     H45343   6.598  10.199   0.792 -0.7397  0.5601 -1.0661
  336MOL0     H45344   6.970  10.193   0.794  0.7542 -1.0181 -0.7514
  336MOL0     H45345   7.193  10.156   0.735 -1.0736  1.5761 -1.1938
  336MOL0     H45346   9.108   9.185   0.958  1.3694  1.9416  1.5578
  336MOL0     H45347   9.315   9.071   1.042  1.6268  5.3179  3.5057
  336MOL0     H45348   9.592   9.020   1.318 -0.0711 -0.9382 -0.2156
  336MOL0     H45349   9.802   8.988   1.439  2.6853 -2.3719 -0.0943
  336MOL0     H45350  10.034   8.643   1.627  0.2397  0.4737  0.7653
  336MOL0     H45351   9.869   8.590   1.649 -0.4851  1.8528 -0.0098
  336MOL0     H45352   9.829   8.532   1.427 -1.2333  0.6555  0.4524
  336MOL0     H45353   9.996   8.475   1.458  0.9949  1.0319  2.2116
  336MOL0     H45354  10.085   8.682   1.356  1.0685 -2.2840  3.8063
  336MOL0     H45355   9.929   8.745   1.329  0.7769 -0.2638  0.3178
  336MOL0     H45356   9.888   8.529   1.169  0.3764 -1.2081 -0.9764
  336MOL0     H45357  10.048   8.489   1.222 -2.9467 -2.3598  0.5703
  336MOL0     H45358  10.171   8.769   0.944  0.0709 -0.5719  0.9836
  336MOL0     H45359   9.674   8.613   1.570  2.4443  1.2078  0.6591
  336MOL0     H45360   9.452   8.642   1.467 -1.4297 -0.4847 -0.5778
  337MOL0     O45361   4.430   9.115  10.768  0.4185 -0.6334 -0.0410
  337MOL0     C45362   4.432   9.026  10.846  0.4456  0.3139 -0.2482
  337MOL0     O45363   4.320   8.960  10.890 -0.7266 -0.1068 -0.4386
  337MOL0     C45364   4.186   9.004  10.876 -0.2114 -0.2305 -0.0773
  337MOL0     C45365   4.081   8.907  10.880 -0.4806 -0.3996 -0.2187
  337MOL0     C45366   3.950   8.955  10.866  0.3004 -0.1154 -0.9522
  337MOL0     C45367   3.913   9.092  10.872 -0.2063  0.3086  0.2952
  337MOL0     O45368   3.784   9.138  10.879 -0.6088 -0.6860  0.2007
  337MOL0     C45369   3.675   9.044  10.914 -0.7369  0.5800 -0.0388
  337MOL0     C45370   3.542   9.119  10.952 -0.1558  0.3120  0.2401
  337MOL0     C45371   3.432   9.019  10.993  0.4052  0.6611 -0.0885
  337MOL0     C45372   3.312   9.099  11.041  0.3572 -0.1310  0.2271
  337MOL0     C45373   3.182   9.012  11.056 -0.2304  0.8042  0.5654
  337MOL0     C45374   3.074   9.113  11.088 -0.2415 -0.7367  0.3086
  337MOL0     C45375   2.951   9.048  11.130 -0.3619  0.6073  0.3419
  337MOL0     C45376   2.862   9.131  11.221 -0.0507  0.0747  0.4853
  337MOL0     N45377   2.729   9.077  11.251  0.1593 -0.2272  0.2560
  337MOL0     C45378   2.678   9.056  11.370  0.4756 -0.3953  0.1968
  337MOL0     C45379   2.563   8.991  11.351  0.0016  0.1522  0.7993
  337MOL0     C45380   2.481   8.943  11.475 -0.3474 -0.6436  0.2414
  337MOL0     C45381   2.353   8.882  11.429  0.2946 -0.3049  0.1414
  337MOL0     C45382   2.371   8.743  11.373  1.0248  0.6852  0.3107
  337MOL0     C45383   2.250   8.708  11.292 -0.4299 -1.3065 -0.0848
  337MOL0     O45384   2.134   8.719  11.369  0.0674 -0.1898  0.7182
  337MOL0     C45385   2.023   8.661  11.321 -0.1732  0.3216  0.0723
  337MOL0     C45386   1.910   8.668  11.396 -0.2823  0.1886 -0.8195
  337MOL0     C45387   1.784   8.628  11.356  0.7856  0.2298 -0.4153
  337MOL0     C45388   1.677   8.662  11.450  0.9074  0.5130 -0.0666
  337MOL0     C45389   1.766   8.572  11.229  0.6836  0.4290  0.0967
  337MOL0     C45390   1.641   8.513  11.178 -1.2786 -0.3554  0.3197
  337MOL0     O45391   1.653   8.412  11.090  0.0258  0.5590  0.8050
  337MOL0     C45392   1.553   8.352  11.015 -0.2366 -0.4010  0.4652
  337MOL0     C45393   1.431   8.317  11.066  0.8367 -0.3415  0.2545
  337MOL0     C45394   1.345   8.233  10.991  0.1515  0.3351  0.4418
  337MOL0     C45395   1.380   8.203  10.858  0.4646  0.7899  1.8214
  337MOL0     O45396   1.292   8.121  10.787  0.0285 -0.0185  0.3757
  337MOL0     C45397   1.337   8.031  10.682 -0.0714 -0.2287  0.6172
  337MOL0     C45398   1.231   7.928  10.646 -0.1970 -0.3344 -0.1926
  337MOL0     C45399   1.280   7.831  10.543 -0.7664  0.0910 -0.2812
  337MOL0     C45400   1.202   7.700  10.547 -0.0519  0.9785  0.8404
  337MOL0     C45401   1.053   7.711  10.590  0.1084  0.7928 -0.1745
  337MOL0     C45402   0.973   7.794  10.491  0.4777  0.4776 -0.0646
  337MOL0     C45403   0.826   7.798  10.535 -0.5830 -0.8366  0.1423
  337MOL0     C45404   0.727   7.868  10.434 -0.3205  0.4599 -0.6283
  337MOL0    Cl45405   0.723   7.774  10.288  0.0495 -0.0912  0.4282
  337MOL0     C45406   1.501   8.255  10.807  0.1258 -0.0370 -0.1023
  337MOL0     C45407   1.586   8.332  10.884  0.3160  0.2279 -0.1627
  337MOL0     O45408   1.534   8.560  11.218 -0.0023  0.2539 -0.0719
  337MOL0     C45409   1.881   8.568  11.148  0.3603  0.0394 -0.7432
  337MOL0     C45410   2.013   8.602  11.190  0.6971  0.1858  0.5143
  337MOL0     N45411   2.551   8.966  11.214  0.1529 -0.2099 -0.0702
  337MOL0     N45412   2.651   9.016  11.157 -0.4555  0.4922 -0.3748
  337MOL0     C45413   4.019   9.184  10.879 -1.5628  0.5624  0.1438
  337MOL0     C45414   4.154   9.139  10.871 -0.2674 -0.4015 -1.2122
  337MOL0     C45415   4.558   8.975  10.899  0.3598  0.5744  0.5030
  337MOL0     C45416   4.683   9.027  10.860 -0.4843 -0.2596 -0.0956
  337MOL0     C45417   4.800   8.971  10.911  1.0165 -0.5599  0.8798
  337MOL0     C45418   4.805   8.871  10.998  0.4357  0.4035  0.4625
  337MOL0     O45419   4.940   8.836  11.036  0.3794 -0.1485  0.4056
  337MOL0     C45420   4.952   8.719  11.114 -0.0988  0.2135  0.6128
  337MOL0     C45421   5.102   8.672  11.113 -0.0647 -0.2804  0.2941
  337MOL0     C45422   5.193   8.768  11.186 -0.4267  0.3412 -0.9274
  337MOL0     C45423   5.344   8.723  11.173  0.0288  0.3730 -1.4203
  337MOL0     C45424   5.436   8.826  11.226 -0.1706  0.6847 -0.8967
  337MOL0     C45425   5.507   8.909  11.278  0.2637  0.5424  0.2205
  337MOL0     C45426   4.681   8.820  11.038 -0.7393  0.3639 -0.3231
  337MOL0     C45427   4.559   8.868  10.989  0.8097  0.0054  0.1028
  337MOL0     H45428   4.112   8.803  10.874  1.2373  0.1488 -1.8552
  337MOL0     H45429   3.864   8.890  10.877 -0.6340  1.3640  1.1691
  337MOL0     H45430   3.654   8.963  10.844 -0.0788 -0.6519  1.1529
  337MOL0     H45431   3.705   8.993  11.005 -1.9844 -0.6327 -0.2689
  337MOL0     H45432   3.571   9.181  11.037  1.6801 -1.2248  0.8138
  337MOL0     H45433   3.513   9.183  10.868  1.7968 -1.1943 -1.7164
  337MOL0     H45434   3.406   8.961  10.904 -2.5390  0.3800  0.8304
  337MOL0     H45435   3.468   8.952  11.071  0.9073 -1.1215 -1.7725
  337MOL0     H45436   3.345   9.137  11.138  2.8080 -2.1279  0.3089
  337MOL0     H45437   3.281   9.167  10.961  2.5631  0.0249 -0.5842
  337MOL0     H45438   3.153   8.960  10.964 -0.2153 -0.1692  1.0934
  337MOL0     H45439   3.191   8.933  11.131  0.6785 -0.5537 -0.8953
  337MOL0     H45440   3.099   9.168  11.179 -3.0276  0.0074  0.7070
  337MOL0     H45441   3.052   9.184  11.009 -1.5590 -0.6873  0.7012
  337MOL0     H45442   2.896   9.023  11.040  0.4493  1.2848 -0.3606
  337MOL0     H45443   2.974   8.959  11.190  1.9357  1.5330  0.9359
  337MOL0     H45444   2.846   9.227  11.171  1.3927  0.3394  0.5159
  337MOL0     H45445   2.926   9.155  11.306  0.0170  2.7222 -0.2148
  337MOL0     H45446   2.727   9.077  11.465  0.7502 -1.8399  0.3883
  337MOL0     H45447   2.547   8.881  11.536  0.4929  1.8791  2.0843
  337MOL0     H45448   2.459   9.030  11.537 -3.5481 -2.3140  1.6698
  337MOL0     H45449   2.303   8.933  11.347 -0.6356 -0.6509  0.4761
  337MOL0     H45450   2.290   8.869  11.518  0.6380 -2.1871  0.1669
  337MOL0     H45451   2.377   8.666  11.450 -1.6959  0.1478  0.0913
  337MOL0     H45452   2.465   8.726  11.319  1.0861 -3.7786  1.4204
  337MOL0     H45453   2.260   8.606  11.255 -2.8229 -1.7570  0.3290
  337MOL0     H45454   2.238   8.786  11.216 -1.8705  1.2465  2.5304
  337MOL0     H45455   1.921   8.704  11.498 -1.1890  0.4405 -0.8016
  337MOL0     H45456   1.651   8.572  11.506  2.0778  0.1246 -0.1032
  337MOL0     H45457   1.708   8.729  11.530 -2.1896  1.2003  0.6689
  337MOL0     H45458   1.584   8.706  11.413  1.1284 -0.4682 -1.9253
  337MOL0     H45459   1.408   8.371  11.157  3.0142  1.4512 -0.1673
  337MOL0     H45460   1.247   8.209  11.033  0.4437 -0.9908  0.4332
  337MOL0     H45461   1.360   8.086  10.590  1.4719 -2.0847 -0.1701
  337MOL0     H45462   1.433   7.984  10.707  0.8436  0.2136 -1.7509
  337MOL0     H45463   1.208   7.883  10.743 -2.0996  0.4469 -0.2315
  337MOL0     H45464   1.141   7.984  10.619 -1.0117 -1.1792  0.6881
  337MOL0     H45465   1.383   7.805  10.568 -0.5469  0.1944 -1.0492
  337MOL0     H45466   1.270   7.881  10.446  0.5010  1.6168  0.3247
  337MOL0     H45467   1.208   7.656  10.447 -1.1453  1.7372  0.4216
  337MOL0     H45468   1.251   7.634  10.618 -0.1435  0.2730  0.2583
  337MOL0     H45469   1.028   7.736  10.693  1.6482  0.5061  0.2900
  337MOL0     H45470   1.019   7.607  10.592  2.4948 -0.2067 -3.2806
  337MOL0     H45471   1.001   7.900  10.502 -0.5870  0.6660  1.1631
  337MOL0     H45472   0.985   7.757  10.389  0.2642  1.4232 -0.4435
  337MOL0     H45473   0.839   7.857  10.626  1.7259  1.4416 -1.5062
  337MOL0     H45474   0.798   7.696  10.563  2.8725 -1.7880  0.5696
  337MOL0     H45475   0.764   7.971  10.425  1.7435 -0.2200 -0.4551
  337MOL0     H45476   0.625   7.873  10.473 -1.5031 -4.0793 -2.5249
  337MOL0     H45477   1.529   8.233  10.704 -0.7140  2.1637 -0.8734
  337MOL0     H45478   1.675   8.376  10.840 -1.2757  2.3372 -1.4735
  337MOL0     H45479   1.864   8.522  11.052  1.2026  0.0104 -0.8795
  337MOL0     H45480   2.093   8.593  11.117  1.3621  1.2644  1.0953
  337MOL0     H45481   4.011   9.293  10.876 -0.6985  0.6311 -2.1432
  337MOL0     H45482   4.234   9.212  10.862 -0.7724  0.5507  1.1782
  337MOL0     H45483   4.695   9.104  10.785  3.0743 -0.5348  0.0288
  337MOL0     H45484   4.895   9.009  10.876  0.5843 -0.6491 -0.4484
  337MOL0     H45485   4.917   8.741  11.216  2.3997 -1.5408  1.9492
  337MOL0     H45486   4.893   8.641  11.065  0.2249  0.0067  0.5468
  337MOL0     H45487   5.150   8.666  11.015  2.3011 -1.1878  1.4218
  337MOL0     H45488   5.105   8.574  11.162  1.6498  0.1734  1.2027
  337MOL0     H45489   5.160   8.759  11.290  1.2161  1.9592 -0.2106
  337MOL0     H45490   5.181   8.874  11.163 -1.0842  0.3179 -0.7079
  337MOL0     H45491   5.374   8.711  11.069  0.7410  0.7133 -1.2629
  337MOL0     H45492   5.361   8.627  11.222 -0.6482  1.1031  0.3425
  337MOL0     H45493   5.584   8.973  11.315  3.1294 -2.4888 -0.0696
  337MOL0     H45494   4.684   8.740  11.111 -0.8085 -0.4106 -1.1405
  337MOL0     H45495   4.465   8.820  11.015 -0.1983  1.6500 -0.4123
  338MOL0     O45496   5.117   4.337  10.834 -0.2584 -0.5929  0.4023
  338MOL0     C45497   5.101   4.234  10.775 -0.0480  0.5132  0.1904
  338MOL0     O45498   4.984   4.172  10.742  0.2462 -0.1457  0.3150
  338MOL0     C45499   4.857   4.227  10.736  0.0420  0.2768 -0.4873
  338MOL0     C45500   4.762   4.135  10.686 -0.2175 -0.6238  0.0161
  338MOL0     C45501   4.639   4.186  10.656 -0.7352  0.6845  0.3305
  338MOL0     C45502   4.605   4.321  10.668 -0.5810 -0.0062  0.0973
  338MOL0     O45503   4.485   4.372  10.641  0.1382  0.2618  0.4447
  338MOL0     C45504   4.364   4.306  10.676  0.3021  0.3694  0.2068
  338MOL0     C45505   4.252   4.410  10.694 -0.2147  0.1498 -1.1630
  338MOL0     C45506   4.173   4.374  10.830  0.0671  0.1148 -0.0204
  338MOL0     C45507   4.067   4.270  10.806 -0.2500 -0.0571  0.5209
  338MOL0     C45508   4.125   4.127  10.811 -0.4715 -0.3571 -0.6669
  338MOL0     C45509   4.015   4.024  10.792 -0.1222  0.6003  0.4771
  338MOL0     C45510   4.047   3.879  10.825  0.0713  0.0152 -0.3672
  338MOL0     C45511   3.929   3.781  10.789  0.5657  0.8911 -0.6928
  338MOL0     N45512   3.821   3.780  10.883  0.4159 -0.0811 -0.2226
  338MOL0     C45513   3.825   3.763  11.018  0.2527  0.1601  0.4825
  338MOL0     C45514   3.693   3.752  11.056 -0.4073  0.6742 -0.6101
  338MOL0     C45515   3.647   3.720  11.192 -0.5849  0.9239  0.6830
  338MOL0     C45516   3.507   3.776  11.228 -0.2771  0.5753  0.3712
  338MOL0     C45517   3.467   3.752  11.371 -0.7852 -0.4159  0.7138
  338MOL0     C45518   3.318   3.783  11.394  0.5505  0.8594  0.1596
  338MOL0     O45519   3.288   3.782  11.533 -0.3256  0.5864 -0.0231
  338MOL0     C45520   3.159   3.778  11.567 -0.3941 -0.4022  0.9079
  338MOL0     C45521   3.134   3.709  11.685  0.3735 -0.2649 -0.4080
  338MOL0     C45522   3.013   3.715  11.745  0.1389 -0.2217  0.0751
  338MOL0     C45523   2.995   3.634  11.868 -0.5480 -0.7182 -0.7194
  338MOL0     C45524   2.904   3.784  11.679 -0.7038 -1.3731 -0.1418
  338MOL0     C45525   2.760   3.800  11.733 -0.7095  0.0122 -0.0662
  338MOL0     O45526   2.681   3.888  11.672 -0.6225  0.2925 -0.3425
  338MOL0     C45527   2.553   3.900  11.711  1.1390  0.7589  0.1129
  338MOL0     C45528   2.516   4.034  11.746 -0.0509 -0.1388 -0.2035
  338MOL0     C45529   2.393   4.070  11.797 -1.0101 -0.2781  0.7317
  338MOL0     C45530   2.298   3.968  11.816 -0.2442 -0.1799  0.4969
  338MOL0     O45531   2.178   3.995  11.872 -0.7021  0.2966 -0.2243
  338MOL0     C45532   2.101   4.106  11.831 -0.8304 -0.9156  0.4715
  338MOL0     C45533   2.092   4.224  11.930 -0.0865  0.5025 -0.3273
  338MOL0     C45534   2.041   4.172  12.062  0.7511  0.1553 -1.4509
  338MOL0     C45535   2.052   4.272  12.178  0.4566 -0.1633 -0.0096
  338MOL0     C45536   2.008   4.209  12.317 -0.5590  0.5404  0.4778
  338MOL0     C45537   1.863   4.176  12.331  0.4760 -0.0511  0.4516
  338MOL0     C45538   1.779   4.294  12.351 -0.0571 -0.0338  0.0536
  338MOL0     C45539   1.640   4.232  12.396 -0.6623 -0.3420  0.7248
  338MOL0    Cl45540   1.551   4.163  12.266  0.4951  0.5919 -0.3993
  338MOL0     C45541   2.332   3.831  11.786 -0.2099 -0.3407  1.1028
  338MOL0     C45542   2.454   3.804  11.729  0.1457 -0.3673 -0.2215
  338MOL0     O45543   2.724   3.706  11.801  0.0092 -0.4794  0.0245
  338MOL0     C45544   2.922   3.851  11.555  0.7457 -0.7221 -0.2017
  338MOL0     C45545   3.058   3.854  11.503  0.3115  0.8780  0.9014
  338MOL0     N45546   3.608   3.766  10.943  0.2286 -0.5287 -0.8779
  338MOL0     N45547   3.686   3.783  10.848 -0.2510  0.7026 -0.1480
  338MOL0     C45548   4.690   4.406  10.722 -0.2151  0.1018  0.1172
  338MOL0     C45549   4.819   4.364  10.753  0.3470 -1.0207 -0.2389
  338MOL0     C45550   5.216   4.148  10.780  0.4726 -0.8702  0.8784
  338MOL0     C45551   5.334   4.185  10.858  0.5904  0.1491  0.0633
  338MOL0     C45552   5.458   4.121  10.834  0.5855  0.5834  0.3303
  338MOL0     C45553   5.469   4.014  10.746 -0.2332 -0.1385  0.2119
  338MOL0     O45554   5.575   3.952  10.693 -0.3055 -0.0528  0.4871
  338MOL0     C45555   5.703   3.985  10.740  0.0182 -0.7545  0.1520
  338MOL0     C45556   5.792   3.881  10.683  0.1929 -0.2239 -0.3532
  338MOL0     C45557   5.945   3.923  10.693 -0.3666 -0.2730  0.4161
  338MOL0     C45558   6.022   3.944  10.829 -0.4047  0.0396  0.6795
  338MOL0     C45559   6.012   3.824  10.908  0.5565  0.3959  0.5817
  338MOL0     C45560   5.993   3.726  10.977 -1.2266 -0.6629  0.2145
  338MOL0     C45561   5.350   3.971  10.683  0.6502  0.6013  0.6173
  338MOL0     C45562   5.226   4.033  10.691 -0.3759  0.7853 -0.6439
  338MOL0     H45563   4.783   4.029  10.675  3.3100 -0.3134  1.9931
  338MOL0     H45564   4.563   4.118  10.617 -1.3849  0.9669  1.0880
  338MOL0     H45565   4.337   4.223  10.610 -0.4038  0.6735  0.1125
  338MOL0     H45566   4.396   4.257  10.769  0.9426  1.3826  0.5302
  338MOL0     H45567   4.291   4.512  10.699 -0.3979  0.2245 -1.2326
  338MOL0     H45568   4.188   4.411  10.605 -0.8800  2.0131 -0.7188
  338MOL0     H45569   4.241   4.344  10.910  0.9330  1.8015 -0.0655
  338MOL0     H45570   4.114   4.458  10.867 -0.2790 -0.3785  0.5546
  338MOL0     H45571   3.974   4.271  10.863 -0.6216  0.6248 -0.0855
  338MOL0     H45572   4.030   4.282  10.704  0.6974  2.3390  0.3917
  338MOL0     H45573   4.208   4.109  10.742 -1.4629 -1.7059 -1.5611
  338MOL0     H45574   4.168   4.112  10.910 -2.6010  2.7546  0.8910
  338MOL0     H45575   3.926   4.066  10.840  0.7075  3.6794 -0.4845
  338MOL0     H45576   3.989   4.034  10.686  0.5334  1.9413  0.4195
  338MOL0     H45577   4.144   3.854  10.782  1.2386  1.8794  0.9934
  338MOL0     H45578   4.058   3.859  10.932  0.8751  1.0362 -0.2454
  338MOL0     H45579   3.963   3.678  10.797  2.4827  1.4322 -1.2274
  338MOL0     H45580   3.894   3.806  10.688 -2.0081  2.4092  0.4849
  338MOL0     H45581   3.910   3.763  11.085  2.8181  0.3964 -2.5460
  338MOL0     H45582   3.652   3.610  11.199  1.2123  0.7984 -1.4497
  338MOL0     H45583   3.709   3.778  11.261  2.7385  0.2891 -1.5220
  338MOL0     H45584   3.439   3.725  11.159  3.8033 -0.6104 -3.2049
  338MOL0     H45585   3.503   3.883  11.205  0.3913  0.2556 -1.3936
  338MOL0     H45586   3.526   3.816  11.438 -2.3958  1.4308  0.4561
  338MOL0     H45587   3.481   3.646  11.391  0.1106 -0.9218 -2.1879
  338MOL0     H45588   3.255   3.711  11.341  2.2799  0.0949 -0.9285
  338MOL0     H45589   3.298   3.885  11.358 -1.2354  0.4398 -0.1257
  338MOL0     H45590   3.224   3.663  11.725  1.9769  2.5882 -0.5080
  338MOL0     H45591   2.948   3.693  11.947  2.5062  0.4769  0.3623
  338MOL0     H45592   2.933   3.546  11.856 -1.4685 -0.2953  0.7022
  338MOL0     H45593   3.091   3.611  11.917 -2.6798 -2.4641  3.0661
  338MOL0     H45594   2.599   4.103  11.737  0.5110 -0.7620  0.0583
  338MOL0     H45595   2.378   4.173  11.829  2.3478  0.9393 -1.1702
  338MOL0     H45596   2.142   4.138  11.735  2.0280 -2.2624  1.1510
  338MOL0     H45597   2.004   4.069  11.796 -0.3279  0.3953 -2.7306
  338MOL0     H45598   2.192   4.269  11.940  1.2513 -2.3721  0.1429
  338MOL0     H45599   2.030   4.299  11.881  1.0667  0.9926 -1.0952
  338MOL0     H45600   2.107   4.095  12.102  1.7149  1.8444  0.4029
  338MOL0     H45601   1.941   4.129  12.058 -0.2169  0.9399  4.5158
  338MOL0     H45602   2.151   4.317  12.188 -0.1108  0.8380  1.4131
  338MOL0     H45603   1.992   4.359  12.150 -0.2905 -0.8506 -0.5706
  338MOL0     H45604   2.032   4.278  12.398 -1.1779  1.1654  0.1318
  338MOL0     H45605   2.071   4.120  12.330  0.1642  0.7567 -1.2730
  338MOL0     H45606   1.828   4.117  12.246  0.9715 -1.5071  1.2217
  338MOL0     H45607   1.848   4.118  12.422 -3.7768  0.9455  0.5797
  338MOL0     H45608   1.768   4.339  12.252  2.2995  0.2282 -0.1510
  338MOL0     H45609   1.830   4.359  12.423  2.0472 -0.2393 -1.1926
  338MOL0     H45610   1.585   4.316  12.441  0.0110  0.3801  0.2129
  338MOL0     H45611   1.648   4.152  12.470 -0.4022  0.8494  2.0227
  338MOL0     H45612   2.271   3.745  11.812 -1.9225  0.6399  0.5007
  338MOL0     H45613   2.479   3.701  11.704  0.9740 -0.1063 -0.5026
  338MOL0     H45614   2.844   3.901  11.499  0.4466 -1.0548 -0.0802
  338MOL0     H45615   3.076   3.902  11.408  2.7094 -2.7116 -0.6985
  338MOL0     H45616   4.661   4.511  10.722 -1.1126 -0.1387 -0.0937
  338MOL0     H45617   4.881   4.440  10.800  0.1180  0.2752 -1.9258
  338MOL0     H45618   5.335   4.272  10.923 -2.4506  0.5360 -0.2722
  338MOL0     H45619   5.540   4.153  10.897  0.9890 -0.9883  0.6560
  338MOL0     H45620   5.744   4.079  10.701  1.2799 -0.5052  1.9460
  338MOL0     H45621   5.709   4.002  10.848  0.7870 -2.6239  0.4384
  338MOL0     H45622   5.761   3.882  10.578 -0.3143 -1.6540 -0.2331
  338MOL0     H45623   5.771   3.786  10.733  2.2446 -1.6789 -2.0342
  338MOL0     H45624   5.951   4.021  10.645  0.8999  0.9109  2.8269
  338MOL0     H45625   6.018   3.865  10.636 -0.9861  2.4498 -3.5994
  338MOL0     H45626   5.973   4.032  10.871 -1.7463  1.1978 -2.8768
  338MOL0     H45627   6.126   3.973  10.813 -0.4848  1.3582  2.3014
  338MOL0     H45628   5.983   3.630  11.025  0.0907 -0.4688  0.9327
  338MOL0     H45629   5.353   3.890  10.611  1.1434  1.9615 -0.9436
  338MOL0     H45630   5.140   3.991  10.641 -0.5376 -1.3364  1.2608
  339MOL0     O45631  10.782   8.516   5.704 -0.3766 -0.3394  0.2742
  339MOL0     C45632  10.779   8.640   5.716  0.1716 -0.7327 -0.2186
  339MOL0     O45633  10.674   8.718   5.671 -0.2466  0.2431 -0.1232
  339MOL0     C45634  10.558   8.671   5.629 -0.3353  0.3125  0.0525
  339MOL0     C45635  10.529   8.573   5.530 -0.1351 -0.2371 -0.1525
  339MOL0     C45636  10.400   8.561   5.477  0.4815 -0.3336  0.2222
  339MOL0     C45637  10.288   8.631   5.523 -0.2300 -0.9225 -0.2510
  339MOL0     O45638  10.163   8.599   5.472 -0.5619  0.6124 -0.0258
  339MOL0     C45639  10.061   8.681   5.512  0.1366  0.0424  0.3756
  339MOL0     C45640   9.931   8.654   5.422 -0.1582 -1.0666 -0.6461
  339MOL0     C45641   9.827   8.757   5.459  0.5652  0.1718 -0.2878
  339MOL0     C45642   9.701   8.744   5.376  0.4105  0.0951  0.2298
  339MOL0     C45643   9.620   8.869   5.375  0.2050 -0.6944 -0.4689
  339MOL0     C45644   9.500   8.848   5.290 -1.3267  0.1179  0.4046
  339MOL0     C45645   9.419   8.981   5.281  0.6655 -0.2450  0.8569
  339MOL0     C45646   9.306   9.000   5.382  0.4534 -1.0741  0.1269
  339MOL0     N45647   9.208   8.893   5.387  0.8965  0.0948 -0.0594
  339MOL0     C45648   9.097   8.891   5.300 -0.6741  0.2870 -0.3271
  339MOL0     C45649   9.030   8.782   5.334  0.0983 -0.2465 -0.4350
  339MOL0     C45650   8.909   8.719   5.271  0.2364 -0.1461 -0.4249
  339MOL0     C45651   8.781   8.782   5.331 -0.6168 -0.2683 -0.6736
  339MOL0     C45652   8.773   8.745   5.482  0.8501 -0.4975  0.3420
  339MOL0     C45653   8.620   8.745   5.510 -0.6804  1.2171  0.5027
  339MOL0     O45654   8.602   8.825   5.627  0.1113 -0.2393 -0.4262
  339MOL0     C45655   8.473   8.814   5.665  0.3799  0.1617  0.1983
  339MOL0     C45656   8.420   8.701   5.727  0.2010  0.3723 -0.0426
  339MOL0     C45657   8.289   8.692   5.751 -0.4399  0.9879  0.3004
  339MOL0     C45658   8.234   8.549   5.781 -0.3948 -0.5504  0.1730
  339MOL0     C45659   8.204   8.809   5.740  0.2605  0.7649  0.5013
  339MOL0     C45660   8.064   8.808   5.803 -0.0046  0.0706 -1.1740
  339MOL0     O45661   7.976   8.899   5.763 -0.5459 -0.0136 -0.5152
  339MOL0     C45662   7.894   8.940   5.864 -0.2653  0.2136  0.3301
  339MOL0     C45663   7.790   8.851   5.919 -0.2118 -0.6718 -0.1672
  339MOL0     C45664   7.714   8.889   6.028 -0.5356 -1.3875  1.1128
  339MOL0     C45665   7.740   9.013   6.091 -0.3915 -0.1391 -0.3414
  339MOL0     O45666   7.660   9.068   6.195 -0.4021  0.5831  0.1615
  339MOL0     C45667   7.584   8.971   6.270 -0.5560  0.4957 -0.1167
  339MOL0     C45668   7.522   9.059   6.378  0.6461 -0.8954 -0.5163
  339MOL0     C45669   7.392   9.133   6.338 -0.3621 -0.0635 -0.5336
  339MOL0     C45670   7.325   9.221   6.450  0.1003 -0.2661  0.6877
  339MOL0     C45671   7.234   9.343   6.401 -0.5972 -0.4674  0.2006
  339MOL0     C45672   7.208   9.430   6.525 -0.3445  0.1173 -0.2254
  339MOL0     C45673   7.153   9.565   6.479 -0.2597  0.4075 -0.3046
  339MOL0     C45674   7.126   9.653   6.600  0.6072  0.0256 -0.1345
  339MOL0    Cl45675   7.049   9.810   6.538  0.3344 -0.0427  0.1286
  339MOL0     C45676   7.844   9.095   6.050  0.8512  0.3781  0.1705
  339MOL0     C45677   7.915   9.057   5.935 -0.5897  0.2290  0.1623
  339MOL0     O45678   8.046   8.733   5.900 -0.6310  0.2381 -0.3945
  339MOL0     C45679   8.260   8.927   5.689  0.4814 -0.9034 -0.4941
  339MOL0     C45680   8.394   8.926   5.643  0.8856  0.0545 -0.8196
  339MOL0     N45681   9.105   8.722   5.434 -0.4103 -0.5492 -0.1870
  339MOL0     N45682   9.212   8.788   5.464  0.0492  0.4305  0.0131
  339MOL0     C45683  10.318   8.736   5.611  0.4068  0.0168  0.8569
  339MOL0     C45684  10.450   8.759   5.661 -0.1181  0.1950 -0.2736
  339MOL0     C45685  10.894   8.707   5.781  0.5768 -0.5680  0.2837
  339MOL0     C45686  10.886   8.845   5.808 -0.4354 -0.8380 -0.7726
  339MOL0     C45687  11.001   8.909   5.860 -0.1583  0.5959  0.6061
  339MOL0     C45688  11.121   8.835   5.885 -0.1736 -0.1089 -0.6189
  339MOL0     O45689  11.246   8.895   5.922  0.2328 -0.2407 -0.5849
  339MOL0     C45690  11.275   9.033   5.904 -0.1518  1.4755  0.2701
  339MOL0     C45691  11.391   9.035   5.806 -0.0193  0.0923  0.1296
  339MOL0     C45692  11.520   9.093   5.863 -0.1702  0.3514  1.4776
  339MOL0     C45693  11.612   9.126   5.738 -0.8431 -0.3209  0.1749
  339MOL0     C45694  11.732   9.202   5.777  1.1616  0.1893  0.4103
  339MOL0     C45695  11.841   9.253   5.810 -0.2507 -0.8443  0.8205
  339MOL0     C45696  11.120   8.690   5.870 -0.0223 -1.3201  0.5692
  339MOL0     C45697  11.003   8.634   5.813 -0.5100 -0.0155 -0.0775
  339MOL0     H45698  10.613   8.518   5.487  1.2321  1.5041  0.1821
  339MOL0     H45699  10.372   8.496   5.395  0.6109 -0.0615 -0.0416
  339MOL0     H45700  10.040   8.672   5.619 -0.4720 -0.3014  0.2267
  339MOL0     H45701  10.093   8.785   5.499 -1.6004  0.6906  1.0317
  339MOL0     H45702   9.957   8.650   5.315  1.1120 -1.1577 -0.3530
  339MOL0     H45703   9.901   8.552   5.446  0.9757 -1.6371 -1.5292
  339MOL0     H45704   9.799   8.780   5.562 -1.1490  2.6723 -1.2096
  339MOL0     H45705   9.865   8.856   5.432 -1.0444  0.8219 -0.2819
  339MOL0     H45706   9.724   8.723   5.271 -0.4862  1.1423 -0.1925
  339MOL0     H45707   9.637   8.664   5.414 -0.5117  0.9932  0.6221
  339MOL0     H45708   9.585   8.900   5.475 -0.5112  5.7731 -2.2551
  339MOL0     H45709   9.680   8.952   5.337 -2.7943  2.3571  0.8173
  339MOL0     H45710   9.528   8.815   5.190  0.9705  0.1702  0.9826
  339MOL0     H45711   9.440   8.767   5.332 -0.3020 -0.6347  0.4664
  339MOL0     H45712   9.483   9.067   5.259 -2.1668  1.6914 -0.2603
  339MOL0     H45713   9.367   8.968   5.186  2.5849 -0.8556 -0.1595
  339MOL0     H45714   9.259   9.094   5.352 -0.1520 -1.0837  0.9952
  339MOL0     H45715   9.354   9.022   5.478  0.5689  2.1763 -0.5661
  339MOL0     H45716   9.054   8.964   5.232 -1.6664  1.9995  2.0180
  339MOL0     H45717   8.903   8.737   5.164  0.9032 -0.4113 -0.5099
  339MOL0     H45718   8.912   8.610   5.277 -2.5668 -0.4357 -2.5292
  339MOL0     H45719   8.700   8.732   5.278  0.5128 -4.7250  1.3245
  339MOL0     H45720   8.777   8.891   5.322  0.9552 -0.0957  0.3327
  339MOL0     H45721   8.828   8.822   5.536 -1.3277  0.5967  1.0942
  339MOL0     H45722   8.811   8.646   5.508 -0.0795 -0.6060  1.3347
  339MOL0     H45723   8.583   8.644   5.534 -1.1809  1.3524  0.3126
  339MOL0     H45724   8.562   8.786   5.427  2.1187 -0.6432 -2.6323
  339MOL0     H45725   8.484   8.614   5.742  2.5213  2.1355  1.0607
  339MOL0     H45726   8.301   8.473   5.740  0.1137 -1.5328  2.6655
  339MOL0     H45727   8.235   8.530   5.889  0.3316  1.0963  0.4966
  339MOL0     H45728   8.139   8.539   5.729  0.2239  2.2870 -1.7334
  339MOL0     H45729   7.764   8.758   5.871 -0.4418 -0.5966 -0.1908
  339MOL0     H45730   7.624   8.831   6.049 -1.8758  0.6484  1.2466
  339MOL0     H45731   7.503   8.929   6.208  0.6384  0.9836 -2.1168
  339MOL0     H45732   7.657   8.894   6.296 -1.2054 -0.2415 -0.4129
  339MOL0     H45733   7.497   9.006   6.470 -2.1152 -0.6464 -1.0443
  339MOL0     H45734   7.586   9.141   6.410 -0.8774 -0.4520  1.5373
  339MOL0     H45735   7.315   9.067   6.297  0.8008  0.1712 -3.3475
  339MOL0     H45736   7.416   9.196   6.252  1.5276 -0.0341 -0.0366
  339MOL0     H45737   7.274   9.158   6.524  1.7580 -0.7426  1.4596
  339MOL0     H45738   7.411   9.266   6.500 -0.2110  1.1527  0.0019
  339MOL0     H45739   7.146   9.313   6.343  0.8299 -0.9784 -1.8354
  339MOL0     H45740   7.287   9.393   6.319 -1.2272 -1.6183 -0.9660
  339MOL0     H45741   7.143   9.382   6.599 -2.2263  2.6288 -0.1024
  339MOL0     H45742   7.301   9.459   6.576 -1.3843 -0.7518  2.3385
  339MOL0     H45743   7.056   9.550   6.430 -1.0907 -1.4466  1.7351
  339MOL0     H45744   7.229   9.618   6.421  0.6219  1.5797  1.7660
  339MOL0     H45745   7.217   9.677   6.655  1.8113 -1.3587 -1.4320
  339MOL0     H45746   7.057   9.594   6.662 -0.3346  0.1478 -1.0448
  339MOL0     H45747   7.866   9.187   6.102 -1.9204  2.6261 -2.2527
  339MOL0     H45748   8.000   9.118   5.907  0.2183 -1.1302 -0.4334
  339MOL0     H45749   8.191   9.006   5.662  1.5970  0.3414  0.1801
  339MOL0     H45750   8.446   9.008   5.594  2.0702  0.4758  1.0268
  339MOL0     H45751  10.237   8.796   5.651 -0.9677 -1.2349  0.0542
  339MOL0     H45752  10.460   8.840   5.733 -3.0318 -0.4235  0.9888
  339MOL0     H45753  10.798   8.900   5.776  2.7045  3.7774 -2.4068
  339MOL0     H45754  11.001   9.016   5.874  0.3176  0.4263  2.1049
  339MOL0     H45755  11.204   9.092   5.846 -0.3467  0.1556 -0.8796
  339MOL0     H45756  11.307   9.089   5.993  1.5423  3.1435 -1.2920
  339MOL0     H45757  11.373   9.090   5.712  2.0145  1.2853  0.3731
  339MOL0     H45758  11.412   8.936   5.765  0.9342  0.8271 -1.2809
  339MOL0     H45759  11.559   9.007   5.918 -0.0898 -1.5428 -1.3368
  339MOL0     H45760  11.507   9.180   5.929 -2.4008  0.9777  0.3022
  339MOL0     H45761  11.560   9.195   5.671 -1.6302 -1.6848 -0.6501
  339MOL0     H45762  11.644   9.036   5.684  2.8033 -1.3375  3.5361
  339MOL0     H45763  11.941   9.287   5.831 -0.7198  0.6905  0.6756
  339MOL0     H45764  11.213   8.638   5.888  1.3274  1.4256  2.2646
  339MOL0     H45765  11.016   8.531   5.782  3.4098 -0.1356  1.4062
  340MOL0     O45766   5.847   0.390   3.233 -0.0251 -0.4362  0.7106
  340MOL0     C45767   5.897   0.282   3.239 -0.4210  0.0839  0.1493
  340MOL0     O45768   5.833   0.165   3.184  0.3702 -0.8335 -0.3112
  340MOL0     C45769   5.701   0.179   3.150 -0.0788 -0.1151 -0.0602
  340MOL0     C45770   5.670   0.175   3.009  0.1979  0.3265  0.5890
  340MOL0     C45771   5.539   0.180   2.967  0.0552  0.7256  0.4234
  340MOL0     C45772   5.439   0.206   3.063  0.5401 -0.1144 -0.1666
  340MOL0     O45773   5.310   0.206   3.006 -0.0963 -1.1855 -0.5297
  340MOL0     C45774   5.238   0.087   3.046  0.7696 -0.1517  0.4036
  340MOL0     C45775   5.103   0.073   2.971  0.2808 -0.0112 -0.0515
  340MOL0     C45776   5.134   0.030   2.826 -0.2702 -0.1976 -0.4246
  340MOL0     C45777   5.002  -0.002   2.757 -0.0940  0.4017  0.6075
  340MOL0     C45778   4.960   0.086   2.637  0.3933  0.2822  0.5663
  340MOL0     C45779   4.812   0.084   2.594  0.3151  0.0210  0.1546
  340MOL0     C45780   4.779   0.176   2.475 -0.8337 -0.1607 -0.1852
  340MOL0     C45781   4.636   0.159   2.421  1.0319  0.3053  0.1201
  340MOL0     N45782   4.529   0.185   2.522 -0.5992 -0.0400 -0.9820
  340MOL0     C45783   4.489   0.300   2.576 -0.2469 -0.4815  0.1098
  340MOL0     C45784   4.404   0.277   2.680  0.6714 -0.3664  0.3466
  340MOL0     C45785   4.333   0.370   2.768  0.3594 -0.5344 -0.3798
  340MOL0     C45786   4.177   0.368   2.737 -0.0771 -0.7789 -0.1312
  340MOL0     C45787   4.088   0.436   2.848  0.6971 -0.2814  0.0069
  340MOL0     C45788   4.110   0.588   2.869 -0.2994 -0.2248 -1.2747
  340MOL0     O45789   4.042   0.627   2.985 -0.0426  0.6830  0.2255
  340MOL0     C45790   3.908   0.656   2.979 -0.9949 -0.1363  0.7021
  340MOL0     C45791   3.832   0.662   2.861 -0.1798  1.4732 -0.5114
  340MOL0     C45792   3.694   0.668   2.865 -0.3162  0.6653  0.5397
  340MOL0     C45793   3.619   0.646   2.733 -0.2213 -0.0226 -0.6868
  340MOL0     C45794   3.626   0.703   2.979 -0.1600  0.8131  0.0089
  340MOL0     C45795   3.483   0.735   3.000  0.4605 -1.1024  0.5932
  340MOL0     O45796   3.431   0.712   3.127  0.0965 -0.6010 -0.1569
  340MOL0     C45797   3.301   0.758   3.161 -0.6799  0.0766 -0.9371
  340MOL0     C45798   3.179   0.724   3.096 -0.1642 -0.5053 -0.0042
  340MOL0     C45799   3.055   0.784   3.128  0.3089  0.5292 -0.1379
  340MOL0     C45800   3.046   0.885   3.218  0.8446  0.3099 -0.8704
  340MOL0     O45801   2.926   0.933   3.256 -0.5770 -0.2957 -0.7323
  340MOL0     C45802   2.897   1.074   3.277  0.3131  0.1275  0.4966
  340MOL0     C45803   2.879   1.099   3.432  0.0120  0.4769  0.9817
  340MOL0     C45804   2.757   1.040   3.500 -0.1774 -0.3185  0.5570
  340MOL0     C45805   2.641   1.098   3.433  0.9322 -0.3705  0.2030
  340MOL0     C45806   2.509   1.102   3.516  0.6110 -0.1322 -0.6130
  340MOL0     C45807   2.394   1.183   3.452 -0.7683 -0.5994  0.2953
  340MOL0     C45808   2.263   1.175   3.532  0.3785 -0.4013  0.2174
  340MOL0     C45809   2.178   1.287   3.486  0.5504  0.4820 -0.0507
  340MOL0    Cl45810   2.009   1.261   3.541  0.3682  0.3433  0.2957
  340MOL0     C45811   3.165   0.917   3.291  0.2231  0.2599 -0.1530
  340MOL0     C45812   3.289   0.861   3.255  1.4663  0.6682  0.2219
  340MOL0     O45813   3.427   0.785   2.900  0.7047  0.3382  0.3009
  340MOL0     C45814   3.702   0.708   3.099  0.2955  0.4925  0.7696
  340MOL0     C45815   3.843   0.683   3.096 -1.1808 -1.1491  0.2639
  340MOL0     N45816   4.394   0.140   2.691 -0.0655 -0.1562  0.1299
  340MOL0     N45817   4.470   0.086   2.605 -0.2519 -0.3786  0.5039
  340MOL0     C45818   5.471   0.223   3.197  0.1579  0.8463  0.1829
  340MOL0     C45819   5.606   0.211   3.238  0.0044  0.3996 -0.1739
  340MOL0     C45820   6.024   0.265   3.306 -0.1779  0.1762  0.3285
  340MOL0     C45821   6.131   0.184   3.252 -0.0311  0.0480 -0.0027
  340MOL0     C45822   6.259   0.176   3.317 -0.2173  0.3788 -0.1274
  340MOL0     C45823   6.277   0.249   3.437  0.6514  0.4312  0.3844
  340MOL0     O45824   6.403   0.240   3.504  0.6158  0.3180  0.3907
  340MOL0     C45825   6.395   0.219   3.647 -0.6845 -0.3545  0.1459
  340MOL0     C45826   6.529   0.190   3.712 -0.2341  0.1255  0.4759
  340MOL0     C45827   6.597   0.071   3.632  0.0261 -0.1355 -1.1619
  340MOL0     C45828   6.723   0.027   3.717 -1.1260 -0.3454  0.8568
  340MOL0     C45829   6.689  -0.059   3.831  0.6363  0.8719  0.2505
  340MOL0     C45830   6.657  -0.134   3.926 -0.6575  0.4697 -0.3103
  340MOL0     C45831   6.177   0.334   3.487 -0.4710 -0.1343  0.1273
  340MOL0     C45832   6.050   0.344   3.426 -0.6979 -0.1030 -0.4485
  340MOL0     H45833   5.745   0.154   2.933 -0.1110  1.7601 -0.1389
  340MOL0     H45834   5.511   0.163   2.863 -2.5075 -2.9818  1.5030
  340MOL0     H45835   5.294  -0.007   3.038 -0.8901 -1.1943  0.5098
  340MOL0     H45836   5.213   0.091   3.152  1.2306  0.2827  0.5004
  340MOL0     H45837   5.053  -0.012   3.017 -1.1913 -0.5606 -2.4898
  340MOL0     H45838   5.034   0.157   2.975 -0.5092 -0.6828  1.1013
  340MOL0     H45839   5.196   0.101   2.770 -0.6291  0.8320  0.4371
  340MOL0     H45840   5.196  -0.060   2.828  0.5905  0.2503 -3.4400
  340MOL0     H45841   5.017  -0.106   2.728  1.6864  0.7120  0.2953
  340MOL0     H45842   4.923   0.003   2.832 -1.8602 -1.8230 -0.9826
  340MOL0     H45843   4.991   0.186   2.667  2.4666 -0.1594  0.0659
  340MOL0     H45844   5.024   0.056   2.553  0.3925 -0.1408  0.7138
  340MOL0     H45845   4.769  -0.011   2.562 -0.8966  0.9408 -1.0663
  340MOL0     H45846   4.751   0.118   2.679 -1.2785  0.6821 -1.1799
  340MOL0     H45847   4.785   0.281   2.506  0.3149 -1.0343  2.8647
  340MOL0     H45848   4.850   0.160   2.393  4.2019  0.2480  3.5795
  340MOL0     H45849   4.617   0.061   2.376 -0.2169  0.5384  0.1063
  340MOL0     H45850   4.614   0.234   2.345  1.0400 -0.0791 -0.2616
  340MOL0     H45851   4.512   0.397   2.532 -1.3668  0.2577  1.0626
  340MOL0     H45852   4.340   0.334   2.871 -0.2762  0.3966  0.0071
  340MOL0     H45853   4.378   0.468   2.751  3.0725 -1.5467  0.4261
  340MOL0     H45854   4.145   0.264   2.726 -1.9629 -0.0320 -2.9503
  340MOL0     H45855   4.144   0.422   2.648 -2.4492  1.5953  2.0157
  340MOL0     H45856   4.100   0.390   2.946 -1.2085  0.5931  0.7010
  340MOL0     H45857   3.983   0.412   2.831  0.2193  2.0400 -0.6850
  340MOL0     H45858   4.063   0.622   2.776 -2.3456 -0.4029 -0.3552
  340MOL0     H45859   4.215   0.617   2.879 -0.9614  2.2626 -1.0527
  340MOL0     H45860   3.874   0.630   2.765  2.6901 -0.5620  1.2327
  340MOL0     H45861   3.680   0.580   2.670  0.1231 -0.5882  0.2306
  340MOL0     H45862   3.528   0.588   2.752 -0.6859  0.2737 -1.9051
  340MOL0     H45863   3.601   0.743   2.686  1.2502 -0.4432 -2.2365
  340MOL0     H45864   3.193   0.648   3.020 -0.9250  0.5003 -1.1976
  340MOL0     H45865   2.965   0.764   3.070  0.4256  1.0606 -0.5135
  340MOL0     H45866   2.986   1.131   3.247 -1.5048  3.8903  1.6709
  340MOL0     H45867   2.815   1.091   3.207  1.6387 -1.6249 -1.6289
  340MOL0     H45868   2.974   1.070   3.478  1.5970  1.2179 -1.6424
  340MOL0     H45869   2.867   1.203   3.463  0.5267  1.0621 -0.6896
  340MOL0     H45870   2.750   1.069   3.605 -1.7782  2.2713 -0.1782
  340MOL0     H45871   2.761   0.931   3.489 -0.2575 -0.1707 -1.2382
  340MOL0     H45872   2.656   1.202   3.400  0.2926  0.1621  1.5052
  340MOL0     H45873   2.615   1.034   3.348  0.9994  1.5333 -1.3351
  340MOL0     H45874   2.525   1.153   3.611 -2.6260  1.0873 -0.6178
  340MOL0     H45875   2.467   1.001   3.524 -0.6961  0.2528 -2.2061
  340MOL0     H45876   2.426   1.287   3.440  0.5801 -1.1319 -1.2446
  340MOL0     H45877   2.386   1.133   3.355 -1.1312  1.2146 -0.6504
  340MOL0     H45878   2.268   1.177   3.641 -0.9213  3.5017  0.3731
  340MOL0     H45879   2.214   1.078   3.518  0.1331 -0.5862  2.1507
  340MOL0     H45880   2.180   1.291   3.376  0.2524  2.0802 -0.0308
  340MOL0     H45881   2.213   1.386   3.519  1.8335  0.1001 -0.2162
  340MOL0     H45882   3.167   0.986   3.375  0.9862 -2.2602  2.0280
  340MOL0     H45883   3.386   0.894   3.294  1.9370  1.8851 -1.8411
  340MOL0     H45884   3.654   0.742   3.190 -0.1078  1.6800  0.1384
  340MOL0     H45885   3.890   0.703   3.192 -1.1686  1.7539 -0.2375
  340MOL0     H45886   5.401   0.269   3.266  0.9781  1.0022  0.9377
  340MOL0     H45887   5.630   0.212   3.343 -0.7091  4.0650  0.0843
  340MOL0     H45888   6.119   0.143   3.152 -2.2898 -0.0335  0.2554
  340MOL0     H45889   6.345   0.124   3.279  1.9044  1.6834  2.5174
  340MOL0     H45890   6.348   0.297   3.707 -2.5255 -0.9868 -0.3923
  340MOL0     H45891   6.333   0.129   3.659 -2.9035  0.9558 -0.7115
  340MOL0     H45892   6.518   0.157   3.815  2.1983  0.2124  0.8296
  340MOL0     H45893   6.591   0.280   3.713 -2.5452  1.8017  0.5877
  340MOL0     H45894   6.619   0.114   3.534 -2.4228  1.6864 -0.9838
  340MOL0     H45895   6.524  -0.009   3.614  0.5216 -0.8183 -0.2272
  340MOL0     H45896   6.763   0.122   3.753 -4.3703  2.0817 -1.3402
  340MOL0     H45897   6.799  -0.012   3.648 -3.3356 -0.5285 -1.6611
  340MOL0     H45898   6.621  -0.186   4.012 -0.6219  0.5301 -0.2594
  340MOL0     H45899   6.191   0.387   3.581 -0.8846  0.2139 -0.0036
  340MOL0     H45900   5.974   0.404   3.474  0.1993  0.0821  0.7933
  341MOL0     O45901   5.263   6.923   2.222 -0.0163 -0.4172 -0.1838
  341MOL0     C45902   5.180   6.880   2.302 -0.3535  0.3549 -0.4847
  341MOL0     O45903   5.212   6.798   2.405  0.4404 -0.0991 -0.2505
  341MOL0     C45904   5.340   6.759   2.431 -1.0014 -0.1976  0.4550
  341MOL0     C45905   5.354   6.634   2.475 -0.1493  1.2562 -0.1029
  341MOL0     C45906   5.490   6.579   2.503 -0.3875 -0.0325 -1.0641
  341MOL0     C45907   5.607   6.651   2.492  0.1839 -0.5468  0.3132
  341MOL0     O45908   5.725   6.589   2.539  0.5441  0.4795  0.0244
  341MOL0     C45909   5.841   6.663   2.549  0.6184 -0.6722  0.2791
  341MOL0     C45910   5.907   6.586   2.665 -0.3305  0.3061 -0.1791
  341MOL0     C45911   6.033   6.662   2.711 -0.3849  0.0114  0.6319
  341MOL0     C45912   6.096   6.563   2.807  0.1910 -0.1523 -0.0058
  341MOL0     C45913   6.212   6.632   2.869 -0.4935  0.8528  0.1408
  341MOL0     C45914   6.268   6.543   2.979 -0.5851  0.1903 -0.1052
  341MOL0     C45915   6.403   6.597   3.020  0.2801  0.4764  0.0120
  341MOL0     C45916   6.488   6.495   3.090 -0.9747 -0.6746  0.3488
  341MOL0     N45917   6.426   6.413   3.199  0.5861 -0.3939  0.4434
  341MOL0     C45918   6.363   6.450   3.311  0.5419  0.0823 -0.3610
  341MOL0     C45919   6.333   6.334   3.370 -0.3788  0.8133 -0.7300
  341MOL0     C45920   6.269   6.333   3.507 -0.1809  0.9440 -1.0785
  341MOL0     C45921   6.116   6.308   3.487 -0.1565  0.5299  0.1385
  341MOL0     C45922   6.041   6.273   3.616  0.0802  0.4970 -0.1340
  341MOL0     C45923   5.889   6.272   3.597 -0.3757 -0.4402 -1.2490
  341MOL0     O45924   5.841   6.409   3.588 -0.3972 -0.5835  0.2107
  341MOL0     C45925   5.702   6.421   3.582  0.5887  0.1785  0.8555
  341MOL0     C45926   5.605   6.321   3.585  1.0216 -0.2174 -0.9501
  341MOL0     C45927   5.469   6.348   3.589 -0.6423 -0.4712  0.5480
  341MOL0     C45928   5.379   6.231   3.613  0.1135 -0.6139  0.1154
  341MOL0     C45929   5.427   6.483   3.556 -0.6891 -0.1389  0.0618
  341MOL0     C45930   5.285   6.534   3.539  0.3260  1.8027 -0.1335
  341MOL0     O45931   5.189   6.444   3.581 -0.0024 -0.4463 -0.6784
  341MOL0     C45932   5.052   6.466   3.588  0.1729  0.3581 -0.4087
  341MOL0     C45933   4.984   6.373   3.666  0.6352  0.2663  0.4906
  341MOL0     C45934   4.842   6.374   3.680  0.5422 -0.4405 -0.1142
  341MOL0     C45935   4.771   6.482   3.627  0.2263 -0.0564  0.8666
  341MOL0     O45936   4.635   6.487   3.656 -0.6231 -0.8033  0.0304
  341MOL0     C45937   4.564   6.432   3.545  0.5740 -0.3341 -0.1109
  341MOL0     C45938   4.415   6.416   3.583 -0.3910  0.7276 -0.0116
  341MOL0     C45939   4.343   6.343   3.474 -0.5892 -0.8776 -0.0292
  341MOL0     C45940   4.196   6.400   3.466  0.0074  0.0924 -0.0501
  341MOL0     C45941   4.117   6.340   3.353  0.1715 -0.1282  0.2375
  341MOL0     C45942   3.990   6.407   3.328  0.6755 -0.6634 -0.9940
  341MOL0     C45943   3.907   6.307   3.245 -0.9168 -0.5083  0.4991
  341MOL0     C45944   3.807   6.374   3.151 -1.1425  0.2858 -0.4422
  341MOL0    Cl45945   3.715   6.231   3.088 -0.2820 -0.3278  0.0014
  341MOL0     C45946   4.833   6.583   3.547  0.0179  0.0633 -0.3224
  341MOL0     C45947   4.969   6.572   3.527  1.0333 -0.0014 -0.5185
  341MOL0     O45948   5.266   6.643   3.483  0.2256 -0.0954 -0.3823
  341MOL0     C45949   5.531   6.583   3.541  0.0091 -0.3392  0.4906
  341MOL0     C45950   5.659   6.545   3.559 -0.1083  0.2176 -0.5654
  341MOL0     N45951   6.376   6.223   3.290  0.0519 -0.2075  0.1393
  341MOL0     N45952   6.425   6.280   3.185 -0.3481 -0.0046  0.4160
  341MOL0     C45953   5.592   6.789   2.441  0.3364 -0.3417 -0.1117
  341MOL0     C45954   5.459   6.841   2.422  0.2422 -0.2864  0.3314
  341MOL0     C45955   5.034   6.928   2.296  0.1794 -0.6281 -0.3255
  341MOL0     C45956   4.937   6.883   2.394 -0.5914 -0.1162  0.1008
  341MOL0     C45957   4.803   6.925   2.386  0.0444  0.1264  0.9954
  341MOL0     C45958   4.777   7.029   2.299 -0.2824 -0.2742 -1.0471
  341MOL0     O45959   4.641   7.068   2.317  0.2357 -0.3256 -0.5399
  341MOL0     C45960   4.580   7.151   2.224  0.1468 -0.2080  0.3745
  341MOL0     C45961   4.484   7.242   2.307  0.5457  0.6972  0.4608
  341MOL0     C45962   4.360   7.296   2.231 -0.0340 -0.3977 -0.2288
  341MOL0     C45963   4.273   7.383   2.313 -0.9037  0.0964  0.0027
  341MOL0     C45964   4.217   7.504   2.249  0.0504  0.0856 -0.3731
  341MOL0     C45965   4.167   7.607   2.209 -0.1703  0.0347 -0.0028
  341MOL0     C45966   4.877   7.088   2.218 -0.0270 -0.3241  0.4320
  341MOL0     C45967   5.006   7.041   2.215  0.1579  0.4026 -1.0734
  341MOL0     H45968   5.263   6.581   2.500  0.2521  1.6252  2.4167
  341MOL0     H45969   5.487   6.478   2.541  1.9742 -0.5472 -2.0722
  341MOL0     H45970   5.904   6.653   2.460 -1.5618  0.3713 -1.4718
  341MOL0     H45971   5.819   6.769   2.568 -1.7871 -0.6030 -2.4077
  341MOL0     H45972   5.844   6.572   2.753 -0.8964 -0.2938 -0.6665
  341MOL0     H45973   5.930   6.491   2.618 -1.1694  1.1397 -2.4017
  341MOL0     H45974   6.097   6.679   2.623 -1.4789  2.5136  0.2399
  341MOL0     H45975   6.015   6.763   2.748 -1.4145  0.6868 -1.5090
  341MOL0     H45976   6.024   6.535   2.885 -1.7342  0.3734 -1.5045
  341MOL0     H45977   6.133   6.468   2.769 -0.7476 -1.2256  1.6600
  341MOL0     H45978   6.287   6.641   2.790  0.2100 -0.7495  0.5668
  341MOL0     H45979   6.186   6.729   2.912 -2.6120  0.1346  0.5792
  341MOL0     H45980   6.197   6.544   3.062 -0.3723  2.0963  0.1072
  341MOL0     H45981   6.292   6.447   2.933  0.7700  0.1101  0.7110
  341MOL0     H45982   6.455   6.648   2.938  1.7802 -0.5202  0.2989
  341MOL0     H45983   6.379   6.685   3.080  0.3398  0.9718 -0.6760
  341MOL0     H45984   6.577   6.536   3.140 -0.8445 -0.5389  0.0054
  341MOL0     H45985   6.536   6.434   3.013  1.2311 -0.2390  1.2897
  341MOL0     H45986   6.358   6.552   3.347  3.1566  1.2043 -2.7554
  341MOL0     H45987   6.307   6.254   3.572 -0.8401  1.9648  0.5971
  341MOL0     H45988   6.298   6.425   3.557  3.3830 -0.9180  0.6853
  341MOL0     H45989   6.101   6.230   3.411  0.2309  0.8380 -0.2567
  341MOL0     H45990   6.074   6.397   3.440 -1.8915  0.7490  1.9887
  341MOL0     H45991   6.072   6.347   3.691 -2.3326 -0.5788  2.0565
  341MOL0     H45992   6.072   6.173   3.648 -2.9104 -0.3874  0.2725
  341MOL0     H45993   5.849   6.222   3.686  0.5174  0.0674 -0.5586
  341MOL0     H45994   5.881   6.207   3.509  1.8929  2.6397 -3.9682
  341MOL0     H45995   5.651   6.222   3.581  4.6833  1.3314 -3.3821
  341MOL0     H45996   5.341   6.249   3.714 -1.1238 -1.7520 -0.1182
  341MOL0     H45997   5.304   6.214   3.535 -0.4573 -0.6938  0.6806
  341MOL0     H45998   5.443   6.142   3.619  1.6719  0.5675  3.2754
  341MOL0     H45999   5.034   6.301   3.730 -2.3980 -0.8549  1.7866
  341MOL0     H46000   4.787   6.307   3.745  1.2097 -0.4550  0.4610
  341MOL0     H46001   4.573   6.495   3.456  1.6582 -0.1115  0.1502
  341MOL0     H46002   4.609   6.337   3.519  1.1810  0.1780 -0.9685
  341MOL0     H46003   4.418   6.346   3.666  2.2536 -1.1198 -1.5098
  341MOL0     H46004   4.371   6.513   3.607 -1.0096  0.2605  0.7795
  341MOL0     H46005   4.344   6.234   3.483 -2.5023 -0.7944  1.8402
  341MOL0     H46006   4.385   6.363   3.375 -2.8743 -3.1601 -1.5810
  341MOL0     H46007   4.138   6.392   3.559 -0.6996 -0.9793 -0.5634
  341MOL0     H46008   4.197   6.507   3.441  2.2943  0.5594  1.6830
  341MOL0     H46009   4.091   6.239   3.386  0.5922 -0.3299 -0.0420
  341MOL0     H46010   4.184   6.334   3.267 -2.1592  0.5150 -1.7233
  341MOL0     H46011   3.945   6.442   3.422  2.0747 -0.0007 -0.5349
  341MOL0     H46012   4.017   6.503   3.283  2.5373 -0.9852 -0.6770
  341MOL0     H46013   3.844   6.244   3.309 -2.8846 -0.3761 -1.1868
  341MOL0     H46014   3.969   6.238   3.188  0.3069  2.0116 -1.4248
  341MOL0     H46015   3.866   6.429   3.077  2.6110 -0.0384  2.0058
  341MOL0     H46016   3.735   6.445   3.192  0.0703  1.3299 -0.0665
  341MOL0     H46017   4.770   6.659   3.502  0.6933  0.6575 -0.2756
  341MOL0     H46018   5.020   6.640   3.459  1.0353  0.9192  0.3828
  341MOL0     H46019   5.516   6.689   3.524  2.8431 -0.3443 -3.0536
  341MOL0     H46020   5.735   6.622   3.556 -1.9715  2.1403 -0.5111
  341MOL0     H46021   5.665   6.867   2.419 -0.5337  0.8520  1.0244
  341MOL0     H46022   5.444   6.945   2.392 -1.7393  0.1623  2.5778
  341MOL0     H46023   4.972   6.792   2.442 -1.4960 -0.7970 -0.5060
  341MOL0     H46024   4.718   6.876   2.431 -1.3685  0.7896 -0.8070
  341MOL0     H46025   4.657   7.207   2.169  1.4622 -1.3136  1.0299
  341MOL0     H46026   4.524   7.091   2.152  0.5213 -2.4946  1.8681
  341MOL0     H46027   4.547   7.323   2.345  2.8194 -0.2896 -1.0102
  341MOL0     H46028   4.458   7.183   2.395  0.5968 -0.7610 -0.4705
  341MOL0     H46029   4.299   7.215   2.190  0.3363 -0.8759  0.1545
  341MOL0     H46030   4.409   7.350   2.150  0.0267 -2.3724 -1.5700
  341MOL0     H46031   4.322   7.433   2.397 -1.2474  2.5667 -1.1637
  341MOL0     H46032   4.194   7.320   2.355 -0.7546  0.5331  0.9530
  341MOL0     H46033   4.135   7.701   2.171  0.4807 -0.6557 -2.4127
  341MOL0     H46034   4.863   7.171   2.149 -1.6003  0.8900  2.1282
  341MOL0     H46035   5.070   7.095   2.147  0.6183  4.1899  1.9849
  342MOL0     O46036   6.033   6.870   1.426  0.6362  0.5947  0.1482
  342MOL0     C46037   6.004   6.831   1.308  0.2876 -0.1894 -0.7415
  342MOL0     O46038   5.928   6.720   1.277 -0.4864  0.3393  0.3030
  342MOL0     C46039   5.893   6.627   1.373 -0.6906 -1.1549 -0.1652
  342MOL0     C46040   5.755   6.590   1.372  0.1846 -1.0694  0.8872
  342MOL0     C46041   5.709   6.479   1.448  0.7101  0.4152 -0.4014
  342MOL0     C46042   5.810   6.406   1.520 -0.3658  0.3672  0.5379
  342MOL0     O46043   5.787   6.296   1.595  0.5625  0.5744  1.1019
  342MOL0     C46044   5.658   6.291   1.660 -0.4401  0.3421 -0.2263
  342MOL0     C46045   5.664   6.165   1.746 -0.3207 -0.7162  0.4760
  342MOL0     C46046   5.527   6.100   1.767 -0.3798  0.4320 -0.0572
  342MOL0     C46047   5.467   6.015   1.652 -0.2694 -0.2357  0.7855
  342MOL0     C46048   5.336   5.939   1.679  0.4012  0.2383  0.1917
  342MOL0     C46049   5.278   5.851   1.563 -0.1117  0.0909  0.4153
  342MOL0     C46050   5.148   5.767   1.600 -0.0693  0.3493 -0.7663
  342MOL0     C46051   5.155   5.664   1.722 -0.7520 -0.7845 -0.3732
  342MOL0     N46052   5.163   5.527   1.670  0.0149 -0.3612  0.3134
  342MOL0     C46053   5.059   5.442   1.650  0.1491 -0.0800  0.8121
  342MOL0     C46054   5.104   5.327   1.613 -0.1261  0.8861  0.3471
  342MOL0     C46055   5.015   5.210   1.575  0.1303 -0.6804 -0.3438
  342MOL0     C46056   5.091   5.086   1.538 -0.3149  0.3533  0.1623
  342MOL0     C46057   4.995   4.977   1.485  0.1228  0.3315  0.1654
  342MOL0     C46058   5.089   4.878   1.414  0.2328  0.6221  0.1777
  342MOL0     O46059   5.196   4.824   1.489 -0.2367 -0.2442  0.5386
  342MOL0     C46060   5.172   4.743   1.595 -0.7576 -0.6028  0.3797
  342MOL0     C46061   5.259   4.754   1.701 -0.3733  0.2640 -0.2863
  342MOL0     C46062   5.248   4.674   1.816 -0.1939 -1.1912  0.1750
  342MOL0     C46063   5.357   4.675   1.923 -0.3963  0.0991 -0.0357
  342MOL0     C46064   5.141   4.592   1.836  0.0586 -0.0666 -0.9450
  342MOL0     C46065   5.098   4.508   1.958  0.8115 -0.2317 -1.6060
  342MOL0     O46066   5.001   4.415   1.941  0.1256  0.2946 -0.2968
  342MOL0     C46067   4.913   4.381   2.041  0.1185 -0.4081  0.1101
  342MOL0     C46068   4.890   4.458   2.156  0.2344  0.3178 -0.6609
  342MOL0     C46069   4.798   4.420   2.248  0.0949  0.1716 -0.4114
  342MOL0     C46070   4.734   4.302   2.236  0.4241  0.6303 -0.6207
  342MOL0     O46071   4.663   4.274   2.348 -0.8287 -0.0390  0.0984
  342MOL0     C46072   4.583   4.161   2.340  0.8804 -0.0139  0.1239
  342MOL0     C46073   4.518   4.121   2.471  0.1724 -0.6216 -0.1103
  342MOL0     C46074   4.442   3.986   2.460 -0.2818 -0.3159  0.6394
  342MOL0     C46075   4.375   3.950   2.596 -0.4378  0.6109  0.6215
  342MOL0     C46076   4.226   3.958   2.575  0.0546  0.2539 -0.1616
  342MOL0     C46077   4.137   3.913   2.692  0.0541 -0.2249  0.2152
  342MOL0     C46078   4.132   3.986   2.827 -1.1350 -0.2305 -0.6336
  342MOL0     C46079   4.117   4.133   2.819 -0.9321  0.3809  0.6293
  342MOL0    Cl46080   3.951   4.181   2.762  0.1274  0.3899  0.4354
  342MOL0     C46081   4.741   4.233   2.109  0.2687  0.2168  0.9892
  342MOL0     C46082   4.825   4.284   2.009 -0.0746  0.1985 -0.3367
  342MOL0     O46083   5.162   4.535   2.062 -0.3310  0.5758  0.5833
  342MOL0     C46084   5.059   4.579   1.719 -0.1266  0.9037  0.1567
  342MOL0     C46085   5.075   4.648   1.603 -0.1910  0.4291 -0.0446
  342MOL0     N46086   5.240   5.335   1.620 -0.3412 -0.0613 -0.4192
  342MOL0     N46087   5.282   5.454   1.655  0.0051 -0.0154 -0.0165
  342MOL0     C46088   5.944   6.454   1.524  0.1607  0.8452 -0.3585
  342MOL0     C46089   5.985   6.568   1.450  0.6339 -0.1289 -0.5968
  342MOL0     C46090   6.052   6.913   1.200 -0.2299  0.1109  0.1331
  342MOL0     C46091   6.042   6.868   1.062  0.8614 -0.6531 -0.1198
  342MOL0     C46092   6.078   6.954   0.961  0.5127 -0.2286  0.0994
  342MOL0     C46093   6.123   7.088   0.988  0.3108  0.4295  0.2609
  342MOL0     O46094   6.135   7.193   0.901  0.0463  0.4861  0.3415
  342MOL0     C46095   6.079   7.188   0.775 -0.0071  0.4833  0.1556
  342MOL0     C46096   6.060   7.326   0.711  0.0450 -1.0038  0.0606
  342MOL0     C46097   6.196   7.392   0.669  0.9190 -0.1894 -0.1590
  342MOL0     C46098   6.238   7.363   0.528 -0.6321  0.0354  1.3092
  342MOL0     C46099   6.297   7.234   0.524  0.2393 -0.4869  0.6163
  342MOL0     C46100   6.332   7.119   0.510 -0.0136  0.7354 -0.4684
  342MOL0     C46101   6.144   7.124   1.122  0.5076  0.5256  0.6167
  342MOL0     C46102   6.102   7.042   1.228 -0.4237 -0.5767  1.1530
  342MOL0     H46103   5.698   6.651   1.303  1.1899 -0.5305  0.5158
  342MOL0     H46104   5.605   6.449   1.451  1.0818 -0.8698  0.3954
  342MOL0     H46105   5.642   6.375   1.728  4.3942  0.9280  0.5608
  342MOL0     H46106   5.572   6.287   1.593 -0.5798 -1.3334  0.0033
  342MOL0     H46107   5.731   6.093   1.697  0.4592 -1.1965  2.1642
  342MOL0     H46108   5.708   6.196   1.841  1.3596  1.4289 -0.9001
  342MOL0     H46109   5.539   6.035   1.854 -2.0093 -0.9745 -0.8335
  342MOL0     H46110   5.457   6.179   1.793  1.7354  2.3052  0.2786
  342MOL0     H46111   5.444   6.090   1.575  1.3873  2.7070  2.9078
  342MOL0     H46112   5.545   5.955   1.605 -0.6497  2.7080 -4.5131
  342MOL0     H46113   5.359   5.868   1.758 -0.5572 -0.7771 -0.4195
  342MOL0     H46114   5.263   6.012   1.716 -1.1388 -1.6088  0.9688
  342MOL0     H46115   5.253   5.916   1.479 -2.0616  0.3490  1.1473
  342MOL0     H46116   5.357   5.784   1.529  1.0888 -0.3118  3.6337
  342MOL0     H46117   5.065   5.835   1.619  1.4706  2.3762 -0.9117
  342MOL0     H46118   5.117   5.712   1.511  0.7788 -0.4681 -0.5691
  342MOL0     H46119   5.078   5.677   1.799 -0.2682  0.4448 -0.0758
  342MOL0     H46120   5.246   5.682   1.779 -3.3718 -0.5933  4.2388
  342MOL0     H46121   4.955   5.470   1.655  0.5367  1.3740  1.1696
  342MOL0     H46122   4.960   5.182   1.665  0.2585 -0.1679 -0.1026
  342MOL0     H46123   4.950   5.247   1.496 -0.4764  1.7659  1.2059
  342MOL0     H46124   5.153   5.052   1.621 -0.7634  0.4633  0.5432
  342MOL0     H46125   5.160   5.122   1.461 -0.5013 -2.6154 -1.5410
  342MOL0     H46126   4.923   5.021   1.415 -0.8265  0.3748  1.1482
  342MOL0     H46127   4.942   4.942   1.574  3.3245 -2.0525  1.3566
  342MOL0     H46128   5.132   4.922   1.324 -0.3548  0.3466 -0.2508
  342MOL0     H46129   5.030   4.795   1.373  0.9655  1.2157 -2.2730
  342MOL0     H46130   5.323   4.841   1.703 -1.6365  1.3946 -3.2500
  342MOL0     H46131   5.382   4.581   1.971 -2.1220 -1.5710 -2.1701
  342MOL0     H46132   5.453   4.697   1.876 -0.7239 -3.6421 -2.9086
  342MOL0     H46133   5.348   4.759   1.992 -1.6159 -0.8539  1.0003
  342MOL0     H46134   4.952   4.546   2.172 -0.0368  0.2785  0.7669
  342MOL0     H46135   4.791   4.482   2.337  1.8552 -0.8047  0.4413
  342MOL0     H46136   4.502   4.170   2.268 -1.8748  0.6066  3.0625
  342MOL0     H46137   4.649   4.080   2.309 -0.3582 -1.2780  0.6841
  342MOL0     H46138   4.598   4.110   2.546  0.1899 -1.6413 -0.2631
  342MOL0     H46139   4.448   4.198   2.503  2.2025  0.7960  1.1806
  342MOL0     H46140   4.513   3.908   2.429  2.0351  1.6110  0.7749
  342MOL0     H46141   4.364   3.992   2.384  0.3130 -0.8875 -0.0333
  342MOL0     H46142   4.395   3.847   2.626  2.3705  0.3227 -1.7828
  342MOL0     H46143   4.406   4.014   2.679  1.6580  0.0690  0.3231
  342MOL0     H46144   4.198   3.901   2.486 -1.3723  2.4193 -1.1947
  342MOL0     H46145   4.205   4.064   2.558  1.7812  0.9287  1.5819
  342MOL0     H46146   4.032   3.909   2.660  0.2606 -0.2868 -0.4625
  342MOL0     H46147   4.167   3.810   2.717  4.4351  0.9917  0.7219
  342MOL0     H46148   4.229   3.962   2.871 -0.7750  0.0512 -1.2651
  342MOL0     H46149   4.058   3.933   2.887  2.4988 -2.9241  1.9398
  342MOL0     H46150   4.192   4.184   2.759 -1.6126  1.9769  1.0838
  342MOL0     H46151   4.120   4.173   2.921  1.7808 -2.4668  1.8362
  342MOL0     H46152   4.666   4.156   2.094  1.7730 -1.0579 -0.2375
  342MOL0     H46153   4.824   4.239   1.910 -0.5944 -0.1243 -0.1859
  342MOL0     H46154   4.973   4.513   1.717  1.6752 -1.5892 -0.4143
  342MOL0     H46155   5.007   4.639   1.518  0.4656  3.7273 -1.0708
  342MOL0     H46156   6.022   6.412   1.587  3.1232  2.4886 -2.6802
  342MOL0     H46157   6.091   6.590   1.461  1.0159 -1.4049 -1.4103
  342MOL0     H46158   6.001   6.778   1.019 -0.1076  0.4219 -1.5602
  342MOL0     H46159   6.054   6.927   0.859 -1.5904  1.0911  0.1793
  342MOL0     H46160   6.147   7.134   0.708  1.2002  2.9160 -0.6869
  342MOL0     H46161   5.989   7.127   0.771  1.7060 -2.1813 -1.3738
  342MOL0     H46162   6.012   7.384   0.791  1.5789 -1.8470  1.6671
  342MOL0     H46163   5.992   7.329   0.626 -0.3180  1.6522  0.3572
  342MOL0     H46164   6.282   7.378   0.735  3.2793 -1.8287 -3.2992
  342MOL0     H46165   6.181   7.500   0.669 -2.5129 -0.5247  1.1516
  342MOL0     H46166   6.318   7.434   0.504  0.0954 -0.9524  0.7097
  342MOL0     H46167   6.147   7.369   0.468  0.1805  2.5198  0.2240
  342MOL0     H46168   6.381   7.024   0.515  0.8451  1.2218  1.1308
  342MOL0     H46169   6.188   7.223   1.129 -1.2025  1.1929  2.9713
  342MOL0     H46170   6.112   7.083   1.328  3.9328  0.6225  0.4086
  343MOL0     O46171   6.832   2.001   1.829 -0.1550  0.1741  0.0652
  343MOL0     C46172   6.717   1.969   1.866  0.1290 -0.7134  0.6571
  343MOL0     O46173   6.600   2.046   1.850  0.1435  0.0690  0.3554
  343MOL0     C46174   6.626   2.171   1.794  0.5125 -0.7943  0.2097
  343MOL0     C46175   6.601   2.185   1.656  0.1928 -0.3109 -0.1783
  343MOL0     C46176   6.601   2.311   1.602 -0.1356  0.4424  1.3528
  343MOL0     C46177   6.630   2.425   1.677 -0.4741  1.2373  0.4171
  343MOL0     O46178   6.607   2.550   1.627 -0.1812  0.0427  1.0639
  343MOL0     C46179   6.676   2.666   1.682 -0.0940  0.2202 -0.0643
  343MOL0     C46180   6.585   2.775   1.734 -0.2540 -0.3178 -0.1492
  343MOL0     C46181   6.463   2.726   1.816 -0.1751  0.2623  0.0182
  343MOL0     C46182   6.334   2.739   1.742  0.0371  0.6506 -0.4319
  343MOL0     C46183   6.216   2.680   1.818 -0.2734  0.9024 -0.2827
  343MOL0     C46184   6.144   2.785   1.903 -0.4771 -0.5258 -0.2512
  343MOL0     C46185   6.009   2.733   1.946  0.0167  0.0011  0.0660
  343MOL0     C46186   5.893   2.725   1.834 -0.1134  0.2682 -0.2017
  343MOL0     N46187   5.773   2.655   1.894 -0.5506 -0.2690  0.1572
  343MOL0     C46188   5.686   2.703   1.992 -0.4590 -1.9203  1.3807
  343MOL0     C46189   5.598   2.602   2.016 -0.2184 -0.8573 -0.3055
  343MOL0     C46190   5.475   2.600   2.094  0.4023 -0.1437  0.2551
  343MOL0     C46191   5.379   2.486   2.045  0.0777 -0.7166  0.4370
  343MOL0     C46192   5.313   2.538   1.914 -0.0936 -0.6808 -0.0749
  343MOL0     C46193   5.316   2.452   1.792 -1.1528  0.2857  0.3035
  343MOL0     O46194   5.236   2.342   1.808  0.7692 -0.1371 -0.0031
  343MOL0     C46195   5.099   2.354   1.767 -0.6044  0.0102 -0.7987
  343MOL0     C46196   5.039   2.456   1.692  0.0235 -0.2644 -0.7584
  343MOL0     C46197   4.909   2.443   1.647  0.0725 -0.0797 -0.0315
  343MOL0     C46198   4.839   2.561   1.581 -0.6061  0.6305 -0.4402
  343MOL0     C46199   4.841   2.320   1.663 -0.7171  0.2787 -0.4258
  343MOL0     C46200   4.699   2.293   1.648  0.8485  0.2243  0.0427
  343MOL0     O46201   4.619   2.362   1.735 -0.7887  0.2607 -0.2455
  343MOL0     C46202   4.484   2.348   1.729  0.1108  0.2053  0.2361
  343MOL0     C46203   4.406   2.400   1.623  0.4736 -0.3904 -0.6491
  343MOL0     C46204   4.269   2.394   1.629  0.2672 -0.9520 -0.0274
  343MOL0     C46205   4.199   2.331   1.742 -0.1799 -0.2063 -0.0730
  343MOL0     O46206   4.058   2.322   1.738 -0.2880  0.0043 -0.2543
  343MOL0     C46207   4.000   2.197   1.785 -0.2687  0.5853 -0.2459
  343MOL0     C46208   3.850   2.216   1.802 -0.5159  0.4528  0.6227
  343MOL0     C46209   3.770   2.104   1.877  0.1263  0.0606  0.2410
  343MOL0     C46210   3.623   2.102   1.842 -0.7053 -0.4939 -1.0730
  343MOL0     C46211   3.550   2.210   1.914 -0.6670 -0.4195  0.2537
  343MOL0     C46212   3.403   2.223   1.856  0.0583  0.5158 -0.5853
  343MOL0     C46213   3.325   2.329   1.951 -0.2148  0.5483 -0.3794
  343MOL0     C46214   3.246   2.283   2.075  0.7726 -0.8216  0.2321
  343MOL0    Cl46215   3.141   2.164   2.001  0.3044 -0.2098 -0.1970
  343MOL0     C46216   4.284   2.268   1.837 -0.2377 -0.4826 -0.1034
  343MOL0     C46217   4.421   2.286   1.837 -0.3187 -0.6240 -0.0633
  343MOL0     O46218   4.669   2.202   1.569  0.5593 -0.0025 -0.6028
  343MOL0     C46219   4.904   2.217   1.736  0.3252  0.0465  0.3025
  343MOL0     C46220   5.027   2.243   1.796 -0.9736  0.4506  0.1249
  343MOL0     N46221   5.639   2.498   1.945 -0.7765  0.1413 -1.2985
  343MOL0     N46222   5.736   2.537   1.857  0.0850 -0.1979  0.7087
  343MOL0     C46223   6.651   2.407   1.810  0.4071  0.4965 -1.2585
  343MOL0     C46224   6.648   2.278   1.873  0.7799 -0.5773 -0.3975
  343MOL0     C46225   6.715   1.840   1.940  0.0395 -0.3553  0.5757
  343MOL0     C46226   6.827   1.762   1.967  0.5006 -0.1336  0.3425
  343MOL0     C46227   6.826   1.653   2.043  0.4295  0.7296 -1.0018
  343MOL0     C46228   6.716   1.612   2.113 -0.0628 -0.3079 -0.5576
  343MOL0     O46229   6.724   1.512   2.209  0.3240  0.2723  0.6405
  343MOL0     C46230   6.603   1.444   2.243  0.1312 -0.5223 -0.2975
  343MOL0     C46231   6.645   1.315   2.315  0.7155 -0.5659  0.3334
  343MOL0     C46232   6.522   1.266   2.401  0.1132 -0.4261 -0.8929
  343MOL0     C46233   6.537   1.123   2.445 -0.3430  0.2751 -0.2262
  343MOL0     C46234   6.637   1.115   2.548 -0.5848 -0.3553  0.3484
  343MOL0     C46235   6.718   1.096   2.637  0.0375 -0.2809  0.3593
  343MOL0     C46236   6.600   1.681   2.084  0.6263 -0.0961 -1.2067
  343MOL0     C46237   6.595   1.790   1.998 -0.5079  0.2314 -0.6792
  343MOL0     H46238   6.596   2.101   1.587 -3.0696 -1.6144  1.4421
  343MOL0     H46239   6.573   2.317   1.497 -0.6244 -4.4501  0.9792
  343MOL0     H46240   6.748   2.644   1.761  0.8541  1.6479 -0.4814
  343MOL0     H46241   6.739   2.717   1.608  0.7459 -0.0377  0.4590
  343MOL0     H46242   6.639   2.848   1.795 -0.0072 -0.4359 -0.2215
  343MOL0     H46243   6.538   2.826   1.650  1.1493  0.6194 -0.4056
  343MOL0     H46244   6.478   2.621   1.844  0.8605  0.2473 -0.5729
  343MOL0     H46245   6.468   2.786   1.907 -0.1403  4.0941 -2.3115
  343MOL0     H46246   6.313   2.843   1.717  0.3978  0.9195  0.3402
  343MOL0     H46247   6.331   2.692   1.643 -2.6062  1.4530 -0.8079
  343MOL0     H46248   6.149   2.639   1.743  0.4806  1.3966 -1.2497
  343MOL0     H46249   6.256   2.608   1.890 -0.2224  0.9367 -0.2768
  343MOL0     H46250   6.198   2.815   1.994 -0.9727  0.1578 -0.1757
  343MOL0     H46251   6.131   2.874   1.841 -1.3770 -2.1133 -2.4609
  343MOL0     H46252   6.016   2.634   1.991  1.0598 -0.7182 -1.5873
  343MOL0     H46253   5.972   2.798   2.027  0.1907 -0.4055  0.4734
  343MOL0     H46254   5.940   2.662   1.758 -1.0361 -2.5524  1.3843
  343MOL0     H46255   5.882   2.822   1.786  1.5987 -0.1721 -1.6106
  343MOL0     H46256   5.700   2.802   2.034 -1.2250 -1.4407  0.5344
  343MOL0     H46257   5.510   2.578   2.196  1.2701 -2.0328 -0.3993
  343MOL0     H46258   5.430   2.700   2.098  1.4842  0.3251  1.7933
  343MOL0     H46259   5.302   2.476   2.123  0.0354  2.4511  0.9582
  343MOL0     H46260   5.433   2.395   2.018 -1.7254 -0.9721 -2.8216
  343MOL0     H46261   5.357   2.633   1.881  1.9394 -2.0402 -1.5513
  343MOL0     H46262   5.206   2.551   1.930  0.4099  2.2849  1.5204
  343MOL0     H46263   5.420   2.419   1.788 -2.0664 -2.7877 -0.7218
  343MOL0     H46264   5.295   2.507   1.699 -0.6997 -0.2260 -0.1112
  343MOL0     H46265   5.101   2.545   1.683  0.1003 -0.3227 -0.8034
  343MOL0     H46266   4.916   2.634   1.556  2.7529 -2.9743 -1.5166
  343MOL0     H46267   4.802   2.538   1.480 -1.3727 -0.0732 -0.0126
  343MOL0     H46268   4.758   2.599   1.644 -0.1487 -2.7770  2.4641
  343MOL0     H46269   4.457   2.447   1.540  1.1125  1.2162  0.6100
  343MOL0     H46270   4.211   2.442   1.552  2.1557 -1.8267 -2.0923
  343MOL0     H46271   4.016   2.117   1.712 -1.1866 -0.6703  0.8926
  343MOL0     H46272   4.048   2.160   1.876 -0.6572 -1.5984 -0.8631
  343MOL0     H46273   3.834   2.315   1.846 -1.1207  0.2388  0.8929
  343MOL0     H46274   3.800   2.225   1.705 -0.1125 -0.6361  0.2975
  343MOL0     H46275   3.792   2.113   1.984  1.2669 -0.9814  0.1258
  343MOL0     H46276   3.823   2.015   1.841  1.0643  1.0256 -0.8327
  343MOL0     H46277   3.603   2.126   1.737  0.0392  0.4204 -1.0217
  343MOL0     H46278   3.586   2.003   1.868  1.7807 -1.2227  0.0165
  343MOL0     H46279   3.601   2.306   1.897 -0.4574 -0.8640 -1.9323
  343MOL0     H46280   3.541   2.187   2.020 -1.7844  0.2037  0.3098
  343MOL0     H46281   3.408   2.250   1.750 -3.0602  2.1307 -0.4561
  343MOL0     H46282   3.351   2.127   1.859  2.6574 -0.9683  2.5954
  343MOL0     H46283   3.256   2.387   1.888  2.5051  0.8915 -3.2891
  343MOL0     H46284   3.391   2.408   1.987  0.4420 -0.0291 -0.3017
  343MOL0     H46285   3.190   2.366   2.119  1.3170 -0.9239  1.1476
  343MOL0     H46286   3.304   2.247   2.161  0.7397 -0.8304  0.2508
  343MOL0     H46287   4.243   2.215   1.922 -1.8556  0.6736 -0.1236
  343MOL0     H46288   4.485   2.261   1.921 -1.0523 -0.2239  0.6265
  343MOL0     H46289   4.849   2.124   1.747  0.4172  0.1504  1.8757
  343MOL0     H46290   5.075   2.164   1.853 -0.5491 -0.6690 -1.6957
  343MOL0     H46291   6.655   2.490   1.879 -0.0773 -0.5891  0.1156
  343MOL0     H46292   6.666   2.278   1.980  0.5914  2.9486 -0.2482
  343MOL0     H46293   6.923   1.791   1.925  0.4156 -1.6738 -0.9948
  343MOL0     H46294   6.908   1.582   2.048 -0.1698  0.0027 -1.2352
  343MOL0     H46295   6.566   1.508   2.324  3.7541  0.3384  0.8527
  343MOL0     H46296   6.527   1.438   2.164  0.4768 -0.7312 -0.6155
  343MOL0     H46297   6.736   1.335   2.372  1.0033 -0.4070 -0.1757
  343MOL0     H46298   6.663   1.236   2.241  0.5940  1.1502 -1.6252
  343MOL0     H46299   6.423   1.275   2.355 -0.4183 -0.6663  0.1870
  343MOL0     H46300   6.511   1.334   2.486 -1.2652 -1.1778 -0.4352
  343MOL0     H46301   6.557   1.050   2.366  0.8557  0.5483 -0.1910
  343MOL0     H46302   6.447   1.082   2.492  0.4149 -0.8696  0.2886
  343MOL0     H46303   6.777   1.068   2.722 -1.0684 -3.0251  0.3215
  343MOL0     H46304   6.506   1.664   2.137  1.0944  2.5606  0.6281
  343MOL0     H46305   6.494   1.828   1.992 -0.6550 -0.0318  0.0514
  344MOL0     O46306   2.068  10.955   7.120 -0.0519 -0.2885 -0.0580
  344MOL0     C46307   2.122  10.851   7.106 -0.2111  0.3101 -0.1446
  344MOL0     O46308   2.079  10.753   7.032 -0.3734 -0.3127  0.2339
  344MOL0     C46309   1.963  10.756   6.967 -0.7668  0.6076  0.6019
  344MOL0     C46310   1.953  10.723   6.830  0.2694  0.2941  0.3566
  344MOL0     C46311   1.818  10.695   6.772 -1.4483  0.4956 -0.1859
  344MOL0     C46312   1.709  10.702   6.853  0.2348  0.5588  0.2317
  344MOL0     O46313   1.588  10.664   6.792  0.4861 -0.2873 -0.4734
  344MOL0     C46314   1.508  10.784   6.755  0.1404  0.4509  0.2358
  344MOL0     C46315   1.495  10.791   6.602 -0.2651  0.0958  0.0224
  344MOL0     C46316   1.429  10.920   6.559 -0.4789  0.4442 -0.2698
  344MOL0     C46317   1.284  10.933   6.606  1.0040  0.2089  0.4415
  344MOL0     C46318   1.206  11.050   6.554  0.3602  0.4555  0.5831
  344MOL0     C46319   1.069  11.046   6.625  0.8649  0.1247  0.3105
  344MOL0     C46320   0.955  10.961   6.566 -0.0009 -0.3098  0.1799
  344MOL0     C46321   0.903  10.993   6.425  0.3996 -0.3067 -0.3652
  344MOL0     N46322   0.845  11.121   6.429  0.5511 -0.1807 -0.5452
  344MOL0     C46323   0.718  11.152   6.480  0.4012  0.6116  0.2944
  344MOL0     C46324   0.720  11.288   6.497 -0.5806  0.2497 -0.1629
  344MOL0     C46325   0.609  11.374   6.553  0.4978  0.4698  0.1364
  344MOL0     C46326   0.555  11.448   6.426 -0.1491 -0.3757 -0.1513
  344MOL0     C46327   0.479  11.348   6.328  0.0880  0.0631  0.0947
  344MOL0     C46328   0.346  11.286   6.379  0.4029  0.3317 -0.6223
  344MOL0     O46329   0.277  11.391   6.446  0.5724  0.1005  0.5486
  344MOL0     C46330   0.143  11.405   6.420  0.4334  0.5859  0.9764
  344MOL0     C46331   0.090  11.420   6.289 -0.6472  1.6737  0.1745
  344MOL0     C46332  -0.049  11.416   6.268 -0.3460 -0.0299 -0.4272
  344MOL0     C46333  -0.099  11.439   6.123  0.5903  0.2559 -0.3623
  344MOL0     C46334  -0.134  11.385   6.377 -0.8803 -0.7687  0.2278
  344MOL0     C46335  -0.286  11.379   6.371  0.8187 -1.0686 -0.3582
  344MOL0     O46336  -0.336  11.295   6.464 -0.2898  0.5146  0.4007
  344MOL0     C46337  -0.473  11.304   6.506 -0.7747  0.3859 -1.1190
  344MOL0     C46338  -0.573  11.392   6.469  0.0443  0.2653  0.4136
  344MOL0     C46339  -0.705  11.377   6.501  0.7099 -0.0995 -0.3032
  344MOL0     C46340  -0.754  11.264   6.564 -0.4876  0.7057  0.7492
  344MOL0     O46341  -0.889  11.245   6.588 -0.4143 -0.0275 -0.3282
  344MOL0     C46342  -0.946  11.119   6.542 -0.0629  0.1481  0.6745
  344MOL0     C46343  -1.020  11.057   6.666 -0.1602 -0.0440  0.5521
  344MOL0     C46344  -1.131  11.144   6.708 -0.3983 -0.6687  0.4197
  344MOL0     C46345  -1.264  11.111   6.638  0.5154  0.1437  0.2364
  344MOL0     C46346  -1.358  11.234   6.626 -0.2848  0.6738 -0.1305
  344MOL0     C46347  -1.497  11.197   6.585  0.1072 -0.2424 -0.3759
  344MOL0     C46348  -1.572  11.324   6.533 -0.1104 -0.0033 -0.4249
  344MOL0     C46349  -1.701  11.302   6.462  1.1654  0.3209 -0.1768
  344MOL0    Cl46350  -1.750  11.452   6.384  0.1127  0.4530 -0.0699
  344MOL0     C46351  -0.661  11.167   6.593  0.3020  0.2210 -1.0945
  344MOL0     C46352  -0.524  11.186   6.566  0.2471  0.4990  0.0465
  344MOL0     O46353  -0.346  11.451   6.292  0.0926  0.0131  0.5327
  344MOL0     C46354  -0.077  11.383   6.511  0.2214  1.1133  0.4289
  344MOL0     C46355   0.056  11.399   6.529 -0.0741  0.7073 -0.5479
  344MOL0     N46356   0.843  11.342   6.448 -0.1423  0.3159 -0.0496
  344MOL0     N46357   0.910  11.241   6.411 -0.2882  0.2173  1.0016
  344MOL0     C46358   1.725  10.730   6.989 -0.0459  0.7034  0.3778
  344MOL0     C46359   1.848  10.755   7.050 -0.4444 -0.4924  0.4064
  344MOL0     C46360   2.248  10.845   7.182 -0.1531 -0.4667  0.0436
  344MOL0     C46361   2.363  10.775   7.138 -0.1473  0.7230  0.7013
  344MOL0     C46362   2.481  10.768   7.218  0.0969 -0.5872  0.2383
  344MOL0     C46363   2.492  10.843   7.335 -0.2361 -0.5724 -0.0897
  344MOL0     O46364   2.601  10.878   7.409 -0.0623  0.4286  0.7789
  344MOL0     C46365   2.716  10.789   7.417  1.1171  0.1576  0.3152
  344MOL0     C46366   2.806  10.830   7.524  0.6074  0.4017 -0.7100
  344MOL0     C46367   2.875  10.961   7.510  0.9987 -0.3218  0.0247
  344MOL0     C46368   2.902  11.040   7.639  0.1513  0.4726  0.7080
  344MOL0     C46369   2.986  10.948   7.724  1.2118 -0.0788 -0.6164
  344MOL0     C46370   3.063  10.894   7.796 -0.4143  0.3956  0.3596
  344MOL0     C46371   2.380  10.926   7.372 -0.0744 -0.0352  0.4221
  344MOL0     C46372   2.258  10.917   7.301  0.1881  0.1788 -0.0440
  344MOL0     H46373   2.035  10.711   6.761  0.9339  0.4682  1.1016
  344MOL0     H46374   1.811  10.666   6.667  1.5659  0.7136 -0.5630
  344MOL0     H46375   1.409  10.781   6.801  0.0968 -1.6994  0.0995
  344MOL0     H46376   1.562  10.872   6.790 -1.5398  1.2209  1.0278
  344MOL0     H46377   1.595  10.784   6.557 -0.9914  2.3455 -2.2327
  344MOL0     H46378   1.440  10.703   6.568  0.8169 -0.7691  0.4484
  344MOL0     H46379   1.487  11.001   6.603  1.6690 -0.1627 -1.7862
  344MOL0     H46380   1.431  10.926   6.449 -1.0664  2.4009 -0.2027
  344MOL0     H46381   1.230  10.840   6.584  0.1084  0.8895 -0.3207
  344MOL0     H46382   1.290  10.937   6.715  0.4149 -1.3818  0.5597
  344MOL0     H46383   1.269  11.136   6.580  1.3857  0.1191 -0.6804
  344MOL0     H46384   1.196  11.044   6.445 -3.6049 -1.0378  0.8716
  344MOL0     H46385   1.085  11.012   6.727  2.6761  0.2513  0.1048
  344MOL0     H46386   1.033  11.149   6.632 -1.8634 -0.7689  0.4820
  344MOL0     H46387   0.983  10.856   6.570  0.7009 -0.1057  2.8525
  344MOL0     H46388   0.866  10.979   6.627  0.2577  4.1201 -0.4298
  344MOL0     H46389   0.831  10.918   6.392 -0.8286  0.1894  1.0906
  344MOL0     H46390   0.977  10.994   6.344 -1.0004  0.9688 -1.6928
  344MOL0     H46391   0.628  11.096   6.505 -0.2810  1.9227  0.8853
  344MOL0     H46392   0.526  11.330   6.609 -0.0478  1.0472 -0.2024
  344MOL0     H46393   0.653  11.450   6.619 -0.0013  0.7578  0.1481
  344MOL0     H46394   0.631  11.500   6.368 -1.4753  1.9544  0.0667
  344MOL0     H46395   0.480  11.526   6.444  0.4774  0.7460 -2.1290
  344MOL0     H46396   0.548  11.276   6.283 -0.0282 -0.2364  0.3913
  344MOL0     H46397   0.442  11.400   6.239 -1.2876 -3.0969 -1.3679
  344MOL0     H46398   0.368  11.215   6.459 -1.5902 -1.8140 -1.8650
  344MOL0     H46399   0.298  11.236   6.294  0.4892 -2.6498  0.9302
  344MOL0     H46400   0.167  11.421   6.212  0.1961 -0.4379  0.9324
  344MOL0     H46401  -0.147  11.537   6.117  2.1733  1.1571  0.7538
  344MOL0     H46402  -0.032  11.439   6.037 -1.6174  2.6382 -2.2801
  344MOL0     H46403  -0.169  11.357   6.108  2.8627 -2.4400  2.4949
  344MOL0     H46404  -0.544  11.482   6.416 -1.4561 -0.8241 -2.4555
  344MOL0     H46405  -0.782  11.450   6.477  0.3194 -0.4100 -0.0115
  344MOL0     H46406  -1.031  11.132   6.474 -1.2267 -4.4628  0.9532
  344MOL0     H46407  -0.872  11.045   6.512  1.1112  1.9742 -1.2357
  344MOL0     H46408  -1.041  10.952   6.645 -2.0701  0.3075  0.4426
  344MOL0     H46409  -0.943  11.054   6.743  0.4416  0.3539 -0.0163
  344MOL0     H46410  -1.119  11.253   6.713 -3.7574 -0.2230  2.4508
  344MOL0     H46411  -1.156  11.116   6.811  0.8793 -0.2981  0.8514
  344MOL0     H46412  -1.247  11.068   6.540 -0.4931  1.7954 -0.7202
  344MOL0     H46413  -1.313  11.028   6.690  2.0236 -2.1270 -1.7596
  344MOL0     H46414  -1.324  11.293   6.540  2.3805 -1.2076 -0.5044
  344MOL0     H46415  -1.349  11.287   6.721  3.0562 -0.1204  0.1174
  344MOL0     H46416  -1.496  11.116   6.512  1.8874 -1.0149  0.4605
  344MOL0     H46417  -1.551  11.157   6.671  0.2714  0.8075  0.2307
  344MOL0     H46418  -1.502  11.390   6.480 -1.2352  1.8740  0.3578
  344MOL0     H46419  -1.594  11.366   6.631  1.1413 -0.6766  0.1831
  344MOL0     H46420  -1.770  11.253   6.530  1.7618  1.6289  1.4518
  344MOL0     H46421  -1.684  11.227   6.384  2.3779 -0.6047  0.9220
  344MOL0     H46422  -0.688  11.079   6.650  2.0908 -0.3661 -1.0675
  344MOL0     H46423  -0.456  11.103   6.588  0.2111  0.0966 -1.2667
  344MOL0     H46424  -0.139  11.361   6.597 -2.1271  2.4781 -0.8012
  344MOL0     H46425   0.082  11.394   6.634 -0.5598 -0.6446 -0.4631
  344MOL0     H46426   1.633  10.718   7.046 -0.1985  2.0919  0.4709
  344MOL0     H46427   1.849  10.770   7.157  0.2668  0.9103  0.2168
  344MOL0     H46428   2.364  10.718   7.045 -0.5439  0.2546  0.9819
  344MOL0     H46429   2.567  10.712   7.184 -1.2458 -3.2500  0.9857
  344MOL0     H46430   2.682  10.687   7.437  0.8724  0.1968  0.1049
  344MOL0     H46431   2.762  10.768   7.320 -1.9492 -1.8726 -0.8817
  344MOL0     H46432   2.881  10.753   7.546  1.8803  2.2506  1.8811
  344MOL0     H46433   2.747  10.828   7.616  2.1367 -0.7404  0.2957
  344MOL0     H46434   2.834  11.018   7.426  2.4279  1.6323  0.5846
  344MOL0     H46435   2.973  10.952   7.461  1.0321  1.3488 -0.2760
  344MOL0     H46436   2.804  11.058   7.685 -1.3789 -1.5120 -1.5539
  344MOL0     H46437   2.945  11.139   7.622  2.2233 -0.3615  0.7842
  344MOL0     H46438   3.128  10.841   7.863  0.8129  0.5048 -0.7184
  344MOL0     H46439   2.385  11.000   7.451 -1.7647  2.0602 -1.2970
  344MOL0     H46440   2.177  10.985   7.326  0.1032  1.3708 -3.0911
  345MOL0     O46441   1.106   5.931   9.739  0.3911  0.1043  0.1391
  345MOL0     C46442   1.149   5.909   9.626 -0.4853  0.0333 -0.3574
  345MOL0     O46443   1.084   5.830   9.524  0.3873 -0.0458 -0.0373
  345MOL0     C46444   0.956   5.802   9.557 -0.1871 -0.4788 -0.0960
  345MOL0     C46445   0.851   5.842   9.480  0.8182  0.2383  0.7486
  345MOL0     C46446   0.718   5.819   9.502  0.4679  0.5976  0.9257
  345MOL0     C46447   0.687   5.730   9.606  0.0943 -0.4720  0.2404
  345MOL0     O46448   0.560   5.684   9.634 -0.6396  0.4379 -0.6853
  345MOL0     C46449   0.453   5.722   9.558 -0.2190  0.1753  0.0976
  345MOL0     C46450   0.443   5.623   9.428  0.8660 -0.4091  0.5031
  345MOL0     C46451   0.395   5.482   9.454  0.5129  0.1608  1.1093
  345MOL0     C46452   0.519   5.385   9.442 -0.7018  0.0957  0.1136
  345MOL0     C46453   0.501   5.235   9.461 -0.2546  0.1244  0.3642
  345MOL0     C46454   0.377   5.190   9.387 -0.5151  1.1720 -0.2618
  345MOL0     C46455   0.374   5.211   9.232 -0.6926 -0.3770 -0.8344
  345MOL0     C46456   0.254   5.137   9.169 -0.8051  0.3725 -1.3128
  345MOL0     N46457   0.139   5.231   9.157 -0.7348  0.7116 -0.0789
  345MOL0     C46458   0.067   5.277   9.269 -1.2429  0.3388  0.3731
  345MOL0     C46459  -0.011   5.370   9.209  0.0944  0.6198 -0.3416
  345MOL0     C46460  -0.120   5.436   9.283  0.8929  0.4831 -0.5700
  345MOL0     C46461  -0.090   5.585   9.284  0.6514  0.4226 -0.6463
  345MOL0     C46462  -0.210   5.665   9.357 -0.0545 -0.4553 -0.5892
  345MOL0     C46463  -0.307   5.707   9.255 -0.1127 -0.2615 -0.0724
  345MOL0     O46464  -0.424   5.758   9.327  0.6932  0.7115  0.4523
  345MOL0     C46465  -0.525   5.822   9.261 -0.0562  0.2280 -1.3121
  345MOL0     C46466  -0.510   5.887   9.146 -0.5879 -0.0930  0.2745
  345MOL0     C46467  -0.609   5.976   9.102 -0.6005 -0.3971  0.5925
  345MOL0     C46468  -0.579   6.025   8.961 -0.3671  0.7051  0.1624
  345MOL0     C46469  -0.726   6.008   9.175 -1.0354 -0.1343 -0.2933
  345MOL0     C46470  -0.834   6.099   9.136  0.0256 -0.7230  0.7173
  345MOL0     O46471  -0.926   6.135   9.227  0.1853 -1.1634 -0.5086
  345MOL0     C46472  -1.050   6.189   9.197  0.0280 -0.2550 -0.0459
  345MOL0     C46473  -1.142   6.153   9.093  0.3180 -0.2637  0.1236
  345MOL0     C46474  -1.262   6.215   9.060  0.7730  0.1742 -0.3480
  345MOL0     C46475  -1.318   6.306   9.152 -0.5240  0.5800  0.0544
  345MOL0     O46476  -1.443   6.356   9.119 -0.5218  0.0939  0.0454
  345MOL0     C46477  -1.496   6.442   9.219  0.6240  0.5492  0.3697
  345MOL0     C46478  -1.626   6.507   9.164 -0.2872 -0.1981 -0.3062
  345MOL0     C46479  -1.623   6.570   9.034 -0.8297  0.0495 -0.0168
  345MOL0     C46480  -1.513   6.677   9.026 -0.3857 -0.2306 -0.6592
  345MOL0     C46481  -1.494   6.724   8.881  0.8057 -0.3209 -0.2500
  345MOL0     C46482  -1.581   6.841   8.853  0.9714 -0.4406 -0.0026
  345MOL0     C46483  -1.535   6.903   8.721 -0.5203  0.1591  0.0350
  345MOL0     C46484  -1.628   7.013   8.675  0.1300  0.4066  0.1477
  345MOL0    Cl46485  -1.659   7.128   8.806  0.0051  0.3149 -0.0584
  345MOL0     C46486  -1.244   6.330   9.277  0.4180 -0.1732  0.0555
  345MOL0     C46487  -1.110   6.273   9.286 -0.0412  0.2064 -0.7559
  345MOL0     O46488  -0.819   6.153   9.028 -0.2935 -0.2799  0.0219
  345MOL0     C46489  -0.743   5.922   9.286 -0.4809 -0.0874  0.3577
  345MOL0     C46490  -0.653   5.822   9.331 -0.0860  0.1380 -0.2984
  345MOL0     N46491   0.010   5.379   9.074  0.5974 -0.7829  0.6104
  345MOL0     N46492   0.099   5.297   9.043 -0.3709 -0.1553 -0.0621
  345MOL0     C46493   0.793   5.677   9.689 -0.8474  0.5451 -0.0906
  345MOL0     C46494   0.934   5.715   9.666  1.0815 -0.7150 -0.3320
  345MOL0     C46495   1.276   5.965   9.594 -0.0847  0.3498  0.4878
  345MOL0     C46496   1.329   5.921   9.473 -0.1367 -0.7930  0.6097
  345MOL0     C46497   1.451   5.974   9.431 -0.1381  0.3731  0.2842
  345MOL0     C46498   1.514   6.085   9.501  0.0286 -0.5756  0.6582
  345MOL0     O46499   1.625   6.147   9.462  0.1204  0.2972 -0.2178
  345MOL0     C46500   1.715   6.079   9.378  0.1809  0.1360  0.6240
  345MOL0     C46501   1.861   6.118   9.393 -0.0874  0.6482  0.6641
  345MOL0     C46502   1.922   6.087   9.530  0.0668  0.2204  0.2842
  345MOL0     C46503   1.909   5.949   9.586 -0.7224 -0.5263  0.6273
  345MOL0     C46504   1.952   5.836   9.497 -0.0583 -0.1863 -0.0718
  345MOL0     C46505   1.969   5.744   9.413 -0.0438 -1.1814  0.1372
  345MOL0     C46506   1.463   6.124   9.627 -0.1726 -0.2306  0.2771
  345MOL0     C46507   1.340   6.072   9.662  1.2421 -0.6660 -0.5283
  345MOL0     H46508   0.874   5.898   9.390 -4.4304  2.5234  0.4483
  345MOL0     H46509   0.638   5.850   9.436  0.1309  1.0578  1.5351
  345MOL0     H46510   0.356   5.710   9.607 -0.5228  4.4959  0.9320
  345MOL0     H46511   0.463   5.829   9.538  3.3352 -0.1515 -0.4293
  345MOL0     H46512   0.363   5.675   9.375 -0.4754  0.6055  3.3408
  345MOL0     H46513   0.531   5.619   9.364 -0.3913 -0.9470 -1.2850
  345MOL0     H46514   0.354   5.474   9.555  1.8726 -1.2068  1.5995
  345MOL0     H46515   0.316   5.457   9.382  3.1815 -3.7287 -0.8748
  345MOL0     H46516   0.554   5.404   9.340  0.4209  1.1960  0.6724
  345MOL0     H46517   0.596   5.423   9.509 -1.2590  1.7900 -0.1716
  345MOL0     H46518   0.589   5.178   9.429 -0.6955 -1.6921  2.2292
  345MOL0     H46519   0.479   5.204   9.564 -1.9648 -0.0932 -0.0523
  345MOL0     H46520   0.375   5.084   9.414 -1.1409  1.7367  2.1831
  345MOL0     H46521   0.292   5.226   9.446  0.7466 -0.0860  2.5645
  345MOL0     H46522   0.368   5.317   9.207 -0.2229 -0.6216 -2.0522
  345MOL0     H46523   0.467   5.171   9.190 -1.1138 -0.1726 -2.0036
  345MOL0     H46524   0.231   5.046   9.225 -0.1345  1.9689  1.8103
  345MOL0     H46525   0.290   5.115   9.069 -0.6741  0.4819 -1.2890
  345MOL0     H46526   0.068   5.265   9.377  2.6980  1.1920  0.5898
  345MOL0     H46527  -0.220   5.421   9.241  0.4143  0.3407  0.5940
  345MOL0     H46528  -0.124   5.394   9.384  2.2651  0.7978 -0.3638
  345MOL0     H46529  -0.058   5.616   9.185 -0.6583 -3.4620 -2.4942
  345MOL0     H46530  -0.009   5.606   9.354 -0.1097 -0.1322  0.4378
  345MOL0     H46531  -0.160   5.751   9.403  1.7787 -2.5486  1.5425
  345MOL0     H46532  -0.259   5.599   9.428  0.5765  0.3498  0.6270
  345MOL0     H46533  -0.341   5.623   9.192 -2.1295  1.2998 -1.1793
  345MOL0     H46534  -0.261   5.780   9.189 -0.4936  0.3465  0.3295
  345MOL0     H46535  -0.425   5.861   9.083  0.2708  1.9993  0.4936
  345MOL0     H46536  -0.577   6.134   8.951  1.5880  0.6852  0.0947
  345MOL0     H46537  -0.478   5.993   8.934 -0.9417 -0.5338 -0.6236
  345MOL0     H46538  -0.642   5.968   8.891  0.0238 -0.4712  0.7455
  345MOL0     H46539  -1.101   6.078   9.027  1.7510 -0.5706  1.3065
  345MOL0     H46540  -1.319   6.199   8.969  1.7085  1.1857 -1.1271
  345MOL0     H46541  -1.521   6.388   9.311  0.0218 -0.7778 -0.5342
  345MOL0     H46542  -1.427   6.523   9.245  1.9046 -0.0956 -0.8822
  345MOL0     H46543  -1.709   6.436   9.162 -1.5034  1.1992 -0.6580
  345MOL0     H46544  -1.653   6.579   9.241 -1.3435 -3.4194  2.5804
  345MOL0     H46545  -1.717   6.625   9.016 -0.3016  0.8611 -0.3597
  345MOL0     H46546  -1.611   6.486   8.965 -2.6583 -0.1417 -0.1472
  345MOL0     H46547  -1.513   6.754   9.103 -0.3741 -0.6153 -0.2668
  345MOL0     H46548  -1.422   6.619   9.046 -1.9097 -3.0888 -1.3346
  345MOL0     H46549  -1.520   6.647   8.808 -0.2572  1.2675 -1.5978
  345MOL0     H46550  -1.391   6.758   8.864  0.3885 -0.2156 -2.8400
  345MOL0     H46551  -1.687   6.814   8.841  0.2513  1.0970  2.1316
  345MOL0     H46552  -1.579   6.914   8.935  0.4885 -0.3505 -0.0677
  345MOL0     H46553  -1.530   6.828   8.642  0.4142  0.9729 -0.7095
  345MOL0     H46554  -1.434   6.942   8.737  0.2577 -1.9943  0.6877
  345MOL0     H46555  -1.720   6.962   8.644 -1.1207  1.6850  1.5587
  345MOL0     H46556  -1.577   7.067   8.595 -0.0756 -1.2392 -1.1520
  345MOL0     H46557  -1.271   6.389   9.364  0.1358  0.4689 -0.4581
  345MOL0     H46558  -1.048   6.309   9.368  1.5226  0.2954 -1.9207
  345MOL0     H46559  -0.826   5.959   9.347  1.0909  1.2463  1.7781
  345MOL0     H46560  -0.667   5.766   9.423  5.4461  0.1707  0.8950
  345MOL0     H46561   0.767   5.602   9.763 -1.1444 -0.6864 -1.4001
  345MOL0     H46562   1.013   5.700   9.739  1.8253  6.8876  1.3022
  345MOL0     H46563   1.289   5.837   9.417  1.4463 -0.6789 -0.7592
  345MOL0     H46564   1.496   5.924   9.346 -1.6934  0.2053 -0.4878
  345MOL0     H46565   1.708   5.971   9.399  1.0618 -0.1115 -0.2932
  345MOL0     H46566   1.687   6.105   9.276 -1.1905  6.7255  2.2523
  345MOL0     H46567   1.864   6.222   9.359  0.9350 -0.1375 -1.8754
  345MOL0     H46568   1.920   6.061   9.321  1.0278  1.8244  0.6291
  345MOL0     H46569   1.859   6.151   9.593 -0.8175  1.2736 -1.5821
  345MOL0     H46570   2.029   6.112   9.528  0.2944 -0.7128 -1.8003
  345MOL0     H46571   1.802   5.937   9.607 -1.0267 -3.0437 -1.8216
  345MOL0     H46572   1.947   5.951   9.689  0.4135 -2.0887  0.2781
  345MOL0     H46573   1.997   5.671   9.340  1.8979 -0.8398  0.4844
  345MOL0     H46574   1.517   6.194   9.689 -0.2434 -0.1230  0.2182
  345MOL0     H46575   1.297   6.109   9.754  1.5647 -0.0132 -0.6311
  346MOL0     O46576   8.471   5.518   4.138  0.4988 -0.0926 -0.1789
  346MOL0     C46577   8.368   5.579   4.169  0.0764  0.1723  0.5934
  346MOL0     O46578   8.366   5.690   4.245 -0.4886 -0.6789  0.0578
  346MOL0     C46579   8.488   5.721   4.303  0.0086  0.1878 -0.0218
  346MOL0     C46580   8.497   5.707   4.442  0.2969 -0.1241  0.5166
  346MOL0     C46581   8.616   5.742   4.506  1.1015 -0.4826 -0.3099
  346MOL0     C46582   8.724   5.784   4.431  0.4784  0.5321  1.0200
  346MOL0     O46583   8.837   5.827   4.489 -0.0564  0.5828  0.0898
  346MOL0     C46584   8.923   5.915   4.419 -0.2612  0.0453  0.3523
  346MOL0     C46585   8.863   6.048   4.374 -0.0691 -0.1669 -0.0094
  346MOL0     C46586   8.766   6.114   4.476  0.1642 -0.4548  0.2448
  346MOL0     C46587   8.695   6.243   4.406  0.2498 -0.1548 -0.5630
  346MOL0     C46588   8.633   6.323   4.523 -0.0346 -0.0784 -0.8200
  346MOL0     C46589   8.522   6.417   4.473 -0.5582  0.0239  0.7565
  346MOL0     C46590   8.451   6.492   4.585 -0.0825  0.0133 -0.2704
  346MOL0     C46591   8.344   6.583   4.522 -0.1536  0.3849 -0.5285
  346MOL0     N46592   8.238   6.635   4.620  0.3539 -0.3557  0.6416
  346MOL0     C46593   8.262   6.672   4.747  0.3576  0.0427 -1.0078
  346MOL0     C46594   8.135   6.680   4.805 -0.0709  0.0526  0.1227
  346MOL0     C46595   8.122   6.741   4.949  0.1851 -0.0272 -0.1600
  346MOL0     C46596   7.981   6.762   4.994 -0.5367  0.4954 -0.5568
  346MOL0     C46597   7.950   6.796   5.141 -0.1224  0.0611 -1.1395
  346MOL0     C46598   8.012   6.922   5.188  0.7637 -0.3815 -0.6994
  346MOL0     O46599   7.982   7.052   5.113  0.0575  0.3593  0.0673
  346MOL0     C46600   7.862   7.109   5.119  0.7667 -0.1522 -0.5416
  346MOL0     C46601   7.839   7.205   5.018 -0.2873  0.7637 -0.4530
  346MOL0     C46602   7.726   7.283   5.014 -0.0097  0.4310  0.8015
  346MOL0     C46603   7.734   7.388   4.914  0.1607  0.7253 -0.5445
  346MOL0     C46604   7.620   7.260   5.108  0.5844  0.6733 -0.0718
  346MOL0     C46605   7.494   7.343   5.119  0.2236  0.8904  0.7832
  346MOL0     O46606   7.398   7.293   5.205 -0.0289  0.2164  0.3796
  346MOL0     C46607   7.305   7.374   5.252 -0.1559 -0.7246  0.2115
  346MOL0     C46608   7.195   7.399   5.170 -0.6571  0.3764  0.0091
  346MOL0     C46609   7.088   7.473   5.216 -0.3111 -0.3063  0.2309
  346MOL0     C46610   7.078   7.517   5.345  0.3396 -0.1572  0.0181
  346MOL0     O46611   6.967   7.593   5.370 -0.0456 -0.4346  0.8254
  346MOL0     C46612   6.920   7.614   5.506  0.2184 -0.4494 -1.2416
  346MOL0     C46613   6.771   7.658   5.488 -1.1151 -0.4031  0.0566
  346MOL0     C46614   6.717   7.679   5.629  0.2970 -0.2808 -0.5471
  346MOL0     C46615   6.566   7.727   5.608  0.4388  0.2233 -1.2312
  346MOL0     C46616   6.482   7.679   5.716  0.3504 -0.4848 -0.4266
  346MOL0     C46617   6.336   7.713   5.676  0.7646 -0.3797 -0.4995
  346MOL0     C46618   6.252   7.695   5.800  0.1690  0.0457  0.2973
  346MOL0     C46619   6.103   7.733   5.766 -0.5795 -0.6313  0.8797
  346MOL0    Cl46620   6.034   7.590   5.693 -0.6113 -0.4901 -0.4282
  346MOL0     C46621   7.188   7.497   5.432 -0.4851  0.3686  0.5877
  346MOL0     C46622   7.299   7.424   5.387 -0.4525  0.7760 -0.1396
  346MOL0     O46623   7.492   7.451   5.062 -0.9023  0.2166  0.7382
  346MOL0     C46624   7.641   7.155   5.201  0.1552  0.2883 -1.0836
  346MOL0     C46625   7.756   7.083   5.200  0.5903  0.1805  0.4643
  346MOL0     N46626   8.044   6.649   4.700  0.2827  0.6235  0.2200
  346MOL0     N46627   8.104   6.615   4.594 -0.7210  0.2600 -0.4148
  346MOL0     C46628   8.721   5.769   4.292  0.0876  0.6007 -0.3294
  346MOL0     C46629   8.599   5.754   4.225 -0.3637  0.8616 -0.1460
  346MOL0     C46630   8.251   5.523   4.102  0.4078 -1.2267 -0.2738
  346MOL0     C46631   8.249   5.414   4.018  0.1266 -0.0095 -0.3264
  346MOL0     C46632   8.135   5.359   3.959 -0.4523 -0.4607  0.2478
  346MOL0     C46633   8.010   5.421   3.980  0.7615  1.0186 -0.4234
  346MOL0     O46634   7.898   5.367   3.922 -0.9685 -0.3298 -0.9013
  346MOL0     C46635   7.769   5.390   3.966  1.5608 -0.3066 -0.1003
  346MOL0     C46636   7.707   5.492   3.869  0.2038 -0.7555  0.3004
  346MOL0     C46637   7.687   5.433   3.734 -0.2990 -0.3773 -0.1113
  346MOL0     C46638   7.539   5.369   3.710  0.2751 -0.3952  0.4026
  346MOL0     C46639   7.507   5.358   3.570  0.5701 -0.5431 -0.1723
  346MOL0     C46640   7.487   5.342   3.452  0.5668 -0.0242  0.0646
  346MOL0     C46641   8.009   5.535   4.057  0.1155  0.1725  0.1398
  346MOL0     C46642   8.126   5.592   4.116 -0.5097 -0.2557 -0.8367
  346MOL0     H46643   8.418   5.673   4.508  0.0991 -3.6444 -1.3151
  346MOL0     H46644   8.621   5.720   4.612  0.8935 -2.1381 -0.6185
  346MOL0     H46645   9.001   5.951   4.486  0.5610  0.1623 -0.6418
  346MOL0     H46646   8.986   5.862   4.347 -0.8457  0.3627 -0.4105
  346MOL0     H46647   8.946   6.114   4.347  0.4854 -0.0690  1.8411
  346MOL0     H46648   8.799   6.038   4.286  0.3223 -0.0612 -0.3080
  346MOL0     H46649   8.687   6.041   4.497 -0.0779  0.4106  2.5685
  346MOL0     H46650   8.812   6.146   4.570 -1.8955 -0.3428  1.2914
  346MOL0     H46651   8.774   6.303   4.360  0.5825 -0.8476 -0.9151
  346MOL0     H46652   8.619   6.219   4.331 -0.3474  0.6558 -0.2263
  346MOL0     H46653   8.584   6.242   4.578  1.2503 -0.9033 -0.8539
  346MOL0     H46654   8.700   6.369   4.595 -2.5037  0.7973  1.0455
  346MOL0     H46655   8.581   6.481   4.406  0.4524 -2.6240 -1.0503
  346MOL0     H46656   8.448   6.360   4.417 -0.7777 -0.2840  1.3557
  346MOL0     H46657   8.414   6.408   4.645 -1.7494  0.0379 -1.2009
  346MOL0     H46658   8.519   6.545   4.652  2.1995 -2.6896 -0.2561
  346MOL0     H46659   8.293   6.540   4.435 -2.0558  2.9819 -0.8427
  346MOL0     H46660   8.394   6.669   4.477 -0.8459  0.6263 -0.8539
  346MOL0     H46661   8.357   6.685   4.798 -0.4899 -2.3467  1.3809
  346MOL0     H46662   8.165   6.664   5.013  0.5639 -0.3840 -0.8331
  346MOL0     H46663   8.176   6.835   4.962 -1.3264  0.7671  0.6253
  346MOL0     H46664   7.940   6.664   4.970  1.0516 -0.9834  2.2684
  346MOL0     H46665   7.940   6.838   4.927  0.8183  2.3708  0.6416
  346MOL0     H46666   7.994   6.714   5.199  0.6337  0.7405 -0.7359
  346MOL0     H46667   7.843   6.788   5.158  0.2177 -3.1322  0.1948
  346MOL0     H46668   8.116   6.894   5.207  0.6177 -1.2239 -1.1082
  346MOL0     H46669   7.982   6.939   5.292 -0.8320  0.9591 -1.3162
  346MOL0     H46670   7.923   7.213   4.950 -0.6328  0.5689 -0.8989
  346MOL0     H46671   7.763   7.478   4.969  2.0453 -0.3036  0.2243
  346MOL0     H46672   7.803   7.366   4.832  1.0545  1.6835 -0.0673
  346MOL0     H46673   7.634   7.401   4.871 -0.1569 -1.1812 -0.4859
  346MOL0     H46674   7.193   7.362   5.068 -2.1104  0.6492 -0.0775
  346MOL0     H46675   7.012   7.494   5.141  0.7052  0.0067 -0.7269
  346MOL0     H46676   6.927   7.526   5.569 -1.8180 -0.1485 -0.5266
  346MOL0     H46677   6.984   7.688   5.554  0.6089 -1.6352  0.1137
  346MOL0     H46678   6.767   7.748   5.426  0.1663 -0.5273 -0.2401
  346MOL0     H46679   6.724   7.576   5.434 -0.5311  0.0763 -1.2255
  346MOL0     H46680   6.774   7.754   5.684  0.3584  1.3161 -2.6550
  346MOL0     H46681   6.724   7.589   5.691 -1.7264 -0.5838 -0.6832
  346MOL0     H46682   6.576   7.836   5.607  0.8909  0.3106  2.4208
  346MOL0     H46683   6.519   7.686   5.518 -1.3259  0.0921 -0.3045
  346MOL0     H46684   6.525   7.713   5.811  2.6182 -0.5610 -1.3613
  346MOL0     H46685   6.495   7.570   5.725 -0.6636 -0.5237  1.1487
  346MOL0     H46686   6.331   7.816   5.640  0.8391 -0.1889  0.0270
  346MOL0     H46687   6.289   7.649   5.601  1.4459 -0.0880 -1.1974
  346MOL0     H46688   6.282   7.769   5.875 -0.8694  1.8542 -0.9910
  346MOL0     H46689   6.250   7.592   5.838  0.0960  0.1393  0.5514
  346MOL0     H46690   6.093   7.821   5.702 -1.9520 -0.0332  1.8672
  346MOL0     H46691   6.044   7.760   5.854 -2.5333 -2.3222  0.1623
  346MOL0     H46692   7.171   7.523   5.536  1.8918 -1.3799  1.4988
  346MOL0     H46693   7.374   7.393   5.459 -1.4849 -3.4302 -0.6138
  346MOL0     H46694   7.579   7.147   5.290 -0.0570  2.0922 -1.0352
  346MOL0     H46695   7.781   7.008   5.273  0.3357 -1.0600 -0.6793
  346MOL0     H46696   8.814   5.785   4.238  0.4033  0.4603  0.1657
  346MOL0     H46697   8.602   5.760   4.117 -0.4766 -1.2993 -0.3143
  346MOL0     H46698   8.340   5.358   4.001  0.5401  1.0583 -1.9175
  346MOL0     H46699   8.143   5.256   3.926 -2.6705 -1.3558  2.2775
  346MOL0     H46700   7.705   5.301   3.963  2.4903 -1.0217  0.7068
  346MOL0     H46701   7.759   5.433   4.065 -3.0118 -0.4030 -0.2788
  346MOL0     H46702   7.782   5.572   3.859  1.0558 -1.7033 -1.1494
  346MOL0     H46703   7.611   5.530   3.906  1.1250 -0.6375  2.8346
  346MOL0     H46704   7.755   5.349   3.718 -0.7533 -0.4913 -1.6147
  346MOL0     H46705   7.702   5.507   3.654  1.3029 -2.3604 -1.7633
  346MOL0     H46706   7.458   5.429   3.753 -0.2331 -1.1179  0.4871
  346MOL0     H46707   7.525   5.266   3.743 -1.7454 -0.7520 -1.2975
  346MOL0     H46708   7.473   5.333   3.346  3.5605  0.7212 -0.4778
  346MOL0     H46709   7.915   5.586   4.073 -0.0350 -0.0700  0.0429
  346MOL0     H46710   8.116   5.683   4.174 -0.7213 -1.1626  0.6004
  347MOL0     O46711   3.507   9.803   0.476 -0.5624 -0.3058  0.7684
  347MOL0     C46712   3.533   9.915   0.422  0.7669 -0.0915  0.3023
  347MOL0     O46713   3.437   9.993   0.356  0.3551  0.0256 -0.7858
  347MOL0     C46714   3.306   9.961   0.356 -0.0711  0.1586  0.1448
  347MOL0     C46715   3.254   9.830   0.335  0.7098 -0.8980 -0.1045
  347MOL0     C46716   3.116   9.808   0.320 -1.2744 -0.1835  0.1698
  347MOL0     C46717   3.025   9.910   0.336  0.8347  0.0751 -1.2032
  347MOL0     O46718   2.891   9.875   0.337 -0.4339  0.1277  0.3906
  347MOL0     C46719   2.801   9.933   0.425 -0.3667 -0.0934 -0.9400
  347MOL0     C46720   2.661   9.849   0.426 -0.5241 -1.4379 -0.8110
  347MOL0     C46721   2.580   9.842   0.290 -0.6187 -0.0733  0.3910
  347MOL0     C46722   2.504   9.973   0.266 -0.1797 -0.3880  0.3012
  347MOL0     C46723   2.409   9.958   0.145  0.3149 -0.2716  0.0058
  347MOL0     C46724   2.283   9.879   0.183  0.2587  0.1491  0.1130
  347MOL0     C46725   2.205   9.840   0.049 -0.0622 -0.4845 -0.9887
  347MOL0     C46726   2.153   9.955  -0.051 -0.0923 -0.5801  0.7772
  347MOL0     N46727   2.041  10.027   0.015 -1.4725 -0.2577  0.4316
  347MOL0     C46728   1.914  10.036  -0.033  0.4868 -0.3339  0.1379
  347MOL0     C46729   1.846  10.120   0.048 -0.6329  0.3362 -0.3397
  347MOL0     C46730   1.698  10.161   0.055 -0.0620 -0.3232  0.7373
  347MOL0     C46731   1.618  10.088   0.158 -0.0904  0.2107 -0.2692
  347MOL0     C46732   1.594   9.942   0.108  0.4643 -0.5062 -0.5683
  347MOL0     C46733   1.508   9.866   0.197  0.0094  0.8295 -0.1849
  347MOL0     O46734   1.384   9.936   0.199  0.1537 -0.2773 -0.0773
  347MOL0     C46735   1.265   9.867   0.207 -0.0763  0.9281 -0.1626
  347MOL0     C46736   1.154   9.944   0.236  0.2253  0.1247  1.5225
  347MOL0     C46737   1.031   9.884   0.254  0.8342  0.8901  0.2134
  347MOL0     C46738   0.918   9.969   0.298 -0.7344 -1.1417  0.0579
  347MOL0     C46739   1.013   9.743   0.248 -0.2791 -0.4869  0.3459
  347MOL0     C46740   0.887   9.659   0.266 -0.3505  0.2033  0.3192
  347MOL0     O46741   0.763   9.720   0.236 -0.0700  0.1350 -0.1939
  347MOL0     C46742   0.650   9.634   0.255 -0.6008 -0.9768  0.0804
  347MOL0     C46743   0.631   9.516   0.180  0.4314  0.6582  0.0871
  347MOL0     C46744   0.512   9.438   0.187 -0.2388 -0.0220 -0.8519
  347MOL0     C46745   0.430   9.478   0.294 -0.4670  0.2461  0.2944
  347MOL0     O46746   0.322   9.390   0.313 -0.0456 -0.1181  0.3199
  347MOL0     C46747   0.263   9.393   0.448 -0.0511  1.0053  0.1482
  347MOL0     C46748   0.148   9.291   0.456 -0.6025 -0.1114 -0.1354
  347MOL0     C46749   0.058   9.327   0.332 -0.2529 -0.5766 -0.1207
  347MOL0     C46750  -0.085   9.313   0.377 -0.1671  0.1620 -0.1250
  347MOL0     C46751  -0.181   9.317   0.254 -0.5594  0.0468  0.4012
  347MOL0     C46752  -0.191   9.451   0.176  0.3137  0.3505 -0.6662
  347MOL0     C46753  -0.283   9.439   0.057  0.1344 -0.3344  0.3449
  347MOL0     C46754  -0.270   9.547  -0.054 -0.3402 -0.4048  0.8423
  347MOL0    Cl46755  -0.414   9.525  -0.161  0.2663 -0.0007 -0.1375
  347MOL0     C46756   0.453   9.597   0.370  1.0309 -0.7622  0.5440
  347MOL0     C46757   0.555   9.685   0.347  0.0998 -0.0421  0.2324
  347MOL0     O46758   0.893   9.552   0.327 -0.2786  0.2828  0.2569
  347MOL0     C46759   1.122   9.669   0.206  0.8508  0.3621  0.4627
  347MOL0     C46760   1.250   9.727   0.184  0.1082  0.5162 -0.8057
  347MOL0     N46761   1.938  10.149   0.151 -0.4804  0.3848 -0.5832
  347MOL0     N46762   2.048  10.104   0.122  0.7495  0.9873 -0.3457
  347MOL0     C46763   3.070  10.047   0.357  0.3465  0.1208  0.0062
  347MOL0     C46764   3.216  10.067   0.352 -0.9723  0.8438 -0.5220
  347MOL0     C46765   3.670   9.965   0.421  0.3648  0.0399 -0.6458
  347MOL0     C46766   3.771   9.894   0.476 -1.1893  0.6000 -0.0562
  347MOL0     C46767   3.907   9.940   0.483 -0.0212 -0.1791 -0.5758
  347MOL0     C46768   3.935  10.072   0.435 -0.3943  0.9369 -1.4234
  347MOL0     O46769   4.050  10.138   0.459  0.0381  0.1532 -0.4378
  347MOL0     C46770   4.147  10.099   0.555 -0.5906 -0.4275  0.2584
  347MOL0     C46771   4.271  10.187   0.541 -0.1016  0.7512 -0.4566
  347MOL0     C46772   4.341  10.165   0.402 -0.0702 -0.3212  0.3335
  347MOL0     C46773   4.463  10.250   0.392 -1.6136  0.0238 -0.0142
  347MOL0     C46774   4.567  10.194   0.490  0.2498 -0.4796  0.8996
  347MOL0     C46775   4.651  10.149   0.563  1.2310 -0.3083 -0.5594
  347MOL0     C46776   3.832  10.150   0.376  0.5749  0.4332  0.0991
  347MOL0     C46777   3.703  10.089   0.362 -0.7359 -0.8928 -0.3746
  347MOL0     H46778   3.322   9.746   0.320  0.6856 -1.1014  0.8902
  347MOL0     H46779   3.078   9.708   0.302  0.0658 -0.1430 -3.9969
  347MOL0     H46780   2.840   9.946   0.526 -1.1437 -0.2785 -0.6105
  347MOL0     H46781   2.775  10.032   0.386 -0.4658  0.0414 -0.5301
  347MOL0     H46782   2.690   9.747   0.451 -2.1125 -1.8153 -0.3750
  347MOL0     H46783   2.601   9.885   0.511 -0.7362 -2.8730 -0.3221
  347MOL0     H46784   2.650   9.835   0.207  2.1922  1.5816  2.4419
  347MOL0     H46785   2.515   9.755   0.301  1.8126 -2.1250 -0.5894
  347MOL0     H46786   2.444   9.997   0.354 -0.3659 -0.4637  0.1942
  347MOL0     H46787   2.575  10.056   0.255  0.9027 -1.0520  1.8640
  347MOL0     H46788   2.380  10.059   0.116  0.5123 -0.7039 -1.7890
  347MOL0     H46789   2.461   9.911   0.061  1.9056  1.2693  0.0885
  347MOL0     H46790   2.295   9.787   0.240  0.7166 -1.1528 -1.9699
  347MOL0     H46791   2.225   9.944   0.250 -1.2206 -1.4929  0.4818
  347MOL0     H46792   2.270   9.780  -0.015  1.7286  0.1170  0.1939
  347MOL0     H46793   2.127   9.781   0.098  1.8456 -1.9769  0.4066
  347MOL0     H46794   2.117   9.912  -0.145 -0.6912  0.0779  0.7041
  347MOL0     H46795   2.230  10.027  -0.078 -0.8782  0.3968  1.1050
  347MOL0     H46796   1.881   9.988  -0.125 -2.3886  1.2081  0.2681
  347MOL0     H46797   1.693  10.269   0.074 -2.5206 -0.3721  0.5792
  347MOL0     H46798   1.646  10.149  -0.040  0.3552  1.8813  0.1643
  347MOL0     H46799   1.522  10.134   0.184 -0.5804 -2.3995  3.3264
  347MOL0     H46800   1.677  10.085   0.249  0.1756  1.9530 -0.3455
  347MOL0     H46801   1.692   9.896   0.089 -0.2695 -1.9992 -0.9076
  347MOL0     H46802   1.552   9.942   0.007 -0.9271 -0.4436 -0.0099
  347MOL0     H46803   1.560   9.861   0.294  1.3281 -0.2874 -0.9050
  347MOL0     H46804   1.498   9.761   0.166 -2.5537  1.2701 -1.0313
  347MOL0     H46805   1.150  10.052   0.225  1.4407 -0.0532 -1.9220
  347MOL0     H46806   0.849   9.928   0.372  1.6618  1.3766  4.0888
  347MOL0     H46807   0.960  10.049   0.362  2.0645 -2.9282  0.6472
  347MOL0     H46808   0.878  10.013   0.207  3.0523 -1.6288 -2.0568
  347MOL0     H46809   0.700   9.492   0.100 -0.6397 -0.2388 -0.5992
  347MOL0     H46810   0.490   9.354   0.121 -0.3208 -1.7240  1.2121
  347MOL0     H46811   0.330   9.349   0.521  0.6217  1.5642 -0.1247
  347MOL0     H46812   0.224   9.490   0.482 -1.4618  0.4031  0.3022
  347MOL0     H46813   0.192   9.192   0.441 -0.2403  0.3754 -2.7844
  347MOL0     H46814   0.096   9.286   0.552 -0.8349 -2.0419 -0.3191
  347MOL0     H46815   0.092   9.265   0.249  0.3101 -1.2442  0.5988
  347MOL0     H46816   0.070   9.426   0.287 -1.0566 -1.2678 -1.9425
  347MOL0     H46817  -0.093   9.214   0.422  0.4869 -0.3561 -1.1020
  347MOL0     H46818  -0.113   9.398   0.440  0.7485  1.1364 -0.9954
  347MOL0     H46819  -0.277   9.281   0.291  0.5788 -1.9455  1.5887
  347MOL0     H46820  -0.140   9.247   0.180  2.6909  0.3664  1.7177
  347MOL0     H46821  -0.244   9.514   0.248 -0.5726 -2.6656  1.5824
  347MOL0     H46822  -0.095   9.488   0.140  1.5588 -2.1829 -0.2128
  347MOL0     H46823  -0.389   9.438   0.087 -0.0056  0.7756 -0.0803
  347MOL0     H46824  -0.268   9.342   0.010 -0.9678 -0.1166 -0.4925
  347MOL0     H46825  -0.179   9.524  -0.109  1.7954 -1.0449  4.3047
  347MOL0     H46826  -0.267   9.653  -0.027 -1.0182 -0.4219  0.9891
  347MOL0     H46827   0.398   9.609   0.463 -0.9939 -0.0753 -0.6916
  347MOL0     H46828   0.571   9.774   0.407  1.1301  1.9424 -2.7620
  347MOL0     H46829   1.114   9.563   0.184 -0.0796  0.9825 -2.7015
  347MOL0     H46830   1.329   9.658   0.155  0.2131 -0.8112  2.2219
  347MOL0     H46831   2.994  10.121   0.380 -1.7731 -2.0829  0.5304
  347MOL0     H46832   3.253  10.168   0.367 -0.5807  0.7272 -0.6918
  347MOL0     H46833   3.744   9.803   0.529 -2.8284  1.5297  0.8008
  347MOL0     H46834   3.984   9.883   0.533  0.8308 -0.1298 -1.7885
  347MOL0     H46835   4.112  10.104   0.659  0.5903 -2.5199  0.8039
  347MOL0     H46836   4.172   9.995   0.532  0.6547  0.1020 -0.9425
  347MOL0     H46837   4.346  10.168   0.618 -0.3319  0.1817 -0.3634
  347MOL0     H46838   4.237  10.289   0.559  0.9780  0.6920  2.3333
  347MOL0     H46839   4.270  10.176   0.320 -0.1710 -1.0611  0.3134
  347MOL0     H46840   4.378  10.063   0.389  1.6226  0.2601  0.4048
  347MOL0     H46841   4.435  10.352   0.422 -2.8470 -0.5543  0.9378
  347MOL0     H46842   4.505  10.241   0.292  1.3378  2.0846  0.9032
  347MOL0     H46843   4.696  10.102   0.649 -0.0372 -0.3611  0.1053
  347MOL0     H46844   3.856  10.250   0.341 -0.6647  1.2814  1.5265
  347MOL0     H46845   3.632  10.141   0.300  2.0142  1.4225 -1.8187
  348MOL0     O46846   4.656   1.414   3.958 -0.1818 -0.3938  0.2677
  348MOL0     C46847   4.643   1.321   3.878 -0.2273  0.1426 -0.9527
  348MOL0     O46848   4.527   1.269   3.824 -0.1021 -0.0250 -0.2561
  348MOL0     C46849   4.404   1.313   3.878  0.9305 -0.5315  0.1611
  348MOL0     C46850   4.295   1.291   3.782 -0.0175  1.2853  0.0728
  348MOL0     C46851   4.162   1.314   3.826 -0.9049  0.4066  0.4468
  348MOL0     C46852   4.140   1.359   3.958  0.2549 -0.3883 -0.7579
  348MOL0     O46853   4.007   1.365   3.996  0.0519  0.1213 -0.4094
  348MOL0     C46854   3.972   1.469   4.087 -0.4371  0.2903 -0.0752
  348MOL0     C46855   3.825   1.486   4.096 -0.2471  0.1935 -0.1323
  348MOL0     C46856   3.782   1.596   4.181  0.3427 -0.0586 -0.0675
  348MOL0     C46857   3.626   1.583   4.215  0.0276  0.4920 -0.3628
  348MOL0     C46858   3.579   1.721   4.256 -0.0474  0.4212 -0.3821
  348MOL0     C46859   3.428   1.734   4.280  0.4287 -0.3943  0.2341
  348MOL0     C46860   3.373   1.870   4.268  0.2373 -0.6398 -0.8601
  348MOL0     C46861   3.226   1.872   4.322 -0.1396  0.1932  0.4820
  348MOL0     N46862   3.182   2.010   4.350 -0.1579  0.2729  0.7083
  348MOL0     C46863   3.091   2.077   4.264  0.0716  0.1872  0.1316
  348MOL0     C46864   3.045   2.182   4.334  0.4409 -0.4076  0.2779
  348MOL0     C46865   2.950   2.290   4.295 -0.1388  0.9509  0.6436
  348MOL0     C46866   2.813   2.243   4.352  0.8044  0.8721 -0.1223
  348MOL0     C46867   2.700   2.318   4.283 -0.3944  0.5526 -0.6432
  348MOL0     C46868   2.680   2.465   4.327  0.5252 -1.1784  0.0841
  348MOL0     O46869   2.625   2.473   4.453 -0.2689  0.0892 -0.3797
  348MOL0     C46870   2.489   2.480   4.447 -0.0378  0.1198 -0.8642
  348MOL0     C46871   2.439   2.500   4.573 -0.2731 -0.6387  1.2480
  348MOL0     C46872   2.307   2.499   4.605  0.4827  0.4730  0.6335
  348MOL0     C46873   2.274   2.531   4.752 -0.0893  0.1247 -0.5595
  348MOL0     C46874   2.211   2.497   4.501  0.8215  0.4916 -0.2230
  348MOL0     C46875   2.062   2.505   4.520 -0.3041  0.0499  0.3131
  348MOL0     O46876   1.981   2.513   4.408  0.0349 -0.2130 -0.5850
  348MOL0     C46877   1.849   2.550   4.422 -1.2319 -0.3651 -0.6491
  348MOL0     C46878   1.758   2.490   4.344 -0.0666  0.2474 -0.4394
  348MOL0     C46879   1.627   2.530   4.338  0.0030 -0.0816 -0.0634
  348MOL0     C46880   1.586   2.636   4.416  0.5852  0.6461  0.0884
  348MOL0     O46881   1.464   2.691   4.407  0.5885 -0.4069 -0.1255
  348MOL0     C46882   1.350   2.600   4.413 -0.3253  0.1033 -1.8942
  348MOL0     C46883   1.252   2.635   4.297 -0.0327  0.6834  1.0507
  348MOL0     C46884   1.131   2.553   4.327  0.1268  0.4049 -0.0976
  348MOL0     C46885   1.019   2.601   4.233 -0.0250  0.6580  0.1253
  348MOL0     C46886   0.917   2.491   4.194 -0.2432 -0.1303  0.2824
  348MOL0     C46887   0.839   2.521   4.065  1.1567  0.0690  0.5997
  348MOL0     C46888   0.743   2.410   4.024  0.0468  0.8373 -0.7522
  348MOL0     C46889   0.610   2.434   4.087  0.6694  0.0947  0.1490
  348MOL0    Cl46890   0.501   2.304   4.030 -0.4420 -0.1940  0.2719
  348MOL0     C46891   1.683   2.701   4.494  0.5036 -0.8094  0.3128
  348MOL0     C46892   1.819   2.668   4.490 -0.1487  0.0026 -0.6911
  348MOL0     O46893   2.021   2.495   4.630 -0.3893 -0.3883 -0.2018
  348MOL0     C46894   2.260   2.483   4.370  0.4268 -0.2201 -0.1841
  348MOL0     C46895   2.394   2.464   4.349  0.3776  0.9664  0.1320
  348MOL0     N46896   3.104   2.171   4.460  0.2310  0.1093  0.4486
  348MOL0     N46897   3.180   2.068   4.471 -1.0663 -0.2432  0.4549
  348MOL0     C46898   4.244   1.384   4.048  0.6573 -0.0385 -0.7285
  348MOL0     C46899   4.377   1.365   4.005  0.6762 -0.4375  0.9537
  348MOL0     C46900   4.762   1.254   3.825  0.2852 -0.5499 -0.6384
  348MOL0     C46901   4.887   1.289   3.879  0.0584 -0.5014 -0.4588
  348MOL0     C46902   4.997   1.225   3.825 -0.4385  0.0090  0.2823
  348MOL0     C46903   4.984   1.131   3.724 -0.4670  0.2472 -0.4712
  348MOL0     O46904   5.099   1.078   3.661  0.8179  0.0591  0.1416
  348MOL0     C46905   5.218   1.160   3.664  0.1047 -0.0107  0.2801
  348MOL0     C46906   5.333   1.111   3.576  0.2606 -0.3691  0.0681
  348MOL0     C46907   5.315   1.170   3.434  0.8139  0.3109 -0.0517
  348MOL0     C46908   5.429   1.119   3.347  0.6623  0.1613 -0.3093
  348MOL0     C46909   5.545   1.205   3.355 -0.9615  0.2503 -0.2968
  348MOL0     C46910   5.654   1.256   3.374  0.2396  0.1525 -0.1178
  348MOL0     C46911   4.858   1.097   3.680  0.2476 -0.4611 -1.4341
  348MOL0     C46912   4.746   1.164   3.719 -0.2111 -0.4444  0.1292
  348MOL0     H46913   4.311   1.264   3.678  1.4093  3.0889 -0.2131
  348MOL0     H46914   4.079   1.303   3.756 -2.7462 -1.3706  2.7108
  348MOL0     H46915   4.002   1.431   4.186  2.4675 -0.1530 -1.0334
  348MOL0     H46916   4.016   1.565   4.061 -1.1017  0.5900 -0.1048
  348MOL0     H46917   3.788   1.504   3.994  1.8178 -0.3930 -1.0346
  348MOL0     H46918   3.789   1.394   4.142 -0.7178  0.9170  1.0091
  348MOL0     H46919   3.826   1.584   4.280 -2.4471 -0.1038  1.2543
  348MOL0     H46920   3.804   1.692   4.133 -1.2409 -0.5389 -1.8647
  348MOL0     H46921   3.572   1.548   4.127 -1.8236  3.3143 -0.4564
  348MOL0     H46922   3.607   1.504   4.289 -1.2282  0.0793 -1.0969
  348MOL0     H46923   3.630   1.752   4.348 -0.4353  1.8430 -0.6241
  348MOL0     H46924   3.605   1.794   4.178  2.4171 -0.3346 -0.3696
  348MOL0     H46925   3.371   1.678   4.205 -2.1916 -1.5862  2.9113
  348MOL0     H46926   3.401   1.689   4.376 -3.0647 -1.3030 -1.0377
  348MOL0     H46927   3.436   1.930   4.336 -2.4261  2.3270 -0.7913
  348MOL0     H46928   3.380   1.909   4.166 -0.6792  2.8008  0.2354
  348MOL0     H46929   3.220   1.812   4.413  0.5755 -1.5476 -0.5711
  348MOL0     H46930   3.166   1.824   4.244  0.5160  0.9583 -0.5259
  348MOL0     H46931   3.064   2.071   4.159  0.3285  1.1449 -0.0026
  348MOL0     H46932   2.991   2.377   4.347 -2.6835  2.0378  0.9964
  348MOL0     H46933   2.950   2.300   4.186  0.2555  3.6146  0.8206
  348MOL0     H46934   2.801   2.253   4.460 -0.0991 -3.7935  0.4375
  348MOL0     H46935   2.796   2.135   4.344  2.0614  0.3006  3.4334
  348MOL0     H46936   2.608   2.270   4.317  1.1810 -0.5662  2.4987
  348MOL0     H46937   2.702   2.318   4.174  0.5148  0.5181 -0.6389
  348MOL0     H46938   2.618   2.514   4.250  1.2244 -1.6204 -0.7802
  348MOL0     H46939   2.774   2.519   4.315 -0.5511  0.2751 -2.8878
  348MOL0     H46940   2.500   2.489   4.663  1.4778  2.0463  0.5190
  348MOL0     H46941   2.206   2.616   4.743 -0.5628 -0.1091  0.6003
  348MOL0     H46942   2.232   2.453   4.816  1.1547  2.6962  3.7806
  348MOL0     H46943   2.359   2.558   4.815 -1.1243 -0.2948  1.0631
  348MOL0     H46944   1.786   2.409   4.277  1.3576  2.0590 -2.1763
  348MOL0     H46945   1.552   2.488   4.272 -0.6584  0.8847  0.0459
  348MOL0     H46946   1.383   2.497   4.399 -0.2415 -0.0684 -0.5651
  348MOL0     H46947   1.315   2.615   4.516  1.8128  0.9250 -1.2524
  348MOL0     H46948   1.221   2.740   4.303  0.1046  1.0100 -2.2386
  348MOL0     H46949   1.301   2.623   4.200 -0.2411 -2.0229  1.1847
  348MOL0     H46950   1.092   2.569   4.428  0.9906 -0.4148  0.3742
  348MOL0     H46951   1.153   2.446   4.326 -1.3959 -0.1226  4.1966
  348MOL0     H46952   0.972   2.689   4.277 -0.8828 -0.1202  0.8238
  348MOL0     H46953   1.062   2.645   4.143  2.2197  2.2771  1.8843
  348MOL0     H46954   0.849   2.484   4.279 -1.0187  0.9905 -0.2179
  348MOL0     H46955   0.974   2.401   4.170  1.8506  0.8204  1.3892
  348MOL0     H46956   0.785   2.615   4.065 -2.8480 -2.0264  0.6049
  348MOL0     H46957   0.911   2.533   3.983 -0.1737  1.3858 -0.4304
  348MOL0     H46958   0.784   2.312   4.048 -1.2888  0.7956  1.6466
  348MOL0     H46959   0.726   2.412   3.916 -0.3360 -2.4375 -0.8529
  348MOL0     H46960   0.564   2.532   4.069 -0.1496  0.0182  1.6518
  348MOL0     H46961   0.613   2.421   4.196 -1.2162  0.4891  0.2910
  348MOL0     H46962   1.653   2.782   4.560  1.2534 -0.8127  0.6731
  348MOL0     H46963   1.889   2.720   4.553  1.5431 -2.5492 -0.3075
  348MOL0     H46964   2.196   2.464   4.284 -1.1545 -1.4680  1.2150
  348MOL0     H46965   2.421   2.421   4.254 -1.3385 -4.7849  1.8350
  348MOL0     H46966   4.233   1.409   4.153  2.3946  0.1409 -0.5527
  348MOL0     H46967   4.449   1.382   4.084 -0.1025 -1.4427  1.9177
  348MOL0     H46968   4.896   1.360   3.961  0.0410 -1.8982  0.7869
  348MOL0     H46969   5.099   1.246   3.855  0.1330 -3.0873  0.8507
  348MOL0     H46970   5.194   1.267   3.653  0.1140 -0.0624 -0.2475
  348MOL0     H46971   5.248   1.151   3.769 -1.1045  0.4079  0.6863
  348MOL0     H46972   5.337   1.002   3.579  2.8218 -0.3458  0.1312
  348MOL0     H46973   5.425   1.154   3.617  1.0575  0.0464 -2.0163
  348MOL0     H46974   5.327   1.278   3.446  1.8095  0.0763  1.3802
  348MOL0     H46975   5.216   1.153   3.391 -0.0494  2.3166  1.0256
  348MOL0     H46976   5.409   1.117   3.239 -0.5298 -2.3208 -0.0988
  348MOL0     H46977   5.453   1.019   3.385  5.7082  0.8948 -0.8814
  348MOL0     H46978   5.742   1.315   3.392 -0.3029  0.9356  0.0411
  348MOL0     H46979   4.851   1.038   3.589 -2.3018 -2.7477  0.0855
  348MOL0     H46980   4.647   1.144   3.678 -0.2603 -1.2700  0.6174
  349MOL0     O46981   8.427   3.740   7.671  0.6023 -0.2396  0.5194
  349MOL0     C46982   8.444   3.818   7.576 -0.4277 -0.0106  0.3646
  349MOL0     O46983   8.346   3.875   7.504  0.2217  0.4481  0.6207
  349MOL0     C46984   8.235   3.805   7.461  0.1330  0.8736  0.0849
  349MOL0     C46985   8.114   3.880   7.442 -0.7759  0.1018 -0.1557
  349MOL0     C46986   7.996   3.822   7.388 -0.0812  0.3646 -0.6131
  349MOL0     C46987   7.993   3.684   7.365 -0.9462  0.3041 -0.0587
  349MOL0     O46988   7.886   3.617   7.328 -0.3759 -1.0827  0.4132
  349MOL0     C46989   7.843   3.510   7.409  0.3327 -0.2536  0.2198
  349MOL0     C46990   7.694   3.541   7.444 -0.4210 -0.9372 -0.2475
  349MOL0     C46991   7.639   3.444   7.551 -0.8442  0.4547  0.4191
  349MOL0     C46992   7.494   3.489   7.578 -0.2731 -0.1874 -0.6444
  349MOL0     C46993   7.418   3.382   7.659 -0.1140  0.7257 -0.3482
  349MOL0     C46994   7.292   3.459   7.717 -0.2346 -0.0716 -0.2270
  349MOL0     C46995   7.191   3.376   7.795  0.0441 -0.1904 -0.1088
  349MOL0     C46996   7.069   3.455   7.834  0.2073  0.8280 -0.0799
  349MOL0     N46997   6.961   3.462   7.727 -0.6982  0.6737 -0.8947
  349MOL0     C46998   6.868   3.371   7.705 -0.0006  1.2935 -0.1161
  349MOL0     C46999   6.783   3.409   7.603 -0.9378 -0.4466 -0.9994
  349MOL0     C47000   6.652   3.355   7.557 -1.4293 -0.3737 -0.0392
  349MOL0     C47001   6.558   3.471   7.531 -0.6770  1.2487 -0.1112
  349MOL0     C47002   6.423   3.439   7.474  0.3495  0.3491  0.0946
  349MOL0     C47003   6.432   3.391   7.322 -0.5514 -0.2857 -0.6176
  349MOL0     O47004   6.401   3.250   7.320 -0.0390  0.1858  0.7116
  349MOL0     C47005   6.268   3.220   7.301 -0.9015  0.2510 -0.0804
  349MOL0     C47006   6.161   3.306   7.339  0.6008  0.3160 -0.4733
  349MOL0     C47007   6.034   3.261   7.316  0.5340  0.0473 -0.6221
  349MOL0     C47008   5.923   3.351   7.364 -0.7417 -0.0979  0.8196
  349MOL0     C47009   6.002   3.140   7.257  0.7071  0.8579  0.1164
  349MOL0     C47010   5.870   3.086   7.233  0.0267 -0.1174 -1.0455
  349MOL0     O47011   5.865   2.952   7.210  0.4297 -0.6751  0.9949
  349MOL0     C47012   5.743   2.909   7.182 -0.4167  0.4949  0.0865
  349MOL0     C47013   5.668   2.934   7.068 -0.2394 -0.8050  0.7245
  349MOL0     C47014   5.544   2.864   7.058 -0.0641  0.4962  1.4512
  349MOL0     C47015   5.497   2.777   7.159  0.5851 -0.0242 -0.5162
  349MOL0     O47016   5.379   2.711   7.138 -0.6784 -0.0772 -0.4393
  349MOL0     C47017   5.319   2.616   7.224 -0.0301 -0.3103 -0.2971
  349MOL0     C47018   5.184   2.585   7.157  0.3377 -0.6842 -0.2509
  349MOL0     C47019   5.077   2.698   7.165  0.2988  0.0495  0.3029
  349MOL0     C47020   4.967   2.708   7.047  0.0500  0.5539 -0.0944
  349MOL0     C47021   4.871   2.594   7.054 -0.2639 -0.4931 -0.3390
  349MOL0     C47022   4.744   2.617   6.961 -0.2415 -0.2099  0.3880
  349MOL0     C47023   4.616   2.550   7.006  0.1852 -0.4852  0.2373
  349MOL0     C47024   4.565   2.624   7.131  0.1312 -0.0287  0.3159
  349MOL0    Cl47025   4.450   2.534   7.227  0.4124  0.0338 -0.2386
  349MOL0     C47026   5.577   2.748   7.270  0.2662  0.4944  0.0682
  349MOL0     C47027   5.695   2.817   7.276  0.4858  1.2324  0.5770
  349MOL0     O47028   5.775   3.163   7.232  0.3622 -0.6338 -0.2711
  349MOL0     C47029   6.115   3.061   7.219 -0.4934 -0.0155 -0.3778
  349MOL0     C47030   6.246   3.106   7.236 -0.2219  0.7498  0.6733
  349MOL0     N47031   6.830   3.534   7.561 -0.6836  0.2374  0.1501
  349MOL0     N47032   6.942   3.561   7.635 -0.0198  0.2598  0.0354
  349MOL0     C47033   8.115   3.608   7.380  0.5604  0.1351  0.5940
  349MOL0     C47034   8.233   3.667   7.444 -0.2575  0.1289 -1.0533
  349MOL0     C47035   8.586   3.850   7.539 -0.5587  0.0248 -0.1407
  349MOL0     C47036   8.696   3.804   7.616  0.9715  0.3053 -0.3020
  349MOL0     C47037   8.828   3.838   7.586  0.0789 -0.2185 -0.3101
  349MOL0     C47038   8.853   3.912   7.472  0.4655 -0.1436  0.1422
  349MOL0     O47039   8.985   3.938   7.462 -0.5258  0.1188  0.2918
  349MOL0     C47040   9.043   3.966   7.332  0.0590  0.2977  0.2848
  349MOL0     C47041   9.194   3.953   7.354  0.1359 -0.1822 -0.4904
  349MOL0     C47042   9.240   3.810   7.373 -0.0755 -0.1688 -0.0832
  349MOL0     C47043   9.391   3.807   7.388 -0.2364 -0.2341  0.2320
  349MOL0     C47044   9.481   3.824   7.276  0.6008  0.7855  0.7354
  349MOL0     C47045   9.556   3.840   7.182 -0.8977  0.2087  0.6164
  349MOL0     C47046   8.748   3.946   7.381 -0.6376 -0.6271  0.4990
  349MOL0     C47047   8.617   3.908   7.418 -0.7325 -0.1852  0.0290
  349MOL0     H47048   8.120   3.987   7.460 -0.4666 -0.0768  0.8713
  349MOL0     H47049   7.911   3.890   7.383 -0.2205  0.1067 -2.1209
  349MOL0     H47050   7.849   3.420   7.346 -3.9183  1.7201 -3.6755
  349MOL0     H47051   7.914   3.493   7.489  3.0966 -0.8884 -2.2000
  349MOL0     H47052   7.688   3.645   7.478  0.9205 -1.2890  1.1585
  349MOL0     H47053   7.639   3.524   7.351 -1.3416 -1.1624  0.3280
  349MOL0     H47054   7.638   3.345   7.504 -1.4548  0.8433 -0.4065
  349MOL0     H47055   7.697   3.446   7.644  2.6364 -0.8514 -1.5415
  349MOL0     H47056   7.484   3.588   7.622 -1.9490 -1.3377  1.7860
  349MOL0     H47057   7.447   3.488   7.479  0.4135  1.8740 -1.0373
  349MOL0     H47058   7.396   3.291   7.602 -0.0186  0.0021  0.7307
  349MOL0     H47059   7.475   3.356   7.749 -0.1755 -1.0618 -0.7897
  349MOL0     H47060   7.329   3.536   7.785 -1.4672  0.5551 -0.2324
  349MOL0     H47061   7.241   3.509   7.633 -1.1998  0.1034  0.4441
  349MOL0     H47062   7.147   3.294   7.739 -5.3138  1.2279  1.4361
  349MOL0     H47063   7.227   3.350   7.896  0.4828  0.9072  0.0336
  349MOL0     H47064   7.092   3.555   7.870  2.8290  1.0024 -1.8810
  349MOL0     H47065   7.019   3.420   7.924  1.0374 -0.7648 -0.1980
  349MOL0     H47066   6.858   3.278   7.760 -0.4830 -0.5522 -3.0648
  349MOL0     H47067   6.671   3.307   7.460 -2.8012 -2.4026  0.6231
  349MOL0     H47068   6.609   3.279   7.624  3.3998 -1.0810  2.7465
  349MOL0     H47069   6.607   3.541   7.462  0.8422  0.3769  0.0635
  349MOL0     H47070   6.533   3.519   7.626 -1.4371 -3.5080  2.3447
  349MOL0     H47071   6.378   3.539   7.475 -1.3487 -0.3576  2.1708
  349MOL0     H47072   6.366   3.371   7.538  1.4505  1.5858  2.5223
  349MOL0     H47073   6.530   3.408   7.275 -0.3575  3.4380  0.7556
  349MOL0     H47074   6.355   3.448   7.269 -1.8798 -0.6174  0.8848
  349MOL0     H47075   6.184   3.400   7.389  0.0573  1.1364 -1.7163
  349MOL0     H47076   5.963   3.427   7.432 -2.1121 -0.2706  1.8631
  349MOL0     H47077   5.870   3.390   7.277  0.1383 -3.3387 -1.3129
  349MOL0     H47078   5.846   3.298   7.421 -1.8043  1.2230  0.6821
  349MOL0     H47079   5.696   3.008   6.994 -2.8182  2.3764  2.6627
  349MOL0     H47080   5.488   2.875   6.965 -0.8444  1.8968  2.0563
  349MOL0     H47081   5.376   2.524   7.234  0.4630  0.1412  1.3053
  349MOL0     H47082   5.306   2.661   7.323  0.1565 -0.5490 -0.1645
  349MOL0     H47083   5.199   2.555   7.053 -2.2696 -1.8106 -0.3887
  349MOL0     H47084   5.143   2.495   7.204 -1.6053 -0.6865 -1.8016
  349MOL0     H47085   5.116   2.800   7.158 -3.5981  1.7326  0.5995
  349MOL0     H47086   5.037   2.695   7.266 -0.0507  1.4457  0.2328
  349MOL0     H47087   4.911   2.802   7.055 -0.7974 -0.1125  3.0861
  349MOL0     H47088   5.016   2.704   6.949  0.2525 -1.5620  0.0561
  349MOL0     H47089   4.840   2.597   7.159 -1.3033  0.8083 -0.6527
  349MOL0     H47090   4.915   2.495   7.037 -1.8292 -1.2925  0.0448
  349MOL0     H47091   4.730   2.725   6.957  1.7377  0.0475 -0.1806
  349MOL0     H47092   4.775   2.573   6.866  2.2278 -1.8894  1.8599
  349MOL0     H47093   4.641   2.445   7.021 -3.0612 -1.3703  0.3632
  349MOL0     H47094   4.536   2.553   6.931 -0.8207 -3.9973  0.9749
  349MOL0     H47095   4.520   2.716   7.093 -3.8521 -1.7802  0.2569
  349MOL0     H47096   4.647   2.644   7.200  0.6046  2.3288 -0.8195
  349MOL0     H47097   5.537   2.673   7.338 -1.7804 -0.9449 -2.5290
  349MOL0     H47098   5.755   2.791   7.363  1.3463 -0.9704 -0.5805
  349MOL0     H47099   6.107   2.967   7.166  0.3466  0.5703 -1.5835
  349MOL0     H47100   6.330   3.049   7.197 -2.1546  1.2128 -5.2227
  349MOL0     H47101   8.111   3.503   7.352  1.4259  0.9725 -3.2227
  349MOL0     H47102   8.324   3.611   7.463  1.9554  3.6674 -0.2401
  349MOL0     H47103   8.665   3.761   7.710  0.1631 -0.0682 -0.7269
  349MOL0     H47104   8.911   3.801   7.646  1.6339  1.1543 -1.5257
  349MOL0     H47105   9.011   3.897   7.254 -0.6286  1.4835 -0.5148
  349MOL0     H47106   9.019   4.070   7.307  1.3583  0.9110  1.4192
  349MOL0     H47107   9.230   4.013   7.438  1.3041 -0.7060 -0.6017
  349MOL0     H47108   9.233   3.992   7.260 -1.4233 -1.4535 -1.7075
  349MOL0     H47109   9.203   3.747   7.291 -2.1257  1.8089 -0.7715
  349MOL0     H47110   9.199   3.773   7.467 -0.2136 -1.3354 -0.5860
  349MOL0     H47111   9.409   3.701   7.413  1.0178  0.1224  0.9532
  349MOL0     H47112   9.433   3.865   7.471  0.3446 -0.1270 -0.1308
  349MOL0     H47113   9.620   3.860   7.098  0.9682 -0.8187  1.7170
  349MOL0     H47114   8.768   4.007   7.293 -0.3939 -1.5118 -0.0703
  349MOL0     H47115   8.526   3.919   7.360 -1.2998 -1.2680  0.6936
  350MOL0     O47116   1.743   5.417   2.388  0.1093  0.4923 -0.3081
  350MOL0     C47117   1.794   5.318   2.437  0.3956 -0.6062 -0.1864
  350MOL0     O47118   1.747   5.254   2.552  0.6003  0.0089 -0.4174
  350MOL0     C47119   1.625   5.285   2.607  0.8909 -0.4437  1.0855
  350MOL0     C47120   1.561   5.417   2.599 -0.5462  1.2307  0.1387
  350MOL0     C47121   1.433   5.438   2.650  0.5239  0.2201 -0.7663
  350MOL0     C47122   1.368   5.341   2.727  0.3054 -0.0093  0.4571
  350MOL0     O47123   1.248   5.394   2.784 -0.2741 -0.7321 -0.7728
  350MOL0     C47124   1.154   5.306   2.845  0.4738  0.8631 -0.3259
  350MOL0     C47125   1.014   5.359   2.841  0.6342  0.4255 -0.0887
  350MOL0     C47126   0.985   5.472   2.943 -0.0988 -0.0017  0.0474
  350MOL0     C47127   0.956   5.414   3.082 -0.3105  0.0592 -0.2379
  350MOL0     C47128   0.931   5.522   3.188 -0.4275  0.0419  0.7783
  350MOL0     C47129   0.877   5.459   3.311  0.1554  0.0208 -0.3055
  350MOL0     C47130   0.824   5.573   3.397  0.8455 -0.2016 -0.1330
  350MOL0     C47131   0.937   5.677   3.454 -0.5066  0.0360  0.4136
  350MOL0     N47132   0.896   5.741   3.591  0.4347  0.0587  0.1579
  350MOL0     C47133   0.782   5.814   3.605 -0.2126 -0.4064  0.2646
  350MOL0     C47134   0.789   5.862   3.729 -0.5600  0.9053 -0.3083
  350MOL0     C47135   0.697   5.954   3.801  0.1799 -0.6472  0.2517
  350MOL0     C47136   0.570   5.884   3.831 -0.0741 -0.6427 -0.2920
  350MOL0     C47137   0.568   5.834   3.978  0.6951  0.5000  0.1393
  350MOL0     C47138   0.428   5.777   4.010 -0.1898  0.1524  0.6811
  350MOL0     O47139   0.319   5.868   4.023  0.3062  0.2826 -0.2584
  350MOL0     C47140   0.303   5.949   4.139  0.1064  0.5535 -0.2936
  350MOL0     C47141   0.218   6.060   4.127 -0.7793 -0.6930  0.0741
  350MOL0     C47142   0.189   6.157   4.231  0.9660 -0.8557  0.0372
  350MOL0     C47143   0.087   6.262   4.212  0.4456  0.4100  0.4056
  350MOL0     C47144   0.261   6.149   4.355 -0.0322  0.0136 -0.0973
  350MOL0     C47145   0.230   6.228   4.481 -0.0813  0.0062 -0.0542
  350MOL0     O47146   0.114   6.312   4.484  0.0163  0.6910  0.4063
  350MOL0     C47147   0.103   6.380   4.594  0.3000 -0.8109  0.0588
  350MOL0     C47148   0.161   6.512   4.606 -0.5080  0.7817  0.2547
  350MOL0     C47149   0.133   6.591   4.716 -0.1781  0.3061 -0.1441
  350MOL0     C47150   0.045   6.538   4.822  0.0660  0.0056 -0.0145
  350MOL0     O47151   0.003   6.609   4.934  0.2988 -0.0486  0.8406
  350MOL0     C47152  -0.020   6.752   4.922  0.3053 -0.7939 -0.7051
  350MOL0     C47153   0.110   6.828   4.972  0.4212  0.7595  0.7396
  350MOL0     C47154   0.099   6.983   4.955 -0.0167  0.5892  0.0916
  350MOL0     C47155   0.115   7.021   4.819 -0.1224  0.0495 -0.0939
  350MOL0     C47156   0.126   7.176   4.814 -1.0139 -0.4148  0.4046
  350MOL0     C47157   0.112   7.230   4.667  0.6441 -1.0770 -0.1276
  350MOL0     C47158   0.230   7.177   4.589  0.0177  0.0595  0.3321
  350MOL0     C47159   0.250   7.274   4.470 -0.4402  1.2733 -0.0749
  350MOL0    Cl47160   0.321   7.427   4.497 -0.0853 -0.1615 -0.3612
  350MOL0     C47161  -0.017   6.415   4.804 -0.5003 -0.3715 -0.6965
  350MOL0     C47162   0.006   6.340   4.691 -0.2434 -0.8139  0.4896
  350MOL0     O47163   0.326   6.238   4.561  0.3590 -0.0002 -0.8078
  350MOL0     C47164   0.349   6.040   4.361 -0.7871  0.4764 -0.9720
  350MOL0     C47165   0.363   5.940   4.263 -0.6199  1.0137  0.2603
  350MOL0     N47166   0.904   5.825   3.793 -1.1387  0.6258  0.8552
  350MOL0     N47167   0.965   5.747   3.707  0.0648 -0.0114 -0.0564
  350MOL0     C47168   1.427   5.217   2.740 -0.3371 -1.1029  0.1060
  350MOL0     C47169   1.553   5.190   2.676 -1.2497 -0.8921 -0.8575
  350MOL0     C47170   1.935   5.287   2.389  0.5870  1.1518  0.3455
  350MOL0     C47171   1.998   5.161   2.417  0.1517  0.3402  0.4441
  350MOL0     C47172   2.137   5.147   2.379 -0.4830 -0.1662  0.0214
  350MOL0     C47173   2.203   5.245   2.311 -1.0304 -0.0153 -0.1802
  350MOL0     O47174   2.329   5.212   2.278 -0.4068 -0.0223  0.6434
  350MOL0     C47175   2.404   5.314   2.215 -0.5273 -0.7493 -0.3959
  350MOL0     C47176   2.548   5.266   2.179 -0.4677  0.0341 -0.1096
  350MOL0     C47177   2.655   5.284   2.286 -0.1392  0.5976  0.4047
  350MOL0     C47178   2.787   5.238   2.237 -0.5642 -0.2435  0.1777
  350MOL0     C47179   2.849   5.335   2.144 -0.4749 -0.0410  0.1494
  350MOL0     C47180   2.895   5.427   2.082  0.8955 -0.4979 -0.9985
  350MOL0     C47181   2.133   5.360   2.271 -0.3481  0.7119  0.4874
  350MOL0     C47182   2.005   5.381   2.310  0.6475  0.0569 -0.4939
  350MOL0     H47183   1.624   5.500   2.567 -0.7242  1.4381  0.3253
  350MOL0     H47184   1.391   5.534   2.625  0.6643  0.1294 -1.3754
  350MOL0     H47185   1.137   5.223   2.776 -1.0602  2.9051 -2.5642
  350MOL0     H47186   1.183   5.275   2.945 -1.5208 -1.3775 -0.3652
  350MOL0     H47187   1.001   5.400   2.740  3.1060  1.1763 -0.1511
  350MOL0     H47188   0.942   5.276   2.845  1.1379  0.0016  0.2805
  350MOL0     H47189   1.080   5.526   2.939 -0.3593  0.4416 -0.1072
  350MOL0     H47190   0.906   5.546   2.930 -0.1677  0.6675  3.3051
  350MOL0     H47191   0.868   5.350   3.072  1.4978 -2.6386  0.0893
  350MOL0     H47192   1.040   5.351   3.113  0.5035 -0.5623 -3.3470
  350MOL0     H47193   1.021   5.580   3.209 -1.5601  1.2259  2.7480
  350MOL0     H47194   0.859   5.580   3.130 -0.7454  0.9502  2.0387
  350MOL0     H47195   0.802   5.386   3.279 -0.0580  0.7331 -1.4693
  350MOL0     H47196   0.958   5.404   3.360  1.0289  2.0234  0.6160
  350MOL0     H47197   0.749   5.635   3.346  2.5674  1.1770 -1.0783
  350MOL0     H47198   0.777   5.525   3.484 -1.8766 -1.3871 -2.1057
  350MOL0     H47199   0.972   5.746   3.377 -0.6973 -0.2810  0.0399
  350MOL0     H47200   1.025   5.616   3.475 -1.6694 -1.6405  0.6205
  350MOL0     H47201   0.707   5.845   3.533  0.9995 -1.4801 -1.5601
  350MOL0     H47202   0.745   5.996   3.890  2.4732  1.2557 -1.7360
  350MOL0     H47203   0.675   6.041   3.739  0.6743 -1.1599 -0.6686
  350MOL0     H47204   0.552   5.790   3.779 -2.1088 -1.8460  2.3707
  350MOL0     H47205   0.484   5.946   3.804 -0.3600 -0.4585  0.9979
  350MOL0     H47206   0.576   5.915   4.052  0.7551  0.3300  0.3189
  350MOL0     H47207   0.644   5.758   3.998 -0.3827 -0.2916  1.3728
  350MOL0     H47208   0.434   5.700   4.087  1.5641 -1.0764 -0.6014
  350MOL0     H47209   0.396   5.717   3.924 -1.7408  0.1508  1.2311
  350MOL0     H47210   0.171   6.075   4.031  0.1136 -0.2888 -0.3040
  350MOL0     H47211  -0.006   6.241   4.265  0.6882 -0.6896  0.4193
  350MOL0     H47212   0.124   6.362   4.238  0.3605  1.3395 -2.6667
  350MOL0     H47213   0.061   6.272   4.106  2.6920  4.1695  0.0126
  350MOL0     H47214   0.227   6.542   4.525 -2.3757  3.6593 -0.3492
  350MOL0     H47215   0.187   6.685   4.719 -1.5194  1.1456 -1.2194
  350MOL0     H47216  -0.047   6.774   4.819  0.5362 -0.1916 -0.6402
  350MOL0     H47217  -0.099   6.773   4.995  0.5256  2.8280 -1.3338
  350MOL0     H47218   0.136   6.803   5.075  1.3386 -0.3379  0.2589
  350MOL0     H47219   0.200   6.798   4.918 -0.0733  1.9447 -0.8207
  350MOL0     H47220   0.178   7.038   5.008  1.7319 -0.8817 -0.8572
  350MOL0     H47221   0.002   7.021   4.987  0.5582  0.7481  1.7293
  350MOL0     H47222   0.199   6.964   4.778  0.0434 -2.4041  3.2484
  350MOL0     H47223   0.023   7.000   4.763 -1.1969  0.9640  1.2528
  350MOL0     H47224   0.220   7.214   4.855 -1.3047  1.6302 -0.7071
  350MOL0     H47225   0.057   7.222   4.885  0.7749 -0.8910  2.5788
  350MOL0     H47226   0.017   7.199   4.624 -1.5619  1.6130  2.4026
  350MOL0     H47227   0.099   7.339   4.676  0.7170 -1.1208  0.5150
  350MOL0     H47228   0.229   7.075   4.551  1.8117  0.0998  0.0805
  350MOL0     H47229   0.323   7.178   4.646 -1.6191 -1.8407  3.2874
  350MOL0     H47230   0.173   7.288   4.393  0.7146  2.3457 -1.0770
  350MOL0     H47231   0.333   7.218   4.426 -0.0494 -0.0929  2.2304
  350MOL0     H47232  -0.082   6.385   4.886  0.7331  1.8921  1.2238
  350MOL0     H47233  -0.035   6.242   4.671 -0.2327 -1.0299  1.5112
  350MOL0     H47234   0.419   6.031   4.444  0.4590 -3.4073 -2.2363
  350MOL0     H47235   0.408   5.846   4.293 -0.8306 -0.3719 -3.3382
  350MOL0     H47236   1.376   5.139   2.798  1.3241  0.3297  3.8068
  350MOL0     H47237   1.602   5.093   2.682  1.5660  0.3367 -2.2177
  350MOL0     H47238   1.950   5.081   2.473 -0.7335  0.4659 -0.1233
  350MOL0     H47239   2.192   5.062   2.418 -2.6563 -0.4118  2.9346
  350MOL0     H47240   2.347   5.336   2.124 -1.5139 -1.3987  0.0429
  350MOL0     H47241   2.403   5.405   2.276 -0.0511 -1.2987  0.4463
  350MOL0     H47242   2.584   5.330   2.098  2.9425 -2.1367 -0.4996
  350MOL0     H47243   2.544   5.161   2.149  0.9726 -0.8335  2.4361
  350MOL0     H47244   2.626   5.224   2.372  0.2559  1.2099  0.9706
  350MOL0     H47245   2.653   5.391   2.310 -1.4471  0.7446 -0.2390
  350MOL0     H47246   2.773   5.143   2.184 -0.4777 -2.3918  3.6206
  350MOL0     H47247   2.858   5.229   2.320  3.5977  0.8030 -2.9131
  350MOL0     H47248   2.940   5.507   2.027  1.3470  0.8885  1.2819
  350MOL0     H47249   2.182   5.439   2.214 -1.9495  1.4619  0.0856
  350MOL0     H47250   1.959   5.478   2.293  2.0795  1.0498  0.9769
  351MOL0     O47251   3.156   1.073   0.242 -0.2514  0.3347 -0.7941
  351MOL0     C47252   3.054   1.142   0.226  0.1857  0.8455 -0.1515
  351MOL0     O47253   3.051   1.273   0.226 -0.6389 -0.1517  0.3517
  351MOL0     C47254   3.174   1.334   0.246  0.6061  0.1564 -0.3979
  351MOL0     C47255   3.248   1.369   0.140  0.1634  0.2505  0.2201
  351MOL0     C47256   3.378   1.429   0.155  0.1526 -0.9957 -0.0680
  351MOL0     C47257   3.431   1.462   0.280 -0.5199  0.2703 -0.8279
  351MOL0     O47258   3.557   1.514   0.300  0.2097  0.4788 -0.1490
  351MOL0     C47259   3.599   1.597   0.191 -0.4179  0.1608  0.0526
  351MOL0     C47260   3.724   1.683   0.235 -0.1325  1.0025  0.0481
  351MOL0     C47261   3.710   1.795   0.333  0.9972  0.3622  0.2188
  351MOL0     C47262   3.666   1.763   0.476  0.0276  0.2094  0.6101
  351MOL0     C47263   3.647   1.890   0.571  0.5155 -0.1398  0.3518
  351MOL0     C47264   3.569   2.008   0.510 -0.1906 -0.3678  0.1799
  351MOL0     C47265   3.534   2.112   0.616 -0.1536 -0.7666 -1.0137
  351MOL0     C47266   3.394   2.093   0.680 -0.3290  0.2734 -0.1225
  351MOL0     N47267   3.301   2.169   0.611 -0.3030 -0.4856  0.2082
  351MOL0     C47268   3.215   2.130   0.505  0.0751 -0.0031 -0.1706
  351MOL0     C47269   3.146   2.241   0.462 -0.2247  0.6802  0.6104
  351MOL0     C47270   3.071   2.254   0.332  0.2692  1.0761  0.2601
  351MOL0     C47271   2.987   2.376   0.332  0.5608 -0.1931 -0.7078
  351MOL0     C47272   2.904   2.399   0.207  0.5652  0.7100  0.0753
  351MOL0     C47273   2.812   2.517   0.220  0.0429 -0.2271 -0.6212
  351MOL0     O47274   2.740   2.535   0.096 -0.0366  1.0533 -0.9574
  351MOL0     C47275   2.668   2.647   0.082 -0.1668  0.0666  0.3939
  351MOL0     C47276   2.585   2.711   0.175 -0.4254 -0.0182  0.7003
  351MOL0     C47277   2.525   2.832   0.148  0.4852  0.0585 -0.1468
  351MOL0     C47278   2.449   2.888   0.270 -0.3796 -0.0550  0.7957
  351MOL0     C47279   2.532   2.897   0.019  0.6716  0.0112 -0.5518
  351MOL0     C47280   2.484   3.044  -0.016  0.7516  0.9352  0.4122
  351MOL0     O47281   2.438   3.063  -0.147  0.5784 -0.1274  0.3178
  351MOL0     C47282   2.358   3.176  -0.162  0.2095 -0.5200  0.1224
  351MOL0     C47283   2.407   3.296  -0.224  0.0573  0.4609  0.4067
  351MOL0     C47284   2.322   3.404  -0.246  0.3844  0.6486  0.4682
  351MOL0     C47285   2.189   3.404  -0.208 -0.6984  0.5949 -0.5853
  351MOL0     O47286   2.109   3.512  -0.230  0.1931 -0.9161  0.3251
  351MOL0     C47287   2.131   3.605  -0.341 -0.9371 -0.3843  0.7763
  351MOL0     C47288   2.007   3.686  -0.350  0.7216  1.2686  0.4004
  351MOL0     C47289   1.979   3.776  -0.236  0.2876  1.1766  0.4458
  351MOL0     C47290   1.823   3.805  -0.218 -0.6664  0.2565  0.4165
  351MOL0     C47291   1.740   3.683  -0.174 -0.4199 -0.3639 -0.3618
  351MOL0     C47292   1.791   3.602  -0.047 -0.2252  0.4114  0.2730
  351MOL0     C47293   1.690   3.493  -0.004 -0.5654  0.1158 -0.3312
  351MOL0     C47294   1.613   3.541   0.122 -0.1716  0.9112  0.0143
  351MOL0    Cl47295   1.507   3.403   0.174  0.0268 -0.2594 -0.6762
  351MOL0     C47296   2.143   3.286  -0.141  0.4506  0.1574  0.4239
  351MOL0     C47297   2.225   3.172  -0.122  0.3518 -1.0879 -0.1587
  351MOL0     O47298   2.490   3.127   0.075 -0.5983  0.1484  0.8864
  351MOL0     C47299   2.591   2.813  -0.079 -0.1261 -0.4056 -0.0118
  351MOL0     C47300   2.661   2.693  -0.049 -0.6064  0.6606  0.4001
  351MOL0     N47301   3.188   2.337   0.553 -0.5199 -0.1028  1.5687
  351MOL0     N47302   3.279   2.300   0.632 -0.3182 -0.0345  0.3910
  351MOL0     C47303   3.346   1.433   0.392 -0.6282 -0.0275  0.2027
  351MOL0     C47304   3.225   1.364   0.377 -0.2190 -1.0253  0.1959
  351MOL0     C47305   2.921   1.074   0.206  0.9140  0.5871  0.0347
  351MOL0     C47306   2.903   0.943   0.253 -0.8514  0.1049  0.5753
  351MOL0     C47307   2.780   0.879   0.243  0.4572 -0.9309  0.4105
  351MOL0     C47308   2.670   0.947   0.198  0.4733  0.1709 -0.4836
  351MOL0     O47309   2.559   0.872   0.177  0.0601  0.2414 -0.2043
  351MOL0     C47310   2.438   0.953   0.173 -1.0779 -0.1533  0.2645
  351MOL0     C47311   2.315   0.857   0.185  0.0947  0.3850 -0.5077
  351MOL0     C47312   2.306   0.761   0.066 -0.6895  0.0088 -0.4372
  351MOL0     C47313   2.173   0.668   0.058  0.5559 -0.4581 -0.9319
  351MOL0     C47314   2.145   0.580   0.172 -0.1896  0.9529  0.0146
  351MOL0     C47315   2.135   0.525   0.278  0.8726 -0.5351  0.6019
  351MOL0     C47316   2.688   1.074   0.143  0.4376  0.1309 -0.0392
  351MOL0     C47317   2.807   1.134   0.148  0.1112  0.7783 -0.0558
  351MOL0     H47318   3.206   1.338   0.045  0.1650  0.1364  0.2568
  351MOL0     H47319   3.443   1.450   0.070  4.5965  1.0884  3.4099
  351MOL0     H47320   3.629   1.540   0.103  0.1924  3.0194 -1.7045
  351MOL0     H47321   3.512   1.654   0.157 -0.3789 -1.1836 -2.4912
  351MOL0     H47322   3.794   1.609   0.275  0.1277 -0.3291 -2.6476
  351MOL0     H47323   3.762   1.731   0.144 -2.2443 -0.5994 -1.7847
  351MOL0     H47324   3.804   1.849   0.349 -0.1622  2.1512  1.1846
  351MOL0     H47325   3.633   1.859   0.291 -0.4663  0.4896  2.8712
  351MOL0     H47326   3.574   1.704   0.474  0.3255 -0.2541 -1.4145
  351MOL0     H47327   3.746   1.708   0.525  0.3653 -0.7467 -0.9487
  351MOL0     H47328   3.611   1.858   0.670 -0.5599 -0.1640 -0.0282
  351MOL0     H47329   3.750   1.923   0.581  0.6171 -0.3012 -0.1798
  351MOL0     H47330   3.634   2.047   0.431  1.7236 -0.4574  1.6299
  351MOL0     H47331   3.484   1.967   0.455 -1.6187  4.0761 -1.3211
  351MOL0     H47332   3.612   2.115   0.693 -2.8248  1.7098  1.8613
  351MOL0     H47333   3.533   2.212   0.573  1.2008 -0.8088 -1.2065
  351MOL0     H47334   3.388   2.128   0.783 -3.5869  1.1308 -0.4961
  351MOL0     H47335   3.363   1.989   0.690 -3.8428  1.3809  2.2220
  351MOL0     H47336   3.206   2.032   0.461  0.2054 -0.5638  1.0215
  351MOL0     H47337   3.140   2.274   0.250 -1.0748  4.8978 -0.1485
  351MOL0     H47338   3.011   2.166   0.305 -1.0743  2.0027  0.1065
  351MOL0     H47339   3.046   2.465   0.352 -0.3665  0.1308  0.7297
  351MOL0     H47340   2.914   2.363   0.412  0.4723 -1.3491 -0.9584
  351MOL0     H47341   2.842   2.312   0.180  0.7677  0.7023 -0.3799
  351MOL0     H47342   2.972   2.414   0.123  0.0596 -1.1169 -0.7166
  351MOL0     H47343   2.845   2.614   0.260 -0.3507 -0.1250 -0.5379
  351MOL0     H47344   2.738   2.490   0.296  1.1259  0.3013  0.6595
  351MOL0     H47345   2.582   2.659   0.271 -1.5133 -3.1835 -0.8938
  351MOL0     H47346   2.521   2.891   0.352 -0.4398 -2.4319  0.9995
  351MOL0     H47347   2.401   2.984   0.251 -0.6798  0.4691  3.7965
  351MOL0     H47348   2.366   2.822   0.298 -1.3649 -0.5436 -2.7568
  351MOL0     H47349   2.510   3.309  -0.256  0.5637  0.7844  2.0522
  351MOL0     H47350   2.371   3.491  -0.289  0.9442  0.3240  0.4388
  351MOL0     H47351   2.220   3.663  -0.316 -0.5294 -0.0189 -1.3184
  351MOL0     H47352   2.151   3.558  -0.438  0.9963  1.1618  0.3682
  351MOL0     H47353   1.994   3.740  -0.444  0.9491  1.6750  0.5989
  351MOL0     H47354   1.922   3.618  -0.362 -1.1089  3.7710 -2.0568
  351MOL0     H47355   2.029   3.868  -0.269  3.5171  0.5138  2.9652
  351MOL0     H47356   2.022   3.742  -0.141  0.8029 -0.0072 -0.1930
  351MOL0     H47357   1.817   3.876  -0.135 -0.3562 -1.1107  1.6517
  351MOL0     H47358   1.774   3.854  -0.302  1.1690  1.3087 -0.1132
  351MOL0     H47359   1.733   3.615  -0.259  0.9542 -0.1574 -0.6769
  351MOL0     H47360   1.637   3.713  -0.156 -1.5975 -3.3895 -1.5351
  351MOL0     H47361   1.886   3.551  -0.066 -1.0044 -0.4591 -1.5677
  351MOL0     H47362   1.812   3.674   0.032 -2.0901 -0.0144  1.2049
  351MOL0     H47363   1.736   3.397   0.021 -3.2636 -1.4170 -0.8112
  351MOL0     H47364   1.615   3.472  -0.081 -1.9191  1.2417  0.6292
  351MOL0     H47365   1.542   3.617   0.088  1.0452  0.6934 -3.3714
  351MOL0     H47366   1.679   3.571   0.204  1.2522  0.6311 -0.9977
  351MOL0     H47367   2.041   3.292  -0.104 -0.1667 -1.6662 -0.8829
  351MOL0     H47368   2.174   3.088  -0.074 -1.9802 -0.0418 -0.6563
  351MOL0     H47369   2.584   2.854  -0.180  1.1743  1.1830  0.4948
  351MOL0     H47370   2.715   2.647  -0.131 -1.9499  0.0443 -0.1722
  351MOL0     H47371   3.395   1.457   0.486 -2.1664  0.4638  0.8946
  351MOL0     H47372   3.173   1.323   0.463 -0.1460 -2.9649 -0.6415
  351MOL0     H47373   2.989   0.900   0.304  0.9091  4.1050  1.4367
  351MOL0     H47374   2.755   0.776   0.267 -2.2896 -1.3331 -3.2974
  351MOL0     H47375   2.446   1.024   0.256 -2.2098  4.1784 -2.9568
  351MOL0     H47376   2.448   1.005   0.078  1.8170  0.7106  0.9393
  351MOL0     H47377   2.222   0.912   0.177 -0.9757 -1.5120 -2.0124
  351MOL0     H47378   2.311   0.801   0.279  0.8917  0.8906 -0.1619
  351MOL0     H47379   2.390   0.691   0.059 -1.8345 -1.3912 -0.7292
  351MOL0     H47380   2.308   0.824  -0.023  0.2443 -1.3563 -1.4262
  351MOL0     H47381   2.178   0.600  -0.028  2.7030 -0.1227 -1.1321
  351MOL0     H47382   2.091   0.740   0.061  0.4111 -0.6544  0.5961
  351MOL0     H47383   2.101   0.463   0.358  0.8749 -0.0812  0.9599
  351MOL0     H47384   2.615   1.132   0.086  0.5022 -1.7580 -2.2213
  351MOL0     H47385   2.835   1.228   0.101  1.6431  0.1454 -0.4869
  352MOL0     O47386   9.540   4.277   6.521  0.5359 -0.5159 -0.3089
  352MOL0     C47387   9.598   4.294   6.624  0.5976  0.3809 -0.2618
  352MOL0     O47388   9.544   4.358   6.739 -0.2536 -0.1317 -0.2265
  352MOL0     C47389   9.414   4.403   6.749  0.1824  0.6649  0.2079
  352MOL0     C47390   9.303   4.321   6.714 -0.0178  0.6938  0.5180
  352MOL0     C47391   9.170   4.367   6.732 -0.7599 -0.2924 -0.3011
  352MOL0     C47392   9.149   4.497   6.789  0.3218  0.0436 -0.2906
  352MOL0     O47393   9.033   4.556   6.813 -0.0943  0.5698  0.2407
  352MOL0     C47394   8.922   4.469   6.844 -0.6932 -0.2546  0.2677
  352MOL0     C47395   8.804   4.556   6.866  0.0495  0.4522 -0.3075
  352MOL0     C47396   8.664   4.486   6.887  0.1279  0.2674 -0.1275
  352MOL0     C47397   8.551   4.584   6.890 -0.6195 -0.1288 -0.7113
  352MOL0     C47398   8.422   4.505   6.927 -0.5591 -0.3352  0.2116
  352MOL0     C47399   8.295   4.606   6.921 -0.4040 -0.3507  0.5145
  352MOL0     C47400   8.153   4.556   6.926  0.3586  0.5453  0.1653
  352MOL0     C47401   8.070   4.685   6.890  0.9326 -0.9131 -0.0769
  352MOL0     N47402   7.931   4.643   6.886  0.0736 -0.4420 -0.2385
  352MOL0     C47403   7.823   4.727   6.849  0.3724  0.0591  0.5179
  352MOL0     C47404   7.709   4.654   6.883 -0.8047  0.0882 -0.7359
  352MOL0     C47405   7.577   4.721   6.861  0.1082  0.4050  0.6340
  352MOL0     C47406   7.463   4.620   6.838  0.8552  0.1374 -0.0870
  352MOL0     C47407   7.326   4.698   6.853 -0.0768  0.2487 -0.0978
  352MOL0     C47408   7.196   4.633   6.795 -0.1080 -0.0109  0.8015
  352MOL0     O47409   7.104   4.741   6.769 -1.0846  0.4772  0.4054
  352MOL0     C47410   6.963   4.730   6.771  0.1359  0.2119 -0.0076
  352MOL0     C47411   6.908   4.820   6.861 -0.4634  0.3108  0.0668
  352MOL0     C47412   6.774   4.820   6.898 -0.4215 -0.2461  0.2438
  352MOL0     C47413   6.733   4.914   7.003  0.4570 -0.9317  0.0509
  352MOL0     C47414   6.688   4.726   6.836  0.0446  0.3170  0.2020
  352MOL0     C47415   6.547   4.709   6.870 -0.0468  0.4752  0.6040
  352MOL0     O47416   6.491   4.586   6.844 -0.6449 -0.3016 -1.1514
  352MOL0     C47417   6.371   4.554   6.890  0.4597 -0.1596 -0.2895
  352MOL0     C47418   6.335   4.544   7.031  0.4908  0.1568  0.5867
  352MOL0     C47419   6.204   4.543   7.073  0.3856  0.1324  0.0100
  352MOL0     C47420   6.100   4.540   6.978  0.3070  0.2949 -0.5306
  352MOL0     O47421   5.973   4.541   7.024  0.0680  0.3960 -0.2616
  352MOL0     C47422   5.892   4.431   6.979  0.6003 -0.4829 -0.7773
  352MOL0     C47423   5.803   4.381   7.099  0.5256 -0.4035 -0.7138
  352MOL0     C47424   5.691   4.487   7.134 -0.2302 -0.0162  0.4457
  352MOL0     C47425   5.640   4.459   7.283  0.2642 -0.9914 -0.2208
  352MOL0     C47426   5.550   4.580   7.335  0.3446 -0.0509  0.7858
  352MOL0     C47427   5.471   4.556   7.461 -0.1267  0.6524 -0.3157
  352MOL0     C47428   5.366   4.447   7.455  0.4164 -0.5603  0.0381
  352MOL0     C47429   5.270   4.479   7.564 -0.3250 -0.3861 -0.7447
  352MOL0    Cl47430   5.147   4.356   7.567 -0.0407 -0.0081  0.0236
  352MOL0     C47431   6.133   4.531   6.840 -0.3478  0.3767  0.2007
  352MOL0     C47432   6.267   4.540   6.800 -0.0063  0.3300 -0.4260
  352MOL0     O47433   6.489   4.809   6.919  0.0075  0.9916 -0.4848
  352MOL0     C47434   6.739   4.626   6.747 -0.2861  0.4842  0.4167
  352MOL0     C47435   6.889   4.623   6.722  1.3894 -0.3914  0.0960
  352MOL0     N47436   7.750   4.533   6.930 -0.3600 -0.6173 -0.6809
  352MOL0     N47437   7.877   4.535   6.950 -0.4237  0.0972 -0.0322
  352MOL0     C47438   9.257   4.575   6.832 -0.2461  0.0580  0.1695
  352MOL0     C47439   9.390   4.527   6.802 -0.0284 -0.4636  0.3360
  352MOL0     C47440   9.745   4.259   6.639  0.5709 -0.1525  0.1450
  352MOL0     C47441   9.817   4.218   6.527 -0.4365 -0.8333 -0.1808
  352MOL0     C47442   9.951   4.183   6.540  0.2764 -0.5716 -0.2269
  352MOL0     C47443  10.015   4.189   6.667  1.0211  0.2460  0.0035
  352MOL0     O47444  10.147   4.135   6.686 -0.1156  0.1877 -0.0414
  352MOL0     C47445  10.242   4.138   6.575  0.8418  0.7790 -0.5827
  352MOL0     C47446  10.378   4.190   6.626 -0.6356 -0.3347 -0.5562
  352MOL0     C47447  10.492   4.174   6.526 -0.1211  0.2235  0.4882
  352MOL0     C47448  10.530   4.029   6.502 -0.3525  0.6257  0.4671
  352MOL0     C47449  10.621   4.021   6.386  0.9735  0.2600 -0.4861
  352MOL0     C47450  10.687   4.027   6.284 -1.1907 -0.1929  0.7524
  352MOL0     C47451   9.937   4.227   6.773  0.1438  0.2352  0.1909
  352MOL0     C47452   9.803   4.262   6.758 -0.1766 -1.2075  0.0816
  352MOL0     H47453   9.312   4.220   6.676 -3.1368  0.4193  0.2435
  352MOL0     H47454   9.089   4.305   6.695 -3.6864  2.6591  0.6622
  352MOL0     H47455   8.887   4.404   6.763 -2.1144  0.5207  0.2190
  352MOL0     H47456   8.935   4.411   6.936 -2.3260 -1.7912 -0.4292
  352MOL0     H47457   8.836   4.622   6.947  0.8440 -0.1034 -0.1623
  352MOL0     H47458   8.788   4.619   6.778 -1.9628  0.1596 -0.1899
  352MOL0     H47459   8.659   4.420   6.801 -0.3495 -0.6775  0.6042
  352MOL0     H47460   8.663   4.426   6.978  0.2882  3.4037  2.1328
  352MOL0     H47461   8.555   4.664   6.964 -3.3811 -1.7605  1.3906
  352MOL0     H47462   8.523   4.635   6.797 -0.2824  3.5480  1.0414
  352MOL0     H47463   8.402   4.426   6.853  1.6233 -3.0810  2.3262
  352MOL0     H47464   8.433   4.456   7.024  1.6620  1.3483  0.8761
  352MOL0     H47465   8.302   4.682   7.000  0.1132  1.6805 -1.3655
  352MOL0     H47466   8.309   4.662   6.828  0.1700  0.6200  1.1620
  352MOL0     H47467   8.137   4.471   6.859  1.6634  0.0329  0.4777
  352MOL0     H47468   8.144   4.518   7.028  1.4792  0.7639  0.3582
  352MOL0     H47469   8.089   4.725   6.789 -0.5592  1.1414  0.3775
  352MOL0     H47470   8.093   4.763   6.963  1.0705 -2.2587  1.3707
  352MOL0     H47471   7.818   4.815   6.786 -1.8423  0.0349  0.5898
  352MOL0     H47472   7.559   4.793   6.941  1.6949  3.1156 -1.2652
  352MOL0     H47473   7.581   4.796   6.782  0.9411  1.2717  1.4760
  352MOL0     H47474   7.449   4.539   6.910  2.2886 -1.1197 -1.1636
  352MOL0     H47475   7.481   4.570   6.743  1.2030  0.0238  0.0381
  352MOL0     H47476   7.335   4.794   6.800 -0.5984 -0.1217 -0.8738
  352MOL0     H47477   7.295   4.715   6.957 -5.3475 -0.4111 -1.3108
  352MOL0     H47478   7.160   4.556   6.863  1.6441 -2.2080 -0.6242
  352MOL0     H47479   7.212   4.587   6.697 -0.9023 -2.1796  1.6345
  352MOL0     H47480   6.982   4.888   6.902  0.9077 -1.0332 -0.0877
  352MOL0     H47481   6.673   4.861   7.078  0.9516 -1.1854  0.2713
  352MOL0     H47482   6.821   4.957   7.053 -1.5334  2.0523  1.2983
  352MOL0     H47483   6.677   4.997   6.957 -0.8884 -3.0267 -2.3164
  352MOL0     H47484   6.414   4.547   7.105  1.7285 -5.4888 -0.0796
  352MOL0     H47485   6.176   4.547   7.177 -0.4306 -0.2332 -0.1867
  352MOL0     H47486   5.827   4.467   6.898 -0.2648 -1.9586 -0.7713
  352MOL0     H47487   5.956   4.348   6.949  0.0935 -0.5457 -1.7373
  352MOL0     H47488   5.753   4.290   7.065  1.9904 -1.0998 -1.0733
  352MOL0     H47489   5.867   4.359   7.185  0.0966  0.4100 -0.1648
  352MOL0     H47490   5.606   4.466   7.068 -0.3881 -0.5188  0.8033
  352MOL0     H47491   5.728   4.587   7.108 -1.3209 -0.2710 -2.4014
  352MOL0     H47492   5.574   4.371   7.293 -2.5974  1.0936  0.7321
  352MOL0     H47493   5.724   4.453   7.353  0.8563  0.4269 -0.7814
  352MOL0     H47494   5.473   4.602   7.260  0.3258  1.7588  1.2881
  352MOL0     H47495   5.617   4.666   7.345 -0.5240  0.9329 -1.2219
  352MOL0     H47496   5.536   4.539   7.548 -1.5467 -1.1000  0.4684
  352MOL0     H47497   5.428   4.657   7.464  2.3161  1.9176 -2.6139
  352MOL0     H47498   5.416   4.351   7.469 -1.0267 -1.7803 -2.3877
  352MOL0     H47499   5.320   4.459   7.356  1.0699  2.4281  0.0198
  352MOL0     H47500   5.221   4.574   7.541 -0.2968 -0.7075 -2.2390
  352MOL0     H47501   5.324   4.483   7.659 -0.2296 -1.8968 -0.7177
  352MOL0     H47502   6.052   4.520   6.769 -1.0615 -1.0449  1.1947
  352MOL0     H47503   6.284   4.537   6.693  0.7883  2.2520 -0.4029
  352MOL0     H47504   6.684   4.538   6.715  1.5981 -1.7366  2.8547
  352MOL0     H47505   6.944   4.549   6.665  0.8954  0.6004 -1.7726
  352MOL0     H47506   9.247   4.674   6.874  1.1804  0.1746  0.2802
  352MOL0     H47507   9.465   4.601   6.831 -2.3637  2.8811 -1.4587
  352MOL0     H47508   9.787   4.211   6.423  0.4077 -1.3533 -0.4039
  352MOL0     H47509   9.991   4.158   6.442 -0.1367  5.1615 -2.2131
  352MOL0     H47510  10.254   4.032   6.551 -0.7187 -0.3675  3.0119
  352MOL0     H47511  10.208   4.200   6.491 -4.9031 -1.7912 -0.6394
  352MOL0     H47512  10.404   4.151   6.725  0.1852  3.7726  1.0178
  352MOL0     H47513  10.373   4.296   6.652  1.9972 -0.8720  2.7225
  352MOL0     H47514  10.581   4.226   6.560 -1.1929  2.2494  0.3757
  352MOL0     H47515  10.460   4.211   6.428 -0.9508  0.6533  0.9124
  352MOL0     H47516  10.446   3.961   6.483  0.1353 -0.0469  0.6835
  352MOL0     H47517  10.583   3.993   6.590  1.0442  2.8545  0.6008
  352MOL0     H47518  10.755   4.020   6.201  0.9140  0.1562  2.3754
  352MOL0     H47519   9.998   4.224   6.862  2.3281 -2.4737 -1.2476
  352MOL0     H47520   9.754   4.308   6.843 -0.3274 -0.0397 -0.6118
  353MOL0     O47521   2.039   6.252  10.813 -0.2836  0.4807 -0.4123
  353MOL0     C47522   2.016   6.132  10.817 -0.2708 -1.0519 -1.1561
  353MOL0     O47523   1.901   6.080  10.854 -0.3031  0.5134 -0.0589
  353MOL0     C47524   1.804   6.162  10.869 -0.5493  0.5053  0.5169
  353MOL0     C47525   1.778   6.199  11.001 -0.2589  0.5921 -0.2122
  353MOL0     C47526   1.696   6.300  11.027  0.1006 -0.1243 -0.3498
  353MOL0     C47527   1.632   6.366  10.920  0.1194 -0.8873 -0.1486
  353MOL0     O47528   1.543   6.470  10.953  0.5398  0.2495 -0.0788
  353MOL0     C47529   1.498   6.559  10.853 -0.8048 -0.0158  0.0093
  353MOL0     C47530   1.403   6.662  10.917  1.1091 -0.1849  0.2600
  353MOL0     C47531   1.352   6.763  10.811  0.0103  0.2033 -0.2500
  353MOL0     C47532   1.219   6.825  10.872 -0.1365 -0.9060 -0.3872
  353MOL0     C47533   1.180   6.963  10.802 -0.6530  1.2025 -0.3097
  353MOL0     C47534   1.057   7.017  10.886  0.3688  0.5915  0.2986
  353MOL0     C47535   0.943   6.922  10.849 -0.5796  0.1579 -0.0304
  353MOL0     C47536   0.885   6.865  10.977 -0.4536  0.1999 -0.3662
  353MOL0     N47537   0.900   6.719  10.992 -0.4887  0.3344 -0.5159
  353MOL0     C47538   0.977   6.653  11.081  0.2500  0.6206 -1.0230
  353MOL0     C47539   0.952   6.523  11.073  0.0049  0.5008 -0.2686
  353MOL0     C47540   1.006   6.414  11.167  0.0158 -0.3658  0.1270
  353MOL0     C47541   1.152   6.372  11.136  0.2775 -0.9010  1.1311
  353MOL0     C47542   1.187   6.233  11.198 -0.1558  0.4487  0.0431
  353MOL0     C47543   1.319   6.182  11.149 -0.2721  0.0691 -0.7552
  353MOL0     O47544   1.351   6.056  11.209 -0.1094  0.8329  0.0148
  353MOL0     C47545   1.486   6.030  11.218 -0.5288  1.2979  0.0796
  353MOL0     C47546   1.551   5.932  11.146  0.7839  0.4883 -0.0415
  353MOL0     C47547   1.686   5.900  11.163  0.4323 -0.2694  0.4941
  353MOL0     C47548   1.746   5.806  11.062 -0.5322 -0.7376  0.0958
  353MOL0     C47549   1.764   5.978  11.256  0.0898  0.2731  0.4464
  353MOL0     C47550   1.907   5.951  11.277  1.0707 -0.5458  0.1491
  353MOL0     O47551   1.968   5.831  11.241  0.5087 -0.0279  0.6047
  353MOL0     C47552   2.105   5.830  11.248  0.6364  0.1337 -0.5676
  353MOL0     C47553   2.173   5.903  11.158  0.0823 -0.0321  0.1413
  353MOL0     C47554   2.308   5.875  11.132 -0.0469 -0.1965  0.1568
  353MOL0     C47555   2.366   5.775  11.217 -0.0993 -0.0688 -0.2499
  353MOL0     O47556   2.502   5.740  11.220 -0.3370 -0.0410  0.7318
  353MOL0     C47557   2.588   5.801  11.125 -0.6968  0.5006 -1.4690
  353MOL0     C47558   2.741   5.761  11.149 -0.0967 -0.8625  0.3202
  353MOL0     C47559   2.837   5.789  11.030 -0.1408 -0.4240 -0.4747
  353MOL0     C47560   2.983   5.757  11.083  0.5107 -0.4205 -0.2490
  353MOL0     C47561   3.092   5.727  10.977  0.4780 -0.6438  0.3355
  353MOL0     C47562   3.128   5.855  10.910 -0.5484  0.1496  0.0061
  353MOL0     C47563   3.254   5.844  10.822 -0.7012  0.1046  0.1688
  353MOL0     C47564   3.243   5.723  10.722 -0.8075  0.3341  0.3825
  353MOL0    Cl47565   3.371   5.724  10.598 -0.0382  0.2838 -0.1794
  353MOL0     C47566   2.295   5.700  11.316 -0.8654  0.8895  0.5721
  353MOL0     C47567   2.162   5.731  11.331  0.3993 -0.5282  0.4809
  353MOL0     O47568   1.970   6.040  11.327 -0.3119  0.1189 -0.9221
  353MOL0     C47569   1.699   6.081  11.323 -0.0622  0.2762  0.9594
  353MOL0     C47570   1.562   6.104  11.309 -0.2504 -0.0124 -0.4390
  353MOL0     N47571   0.861   6.506  10.973 -0.6176 -0.0010 -0.2092
  353MOL0     N47572   0.832   6.626  10.929  0.2913  0.7316  0.9047
  353MOL0     C47573   1.645   6.311  10.793 -0.0164  0.0412  0.4477
  353MOL0     C47574   1.743   6.217  10.763  0.1480 -0.2697  0.2412
  353MOL0     C47575   2.138   6.050  10.811  0.3952 -0.4291  0.2562
  353MOL0     C47576   2.121   5.912  10.807 -0.6475  0.2258  0.6773
  353MOL0     C47577   2.230   5.825  10.778  0.1351  0.7623 -0.4887
  353MOL0     C47578   2.357   5.884  10.775 -0.2457  1.4994  0.2379
  353MOL0     O47579   2.449   5.786  10.738 -0.8541  0.1718 -0.3050
  353MOL0     C47580   2.591   5.823  10.729  0.0379  0.1931 -0.4068
  353MOL0     C47581   2.663   5.713  10.662  0.6631  0.1330 -0.5617
  353MOL0     C47582   2.799   5.761  10.607 -0.5367 -0.4288 -0.2289
  353MOL0     C47583   2.875   5.654  10.537 -0.1278 -0.8548 -0.3462
  353MOL0     C47584   2.908   5.545  10.621 -0.0947  0.3605 -0.8558
  353MOL0     C47585   2.940   5.456  10.696  0.5687  0.0701  0.3710
  353MOL0     C47586   2.373   6.019  10.802 -0.2484 -0.1000  0.0616
  353MOL0     C47587   2.262   6.103  10.818 -0.5972 -0.3182  0.3696
  353MOL0     H47588   1.836   6.154  11.081  0.0436 -1.9220 -1.7547
  353MOL0     H47589   1.677   6.335  11.128 -0.4426 -0.7999 -0.2076
  353MOL0     H47590   1.582   6.614  10.809 -0.0821 -1.7442 -0.8450
  353MOL0     H47591   1.441   6.504  10.778 -0.4571 -1.2956  0.6591
  353MOL0     H47592   1.321   6.610  10.968  0.5590  1.7306  1.4201
  353MOL0     H47593   1.447   6.722  10.997 -0.9676 -1.4133  2.4635
  353MOL0     H47594   1.422   6.846  10.810  0.3061  0.2055  3.9251
  353MOL0     H47595   1.349   6.717  10.711  1.4760  0.8852 -0.6388
  353MOL0     H47596   1.142   6.748  10.856 -1.8116  0.0922  2.3376
  353MOL0     H47597   1.218   6.846  10.979 -1.7379 -0.6967 -0.4172
  353MOL0     H47598   1.266   7.029  10.816 -0.1798  0.9001 -1.6163
  353MOL0     H47599   1.170   6.941  10.695 -2.0102 -1.0529  0.2069
  353MOL0     H47600   1.080   7.026  10.993  0.7628  0.1381  0.2574
  353MOL0     H47601   1.043   7.119  10.848 -1.9671  0.2601  0.1576
  353MOL0     H47602   0.876   6.978  10.783  1.3511  0.4795 -1.8205
  353MOL0     H47603   0.973   6.840  10.784 -1.8903 -0.2026 -0.1951
  353MOL0     H47604   0.777   6.884  10.969 -0.0053  2.1584 -3.6321
  353MOL0     H47605   0.913   6.919  11.068 -3.2800  0.4380  0.4665
  353MOL0     H47606   1.025   6.716  11.155 -0.3606 -1.5055  1.3398
  353MOL0     H47607   1.008   6.453  11.269  0.9777 -2.1036  0.8142
  353MOL0     H47608   0.945   6.323  11.170 -0.9633  0.2725  0.1772
  353MOL0     H47609   1.215   6.456  11.166  1.1620  0.9531 -4.7161
  353MOL0     H47610   1.155   6.357  11.028  1.4032 -0.8190  1.1397
  353MOL0     H47611   1.105   6.166  11.172  0.4237 -0.2825  0.0620
  353MOL0     H47612   1.195   6.255  11.305  0.6356  0.3209  0.0136
  353MOL0     H47613   1.392   6.262  11.161 -1.1657  1.3925 -3.4666
  353MOL0     H47614   1.314   6.151  11.044  1.0217 -1.1968 -0.4824
  353MOL0     H47615   1.495   5.889  11.063  0.6100  0.7753 -0.0726
  353MOL0     H47616   1.803   5.860  10.985  0.4244 -2.5471 -0.5285
  353MOL0     H47617   1.812   5.731  11.107  1.5386  0.9729  0.0430
  353MOL0     H47618   1.667   5.763  11.000 -1.8839  2.7579 -0.8464
  353MOL0     H47619   2.124   5.976  11.096  0.0462  0.5295  0.8201
  353MOL0     H47620   2.362   5.933  11.057 -0.9822  3.5175  2.1044
  353MOL0     H47621   2.564   5.752  11.030  0.9241 -2.9287 -0.2657
  353MOL0     H47622   2.584   5.910  11.129  0.8230  0.5415  0.2454
  353MOL0     H47623   2.770   5.843  11.215 -2.8970  0.9734 -0.5244
  353MOL0     H47624   2.747   5.662  11.194 -2.3477 -2.1873 -2.0101
  353MOL0     H47625   2.825   5.896  11.009 -1.4455  0.5406  4.0914
  353MOL0     H47626   2.800   5.723  10.952 -0.4628 -1.0742  0.2179
  353MOL0     H47627   3.011   5.832  11.158 -2.0289 -0.2423  0.6254
  353MOL0     H47628   2.979   5.667  11.145  4.6595 -0.9557 -0.5123
  353MOL0     H47629   3.053   5.652  10.907 -0.4808  0.8879 -0.8398
  353MOL0     H47630   3.177   5.678  11.024  1.6123 -0.0487 -1.0418
  353MOL0     H47631   3.043   5.889  10.850 -1.4359 -2.8078 -0.5826
  353MOL0     H47632   3.147   5.931  10.987 -0.8408  2.4378 -2.0375
  353MOL0     H47633   3.332   5.825  10.895 -2.5615 -1.0105  1.9865
  353MOL0     H47634   3.276   5.937  10.769 -1.5650  2.6844  3.9609
  353MOL0     H47635   3.148   5.735  10.668 -0.9755  3.3669  1.1666
  353MOL0     H47636   3.245   5.628  10.775 -0.5536  0.9385  1.4885
  353MOL0     H47637   2.331   5.632  11.392  0.2080 -0.3668 -0.9712
  353MOL0     H47638   2.095   5.679  11.399 -1.7115 -1.3682 -2.0751
  353MOL0     H47639   1.759   6.146  11.386  0.3750  0.1832  0.6406
  353MOL0     H47640   1.516   6.177  11.374 -1.1526 -0.4152 -0.6057
  353MOL0     H47641   1.576   6.344  10.716 -0.5061 -0.2184  0.7740
  353MOL0     H47642   1.763   6.170  10.667  1.7446 -1.4624  1.1174
  353MOL0     H47643   2.023   5.866  10.810 -0.3132 -0.5114  0.6922
  353MOL0     H47644   2.216   5.720  10.754 -4.4214  1.7182 -3.0994
  353MOL0     H47645   2.604   5.918  10.676  0.5937  1.4743  1.8704
  353MOL0     H47646   2.622   5.844  10.832 -0.6244 -1.3679  0.1461
  353MOL0     H47647   2.599   5.684  10.578  0.5152 -1.7031  0.1527
  353MOL0     H47648   2.675   5.629  10.730  0.8160  0.4192 -0.2312
  353MOL0     H47649   2.857   5.805  10.688 -1.5403  0.3868  0.0671
  353MOL0     H47650   2.789   5.849  10.543  0.8129  1.7613  2.3835
  353MOL0     H47651   2.970   5.682  10.491 -0.2863  0.2313 -0.0552
  353MOL0     H47652   2.821   5.621  10.448 -0.1108 -3.4408  0.5265
  353MOL0     H47653   2.984   5.381  10.759  0.1982 -1.3019 -0.9457
  353MOL0     H47654   2.465   6.076  10.804 -0.1128 -0.3200  1.2539
  353MOL0     H47655   2.294   6.206  10.827 -0.0894 -0.5582  1.5507
  354MOL0     O47656   7.081  11.191   9.392  0.7825 -0.5608  0.0552
  354MOL0     C47657   7.003  11.102   9.375  0.5560  0.9468 -0.3444
  354MOL0     O47658   6.869  11.113   9.351  0.1209 -0.5513 -0.3092
  354MOL0     C47659   6.814  11.237   9.358 -0.1743 -0.9970  0.1738
  354MOL0     C47660   6.843  11.341   9.443  0.9467  1.0321  0.2964
  354MOL0     C47661   6.773  11.461   9.446  0.7362 -0.5933  0.0778
  354MOL0     C47662   6.668  11.483   9.355 -0.6777 -0.8183  0.1690
  354MOL0     O47663   6.609  11.609   9.344 -1.3644 -0.2671 -0.3983
  354MOL0     C47664   6.517  11.634   9.230 -0.0655 -0.6479  0.7914
  354MOL0     C47665   6.372  11.579   9.256  0.1351 -0.8933  0.0955
  354MOL0     C47666   6.283  11.628   9.145 -0.0572  0.2364  0.2339
  354MOL0     C47667   6.129  11.606   9.176 -1.1583  0.3455 -0.4927
  354MOL0     C47668   6.056  11.650   9.058 -0.0175  0.6213  0.1799
  354MOL0     C47669   5.906  11.638   9.096 -0.1633  0.4551  0.3989
  354MOL0     C47670   5.811  11.681   8.975 -0.2680 -1.2092  0.0146
  354MOL0     C47671   5.671  11.629   8.988 -0.7275  0.8659  0.5422
  354MOL0     N47672   5.605  11.675   9.112 -0.2833 -0.0894 -0.1439
  354MOL0     C47673   5.566  11.798   9.158 -0.3575 -0.3978  0.1290
  354MOL0     C47674   5.516  11.788   9.284 -0.7323  0.2214 -0.2990
  354MOL0     C47675   5.454  11.883   9.370 -0.2932 -0.1073 -0.9844
  354MOL0     C47676   5.298  11.871   9.366  0.6923  0.4073 -0.1111
  354MOL0     C47677   5.241  11.843   9.233  0.0933  0.7277  0.0730
  354MOL0     C47678   5.090  11.801   9.240  0.5338 -0.4765  0.4628
  354MOL0     O47679   5.052  11.760   9.107 -0.7567  0.2057 -0.1440
  354MOL0     C47680   4.915  11.774   9.074 -0.1796 -0.8793 -0.3260
  354MOL0     C47681   4.823  11.859   9.142 -0.1383  0.8607 -0.0439
  354MOL0     C47682   4.692  11.870   9.088  0.9139  0.0366 -0.6097
  354MOL0     C47683   4.605  11.975   9.162 -0.6603  0.4127 -0.0251
  354MOL0     C47684   4.657  11.788   8.979  0.4249 -0.3126  0.2246
  354MOL0     C47685   4.515  11.774   8.927  0.1547  0.4887 -0.7567
  354MOL0     O47686   4.493  11.686   8.827 -0.5253 -0.5227  0.0605
  354MOL0     C47687   4.369  11.686   8.778  0.5222 -0.2986 -0.0429
  354MOL0     C47688   4.331  11.730   8.652 -0.0538  0.0205 -0.0499
  354MOL0     C47689   4.203  11.701   8.603  0.1634  0.0854 -0.4525
  354MOL0     C47690   4.102  11.641   8.686 -0.7537  0.1384 -0.0716
  354MOL0     O47691   3.978  11.629   8.646  0.3056  0.7933 -0.1846
  354MOL0     C47692   3.941  11.659   8.510  0.3560  0.1096 -0.1738
  354MOL0     C47693   3.791  11.640   8.507 -0.6133  0.2476 -0.1639
  354MOL0     C47694   3.706  11.683   8.386 -0.1726 -0.6102  0.3052
  354MOL0     C47695   3.557  11.673   8.405  0.1065 -1.0636  0.3250
  354MOL0     C47696   3.504  11.538   8.351 -0.1374  0.2530  0.4762
  354MOL0     C47697   3.350  11.525   8.363  0.1988 -1.1228 -0.5780
  354MOL0     C47698   3.300  11.388   8.331 -0.0681  0.0157 -0.2810
  354MOL0     C47699   3.151  11.387   8.321  0.1956 -0.2931 -0.3974
  354MOL0    Cl47700   3.074  11.461   8.472 -0.1982  0.1170  0.0143
  354MOL0     C47701   4.145  11.596   8.817  0.8794  0.3140 -0.3302
  354MOL0     C47702   4.271  11.620   8.859 -0.4287  0.3480  0.6354
  354MOL0     O47703   4.430  11.849   8.979  0.3909 -0.1584 -0.0843
  354MOL0     C47704   4.753  11.707   8.913 -0.6519 -0.7915  0.1785
  354MOL0     C47705   4.881  11.694   8.969 -1.2321 -0.2680  0.0612
  354MOL0     N47706   5.526  11.651   9.314  0.3538  0.6259 -0.5838
  354MOL0     N47707   5.586  11.592   9.219  0.2767  0.4276 -0.1712
  354MOL0     C47708   6.647  11.382   9.260 -0.0482 -0.1678  0.6214
  354MOL0     C47709   6.720  11.265   9.256  0.0010 -0.1127  0.7175
  354MOL0     C47710   7.045  10.960   9.367  0.4664 -0.0446  0.1062
  354MOL0     C47711   7.158  10.926   9.445 -0.0308  0.3248 -0.9078
  354MOL0     C47712   7.206  10.800   9.449  0.4192 -0.1291  1.1860
  354MOL0     C47713   7.132  10.700   9.384 -0.0529  0.6639  0.5520
  354MOL0     O47714   7.190  10.574   9.395  0.1075  0.0266 -0.0010
  354MOL0     C47715   7.172  10.468   9.310 -0.3372  0.0820  1.0429
  354MOL0     C47716   7.273  10.475   9.190  0.6771  0.1124 -0.3462
  354MOL0     C47717   7.407  10.440   9.225 -0.3946  0.2327  0.1074
  354MOL0     C47718   7.470  10.405   9.088  0.0315  1.0485 -0.5608
  354MOL0     C47719   7.605  10.351   9.109 -0.0672  0.0314 -0.6114
  354MOL0     C47720   7.719  10.313   9.134  0.4926  0.3141  0.2138
  354MOL0     C47721   7.016  10.727   9.312 -0.8365  0.2112  0.2505
  354MOL0     C47722   6.974  10.858   9.295  0.1446  0.7541 -0.3139
  354MOL0     H47723   6.923  11.319   9.513  1.3847 -2.0834 -1.0439
  354MOL0     H47724   6.809  11.535   9.517 -0.6489 -0.2197  0.4320
  354MOL0     H47725   6.508  11.743   9.238  2.8746 -0.3885  2.0065
  354MOL0     H47726   6.555  11.611   9.130  1.7782  1.5243  0.9157
  354MOL0     H47727   6.364  11.470   9.260 -1.7170 -0.9052 -2.1783
  354MOL0     H47728   6.338  11.622   9.351 -0.9052  0.7054 -0.9492
  354MOL0     H47729   6.311  11.731   9.121  0.8973  0.6025  2.6335
  354MOL0     H47730   6.294  11.559   9.061 -0.6069  1.1204 -0.5895
  354MOL0     H47731   6.118  11.502   9.209  0.5569  0.7969  1.6790
  354MOL0     H47732   6.100  11.668   9.261 -0.2561 -0.3873  0.3723
  354MOL0     H47733   6.082  11.751   9.024 -0.1492  0.3047 -0.9007
  354MOL0     H47734   6.080  11.589   8.970  1.0163  0.9404  0.2275
  354MOL0     H47735   5.890  11.533   9.121 -0.9231  0.3337 -0.5274
  354MOL0     H47736   5.893  11.705   9.181  0.2486  0.3601  0.5370
  354MOL0     H47737   5.812  11.789   8.958  1.4608 -1.4247 -1.6827
  354MOL0     H47738   5.861  11.636   8.889  1.4394 -0.0619  0.3453
  354MOL0     H47739   5.674  11.520   8.987 -0.5087  0.8414 -1.4860
  354MOL0     H47740   5.616  11.674   8.904  3.9402  2.8294 -1.8183
  354MOL0     H47741   5.566  11.888   9.097 -3.1162  1.2289  2.2762
  354MOL0     H47742   5.494  11.859   9.469 -2.8822 -1.5039 -0.1779
  354MOL0     H47743   5.472  11.989   9.355 -1.9355  0.9121  2.8361
  354MOL0     H47744   5.254  11.965   9.401 -0.5880 -0.3006  0.2770
  354MOL0     H47745   5.262  11.793   9.435 -2.0080  0.1923 -1.6458
  354MOL0     H47746   5.295  11.761   9.184 -0.8449  0.1575 -0.0151
  354MOL0     H47747   5.257  11.933   9.172  2.6723 -0.2225 -0.8144
  354MOL0     H47748   5.039  11.891   9.276  2.9968  1.8875 -1.5768
  354MOL0     H47749   5.062  11.737   9.324 -0.9732  1.7838  1.8141
  354MOL0     H47750   4.845  11.925   9.225 -0.2428  2.4006 -1.1941
  354MOL0     H47751   4.668  12.025   9.237 -0.4922  1.5538 -0.8981
  354MOL0     H47752   4.567  12.046   9.089 -0.7025 -0.1067 -0.5142
  354MOL0     H47753   4.519  11.926   9.210 -1.4186 -0.9428 -2.6259
  354MOL0     H47754   4.394  11.801   8.600  1.2738  0.2150  1.7072
  354MOL0     H47755   4.183  11.744   8.505 -1.1733 -2.5727 -1.4436
  354MOL0     H47756   3.951  11.766   8.490 -3.6390  1.2631  2.6615
  354MOL0     H47757   3.992  11.598   8.435  1.9468  0.1125  0.8677
  354MOL0     H47758   3.778  11.534   8.528  3.1632 -0.3872 -0.4599
  354MOL0     H47759   3.752  11.695   8.594  2.7490  1.2352  0.8517
  354MOL0     H47760   3.748  11.635   8.297  2.8604  1.1211  0.6794
  354MOL0     H47761   3.729  11.789   8.378  0.4757 -0.8567 -1.4666
  354MOL0     H47762   3.518  11.702   8.504 -0.3824  1.3416 -0.4985
  354MOL0     H47763   3.515  11.753   8.344  2.6116  1.0462  1.2037
  354MOL0     H47764   3.544  11.459   8.415  0.5193  1.1287  1.1751
  354MOL0     H47765   3.538  11.535   8.248  2.6942  4.6426  1.0152
  354MOL0     H47766   3.332  11.546   8.469  0.2391  0.4265 -0.8618
  354MOL0     H47767   3.297  11.598   8.302 -1.2821  1.6125  3.5695
  354MOL0     H47768   3.334  11.321   8.411 -1.2763  0.6703  0.8187
  354MOL0     H47769   3.340  11.368   8.232 -1.0541  0.3821 -0.7659
  354MOL0     H47770   3.127  11.280   8.318  1.8084 -0.6823 -0.5892
  354MOL0     H47771   3.106  11.435   8.234  0.6711 -0.4853 -0.7556
  354MOL0     H47772   4.081  11.549   8.892  1.9368  0.9904  1.0414
  354MOL0     H47773   4.293  11.575   8.956 -1.3992 -0.3534  0.5322
  354MOL0     H47774   4.748  11.653   8.819  1.1900  1.2893 -1.2013
  354MOL0     H47775   4.953  11.631   8.917 -1.1560 -0.5763  0.5425
  354MOL0     H47776   6.569  11.381   9.185  1.1762 -2.9832 -0.8014
  354MOL0     H47777   6.707  11.196   9.173  2.6483 -1.3309  1.2038
  354MOL0     H47778   7.198  11.002   9.512  3.1746 -2.7779  0.9951
  354MOL0     H47779   7.275  10.765   9.524  2.3760  1.0226  0.0022
  354MOL0     H47780   7.196  10.374   9.360 -3.1179 -3.3615 -3.3127
  354MOL0     H47781   7.068  10.467   9.274  0.2225 -0.2465 -0.6525
  354MOL0     H47782   7.282  10.574   9.146  2.3135  0.7331  1.2594
  354MOL0     H47783   7.232  10.405   9.116 -0.5690 -1.9702  2.1317
  354MOL0     H47784   7.403  10.351   9.288 -0.9510  1.1555  1.4163
  354MOL0     H47785   7.473  10.512   9.275  2.1086 -1.1645 -0.9597
  354MOL0     H47786   7.476  10.495   9.027  0.6678 -0.3099 -2.5913
  354MOL0     H47787   7.416  10.337   9.021  0.1215 -1.6361  1.8960
  354MOL0     H47788   7.822  10.286   9.136 -0.0817 -2.0770  1.3607
  354MOL0     H47789   6.960  10.643   9.272  1.8689 -0.8718 -1.6066
  354MOL0     H47790   6.890  10.876   9.228 -1.0523 -1.1398  0.5716
  355MOL0     O47791   4.006  10.738   8.739  0.0394 -0.9643  0.6071
  355MOL0     C47792   4.029  10.623   8.760  0.4634  0.5501 -0.2513
  355MOL0     O47793   3.934  10.528   8.783  0.5926  0.3539 -0.5819
  355MOL0     C47794   3.799  10.562   8.778  0.1148  0.4209 -0.5587
  355MOL0     C47795   3.727  10.519   8.669 -0.3697  0.5229 -0.1536
  355MOL0     C47796   3.594  10.549   8.649  0.4336 -0.4693  0.5018
  355MOL0     C47797   3.527  10.629   8.742  0.7096 -0.3934 -0.2337
  355MOL0     O47798   3.392  10.665   8.716  0.2953 -0.3735  0.8204
  355MOL0     C47799   3.368  10.800   8.748  0.2067 -0.5364 -1.1455
  355MOL0     C47800   3.222  10.837   8.713 -0.5554  0.8047 -0.0489
  355MOL0     C47801   3.180  10.973   8.754  1.0065  0.4325  0.7489
  355MOL0     C47802   3.028  10.996   8.749 -0.0557  0.2484 -0.0205
  355MOL0     C47803   2.979  11.079   8.620 -1.0711  0.4110  0.0126
  355MOL0     C47804   2.835  11.098   8.600 -0.3248 -0.1313 -0.6088
  355MOL0     C47805   2.833  11.211   8.497  0.1080  0.7031  0.4957
  355MOL0     C47806   2.692  11.218   8.441 -0.5797 -0.2917  0.5387
  355MOL0     N47807   2.598  11.259   8.552 -0.3781  1.0429  0.8119
  355MOL0     C47808   2.536  11.383   8.570  0.1991  0.3346 -0.2741
  355MOL0     C47809   2.449  11.366   8.686  0.5759  0.2830  0.2570
  355MOL0     C47810   2.364  11.467   8.758  0.0472  0.1240  0.5068
  355MOL0     C47811   2.238  11.492   8.678 -0.0471  1.1859 -0.5336
  355MOL0     C47812   2.188  11.636   8.677  0.6555 -0.0263 -0.0030
  355MOL0     C47813   2.044  11.642   8.633  0.3539 -0.5974  0.0232
  355MOL0     O47814   2.004  11.786   8.653  0.4855 -0.3552  0.4017
  355MOL0     C47815   1.883  11.845   8.636 -0.7190  0.3994 -0.3247
  355MOL0     C47816   1.854  11.976   8.682 -0.6796  0.6718  0.1624
  355MOL0     C47817   1.734  12.037   8.653 -0.2068 -0.5339 -0.3171
  355MOL0     C47818   1.729  12.174   8.694 -0.1510  0.2066 -1.6313
  355MOL0     C47819   1.624  11.972   8.580 -0.6000 -0.2119 -1.3724
  355MOL0     C47820   1.491  12.034   8.552  0.2967 -0.5031 -0.5806
  355MOL0     O47821   1.472  12.169   8.583  0.1570  0.3403  0.2265
  355MOL0     C47822   1.342  12.219   8.597  0.1587  0.6435  0.1473
  355MOL0     C47823   1.271  12.300   8.507 -0.6102  0.9398  0.5938
  355MOL0     C47824   1.130  12.322   8.517  0.2142  0.5496 -0.1054
  355MOL0     C47825   1.054  12.258   8.618 -0.7717  0.2346  0.4199
  355MOL0     O47826   0.920  12.284   8.612 -0.1515  0.3315 -0.1008
  355MOL0     C47827   0.827  12.192   8.674  0.2869  0.2633  0.6086
  355MOL0     C47828   0.692  12.212   8.590  0.3781 -0.3291  0.4348
  355MOL0     C47829   0.586  12.114   8.642 -0.9017  0.2631  0.0393
  355MOL0     C47830   0.478  12.134   8.553  0.2365  0.3264  0.9542
  355MOL0     C47831   0.360  12.045   8.588 -0.5337 -1.2185  0.4966
  355MOL0     C47832   0.250  12.063   8.488 -0.2699 -0.9476  0.4288
  355MOL0     C47833   0.115  11.995   8.537  0.0977 -0.5622  0.5766
  355MOL0     C47834  -0.015  12.048   8.475 -0.1773  0.2277  0.2289
  355MOL0    Cl47835  -0.034  12.222   8.509 -0.0766  0.4800  0.3865
  355MOL0     C47836   1.119  12.178   8.714  0.5567 -0.8609 -0.1740
  355MOL0     C47837   1.260  12.148   8.694 -0.6763 -1.0901  0.9298
  355MOL0     O47838   1.402  11.964   8.503  0.3796  0.8685  0.3851
  355MOL0     C47839   1.655  11.836   8.544  0.7617  0.4907  0.0993
  355MOL0     C47840   1.781  11.775   8.571  0.3117 -0.6460  0.0555
  355MOL0     N47841   2.449  11.223   8.710 -0.4686  0.0891 -0.3401
  355MOL0     N47842   2.536  11.166   8.630 -0.4894 -0.0462 -0.4142
  355MOL0     C47843   3.602  10.676   8.855  0.4458 -0.2428  0.3622
  355MOL0     C47844   3.742  10.644   8.869  0.7617  0.3864 -0.5045
  355MOL0     C47845   4.166  10.588   8.769 -1.1178  1.1946  0.2552
  355MOL0     C47846   4.216  10.453   8.763  0.0607 -0.0333 -0.9861
  355MOL0     C47847   4.352  10.427   8.771 -0.4349  0.4789 -0.3756
  355MOL0     C47848   4.448  10.528   8.794  0.4305  0.2288  0.1449
  355MOL0     O47849   4.586  10.501   8.824 -0.5735 -0.7066 -0.0512
  355MOL0     C47850   4.666  10.437   8.716  0.6631  0.6686  0.0172
  355MOL0     C47851   4.685  10.513   8.581  0.7786  0.0487  0.4380
  355MOL0     C47852   4.736  10.653   8.605  0.3779  0.9948 -0.0605
  355MOL0     C47853   4.891  10.645   8.619 -0.4082  0.5876 -0.5796
  355MOL0     C47854   4.941  10.750   8.717 -0.9123  0.4474  1.0569
  355MOL0     C47855   4.978  10.829   8.795 -0.5643 -0.5821  0.5673
  355MOL0     C47856   4.399  10.662   8.790 -0.6086  0.4765  0.1137
  355MOL0     C47857   4.265  10.685   8.778  0.2772 -0.7120  0.7020
  355MOL0     H47858   3.780  10.459   8.597  1.6355 -2.1896  3.2918
  355MOL0     H47859   3.536  10.514   8.563 -1.3870 -2.0160  2.2519
  355MOL0     H47860   3.381  10.827   8.853  0.4282  1.9831 -1.7560
  355MOL0     H47861   3.445  10.863   8.702 -0.5086  0.3174 -1.2017
  355MOL0     H47862   3.198  10.829   8.607  0.2532  2.6989 -0.4097
  355MOL0     H47863   3.159  10.755   8.747  0.6897 -0.7051 -1.2252
  355MOL0     H47864   3.211  10.992   8.858 -1.2882 -1.2350  1.8292
  355MOL0     H47865   3.226  11.048   8.689 -0.8989  0.3031 -0.8238
  355MOL0     H47866   2.976  10.899   8.743  0.6258 -0.3335  2.2928
  355MOL0     H47867   2.995  11.044   8.842 -0.8835 -0.2115 -0.0615
  355MOL0     H47868   3.029  11.176   8.627  1.0683 -0.4705 -1.9559
  355MOL0     H47869   3.026  11.027   8.536  5.1056  4.1805  0.6038
  355MOL0     H47870   2.787  11.007   8.563  0.5224 -0.8731  0.0846
  355MOL0     H47871   2.780  11.122   8.691  1.5735 -2.2976  1.2237
  355MOL0     H47872   2.866  11.302   8.549  1.9405  0.6320 -0.4576
  355MOL0     H47873   2.902  11.183   8.416  0.4383 -0.2894  1.1082
  355MOL0     H47874   2.665  11.122   8.395 -2.2316 -0.4811  1.8053
  355MOL0     H47875   2.693  11.282   8.352  0.0512 -2.0564 -0.7880
  355MOL0     H47876   2.557  11.479   8.525  0.7308  1.4634  2.1806
  355MOL0     H47877   2.355  11.444   8.864 -2.1482  0.6017  0.4681
  355MOL0     H47878   2.417  11.563   8.769 -1.9220  1.3055  0.0956
  355MOL0     H47879   2.171  11.419   8.725 -0.3742  1.7794 -0.0746
  355MOL0     H47880   2.245  11.460   8.573 -1.2445  1.0521 -0.5826
  355MOL0     H47881   2.254  11.701   8.619  1.0955  0.9723  1.5534
  355MOL0     H47882   2.186  11.668   8.781 -3.8930  0.3295  0.0282
  355MOL0     H47883   1.982  11.572   8.689  0.4975 -1.8232 -1.2860
  355MOL0     H47884   2.042  11.616   8.527  3.2864 -0.6376 -0.1111
  355MOL0     H47885   1.929  12.038   8.731 -0.2379 -0.2378  0.6653
  355MOL0     H47886   1.653  12.205   8.765  2.5827  1.2546  1.0539
  355MOL0     H47887   1.818  12.204   8.751 -0.7319  1.3501 -1.3076
  355MOL0     H47888   1.722  12.238   8.606  0.4482  2.9975  0.2254
  355MOL0     H47889   1.326  12.348   8.427 -1.9014 -0.3721 -1.1675
  355MOL0     H47890   1.073  12.376   8.442  0.3162 -0.9759 -1.3282
  355MOL0     H47891   0.876  12.095   8.676 -1.4930 -0.6901  0.1559
  355MOL0     H47892   0.809  12.221   8.778 -0.1146  0.3778  0.5101
  355MOL0     H47893   0.659  12.315   8.611 -0.4863 -0.2803 -1.0624
  355MOL0     H47894   0.708  12.212   8.482  2.0757  2.6413  0.5649
  355MOL0     H47895   0.566  12.131   8.748  1.1443  3.1607  0.0676
  355MOL0     H47896   0.619  12.012   8.624 -2.9283 -0.4585  0.1952
  355MOL0     H47897   0.450  12.239   8.552 -0.7763  0.0853 -0.8671
  355MOL0     H47898   0.503  12.105   8.450  1.8721 -1.6644  1.8334
  355MOL0     H47899   0.316  12.082   8.681 -2.3675 -0.9602 -0.4148
  355MOL0     H47900   0.393  11.941   8.592  1.0516 -0.6861  2.1393
  355MOL0     H47901   0.232  12.169   8.469  2.5174 -0.2488  1.2240
  355MOL0     H47902   0.280  12.016   8.394 -2.2900  0.0764 -0.8044
  355MOL0     H47903   0.098  12.010   8.644  2.2954 -1.9586  1.1868
  355MOL0     H47904   0.126  11.887   8.522 -0.3659 -0.9547  2.7202
  355MOL0     H47905  -0.092  11.989   8.524 -0.3755  1.2920  1.2476
  355MOL0     H47906  -0.009  12.029   8.367 -0.2847  2.3009 -0.1822
  355MOL0     H47907   1.067  12.122   8.791 -1.8250 -0.6195 -1.5524
  355MOL0     H47908   1.319  12.077   8.751  0.9311 -0.8112 -0.3359
  355MOL0     H47909   1.585  11.784   8.480  0.4131 -1.0627  1.6642
  355MOL0     H47910   1.802  11.676   8.531 -1.2973 -1.5095  1.2283
  355MOL0     H47911   3.556  10.720   8.943  1.6217 -2.1902  2.0264
  355MOL0     H47912   3.806  10.689   8.944  0.3238 -0.1265  0.1938
  355MOL0     H47913   4.139  10.377   8.750 -0.2413 -0.4441  2.2728
  355MOL0     H47914   4.383  10.323   8.779  0.3778  0.8504  1.8465
  355MOL0     H47915   4.761  10.401   8.755  0.1225 -3.2726 -1.8495
  355MOL0     H47916   4.614  10.343   8.693  0.0713  0.4418  2.0163
  355MOL0     H47917   4.581  10.507   8.548  0.2215  1.9160  1.6745
  355MOL0     H47918   4.742  10.451   8.511 -1.4364 -2.0244  0.3145
  355MOL0     H47919   4.692  10.710   8.688  0.6353  0.5937  0.3557
  355MOL0     H47920   4.716  10.698   8.507 -0.0429  0.9907  0.0218
  355MOL0     H47921   4.942  10.648   8.522  0.9405  1.3982  0.1275
  355MOL0     H47922   4.919  10.554   8.674  2.0472  1.4240 -0.3342
  355MOL0     H47923   5.004  10.903   8.868  1.8414 -0.0545 -0.7040
  355MOL0     H47924   4.469  10.744   8.809 -1.4558  1.6471 -1.5866
  355MOL0     H47925   4.238  10.789   8.798  0.2945 -0.5903  0.0873
  356MOL0     O47926   1.872   5.225   6.469  0.4873  0.1765 -0.0622
  356MOL0     C47927   1.871   5.122   6.398  0.5085  0.0074  0.1217
  356MOL0     O47928   1.757   5.061   6.339 -0.5406 -0.1062 -0.3717
  356MOL0     C47929   1.645   5.136   6.347  0.2667 -0.3474  0.2100
  356MOL0     C47930   1.599   5.236   6.253 -0.4935  0.7677 -0.1059
  356MOL0     C47931   1.477   5.283   6.257 -0.8431 -1.0683 -0.9758
  356MOL0     C47932   1.386   5.245   6.349 -0.5955 -0.2229 -0.9941
  356MOL0     O47933   1.254   5.280   6.343  0.5797  0.2409  0.5041
  356MOL0     C47934   1.221   5.408   6.301 -0.0501  0.7524  0.2487
  356MOL0     C47935   1.074   5.468   6.313 -0.2187 -0.1155  0.1484
  356MOL0     C47936   0.969   5.384   6.252  0.3887  0.8586 -0.1544
  356MOL0     C47937   0.823   5.443   6.258  0.8969 -0.3455  0.0520
  356MOL0     C47938   0.714   5.352   6.191 -0.2685  0.6037 -0.5325
  356MOL0     C47939   0.582   5.429   6.192  0.6875 -0.2003  0.0864
  356MOL0     C47940   0.463   5.368   6.117  0.0932  0.0404  0.5304
  356MOL0     C47941   0.433   5.221   6.144  0.2438  0.4088 -0.0928
  356MOL0     N47942   0.330   5.165   6.056 -0.1218 -0.4141 -0.1805
  356MOL0     C47943   0.214   5.226   6.036  0.3726 -0.2794  0.0660
  356MOL0     C47944   0.161   5.178   5.920 -0.5790  0.0269  0.3265
  356MOL0     C47945   0.039   5.225   5.854 -0.3638  0.1736  0.5428
  356MOL0     C47946  -0.090   5.174   5.912 -0.5357  1.1524  0.1330
  356MOL0     C47947  -0.075   5.028   5.966 -1.0444 -0.3590 -0.4719
  356MOL0     C47948  -0.200   4.952   5.975 -0.7473 -0.4494  0.7340
  356MOL0     O47949  -0.261   4.931   5.845  0.2136 -0.3108 -0.1402
  356MOL0     C47950  -0.388   4.881   5.840 -0.3516  0.0290 -1.1471
  356MOL0     C47951  -0.443   4.888   5.713  0.0956 -0.3404  0.5170
  356MOL0     C47952  -0.573   4.847   5.684  0.0255  0.6577  0.0840
  356MOL0     C47953  -0.611   4.841   5.535 -0.0856 -0.6157  0.0914
  356MOL0     C47954  -0.644   4.785   5.790  0.9977 -0.8580  0.0799
  356MOL0     C47955  -0.783   4.741   5.779 -0.3210  0.0407 -0.2812
  356MOL0     O47956  -0.815   4.624   5.844  0.1709 -0.5718  0.8897
  356MOL0     C47957  -0.927   4.557   5.787 -0.3966  0.0189  0.7730
  356MOL0     C47958  -0.898   4.427   5.750  0.5184  0.3189  0.2423
  356MOL0     C47959  -1.001   4.348   5.703  0.3003 -0.5348  0.2603
  356MOL0     C47960  -1.131   4.403   5.698  0.3674 -0.6549 -0.5764
  356MOL0     O47961  -1.243   4.326   5.675 -0.2891 -0.3423 -0.3837
  356MOL0     C47962  -1.221   4.198   5.610  0.4337 -0.4105  0.0267
  356MOL0     C47963  -1.360   4.139   5.582 -0.1479  0.7755 -0.3492
  356MOL0     C47964  -1.358   4.014   5.498 -0.3604  0.2282 -0.0110
  356MOL0     C47965  -1.498   3.956   5.477 -0.2613 -0.6757 -0.0148
  356MOL0     C47966  -1.560   3.903   5.611 -0.7279 -0.6597 -0.3101
  356MOL0     C47967  -1.487   3.790   5.691 -0.0085  0.4196 -0.1125
  356MOL0     C47968  -1.546   3.778   5.829  0.0872 -0.1190 -0.2072
  356MOL0     C47969  -1.466   3.690   5.927  0.3554 -0.0908  0.6209
  356MOL0    Cl47970  -1.536   3.702   6.085 -0.1384  0.1515 -0.3024
  356MOL0     C47971  -1.160   4.534   5.749  0.3463  0.0462 -0.1818
  356MOL0     C47972  -1.055   4.610   5.796  0.3768  0.4405 -0.6021
  356MOL0     O47973  -0.856   4.807   5.704  0.5695  0.7040 -0.2577
  356MOL0     C47974  -0.593   4.771   5.924 -0.2719  0.8096  0.0609
  356MOL0     C47975  -0.459   4.812   5.948 -0.3452  0.2383  0.1865
  356MOL0     N47976   0.250   5.087   5.872 -0.2921  0.0371 -0.9562
  356MOL0     N47977   0.354   5.069   5.955 -0.2491 -0.1041  0.8283
  356MOL0     C47978   1.417   5.150   6.445  0.0346  0.0197 -0.1905
  356MOL0     C47979   1.550   5.098   6.448  0.8666  1.2167 -0.4956
  356MOL0     C47980   2.007   5.069   6.378  0.2638 -0.1788  0.2257
  356MOL0     C47981   2.028   4.939   6.337  0.5502  0.7350  0.5197
  356MOL0     C47982   2.155   4.874   6.344 -0.3277  0.7842  0.5370
  356MOL0     C47983   2.262   4.945   6.389 -0.5744  0.0944  0.7145
  356MOL0     O47984   2.381   4.867   6.393 -0.1917  0.8748 -0.6313
  356MOL0     C47985   2.506   4.932   6.433  0.4904 -0.2934 -1.1493
  356MOL0     C47986   2.592   4.819   6.464 -0.4926  0.3075  0.0860
  356MOL0     C47987   2.660   4.778   6.337 -1.3337  0.8868 -0.2287
  356MOL0     C47988   2.755   4.657   6.363 -0.1666 -0.2678 -0.3236
  356MOL0     C47989   2.812   4.599   6.240 -0.8765  0.9024 -1.4263
  356MOL0     C47990   2.882   4.541   6.155  0.0417 -0.3022  0.5085
  356MOL0     C47991   2.245   5.075   6.430 -0.4112  0.3835 -0.0927
  356MOL0     C47992   2.123   5.141   6.422 -0.7740 -0.2008 -0.4962
  356MOL0     H47993   1.671   5.266   6.176 -0.7366  1.1864 -0.1757
  356MOL0     H47994   1.451   5.353   6.178  0.9557 -0.5058 -1.1241
  356MOL0     H47995   1.288   5.477   6.353  1.4993  0.4573 -1.2307
  356MOL0     H47996   1.244   5.412   6.194 -2.1900  1.0687 -0.2447
  356MOL0     H47997   1.044   5.505   6.412 -1.8166 -5.3345  1.9999
  356MOL0     H47998   1.088   5.560   6.256 -1.6122  1.7925  2.6401
  356MOL0     H47999   0.999   5.362   6.149  4.6297  3.3609  0.3375
  356MOL0     H48000   0.961   5.289   6.306  1.1793  1.0042  0.2367
  356MOL0     H48001   0.807   5.459   6.365 -2.1978 -0.2002 -0.3582
  356MOL0     H48002   0.817   5.539   6.205  1.8064 -1.5812 -2.4402
  356MOL0     H48003   0.742   5.321   6.090 -0.6892 -2.0238  0.0949
  356MOL0     H48004   0.703   5.264   6.254 -2.6068  1.1745 -0.0544
  356MOL0     H48005   0.547   5.442   6.295  2.5555  2.5804  0.5089
  356MOL0     H48006   0.601   5.529   6.151 -0.2435  0.8133  1.9851
  356MOL0     H48007   0.372   5.424   6.141  0.9541  2.2317 -1.0168
  356MOL0     H48008   0.494   5.386   6.014  4.6237 -0.5649  1.5819
  356MOL0     H48009   0.406   5.202   6.248 -0.8755  2.0119 -0.0435
  356MOL0     H48010   0.521   5.162   6.119 -0.0929 -0.3892  0.5688
  356MOL0     H48011   0.187   5.314   6.095 -2.0350  0.4187 -1.9097
  356MOL0     H48012   0.032   5.334   5.857  1.7908  0.3835  0.1775
  356MOL0     H48013   0.054   5.204   5.748 -1.3771 -5.4634  1.2089
  356MOL0     H48014  -0.165   5.180   5.833  0.7842  2.8041 -1.0637
  356MOL0     H48015  -0.124   5.232   5.998 -0.0532 -1.5289  2.2578
  356MOL0     H48016  -0.037   5.042   6.068 -2.5029  2.5527 -0.2520
  356MOL0     H48017  -0.012   4.966   5.900  1.3688  1.1831  0.2364
  356MOL0     H48018  -0.272   4.996   6.044  0.5381  4.0705 -0.4689
  356MOL0     H48019  -0.180   4.850   6.009 -1.8443 -2.0018 -2.7774
  356MOL0     H48020  -0.378   4.926   5.635  0.5888 -1.6965  0.2277
  356MOL0     H48021  -0.520   4.820   5.479 -0.1369  0.0541 -0.2497
  356MOL0     H48022  -0.690   4.772   5.503  0.1667 -1.1313  0.5638
  356MOL0     H48023  -0.646   4.942   5.510  3.2084  0.7446  0.5931
  356MOL0     H48024  -0.802   4.379   5.764  0.2270 -0.1415  0.6685
  356MOL0     H48025  -0.965   4.247   5.681  0.0752 -1.7760  4.6470
  356MOL0     H48026  -1.169   4.208   5.514 -0.0405  0.0085 -0.1908
  356MOL0     H48027  -1.161   4.130   5.672 -1.8196  0.0053  2.8539
  356MOL0     H48028  -1.404   4.127   5.682  2.4222 -0.3333  0.7284
  356MOL0     H48029  -1.417   4.217   5.531 -1.5320  3.2754  4.3814
  356MOL0     H48030  -1.290   3.943   5.545 -0.1717  1.7120  2.0991
  356MOL0     H48031  -1.309   4.029   5.402 -0.3554 -1.4894 -0.2956
  356MOL0     H48032  -1.563   4.027   5.425  1.5301 -1.3469 -3.4943
  356MOL0     H48033  -1.488   3.869   5.411 -0.7018  0.9435 -2.3243
  356MOL0     H48034  -1.665   3.876   5.598 -1.5417  2.7243 -1.8298
  356MOL0     H48035  -1.577   3.986   5.680  0.9179 -0.4272 -0.1523
  356MOL0     H48036  -1.484   3.692   5.641  2.5142  0.4647 -0.1525
  356MOL0     H48037  -1.383   3.819   5.707  0.8634 -2.7196  0.6179
  356MOL0     H48038  -1.652   3.752   5.830  0.3630 -1.3252 -0.6330
  356MOL0     H48039  -1.532   3.881   5.863 -0.8694  0.3292 -1.1265
  356MOL0     H48040  -1.361   3.718   5.942  0.7376 -1.6450  0.9607
  356MOL0     H48041  -1.465   3.588   5.889 -1.0450  0.2504 -0.4493
  356MOL0     H48042  -1.261   4.574   5.751  1.2236  2.5535 -1.5047
  356MOL0     H48043  -1.056   4.708   5.843  3.2994  0.5892 -0.6650
  356MOL0     H48044  -0.648   4.709   5.993  0.9862  0.6515  0.9539
  356MOL0     H48045  -0.411   4.788   6.042 -1.1640 -4.1615 -0.2885
  356MOL0     H48046   1.350   5.111   6.522  0.2069  1.4303  0.6994
  356MOL0     H48047   1.574   5.022   6.522 -1.4785  1.1043  0.2387
  356MOL0     H48048   1.936   4.893   6.302 -0.7218 -0.4492  4.8371
  356MOL0     H48049   2.166   4.768   6.323 -0.6030  0.8155  0.2150
  356MOL0     H48050   2.549   4.997   6.357 -1.0209  0.6706 -1.2141
  356MOL0     H48051   2.496   4.983   6.529 -2.0613 -2.5659 -0.0799
  356MOL0     H48052   2.542   4.740   6.519 -1.2908 -1.0309 -2.3920
  356MOL0     H48053   2.671   4.867   6.523 -1.6300  1.7588  0.4821
  356MOL0     H48054   2.715   4.866   6.300  2.3058 -0.7235  0.9351
  356MOL0     H48055   2.582   4.758   6.262 -1.1811 -1.9249  0.2638
  356MOL0     H48056   2.693   4.579   6.409  0.8000 -1.0774 -0.3590
  356MOL0     H48057   2.836   4.676   6.433 -1.1072  3.2739 -0.0101
  356MOL0     H48058   2.922   4.485   6.073 -2.0007 -3.7798  1.6785
  356MOL0     H48059   2.331   5.130   6.466  0.1182  0.3898 -1.3236
  356MOL0     H48060   2.116   5.239   6.467 -0.1264 -0.6975  0.7564
  357MOL0     O48061   0.989   3.760   5.070 -0.1272 -0.1863 -0.3701
  357MOL0     C48062   1.097   3.703   5.043  1.1250  0.3938 -0.3214
  357MOL0     O48063   1.129   3.647   4.924 -0.0902 -0.0873 -0.2640
  357MOL0     C48064   1.030   3.671   4.824  0.1481  0.1254  0.2494
  357MOL0     C48065   0.911   3.613   4.837 -0.3274  0.3889 -0.4452
  357MOL0     C48066   0.809   3.632   4.749 -0.1191 -1.5192  0.5148
  357MOL0     C48067   0.833   3.714   4.633  0.3320 -0.1554  0.2559
  357MOL0     O48068   0.724   3.731   4.549  0.1951 -0.5890  0.0891
  357MOL0     C48069   0.728   3.829   4.442  0.7071 -0.1889 -0.5669
  357MOL0     C48070   0.588   3.850   4.376  0.5854 -0.3849  0.2716
  357MOL0     C48071   0.530   3.713   4.318  0.1817 -1.5464 -0.1526
  357MOL0     C48072   0.387   3.729   4.272 -0.8454 -0.8460 -0.4563
  357MOL0     C48073   0.314   3.602   4.215 -0.1714  0.2838  0.0889
  357MOL0     C48074   0.176   3.634   4.150 -0.1311  0.0744  0.0611
  357MOL0     C48075   0.121   3.496   4.110  0.9559 -0.9559 -0.5509
  357MOL0     C48076  -0.032   3.507   4.057 -0.8565  0.6709 -0.6799
  357MOL0     N48077  -0.044   3.387   3.966  0.1727 -0.1501  0.1007
  357MOL0     C48078  -0.049   3.254   4.010  0.8273  0.5697  0.5636
  357MOL0     C48079  -0.040   3.179   3.902 -0.1933 -0.2674 -0.3437
  357MOL0     C48080  -0.050   3.028   3.886  0.4760  0.3289  0.1438
  357MOL0     C48081  -0.176   2.974   3.971 -0.5455  0.1490 -0.0141
  357MOL0     C48082  -0.198   2.820   3.949 -0.7687 -0.0986 -0.1569
  357MOL0     C48083  -0.317   2.768   4.030 -0.3577  0.1038 -0.2056
  357MOL0     O48084  -0.351   2.635   4.002 -0.7773  0.9456 -0.3248
  357MOL0     C48085  -0.422   2.576   4.097  0.0791  0.0862 -1.0696
  357MOL0     C48086  -0.378   2.463   4.171  0.6907  0.2322  0.4376
  357MOL0     C48087  -0.461   2.396   4.267  0.2027 -0.0699 -0.5420
  357MOL0     C48088  -0.395   2.272   4.320 -0.6127  0.2255 -0.2282
  357MOL0     C48089  -0.592   2.452   4.296  0.1439  0.2139  0.5154
  357MOL0     C48090  -0.702   2.383   4.379  0.4557 -0.7253  0.7470
  357MOL0     O48091  -0.811   2.463   4.413  0.3646  0.4769 -0.3509
  357MOL0     C48092  -0.919   2.420   4.492 -0.3676 -0.1597  0.0287
  357MOL0     C48093  -0.980   2.293   4.507 -0.2699  0.3918 -0.7251
  357MOL0     C48094  -1.098   2.277   4.574 -0.8278  0.5456 -0.3621
  357MOL0     C48095  -1.154   2.374   4.654  0.7774 -0.5792  0.3775
  357MOL0     O48096  -1.268   2.373   4.720  0.6181  0.2919  0.4431
  357MOL0     C48097  -1.360   2.254   4.726 -0.7548 -0.5395  0.2828
  357MOL0     C48098  -1.496   2.279   4.799  0.8443 -0.1895  0.6395
  357MOL0     C48099  -1.565   2.401   4.743 -0.4500 -0.1638  0.4095
  357MOL0     C48100  -1.667   2.456   4.844  0.7656 -0.1746 -0.4199
  357MOL0     C48101  -1.716   2.591   4.798 -0.5766  0.2292  0.1436
  357MOL0     C48102  -1.833   2.583   4.702  0.7060 -0.7940 -0.1974
  357MOL0     C48103  -1.891   2.730   4.678 -0.4869 -0.3243 -0.2877
  357MOL0     C48104  -2.020   2.738   4.604 -0.5378  0.1830 -0.5076
  357MOL0    Cl48105  -2.141   2.662   4.707 -0.4463  0.2249  0.1991
  357MOL0     C48106  -1.097   2.506   4.631 -0.5523  1.0001  0.1158
  357MOL0     C48107  -0.975   2.525   4.561  0.7700  0.9440 -0.0601
  357MOL0     O48108  -0.686   2.265   4.410  0.1181  0.2242  0.7777
  357MOL0     C48109  -0.629   2.568   4.221  0.3222  0.1154  0.2244
  357MOL0     C48110  -0.544   2.629   4.131  0.4653 -0.3775 -0.8586
  357MOL0     N48111  -0.060   3.259   3.791  0.4689 -0.8948 -0.2086
  357MOL0     N48112  -0.064   3.384   3.826 -0.7891 -0.0772 -0.7797
  357MOL0     C48113   0.958   3.775   4.618  1.2840  0.2471 -0.3256
  357MOL0     C48114   1.052   3.756   4.719  0.2784 -0.2133 -0.3335
  357MOL0     C48115   1.189   3.697   5.161 -1.3775  0.4028  0.1491
  357MOL0     C48116   1.146   3.707   5.295  0.7823  0.0022  0.1277
  357MOL0     C48117   1.232   3.688   5.406 -0.6943 -0.5191  0.5243
  357MOL0     C48118   1.366   3.664   5.383  0.5501  0.6218  0.8183
  357MOL0     O48119   1.460   3.657   5.484  0.2810  0.2023  0.4368
  357MOL0     C48120   1.426   3.671   5.622  0.7247 -0.4972  0.3906
  357MOL0     C48121   1.564   3.635   5.686  0.1759  0.0280  0.0587
  357MOL0     C48122   1.659   3.748   5.670  0.4161 -0.7229  0.4779
  357MOL0     C48123   1.794   3.707   5.725 -0.9832 -0.5225 -0.5815
  357MOL0     C48124   1.898   3.785   5.647 -0.3597  0.7372 -0.6354
  357MOL0     C48125   1.977   3.853   5.582  0.3182  0.8905 -0.0779
  357MOL0     C48126   1.412   3.660   5.252 -0.1889 -0.6652  0.3358
  357MOL0     C48127   1.329   3.664   5.140  0.6682 -0.0472  0.6293
  357MOL0     H48128   0.895   3.556   4.928  0.5125 -1.4524 -1.3865
  357MOL0     H48129   0.715   3.594   4.789 -0.5389  3.2136  5.2841
  357MOL0     H48130   0.763   3.924   4.483 -0.2296 -0.9137  2.0966
  357MOL0     H48131   0.794   3.798   4.360  0.1281 -0.3038 -0.9889
  357MOL0     H48132   0.516   3.894   4.446 -0.2608 -0.7500 -0.3548
  357MOL0     H48133   0.582   3.913   4.287 -1.5649  0.1346  0.7371
  357MOL0     H48134   0.592   3.691   4.231  0.9385  2.1331 -0.7314
  357MOL0     H48135   0.525   3.631   4.390  1.3841 -1.2481  0.2850
  357MOL0     H48136   0.329   3.776   4.352 -0.1340  1.1066 -1.0115
  357MOL0     H48137   0.387   3.797   4.186  2.8541 -1.0810 -0.7957
  357MOL0     H48138   0.377   3.563   4.135 -3.2191 -1.2582 -1.7293
  357MOL0     H48139   0.303   3.532   4.299  2.5092 -1.8346 -1.1801
  357MOL0     H48140   0.111   3.684   4.222 -0.5583 -1.6791  0.9580
  357MOL0     H48141   0.190   3.704   4.067  1.7553  0.1709  0.4154
  357MOL0     H48142   0.181   3.451   4.031  0.9390 -1.6858 -0.1499
  357MOL0     H48143   0.120   3.436   4.201  4.1054 -0.3792 -0.0382
  357MOL0     H48144  -0.061   3.602   4.012  0.2012  1.6357  0.6064
  357MOL0     H48145  -0.096   3.498   4.145 -0.4732  1.1278 -0.3482
  357MOL0     H48146  -0.053   3.215   4.111 -1.7889  3.2338  1.6626
  357MOL0     H48147  -0.065   2.991   3.784  0.1474  2.7828 -0.7618
  357MOL0     H48148   0.048   2.992   3.918  1.5238  1.8511 -1.2103
  357MOL0     H48149  -0.267   3.019   3.932 -0.8473  1.0289  1.6322
  357MOL0     H48150  -0.161   3.007   4.074 -0.1265 -0.0434 -0.0089
  357MOL0     H48151  -0.112   2.762   3.987 -1.7838 -2.3219 -1.0376
  357MOL0     H48152  -0.214   2.797   3.843 -3.3971  1.6977 -0.2206
  357MOL0     H48153  -0.403   2.830   4.006 -1.3776 -1.6531 -1.3104
  357MOL0     H48154  -0.310   2.785   4.138  1.4612  0.8063 -0.3981
  357MOL0     H48155  -0.276   2.439   4.145  1.1817  2.8904 -0.4422
  357MOL0     H48156  -0.290   2.257   4.294 -0.8490 -0.1875 -0.9784
  357MOL0     H48157  -0.398   2.270   4.429  3.7717 -0.4086  0.0701
  357MOL0     H48158  -0.457   2.185   4.297  2.2180 -1.9860 -0.0880
  357MOL0     H48159  -0.947   2.200   4.461 -0.3239  0.0042 -0.0029
  357MOL0     H48160  -1.154   2.185   4.566 -0.9214  0.7110 -1.9975
  357MOL0     H48161  -1.372   2.227   4.621 -2.0462  1.1531 -0.0597
  357MOL0     H48162  -1.324   2.160   4.769 -0.4768 -0.2020  0.8007
  357MOL0     H48163  -1.573   2.202   4.787 -2.6408  3.2583 -1.4579
  357MOL0     H48164  -1.485   2.296   4.906  0.3011 -0.0462  0.6736
  357MOL0     H48165  -1.606   2.386   4.643 -1.4674 -1.5212  0.9918
  357MOL0     H48166  -1.494   2.484   4.736 -0.8061  0.0630 -0.6232
  357MOL0     H48167  -1.748   2.386   4.869  0.6644  0.6606  1.7740
  357MOL0     H48168  -1.630   2.480   4.944 -0.7627 -0.0063  0.1342
  357MOL0     H48169  -1.637   2.660   4.768 -1.9499  1.5094 -0.6570
  357MOL0     H48170  -1.754   2.630   4.892  2.2207 -1.5353  2.1540
  357MOL0     H48171  -1.799   2.526   4.615 -2.4224 -2.6405 -0.3787
  357MOL0     H48172  -1.912   2.518   4.740 -0.8308 -0.8951 -3.2425
  357MOL0     H48173  -1.807   2.775   4.624  2.7984 -2.6539  2.4440
  357MOL0     H48174  -1.899   2.775   4.777  1.3966  1.1316 -0.7259
  357MOL0     H48175  -2.012   2.691   4.505  1.4972  2.3618 -1.4911
  357MOL0     H48176  -2.047   2.841   4.578  3.0942  0.9481 -1.9410
  357MOL0     H48177  -1.157   2.592   4.657 -2.0851 -0.6426  2.5235
  357MOL0     H48178  -0.929   2.624   4.558  2.6720  0.1769  1.7057
  357MOL0     H48179  -0.732   2.595   4.244 -0.4576 -1.9994 -0.5482
  357MOL0     H48180  -0.570   2.715   4.071  2.8170  1.9088  1.1329
  357MOL0     H48181   0.970   3.839   4.531 -1.6639 -0.2524 -1.2221
  357MOL0     H48182   1.149   3.806   4.716  0.3826 -0.2695  1.3592
  357MOL0     H48183   1.042   3.728   5.315  1.1533  0.7534  1.4234
  357MOL0     H48184   1.204   3.697   5.510 -1.1575 -0.8898  0.4357
  357MOL0     H48185   1.401   3.775   5.647 -0.3580 -0.0590 -2.1195
  357MOL0     H48186   1.341   3.610   5.653  0.0636 -0.0263 -0.4300
  357MOL0     H48187   1.591   3.534   5.654 -0.5531 -1.0422  2.5702
  357MOL0     H48188   1.542   3.624   5.792 -0.5639  0.6182 -0.0252
  357MOL0     H48189   1.638   3.839   5.728 -2.2883 -2.1878  2.0143
  357MOL0     H48190   1.669   3.777   5.565 -1.3202  0.4968  0.5978
  357MOL0     H48191   1.809   3.599   5.716 -2.2148 -0.7047 -0.6126
  357MOL0     H48192   1.800   3.726   5.833 -1.5196  0.4308 -0.7046
  357MOL0     H48193   2.051   3.908   5.527 -1.2189  1.6632 -1.4342
  357MOL0     H48194   1.519   3.647   5.245 -0.1158  0.2988 -0.5897
  357MOL0     H48195   1.371   3.638   5.043  0.6196 -1.3844  0.9481
  358MOL0     O48196   6.739  10.835   7.785  0.2696  0.4260  0.5309
  358MOL0     C48197   6.709  10.910   7.689 -0.1254 -0.2945  0.5131
  358MOL0     O48198   6.588  10.958   7.659  0.1818 -0.1161  0.3320
  358MOL0     C48199   6.484  10.938   7.740 -0.4272  0.6807  0.0775
  358MOL0     C48200   6.492  10.963   7.872  0.0033  0.3482 -0.9730
  358MOL0     C48201   6.376  10.953   7.949 -0.8048 -0.5405 -1.1388
  358MOL0     C48202   6.267  10.887   7.897  0.9279 -0.1468  0.4042
  358MOL0     O48203   6.162  10.861   7.980 -0.4326 -0.6186 -0.0877
  358MOL0     C48204   6.040  10.809   7.933  0.3038  0.1888 -0.5971
  358MOL0     C48205   5.948  10.772   8.048 -0.5600  0.3310  0.0941
  358MOL0     C48206   5.814  10.735   8.000  0.2257 -0.3248  0.4340
  358MOL0     C48207   5.816  10.610   7.913  0.3228  0.4312  0.7343
  358MOL0     C48208   5.679  10.546   7.882 -0.0055  0.2366 -0.7511
  358MOL0     C48209   5.567  10.641   7.840 -0.4112  0.1814  0.9192
  358MOL0     C48210   5.454  10.553   7.783  0.2034  0.3095 -0.0382
  358MOL0     C48211   5.332  10.643   7.767 -0.2951  0.6389 -0.6687
  358MOL0     N48212   5.213  10.567   7.751  0.5413  0.6902  0.4095
  358MOL0     C48213   5.129  10.550   7.645  0.2589  0.7783 -0.5582
  358MOL0     C48214   5.025  10.483   7.702 -0.1896 -0.1348  0.0639
  358MOL0     C48215   4.909  10.423   7.628 -0.3918 -0.5356 -1.5012
  358MOL0     C48216   4.944  10.281   7.600 -0.4401  0.8195  0.2885
  358MOL0     C48217   4.884  10.185   7.706  0.1771 -0.3588  0.1354
  358MOL0     C48218   4.901  10.035   7.656 -0.4552 -0.8149 -0.4545
  358MOL0     O48219   4.825  10.015   7.532 -0.1385 -0.2723 -0.5808
  358MOL0     C48220   4.693   9.992   7.543  0.3069  1.3708  0.3537
  358MOL0     C48221   4.636   9.947   7.426 -0.5019 -0.4070  0.1577
  358MOL0     C48222   4.514   9.884   7.414 -0.6254  0.8184 -1.1364
  358MOL0     C48223   4.478   9.810   7.285 -0.4042  0.7053 -0.0514
  358MOL0     C48224   4.436   9.889   7.532  0.3357  0.3498 -0.1914
  358MOL0     C48225   4.297   9.831   7.544  0.1675 -0.4936 -0.4282
  358MOL0     O48226   4.257   9.778   7.665  0.0730 -0.3973  0.9240
  358MOL0     C48227   4.119   9.757   7.682  0.7534  0.1061  0.3012
  358MOL0     C48228   4.039   9.847   7.746  0.4193 -0.9009  0.4723
  358MOL0     C48229   3.899   9.818   7.757 -0.4396  0.0278  1.2171
  358MOL0     C48230   3.850   9.696   7.710  0.7166 -0.4828  0.2558
  358MOL0     O48231   3.715   9.660   7.708  0.1669 -0.7430 -0.4190
  358MOL0     C48232   3.663   9.626   7.830 -0.0751 -0.5418 -0.3684
  358MOL0     C48233   3.515   9.665   7.847 -1.2186  0.6967  0.0673
  358MOL0     C48234   3.505   9.818   7.846 -0.1965  0.1383  0.0130
  358MOL0     C48235   3.358   9.859   7.880 -0.3830 -0.5499 -0.0271
  358MOL0     C48236   3.320  10.003   7.850  0.6739 -0.6917  0.4751
  358MOL0     C48237   3.174  10.042   7.899 -0.2353 -0.2451  0.4148
  358MOL0     C48238   3.158  10.198   7.899 -0.2662 -0.6493  0.3112
  358MOL0     C48239   3.185  10.267   7.765 -0.1771 -0.3055  0.0752
  358MOL0    Cl48240   3.118  10.178   7.624 -0.0546 -0.4989 -0.1680
  358MOL0     C48241   3.936   9.605   7.662  0.5779  0.0896  1.0455
  358MOL0     C48242   4.071   9.633   7.641 -0.3544 -0.0811 -0.4183
  358MOL0     O48243   4.219   9.864   7.455 -0.1944  0.4623 -0.4697
  358MOL0     C48244   4.487   9.952   7.653 -0.3632 -0.2066  0.5011
  358MOL0     C48245   4.616   9.992   7.659 -0.0680 -0.2653  0.0458
  358MOL0     N48246   5.047  10.462   7.834  0.0691 -0.0317  0.7998
  358MOL0     N48247   5.151  10.524   7.870 -0.1883  0.2488  0.6309
  358MOL0     C48248   6.258  10.861   7.757  0.0463 -0.2172  0.1322
  358MOL0     C48249   6.369  10.892   7.679 -0.3506  0.9745  1.4773
  358MOL0     C48250   6.818  10.943   7.596 -0.6200  0.6772 -0.7014
  358MOL0     C48251   6.949  10.871   7.590  1.0461 -0.5532  0.6089
  358MOL0     C48252   7.041  10.909   7.487  0.7625  0.6152 -0.2008
  358MOL0     C48253   7.012  11.013   7.404 -0.1318 -0.3905  0.4813
  358MOL0     O48254   7.106  11.033   7.303  0.0403  0.2151  0.9530
  358MOL0     C48255   7.088  11.141   7.212 -0.1738 -0.2725  0.1636
  358MOL0     C48256   7.191  11.129   7.094  0.2193 -0.2767  0.0648
  358MOL0     C48257   7.324  11.184   7.129  1.3620  0.8086 -0.0470
  358MOL0     C48258   7.377  11.124   7.256  1.1345 -0.3253 -0.7483
  358MOL0     C48259   7.520  11.162   7.281  0.5701 -0.1772 -0.8883
  358MOL0     C48260   7.632  11.203   7.304 -0.2319  0.4385 -0.2270
  358MOL0     C48261   6.892  11.078   7.411 -0.2161  0.4221  0.6224
  358MOL0     C48262   6.799  11.041   7.501 -0.3585  0.5431 -0.2736
  358MOL0     H48263   6.581  11.001   7.922  0.1858  0.7592 -1.5959
  358MOL0     H48264   6.385  10.975   8.055  0.0363  0.1227 -1.3352
  358MOL0     H48265   5.987  10.881   7.870  0.3874 -0.0086 -0.8990
  358MOL0     H48266   6.069  10.719   7.877 -0.0296  0.0184 -0.4937
  358MOL0     H48267   5.991  10.690   8.107  1.9084  0.9192 -0.7446
  358MOL0     H48268   5.949  10.856   8.118  1.0906  0.2174  0.2543
  358MOL0     H48269   5.747  10.699   8.079 -1.6720 -1.5221 -1.6073
  358MOL0     H48270   5.769  10.824   7.957  2.2700  1.1419  1.1593
  358MOL0     H48271   5.874  10.626   7.822  1.6105 -3.0065  0.7980
  358MOL0     H48272   5.876  10.537   7.968 -0.1172 -2.1750 -1.9429
  358MOL0     H48273   5.707  10.472   7.807 -1.0593 -1.2029  0.2228
  358MOL0     H48274   5.645  10.503   7.977  1.8695 -2.5844 -1.2144
  358MOL0     H48275   5.532  10.700   7.925 -0.3290  1.3894  0.1316
  358MOL0     H48276   5.612  10.706   7.764 -0.0211 -0.2193  0.7987
  358MOL0     H48277   5.473  10.494   7.693  0.6566 -4.5455  2.9020
  358MOL0     H48278   5.435  10.477   7.860  1.9425 -1.6587 -1.4456
  358MOL0     H48279   5.358  10.715   7.688  0.3045  1.6701  0.4334
  358MOL0     H48280   5.313  10.702   7.857 -0.6307  2.0431 -1.6236
  358MOL0     H48281   5.149  10.575   7.541  1.0829 -1.0344 -0.8707
  358MOL0     H48282   4.818  10.432   7.688 -0.8109  1.6771 -2.3790
  358MOL0     H48283   4.890  10.484   7.539  0.3137 -2.7060 -3.2331
  358MOL0     H48284   5.052  10.266   7.607 -0.5678  0.0344  0.6719
  358MOL0     H48285   4.906  10.259   7.500  4.1680  0.0514 -1.5349
  358MOL0     H48286   4.776  10.204   7.703  0.0810 -0.9460 -2.9536
  358MOL0     H48287   4.930  10.194   7.805  4.2866 -4.1981 -1.0795
  358MOL0     H48288   4.875   9.970   7.739 -1.2422  3.3793  2.9106
  358MOL0     H48289   5.007  10.016   7.636  0.5613  1.8824  1.7144
  358MOL0     H48290   4.696   9.951   7.336 -2.3049 -3.2364 -1.3067
  358MOL0     H48291   4.440   9.712   7.316  1.2339 -0.1219 -0.4880
  358MOL0     H48292   4.403   9.867   7.230 -1.6553 -1.0233 -0.2076
  358MOL0     H48293   4.563   9.793   7.218 -1.5496 -0.0980 -1.3534
  358MOL0     H48294   4.078   9.942   7.780  0.7942 -1.7428  2.4969
  358MOL0     H48295   3.824   9.890   7.787 -1.9576 -0.9627 -0.0431
  358MOL0     H48296   3.676   9.518   7.841 -0.8924 -1.0025 -3.2335
  358MOL0     H48297   3.723   9.664   7.913 -0.4589  0.8842 -0.7127
  358MOL0     H48298   3.455   9.626   7.763 -2.1080 -1.0481  1.4293
  358MOL0     H48299   3.468   9.623   7.937  1.0268  0.2836  1.1286
  358MOL0     H48300   3.532   9.856   7.747 -0.4581  2.2794  0.6967
  358MOL0     H48301   3.575   9.862   7.918 -1.3442  0.1674  1.1443
  358MOL0     H48302   3.289   9.794   7.826  0.9507  0.4273 -3.1312
  358MOL0     H48303   3.340   9.841   7.987  0.3702  1.3044  0.4491
  358MOL0     H48304   3.323  10.015   7.741 -0.0562  1.9680  0.6835
  358MOL0     H48305   3.392  10.070   7.899 -0.1161 -0.0345  0.7618
  358MOL0     H48306   3.090   9.998   7.844  0.2515 -0.1132 -0.4598
  358MOL0     H48307   3.163  10.006   8.001  1.6911 -1.0866  0.3660
  358MOL0     H48308   3.218  10.251   7.973 -3.1295 -0.8756  3.0199
  358MOL0     H48309   3.055  10.221   7.927 -0.9875 -0.9109 -1.8714
  358MOL0     H48310   3.288  10.265   7.726 -0.1226 -0.9336  0.2390
  358MOL0     H48311   3.152  10.371   7.767 -0.3007 -0.3242 -0.7169
  358MOL0     H48312   3.886   9.511   7.642 -1.0166  1.5764 -2.9559
  358MOL0     H48313   4.134   9.555   7.599 -1.8934 -2.7242  1.8732
  358MOL0     H48314   4.427   9.977   7.740  2.8229 -2.1808  3.5291
  358MOL0     H48315   4.668  10.023   7.749 -1.7076  0.9131  0.6422
  358MOL0     H48316   6.172  10.808   7.716  1.3802 -1.4347 -1.2195
  358MOL0     H48317   6.366  10.890   7.570  3.3978 -1.1550  1.2224
  358MOL0     H48318   6.977  10.791   7.658  1.8733 -0.7867  0.0235
  358MOL0     H48319   7.136  10.860   7.468  0.8510  1.5513 -2.3286
  358MOL0     H48320   6.994  11.146   7.157  0.2942  0.3967 -0.6088
  358MOL0     H48321   7.114  11.232   7.268  1.4732  0.0877 -1.1211
  358MOL0     H48322   7.154  11.183   7.006  0.1483 -1.7260 -0.8236
  358MOL0     H48323   7.193  11.026   7.057 -3.1858 -0.5850  0.4721
  358MOL0     H48324   7.329  11.292   7.147 -0.6904  0.9739 -0.2108
  358MOL0     H48325   7.384  11.166   7.039  1.6338 -1.4224  0.5402
  358MOL0     H48326   7.367  11.018   7.231  5.2903 -0.7112 -1.4295
  358MOL0     H48327   7.323  11.155   7.346 -2.9913 -2.3557 -2.2631
  358MOL0     H48328   7.729  11.244   7.325 -0.9103  0.5617  3.3525
  358MOL0     H48329   6.869  11.163   7.348  0.5349  0.6879  0.6933
  358MOL0     H48330   6.714  11.108   7.504 -0.1618  0.7545  1.1041
  359MOL0     O48331   5.702   6.511  10.454  0.3887 -0.8766 -0.2775
  359MOL0     C48332   5.682   6.393  10.427 -0.6195 -0.1006  0.8704
  359MOL0     O48333   5.557   6.334  10.412  0.0024 -0.6260  0.2857
  359MOL0     C48334   5.428   6.380  10.425  0.9674  0.4779 -0.1607
  359MOL0     C48335   5.392   6.520  10.435  0.0598 -0.2427  0.2608
  359MOL0     C48336   5.255   6.564  10.441 -0.5493 -0.5460 -0.6504
  359MOL0     C48337   5.153   6.469  10.441  0.5271 -0.3930 -0.0360
  359MOL0     O48338   5.019   6.504  10.439 -0.2935  0.5797  0.2529
  359MOL0     C48339   4.982   6.647  10.422  0.0857  0.1884  0.7118
  359MOL0     C48340   4.831   6.654  10.422 -0.4231 -0.3180 -1.0708
  359MOL0     C48341   4.794   6.795  10.436  0.7314 -1.1028  0.0514
  359MOL0     C48342   4.647   6.813  10.471  0.9281  0.7307  0.8934
  359MOL0     C48343   4.609   6.957  10.474 -0.0466  0.4105 -0.1399
  359MOL0     C48344   4.671   7.036  10.586 -0.5898  0.7100  0.5751
  359MOL0     C48345   4.583   7.161  10.600  0.5935 -0.3745  0.0571
  359MOL0     C48346   4.640   7.267  10.703  0.3890  0.1394  0.2028
  359MOL0     N48347   4.529   7.361  10.746  0.1346  0.1670 -0.4583
  359MOL0     C48348   4.427   7.327  10.832 -0.5227  0.1209 -0.9923
  359MOL0     C48349   4.376   7.443  10.865  0.0427 -0.2848  0.1562
  359MOL0     C48350   4.277   7.463  10.976 -0.1854 -0.1946  0.3363
  359MOL0     C48351   4.135   7.478  10.915  0.6004  0.6007  0.1066
  359MOL0     C48352   4.032   7.471  11.022 -0.2156 -0.7192 -0.5931
  359MOL0     C48353   3.897   7.483  10.966 -0.5551 -0.5758  0.3986
  359MOL0     O48354   3.851   7.357  10.914  0.3170  0.5354  0.1782
  359MOL0     C48355   3.721   7.316  10.927  0.8548  0.8784 -0.1876
  359MOL0     C48356   3.682   7.200  10.857  0.6181  0.3247 -0.5271
  359MOL0     C48357   3.551   7.149  10.863  0.5443 -0.0748 -0.7885
  359MOL0     C48358   3.520   7.018  10.803 -0.3912  0.1288  0.4889
  359MOL0     C48359   3.456   7.217  10.943  0.2374 -0.2287 -0.6761
  359MOL0     C48360   3.307   7.182  10.935 -0.9677  0.6819 -0.0459
  359MOL0     O48361   3.253   7.171  10.807 -0.5360 -0.2810  0.7200
  359MOL0     C48362   3.117   7.172  10.770 -0.0124 -0.4348 -0.2327
  359MOL0     C48363   3.082   7.136  10.638  0.7963 -0.4496  0.6950
  359MOL0     C48364   2.947   7.115  10.595  0.2063  0.3072 -0.5560
  359MOL0     C48365   2.842   7.130  10.679  0.0350  0.2759 -0.7760
  359MOL0     O48366   2.713   7.091  10.641  0.1126 -0.9209 -0.5226
  359MOL0     C48367   2.633   7.048  10.744 -1.1414  0.1098 -0.0470
  359MOL0     C48368   2.525   6.949  10.686  0.5606  0.0146 -0.3138
  359MOL0     C48369   2.418   7.000  10.598 -0.2037  0.2646  0.6494
  359MOL0     C48370   2.334   7.119  10.645  0.4471  0.2647 -0.4152
  359MOL0     C48371   2.238   7.183  10.551  0.6979  0.0743 -0.4911
  359MOL0     C48372   2.098   7.109  10.558 -0.2618 -0.1780  0.4824
  359MOL0     C48373   2.009   7.141  10.440 -0.2424  0.0664  0.1894
  359MOL0     C48374   1.888   7.051  10.439 -0.0354 -0.6940 -0.7766
  359MOL0    Cl48375   1.771   7.105  10.569  0.1289 -0.1640 -0.1126
  359MOL0     C48376   2.876   7.165  10.812 -0.5562 -0.1192  0.6952
  359MOL0     C48377   3.009   7.190  10.855  0.9042 -1.1650 -0.0838
  359MOL0     O48378   3.243   7.156  11.035 -0.1595 -0.2063  0.3136
  359MOL0     C48379   3.493   7.334  11.011 -0.2356 -0.3392  0.3342
  359MOL0     C48380   3.621   7.388  10.987  1.2531 -0.2179  0.5999
  359MOL0     N48381   4.427   7.546  10.789 -0.1797  0.1725 -1.0886
  359MOL0     N48382   4.519   7.496  10.726 -0.8439 -0.0402  0.6806
  359MOL0     C48383   5.198   6.335  10.433  0.3785 -0.6065 -0.6008
  359MOL0     C48384   5.323   6.284  10.419 -0.0225 -0.2031 -0.4451
  359MOL0     C48385   5.804   6.308  10.414  0.4640  0.1029 -0.6132
  359MOL0     C48386   5.795   6.167  10.410  0.4948 -0.0093  0.1455
  359MOL0     C48387   5.904   6.087  10.382  0.1705 -0.8124 -0.1704
  359MOL0     C48388   6.033   6.141  10.366  0.1315  0.7079  0.5333
  359MOL0     O48389   6.154   6.083  10.345  0.3657  0.0949  0.4458
  359MOL0     C48390   6.166   5.946  10.309 -0.4282 -0.2580  0.4785
  359MOL0     C48391   6.316   5.934  10.264  0.0993 -0.7537 -0.6528
  359MOL0     C48392   6.349   5.792  10.221  0.5988 -0.0490  0.8648
  359MOL0     C48393   6.468   5.729  10.302  0.7684 -0.3501 -0.3347
  359MOL0     C48394   6.480   5.590  10.264 -0.2341  0.2788 -0.3992
  359MOL0     C48395   6.476   5.472  10.220 -0.6260  0.4926 -0.1016
  359MOL0     C48396   6.034   6.281  10.388 -0.1346  0.5157 -0.3829
  359MOL0     C48397   5.929   6.363  10.397  0.0647 -0.1600 -0.3890
  359MOL0     H48398   5.478   6.587  10.434  1.6511 -2.2066 -0.0357
  359MOL0     H48399   5.239   6.671  10.442  0.0660 -0.3839  2.8206
  359MOL0     H48400   5.014   6.709  10.506 -2.2349 -0.2489  2.0132
  359MOL0     H48401   5.014   6.686  10.325 -2.6295  0.9772  0.0646
  359MOL0     H48402   4.787   6.609  10.333 -0.8573 -0.6275 -0.7057
  359MOL0     H48403   4.797   6.607  10.515  0.8007 -0.5155 -0.6960
  359MOL0     H48404   4.841   6.825  10.531 -2.4880 -1.8549  2.0321
  359MOL0     H48405   4.821   6.858  10.351  0.1695  2.1000  2.0545
  359MOL0     H48406   4.589   6.759  10.395  2.9809 -0.3387 -0.0165
  359MOL0     H48407   4.622   6.776  10.571  3.0177 -0.2229  1.1314
  359MOL0     H48408   4.630   7.004  10.377 -1.1617  0.1846 -0.4962
  359MOL0     H48409   4.501   6.959  10.491  0.4222  1.1157  3.3836
  359MOL0     H48410   4.658   6.977  10.677  1.3223 -0.8381 -0.0796
  359MOL0     H48411   4.779   7.055  10.579 -0.9026  3.1634  1.3053
  359MOL0     H48412   4.576   7.224  10.511 -1.9179 -0.6111  0.0182
  359MOL0     H48413   4.481   7.137  10.630  0.4951  0.7008  0.6407
  359MOL0     H48414   4.723   7.322  10.657 -2.6425  4.4099 -0.8590
  359MOL0     H48415   4.675   7.208  10.788  0.6169 -0.6531 -0.4359
  359MOL0     H48416   4.407   7.229  10.873 -0.4008  0.1147 -0.9462
  359MOL0     H48417   4.275   7.368  11.029 -1.0706 -1.5961 -2.0709
  359MOL0     H48418   4.307   7.547  11.040  1.2715 -1.7345  1.7752
  359MOL0     H48419   4.116   7.412  10.829  4.9461  1.4497 -1.7562
  359MOL0     H48420   4.134   7.576  10.866 -1.6335  0.9950  0.8059
  359MOL0     H48421   4.051   7.548  11.097 -1.2687 -1.8296  0.8738
  359MOL0     H48422   4.036   7.380  11.083 -1.6272  0.3155  1.1493
  359MOL0     H48423   3.887   7.562  10.891 -1.6452  0.5330  1.6751
  359MOL0     H48424   3.844   7.515  11.056  1.8515 -0.0302  1.7200
  359MOL0     H48425   3.753   7.153  10.790 -0.7086  1.4965 -2.9070
  359MOL0     H48426   3.506   6.946  10.883 -0.4255 -0.0100  0.3592
  359MOL0     H48427   3.425   7.026  10.749  0.7041 -1.5185 -1.8654
  359MOL0     H48428   3.588   6.988  10.722 -0.6673 -0.5936  0.5186
  359MOL0     H48429   3.148   7.113  10.556  1.0215 -2.9881  1.5279
  359MOL0     H48430   2.922   7.089  10.492  1.4579  1.2832 -1.1288
  359MOL0     H48431   2.691   6.994  10.819 -2.1683 -0.4480  0.3567
  359MOL0     H48432   2.581   7.133  10.789  0.1420  0.6636  0.4570
  359MOL0     H48433   2.575   6.865  10.636 -2.5966 -0.5911 -2.7424
  359MOL0     H48434   2.469   6.914  10.773 -3.0386  3.6463 -0.8713
  359MOL0     H48435   2.350   6.917  10.577  0.9658 -1.0252  1.7413
  359MOL0     H48436   2.471   7.026  10.506  0.2667  2.3744  1.4452
  359MOL0     H48437   2.280   7.095  10.737  0.4269  2.4333  0.1860
  359MOL0     H48438   2.405   7.197  10.672 -0.0629 -0.2159  2.7411
  359MOL0     H48439   2.271   7.173  10.447  2.7765 -0.7786  0.2021
  359MOL0     H48440   2.221   7.289  10.573  1.0171  0.3606 -1.5674
  359MOL0     H48441   2.112   7.001  10.564  0.5178 -0.3888 -3.0189
  359MOL0     H48442   2.047   7.147  10.647 -0.0393 -2.3153  1.5952
  359MOL0     H48443   2.067   7.115  10.351  0.8911 -0.5535  1.0863
  359MOL0     H48444   1.983   7.247  10.433  2.1392  0.5944 -2.0606
  359MOL0     H48445   1.929   6.955  10.471  1.9149  0.7735  1.3807
  359MOL0     H48446   1.837   7.044  10.342  1.6751 -1.6371 -1.6617
  359MOL0     H48447   2.796   7.184  10.883  1.1754  1.4517  2.3426
  359MOL0     H48448   3.016   7.213  10.960 -1.4909  0.1749 -0.1235
  359MOL0     H48449   3.419   7.391  11.067 -0.7597 -2.2607  1.7179
  359MOL0     H48450   3.643   7.489  11.021  0.1796 -0.1044  0.9968
  359MOL0     H48451   5.108   6.275  10.419 -0.8422  1.3327 -1.3723
  359MOL0     H48452   5.346   6.178  10.414 -2.4239 -0.9441  1.7578
  359MOL0     H48453   5.702   6.113  10.427  0.9533 -0.9536 -0.2815
  359MOL0     H48454   5.879   5.983  10.360 -1.4743 -0.7363  1.1561
  359MOL0     H48455   6.144   5.898  10.405  0.7414 -1.2521  0.2799
  359MOL0     H48456   6.092   5.915  10.235 -0.5899  0.9789  0.0906
  359MOL0     H48457   6.383   5.964  10.345  0.5323 -1.5495 -0.7133
  359MOL0     H48458   6.325   5.998  10.175  0.1150  1.0363  0.5825
  359MOL0     H48459   6.369   5.787  10.113 -1.2728 -3.5817  0.5141
  359MOL0     H48460   6.265   5.722  10.232 -2.8568  3.6790  0.6073
  359MOL0     H48461   6.448   5.725  10.410  2.3885 -0.1601  0.0065
  359MOL0     H48462   6.567   5.776  10.292  2.1000 -1.6986  3.9582
  359MOL0     H48463   6.469   5.368  10.194 -0.6584  0.8488 -1.5957
  359MOL0     H48464   6.131   6.328  10.372  0.0347  0.0708 -0.6731
  359MOL0     H48465   5.943   6.470  10.385  1.9822  0.1635  3.1272
  360MOL0     O48466   8.802   8.084  10.608  0.2794 -0.0819 -0.2743
  360MOL0     C48467   8.847   8.009  10.687 -0.5605  0.0101 -0.3022
  360MOL0     O48468   8.781   7.928  10.761 -0.3658 -0.5177 -0.8207
  360MOL0     C48469   8.657   7.904  10.717  0.5107 -0.1827  0.1521
  360MOL0     C48470   8.552   7.985  10.768  0.4450 -0.5588 -0.4778
  360MOL0     C48471   8.415   7.961  10.740  0.1040 -0.3898  0.3181
  360MOL0     C48472   8.384   7.850  10.662 -0.2958  0.4622 -0.1477
  360MOL0     O48473   8.256   7.862  10.626  0.0209 -0.4131  0.1986
  360MOL0     C48474   8.197   7.775  10.533 -1.3778  0.0983 -0.6092
  360MOL0     C48475   8.061   7.840  10.510 -0.4838 -1.4526  0.4913
  360MOL0     C48476   7.961   7.818  10.626  0.0223 -0.2826 -0.7726
  360MOL0     C48477   7.826   7.877  10.582 -0.5293  0.6250  0.1558
  360MOL0     C48478   7.704   7.837  10.666  0.7084  0.1502  0.2261
  360MOL0     C48479   7.690   7.891  10.809  0.0435  0.6755  0.2542
  360MOL0     C48480   7.552   7.868  10.871  0.0414  0.6115 -0.1313
  360MOL0     C48481   7.510   7.939  11.000 -0.0955 -0.5040  0.3906
  360MOL0     N48482   7.367   7.938  11.017 -0.1535  0.5258 -0.0927
  360MOL0     C48483   7.298   7.824  11.033 -0.0538 -0.4141 -0.4015
  360MOL0     C48484   7.176   7.861  10.998  0.6166 -0.0446  0.0051
  360MOL0     C48485   7.063   7.764  10.984 -0.4213 -1.0763  0.3129
  360MOL0     C48486   7.051   7.710  10.840 -0.4412  0.6690 -0.3463
  360MOL0     C48487   6.956   7.588  10.827 -0.0271 -0.2384  0.6295
  360MOL0     C48488   6.951   7.557  10.675  0.1412  0.4782  0.3904
  360MOL0     O48489   6.874   7.434  10.660  0.3122  0.3331  0.0006
  360MOL0     C48490   6.746   7.433  10.699  0.2564  0.7914  0.2442
  360MOL0     C48491   6.691   7.306  10.733 -0.4692 -0.0771 -0.0142
  360MOL0     C48492   6.568   7.294  10.798  0.4039  0.0775  0.5623
  360MOL0     C48493   6.534   7.156  10.862 -0.4726 -0.5193  0.4044
  360MOL0     C48494   6.496   7.408  10.836  0.4476  0.2728  0.2197
  360MOL0     C48495   6.369   7.410  10.920 -0.0420 -0.6687  0.4912
  360MOL0     O48496   6.339   7.533  10.988 -0.2037 -0.1014  0.1135
  360MOL0     C48497   6.213   7.561  11.045 -1.0118 -0.0709  0.8310
  360MOL0     C48498   6.161   7.692  11.076  0.1353  0.4104 -0.1156
  360MOL0     C48499   6.036   7.697  11.133 -0.3526  0.2872 -0.4716
  360MOL0     C48500   5.967   7.594  11.191  0.1182  0.3617 -0.9732
  360MOL0     O48501   5.849   7.612  11.252 -0.3332 -0.6619  0.1836
  360MOL0     C48502   5.764   7.513  11.314  0.1939 -0.5022 -0.2892
  360MOL0     C48503   5.676   7.591  11.409 -0.3461  0.1195  1.3978
  360MOL0     C48504   5.768   7.641  11.522  0.0881  0.4380  0.3618
  360MOL0     C48505   5.699   7.749  11.609  0.3892 -0.1733 -0.1646
  360MOL0     C48506   5.783   7.784  11.732 -0.5254  0.3057  0.8931
  360MOL0     C48507   5.792   7.678  11.853 -0.2902  0.1070 -0.3110
  360MOL0     C48508   5.661   7.675  11.927  0.6945 -0.2193 -0.3102
  360MOL0     C48509   5.660   7.580  12.040 -0.1384 -0.3914  0.0449
  360MOL0    Cl48510   5.642   7.425  11.974 -0.2497  0.1536  0.3302
  360MOL0     C48511   6.022   7.467  11.178  0.1619  0.2148  0.8195
  360MOL0     C48512   6.141   7.452  11.108  0.6218  0.8759  0.0582
  360MOL0     O48513   6.285   7.322  10.891  0.2728 -0.8202 -0.1813
  360MOL0     C48514   6.544   7.536  10.790  0.2615 -0.3411  0.1081
  360MOL0     C48515   6.661   7.551  10.714 -0.3926  0.1524  0.0893
  360MOL0     N48516   7.162   7.986  10.960  0.2084 -0.1148 -0.1577
  360MOL0     N48517   7.276   8.036  10.977 -0.6752  0.7204  0.1652
  360MOL0     C48518   8.491   7.770  10.611  0.4352  0.5218 -0.4260
  360MOL0     C48519   8.628   7.790  10.638  0.1688 -0.3738  0.6834
  360MOL0     C48520   8.988   8.012  10.717 -0.4108 -0.1699  0.3624
  360MOL0     C48521   9.057   7.907  10.774 -0.0128  0.4051  0.1898
  360MOL0     C48522   9.195   7.909  10.789 -0.1680 -0.2734  0.8788
  360MOL0     C48523   9.273   8.030  10.765  0.4410  1.0984 -0.6208
  360MOL0     O48524   9.410   8.029  10.793  0.7324 -0.4169 -0.8357
  360MOL0     C48525   9.502   8.044  10.688 -0.1233  0.2795 -0.5028
  360MOL0     C48526   9.637   7.982  10.741 -0.2386 -0.2265 -0.5797
  360MOL0     C48527   9.734   7.956  10.628 -0.4040  0.1263 -0.0085
  360MOL0     C48528   9.839   7.851  10.665 -0.6306  0.0443  0.7034
  360MOL0     C48529   9.961   7.915  10.724  0.5069  0.8604  0.3879
  360MOL0     C48530  10.059   7.969  10.772 -0.5489  0.4126  0.9974
  360MOL0     C48531   9.201   8.136  10.711  0.5790 -0.2248 -1.3668
  360MOL0     C48532   9.062   8.129  10.692 -0.2266 -0.4056 -0.1611
  360MOL0     H48533   8.584   8.067  10.831 -0.5840  1.5128 -2.5064
  360MOL0     H48534   8.349   8.032  10.789 -0.9319  0.4206 -2.0783
  360MOL0     H48535   8.252   7.760  10.440  1.3360 -1.3803  1.1404
  360MOL0     H48536   8.185   7.675  10.574  0.2584  0.4742  0.8850
  360MOL0     H48537   8.070   7.946  10.483  0.7624 -1.6976 -0.1143
  360MOL0     H48538   8.024   7.796  10.417 -2.7900  0.3001  0.4718
  360MOL0     H48539   7.943   7.710  10.633  2.2830 -0.6027  1.4998
  360MOL0     H48540   7.986   7.862  10.723  1.2576  3.7975 -2.7208
  360MOL0     H48541   7.829   7.985  10.599 -1.7086  0.3394  2.6461
  360MOL0     H48542   7.804   7.854  10.478  2.3436 -1.8224 -0.0473
  360MOL0     H48543   7.611   7.854  10.612 -0.1343 -2.8214  0.5919
  360MOL0     H48544   7.720   7.729  10.670  1.9155  0.1352 -2.7482
  360MOL0     H48545   7.762   7.837  10.871  0.8569  0.3419 -0.9534
  360MOL0     H48546   7.717   7.997  10.810 -2.2152  1.3049  1.3258
  360MOL0     H48547   7.470   7.879  10.799 -0.7850  0.3954  0.7444
  360MOL0     H48548   7.540   7.759  10.878  1.5311  0.1330 -3.2251
  360MOL0     H48549   7.542   8.043  11.000 -0.2604 -0.4484 -0.0828
  360MOL0     H48550   7.564   7.900  11.087  0.2986 -0.5269  0.1359
  360MOL0     H48551   7.313   7.720  11.063 -3.0529 -0.7524  0.3292
  360MOL0     H48552   7.088   7.677  11.045  0.8311 -0.4312  0.7482
  360MOL0     H48553   6.969   7.807  11.021 -1.6878 -1.8585 -1.8499
  360MOL0     H48554   7.151   7.671  10.821 -0.1552 -0.8837  3.4934
  360MOL0     H48555   7.032   7.793  10.771  1.2536  1.7362  0.4198
  360MOL0     H48556   6.856   7.613  10.864  0.2213  0.4763  0.8336
  360MOL0     H48557   7.004   7.509  10.886  0.5956  2.0441  3.3718
  360MOL0     H48558   7.050   7.548  10.630 -0.7685  0.3767 -1.7097
  360MOL0     H48559   6.898   7.635  10.620  1.3087  1.2528  0.3491
  360MOL0     H48560   6.755   7.219  10.718  2.2162  1.7067  0.3383
  360MOL0     H48561   6.575   7.157  10.963  4.4076 -2.1573 -1.2901
  360MOL0     H48562   6.431   7.118  10.859 -0.7188 -0.0229  1.6484
  360MOL0     H48563   6.597   7.088  10.805 -1.2667 -0.1572 -0.9506
  360MOL0     H48564   6.213   7.785  11.056 -3.2204  2.5769  0.3363
  360MOL0     H48565   5.989   7.794  11.144 -0.9215 -0.0220 -0.0919
  360MOL0     H48566   5.699   7.459  11.244  0.7479 -2.6741  0.7766
  360MOL0     H48567   5.821   7.437  11.368 -0.1272 -1.1577 -0.8404
  360MOL0     H48568   5.633   7.673  11.352  1.6669 -0.0398 -0.5173
  360MOL0     H48569   5.604   7.521  11.452 -0.1401 -1.1234 -0.1808
  360MOL0     H48570   5.858   7.684  11.479  0.4722  0.3613  1.0722
  360MOL0     H48571   5.784   7.554  11.587 -0.4136  2.6680  3.6803
  360MOL0     H48572   5.684   7.844  11.557 -0.6093  0.3441  1.0174
  360MOL0     H48573   5.602   7.704  11.632 -0.1267 -0.6899 -2.9850
  360MOL0     H48574   5.739   7.875  11.773 -3.2056 -0.0801 -0.8413
  360MOL0     H48575   5.881   7.806  11.689  0.8202 -0.2551  3.4952
  360MOL0     H48576   5.804   7.578  11.809 -0.4853  0.2057 -0.5912
  360MOL0     H48577   5.875   7.699  11.921 -0.7159  1.5065 -0.2073
  360MOL0     H48578   5.578   7.651  11.860  0.2363  2.4697 -0.7982
  360MOL0     H48579   5.644   7.773  11.971 -1.7231 -2.2108  3.8279
  360MOL0     H48580   5.571   7.608  12.097 -0.7336  1.4091 -1.6451
  360MOL0     H48581   5.743   7.589  12.110 -1.5765 -0.2988  1.8104
  360MOL0     H48582   5.959   7.389  11.220  0.0629 -0.7106 -0.9565
  360MOL0     H48583   6.170   7.347  11.106  0.1845  0.7396  0.5422
  360MOL0     H48584   6.472   7.614  10.815 -2.7623 -2.9409  0.2850
  360MOL0     H48585   6.693   7.646  10.672  2.4857 -1.4345 -1.6393
  360MOL0     H48586   8.462   7.691  10.543 -0.7875  0.1017  0.5494
  360MOL0     H48587   8.700   7.710  10.624  1.1420  0.8408 -1.7547
  360MOL0     H48588   9.002   7.814  10.785  0.4392 -0.5567 -3.9874
  360MOL0     H48589   9.256   7.828  10.828 -1.5654 -0.3366  3.1566
  360MOL0     H48590   9.464   7.989  10.601  0.6682 -1.4297  0.1872
  360MOL0     H48591   9.525   8.147  10.659  1.0026 -0.2364 -1.5752
  360MOL0     H48592   9.609   7.883  10.778 -1.9636  0.8955  1.3489
  360MOL0     H48593   9.678   8.048  10.818 -0.0017 -1.7557  0.6569
  360MOL0     H48594   9.776   8.050  10.590  0.4111  1.0484  2.9211
  360MOL0     H48595   9.679   7.914  10.543 -0.1854  1.5100 -0.8771
  360MOL0     H48596   9.861   7.820  10.562 -1.2791  4.0024 -0.7957
  360MOL0     H48597   9.808   7.756  10.710 -0.2918 -1.5891 -2.2633
  360MOL0     H48598  10.152   8.005  10.811  0.8273  1.3987 -2.7950
  360MOL0     H48599   9.262   8.222  10.685  1.7362  0.1816  2.1981
  360MOL0     H48600   9.004   8.215  10.661  1.5198  0.9704  0.1684
  361MOL0     O48601   0.037   3.249   4.425  0.4904 -0.4834  0.1355
  361MOL0     C48602   0.100   3.292   4.524 -0.1112  0.5207  0.1561
  361MOL0     O48603   0.045   3.316   4.642 -0.1387 -0.1093 -0.3762
  361MOL0     C48604  -0.085   3.278   4.661  0.4532 -0.7072  0.5397
  361MOL0     C48605  -0.157   3.170   4.602 -0.1216 -0.0844 -0.9254
  361MOL0     C48606  -0.291   3.152   4.633  0.3470  0.4765  0.2008
  361MOL0     C48607  -0.363   3.235   4.724 -0.3930 -0.2339 -0.2538
  361MOL0     O48608  -0.490   3.205   4.763  0.1528  0.7731  0.3515
  361MOL0     C48609  -0.526   3.234   4.893 -0.0288 -0.9356 -1.0254
  361MOL0     C48610  -0.615   3.360   4.888  0.5377  0.4852 -0.2656
  361MOL0     C48611  -0.720   3.353   5.003  0.1411 -0.6339 -0.1926
  361MOL0     C48612  -0.654   3.414   5.126  0.0256  0.0565  0.8996
  361MOL0     C48613  -0.734   3.419   5.257  0.1542 -0.7348  0.3018
  361MOL0     C48614  -0.873   3.460   5.237 -0.4362  0.9125  1.0427
  361MOL0     C48615  -0.938   3.495   5.379  0.8394 -0.2691 -0.2207
  361MOL0     C48616  -0.993   3.376   5.464 -0.3736  0.1751 -0.7050
  361MOL0     N48617  -1.078   3.416   5.576 -0.1016  1.2843 -0.1957
  361MOL0     C48618  -1.146   3.327   5.651 -0.5659 -0.7302 -0.0530
  361MOL0     C48619  -1.202   3.403   5.748 -0.1534  0.4093  0.0671
  361MOL0     C48620  -1.287   3.353   5.853  0.4170 -0.4478  0.0961
  361MOL0     C48621  -1.423   3.305   5.792 -0.3755  0.2443 -0.1039
  361MOL0     C48622  -1.501   3.204   5.880 -0.3062 -0.5712  1.1245
  361MOL0     C48623  -1.521   3.250   6.032  0.6054 -0.4046  0.4373
  361MOL0     O48624  -1.590   3.379   6.037  0.3288 -0.3121 -0.4732
  361MOL0     C48625  -1.725   3.380   6.059 -0.7837 -0.6319 -0.4217
  361MOL0     C48626  -1.786   3.295   6.149  0.6996  0.0074 -0.1975
  361MOL0     C48627  -1.925   3.276   6.158 -0.0377  0.3228  0.0417
  361MOL0     C48628  -1.995   3.172   6.243 -0.7656 -0.7082 -0.1671
  361MOL0     C48629  -2.009   3.366   6.076  0.0464 -1.0027  0.0586
  361MOL0     C48630  -2.160   3.358   6.071  0.3155 -0.5935  0.4581
  361MOL0     O48631  -2.230   3.307   6.181 -0.2084 -0.1775  0.3000
  361MOL0     C48632  -2.358   3.278   6.142 -0.1150  0.0565 -0.7826
  361MOL0     C48633  -2.457   3.378   6.150  0.2991  0.1814  0.2887
  361MOL0     C48634  -2.588   3.357   6.136 -0.2205  0.9617 -0.4778
  361MOL0     C48635  -2.641   3.227   6.128  0.0597 -0.0410 -0.4824
  361MOL0     O48636  -2.778   3.214   6.123  0.1611 -0.4045  0.0672
  361MOL0     C48637  -2.823   3.132   6.015 -0.2248 -0.0599 -0.4411
  361MOL0     C48638  -2.971   3.155   6.000  0.6116 -0.2653  0.0340
  361MOL0     C48639  -3.057   3.103   6.109  0.7739  0.0840 -0.5790
  361MOL0     C48640  -3.198   3.085   6.059  0.0214 -0.1801  0.1008
  361MOL0     C48641  -3.303   3.062   6.168  0.4745  0.3551  0.5380
  361MOL0     C48642  -3.449   3.026   6.117 -0.7794 -0.5617  0.7972
  361MOL0     C48643  -3.460   2.882   6.085 -0.5026  0.9516 -0.0862
  361MOL0     C48644  -3.529   2.863   5.944  0.1282 -0.8093 -1.1298
  361MOL0    Cl48645  -3.398   2.878   5.826 -0.0535  0.4490  0.2985
  361MOL0     C48646  -2.547   3.122   6.109 -0.7223 -0.3569  0.2960
  361MOL0     C48647  -2.410   3.151   6.118 -0.2553 -0.3247 -0.4991
  361MOL0     O48648  -2.210   3.406   5.968  0.2957 -0.0524  0.2091
  361MOL0     C48649  -1.943   3.464   6.000 -0.3042  0.1665 -0.6383
  361MOL0     C48650  -1.806   3.474   5.989 -0.4544  1.1265 -1.0919
  361MOL0     N48651  -1.178   3.536   5.719  0.9360  0.2002  0.3442
  361MOL0     N48652  -1.094   3.543   5.625 -0.0399  0.4478 -0.4648
  361MOL0     C48653  -0.294   3.347   4.769 -0.0231 -0.1191  0.9487
  361MOL0     C48654  -0.157   3.365   4.744  1.0100 -1.0351 -1.0563
  361MOL0     C48655   0.253   3.309   4.505  0.2202  0.5196  0.1316
  361MOL0     C48656   0.329   3.270   4.394 -0.2111 -0.0632  0.2604
  361MOL0     C48657   0.468   3.287   4.391 -0.2896  0.2727  0.6716
  361MOL0     C48658   0.536   3.339   4.503 -0.4289  1.1321 -0.2881
  361MOL0     O48659   0.677   3.336   4.527  0.4712 -0.5181 -0.3791
  361MOL0     C48660   0.759   3.301   4.412  0.3290 -0.7312  0.7079
  361MOL0     C48661   0.746   3.402   4.295 -0.4054  0.7661  0.0595
  361MOL0     C48662   0.842   3.375   4.181  1.0744  0.2219  0.4528
  361MOL0     C48663   0.984   3.400   4.223 -0.7997  0.9763  0.0465
  361MOL0     C48664   1.011   3.529   4.281 -0.5424 -0.7706  0.4775
  361MOL0     C48665   1.040   3.643   4.324  0.5884  0.1771 -0.7725
  361MOL0     C48666   0.459   3.385   4.607 -0.2717 -0.1584 -0.6493
  361MOL0     C48667   0.324   3.370   4.611 -0.0774  1.2044 -0.3311
  361MOL0     H48668  -0.107   3.101   4.534  2.6322 -1.7034  2.4097
  361MOL0     H48669  -0.340   3.059   4.603  0.8695  0.4828 -0.6676
  361MOL0     H48670  -0.574   3.146   4.938  0.8550 -1.7467 -1.6319
  361MOL0     H48671  -0.434   3.253   4.950 -0.2387 -0.8917 -0.6976
  361MOL0     H48672  -0.559   3.453   4.878 -1.7692  1.7004 -3.2600
  361MOL0     H48673  -0.676   3.354   4.798 -1.4034 -1.0948  1.0782
  361MOL0     H48674  -0.801   3.421   4.975  1.3223  0.3162 -1.4223
  361MOL0     H48675  -0.764   3.253   5.016 -1.7083  0.1866  0.1423
  361MOL0     H48676  -0.561   3.367   5.160 -0.0335  0.0174  1.0080
  361MOL0     H48677  -0.614   3.512   5.098  2.5886 -1.3164 -0.5770
  361MOL0     H48678  -0.726   3.327   5.315 -1.5928  1.1298  3.8178
  361MOL0     H48679  -0.674   3.492   5.314 -1.6384 -1.1716  2.9064
  361MOL0     H48680  -0.869   3.546   5.170 -1.4105  0.1422 -0.0416
  361MOL0     H48681  -0.927   3.381   5.184 -0.8254  1.5970  0.3935
  361MOL0     H48682  -0.868   3.563   5.429 -2.3574  3.1655  0.0224
  361MOL0     H48683  -1.028   3.553   5.356 -0.1998 -1.0871  1.5754
  361MOL0     H48684  -0.905   3.315   5.490 -0.5014 -0.5385 -1.8803
  361MOL0     H48685  -1.048   3.314   5.392  0.1555  0.0144 -0.9763
  361MOL0     H48686  -1.170   3.221   5.644  0.4018 -1.0284  0.9819
  361MOL0     H48687  -1.243   3.267   5.905 -0.4439  0.2842  2.1191
  361MOL0     H48688  -1.293   3.427   5.933  2.3204 -1.9960  1.7555
  361MOL0     H48689  -1.420   3.272   5.687  0.7032  0.8512 -0.2899
  361MOL0     H48690  -1.482   3.397   5.788  0.0167  0.5319  0.6829
  361MOL0     H48691  -1.447   3.110   5.879 -0.4884 -0.8094  4.3803
  361MOL0     H48692  -1.596   3.186   5.828  0.5074  1.0598 -1.0945
  361MOL0     H48693  -1.420   3.266   6.072  1.2274  0.2226 -1.2812
  361MOL0     H48694  -1.577   3.171   6.083 -1.4328 -0.4177 -1.6647
  361MOL0     H48695  -1.725   3.236   6.217 -1.3865  1.2436  2.9925
  361MOL0     H48696  -2.055   3.123   6.166 -0.9878 -1.5999  0.5582
  361MOL0     H48697  -1.930   3.096   6.288  0.0491  0.3826  0.5512
  361MOL0     H48698  -2.043   3.221   6.329  2.4111 -2.6863  2.9901
  361MOL0     H48699  -2.439   3.480   6.182 -4.6942  1.7318 -0.9960
  361MOL0     H48700  -2.661   3.436   6.153 -1.5251 -0.0257 -1.2688
  361MOL0     H48701  -2.766   3.152   5.924 -0.4518 -2.9024 -1.3058
  361MOL0     H48702  -2.804   3.027   6.036 -2.7403 -0.1157  2.1641
  361MOL0     H48703  -2.994   3.259   5.974  3.2850 -0.1558 -2.4375
  361MOL0     H48704  -3.005   3.108   5.907 -2.6013  2.0869 -0.1361
  361MOL0     H48705  -3.052   3.161   6.201  2.6732 -1.2345  0.2015
  361MOL0     H48706  -3.027   2.999   6.127 -2.6822 -0.8093  0.9259
  361MOL0     H48707  -3.229   3.175   6.005 -1.9961 -0.7143  0.2693
  361MOL0     H48708  -3.213   3.023   5.970 -0.3826  3.5689 -2.7326
  361MOL0     H48709  -3.324   3.154   6.224 -0.8925  0.7089 -0.5128
  361MOL0     H48710  -3.277   2.990   6.246  0.2750 -1.0760 -0.6832
  361MOL0     H48711  -3.535   3.045   6.182 -0.9677 -3.0404  1.3667
  361MOL0     H48712  -3.456   3.090   6.028  0.1088 -1.8744 -0.2531
  361MOL0     H48713  -3.511   2.825   6.163  1.0832 -0.6664 -0.1572
  361MOL0     H48714  -3.359   2.839   6.089 -1.5148 -1.5812  0.1618
  361MOL0     H48715  -3.604   2.942   5.940  2.6130  1.8365  0.6311
  361MOL0     H48716  -3.570   2.762   5.935  1.9770 -1.7573  0.2765
  361MOL0     H48717  -2.578   3.019   6.098 -0.7338 -0.4766  1.3035
  361MOL0     H48718  -2.330   3.079   6.128 -1.4568 -1.3818  5.4730
  361MOL0     H48719  -1.995   3.535   5.937 -1.3792  0.2936  0.3602
  361MOL0     H48720  -1.761   3.542   5.918 -1.0572  1.3674 -1.2405
  361MOL0     H48721  -0.339   3.426   4.828 -0.8638 -1.5355  2.2874
  361MOL0     H48722  -0.105   3.452   4.784 -0.1086 -0.5288 -0.6554
  361MOL0     H48723   0.279   3.235   4.304 -4.9282 -1.9946  3.2361
  361MOL0     H48724   0.524   3.240   4.310 -0.7205  1.4201 -0.3251
  361MOL0     H48725   0.865   3.292   4.440  2.0266  2.4134 -3.7174
  361MOL0     H48726   0.732   3.208   4.361  0.9654  0.9288 -2.9858
  361MOL0     H48727   0.765   3.499   4.340 -0.4171  0.9886 -0.4041
  361MOL0     H48728   0.649   3.412   4.244 -0.9733  2.0054  1.3306
  361MOL0     H48729   0.819   3.439   4.096 -0.6658 -1.6133 -0.5146
  361MOL0     H48730   0.824   3.272   4.148 -0.1345  0.1842  1.1674
  361MOL0     H48731   1.055   3.386   4.141 -0.2814 -0.3121  0.6827
  361MOL0     H48732   1.017   3.324   4.295  4.1403  1.7730 -1.0072
  361MOL0     H48733   1.063   3.739   4.364 -0.2648  0.5623 -1.1746
  361MOL0     H48734   0.505   3.413   4.702  0.9203 -0.1022 -1.2301
  361MOL0     H48735   0.279   3.420   4.695 -1.7083 -1.0991  0.2518
  362MOL0     O48736   0.516   1.307   5.189  0.2370  0.1487 -0.3843
  362MOL0     C48737   0.506   1.406   5.117  1.2843  0.2037 -0.4196
  362MOL0     O48738   0.608   1.461   5.048 -0.6363  0.8436  0.3851
  362MOL0     C48739   0.736   1.420   5.078 -0.2743 -0.5672  0.1106
  362MOL0     C48740   0.816   1.520   5.137  0.5157 -0.0360  0.6642
  362MOL0     C48741   0.950   1.493   5.145 -0.1418 -0.7245 -0.8618
  362MOL0     C48742   1.014   1.378   5.111 -0.5855 -0.0053 -0.2860
  362MOL0     O48743   1.156   1.358   5.140  0.3591 -0.1208  0.5502
  362MOL0     C48744   1.218   1.238   5.092  0.0068  0.4540 -0.4584
  362MOL0     C48745   1.368   1.270   5.095 -0.6923 -0.5093  0.0670
  362MOL0     C48746   1.401   1.390   5.002 -1.1924 -0.6817 -0.2445
  362MOL0     C48747   1.555   1.423   4.997 -0.2756  0.1745 -0.2598
  362MOL0     C48748   1.627   1.407   4.868  0.4866  0.2830  0.0948
  362MOL0     C48749   1.577   1.517   4.769 -0.4308  0.3198 -0.7509
  362MOL0     C48750   1.679   1.559   4.658 -0.5830  0.6025 -0.3007
  362MOL0     C48751   1.633   1.684   4.585  0.1858  0.0686 -0.5169
  362MOL0     N48752   1.507   1.666   4.514 -0.2589  0.7728 -0.1317
  362MOL0     C48753   1.470   1.560   4.439 -0.0661 -0.1429 -0.1405
  362MOL0     C48754   1.330   1.571   4.425 -0.4600  0.2559 -0.9017
  362MOL0     C48755   1.262   1.486   4.323  0.6947  0.7537 -0.2303
  362MOL0     C48756   1.217   1.358   4.386 -0.7202  0.2765  0.3135
  362MOL0     C48757   1.141   1.280   4.277  0.4429  1.0938  1.2120
  362MOL0     C48758   1.044   1.181   4.342  0.4405 -0.0363  0.0772
  362MOL0     O48759   0.928   1.248   4.400 -0.0104  0.4635  0.4039
  362MOL0     C48760   0.816   1.167   4.413  0.0346 -0.7587  0.2021
  362MOL0     C48761   0.826   1.028   4.407  0.0925  0.1599 -0.0153
  362MOL0     C48762   0.714   0.946   4.410 -0.4852 -0.4548  0.9680
  362MOL0     C48763   0.720   0.795   4.376  0.1872 -0.6011  0.0773
  362MOL0     C48764   0.585   1.009   4.440  0.2777  0.5402  0.3562
  362MOL0     C48765   0.458   0.933   4.473 -0.4205 -0.4307  1.5502
  362MOL0     O48766   0.339   0.998   4.462 -0.1104 -0.2915 -0.2290
  362MOL0     C48767   0.225   0.928   4.499  0.5790  0.4183 -0.1596
  362MOL0     C48768   0.127   1.010   4.562  0.4707 -0.5997  0.1236
  362MOL0     C48769   0.008   0.950   4.617  0.0724  0.7957 -0.8157
  362MOL0     C48770  -0.025   0.821   4.580  0.9455 -0.2864  0.6690
  362MOL0     O48771  -0.155   0.784   4.614 -0.3064  0.5706  0.0463
  362MOL0     C48772  -0.218   0.705   4.514  0.4050  0.0880  0.4385
  362MOL0     C48773  -0.223   0.554   4.565  0.3094 -0.1348  0.9400
  362MOL0     C48774  -0.322   0.478   4.478 -0.5302  0.8673  0.2075
  362MOL0     C48775  -0.464   0.501   4.513  0.1836 -0.3937 -0.1669
  362MOL0     C48776  -0.564   0.421   4.427 -0.1330 -0.8468  0.7653
  362MOL0     C48777  -0.562   0.271   4.460 -0.6128 -0.5626 -0.3055
  362MOL0     C48778  -0.681   0.201   4.392  0.0613 -0.1250  0.4229
  362MOL0     C48779  -0.636   0.100   4.280  0.5017 -0.0890  1.0049
  362MOL0    Cl48780  -0.588   0.190   4.127  0.1209 -0.2950 -0.0641
  362MOL0     C48781   0.077   0.739   4.519  0.3512 -0.2019 -0.0286
  362MOL0     C48782   0.197   0.788   4.482 -0.0828 -0.5289 -0.3935
  362MOL0     O48783   0.469   0.819   4.505 -0.4580 -0.2208  0.0257
  362MOL0     C48784   0.574   1.145   4.435  0.7045 -0.7556 -0.4815
  362MOL0     C48785   0.688   1.224   4.426  0.0869  0.1637 -0.3446
  362MOL0     N48786   1.288   1.687   4.480  0.3011 -0.4853 -0.3478
  362MOL0     N48787   1.390   1.739   4.544 -0.4474 -0.4297  0.8694
  362MOL0     C48788   0.936   1.276   5.060 -0.2360 -0.2229 -0.3265
  362MOL0     C48789   0.797   1.291   5.051  0.5355  0.1837 -0.5558
  362MOL0     C48790   0.376   1.470   5.100  0.0353 -0.4450  0.2869
  362MOL0     C48791   0.264   1.436   5.176 -0.1737 -0.0305  0.2919
  362MOL0     C48792   0.139   1.501   5.150  0.3209 -0.0674 -0.6147
  362MOL0     C48793   0.129   1.586   5.039 -0.1678 -0.2264 -0.1652
  362MOL0     O48794   0.005   1.631   5.003 -0.4090 -0.4342  0.1152
  362MOL0     C48795  -0.023   1.768   5.029  0.5159  0.3521  0.1954
  362MOL0     C48796  -0.061   1.793   5.173  0.4933  0.3940 -0.4201
  362MOL0     C48797  -0.197   1.732   5.215  0.1281  0.5826  0.1115
  362MOL0     C48798  -0.216   1.582   5.203 -1.1715  0.7169  0.0928
  362MOL0     C48799  -0.353   1.544   5.247  0.1485 -0.1794 -0.0831
  362MOL0     C48800  -0.462   1.499   5.270 -0.0000  0.5199 -0.4562
  362MOL0     C48801   0.246   1.622   4.964  0.4486 -0.0070 -0.9687
  362MOL0     C48802   0.375   1.565   4.996  0.6550  0.3211  0.5227
  362MOL0     H48803   0.765   1.610   5.166  1.5137  0.8407 -0.2110
  362MOL0     H48804   1.013   1.574   5.182 -0.0068 -0.0220 -2.5395
  362MOL0     H48805   1.192   1.151   5.152 -0.3500  1.6791  1.2112
  362MOL0     H48806   1.195   1.220   4.986 -2.2373  0.6994 -0.0534
  362MOL0     H48807   1.401   1.285   5.198  0.5616 -1.0774 -0.2319
  362MOL0     H48808   1.420   1.180   5.060  0.2462  0.5333 -1.3784
  362MOL0     H48809   1.376   1.365   4.898  2.0665  0.7447 -1.4779
  362MOL0     H48810   1.337   1.471   5.039 -2.2506 -1.7405  0.3342
  362MOL0     H48811   1.568   1.530   5.019  0.6436  0.6622 -2.7726
  362MOL0     H48812   1.611   1.367   5.072  0.3231 -0.7432 -1.3605
  362MOL0     H48813   1.736   1.412   4.874  0.7528 -3.3475  0.4276
  362MOL0     H48814   1.600   1.308   4.829  2.1389  0.4939 -1.7192
  362MOL0     H48815   1.480   1.496   4.723 -1.1730 -0.4187  1.0391
  362MOL0     H48816   1.557   1.610   4.825  1.7764  1.0060 -1.0107
  362MOL0     H48817   1.780   1.569   4.699 -1.6297  0.8807  2.3674
  362MOL0     H48818   1.693   1.471   4.595  3.1704  0.5206  0.4380
  362MOL0     H48819   1.709   1.714   4.512  0.3469  1.4054  0.1555
  362MOL0     H48820   1.630   1.772   4.651  1.6357  0.9670 -1.5725
  362MOL0     H48821   1.539   1.486   4.398 -2.0374 -0.7638 -2.5293
  362MOL0     H48822   1.174   1.536   4.282 -1.1974 -2.0231  0.1169
  362MOL0     H48823   1.332   1.464   4.242  1.3115  0.0327  0.4751
  362MOL0     H48824   1.151   1.382   4.470  1.4758 -2.8028  3.2123
  362MOL0     H48825   1.304   1.306   4.429 -1.4326 -0.9955  0.2745
  362MOL0     H48826   1.215   1.225   4.218  1.6473  2.4601  1.3913
  362MOL0     H48827   1.073   1.345   4.222  2.7446  0.7967 -2.3268
  362MOL0     H48828   1.094   1.123   4.419 -0.7520 -0.7332  0.3494
  362MOL0     H48829   1.007   1.111   4.266  4.2577 -0.3028 -1.7852
  362MOL0     H48830   0.920   0.973   4.408  0.8881  1.4858  0.5251
  362MOL0     H48831   0.813   0.774   4.323  1.3044  0.7340  1.4216
  362MOL0     H48832   0.715   0.745   4.472 -2.5317  1.1891  0.9834
  362MOL0     H48833   0.636   0.768   4.311  1.6639  0.7884 -2.6311
  362MOL0     H48834   0.155   1.114   4.577 -2.2791 -0.0045  1.9461
  362MOL0     H48835  -0.064   1.013   4.668 -1.0621 -0.9642 -0.1504
  362MOL0     H48836  -0.322   0.738   4.502  0.2589 -0.9593 -1.8135
  362MOL0     H48837  -0.168   0.717   4.418  2.7776 -1.8728  1.3301
  362MOL0     H48838  -0.123   0.511   4.570  1.4401  2.0607 -0.7467
  362MOL0     H48839  -0.253   0.557   4.670  0.3473 -0.9895  0.9779
  362MOL0     H48840  -0.305   0.370   4.489 -3.1146  0.3352 -0.3968
  362MOL0     H48841  -0.302   0.507   4.375  5.7914 -4.2233 -0.7027
  362MOL0     H48842  -0.479   0.468   4.616 -0.4405 -1.0153 -0.4518
  362MOL0     H48843  -0.485   0.608   4.506  1.2563 -0.1596  0.0917
  362MOL0     H48844  -0.554   0.430   4.318  0.1855  0.5282  0.8883
  362MOL0     H48845  -0.664   0.456   4.452 -0.0447  0.8128 -0.9131
  362MOL0     H48846  -0.469   0.222   4.432  0.9148  2.9470 -1.9375
  362MOL0     H48847  -0.556   0.256   4.568 -0.2487  2.4833  0.1896
  362MOL0     H48848  -0.756   0.272   4.357  0.8739  0.1215 -0.8769
  362MOL0     H48849  -0.727   0.149   4.476 -1.5748  0.5372 -0.0339
  362MOL0     H48850  -0.730   0.051   4.252 -0.5154  1.8524  0.8123
  362MOL0     H48851  -0.570   0.022   4.317 -1.4253 -2.4137 -0.1607
  362MOL0     H48852   0.059   0.633   4.504  3.2574 -0.5715 -1.6207
  362MOL0     H48853   0.272   0.721   4.439  0.2101  0.0928 -0.8688
  362MOL0     H48854   0.481   1.200   4.438  1.9069  1.3761  0.6729
  362MOL0     H48855   0.675   1.332   4.425  1.9520  0.4607  1.1818
  362MOL0     H48856   0.976   1.182   5.021  1.1098  1.3694 -3.0694
  362MOL0     H48857   0.737   1.218   4.998  0.2505  0.2785 -0.3646
  362MOL0     H48858   0.275   1.362   5.255 -1.5735  1.7657  2.2883
  362MOL0     H48859   0.050   1.485   5.210 -1.1771  1.5717 -2.3018
  362MOL0     H48860   0.063   1.831   5.007 -1.0208  3.4941  2.2076
  362MOL0     H48861  -0.105   1.807   4.967  0.3316 -0.1289  0.1357
  362MOL0     H48862  -0.069   1.902   5.186 -1.1454  0.4649 -1.6904
  362MOL0     H48863   0.014   1.756   5.243 -1.1277 -2.4821 -0.0713
  362MOL0     H48864  -0.277   1.779   5.156  1.8417  2.5784 -0.7598
  362MOL0     H48865  -0.218   1.760   5.319  3.9287  0.8479  0.9488
  362MOL0     H48866  -0.148   1.524   5.266 -1.1738 -0.7532 -1.1925
  362MOL0     H48867  -0.215   1.542   5.101 -4.1404  0.3842  0.1246
  362MOL0     H48868  -0.561   1.469   5.299  0.7031  0.1320  1.6721
  362MOL0     H48869   0.252   1.693   4.883 -1.2481  0.4170 -0.7539
  362MOL0     H48870   0.455   1.595   4.929 -2.4684  1.8862 -2.9394
  363MOL0     O48871   0.977   0.013   2.861  0.2890  0.0353  0.4779
  363MOL0     C48872   1.027   0.124   2.881 -0.5866 -0.3356  0.2033
  363MOL0     O48873   0.958   0.246   2.917  0.0889  0.2093  1.0016
  363MOL0     C48874   0.820   0.242   2.935 -0.5182  0.6795  0.5192
  363MOL0     C48875   0.774   0.324   3.042  0.4532 -0.4440 -0.4439
  363MOL0     C48876   0.628   0.333   3.060 -0.5704  0.9641  0.4424
  363MOL0     C48877   0.537   0.268   2.974  0.5675  0.2235  0.0714
  363MOL0     O48878   0.408   0.290   2.989 -0.0218 -0.2780  0.5792
  363MOL0     C48879   0.369   0.420   2.964  0.8863 -0.0908  0.0822
  363MOL0     C48880   0.209   0.439   2.985 -0.4674 -0.0697  0.5807
  363MOL0     C48881   0.168   0.480   3.127 -1.5370  0.1301  0.8156
  363MOL0     C48882   0.137   0.361   3.219 -0.1671 -1.0039  0.7374
  363MOL0     C48883   0.140   0.421   3.363  0.2321  0.0580  0.2096
  363MOL0     C48884   0.101   0.323   3.468 -0.2124  0.5786 -0.3698
  363MOL0     C48885   0.101   0.404   3.602 -0.8463 -0.1664 -0.1181
  363MOL0     C48886   0.068   0.317   3.731 -0.1496  0.1591 -0.4148
  363MOL0     N48887  -0.054   0.234   3.732  0.5527 -0.3466 -0.1050
  363MOL0     C48888  -0.174   0.291   3.754 -0.4896  0.3129  0.6124
  363MOL0     C48889  -0.260   0.186   3.736 -0.9847  0.0583 -0.0183
  363MOL0     C48890  -0.405   0.183   3.763  0.1317 -0.4561  0.1948
  363MOL0     C48891  -0.473   0.087   3.674  0.0171  0.3803 -0.0275
  363MOL0     C48892  -0.625   0.120   3.655  0.3657  0.4293  0.2361
  363MOL0     C48893  -0.693   0.109   3.784  0.2302  0.0839 -0.7691
  363MOL0     O48894  -0.827   0.133   3.760 -0.1751 -0.0821  1.0280
  363MOL0     C48895  -0.935   0.070   3.822 -0.1988  0.2818 -0.9976
  363MOL0     C48896  -0.932   0.037   3.963 -0.9025  0.0777 -0.4293
  363MOL0     C48897  -1.046   0.005   4.035  0.0018 -0.3388 -0.4056
  363MOL0     C48898  -1.042  -0.022   4.185 -0.7805 -0.7606 -0.3820
  363MOL0     C48899  -1.167  -0.009   3.962 -0.1838 -0.4076 -0.4326
  363MOL0     C48900  -1.303  -0.035   4.023 -0.3775 -0.3797  0.4262
  363MOL0     O48901  -1.402  -0.082   3.949 -0.6679  0.6674  0.8686
  363MOL0     C48902  -1.506  -0.128   4.014  0.1106  0.3115  0.3103
  363MOL0     C48903  -1.500  -0.265   4.047  0.2693 -0.1539 -0.0036
  363MOL0     C48904  -1.595  -0.328   4.136 -0.0453 -0.0691 -0.2025
  363MOL0     C48905  -1.690  -0.244   4.198 -0.5473  0.1062  0.6991
  363MOL0     O48906  -1.787  -0.300   4.277 -0.8521 -0.7413  0.0671
  363MOL0     C48907  -1.790  -0.257   4.416  0.1606 -0.4960  0.4534
  363MOL0     C48908  -1.926  -0.287   4.479  0.2679 -0.3526 -0.0728
  363MOL0     C48909  -1.923  -0.425   4.530  0.9783 -0.4776  0.7811
  363MOL0     C48910  -2.023  -0.454   4.640 -0.1136  0.6248 -0.2211
  363MOL0     C48911  -2.166  -0.460   4.589 -0.3113 -0.5943 -0.2659
  363MOL0     C48912  -2.265  -0.496   4.697 -0.5988  0.3837 -0.0648
  363MOL0     C48913  -2.398  -0.489   4.637  1.5761 -0.4515  0.4767
  363MOL0     C48914  -2.499  -0.498   4.744 -0.2409  0.1795 -1.0224
  363MOL0    Cl48915  -2.649  -0.535   4.665 -0.3303  0.4194 -0.1542
  363MOL0     C48916  -1.698  -0.111   4.160 -0.2318 -0.0313 -0.4747
  363MOL0     C48917  -1.609  -0.055   4.071  0.0209  0.4062  0.5002
  363MOL0     O48918  -1.315   0.010   4.136 -0.3736  0.1973 -0.5970
  363MOL0     C48919  -1.162  -0.007   3.825 -0.2461 -0.7404 -0.0758
  363MOL0     C48920  -1.047   0.043   3.757  0.6659  0.7237  0.6037
  363MOL0     N48921  -0.185   0.065   3.706  0.2581  0.1580 -0.7364
  363MOL0     N48922  -0.063   0.095   3.704 -0.0144 -0.1422  0.7768
  363MOL0     C48923   0.584   0.184   2.874  0.5399 -0.0888 -0.3675
  363MOL0     C48924   0.725   0.177   2.853  0.4939  0.4182 -0.1557
  363MOL0     C48925   1.175   0.136   2.866  0.3639 -0.7836 -0.0989
  363MOL0     C48926   1.247   0.017   2.854  0.9004  0.2193 -0.0693
  363MOL0     C48927   1.389   0.018   2.857 -0.6835  0.2322 -0.4218
  363MOL0     C48928   1.457   0.136   2.854 -0.2831 -0.4221 -0.5811
  363MOL0     O48929   1.595   0.122   2.869 -0.4953 -0.0282 -0.0389
  363MOL0     C48930   1.684   0.223   2.820 -0.4005 -0.3288  0.4705
  363MOL0     C48931   1.669   0.253   2.673  0.0576  0.0010 -0.4779
  363MOL0     C48932   1.765   0.362   2.613  0.3865  0.2225  0.6570
  363MOL0     C48933   1.918   0.356   2.642  0.9237  0.0746 -0.6742
  363MOL0     C48934   1.975   0.225   2.607  0.1689  0.5355  0.2302
  363MOL0     C48935   2.017   0.108   2.579  0.1864 -0.4228  0.6186
  363MOL0     C48936   1.392   0.255   2.850  0.5831  0.2007 -0.7998
  363MOL0     C48937   1.249   0.254   2.862  0.1907 -0.3231 -0.2461
  363MOL0     H48938   0.829   0.385   3.112  0.6751 -1.0743 -0.0579
  363MOL0     H48939   0.604   0.392   3.148 -1.3531  0.6539  0.4426
  363MOL0     H48940   0.426   0.489   3.028 -0.9501  1.6853 -0.0822
  363MOL0     H48941   0.394   0.435   2.859  1.1390  1.6332  0.3478
  363MOL0     H48942   0.182   0.513   2.910  0.7658  1.7549  1.8653
  363MOL0     H48943   0.160   0.344   2.959 -4.5164  2.1640 -0.7625
  363MOL0     H48944   0.232   0.551   3.179 -0.2147 -2.1731  2.4864
  363MOL0     H48945   0.077   0.541   3.116  0.1482  2.9295  1.5234
  363MOL0     H48946   0.039   0.324   3.189 -0.1064 -0.0624 -0.7701
  363MOL0     H48947   0.216   0.285   3.210  1.7651  0.6073  2.8160
  363MOL0     H48948   0.245   0.448   3.377  0.5695 -1.4412  0.7037
  363MOL0     H48949   0.089   0.517   3.373  2.7856  1.5185  0.2716
  363MOL0     H48950   0.005   0.277   3.443  0.1835 -0.4112 -0.1178
  363MOL0     H48951   0.168   0.237   3.464 -0.4104  0.0693  3.2640
  363MOL0     H48952   0.195   0.453   3.629 -0.6213 -0.4562 -0.3801
  363MOL0     H48953   0.026   0.482   3.586  0.3389  0.7617 -1.3218
  363MOL0     H48954   0.066   0.375   3.823 -1.2931 -0.6273  0.0883
  363MOL0     H48955   0.159   0.259   3.749 -1.6848 -1.3065  3.8067
  363MOL0     H48956  -0.198   0.395   3.768  0.4720  0.9900 -2.0764
  363MOL0     H48957  -0.423   0.166   3.870 -0.1531  1.7582  0.5416
  363MOL0     H48958  -0.440   0.284   3.741  0.7827 -0.8721 -3.3158
  363MOL0     H48959  -0.461  -0.011   3.721  0.4784 -1.4060 -3.5355
  363MOL0     H48960  -0.425   0.092   3.576 -0.1651  0.0908 -0.1355
  363MOL0     H48961  -0.682   0.054   3.589  0.5460  0.7565 -0.2619
  363MOL0     H48962  -0.632   0.219   3.607  1.6606 -1.4388 -4.3787
  363MOL0     H48963  -0.652   0.178   3.858 -0.5815 -1.7221  1.4726
  363MOL0     H48964  -0.684   0.002   3.804 -0.2988  0.1779  0.0477
  363MOL0     H48965  -0.838   0.047   4.015 -0.9708 -0.8098 -0.1244
  363MOL0     H48966  -1.076   0.060   4.249  1.3795 -0.6131  0.6631
  363MOL0     H48967  -1.099  -0.113   4.207 -2.1412  0.6352  2.3694
  363MOL0     H48968  -0.940  -0.043   4.218 -0.5974 -0.4905 -0.7628
  363MOL0     H48969  -1.431  -0.333   3.998 -1.1199 -0.6349 -1.4290
  363MOL0     H48970  -1.591  -0.436   4.143  1.3930 -0.0714 -0.6246
  363MOL0     H48971  -1.712  -0.301   4.479 -0.0651  0.1351  1.1873
  363MOL0     H48972  -1.788  -0.148   4.418 -1.8459 -0.4268  1.0202
  363MOL0     H48973  -1.953  -0.218   4.559  0.0174 -0.1821 -0.3012
  363MOL0     H48974  -2.004  -0.272   4.404 -0.8141  1.2260  1.3009
  363MOL0     H48975  -1.824  -0.444   4.573  1.8378  2.3855  0.2759
  363MOL0     H48976  -1.934  -0.505   4.456  1.3639  1.2316 -1.2104
  363MOL0     H48977  -2.002  -0.552   4.683 -0.0996 -0.4673 -2.5940
  363MOL0     H48978  -2.003  -0.379   4.718  1.6158  0.6684 -0.6788
  363MOL0     H48979  -2.173  -0.537   4.512 -1.8286 -1.2454  0.4814
  363MOL0     H48980  -2.189  -0.364   4.543  4.2137 -0.6435 -3.2611
  363MOL0     H48981  -2.250  -0.595   4.740 -2.2158 -0.2724 -0.9441
  363MOL0     H48982  -2.253  -0.413   4.768 -1.1144  0.7974 -0.4491
  363MOL0     H48983  -2.423  -0.562   4.559  2.1041 -0.0014 -0.1273
  363MOL0     H48984  -2.415  -0.396   4.582  0.2271 -0.9651 -0.0437
  363MOL0     H48985  -2.514  -0.412   4.810 -2.5112  0.7092 -2.1583
  363MOL0     H48986  -2.480  -0.590   4.801  1.1135  1.0053 -0.1002
  363MOL0     H48987  -1.769  -0.050   4.214 -1.0610 -1.5171  0.1765
  363MOL0     H48988  -1.620   0.050   4.047 -1.5345  0.3254  0.7374
  363MOL0     H48989  -1.246  -0.039   3.765  0.5689 -1.2415 -0.9967
  363MOL0     H48990  -1.050   0.047   3.649  3.4592  1.6053  0.4916
  363MOL0     H48991   0.510   0.147   2.804 -1.6351  1.9426  0.7036
  363MOL0     H48992   0.761   0.115   2.771  1.8375  2.6479 -1.3299
  363MOL0     H48993   1.198  -0.079   2.844 -0.0299  0.8780 -2.3613
  363MOL0     H48994   1.448  -0.073   2.855  2.0852  1.8578  1.0414
  363MOL0     H48995   1.662   0.314   2.878 -1.4540  0.5353 -1.1936
  363MOL0     H48996   1.787   0.190   2.832 -0.8633 -2.3245 -0.6774
  363MOL0     H48997   1.567   0.286   2.649 -0.9950 -0.3516  3.0132
  363MOL0     H48998   1.680   0.158   2.619  1.4583  0.1728 -0.5309
  363MOL0     H48999   1.737   0.464   2.643 -0.9214  0.1334 -0.2315
  363MOL0     H49000   1.742   0.366   2.507 -0.5787  0.1517  0.8603
  363MOL0     H49001   1.947   0.356   2.748  1.3837 -4.1501 -0.6030
  363MOL0     H49002   1.965   0.445   2.601 -1.4537  2.4223  1.3654
  363MOL0     H49003   2.036   0.010   2.542 -3.3059 -0.6389 -1.0030
  363MOL0     H49004   1.446   0.349   2.855 -0.1787  0.5808  2.0010
  363MOL0     H49005   1.190   0.345   2.863 -1.7651 -1.4514 -2.6435
  364MOL0     O49006   2.651   8.093   4.377  1.0046 -0.6660  0.1702
  364MOL0     C49007   2.568   8.131   4.290 -0.3926  0.4113  0.1292
  364MOL0     O49008   2.583   8.105   4.155 -0.2095  0.1780 -0.1518
  364MOL0     C49009   2.702   8.066   4.100  0.0222  0.8446  0.7592
  364MOL0     C49010   2.786   8.164   4.046  0.3912 -0.0436 -0.2551
  364MOL0     C49011   2.909   8.126   3.986  0.7299 -0.9043 -0.2780
  364MOL0     C49012   2.944   7.992   3.970 -0.2680 -0.0500 -0.7204
  364MOL0     O49013   3.066   7.948   3.926  0.7170  0.6655  0.2567
  364MOL0     C49014   3.089   7.805   3.928  0.1606 -0.6033  1.2057
  364MOL0     C49015   3.232   7.768   3.862  0.3197  0.3533 -0.1798
  364MOL0     C49016   3.347   7.852   3.920 -0.5106 -0.5076  0.3089
  364MOL0     C49017   3.478   7.770   3.910  0.7387  0.3231 -0.3227
  364MOL0     C49018   3.606   7.851   3.955  0.7514 -0.2484  0.0200
  364MOL0     C49019   3.676   7.928   3.843 -0.3226  0.4398  0.9250
  364MOL0     C49020   3.757   7.836   3.754  0.5828  0.2292  0.3660
  364MOL0     C49021   3.819   7.918   3.640  0.4033 -0.3378 -0.2847
  364MOL0     N49022   3.933   7.835   3.569  0.1284  0.0986 -0.8903
  364MOL0     C49023   3.906   7.744   3.470 -0.7752 -0.3745 -0.3813
  364MOL0     C49024   4.027   7.713   3.418  0.2409  0.4370 -0.2616
  364MOL0     C49025   4.048   7.639   3.293  0.7364  0.3920 -0.2367
  364MOL0     C49026   4.074   7.492   3.315 -0.6091 -0.3695  0.0542
  364MOL0     C49027   4.101   7.436   3.171  0.3391 -0.7092 -0.4823
  364MOL0     C49028   4.105   7.281   3.183  0.2111  1.1275  0.2369
  364MOL0     O49029   4.155   7.239   3.054  0.2074  0.3893 -0.5830
  364MOL0     C49030   4.289   7.244   3.025  0.1871  0.6306  0.2913
  364MOL0     C49031   4.327   7.200   2.897  0.8972  0.1717  0.0050
  364MOL0     C49032   4.467   7.170   2.864 -0.5225 -0.2799  0.0883
  364MOL0     C49033   4.499   7.113   2.724 -1.0903 -0.5206  0.2676
  364MOL0     C49034   4.565   7.203   2.962  0.3341  0.6244 -0.4523
  364MOL0     C49035   4.709   7.213   2.936  0.0799 -0.4803 -0.1652
  364MOL0     O49036   4.765   7.135   2.845 -0.2547 -0.8162  0.1318
  364MOL0     C49037   4.899   7.131   2.811 -0.3214  0.2053  0.3326
  364MOL0     C49038   4.983   7.236   2.825 -0.1551 -0.1878  0.3784
  364MOL0     C49039   5.116   7.211   2.786 -0.4074  0.1502 -0.3022
  364MOL0     C49040   5.176   7.091   2.752  0.5855 -0.2348 -0.5997
  364MOL0     O49041   5.306   7.076   2.713  0.6826 -0.2331 -0.7660
  364MOL0     C49042   5.373   6.960   2.762 -0.7066  0.3874  0.4038
  364MOL0     C49043   5.524   6.985   2.753  0.3882  0.2961 -0.2696
  364MOL0     C49044   5.603   6.889   2.838 -0.4545 -0.7286 -0.3907
  364MOL0     C49045   5.744   6.927   2.874 -0.2903  0.4060  0.7319
  364MOL0     C49046   5.798   6.816   2.975 -0.5879  0.4225  0.3497
  364MOL0     C49047   5.929   6.871   3.036 -0.3517  0.3570 -0.0920
  364MOL0     C49048   5.993   6.762   3.129 -0.3169 -0.5168 -0.0238
  364MOL0     C49049   6.124   6.800   3.199  0.2761  0.1086  0.2005
  364MOL0    Cl49050   6.163   6.701   3.342  0.0061  0.0662  0.0050
  364MOL0     C49051   5.084   6.984   2.745 -0.4352 -0.2092 -0.0065
  364MOL0     C49052   4.945   7.002   2.773 -0.1421 -0.4661 -0.8604
  364MOL0     O49053   4.764   7.296   3.003 -0.3515 -0.0598  0.2036
  364MOL0     C49054   4.519   7.247   3.084 -0.1638 -0.7512 -0.0829
  364MOL0     C49055   4.383   7.254   3.122  0.6239 -0.6634  0.0390
  364MOL0     N49056   4.127   7.786   3.484  0.0028 -0.2359  0.2804
  364MOL0     N49057   4.068   7.851   3.580  0.0411 -0.3148  0.7796
  364MOL0     C49058   2.854   7.899   4.015 -0.0913 -0.5906  0.2400
  364MOL0     C49059   2.739   7.931   4.085 -0.2651 -0.1391 -1.0435
  364MOL0     C49060   2.457   8.207   4.338 -0.0597  0.5511  0.1327
  364MOL0     C49061   2.427   8.222   4.475  0.2582 -0.0195  0.1471
  364MOL0     C49062   2.320   8.300   4.518  0.5235 -1.0060  0.6494
  364MOL0     C49063   2.238   8.366   4.426  0.7606 -0.1562 -1.2730
  364MOL0     O49064   2.134   8.459   4.456  1.0713 -0.7183  0.3558
  364MOL0     C49065   2.143   8.541   4.576 -0.0328  0.2656 -0.4662
  364MOL0     C49066   2.268   8.627   4.575  0.0535  0.8213 -0.0020
  364MOL0     C49067   2.233   8.762   4.510  0.5037  0.4892  0.2076
  364MOL0     C49068   2.316   8.883   4.561  0.1432 -0.4820  1.1124
  364MOL0     C49069   2.449   8.889   4.500  0.1371  0.3715 -0.0022
  364MOL0     C49070   2.557   8.891   4.446 -0.5707  0.5431  0.2023
  364MOL0     C49071   2.258   8.348   4.296  0.3203  0.7542 -0.0129
  364MOL0     C49072   2.366   8.271   4.244  0.2084 -0.1921 -0.3488
  364MOL0     H49073   2.758   8.268   4.043 -0.2108 -0.2144 -0.7406
  364MOL0     H49074   2.975   8.207   3.954 -0.9555 -0.2932 -2.5085
  364MOL0     H49075   3.085   7.771   4.032 -2.3985 -0.5429  1.1915
  364MOL0     H49076   3.018   7.746   3.870  1.8143 -0.4906 -1.0433
  364MOL0     H49077   3.250   7.663   3.890 -1.3494  0.2872  0.7979
  364MOL0     H49078   3.224   7.770   3.753 -4.1607 -1.5160 -0.1477
  364MOL0     H49079   3.351   7.944   3.861 -0.3558  0.5573  1.9175
  364MOL0     H49080   3.324   7.887   4.021  0.2264 -1.2601  0.7513
  364MOL0     H49081   3.453   7.693   3.984  2.8686  1.7943  2.0940
  364MOL0     H49082   3.483   7.731   3.808 -1.1867 -1.6690  0.2783
  364MOL0     H49083   3.572   7.917   4.035  3.7084 -1.5364  2.5254
  364MOL0     H49084   3.677   7.792   4.013 -0.5632 -1.7293  0.1788
  364MOL0     H49085   3.601   7.981   3.785  0.4361  0.8501  0.3111
  364MOL0     H49086   3.743   8.004   3.883  1.3307  1.0436 -2.6181
  364MOL0     H49087   3.838   7.788   3.809  2.5200  2.1776 -0.6167
  364MOL0     H49088   3.688   7.764   3.709  1.1341 -0.5369  0.7270
  364MOL0     H49089   3.872   8.002   3.684  1.2736 -1.2092  0.3687
  364MOL0     H49090   3.744   7.963   3.574 -0.5078  2.6201  2.5352
  364MOL0     H49091   3.811   7.700   3.441 -0.0678 -0.9448 -1.9151
  364MOL0     H49092   3.959   7.656   3.231  1.5607 -0.9834 -1.8894
  364MOL0     H49093   4.135   7.681   3.242  2.8822 -2.3328  0.9339
  364MOL0     H49094   3.984   7.451   3.361  0.0379  0.9107  2.6235
  364MOL0     H49095   4.154   7.474   3.387  0.4255  1.8972 -0.4403
  364MOL0     H49096   4.190   7.482   3.128 -0.2154 -1.2570 -2.2818
  364MOL0     H49097   4.013   7.455   3.109  0.9058 -2.6115 -1.9771
  364MOL0     H49098   4.006   7.237   3.197  1.5083 -1.4745  2.0428
  364MOL0     H49099   4.160   7.249   3.271  0.4346  2.3381  0.5495
  364MOL0     H49100   4.264   7.187   2.809  2.5875 -0.6580 -1.1330
  364MOL0     H49101   4.556   7.024   2.751  1.2497  0.9412  0.4304
  364MOL0     H49102   4.409   7.070   2.678 -1.4409 -0.0446  0.4999
  364MOL0     H49103   4.555   7.177   2.656 -1.3096 -0.3744  0.2208
  364MOL0     H49104   4.948   7.336   2.845  0.9934  0.0026  1.5969
  364MOL0     H49105   5.172   7.300   2.756 -0.3773  0.0594 -0.5196
  364MOL0     H49106   5.334   6.930   2.859  2.6180 -0.2691  1.6710
  364MOL0     H49107   5.348   6.873   2.700 -0.8558  1.3187 -0.8819
  364MOL0     H49108   5.554   6.978   2.648 -2.2525  0.3685 -1.0971
  364MOL0     H49109   5.547   7.086   2.788 -0.0990 -0.3917  2.2287
  364MOL0     H49110   5.603   6.790   2.790  0.1989 -0.7986 -0.2438
  364MOL0     H49111   5.551   6.894   2.935  1.8934 -1.5421  0.9783
  364MOL0     H49112   5.814   6.921   2.790  0.3613  3.6579  0.9121
  364MOL0     H49113   5.763   7.028   2.909 -3.0503  1.1589  0.2912
  364MOL0     H49114   5.806   6.724   2.917 -2.8857  0.4107 -0.0402
  364MOL0     H49115   5.732   6.806   3.062  0.8388  3.8613  2.0371
  364MOL0     H49116   5.997   6.884   2.950  0.9259 -0.1236  0.8167
  364MOL0     H49117   5.915   6.961   3.097  3.7325 -0.3814  2.3428
  364MOL0     H49118   6.010   6.679   3.061  0.4186  2.3370 -3.5933
  364MOL0     H49119   5.919   6.752   3.210  1.1134 -2.5101  1.0985
  364MOL0     H49120   6.132   6.900   3.242 -0.4535  0.4744 -0.4877
  364MOL0     H49121   6.205   6.780   3.128 -0.6052 -2.1509 -0.2546
  364MOL0     H49122   5.114   6.885   2.713  1.9918  0.7436 -0.9593
  364MOL0     H49123   4.876   6.919   2.764 -1.8807  0.6884  0.9617
  364MOL0     H49124   4.584   7.287   3.161 -1.0403 -1.4246  1.0277
  364MOL0     H49125   4.362   7.276   3.226  0.3764 -1.3272  0.1374
  364MOL0     H49126   2.862   7.790   4.017 -0.0386 -0.6310 -1.1887
  364MOL0     H49127   2.683   7.845   4.121  0.3189 -0.1912 -0.2384
  364MOL0     H49128   2.484   8.162   4.545  1.1315 -1.9060 -2.0376
  364MOL0     H49129   2.316   8.318   4.625  0.7959  2.2285  0.2347
  364MOL0     H49130   2.045   8.589   4.586 -0.3046 -0.5182  0.9411
  364MOL0     H49131   2.144   8.470   4.660  4.4938  1.6890  0.9346
  364MOL0     H49132   2.356   8.579   4.533 -0.2036 -0.9421  1.3585
  364MOL0     H49133   2.299   8.634   4.680 -2.0757  2.8310  0.5911
  364MOL0     H49134   2.128   8.782   4.530 -0.0541  0.6513 -2.4917
  364MOL0     H49135   2.231   8.755   4.401  0.6878  1.4673  0.1377
  364MOL0     H49136   2.322   8.866   4.669  0.6927  0.7876  1.2945
  364MOL0     H49137   2.253   8.969   4.541 -0.6439 -1.1266  0.7582
  364MOL0     H49138   2.656   8.894   4.404 -1.1448 -0.5806 -1.3065
  364MOL0     H49139   2.206   8.404   4.219 -0.8333 -1.7315 -1.1547
  364MOL0     H49140   2.381   8.278   4.136 -0.1657 -0.0452 -0.3923
  365MOL0     O49141  11.300   1.014   3.770  0.5068 -0.0756 -0.2957
  365MOL0     C49142  11.292   1.121   3.709  0.1818 -0.6885 -0.1368
  365MOL0     O49143  11.182   1.173   3.645  0.6287 -0.4099 -1.0107
  365MOL0     C49144  11.071   1.104   3.682  0.7959  0.2950  0.7454
  365MOL0     C49145  11.010   1.127   3.802 -0.0413  0.1564  0.1164
  365MOL0     C49146  10.875   1.088   3.827  0.0419  1.0587  0.0847
  365MOL0     C49147  10.811   0.995   3.733  0.3456 -0.4843 -0.2373
  365MOL0     O49148  10.690   0.935   3.732  0.2987 -0.6814 -0.1187
  365MOL0     C49149  10.600   0.976   3.835 -0.6505 -0.4818 -0.1873
  365MOL0     C49150  10.473   0.902   3.825  0.0437 -0.1408  0.6614
  365MOL0     C49151  10.392   0.933   3.943 -0.4501 -0.1369 -0.4361
  365MOL0     C49152  10.275   0.848   3.935  0.3685 -0.1283  0.0692
  365MOL0     C49153  10.181   0.851   4.055 -0.5244 -0.6143 -0.1961
  365MOL0     C49154  10.055   0.758   4.049  0.6480 -0.3942  0.2883
  365MOL0     C49155   9.983   0.791   4.184 -0.2686 -0.0932 -0.0442
  365MOL0     C49156   9.871   0.687   4.206 -0.4818  0.2015  0.6812
  365MOL0     N49157   9.757   0.752   4.274 -0.7525 -0.1987  0.4281
  365MOL0     C49158   9.651   0.807   4.208  0.1709 -0.3176  0.3134
  365MOL0     C49159   9.568   0.851   4.294  0.8597  0.0856 -0.2119
  365MOL0     C49160   9.428   0.883   4.259  0.8981  0.0560 -0.3183
  365MOL0     C49161   9.355   0.751   4.228  0.0347  0.2171 -0.2651
  365MOL0     C49162   9.209   0.771   4.177  0.4703 -0.3639  0.1070
  365MOL0     C49163   9.153   0.652   4.102  0.1593 -1.0437 -0.6253
  365MOL0     O49164   9.103   0.546   4.188  0.0569  0.4666 -0.1535
  365MOL0     C49165   8.982   0.549   4.238  0.1227 -0.0181 -0.2456
  365MOL0     C49166   8.930   0.432   4.285 -0.3113 -0.5467  0.8997
  365MOL0     C49167   8.791   0.417   4.314 -1.0920  1.0037  0.4432
  365MOL0     C49168   8.746   0.277   4.344 -0.1360  0.3051 -0.6923
  365MOL0     C49169   8.708   0.526   4.308 -0.7430  1.2546 -0.4235
  365MOL0     C49170   8.562   0.515   4.342  0.1425  0.0943  0.2858
  365MOL0     O49171   8.502   0.638   4.378  0.9451  0.4041 -0.0852
  365MOL0     C49172   8.392   0.643   4.469  0.4740  0.9564 -0.0400
  365MOL0     C49173   8.290   0.725   4.449  1.0141 -0.7285  0.2805
  365MOL0     C49174   8.179   0.728   4.534  0.3084  0.1276 -0.2344
  365MOL0     C49175   8.166   0.639   4.637 -0.2261 -1.0873 -0.9090
  365MOL0     O49176   8.037   0.629   4.695  0.5880  0.0520 -0.2190
  365MOL0     C49177   8.012   0.542   4.810  0.0511 -0.3823  0.6012
  365MOL0     C49178   8.015   0.646   4.926 -0.0591  0.0214 -0.2110
  365MOL0     C49179   7.995   0.566   5.053 -0.5087 -0.2089 -0.5979
  365MOL0     C49180   7.860   0.493   5.053 -1.0543  0.1891  1.6396
  365MOL0     C49181   7.798   0.493   5.187 -0.8705  1.0350  0.0002
  365MOL0     C49182   7.653   0.427   5.177  0.1678 -0.5615 -0.1583
  365MOL0     C49183   7.564   0.548   5.214  0.4403 -0.0856 -0.6155
  365MOL0     C49184   7.432   0.518   5.149 -0.7534 -0.5119  0.7762
  365MOL0    Cl49185   7.368   0.353   5.167  0.0627  0.1902 -0.2791
  365MOL0     C49186   8.275   0.556   4.665 -0.1098 -0.5840 -0.0319
  365MOL0     C49187   8.387   0.557   4.579  0.0747  0.7418  1.0273
  365MOL0     O49188   8.499   0.408   4.332  0.3769  0.8440 -0.1866
  365MOL0     C49189   8.760   0.649   4.278 -0.1636  0.1967 -0.3222
  365MOL0     C49190   8.899   0.665   4.250  0.0469  0.0671  0.4605
  365MOL0     N49191   9.616   0.823   4.417  0.4736 -0.4258  0.1285
  365MOL0     N49192   9.732   0.775   4.407  0.0203 -0.2283 -0.2550
  365MOL0     C49193  10.884   0.958   3.625  1.0461 -0.5529  0.8398
  365MOL0     C49194  11.007   1.015   3.590  0.2453  0.0498 -0.2326
  365MOL0     C49195  11.414   1.213   3.698  0.2850  0.1492 -0.8812
  365MOL0     C49196  11.527   1.183   3.776 -0.6235 -0.0660 -0.4092
  365MOL0     C49197  11.646   1.261   3.775 -0.1381  0.3965 -0.7357
  365MOL0     C49198  11.653   1.374   3.702  0.1642  0.0551 -0.8553
  365MOL0     O49199  11.770   1.451   3.708  0.4333  0.7177 -0.3713
  365MOL0     C49200  11.778   1.582   3.650  0.0185  0.5147  0.6301
  365MOL0     C49201  11.811   1.585   3.493 -1.0435  0.5499  0.2470
  365MOL0     C49202  11.928   1.498   3.443 -0.8686 -0.7216  0.7424
  365MOL0     C49203  11.982   1.535   3.299 -1.0352  0.5260  0.3665
  365MOL0     C49204  12.044   1.412   3.242  0.8069 -0.5233 -0.2238
  365MOL0     C49205  12.100   1.322   3.186  0.1732 -0.5895 -0.7544
  365MOL0     C49206  11.531   1.399   3.624 -0.5253 -1.0191  0.6042
  365MOL0     C49207  11.417   1.329   3.624  0.8299  0.3505 -0.6728
  365MOL0     H49208  11.051   1.200   3.870  0.4700 -1.1305  1.2361
  365MOL0     H49209  10.829   1.122   3.918 -0.1986 -0.4196  0.5476
  365MOL0     H49210  10.637   0.945   3.934 -2.6342 -0.8324  0.4874
  365MOL0     H49211  10.583   1.082   3.817  1.7204 -0.3360 -2.0171
  365MOL0     H49212  10.432   0.947   3.734  0.3054 -1.5165 -0.1645
  365MOL0     H49213  10.493   0.795   3.812  0.4940  0.1088 -0.9455
  365MOL0     H49214  10.452   0.903   4.029  1.6297 -3.1681 -2.7411
  365MOL0     H49215  10.364   1.039   3.954  2.1476  0.6048 -0.2686
  365MOL0     H49216  10.214   0.864   3.846 -1.3282 -2.1588  0.7712
  365MOL0     H49217  10.317   0.747   3.932 -0.1040 -0.3301  0.1278
  365MOL0     H49218  10.243   0.820   4.139  1.4654 -1.1277 -1.7732
  365MOL0     H49219  10.140   0.952   4.067  1.7597  0.1989  1.3786
  365MOL0     H49220   9.996   0.795   3.965 -0.1777  2.3960  1.9669
  365MOL0     H49221  10.085   0.653   4.039 -0.9162 -0.7650 -0.8717
  365MOL0     H49222  10.044   0.791   4.274 -1.0630  2.3532  0.5474
  365MOL0     H49223   9.936   0.889   4.176  1.9625  1.0807  0.4844
  365MOL0     H49224   9.903   0.605   4.271 -3.3180 -1.5232  0.0612
  365MOL0     H49225   9.838   0.641   4.112  1.4399  1.2434 -0.5788
  365MOL0     H49226   9.616   0.801   4.106 -1.3646  1.7469  0.6323
  365MOL0     H49227   9.386   0.936   4.345  2.8893 -0.5572  1.1113
  365MOL0     H49228   9.423   0.946   4.170 -2.9196  1.8068  0.9266
  365MOL0     H49229   9.360   0.685   4.315  1.6221 -0.1010 -0.5647
  365MOL0     H49230   9.413   0.697   4.152 -0.1047  0.3798 -0.4883
  365MOL0     H49231   9.228   0.856   4.110 -0.4960 -0.2102  0.0110
  365MOL0     H49232   9.154   0.806   4.265  0.7050 -1.6525  0.7848
  365MOL0     H49233   9.233   0.624   4.034  0.3897 -0.6378 -0.5218
  365MOL0     H49234   9.075   0.695   4.039  0.3131  0.5144  0.2152
  365MOL0     H49235   8.994   0.344   4.280  0.6673  0.2191 -0.9063
  365MOL0     H49236   8.694   0.242   4.255 -0.5684 -0.2544 -0.2292
  365MOL0     H49237   8.835   0.215   4.356 -1.5906 -2.3012 -2.4116
  365MOL0     H49238   8.679   0.260   4.429  0.4006 -0.7705 -0.4728
  365MOL0     H49239   8.283   0.775   4.353 -0.9270 -1.2186  0.1181
  365MOL0     H49240   8.108   0.806   4.507  0.8393  0.2032 -1.4768
  365MOL0     H49241   7.916   0.491   4.795 -0.2411  0.6248 -1.2102
  365MOL0     H49242   8.089   0.464   4.807  3.5930  2.8658 -0.1987
  365MOL0     H49243   8.109   0.701   4.938 -0.3336  0.0037  2.9630
  365MOL0     H49244   7.935   0.721   4.923 -0.6745 -0.6121  0.2232
  365MOL0     H49245   8.013   0.629   5.141  0.6915 -2.1974  0.6380
  365MOL0     H49246   8.069   0.487   5.065  2.0062  2.3217  2.0421
  365MOL0     H49247   7.789   0.554   4.998  1.3822  2.0978  0.4114
  365MOL0     H49248   7.873   0.393   5.010 -2.7531  0.7086 -0.2189
  365MOL0     H49249   7.794   0.587   5.244  2.9914  0.1322  2.1306
  365MOL0     H49250   7.865   0.429   5.246 -0.7115 -1.5960 -2.8348
  365MOL0     H49251   7.640   0.398   5.072  0.6087  2.1063 -1.0254
  365MOL0     H49252   7.638   0.343   5.245 -4.2013  1.9149  2.3548
  365MOL0     H49253   7.612   0.638   5.174  1.9748  1.0164  3.2312
  365MOL0     H49254   7.563   0.570   5.321 -0.2161  2.8032 -1.1362
  365MOL0     H49255   7.446   0.545   5.044 -0.6788 -1.1819  0.6073
  365MOL0     H49256   7.349   0.582   5.180 -1.4854 -0.7233 -0.6239
  365MOL0     H49257   8.273   0.474   4.736  0.5191 -0.0292  0.6517
  365MOL0     H49258   8.472   0.498   4.610 -0.0025  0.2024  0.2281
  365MOL0     H49259   8.701   0.738   4.300 -1.7335  0.0811 -3.4621
  365MOL0     H49260   8.939   0.764   4.228  0.2307  0.3060  1.8223
  365MOL0     H49261  10.843   0.879   3.562  0.1226 -0.4378  1.2717
  365MOL0     H49262  11.058   0.996   3.497 -0.3664  0.2905 -0.6205
  365MOL0     H49263  11.534   1.101   3.846 -0.3382 -0.1920 -0.5812
  365MOL0     H49264  11.731   1.239   3.839  1.2444  0.7577 -2.3536
  365MOL0     H49265  11.675   1.616   3.664 -1.4518 -3.4238  0.4943
  365MOL0     H49266  11.854   1.648   3.693 -0.7297  1.0937  1.0886
  365MOL0     H49267  11.830   1.691   3.475  4.0379  0.4855  3.2965
  365MOL0     H49268  11.723   1.550   3.437  0.7104 -0.9658 -1.7087
  365MOL0     H49269  11.895   1.394   3.452  4.4468 -2.6548  1.3603
  365MOL0     H49270  12.014   1.525   3.505 -0.7696 -1.8889  1.1176
  365MOL0     H49271  12.050   1.621   3.305 -2.6668  2.0857 -1.9110
  365MOL0     H49272  11.896   1.561   3.237 -1.8883 -0.2727  1.1942
  365MOL0     H49273  12.162   1.257   3.129  0.4011 -1.2564  0.2207
  365MOL0     H49274  11.508   1.495   3.577  0.5444 -0.6926  0.7248
  365MOL0     H49275  11.334   1.357   3.559  0.5369  0.4337 -0.2622
  366MOL0     O49276   7.244   5.122   0.896  0.4768  0.0819 -0.1048
  366MOL0     C49277   7.178   5.019   0.927 -0.4286 -1.1051 -0.1644
  366MOL0     O49278   7.046   5.003   0.908  0.4059  0.4666  0.8768
  366MOL0     C49279   6.976   5.114   0.903 -0.0866 -1.2363  0.2653
  366MOL0     C49280   6.973   5.205   1.012  0.2692 -0.0545  0.1435
  366MOL0     C49281   6.887   5.320   1.003  0.0684  0.1654  0.7947
  366MOL0     C49282   6.812   5.343   0.890 -0.4699 -0.5694  0.3249
  366MOL0     O49283   6.735   5.461   0.896  0.2573  0.0150  0.2521
  366MOL0     C49284   6.678   5.505   0.774 -0.3136 -0.1607 -0.5576
  366MOL0     C49285   6.626   5.649   0.805 -0.3421 -0.8706 -0.3193
  366MOL0     C49286   6.735   5.750   0.845  0.6864  0.5576 -0.3405
  366MOL0     C49287   6.679   5.894   0.829 -0.0051  0.5804  0.3057
  366MOL0     C49288   6.785   6.002   0.859 -0.7349  0.1819  0.4327
  366MOL0     C49289   6.903   5.999   0.759 -0.7082 -0.9171 -0.1161
  366MOL0     C49290   6.981   6.129   0.775  0.2546  1.0449 -0.5854
  366MOL0     C49291   7.076   6.156   0.659 -0.0953  0.1268  0.1731
  366MOL0     N49292   7.218   6.098   0.686 -0.0461 -0.5429  0.5055
  366MOL0     C49293   7.237   5.961   0.705  0.6952  0.3780 -0.8575
  366MOL0     C49294   7.356   5.956   0.772 -0.4006  0.4597 -0.7369
  366MOL0     C49295   7.416   5.826   0.816 -0.3346 -0.2467 -0.1139
  366MOL0     C49296   7.575   5.837   0.808 -0.2867  0.5380  0.3945
  366MOL0     C49297   7.654   5.703   0.812  0.2709  0.5023  0.1343
  366MOL0     C49298   7.655   5.639   0.946  0.0947 -0.1397 -0.6626
  366MOL0     O49299   7.762   5.547   0.965 -0.1111 -0.2468  0.0078
  366MOL0     C49300   7.751   5.418   0.912  0.1440  0.3839 -0.9768
  366MOL0     C49301   7.869   5.346   0.943 -0.0849  0.2098  0.0204
  366MOL0     C49302   7.876   5.213   0.904 -0.3398  0.8931 -0.4276
  366MOL0     C49303   8.010   5.153   0.911  0.1441  0.5134  0.2502
  366MOL0     C49304   7.758   5.136   0.861 -0.7031 -0.4002  0.0279
  366MOL0     C49305   7.749   4.999   0.837  0.0658 -0.0799  0.1312
  366MOL0     O49306   7.817   4.900   0.915 -0.2351 -1.0492 -1.1718
  366MOL0     C49307   7.886   4.794   0.861 -0.1049  1.6214 -0.1286
  366MOL0     C49308   7.921   4.776   0.725 -0.2209 -0.3935  0.3548
  366MOL0     C49309   7.995   4.664   0.683  1.0307  0.1509  0.3728
  366MOL0     C49310   8.034   4.569   0.788 -0.5711  0.6498  0.2058
  366MOL0     O49311   8.105   4.460   0.743 -0.5111  0.1901  0.0564
  366MOL0     C49312   8.105   4.348   0.843  0.6131  0.1072  0.1445
  366MOL0     C49313   8.143   4.215   0.773 -0.5886 -0.7376  0.0318
  366MOL0     C49314   8.286   4.219   0.708 -0.1546 -0.0466  0.3143
  366MOL0     C49315   8.325   4.102   0.631  0.3068  0.5953 -0.2030
  366MOL0     C49316   8.466   4.096   0.592  0.3547 -0.1136 -0.4489
  366MOL0     C49317   8.492   3.964   0.516 -0.4528  0.0260  0.0132
  366MOL0     C49318   8.490   3.828   0.585  0.6012 -0.0912 -0.1383
  366MOL0     C49319   8.610   3.803   0.666  0.7586 -0.0923  0.1701
  366MOL0    Cl49320   8.747   3.725   0.579 -0.2605 -0.1836 -0.1056
  366MOL0     C49321   7.998   4.593   0.928  0.2515  0.5358  0.2817
  366MOL0     C49322   7.927   4.704   0.965  0.2461 -0.2380  0.5188
  366MOL0     O49323   7.677   4.965   0.747  0.8275 -0.4385 -0.1649
  366MOL0     C49324   7.644   5.221   0.844 -0.5739  0.0311 -0.5382
  366MOL0     C49325   7.640   5.356   0.862  0.8565 -0.5723  0.1984
  366MOL0     N49326   7.402   6.087   0.796 -0.8642 -0.1459 -0.5643
  366MOL0     N49327   7.325   6.169   0.742 -0.2483 -0.3266 -0.5190
  366MOL0     C49328   6.815   5.252   0.778  0.5909 -0.4510 -0.3319
  366MOL0     C49329   6.898   5.141   0.788 -0.7666  0.5492  0.0047
  366MOL0     C49330   7.255   4.897   0.945 -0.4368 -0.6983  0.2319
  366MOL0     C49331   7.398   4.906   0.953 -1.1568 -1.3300 -0.0837
  366MOL0     C49332   7.478   4.792   0.962 -0.0131 -0.0360 -1.2596
  366MOL0     C49333   7.415   4.669   0.964 -0.3011 -0.1872 -0.1962
  366MOL0     O49334   7.475   4.553   0.963 -0.4955  0.6289  0.6955
  366MOL0     C49335   7.618   4.547   0.986 -0.3879 -0.4583 -1.0377
  366MOL0     C49336   7.664   4.402   0.951  0.2988 -0.5015  0.0892
  366MOL0     C49337   7.684   4.389   0.803 -0.5064 -0.1728  0.3511
  366MOL0     C49338   7.720   4.243   0.773  0.4503  0.6718  0.0731
  366MOL0     C49339   7.681   4.215   0.635  0.5761  0.2126 -0.4224
  366MOL0     C49340   7.630   4.198   0.529  0.4435 -0.2715 -0.0510
  366MOL0     C49341   7.280   4.661   0.961  1.0388  0.2222  0.1226
  366MOL0     C49342   7.202   4.773   0.950  0.8064 -0.4839 -0.5127
  366MOL0     H49343   7.041   5.194   1.095 -0.3995 -0.0255  0.7083
  366MOL0     H49344   6.882   5.387   1.089 -0.0212 -0.0975  0.9940
  366MOL0     H49345   6.758   5.498   0.700  1.3388 -1.5575  1.2563
  366MOL0     H49346   6.594   5.443   0.741 -1.0445  1.1304 -1.2106
  366MOL0     H49347   6.565   5.677   0.718 -1.2701 -0.7693  0.3443
  366MOL0     H49348   6.555   5.643   0.888  0.1681 -1.7005  0.0752
  366MOL0     H49349   6.762   5.738   0.950  0.4884 -2.7234 -0.5578
  366MOL0     H49350   6.817   5.740   0.774  0.0777 -2.5329 -0.7500
  366MOL0     H49351   6.651   5.918   0.726  0.1930  1.1677  0.3882
  366MOL0     H49352   6.590   5.907   0.891 -1.4305 -2.7562 -0.7724
  366MOL0     H49353   6.741   6.102   0.853  0.4162  0.6876 -0.0690
  366MOL0     H49354   6.815   5.981   0.962 -4.3356 -2.7002  1.0882
  366MOL0     H49355   6.968   5.913   0.780 -0.0826 -1.3889 -3.3455
  366MOL0     H49356   6.859   5.991   0.659 -1.0913  1.1463 -0.1579
  366MOL0     H49357   6.915   6.216   0.779  0.8678  1.5732 -1.4017
  366MOL0     H49358   7.046   6.122   0.863  1.2917 -2.0746 -1.4801
  366MOL0     H49359   7.082   6.263   0.638  2.5877 -0.1833 -1.1820
  366MOL0     H49360   7.024   6.101   0.580 -0.3891 -2.3396  1.9464
  366MOL0     H49361   7.172   5.877   0.680 -1.4264  1.4874  0.6576
  366MOL0     H49362   7.374   5.797   0.913 -0.0982 -0.6957 -0.1472
  366MOL0     H49363   7.384   5.740   0.757  0.4046 -1.1929  0.8425
  366MOL0     H49364   7.601   5.906   0.889 -0.8788  1.7639 -0.4134
  366MOL0     H49365   7.598   5.888   0.714 -1.7307  0.7129  0.1017
  366MOL0     H49366   7.752   5.712   0.765 -0.9226 -2.1944 -3.2870
  366MOL0     H49367   7.605   5.644   0.734  1.6162  0.4740 -0.7293
  366MOL0     H49368   7.559   5.595   0.973  0.8225 -1.6376 -0.3860
  366MOL0     H49369   7.677   5.720   1.016 -0.9220 -0.6503  0.2795
  366MOL0     H49370   7.960   5.391   0.980 -1.3285  0.6871  2.6952
  366MOL0     H49371   8.019   5.054   0.864 -1.5125  1.0653 -1.3588
  366MOL0     H49372   8.094   5.210   0.870  2.4635 -1.2800  2.2159
  366MOL0     H49373   8.028   5.141   1.018  0.8326  0.0185  0.0857
  366MOL0     H49374   7.887   4.847   0.650 -2.0465 -1.5566  0.0191
  366MOL0     H49375   8.025   4.634   0.583  3.2466 -1.3162  1.3982
  366MOL0     H49376   8.165   4.365   0.933 -2.1065  0.9307  1.8874
  366MOL0     H49377   8.004   4.333   0.880  1.0945 -1.3461  0.9685
  366MOL0     H49378   8.156   4.155   0.863  2.8387 -0.6687 -0.2658
  366MOL0     H49379   8.065   4.176   0.708 -0.3366 -0.5614 -0.3783
  366MOL0     H49380   8.349   4.237   0.795 -0.5525 -0.7518  0.7646
  366MOL0     H49381   8.295   4.303   0.639 -2.6651  0.2863  0.3015
  366MOL0     H49382   8.303   4.014   0.691 -1.1688  0.6319 -0.6631
  366MOL0     H49383   8.261   4.090   0.543 -1.0757  0.8697  0.7517
  366MOL0     H49384   8.531   4.096   0.680 -0.3964  3.6107  0.2898
  366MOL0     H49385   8.484   4.174   0.517 -0.6260 -0.1853 -0.7771
  366MOL0     H49386   8.419   3.972   0.435 -0.3700  0.5801 -0.0148
  366MOL0     H49387   8.589   3.966   0.466  0.7023  0.9281  2.1259
  366MOL0     H49388   8.480   3.753   0.505 -0.7032  1.0365 -1.0839
  366MOL0     H49389   8.402   3.817   0.649 -0.4800  0.7838 -1.4170
  366MOL0     H49390   8.581   3.732   0.744 -0.9476 -0.4548 -0.7401
  366MOL0     H49391   8.649   3.895   0.711  2.6879 -1.5940  1.7820
  366MOL0     H49392   8.031   4.518   0.999  4.6148  1.3633 -0.5887
  366MOL0     H49393   7.926   4.749   1.063  3.7936 -1.6898  1.3589
  366MOL0     H49394   7.556   5.164   0.816  1.2999 -1.9969 -2.7559
  366MOL0     H49395   7.546   5.408   0.855  0.7110  0.0642  4.4974
  366MOL0     H49396   6.777   5.272   0.679  1.5245 -1.0260 -0.8210
  366MOL0     H49397   6.906   5.077   0.701  0.0077  1.6887 -0.7853
  366MOL0     H49398   7.445   5.003   0.969 -2.7863 -0.5963  0.4807
  366MOL0     H49399   7.585   4.804   0.964  0.1978 -1.6345  1.0288
  366MOL0     H49400   7.677   4.621   0.931  0.7271 -0.8235 -0.3779
  366MOL0     H49401   7.627   4.572   1.092 -3.1891  1.0050 -1.0624
  366MOL0     H49402   7.602   4.319   0.985  0.5997 -0.5871  0.4409
  366MOL0     H49403   7.756   4.391   1.010  2.4486  1.4146 -2.6120
  366MOL0     H49404   7.758   4.461   0.767  0.6736 -0.6782  1.6250
  366MOL0     H49405   7.590   4.409   0.752 -0.9396 -1.6180  0.5391
  366MOL0     H49406   7.682   4.173   0.848 -1.4776  3.1254  1.5570
  366MOL0     H49407   7.829   4.230   0.782  0.7700  1.3122 -2.2889
  366MOL0     H49408   7.577   4.194   0.437 -1.4508  0.5040  0.9530
  366MOL0     H49409   7.235   4.562   0.956  2.6115 -0.4650 -1.8643
  366MOL0     H49410   7.094   4.763   0.955  0.8489 -0.5206  1.8999
  367MOL0     O49411  11.325   9.195  10.393 -0.5036 -0.2916  0.0705
  367MOL0     C49412  11.309   9.095  10.464 -0.1661 -0.0623  0.9375
  367MOL0     O49413  11.185   9.048  10.492 -0.9739  0.1484 -0.4059
  367MOL0     C49414  11.072   9.128  10.486  0.3957  0.7176 -0.4877
  367MOL0     C49415  10.946   9.069  10.454  0.4282 -0.4159  0.3565
  367MOL0     C49416  10.834   9.159  10.454 -0.5838  0.2610  0.2023
  367MOL0     C49417  10.845   9.290  10.499 -0.2196  0.2955  0.3391
  367MOL0     O49418  10.722   9.349  10.507  0.2515 -0.8933 -0.2722
  367MOL0     C49419  10.708   9.492  10.516 -0.2042 -1.3210 -0.3619
  367MOL0     C49420  10.571   9.544  10.460  0.0080 -0.2277  0.9446
  367MOL0     C49421  10.450   9.468  10.523  0.7281 -0.1026  0.5438
  367MOL0     C49422  10.314   9.526  10.489  0.9491  0.8161 -0.3579
  367MOL0     C49423  10.195   9.431  10.470 -0.2752  0.5200 -0.4296
  367MOL0     C49424  10.073   9.511  10.425 -0.4743 -0.0620  0.2514
  367MOL0     C49425   9.953   9.426  10.425  1.0626 -0.2034 -0.8182
  367MOL0     C49426   9.877   9.419  10.562 -0.1251 -0.5355 -0.1715
  367MOL0     N49427   9.780   9.522  10.583  0.3052  0.4031 -0.2124
  367MOL0     C49428   9.666   9.517  10.500 -0.2815  0.2534 -0.2581
  367MOL0     C49429   9.607   9.635  10.532 -0.0411 -0.6522  0.9774
  367MOL0     C49430   9.475   9.689  10.485  0.3857 -0.3423 -0.0068
  367MOL0     C49431   9.369   9.584  10.517  0.1489  0.5129  0.5320
  367MOL0     C49432   9.233   9.623  10.440 -0.1052  0.3161 -0.5747
  367MOL0     C49433   9.126   9.510  10.473  0.1621 -0.4372 -0.9083
  367MOL0     O49434   9.066   9.550  10.601 -0.5675  0.4374 -0.3482
  367MOL0     C49435   8.940   9.596  10.593  0.2369 -0.1044  0.4363
  367MOL0     C49436   8.837   9.521  10.644  0.5710 -0.0279 -0.7280
  367MOL0     C49437   8.700   9.571  10.639  0.4914  0.1388 -0.0365
  367MOL0     C49438   8.590   9.481  10.699 -0.4927 -0.9295 -0.1342
  367MOL0     C49439   8.677   9.700  10.572  1.5534  0.1255 -0.3053
  367MOL0     C49440   8.536   9.762  10.567 -0.5098  0.8547 -0.0773
  367MOL0     O49441   8.528   9.900  10.527 -0.3157  0.1857 -0.5522
  367MOL0     C49442   8.410   9.959  10.508 -0.2237  0.6538  0.2811
  367MOL0     C49443   8.406  10.046  10.398 -0.4054 -0.0146  0.1492
  367MOL0     C49444   8.292  10.119  10.373 -0.2477 -0.6990 -0.4791
  367MOL0     C49445   8.174  10.100  10.457  0.0770 -0.4819 -0.7572
  367MOL0     O49446   8.054  10.165  10.435  0.5701  0.4555 -0.0751
  367MOL0     C49447   8.036  10.252  10.324  0.4169 -0.4161  0.1623
  367MOL0     C49448   7.965  10.196  10.194 -0.1264  0.4715 -0.3757
  367MOL0     C49449   7.817  10.164  10.212  0.1918  0.8899 -0.7127
  367MOL0     C49450   7.791  10.038  10.299 -0.7989  0.5907 -0.3461
  367MOL0     C49451   7.645  10.004  10.292  0.0091 -0.1620 -0.4228
  367MOL0     C49452   7.584   9.986  10.154  0.2765  0.4266  0.8493
  367MOL0     C49453   7.459   9.898  10.168 -0.1645  0.6337 -0.1285
  367MOL0     C49454   7.396   9.888  10.030  0.3825 -0.3218  0.1910
  367MOL0    Cl49455   7.302  10.030   9.987 -0.1323 -0.3041  0.0216
  367MOL0     C49456   8.184  10.023  10.572 -0.0347 -0.3812 -0.6440
  367MOL0     C49457   8.304   9.952  10.593  0.1251 -0.0644 -0.0939
  367MOL0     O49458   8.441   9.693  10.593  0.5843  0.0872 -0.2872
  367MOL0     C49459   8.782   9.773  10.508  0.9253  0.7833 -0.4748
  367MOL0     C49460   8.909   9.719  10.530 -0.5811 -1.2408  0.2284
  367MOL0     N49461   9.691   9.705  10.618  0.1970  0.2195  0.2426
  367MOL0     N49462   9.794   9.640  10.651  0.6566  0.4695 -0.2464
  367MOL0     C49463  10.967   9.338  10.550  0.0495  0.2984  0.2139
  367MOL0     C49464  11.080   9.266  10.529 -0.1764  0.7357 -0.0217
  367MOL0     C49465  11.428   9.007  10.508 -1.1817 -0.1527  0.9178
  367MOL0     C49466  11.569   9.030  10.481 -0.4702 -0.0258  0.0435
  367MOL0     C49467  11.659   8.934  10.524 -0.4343  0.2384  0.3031
  367MOL0     C49468  11.626   8.800  10.566  0.6278 -0.1488  0.0765
  367MOL0     O49469  11.717   8.705  10.602  0.6265 -0.2959  0.1564
  367MOL0     C49470  11.853   8.706  10.549 -0.4593 -0.4414  0.3018
  367MOL0     C49471  11.964   8.801  10.618  0.3858  0.7461  0.4042
  367MOL0     C49472  12.072   8.722  10.685  0.0886 -0.3849  0.2196
  367MOL0     C49473  12.031   8.674  10.823 -0.6782 -0.2130  0.3776
  367MOL0     C49474  12.037   8.778  10.924  0.3773  0.9837 -0.8793
  367MOL0     C49475  12.021   8.868  10.992  0.1782 -0.1067 -0.2293
  367MOL0     C49476  11.488   8.783  10.598 -0.7246  0.5826 -0.0959
  367MOL0     C49477  11.389   8.885  10.570 -0.4181  0.9992  0.8722
  367MOL0     H49478  10.939   8.963  10.430 -0.1818 -0.0693 -1.0616
  367MOL0     H49479  10.740   9.115  10.422 -0.0270 -0.1686 -0.8962
  367MOL0     H49480  10.718   9.524  10.621 -2.1753  0.9655 -0.7707
  367MOL0     H49481  10.790   9.539  10.461 -1.4832 -0.5262 -1.6596
  367MOL0     H49482  10.555   9.652  10.469  1.6111 -0.0478  2.0135
  367MOL0     H49483  10.569   9.523  10.352  1.7097  0.2529  0.8006
  367MOL0     H49484  10.462   9.369  10.478 -1.6699  0.2581 -1.0673
  367MOL0     H49485  10.459   9.464  10.632  0.7337 -0.1250  0.5419
  367MOL0     H49486  10.281   9.598  10.565 -0.6609  2.2536 -2.3009
  367MOL0     H49487  10.314   9.577  10.392 -0.2192 -0.3094 -0.9768
  367MOL0     H49488  10.215   9.354  10.395 -0.1779  2.5794 -2.6286
  367MOL0     H49489  10.167   9.373  10.559  0.1790 -0.8687 -1.1627
  367MOL0     H49490  10.050   9.596  10.491 -2.0464 -1.7471  2.0008
  367MOL0     H49491  10.095   9.553  10.327 -1.9953 -0.3302 -0.2328
  367MOL0     H49492   9.878   9.462  10.354 -0.8568 -2.2578  0.0719
  367MOL0     H49493   9.969   9.324  10.390 -3.9851 -1.7966  0.6566
  367MOL0     H49494   9.945   9.413  10.647 -0.2540 -0.4220 -0.0612
  367MOL0     H49495   9.829   9.320  10.566  3.0944 -2.1906  1.5632
  367MOL0     H49496   9.651   9.439  10.426  2.6400  0.9699 -1.7714
  367MOL0     H49497   9.464   9.788  10.531  1.6061  1.1167 -2.6584
  367MOL0     H49498   9.485   9.714  10.379  1.5435  1.1228  0.4094
  367MOL0     H49499   9.350   9.571  10.624  1.1627 -3.5924  0.3769
  367MOL0     H49500   9.400   9.484  10.487  0.1140  0.6254  0.1147
  367MOL0     H49501   9.255   9.610  10.334 -2.3716 -0.7123 -0.9856
  367MOL0     H49502   9.204   9.725  10.465  0.9438  1.1433 -2.5221
  367MOL0     H49503   9.185   9.418  10.482 -0.7008 -0.8809  0.4971
  367MOL0     H49504   9.049   9.487  10.399 -0.4992 -2.7318  0.3831
  367MOL0     H49505   8.855   9.418  10.674  0.9024  0.5509  1.1853
  367MOL0     H49506   8.637   9.395  10.748  0.2954 -1.7395 -2.2118
  367MOL0     H49507   8.539   9.540  10.776  0.5841  2.0144 -1.5550
  367MOL0     H49508   8.512   9.447  10.631 -1.1243  0.4216 -0.1138
  367MOL0     H49509   8.492  10.075  10.338 -1.2920  0.6483 -0.8471
  367MOL0     H49510   8.297  10.192  10.293 -3.0013  2.4969  1.9326
  367MOL0     H49511   7.962  10.322  10.362  0.4942 -0.1138 -0.2455
  367MOL0     H49512   8.126  10.306  10.294 -1.2526  1.2702 -2.1550
  367MOL0     H49513   7.975  10.280  10.125 -1.7326  2.4535  1.6468
  367MOL0     H49514   8.004  10.099  10.162 -0.6159 -1.4303  4.0466
  367MOL0     H49515   7.770  10.157  10.113  0.6112  3.1774 -1.1345
  367MOL0     H49516   7.774  10.252  10.261 -2.2433 -0.2757 -0.6237
  367MOL0     H49517   7.844   9.950  10.260  0.1819  0.7380  0.5951
  367MOL0     H49518   7.821  10.067  10.400 -3.4060 -1.7160  1.2239
  367MOL0     H49519   7.599  10.089  10.342 -1.3673 -0.7758 -0.6120
  367MOL0     H49520   7.642   9.910  10.348  0.3627 -1.7052 -2.8228
  367MOL0     H49521   7.564  10.085  10.114  3.4713  0.6269 -0.6286
  367MOL0     H49522   7.649   9.942  10.078 -0.2854 -0.6174  0.9511
  367MOL0     H49523   7.394   9.933  10.250 -1.2098 -0.9641 -0.2434
  367MOL0     H49524   7.494   9.798  10.192  0.3517  1.2647  1.9259
  367MOL0     H49525   7.322   9.808  10.039  0.8134 -0.7796 -0.2345
  367MOL0     H49526   7.464   9.858   9.950 -1.4850 -1.0064 -1.2170
  367MOL0     H49527   8.098  10.000  10.634  0.8921 -3.8269 -0.4321
  367MOL0     H49528   8.314   9.887  10.679  1.2047  1.7124  1.1930
  367MOL0     H49529   8.763   9.864  10.453 -1.3641 -0.0269 -1.1600
  367MOL0     H49530   8.989   9.774  10.481 -0.8862  0.2539  1.3184
  367MOL0     H49531  10.972   9.439  10.589 -1.1687  0.2590  0.5137
  367MOL0     H49532  11.174   9.302  10.571  0.1325  2.1578 -1.8159
  367MOL0     H49533  11.608   9.120  10.437 -0.7823  1.1375  2.0370
  367MOL0     H49534  11.763   8.964  10.516 -0.2156 -0.0221  1.8053
  367MOL0     H49535  11.879   8.600  10.537 -1.5221 -0.5494 -1.4042
  367MOL0     H49536  11.852   8.752  10.450  1.2628  0.0314  0.4784
  367MOL0     H49537  11.937   8.876  10.692  3.6996 -0.2655  2.8503
  367MOL0     H49538  12.017   8.846  10.533  0.0898  2.0716  0.8995
  367MOL0     H49539  12.169   8.772  10.679  0.3343 -0.9435 -0.5625
  367MOL0     H49540  12.086   8.637  10.617 -0.2259  0.3560 -0.7957
  367MOL0     H49541  12.114   8.613  10.860  3.6421  4.5906 -0.2688
  367MOL0     H49542  11.935   8.623  10.815 -0.4576 -0.4192 -1.3114
  367MOL0     H49543  11.994   8.957  11.046  0.5245 -0.3207  0.3164
  367MOL0     H49544  11.463   8.690  10.647 -0.9450 -0.0333 -1.3217
  367MOL0     H49545  11.287   8.861  10.596  0.0020 -0.5773  1.2460
  368MOL0     O49546   0.025   6.545   9.601  0.3782  0.7731  0.4085
  368MOL0     C49547  -0.015   6.541   9.486  0.2927 -0.2727 -0.1337
  368MOL0     O49548  -0.145   6.563   9.440  0.4193  0.2874 -0.5157
  368MOL0     C49549  -0.253   6.561   9.524  0.3865 -0.3479 -0.9265
  368MOL0     C49550  -0.362   6.644   9.488 -0.3953 -0.0297  0.2970
  368MOL0     C49551  -0.480   6.652   9.567 -1.0381 -0.0182  0.0822
  368MOL0     C49552  -0.491   6.557   9.676 -0.1858 -0.8346  0.0083
  368MOL0     O49553  -0.606   6.541   9.751  0.2024  0.3131 -0.8920
  368MOL0     C49554  -0.720   6.617   9.702 -0.8158  1.0683 -0.3119
  368MOL0     C49555  -0.854   6.558   9.753  0.1652  0.7389  0.8548
  368MOL0     C49556  -0.975   6.641   9.723  0.3423 -0.5068  0.1674
  368MOL0     C49557  -1.091   6.579   9.793 -0.1109 -0.5111 -0.2161
  368MOL0     C49558  -1.217   6.669   9.764 -0.2710  0.2255  0.5282
  368MOL0     C49559  -1.345   6.596   9.804 -0.2056  0.1189 -0.2045
  368MOL0     C49560  -1.457   6.693   9.775 -0.7118 -0.3606  0.5144
  368MOL0     C49561  -1.587   6.616   9.826 -0.1351 -0.3769 -0.2961
  368MOL0     N49562  -1.710   6.693   9.827 -0.9245 -0.8625 -0.1802
  368MOL0     C49563  -1.802   6.714   9.724 -0.2171 -0.2161 -0.2732
  368MOL0     C49564  -1.887   6.811   9.765 -0.0268 -0.1753 -0.0762
  368MOL0     C49565  -2.012   6.860   9.688 -0.0637  0.2145 -0.0838
  368MOL0     C49566  -2.098   6.947   9.773  0.5371  0.0394 -0.1128
  368MOL0     C49567  -2.159   6.862   9.891  0.3927  0.2458 -0.0128
  368MOL0     C49568  -2.310   6.837   9.854 -0.5199  0.5513 -1.0423
  368MOL0     O49569  -2.326   6.773   9.726  0.8592 -0.4639 -0.1297
  368MOL0     C49570  -2.450   6.711   9.712  0.2286 -0.9819  0.0189
  368MOL0     C49571  -2.570   6.786   9.711  0.2721 -1.1411 -0.2665
  368MOL0     C49572  -2.698   6.722   9.687 -0.0600  0.9829 -0.0706
  368MOL0     C49573  -2.815   6.821   9.691  0.5583  0.3147 -0.3490
  368MOL0     C49574  -2.693   6.589   9.652  0.1900 -0.9749  0.1669
  368MOL0     C49575  -2.817   6.518   9.598  0.0712 -1.6829  0.9520
  368MOL0     O49576  -2.816   6.384   9.596 -1.0515 -0.1751 -0.0235
  368MOL0     C49577  -2.908   6.299   9.551 -0.0265  0.3775  0.3735
  368MOL0     C49578  -2.860   6.172   9.516  0.3501 -0.1452 -0.2794
  368MOL0     C49579  -2.946   6.070   9.476  0.3604 -0.5599  0.8006
  368MOL0     C49580  -3.086   6.096   9.461 -1.1415  0.3817  0.1412
  368MOL0     O49581  -3.181   6.002   9.425  0.5068 -0.9482  0.5626
  368MOL0     C49582  -3.160   5.862   9.449  0.1980 -0.7169  0.2269
  368MOL0     C49583  -3.285   5.784   9.447  0.2271  0.2395  1.0237
  368MOL0     C49584  -3.380   5.801   9.567 -0.4491 -0.0245  1.0684
  368MOL0     C49585  -3.471   5.667   9.578 -0.5082 -1.0505 -0.4469
  368MOL0     C49586  -3.588   5.681   9.673  0.4319 -0.1766  0.1715
  368MOL0     C49587  -3.698   5.590   9.630 -0.0548 -0.1550 -0.0900
  368MOL0     C49588  -3.792   5.563   9.748  0.3520 -0.5409  0.6209
  368MOL0     C49589  -3.924   5.496   9.710  0.7559  0.1352 -0.6737
  368MOL0    Cl49590  -4.047   5.528   9.842 -0.0988  0.4906  0.0754
  368MOL0     C49591  -3.126   6.221   9.501 -0.4184 -0.8126 -0.8244
  368MOL0     C49592  -3.044   6.322   9.549  0.3338 -0.1472  0.7743
  368MOL0     O49593  -2.920   6.582   9.556 -0.6031  0.1454  0.3562
  368MOL0     C49594  -2.578   6.513   9.665  0.1922 -1.0471  1.0750
  368MOL0     C49595  -2.455   6.575   9.683 -0.3818  0.4099 -0.2968
  368MOL0     N49596  -1.841   6.866   9.886 -0.2119 -0.2786 -0.1552
  368MOL0     N49597  -1.740   6.791   9.921 -0.0653 -0.1591  0.4310
  368MOL0     C49598  -0.381   6.474   9.708  0.6621 -0.3212  0.0612
  368MOL0     C49599  -0.260   6.479   9.633  0.2533  1.0746 -0.9161
  368MOL0     C49600   0.084   6.512   9.377 -0.8808  1.5048  0.0942
  368MOL0     C49601   0.227   6.493   9.411  0.4033  0.3133  0.7750
  368MOL0     C49602   0.311   6.443   9.312 -0.1178  0.3253  0.0681
  368MOL0     C49603   0.268   6.416   9.179 -0.1472  0.8735  0.7461
  368MOL0     O49604   0.346   6.366   9.079 -0.9088 -0.2076 -0.4677
  368MOL0     C49605   0.489   6.380   9.095  0.0001  0.1261  0.2482
  368MOL0     C49606   0.568   6.366   8.963  0.5362  0.6287  0.0601
  368MOL0     C49607   0.512   6.434   8.844 -0.0606 -0.0442 -0.1673
  368MOL0     C49608   0.598   6.406   8.715  0.3058 -0.0782  0.4909
  368MOL0     C49609   0.727   6.467   8.715 -0.0046 -0.1937 -0.2518
  368MOL0     C49610   0.836   6.508   8.686 -0.7348 -0.9868  0.4319
  368MOL0     C49611   0.132   6.429   9.148  0.2065 -0.0203  0.0723
  368MOL0     C49612   0.037   6.478   9.244 -0.4134  0.7481  0.1669
  368MOL0     H49613  -0.360   6.704   9.397  0.3148  0.4081  0.5890
  368MOL0     H49614  -0.549   6.726   9.529  0.4005  1.0488 -0.5158
  368MOL0     H49615  -0.711   6.723   9.727 -1.7035  0.9845  0.4178
  368MOL0     H49616  -0.734   6.602   9.594 -2.7859 -1.3834  0.1924
  368MOL0     H49617  -0.869   6.457   9.714 -0.3529  0.5173  1.5913
  368MOL0     H49618  -0.842   6.559   9.862 -0.4441  2.3708  0.9288
  368MOL0     H49619  -0.954   6.740   9.763  1.0755 -0.8562  0.6571
  368MOL0     H49620  -0.990   6.640   9.615  2.7454 -3.0659 -0.2418
  368MOL0     H49621  -1.112   6.484   9.743  1.4519 -2.0764  1.8693
  368MOL0     H49622  -1.063   6.567   9.899  0.3657  2.2134  0.0349
  368MOL0     H49623  -1.203   6.758   9.825  3.0342 -0.1767  0.5582
  368MOL0     H49624  -1.212   6.687   9.656  4.9368  0.3117  0.4882
  368MOL0     H49625  -1.359   6.503   9.748 -2.0404 -0.6205  1.3784
  368MOL0     H49626  -1.350   6.568   9.909 -1.6281 -0.4026 -0.3959
  368MOL0     H49627  -1.439   6.785   9.831 -0.0245 -0.3256  0.2521
  368MOL0     H49628  -1.464   6.705   9.666 -0.3744 -2.9918  0.1556
  368MOL0     H49629  -1.563   6.584   9.928  2.0264  0.8275 -0.3766
  368MOL0     H49630  -1.605   6.532   9.758  0.3834 -1.0609  0.3926
  368MOL0     H49631  -1.816   6.650   9.637  0.9745  0.1122 -0.7310
  368MOL0     H49632  -1.983   6.918   9.600  1.4049 -0.8392 -0.3266
  368MOL0     H49633  -2.061   6.768   9.653 -0.0136  0.6933 -1.4706
  368MOL0     H49634  -2.176   7.001   9.718 -1.7312  0.2000  2.9668
  368MOL0     H49635  -2.054   7.034   9.821 -1.2760  0.6229  0.5972
  368MOL0     H49636  -2.147   6.927   9.978  1.8765  0.4037 -0.3046
  368MOL0     H49637  -2.104   6.770   9.912  0.8049  0.8133  1.5147
  368MOL0     H49638  -2.359   6.935   9.855  2.1392  1.9734 -0.6348
  368MOL0     H49639  -2.337   6.772   9.937  2.2304  1.0823  0.3969
  368MOL0     H49640  -2.577   6.893   9.728  0.2025 -0.7939 -2.2665
  368MOL0     H49641  -2.904   6.804   9.630 -0.1521  0.6297  0.5902
  368MOL0     H49642  -2.836   6.813   9.798  2.0043 -3.0233 -0.1671
  368MOL0     H49643  -2.789   6.923   9.662 -0.3907  0.3959 -0.9628
  368MOL0     H49644  -2.756   6.144   9.524  0.1260 -1.0403 -0.3940
  368MOL0     H49645  -2.902   5.977   9.444  2.0098  1.2534 -2.8007
  368MOL0     H49646  -3.082   5.831   9.379  1.3362 -1.8899  1.9367
  368MOL0     H49647  -3.119   5.853   9.550 -0.3972 -0.4085  0.4951
  368MOL0     H49648  -3.341   5.799   9.354 -1.6845  0.7155  2.1889
  368MOL0     H49649  -3.253   5.679   9.445 -0.1182 -0.0362 -4.1684
  368MOL0     H49650  -3.445   5.888   9.552 -0.1006 -0.2683 -2.8383
  368MOL0     H49651  -3.329   5.803   9.664 -2.0715 -3.6152  2.1740
  368MOL0     H49652  -3.509   5.643   9.478  0.0074  2.1499 -1.5370
  368MOL0     H49653  -3.416   5.580   9.617  0.0490 -0.8143 -0.6971
  368MOL0     H49654  -3.634   5.780   9.667  1.9115  0.4673 -1.4160
  368MOL0     H49655  -3.542   5.674   9.772 -0.3412  2.0639  0.7567
  368MOL0     H49656  -3.758   5.636   9.551  0.2910  0.8857  0.2279
  368MOL0     H49657  -3.667   5.496   9.585 -0.2889  1.3027 -3.6388
  368MOL0     H49658  -3.810   5.657   9.801  4.6257 -0.2990  2.0616
  368MOL0     H49659  -3.730   5.503   9.816 -0.4753 -0.5388  1.3965
  368MOL0     H49660  -3.921   5.389   9.691 -0.8910  0.0089 -0.3960
  368MOL0     H49661  -3.961   5.537   9.616  1.7720 -0.5260 -1.3727
  368MOL0     H49662  -3.233   6.236   9.485  0.3316  5.2336 -2.6268
  368MOL0     H49663  -3.086   6.416   9.583 -3.4339 -1.0827 -0.8342
  368MOL0     H49664  -2.591   6.408   9.639 -1.6896 -0.1829 -1.9907
  368MOL0     H49665  -2.362   6.521   9.698 -0.1410  1.2264  1.3296
  368MOL0     H49666  -0.385   6.409   9.794 -0.8240 -0.0690  0.1966
  368MOL0     H49667  -0.174   6.424   9.669 -1.4667 -0.9202  0.4017
  368MOL0     H49668   0.280   6.522   9.502  3.5162 -1.1910 -0.3968
  368MOL0     H49669   0.417   6.435   9.333  0.2314  2.4163 -0.7115
  368MOL0     H49670   0.504   6.482   9.132 -1.9774  0.8335 -0.7355
  368MOL0     H49671   0.539   6.309   9.161  1.4322 -0.3486 -1.2606
  368MOL0     H49672   0.569   6.258   8.943 -2.0451  1.0789 -3.4260
  368MOL0     H49673   0.663   6.418   8.978  0.9827 -0.1483 -0.0062
  368MOL0     H49674   0.497   6.541   8.860  0.1652 -0.1886  1.1755
  368MOL0     H49675   0.410   6.393   8.837 -1.2181  2.5543  0.4806
  368MOL0     H49676   0.546   6.448   8.629  0.5058 -0.7910  0.0153
  368MOL0     H49677   0.598   6.298   8.696  1.1661 -0.4031  2.1059
  368MOL0     H49678   0.935   6.540   8.664  0.4563 -3.5560  1.6239
  368MOL0     H49679   0.104   6.414   9.044  0.2958  2.7490 -0.4486
  368MOL0     H49680  -0.069   6.494   9.226 -0.8998 -0.6147  1.6605
  369MOL0     O49681   5.832   7.014   5.789  0.5822  0.0695  0.9309
  369MOL0     C49682   5.848   7.139   5.795 -0.1429  0.1050 -0.6213
  369MOL0     O49683   5.770   7.237   5.733  0.3883  0.0214  0.1676
  369MOL0     C49684   5.656   7.197   5.668  0.5419  0.1351 -0.3229
  369MOL0     C49685   5.638   7.227   5.530 -1.2788 -0.4650 -0.9171
  369MOL0     C49686   5.526   7.185   5.458 -1.3375  0.9577 -0.3369
  369MOL0     C49687   5.433   7.112   5.528  0.1920  0.1640  0.4249
  369MOL0     O49688   5.323   7.061   5.463 -0.3843  0.3092  1.1814
  369MOL0     C49689   5.314   6.919   5.468  1.2433  0.4378  0.5039
  369MOL0     C49690   5.164   6.878   5.450 -0.4974 -0.8778  0.4344
  369MOL0     C49691   5.086   6.891   5.582 -0.2377 -0.4713 -0.5294
  369MOL0     C49692   5.037   7.029   5.613  0.4668 -0.4967 -0.1301
  369MOL0     C49693   4.887   7.036   5.564  0.0335 -0.0201 -0.3163
  369MOL0     C49694   4.828   7.176   5.584  0.4354 -0.4369  0.0675
  369MOL0     C49695   4.694   7.198   5.508  0.1723  0.0407  0.3512
  369MOL0     C49696   4.582   7.123   5.572 -0.2177 -0.7934  0.4987
  369MOL0     N49697   4.545   7.167   5.708 -0.4358  0.3376  0.2018
  369MOL0     C49698   4.620   7.153   5.821 -0.6744  0.6779 -0.4841
  369MOL0     C49699   4.551   7.222   5.916 -0.1812  0.1959 -0.4206
  369MOL0     C49700   4.578   7.222   6.067  0.1893 -0.6311  0.2630
  369MOL0     C49701   4.711   7.289   6.091 -1.6977 -0.1911 -0.0283
  369MOL0     C49702   4.738   7.318   6.239 -0.1038  0.9581  0.0969
  369MOL0     C49703   4.874   7.349   6.293 -0.3966 -0.3262 -0.7638
  369MOL0     O49704   4.914   7.470   6.229 -0.0376 -0.6472  0.3434
  369MOL0     C49705   5.051   7.508   6.243  1.2145 -0.4081 -0.9369
  369MOL0     C49706   5.140   7.466   6.344 -0.1801  0.3181  0.5959
  369MOL0     C49707   5.257   7.531   6.373 -0.0514  0.6948 -0.6381
  369MOL0     C49708   5.335   7.479   6.495  0.3667  0.1644  0.8303
  369MOL0     C49709   5.306   7.635   6.285  0.0435  0.3903 -0.1070
  369MOL0     C49710   5.437   7.712   6.303 -0.3826  0.0978  0.4347
  369MOL0     O49711   5.540   7.645   6.363  0.4820 -0.3366  0.0877
  369MOL0     C49712   5.663   7.687   6.323 -0.7308 -0.1597 -0.5140
  369MOL0     C49713   5.726   7.807   6.373  0.5638  0.2981 -0.0850
  369MOL0     C49714   5.853   7.848   6.328  0.2746  0.9257  1.5432
  369MOL0     C49715   5.922   7.777   6.225  0.1730  0.3728  0.4122
  369MOL0     O49716   6.048   7.817   6.172  0.2148  0.2969 -0.0762
  369MOL0     C49717   6.107   7.934   6.232  0.0411  0.2867 -0.3314
  369MOL0     C49718   6.234   7.971   6.143 -0.4442 -0.5564 -0.2896
  369MOL0     C49719   6.357   8.008   6.225 -0.1719 -0.6340  0.0360
  369MOL0     C49720   6.486   8.042   6.144  0.6247 -0.4306 -0.2131
  369MOL0     C49721   6.582   8.118   6.235 -0.2058  0.5668 -0.2904
  369MOL0     C49722   6.693   8.180   6.156  0.3096  0.3682 -0.0628
  369MOL0     C49723   6.778   8.270   6.238  0.2437 -0.0294  0.2001
  369MOL0     C49724   6.879   8.188   6.311  0.2506 -0.3809  0.3373
  369MOL0    Cl49725   7.015   8.136   6.201  0.1457 -0.5443  0.3195
  369MOL0     C49726   5.867   7.655   6.181  0.7237  0.1828 -0.2633
  369MOL0     C49727   5.740   7.609   6.227 -0.5228  0.6628 -0.5776
  369MOL0     O49728   5.444   7.829   6.253  0.3959 -0.7118  0.0610
  369MOL0     C49729   5.227   7.668   6.184  1.0990 -0.4003  0.5616
  369MOL0     C49730   5.108   7.606   6.154  0.0172  0.4932  0.2662
  369MOL0     N49731   4.444   7.285   5.863  0.1322  0.3267  0.7708
  369MOL0     N49732   4.438   7.243   5.739  0.5775 -0.2391  0.3327
  369MOL0     C49733   5.436   7.092   5.660  0.0825 -0.3339 -0.2285
  369MOL0     C49734   5.550   7.139   5.729 -0.3762  0.8527  0.3660
  369MOL0     C49735   5.962   7.189   5.875 -0.9190  0.0433  0.8812
  369MOL0     C49736   6.035   7.099   5.960  0.2500  0.0397 -1.1893
  369MOL0     C49737   6.131   7.149   6.045 -0.2876 -0.9603  0.2095
  369MOL0     C49738   6.167   7.285   6.045 -0.2830 -0.1422 -0.5358
  369MOL0     O49739   6.268   7.325   6.131  0.1918  0.2732  0.1576
  369MOL0     C49740   6.267   7.457   6.181 -0.3958  0.6601 -0.5976
  369MOL0     C49741   6.373   7.468   6.289 -0.3610  0.2328  0.2506
  369MOL0     C49742   6.493   7.538   6.226 -0.4386  0.2797 -0.3478
  369MOL0     C49743   6.583   7.448   6.139  0.4460  1.0807  0.1395
  369MOL0     C49744   6.685   7.513   6.059  0.2385  0.0621  0.2335
  369MOL0     C49745   6.758   7.575   5.980 -0.4321  0.9394 -1.1857
  369MOL0     C49746   6.106   7.366   5.961  0.9422 -1.0714  0.1350
  369MOL0     C49747   6.003   7.319   5.875 -0.0403 -0.0001 -0.9944
  369MOL0     H49748   5.705   7.279   5.463  1.5533 -1.0571  1.2218
  369MOL0     H49749   5.517   7.185   5.350 -0.1139 -3.0333 -0.5885
  369MOL0     H49750   5.378   6.867   5.396 -0.9973 -0.8235 -0.6948
  369MOL0     H49751   5.345   6.881   5.566  3.9377 -2.1011 -1.1989
  369MOL0     H49752   5.111   6.935   5.374 -0.5634 -1.0872  0.3224
  369MOL0     H49753   5.182   6.775   5.418 -1.5877 -0.1375 -2.8896
  369MOL0     H49754   5.002   6.821   5.589 -0.8662  0.3882  1.4355
  369MOL0     H49755   5.153   6.861   5.664  0.4818  2.8772  0.2586
  369MOL0     H49756   5.048   7.073   5.712 -0.4965 -1.1850  0.3029
  369MOL0     H49757   5.096   7.106   5.561 -1.7229  0.9633 -0.6352
  369MOL0     H49758   4.870   7.012   5.459  1.7998 -1.5748 -0.2953
  369MOL0     H49759   4.827   6.961   5.616 -1.5630  0.8884 -0.7770
  369MOL0     H49760   4.810   7.196   5.690 -2.0432 -2.7360  0.1911
  369MOL0     H49761   4.897   7.254   5.552 -0.2181 -0.7561 -2.2934
  369MOL0     H49762   4.682   7.307   5.515  0.1476  0.0025  0.9950
  369MOL0     H49763   4.708   7.166   5.405  3.9888 -1.9485  1.3193
  369MOL0     H49764   4.601   7.015   5.571 -2.4239 -1.2633  1.9071
  369MOL0     H49765   4.489   7.142   5.519 -0.6146 -0.3494  1.3323
  369MOL0     H49766   4.713   7.101   5.840 -1.7195 -0.8657  0.6794
  369MOL0     H49767   4.512   7.294   6.117  3.3148  1.2656  1.9674
  369MOL0     H49768   4.576   7.123   6.114  2.4033  0.2288  2.3614
  369MOL0     H49769   4.704   7.388   6.045 -1.4020  0.0479  0.4290
  369MOL0     H49770   4.791   7.230   6.045 -0.7534 -0.5393  1.9399
  369MOL0     H49771   4.707   7.231   6.298  1.9142  1.2899  1.7429
  369MOL0     H49772   4.672   7.398   6.275 -3.9019 -1.6805 -0.3425
  369MOL0     H49773   4.952   7.279   6.261  0.8617  1.5574 -2.0732
  369MOL0     H49774   4.865   7.362   6.401  0.1898  3.0209 -1.0088
  369MOL0     H49775   5.106   7.381   6.402 -0.4771 -0.8696 -1.2391
  369MOL0     H49776   5.416   7.412   6.464 -0.9177 -0.1655 -2.1597
  369MOL0     H49777   5.386   7.562   6.545  0.5255  0.1182  0.7447
  369MOL0     H49778   5.257   7.434   6.558 -2.6327  2.3248 -1.0991
  369MOL0     H49779   5.673   7.869   6.445 -1.6495 -0.3585 -1.0563
  369MOL0     H49780   5.898   7.942   6.359  1.6872  1.1074 -0.7441
  369MOL0     H49781   6.038   8.019   6.232 -0.6840 -0.2670  1.1400
  369MOL0     H49782   6.134   7.916   6.336  0.5358 -0.0021 -0.5065
  369MOL0     H49783   6.255   7.878   6.089 -0.1677 -1.6781  1.6821
  369MOL0     H49784   6.208   8.051   6.072  0.9238  0.4748  0.3422
  369MOL0     H49785   6.380   7.930   6.298  2.2212 -0.9594 -0.9624
  369MOL0     H49786   6.324   8.093   6.284 -2.1738 -1.7540  0.6069
  369MOL0     H49787   6.525   7.951   6.097  0.3394 -0.4937 -0.3318
  369MOL0     H49788   6.453   8.117   6.071  2.3312  0.6730  0.0903
  369MOL0     H49789   6.614   8.049   6.313 -1.0754 -1.6049 -1.7401
  369MOL0     H49790   6.523   8.192   6.289 -2.9965 -1.8634  0.2725
  369MOL0     H49791   6.749   8.102   6.104 -0.5457  0.4842 -1.2068
  369MOL0     H49792   6.637   8.234   6.079 -1.9517 -0.1992  1.0924
  369MOL0     H49793   6.715   8.322   6.310 -0.5115 -1.6561  0.7651
  369MOL0     H49794   6.824   8.344   6.171  1.4461 -1.9664 -1.2198
  369MOL0     H49795   6.829   8.101   6.354 -0.1504 -0.4531 -0.2723
  369MOL0     H49796   6.920   8.258   6.384 -0.5984  3.1238 -2.3038
  369MOL0     H49797   5.917   7.594   6.107  0.5473  1.4210 -1.4467
  369MOL0     H49798   5.706   7.507   6.212 -1.2465  0.7511  0.3276
  369MOL0     H49799   5.257   7.743   6.112 -1.7012 -1.5154 -2.0042
  369MOL0     H49800   5.048   7.644   6.072 -0.8452 -2.3261 -0.5448
  369MOL0     H49801   5.353   7.034   5.699 -0.6158  0.6947 -0.1433
  369MOL0     H49802   5.552   7.117   5.835 -1.0776 -2.8057 -0.2288
  369MOL0     H49803   6.019   6.992   5.946  0.6227 -0.4281  1.4500
  369MOL0     H49804   6.172   7.070   6.107  1.8212 -0.7742 -0.8556
  369MOL0     H49805   6.282   7.521   6.094  1.7639 -0.8488 -1.4400
  369MOL0     H49806   6.176   7.487   6.232 -0.1316 -1.3096  1.1936
  369MOL0     H49807   6.402   7.365   6.314 -0.0220 -0.7454 -3.5048
  369MOL0     H49808   6.338   7.527   6.373  0.6111 -0.5658  1.2443
  369MOL0     H49809   6.567   7.571   6.300  1.2537  0.6560 -2.1335
  369MOL0     H49810   6.467   7.626   6.166  4.4691  1.6511 -0.9205
  369MOL0     H49811   6.511   7.413   6.064  1.7873 -1.0847 -0.2011
  369MOL0     H49812   6.625   7.366   6.197  3.4354  3.2696  1.2950
  369MOL0     H49813   6.824   7.624   5.911  0.0665  1.0531 -0.6354
  369MOL0     H49814   6.122   7.473   5.957 -1.8301 -0.6334 -2.2387
  369MOL0     H49815   5.947   7.394   5.820  0.1415 -0.8770 -2.4103
  370MOL0     O49816   5.757   5.134  10.461  0.0086 -0.3416 -0.7393
  370MOL0     C49817   5.784   5.017  10.459 -0.7461  0.6769  0.3445
  370MOL0     O49818   5.710   4.914  10.400  0.3725  0.1109  0.6334
  370MOL0     C49819   5.587   4.948  10.359  0.6209  0.5238 -0.6523
  370MOL0     C49820   5.489   4.982  10.457 -0.3506  0.7247 -0.3535
  370MOL0     C49821   5.359   5.013  10.415  0.4846  0.3990 -0.1405
  370MOL0     C49822   5.326   5.013  10.282 -0.0961 -0.7642  1.0185
  370MOL0     O49823   5.205   5.034  10.220  0.2755  0.2349 -0.1716
  370MOL0     C49824   5.077   5.021  10.292  0.1005 -0.8760  0.4815
  370MOL0     C49825   4.980   4.973  10.199  0.0220  0.0096  0.6178
  370MOL0     C49826   4.839   4.949  10.255 -0.5877 -1.2293 -0.3464
  370MOL0     C49827   4.767   5.076  10.260 -0.1399  0.0853  0.1826
  370MOL0     C49828   4.628   5.080  10.271  0.1043  0.8520  0.2338
  370MOL0     C49829   4.554   5.058  10.133 -0.7265  0.1145 -0.0174
  370MOL0     C49830   4.404   5.096  10.136 -1.1975  0.0144 -0.6486
  370MOL0     C49831   4.347   5.065  10.002  0.3603 -0.7874 -0.1661
  370MOL0     N49832   4.194   5.088   9.992  0.4869  0.4065 -0.7688
  370MOL0     C49833   4.122   5.166   9.903 -0.6376 -0.1310 -0.5422
  370MOL0     C49834   3.996   5.146   9.934  0.2063 -0.0527  0.9439
  370MOL0     C49835   3.882   5.226   9.882 -1.3034  0.4880  0.3556
  370MOL0     C49836   3.847   5.182   9.742  0.3802  0.3672  0.5434
  370MOL0     C49837   3.707   5.216   9.707 -0.8123  0.2880  1.1523
  370MOL0     C49838   3.694   5.364   9.682  0.8546  0.0117 -0.0834
  370MOL0     O49839   3.563   5.380   9.628  0.1794  0.4678  0.1452
  370MOL0     C49840   3.451   5.374   9.706 -0.8305 -0.6201  0.3211
  370MOL0     C49841   3.449   5.387   9.844  0.3566 -0.2214  0.1993
  370MOL0     C49842   3.323   5.398   9.907  0.1391  0.2649 -0.1372
  370MOL0     C49843   3.327   5.414  10.056  1.0422 -0.4298  0.1469
  370MOL0     C49844   3.207   5.386   9.829 -0.0786 -0.8462 -0.3131
  370MOL0     C49845   3.074   5.375   9.891  0.5743 -0.0342  0.7285
  370MOL0     O49846   3.067   5.281   9.986 -0.2259  0.0170 -0.5415
  370MOL0     C49847   2.950   5.277  10.047 -0.1402  0.0869 -0.4376
  370MOL0     C49848   2.838   5.209  10.001 -0.5906 -0.2917 -0.5547
  370MOL0     C49849   2.716   5.200  10.072 -0.0000 -0.1760  0.6358
  370MOL0     C49850   2.709   5.254  10.200 -0.3779  0.3088 -0.8281
  370MOL0     O49851   2.579   5.245  10.251  0.0692 -0.6310 -0.3891
  370MOL0     C49852   2.547   5.317  10.377  0.1891 -0.9257 -0.0753
  370MOL0     C49853   2.404   5.280  10.409 -0.2599  0.4159 -0.1200
  370MOL0     C49854   2.330   5.384  10.488 -0.3256 -0.2076  0.5117
  370MOL0     C49855   2.195   5.324  10.540 -0.5880 -0.4711 -0.1357
  370MOL0     C49856   2.129   5.419  10.635  0.7414 -0.0853  0.1298
  370MOL0     C49857   1.994   5.377  10.690  0.6644 -1.5077 -0.5092
  370MOL0     C49858   1.950   5.478  10.796 -0.4083  0.3455 -0.2458
  370MOL0     C49859   1.808   5.451  10.843  0.3437  0.7616  0.1424
  370MOL0    Cl49860   1.783   5.298  10.925 -0.0143 -0.1041  0.3210
  370MOL0     C49861   2.822   5.317  10.256  0.6332  0.6004  0.5946
  370MOL0     C49862   2.940   5.325  10.179  0.4434  0.1668 -0.0927
  370MOL0     O49863   2.980   5.440   9.836  0.3457 -0.0131 -0.5602
  370MOL0     C49864   3.213   5.386   9.691  0.4617 -0.0973  0.6902
  370MOL0     C49865   3.336   5.380   9.632  0.4114 -0.0468  0.3221
  370MOL0     N49866   3.988   5.045  10.028  0.0989 -1.0621  0.1916
  370MOL0     N49867   4.107   5.013  10.061  0.7028  0.0690  0.5169
  370MOL0     C49868   5.430   4.973  10.190  0.1664  0.0736  0.3373
  370MOL0     C49869   5.558   4.940  10.228  0.6189  0.1180  0.7409
  370MOL0     C49870   5.913   4.968  10.507 -0.4054  0.4362  0.4496
  370MOL0     C49871   5.982   5.049  10.601  0.2444  0.1781  0.4925
  370MOL0     C49872   6.118   5.021  10.630 -0.0964  0.5532 -0.4219
  370MOL0     C49873   6.184   4.908  10.569 -0.8726  0.4829 -0.9393
  370MOL0     O49874   6.321   4.865  10.596  0.4467 -0.1283 -0.4149
  370MOL0     C49875   6.406   4.952  10.668  0.1010 -0.0214  0.7973
  370MOL0     C49876   6.449   5.045  10.560  0.1949  1.2067  0.3781
  370MOL0     C49877   6.561   5.129  10.623  0.0232  0.2434  1.0087
  370MOL0     C49878   6.614   5.233  10.527 -0.4633  0.1271 -0.4181
  370MOL0     C49879   6.697   5.334  10.594  0.0193 -0.4921 -0.6104
  370MOL0     C49880   6.747   5.428  10.655 -0.2131 -0.2004 -0.4835
  370MOL0     C49881   6.112   4.831  10.475 -0.7366 -0.6728 -1.0810
  370MOL0     C49882   5.984   4.857  10.444 -0.0808  0.3745 -1.0252
  370MOL0     H49883   5.526   4.978  10.559 -1.0780  0.2428 -0.1036
  370MOL0     H49884   5.281   5.037  10.487 -0.1993  3.1816 -1.6748
  370MOL0     H49885   5.077   4.955  10.380  2.2299  1.6478  2.5278
  370MOL0     H49886   5.045   5.123  10.313  2.4295  0.4892 -2.0406
  370MOL0     H49887   4.961   5.053  10.128 -0.6132 -1.7285 -1.2597
  370MOL0     H49888   5.017   4.884  10.147 -2.9257 -1.3094  0.5961
  370MOL0     H49889   4.788   4.882  10.185 -1.3616 -1.8395  0.7678
  370MOL0     H49890   4.829   4.894  10.349 -1.0048  2.6063  2.0630
  370MOL0     H49891   4.808   5.133  10.344 -0.0345 -0.6857  0.6673
  370MOL0     H49892   4.779   5.127  10.164 -1.5797 -0.9180 -0.5555
  370MOL0     H49893   4.591   5.001  10.338  2.4274 -2.8654 -2.4903
  370MOL0     H49894   4.605   5.179  10.312  0.5744  0.4242  1.6219
  370MOL0     H49895   4.597   5.117  10.052 -0.1616 -0.5367 -0.2030
  370MOL0     H49896   4.562   4.952  10.106  0.4131  0.3887 -0.8363
  370MOL0     H49897   4.345   5.055  10.219  1.0819 -0.5991  0.7557
  370MOL0     H49898   4.389   5.203  10.149 -1.0911  0.0473 -0.7978
  370MOL0     H49899   4.357   4.956   9.996 -1.1194 -0.8582 -2.4134
  370MOL0     H49900   4.400   5.115   9.921  0.7497 -0.5581  0.2235
  370MOL0     H49901   4.158   5.239   9.831 -2.7099  0.2442 -1.2644
  370MOL0     H49902   3.802   5.196   9.951  0.3611 -0.5201  1.9679
  370MOL0     H49903   3.906   5.333   9.887  1.6776  0.0115 -1.3023
  370MOL0     H49904   3.863   5.074   9.737 -1.0638  0.1874 -1.5828
  370MOL0     H49905   3.923   5.220   9.674  0.8342 -0.3556  0.6431
  370MOL0     H49906   3.636   5.171   9.777  0.3145  1.7285  3.3066
  370MOL0     H49907   3.676   5.165   9.614  1.4037 -2.3450  1.7271
  370MOL0     H49908   3.768   5.408   9.615 -1.0099  3.5457 -0.0579
  370MOL0     H49909   3.701   5.420   9.776  2.0645 -0.7294  0.2890
  370MOL0     H49910   3.534   5.385   9.911  2.2554 -0.5931 -2.0805
  370MOL0     H49911   3.396   5.492  10.089  1.2404  0.8709 -2.9449
  370MOL0     H49912   3.226   5.445  10.085  1.0702  0.5426 -0.7191
  370MOL0     H49913   3.351   5.319  10.104 -0.1098 -1.9356 -2.0656
  370MOL0     H49914   2.859   5.160   9.906 -1.4370 -3.1523  0.6407
  370MOL0     H49915   2.632   5.143  10.034  2.2435 -1.2659 -3.2135
  370MOL0     H49916   2.616   5.304  10.461  0.8003 -0.6068 -0.5158
  370MOL0     H49917   2.550   5.425  10.359  0.1376 -0.8464  0.4019
  370MOL0     H49918   2.344   5.261  10.320 -0.9966 -1.1968  0.6816
  370MOL0     H49919   2.409   5.186  10.465 -0.7590  1.2929  1.4600
  370MOL0     H49920   2.310   5.469  10.423 -1.6575  0.6684  1.9915
  370MOL0     H49921   2.381   5.421  10.578 -1.6347  0.1822  1.1269
  370MOL0     H49922   2.131   5.315  10.452  1.4709  1.8710 -2.0538
  370MOL0     H49923   2.207   5.230  10.595 -0.2563  1.5304  3.5697
  370MOL0     H49924   2.115   5.512  10.579  2.9746 -1.7118 -3.4959
  370MOL0     H49925   2.198   5.430  10.719 -0.1118 -0.9392  0.9567
  370MOL0     H49926   1.919   5.359  10.612 -0.0387  2.1757 -0.8404
  370MOL0     H49927   2.003   5.286  10.750 -0.4315  0.9652  3.8027
  370MOL0     H49928   1.953   5.580  10.756 -1.0714  0.2688 -0.5132
  370MOL0     H49929   2.018   5.471  10.881 -0.6529  2.5306  0.1960
  370MOL0     H49930   1.745   5.448  10.753  0.4820 -0.2219  0.0638
  370MOL0     H49931   1.771   5.530  10.908 -1.6324 -0.5472  0.6988
  370MOL0     H49932   2.836   5.366  10.352  2.2216  0.5162  0.4388
  370MOL0     H49933   3.029   5.375  10.215  0.5204 -0.5479  0.7552
  370MOL0     H49934   3.134   5.375   9.618  2.9147 -1.2211 -1.9759
  370MOL0     H49935   3.354   5.380   9.525  2.5786  1.3165  0.6293
  370MOL0     H49936   5.403   4.976  10.085 -1.3231 -2.0223  0.6059
  370MOL0     H49937   5.626   4.915  10.148 -0.9346  0.2580 -0.6928
  370MOL0     H49938   5.925   5.136  10.634  0.9867  1.5999 -1.7036
  370MOL0     H49939   6.165   5.092  10.697  1.4961 -1.7053  0.9879
  370MOL0     H49940   6.362   5.008  10.751  1.7822  1.8968  0.4737
  370MOL0     H49941   6.475   4.884  10.718  0.2719  0.5559  1.3595
  370MOL0     H49942   6.366   5.105  10.522 -1.0572 -1.9882 -2.4337
  370MOL0     H49943   6.490   4.993  10.473 -0.3488  1.9332 -0.3246
  370MOL0     H49944   6.651   5.077  10.658  2.0905  1.0431 -2.6561
  370MOL0     H49945   6.503   5.179  10.701 -0.3834  1.3935 -0.0067
  370MOL0     H49946   6.528   5.285  10.484 -1.4105 -1.9057 -1.1404
  370MOL0     H49947   6.668   5.176  10.452 -1.4584 -3.9613  1.6517
  370MOL0     H49948   6.779   5.520  10.699 -2.5169  0.2012  0.4782
  370MOL0     H49949   6.174   4.756  10.427  0.0582 -2.6939  2.7171
  370MOL0     H49950   5.933   4.803  10.365  1.0677 -0.3727 -1.2775
  371MOL0     O49951   5.421  10.758   9.867 -0.1284 -0.5164 -0.0877
  371MOL0     C49952   5.458  10.727   9.755  1.2680  0.1540  0.1389
  371MOL0     O49953   5.376  10.727   9.647 -0.3530 -0.2221  0.4784
  371MOL0     C49954   5.249  10.787   9.652  0.5517 -0.2854  0.2571
  371MOL0     C49955   5.235  10.924   9.691 -0.4427  0.8164 -0.8780
  371MOL0     C49956   5.115  10.983   9.687 -0.0211 -0.3622  0.9598
  371MOL0     C49957   5.004  10.912   9.636  0.9038 -0.7944  0.3025
  371MOL0     O49958   4.874  10.964   9.646  0.0770 -0.6782 -0.5826
  371MOL0     C49959   4.862  11.110   9.653 -0.7709 -0.6711 -0.4969
  371MOL0     C49960   4.731  11.169   9.592  0.8489 -0.4584  0.4183
  371MOL0     C49961   4.613  11.128   9.690 -0.4163  0.5623  0.2485
  371MOL0     C49962   4.480  11.138   9.617  0.7347  0.2410 -0.3785
  371MOL0     C49963   4.370  11.107   9.726  0.5248 -0.8982 -0.2690
  371MOL0     C49964   4.234  11.152   9.665  0.8497  0.7877 -0.5169
  371MOL0     C49965   4.116  11.086   9.742  0.2770 -0.4533  0.0417
  371MOL0     C49966   3.985  11.094   9.678 -0.4990  0.5801 -0.6326
  371MOL0     N49967   3.958  10.995   9.573 -1.0366  0.2681  1.4273
  371MOL0     C49968   3.949  10.859   9.582 -0.5983  0.2233  0.4824
  371MOL0     C49969   3.949  10.821   9.450  0.4882  1.2907 -0.3202
  371MOL0     C49970   3.938  10.676   9.405 -0.7973 -0.6912  0.0890
  371MOL0     C49971   3.821  10.646   9.313  0.7268 -1.1344 -0.3116
  371MOL0     C49972   3.695  10.676   9.396 -0.5349 -0.1991 -0.3008
  371MOL0     C49973   3.573  10.629   9.312  0.2054  0.5257  0.2188
  371MOL0     O49974   3.453  10.666   9.380  0.8047  0.2264 -0.0609
  371MOL0     C49975   3.335  10.609   9.339  0.5030  0.3256 -0.1618
  371MOL0     C49976   3.311  10.550   9.222  0.2266  0.5390  0.1101
  371MOL0     C49977   3.182  10.492   9.186 -0.1230  0.4956 -0.6635
  371MOL0     C49978   3.174  10.442   9.041  0.1603  0.0052 -0.9475
  371MOL0     C49979   3.081  10.482   9.284 -0.8647 -0.1509  0.8204
  371MOL0     C49980   2.946  10.415   9.274  1.3380 -0.8328  0.9617
  371MOL0     O49981   2.867  10.386   9.381 -0.1511  0.3369 -1.0447
  371MOL0     C49982   2.740  10.366   9.366  1.0058  0.8716  0.9982
  371MOL0     C49983   2.648  10.466   9.330 -0.2295 -0.2303 -1.0718
  371MOL0     C49984   2.507  10.453   9.318 -1.1256 -0.7983  0.4334
  371MOL0     C49985   2.456  10.326   9.333  0.2360  0.5302 -0.2615
  371MOL0     O49986   2.323  10.315   9.310 -0.8174  0.0851  0.1912
  371MOL0     C49987   2.281  10.176   9.306  0.8303 -0.3616 -0.0933
  371MOL0     C49988   2.125  10.167   9.290  0.1933 -0.0383  0.1354
  371MOL0     C49989   2.066  10.257   9.182  0.5329 -0.5753  0.9250
  371MOL0     C49990   2.042  10.202   9.046  1.3801  0.0177  0.2189
  371MOL0     C49991   1.932  10.101   9.052  0.1603 -0.6506  0.0308
  371MOL0     C49992   1.899  10.047   8.904  0.1076 -1.9875 -0.3750
  371MOL0     C49993   1.776   9.958   8.915 -0.2833  0.7744 -0.1698
  371MOL0     C49994   1.651  10.032   8.871  1.1910  0.6860 -1.0687
  371MOL0    Cl49995   1.648  10.088   8.709  0.1355 -0.0478 -0.7894
  371MOL0     C49996   2.547  10.218   9.375 -0.4438 -0.4635  0.6986
  371MOL0     C49997   2.687  10.237   9.381  0.7716  0.1834  0.4048
  371MOL0     O49998   2.906  10.398   9.160  0.7826  0.2180 -0.1554
  371MOL0     C49999   3.114  10.536   9.401 -0.1058  0.3840  0.7729
  371MOL0     C50000   3.229  10.605   9.428 -0.7976  0.9211 -0.4090
  371MOL0     N50001   3.957  10.925   9.359  0.0200  0.2627 -0.2395
  371MOL0     N50002   3.970  11.030   9.438  0.0169 -0.0494  0.3882
  371MOL0     C50003   5.016  10.780   9.595 -0.4528  0.2839 -0.5211
  371MOL0     C50004   5.140  10.716   9.598  0.1199 -0.2253 -0.4402
  371MOL0     C50005   5.595  10.677   9.742  0.0895  0.0840 -0.3991
  371MOL0     C50006   5.674  10.656   9.862  0.1536  0.3045  1.3453
  371MOL0     C50007   5.808  10.596   9.845 -0.5406 -0.5087  1.2646
  371MOL0     C50008   5.857  10.570   9.713  0.3001 -0.0756  0.4709
  371MOL0     O50009   5.979  10.507   9.693 -0.0759 -0.1435 -0.5008
  371MOL0     C50010   6.058  10.473   9.813 -0.2939 -0.5383 -0.6312
  371MOL0     C50011   6.187  10.405   9.762  0.3023  0.2753  0.3997
  371MOL0     C50012   6.317  10.481   9.797  0.7926  0.0452 -0.0124
  371MOL0     C50013   6.448  10.410   9.772 -0.6561 -0.4781  0.7341
  371MOL0     C50014   6.452  10.281   9.845 -0.4777  0.0075  0.2530
  371MOL0     C50015   6.460  10.178   9.897 -0.8992  0.5269 -0.4540
  371MOL0     C50016   5.779  10.610   9.605  0.4116  1.2467 -0.3202
  371MOL0     C50017   5.648  10.669   9.615  0.3832 -0.6868  0.4159
  371MOL0     H50018   5.316  10.978   9.739  0.7656 -0.7343 -1.1035
  371MOL0     H50019   5.106  11.085   9.722  0.7309 -0.2185  0.7499
  371MOL0     H50020   4.856  11.136   9.759  2.2444  1.8358 -0.7866
  371MOL0     H50021   4.951  11.154   9.605  0.7942 -2.7361  0.3849
  371MOL0     H50022   4.741  11.277   9.581 -0.1655 -0.2932  1.0261
  371MOL0     H50023   4.724  11.117   9.496  1.9975 -3.7537  1.9758
  371MOL0     H50024   4.633  11.026   9.725 -1.3651 -0.1480 -1.1678
  371MOL0     H50025   4.605  11.202   9.770 -1.9856  3.3775 -2.3245
  371MOL0     H50026   4.465  11.234   9.567 -0.4277 -0.3153 -1.1454
  371MOL0     H50027   4.478  11.060   9.540 -2.4131  0.1610 -0.3544
  371MOL0     H50028   4.376  11.000   9.752  1.9431 -0.2037  2.6920
  371MOL0     H50029   4.388  11.150   9.825  2.7905 -1.9178 -0.1797
  371MOL0     H50030   4.225  11.261   9.671 -3.4855  0.5872  0.3746
  371MOL0     H50031   4.235  11.119   9.561 -0.3919 -2.8207  0.4705
  371MOL0     H50032   4.138  10.980   9.761 -1.5487 -1.3448 -2.3008
  371MOL0     H50033   4.107  11.139   9.837 -2.8194  0.0575 -0.4424
  371MOL0     H50034   3.975  11.197   9.642 -0.6953  1.1255  0.9070
  371MOL0     H50035   3.908  11.085   9.755 -0.3192 -1.0479 -0.6158
  371MOL0     H50036   3.937  10.791   9.666 -0.0013  0.9558  1.1807
  371MOL0     H50037   4.031  10.666   9.348  0.9649  0.1604  2.6530
  371MOL0     H50038   3.937  10.609   9.492 -0.0128 -0.6307  0.1439
  371MOL0     H50039   3.826  10.539   9.289  1.2149 -1.2832  0.4153
  371MOL0     H50040   3.824  10.708   9.223  1.0370  3.8793  2.7835
  371MOL0     H50041   3.685  10.784   9.413  4.5767  0.3824  0.4670
  371MOL0     H50042   3.689  10.622   9.490 -1.6665  0.3113 -0.0577
  371MOL0     H50043   3.576  10.521   9.294 -4.2614 -0.2072  2.4546
  371MOL0     H50044   3.583  10.677   9.214 -3.8951 -3.5731 -2.6000
  371MOL0     H50045   3.391  10.556   9.149 -0.4878  2.4359 -0.5920
  371MOL0     H50046   3.186  10.334   9.054  4.8727  0.2588 -1.2076
  371MOL0     H50047   3.076  10.461   8.998 -0.8720 -4.8269 -1.3475
  371MOL0     H50048   3.262  10.478   8.987  0.1910  2.4797  0.5550
  371MOL0     H50049   2.703  10.556   9.306  1.6777 -0.8932  0.4902
  371MOL0     H50050   2.454  10.543   9.288  0.7306  0.8120  1.6990
  371MOL0     H50051   2.334  10.139   9.217  1.3821  1.3128 -0.5056
  371MOL0     H50052   2.301  10.116   9.395 -4.1334 -1.5506  0.5209
  371MOL0     H50053   2.115  10.063   9.260 -1.3552  0.3427 -0.7484
  371MOL0     H50054   2.079  10.177   9.389 -2.7709  0.7175 -1.2272
  371MOL0     H50055   2.136  10.340   9.172  0.8536 -0.7361  1.7103
  371MOL0     H50056   1.970  10.293   9.220 -0.1311 -1.9482  0.6230
  371MOL0     H50057   2.010  10.275   8.971 -3.9217 -2.2042 -0.1374
  371MOL0     H50058   2.138  10.162   9.011  1.5489  1.5781 -1.2544
  371MOL0     H50059   1.848  10.152   9.099  1.7166  1.9597  0.2152
  371MOL0     H50060   1.957  10.022   9.123 -1.6614  0.8080  2.4680
  371MOL0     H50061   1.881  10.136   8.842  0.1598 -1.5018  0.2931
  371MOL0     H50062   1.986   9.993   8.865 -0.1662 -0.9646 -2.5849
  371MOL0     H50063   1.771   9.913   9.015  0.1208 -0.2800 -0.6151
  371MOL0     H50064   1.792   9.879   8.842 -1.7137  0.6734 -0.4046
  371MOL0     H50065   1.638  10.112   8.944 -0.8380 -0.6349  0.1218
  371MOL0     H50066   1.561   9.971   8.886  1.2515 -0.0522 -3.2871
  371MOL0     H50067   2.510  10.119   9.401 -0.4485 -1.0070 -1.1924
  371MOL0     H50068   2.753  10.155   9.406 -0.3615 -0.3693  1.7106
  371MOL0     H50069   3.046  10.513   9.483 -0.9759  0.0406 -0.0169
  371MOL0     H50070   3.228  10.649   9.527 -0.5747  1.0256 -0.4525
  371MOL0     H50071   4.925  10.730   9.562 -3.2756  1.6627  4.2289
  371MOL0     H50072   5.151  10.615   9.560  0.9167  0.7370 -2.9608
  371MOL0     H50073   5.644  10.681   9.963 -0.0912 -3.4239  2.3163
  371MOL0     H50074   5.864  10.573   9.934 -2.2105 -0.9196  2.2563
  371MOL0     H50075   6.092  10.565   9.862  1.1238 -1.5691  0.3983
  371MOL0     H50076   5.997  10.405   9.873 -3.7272  2.3781 -0.4342
  371MOL0     H50077   6.185  10.380   9.656  3.6875  0.4200  0.2057
  371MOL0     H50078   6.197  10.305   9.808  1.9243  1.0271  1.8158
  371MOL0     H50079   6.311  10.514   9.901  0.3648 -1.9663  0.6320
  371MOL0     H50080   6.314  10.566   9.728 -0.0355  0.6532  0.7496
  371MOL0     H50081   6.530  10.474   9.806 -0.2298 -1.4612  1.6225
  371MOL0     H50082   6.449  10.383   9.666 -0.6893  1.5631  0.1804
  371MOL0     H50083   6.484  10.089   9.951 -2.1224  0.9336  0.8456
  371MOL0     H50084   5.820  10.604   9.505 -0.6221 -0.1810 -0.6802
  371MOL0     H50085   5.594  10.694   9.524 -0.3693 -1.2569  0.6962
  372MOL0     O50086  10.686   6.863  10.271 -0.2829  0.3206 -1.5152
  372MOL0     C50087  10.708   6.804  10.168 -0.3757  0.1130  0.2506
  372MOL0     O50088  10.625   6.790  10.059 -0.4681 -0.1853 -0.6851
  372MOL0     C50089  10.499   6.838  10.064  0.7683 -0.4858  0.8120
  372MOL0     C50090  10.472   6.969  10.020 -0.4010  0.3963 -0.4852
  372MOL0     C50091  10.338   7.015  10.047  0.2934  0.0757 -0.1979
  372MOL0     C50092  10.240   6.943  10.123  0.7296  0.8185 -0.1793
  372MOL0     O50093  10.123   6.997  10.165 -0.0627  0.1891 -0.5689
  372MOL0     C50094  10.017   6.943  10.100  0.5165 -0.4459 -0.2845
  372MOL0     C50095   9.880   6.961  10.173 -0.1288  0.2760 -1.0581
  372MOL0     C50096   9.857   7.100  10.225  0.0516 -1.0290 -0.8723
  372MOL0     C50097   9.716   7.123  10.281 -0.1554 -0.1635 -0.4790
  372MOL0     C50098   9.613   7.138  10.164  1.2608  0.0558 -0.0678
  372MOL0     C50099   9.475   7.196  10.212 -0.3278  0.0521 -0.7598
  372MOL0     C50100   9.355   7.185  10.124 -0.0126 -0.2321  0.0608
  372MOL0     C50101   9.239   7.250  10.181 -0.0788  0.4660  0.1721
  372MOL0     N50102   9.129   7.275  10.081 -0.5900  0.5591 -0.2821
  372MOL0     C50103   9.149   7.281   9.942  0.8905  0.0162 -0.3082
  372MOL0     C50104   9.018   7.307   9.893 -0.1960  0.3172 -0.2719
  372MOL0     C50105   8.972   7.329   9.750  0.9456  0.3703  0.3602
  372MOL0     C50106   8.830   7.264   9.722 -0.0848  1.0939  0.5685
  372MOL0     C50107   8.780   7.311   9.587 -0.2592 -0.9100 -0.0007
  372MOL0     C50108   8.628   7.290   9.574 -0.7285  0.1614 -0.2766
  372MOL0     O50109   8.578   7.407   9.644  1.0958 -0.2032 -0.0109
  372MOL0     C50110   8.440   7.432   9.641  0.5503 -0.1076  0.7204
  372MOL0     C50111   8.347   7.382   9.540  0.7582  0.4762  0.9246
  372MOL0     C50112   8.212   7.429   9.535  1.1671 -0.6375 -0.1139
  372MOL0     C50113   8.123   7.390   9.420 -1.0031 -0.5321 -0.1197
  372MOL0     C50114   8.168   7.525   9.627  1.1088  0.4645 -0.2636
  372MOL0     C50115   8.031   7.581   9.629 -0.0138 -0.0282 -0.2076
  372MOL0     O50116   7.995   7.642   9.744 -0.4780  0.6564 -0.1446
  372MOL0     C50117   7.858   7.673   9.761 -0.0518  0.0115 -0.0676
  372MOL0     C50118   7.765   7.581   9.798 -0.4107  0.3881 -0.6734
  372MOL0     C50119   7.632   7.605   9.807  0.1953 -0.1899 -0.2608
  372MOL0     C50120   7.584   7.731   9.792  1.3137  0.6902 -0.1093
  372MOL0     O50121   7.446   7.766   9.804 -0.5336 -0.6012  0.5706
  372MOL0     C50122   7.363   7.660   9.845  0.1100  0.4669  0.8233
  372MOL0     C50123   7.222   7.714   9.858  0.5524 -0.2381  0.0379
  372MOL0     C50124   7.151   7.760   9.734  0.3466 -0.6436 -0.1591
  372MOL0     C50125   7.022   7.827   9.781  0.6051  0.0388 -0.2231
  372MOL0     C50126   6.920   7.889   9.687  0.0057 -0.8466  0.0857
  372MOL0     C50127   6.797   7.959   9.756 -0.3796  0.7190 -0.8026
  372MOL0     C50128   6.706   8.001   9.640  0.2719  0.0415  0.0526
  372MOL0     C50129   6.567   8.019   9.684  0.0169 -0.4442  0.1527
  372MOL0    Cl50130   6.546   8.148   9.801  0.6238  0.0739  0.0332
  372MOL0     C50131   7.673   7.836   9.757 -0.8327 -0.6874 -0.2934
  372MOL0     C50132   7.813   7.805   9.745  0.0365  0.6177 -0.1674
  372MOL0     O50133   7.949   7.558   9.544 -1.0777 -0.2846  0.2754
  372MOL0     C50134   8.265   7.585   9.718 -0.4903 -0.5433 -0.7906
  372MOL0     C50135   8.395   7.536   9.721 -0.4104 -0.1931 -0.0272
  372MOL0     N50136   8.935   7.318  10.002  0.0035  0.9229 -0.1128
  372MOL0     N50137   8.995   7.297  10.113  0.6600 -0.8864 -0.1418
  372MOL0     C50138  10.284   6.813  10.174  0.4875  0.0343  0.3598
  372MOL0     C50139  10.411   6.760  10.135  0.3635  0.4542 -0.6792
  372MOL0     C50140  10.843   6.737  10.160  0.3002  0.2801 -0.6278
  372MOL0     C50141  10.939   6.757  10.264 -0.5714 -0.3797 -0.3961
  372MOL0     C50142  11.064   6.692  10.244 -0.1118 -0.0040 -0.4642
  372MOL0     C50143  11.094   6.611  10.135 -0.3518 -0.2290 -0.5244
  372MOL0     O50144  11.214   6.555  10.113 -0.0300  0.0108  0.6835
  372MOL0     C50145  11.335   6.611  10.169 -0.8211 -0.4712 -0.0182
  372MOL0     C50146  11.367   6.744  10.101 -0.6619 -0.5045 -0.1247
  372MOL0     C50147  11.503   6.811  10.138 -0.6691  0.5791  0.2866
  372MOL0     C50148  11.619   6.739  10.063 -0.4961 -0.4653  0.4972
  372MOL0     C50149  11.608   6.740   9.916 -0.5260 -0.1421 -0.8090
  372MOL0     C50150  11.612   6.729   9.793 -0.2076  0.0215 -0.4362
  372MOL0     C50151  10.985   6.570  10.055  1.1155  0.5252 -0.0343
  372MOL0     C50152  10.860   6.637  10.064  0.7808  0.1447 -0.9015
  372MOL0     H50153  10.548   7.008   9.953  1.1215 -0.2632  0.7832
  372MOL0     H50154  10.311   7.113  10.010  0.5948  1.0157  1.9632
  372MOL0     H50155  10.002   7.004  10.010 -0.3332  0.1697  0.2591
  372MOL0     H50156  10.037   6.839  10.070  0.6342 -0.8912  1.2522
  372MOL0     H50157   9.809   6.930  10.097 -1.9904  1.6976  0.0283
  372MOL0     H50158   9.875   6.897  10.261  2.2962  0.5423 -0.6471
  372MOL0     H50159   9.934   7.131  10.296 -0.7302  3.5799 -1.7333
  372MOL0     H50160   9.864   7.164  10.136  1.2230  0.5136  0.2775
  372MOL0     H50161   9.687   7.044  10.351  0.0874  0.0584 -0.1191
  372MOL0     H50162   9.717   7.216  10.338 -0.2369 -1.3039  1.4871
  372MOL0     H50163   9.646   7.192  10.075 -2.1835  1.7805 -0.4609
  372MOL0     H50164   9.585   7.037  10.132 -1.5458  0.9747 -0.7882
  372MOL0     H50165   9.447   7.166  10.313  0.3398 -2.3866 -1.2538
  372MOL0     H50166   9.503   7.302  10.219  0.5855 -0.1828 -0.7737
  372MOL0     H50167   9.392   7.222  10.028 -0.7705  0.5427  0.0594
  372MOL0     H50168   9.327   7.082  10.101 -0.6661 -0.3365  1.2443
  372MOL0     H50169   9.262   7.355  10.202  0.8901  0.8436 -2.3380
  372MOL0     H50170   9.202   7.206  10.273  0.4974 -2.0680 -0.7213
  372MOL0     H50171   9.242   7.265   9.889  2.1162  0.8848  1.5033
  372MOL0     H50172   8.957   7.437   9.745  3.2008  0.7744  1.0408
  372MOL0     H50173   9.045   7.300   9.673  0.1896 -2.4133  0.5649
  372MOL0     H50174   8.757   7.298   9.797 -3.5974 -1.8675 -1.1952
  372MOL0     H50175   8.830   7.154   9.725 -3.2965  0.9001 -1.7584
  372MOL0     H50176   8.830   7.249   9.512 -1.2621 -0.4133 -1.1031
  372MOL0     H50177   8.806   7.417   9.572 -2.1572 -0.3648  0.2357
  372MOL0     H50178   8.591   7.197   9.618 -0.6422 -0.1810 -0.9126
  372MOL0     H50179   8.595   7.293   9.470 -1.8265  0.6990  0.0748
  372MOL0     H50180   8.373   7.308   9.465 -1.5241 -0.0004  0.5230
  372MOL0     H50181   8.030   7.339   9.449 -0.1990 -2.6069 -1.0553
  372MOL0     H50182   8.099   7.487   9.376 -0.7962 -0.6942 -0.5867
  372MOL0     H50183   8.187   7.347   9.343  0.3169  3.4963 -1.5061
  372MOL0     H50184   7.785   7.479   9.831  0.3322  0.4858 -0.8075
  372MOL0     H50185   7.571   7.524   9.845  0.4657  0.4288  1.6026
  372MOL0     H50186   7.359   7.589   9.762 -2.0909  0.0857  1.1667
  372MOL0     H50187   7.405   7.621   9.938  1.4587  1.4778  0.6622
  372MOL0     H50188   7.175   7.629   9.909  0.4349  0.6910  1.5437
  372MOL0     H50189   7.229   7.796   9.931  0.8930 -0.7981  0.6475
  372MOL0     H50190   7.133   7.675   9.668  1.8932  0.6202 -2.3335
  372MOL0     H50191   7.224   7.829   9.691  0.4385  1.2026  2.7308
  372MOL0     H50192   6.970   7.741   9.824 -0.1699  0.0937 -1.0127
  372MOL0     H50193   7.039   7.903   9.859 -1.0354 -1.6085  1.8543
  372MOL0     H50194   6.883   7.817   9.613 -1.0050 -0.1756 -0.0712
  372MOL0     H50195   6.972   7.965   9.628 -0.5061 -1.9388 -1.8840
  372MOL0     H50196   6.753   7.875   9.811  0.1832 -0.8147 -2.6075
  372MOL0     H50197   6.822   8.040   9.825 -0.3035  0.5149 -0.5896
  372MOL0     H50198   6.712   7.928   9.559  2.2939 -2.3448  2.2058
  372MOL0     H50199   6.747   8.097   9.605 -1.8977  1.1594  0.4157
  372MOL0     H50200   6.535   7.934   9.745 -0.0607  0.0175  0.7662
  372MOL0     H50201   6.487   8.032   9.611  1.5351  2.6024 -1.1550
  372MOL0     H50202   7.629   7.935   9.750 -1.0824 -0.7713  0.0728
  372MOL0     H50203   7.881   7.889   9.734 -3.9029  4.3284  0.9265
  372MOL0     H50204   8.237   7.670   9.780  1.0010 -0.4513 -0.2020
  372MOL0     H50205   8.469   7.577   9.789  2.4996 -2.5613 -1.5221
  372MOL0     H50206  10.205   6.755  10.222 -1.4182  2.3163  0.1703
  372MOL0     H50207  10.445   6.659  10.159 -0.6300  0.3964  0.6307
  372MOL0     H50208  10.922   6.817  10.353  0.9103 -1.2440  0.4966
  372MOL0     H50209  11.136   6.705  10.324 -0.0763  2.9401 -0.8445
  372MOL0     H50210  11.327   6.623  10.277 -4.7323 -1.4630 -0.0661
  372MOL0     H50211  11.412   6.534  10.156  1.1075  0.7055  3.3901
  372MOL0     H50212  11.283   6.805  10.134  0.4813  0.3531  1.3677
  372MOL0     H50213  11.373   6.741   9.992  0.2465  0.4866 -0.1219
  372MOL0     H50214  11.523   6.787  10.243  0.7027  0.0363 -0.0723
  372MOL0     H50215  11.505   6.919  10.120  1.3898  0.2355 -2.0573
  372MOL0     H50216  11.616   6.635  10.097 -3.9895 -0.7206 -0.2659
  372MOL0     H50217  11.715   6.788  10.084  0.1249 -0.3490 -2.2678
  372MOL0     H50218  11.591   6.708   9.690 -1.3395  1.4139 -0.5166
  372MOL0     H50219  10.990   6.484   9.989  0.6396  1.7729 -1.7969
  372MOL0     H50220  10.784   6.599   9.997  0.8765 -1.9984  0.1378
  373MOL0     O50221   2.041   3.745   0.238 -0.0003 -0.6848 -0.1539
  373MOL0     C50222   2.091   3.644   0.203 -0.3601  0.6581  0.3662
  373MOL0     O50223   2.049   3.517   0.234 -0.7071 -0.0938 -0.3378
  373MOL0     C50224   1.941   3.486   0.308  0.3241  0.2777 -0.4889
  373MOL0     C50225   1.879   3.567   0.410 -0.8635  1.3197  0.1701
  373MOL0     C50226   1.773   3.517   0.489  0.0566 -0.6740  1.2344
  373MOL0     C50227   1.735   3.385   0.473 -0.0018  0.4117  0.2682
  373MOL0     O50228   1.633   3.341   0.552  0.3330  0.2961 -0.6433
  373MOL0     C50229   1.581   3.209   0.530 -0.5817  0.5536  0.0613
  373MOL0     C50230   1.668   3.114   0.598  0.2210  0.9972 -0.4113
  373MOL0     C50231   1.635   2.968   0.560 -0.0253  0.1561  0.2115
  373MOL0     C50232   1.511   2.912   0.630 -0.1269  0.0162  0.2286
  373MOL0     C50233   1.510   2.761   0.599  0.8329  0.4226  0.0825
  373MOL0     C50234   1.368   2.711   0.604  0.2802 -0.0536  0.8931
  373MOL0     C50235   1.349   2.572   0.537 -0.2520  0.2257  0.7118
  373MOL0     C50236   1.428   2.455   0.589 -0.1158  0.4070 -0.3223
  373MOL0     N50237   1.411   2.327   0.511  0.3338  0.5005 -0.4371
  373MOL0     C50238   1.437   2.314   0.383 -0.0681  0.3871 -0.7415
  373MOL0     C50239   1.413   2.184   0.343 -0.2382  0.0949 -1.2751
  373MOL0     C50240   1.436   2.140   0.206  0.3768  0.2206  0.4255
  373MOL0     C50241   1.581   2.170   0.163  0.7164  0.4157  0.2517
  373MOL0     C50242   1.599   2.161   0.011  0.1840 -0.5373  0.5974
  373MOL0     C50243   1.751   2.183  -0.016 -0.3801 -0.6938 -0.2828
  373MOL0     O50244   1.823   2.057  -0.000 -0.0134  0.2806  0.4938
  373MOL0     C50245   1.957   2.061  -0.005  0.4932 -0.2527  1.2686
  373MOL0     C50246   2.018   1.940   0.028  0.4032 -1.0073  0.1893
  373MOL0     C50247   2.156   1.927   0.034  0.0044 -0.4515 -0.0359
  373MOL0     C50248   2.215   1.793   0.064 -0.4976 -0.2700  0.5402
  373MOL0     C50249   2.230   2.044   0.001 -1.6676 -0.5885  0.2127
  373MOL0     C50250   2.379   2.041  -0.018 -0.4855 -0.0203  0.0240
  373MOL0     O50251   2.423   2.035  -0.145  0.1315 -0.1640  0.2355
  373MOL0     C50252   2.551   2.072  -0.164  0.2954 -1.0081 -0.5414
  373MOL0     C50253   2.627   1.988  -0.241 -0.4275  0.2570 -0.6726
  373MOL0     C50254   2.765   1.999  -0.252 -0.2012 -0.3220 -0.0627
  373MOL0     C50255   2.834   2.096  -0.181  0.2250  0.7044  0.3220
  373MOL0     O50256   2.966   2.126  -0.193  0.4932  0.1898  0.5182
  373MOL0     C50257   3.057   2.025  -0.184 -0.5245  0.3612  0.2711
  373MOL0     C50258   3.148   2.023  -0.309  0.5119 -0.7891 -0.6558
  373MOL0     C50259   3.235   1.902  -0.326 -0.9515 -0.2035  0.2427
  373MOL0     C50260   3.330   1.915  -0.449  0.2196 -0.1639 -0.4622
  373MOL0     C50261   3.436   1.810  -0.449 -0.2952 -0.2866 -0.2723
  373MOL0     C50262   3.568   1.825  -0.523  0.5845  0.6573 -0.3742
  373MOL0     C50263   3.680   1.906  -0.447  0.0687  0.9895  0.9342
  373MOL0     C50264   3.791   1.954  -0.542 -0.0567  0.0267  0.3271
  373MOL0    Cl50265   3.913   2.046  -0.452  0.2498 -0.0381 -0.1951
  373MOL0     C50266   2.758   2.182  -0.107  0.0129  0.6756  0.7678
  373MOL0     C50267   2.621   2.181  -0.109 -0.2676  0.8602 -0.6293
  373MOL0     O50268   2.450   2.024   0.080 -0.1766  0.6616  0.5799
  373MOL0     C50269   2.169   2.160  -0.030 -0.0566 -0.9258 -0.1484
  373MOL0     C50270   2.034   2.172  -0.030  0.4055 -0.0140  0.5898
  373MOL0     N50271   1.370   2.120   0.459  0.1082 -0.4469  0.0253
  373MOL0     N50272   1.362   2.206   0.560 -0.1009  0.3887 -0.9649
  373MOL0     C50273   1.783   3.310   0.364 -0.1976 -0.1363 -0.0093
  373MOL0     C50274   1.884   3.361   0.283 -0.7600  0.5447 -0.0889
  373MOL0     C50275   2.221   3.645   0.139 -0.1537  0.0146 -0.3035
  373MOL0     C50276   2.299   3.525   0.146 -0.5630  0.5750  1.0218
  373MOL0     C50277   2.433   3.518   0.107 -0.1147  0.4316 -0.2251
  373MOL0     C50278   2.492   3.631   0.050 -0.2892  0.6997 -0.0607
  373MOL0     O50279   2.625   3.631   0.005  0.1656  0.4514  0.1812
  373MOL0     C50280   2.700   3.503  -0.002 -0.4856 -0.4815 -0.1354
  373MOL0     C50281   2.843   3.516  -0.060 -0.1396 -0.4461  0.9747
  373MOL0     C50282   2.825   3.527  -0.215 -0.5137 -0.0124 -0.1809
  373MOL0     C50283   2.914   3.623  -0.294 -0.2523 -0.2146  0.5994
  373MOL0     C50284   3.058   3.595  -0.286  0.0243  0.0522 -0.2321
  373MOL0     C50285   3.178   3.573  -0.276 -0.2545  0.0008 -0.2658
  373MOL0     C50286   2.414   3.748   0.028 -0.0311 -0.2904 -0.0797
  373MOL0     C50287   2.282   3.756   0.074  0.1289  0.1520  0.2836
  373MOL0     H50288   1.921   3.664   0.436  0.9686  1.0382 -1.4474
  373MOL0     H50289   1.737   3.578   0.571  1.8230 -0.2345  1.7249
  373MOL0     H50290   1.492   3.214   0.594 -0.1833 -0.1998  0.6930
  373MOL0     H50291   1.562   3.184   0.426 -3.2100 -1.4950  0.9168
  373MOL0     H50292   1.775   3.122   0.577  0.5210 -1.1366 -0.0020
  373MOL0     H50293   1.662   3.122   0.707  2.2153  1.4089 -0.2907
  373MOL0     H50294   1.627   2.966   0.451 -0.2937 -2.3191  0.2278
  373MOL0     H50295   1.720   2.904   0.584  0.5128  1.2694  1.4128
  373MOL0     H50296   1.511   2.935   0.737  0.9460 -0.6798  0.3913
  373MOL0     H50297   1.426   2.961   0.581  2.0180  1.8729 -1.8918
  373MOL0     H50298   1.550   2.757   0.497 -3.1556  1.5254 -1.7178
  373MOL0     H50299   1.569   2.701   0.668 -1.1118 -2.1252 -0.3536
  373MOL0     H50300   1.330   2.707   0.706 -2.4717 -1.8153 -0.0926
  373MOL0     H50301   1.305   2.768   0.535 -0.2194 -1.7653 -0.1424
  373MOL0     H50302   1.246   2.543   0.514  1.2285 -2.9149 -3.4733
  373MOL0     H50303   1.386   2.592   0.436 -1.2202  2.0841  0.6930
  373MOL0     H50304   1.401   2.418   0.689  1.7708 -2.3601 -0.6969
  373MOL0     H50305   1.531   2.492   0.588  0.4904 -0.9865 -3.4229
  373MOL0     H50306   1.483   2.387   0.317  2.6322 -0.4096  0.1111
  373MOL0     H50307   1.431   2.030   0.203 -0.6171  0.0697  4.0299
  373MOL0     H50308   1.371   2.195   0.137  2.6696  2.5080 -0.0664
  373MOL0     H50309   1.650   2.098   0.208 -1.1939 -0.9436  1.2140
  373MOL0     H50310   1.609   2.271   0.195  2.0551 -0.6454  2.6978
  373MOL0     H50311   1.544   2.240  -0.040  1.4325 -1.3385 -2.2173
  373MOL0     H50312   1.573   2.065  -0.036  1.0651 -0.4639 -0.0634
  373MOL0     H50313   1.779   2.267   0.048 -1.2487  0.4393 -1.3287
  373MOL0     H50314   1.774   2.213  -0.119  1.1468 -0.9608 -0.0381
  373MOL0     H50315   1.946   1.861   0.045 -1.3735  0.8073  1.5478
  373MOL0     H50316   2.150   1.731   0.127 -3.3475  3.3440  1.4993
  373MOL0     H50317   2.237   1.736  -0.027 -2.5428 -1.6445  0.8361
  373MOL0     H50318   2.304   1.803   0.126 -1.3907  2.5929  1.5066
  373MOL0     H50319   2.583   1.909  -0.302  1.9980 -1.1888 -0.7207
  373MOL0     H50320   2.817   1.932  -0.319  1.9162  1.4327 -0.2883
  373MOL0     H50321   3.115   2.048  -0.094 -4.2552  1.4335  2.6127
  373MOL0     H50322   3.010   1.929  -0.160 -0.1050  0.3356  1.0475
  373MOL0     H50323   3.077   2.011  -0.392  2.2758 -5.8888 -1.8227
  373MOL0     H50324   3.204   2.115  -0.324 -1.6058  0.4558 -1.3973
  373MOL0     H50325   3.179   1.809  -0.336  1.1260 -1.5293  0.4072
  373MOL0     H50326   3.284   1.893  -0.229  1.0729 -0.0341 -0.7022
  373MOL0     H50327   3.258   1.900  -0.530 -0.8750 -0.0784  0.4530
  373MOL0     H50328   3.378   2.012  -0.464 -1.4711  0.3672 -3.1665
  373MOL0     H50329   3.384   1.716  -0.471 -3.0775  0.5774  1.9608
  373MOL0     H50330   3.472   1.803  -0.346 -2.0184 -1.2376  0.3193
  373MOL0     H50331   3.605   1.725  -0.546  1.5907 -0.0527  3.6219
  373MOL0     H50332   3.549   1.877  -0.618 -1.4609 -1.7533 -1.4021
  373MOL0     H50333   3.729   1.843  -0.373  0.9510 -0.6277 -0.9387
  373MOL0     H50334   3.630   1.998  -0.415 -2.6878  0.2853 -0.9859
  373MOL0     H50335   3.749   2.029  -0.610 -3.9024 -0.3068  2.1125
  373MOL0     H50336   3.835   1.871  -0.598  0.7855  1.1238 -0.7003
  373MOL0     H50337   2.800   2.265  -0.050 -0.9700  2.3505 -0.8085
  373MOL0     H50338   2.575   2.256  -0.045 -0.3267 -0.6448  1.1904
  373MOL0     H50339   2.235   2.240  -0.063  0.2367 -1.3587 -0.6450
  373MOL0     H50340   1.984   2.268  -0.034  0.7598  0.2105  1.3291
  373MOL0     H50341   1.745   3.210   0.341 -0.1091 -0.5289  1.4442
  373MOL0     H50342   1.927   3.301   0.204 -0.8003  2.3615 -1.5363
  373MOL0     H50343   2.278   3.424   0.180 -0.0751 -1.1230 -3.0857
  373MOL0     H50344   2.493   3.430   0.129  0.1085  0.2801 -1.3839
  373MOL0     H50345   2.710   3.465   0.100  0.1080  3.0552  1.2793
  373MOL0     H50346   2.633   3.438  -0.059 -1.9621 -1.3237  2.3954
  373MOL0     H50347   2.908   3.435  -0.026  0.1813 -1.0582 -0.9779
  373MOL0     H50348   2.879   3.612  -0.022  1.5102 -1.2508  1.5275
  373MOL0     H50349   2.723   3.527  -0.253 -0.4604 -1.5975 -0.3837
  373MOL0     H50350   2.866   3.431  -0.248 -1.4035 -0.3128 -0.4253
  373MOL0     H50351   2.905   3.727  -0.262  2.1713  0.3096 -0.1623
  373MOL0     H50352   2.885   3.621  -0.399 -0.1321  0.0241  0.5606
  373MOL0     H50353   3.283   3.563  -0.257 -0.2736  0.3040  0.0237
  373MOL0     H50354   2.471   3.827  -0.020 -0.3803 -1.2439 -2.1840
  373MOL0     H50355   2.221   3.845   0.063 -1.7496 -0.6506  2.9581
  374MOL0     O50356   9.098   0.476   0.108  0.4515 -0.2964 -0.6267
  374MOL0     C50357   9.186   0.515   0.024  1.3381  0.2459  0.0314
  374MOL0     O50358   9.168   0.591  -0.089  0.0601 -0.8113  0.2313
  374MOL0     C50359   9.032   0.618  -0.122  0.2369  0.0853  0.6255
  374MOL0     C50360   8.905   0.550  -0.093 -0.2997 -0.8371 -0.0325
  374MOL0     C50361   8.776   0.614  -0.134 -0.1726  0.9512  0.1345
  374MOL0     C50362   8.781   0.731  -0.207  0.5799  0.8395 -0.1657
  374MOL0     O50363   8.655   0.768  -0.243 -0.1140 -0.2215  0.7039
  374MOL0     C50364   8.632   0.847  -0.365 -0.3598 -0.6578 -0.1396
  374MOL0     C50365   8.497   0.926  -0.367 -0.2581  0.4257  0.4538
  374MOL0     C50366   8.382   0.842  -0.399 -0.0187 -0.5791 -0.0977
  374MOL0     C50367   8.331   0.750  -0.282  0.0542  0.1094  0.2629
  374MOL0     C50368   8.190   0.695  -0.307 -0.2797  0.2111  0.7985
  374MOL0     C50369   8.083   0.797  -0.300  1.4370  0.3161 -0.1242
  374MOL0     C50370   7.946   0.742  -0.332 -0.1427 -0.1497  0.2621
  374MOL0     C50371   7.844   0.807  -0.254 -0.2193  0.1443  0.0229
  374MOL0     N50372   7.717   0.728  -0.248 -0.3017  0.0579  0.1603
  374MOL0     C50373   7.654   0.678  -0.132 -0.2530 -0.1428  0.0830
  374MOL0     C50374   7.560   0.592  -0.180 -0.3039  0.0470  0.0749
  374MOL0     C50375   7.493   0.499  -0.093 -0.0902 -1.1042 -0.5480
  374MOL0     C50376   7.350   0.536  -0.054  0.5608 -0.6721  0.0976
  374MOL0     C50377   7.263   0.526  -0.183  0.0230  0.4881  0.7084
  374MOL0     C50378   7.118   0.524  -0.144 -0.1966 -0.1109  0.5271
  374MOL0     O50379   7.035   0.489  -0.258  0.0209 -0.1765 -0.2816
  374MOL0     C50380   6.902   0.448  -0.235  0.1423 -0.7105  0.1634
  374MOL0     C50381   6.836   0.440  -0.113  0.7051 -0.2173 -0.5273
  374MOL0     C50382   6.698   0.401  -0.120  0.1332 -0.2758  0.4289
  374MOL0     C50383   6.641   0.354   0.012  0.3067  0.1429 -0.1746
  374MOL0     C50384   6.621   0.415  -0.244 -0.0487 -0.1015  0.1987
  374MOL0     C50385   6.474   0.391  -0.259  0.2774  0.4258  0.8687
  374MOL0     O50386   6.447   0.339  -0.388 -0.1493  0.8041 -0.5572
  374MOL0     C50387   6.317   0.354  -0.424  0.5380 -0.1442 -0.4072
  374MOL0     C50388   6.268   0.482  -0.454 -0.1718 -0.9059  0.7348
  374MOL0     C50389   6.128   0.496  -0.485 -0.5896  0.1943  0.4916
  374MOL0     C50390   6.042   0.389  -0.481  0.2977 -0.2877 -0.0735
  374MOL0     O50391   5.907   0.406  -0.528 -0.4217 -0.1094  0.2897
  374MOL0     C50392   5.841   0.536  -0.531  0.3213  0.7174  0.4577
  374MOL0     C50393   5.698   0.515  -0.563 -0.0592 -0.1257 -0.1885
  374MOL0     C50394   5.674   0.458  -0.704 -0.2774 -0.2044  0.5745
  374MOL0     C50395   5.564   0.523  -0.779 -0.2043 -0.5106 -0.6013
  374MOL0     C50396   5.548   0.467  -0.914  0.9070 -1.4362 -0.3364
  374MOL0     C50397   5.461   0.337  -0.936  0.7114  0.0130 -0.1749
  374MOL0     C50398   5.474   0.311  -1.090  0.1246  0.3532  0.9237
  374MOL0     C50399   5.368   0.199  -1.130 -1.1602 -0.1143 -1.0559
  374MOL0    Cl50400   5.431   0.045  -1.066  0.2835  0.1236  0.1679
  374MOL0     C50401   6.094   0.263  -0.443  0.3702 -0.5531 -0.0102
  374MOL0     C50402   6.229   0.249  -0.408  0.0596  0.6764  0.9620
  374MOL0     O50403   6.396   0.416  -0.173 -0.2621 -0.2174 -0.0316
  374MOL0     C50404   6.699   0.431  -0.358 -0.7777  1.2306  0.1041
  374MOL0     C50405   6.837   0.445  -0.358  0.0579  0.0125 -1.2433
  374MOL0     N50406   7.558   0.599  -0.319  0.2858 -0.3176 -0.0469
  374MOL0     N50407   7.660   0.667  -0.357 -0.0533  0.1106 -0.8369
  374MOL0     C50408   8.908   0.786  -0.250 -0.8046  1.0102  0.1930
  374MOL0     C50409   9.030   0.731  -0.198 -0.4793 -0.6465  0.5881
  374MOL0     C50410   9.326   0.476   0.043  0.7930  0.1418 -0.2683
  374MOL0     C50411   9.368   0.406   0.159  0.4400 -0.1248 -0.2524
  374MOL0     C50412   9.499   0.368   0.181  0.6053 -0.3275 -0.2405
  374MOL0     C50413   9.593   0.410   0.090  0.4034  0.1429 -1.3173
  374MOL0     O50414   9.718   0.368   0.122  0.2651  0.7248 -0.1106
  374MOL0     C50415   9.810   0.348   0.003 -0.1546  0.5007 -0.9285
  374MOL0     C50416   9.912   0.241   0.037 -0.5404 -0.3062  0.5395
  374MOL0     C50417  10.010   0.279   0.157 -0.0959  0.2052 -0.1101
  374MOL0     C50418  10.090   0.406   0.132 -1.2708 -0.5216  0.5897
  374MOL0     C50419  10.203   0.400   0.046  0.2471  0.0502 -0.0329
  374MOL0     C50420  10.270   0.389  -0.056  0.6182 -0.4414  0.1622
  374MOL0     C50421   9.558   0.487  -0.019 -0.6748  0.2108 -0.2020
  374MOL0     C50422   9.425   0.519  -0.044 -0.0707 -0.7808  0.0022
  374MOL0     H50423   8.901   0.455  -0.041  1.8345 -3.1799 -3.6416
  374MOL0     H50424   8.684   0.565  -0.106 -0.9282  1.0764 -1.9917
  374MOL0     H50425   8.704   0.929  -0.361 -0.9769 -0.1390  0.7902
  374MOL0     H50426   8.649   0.792  -0.458  3.9366  0.7724 -0.3778
  374MOL0     H50427   8.477   0.991  -0.281 -2.6588  2.6326 -1.6072
  374MOL0     H50428   8.514   0.995  -0.450 -2.6264 -0.1938 -0.6305
  374MOL0     H50429   8.302   0.910  -0.430 -0.3300 -0.9777 -0.1673
  374MOL0     H50430   8.417   0.791  -0.490 -1.1642  1.8307 -1.9978
  374MOL0     H50431   8.398   0.666  -0.265  0.6340 -0.4827 -3.8382
  374MOL0     H50432   8.332   0.798  -0.184 -1.4986 -0.9156  0.8116
  374MOL0     H50433   8.195   0.646  -0.405 -0.0816  1.1583  0.3239
  374MOL0     H50434   8.176   0.608  -0.242  0.4894 -0.6425 -0.1492
  374MOL0     H50435   8.086   0.844  -0.202 -1.9948 -2.0559  1.3053
  374MOL0     H50436   8.104   0.875  -0.373  0.7675 -1.1628 -1.9831
  374MOL0     H50437   7.923   0.752  -0.438 -1.6976 -0.0523  0.5844
  374MOL0     H50438   7.944   0.635  -0.307 -2.4807 -0.3187 -0.4548
  374MOL0     H50439   7.821   0.908  -0.290 -1.5450  0.0818  0.6258
  374MOL0     H50440   7.883   0.819  -0.153 -1.4651 -4.5920  1.3465
  374MOL0     H50441   7.692   0.704  -0.034 -1.2543 -0.2553  0.5034
  374MOL0     H50442   7.503   0.397  -0.132  0.8663 -1.1932 -0.1123
  374MOL0     H50443   7.542   0.499   0.005 -4.0816 -2.2082  1.7005
  374MOL0     H50444   7.346   0.632  -0.002 -0.6085 -0.1464 -0.9214
  374MOL0     H50445   7.324   0.467   0.026 -1.3759  1.1515  1.1341
  374MOL0     H50446   7.292   0.441  -0.245  1.3260  1.4032  0.0118
  374MOL0     H50447   7.287   0.613  -0.245 -0.9022  0.1539 -0.1482
  374MOL0     H50448   7.088   0.624  -0.110 -1.3098 -0.4160  0.4820
  374MOL0     H50449   7.100   0.461  -0.056  3.6503  1.7737  2.9872
  374MOL0     H50450   6.889   0.451  -0.019  4.1810 -1.8128 -2.0991
  374MOL0     H50451   6.720   0.312   0.075 -1.6501 -2.8316  0.4894
  374MOL0     H50452   6.582   0.439   0.049 -0.9292 -0.8077  0.0934
  374MOL0     H50453   6.577   0.270  -0.016  2.2844 -1.1484 -1.0546
  374MOL0     H50454   6.330   0.571  -0.449 -1.3126 -0.1429  2.4124
  374MOL0     H50455   6.091   0.594  -0.513 -2.2620  1.1090  5.0984
  374MOL0     H50456   5.846   0.576  -0.429 -2.3348 -0.0168  0.9340
  374MOL0     H50457   5.886   0.608  -0.599 -0.1704 -0.7548 -1.4987
  374MOL0     H50458   5.646   0.463  -0.482  1.2153  0.2765  0.9311
  374MOL0     H50459   5.650   0.613  -0.562 -1.2680 -0.6962  0.4752
  374MOL0     H50460   5.663   0.349  -0.695  0.8124 -0.3555  0.2309
  374MOL0     H50461   5.766   0.481  -0.757 -1.4516  1.1234 -0.9924
  374MOL0     H50462   5.465   0.507  -0.734 -0.3699  0.5201 -0.5631
  374MOL0     H50463   5.580   0.631  -0.781  1.1885 -0.6689  0.6386
  374MOL0     H50464   5.649   0.451  -0.951  1.1000 -1.4731  0.2032
  374MOL0     H50465   5.508   0.550  -0.973  1.2979  0.5946  2.0912
  374MOL0     H50466   5.504   0.259  -0.873  1.0338  1.2958  1.2351
  374MOL0     H50467   5.355   0.350  -0.914  0.1068  0.3021 -2.9010
  374MOL0     H50468   5.577   0.283  -1.114  0.5468  3.5141 -1.6052
  374MOL0     H50469   5.456   0.404  -1.145 -0.9189 -0.1173  0.4601
  374MOL0     H50470   5.360   0.206  -1.239  0.5503  0.8894 -1.1502
  374MOL0     H50471   5.271   0.217  -1.082 -0.0596 -0.3960  1.4506
  374MOL0     H50472   6.027   0.179  -0.428  1.6134 -1.5113  0.3015
  374MOL0     H50473   6.265   0.154  -0.368 -0.0950  0.5121  0.7183
  374MOL0     H50474   6.651   0.416  -0.454  1.9742 -0.4538 -1.1615
  374MOL0     H50475   6.885   0.452  -0.456 -1.1595  0.8907 -1.8096
  374MOL0     H50476   8.908   0.880  -0.304  1.5553 -0.2872 -2.3722
  374MOL0     H50477   9.124   0.783  -0.206 -2.0497  2.5125  1.3124
  374MOL0     H50478   9.294   0.378   0.233 -0.0572 -0.1925 -0.7639
  374MOL0     H50479   9.529   0.311   0.269  2.2432  0.7057 -0.0955
  374MOL0     H50480   9.751   0.333  -0.088 -1.0543 -2.0809 -0.0203
  374MOL0     H50481   9.854   0.448  -0.005  1.3969 -0.0387  0.3507
  374MOL0     H50482   9.981   0.216  -0.044 -0.3362  2.5615 -0.2827
  374MOL0     H50483   9.849   0.155   0.062 -1.7078  0.8732  1.8550
  374MOL0     H50484  10.072   0.201   0.202 -0.5575  0.1910  0.5088
  374MOL0     H50485   9.944   0.302   0.242 -1.8331  1.0552 -1.6199
  374MOL0     H50486  10.138   0.451   0.219  1.3666 -1.4021 -0.3189
  374MOL0     H50487  10.025   0.482   0.088  0.6500  0.1400 -1.2245
  374MOL0     H50488  10.332   0.390  -0.143 -0.4780  2.4462 -0.7041
  374MOL0     H50489   9.635   0.513  -0.090  0.6389 -1.9533  0.3264
  374MOL0     H50490   9.411   0.572  -0.137 -0.6313  1.3658  1.2618
  375MOL0     O50491   6.215  11.025   8.278  0.1238 -0.0117 -0.8044
  375MOL0     C50492   6.244  11.052   8.393  0.2022  0.0344  0.6973
  375MOL0     O50493   6.163  11.030   8.497 -0.5347  0.1744  0.4942
  375MOL0     C50494   6.039  10.955   8.474 -0.9876  0.0058 -0.1188
  375MOL0     C50495   5.936  11.011   8.397  0.5008  0.0703 -1.6398
  375MOL0     C50496   5.814  10.943   8.373 -0.3813 -1.5250 -1.4781
  375MOL0     C50497   5.786  10.824   8.451 -0.4302  0.2264  0.1320
  375MOL0     O50498   5.671  10.751   8.430  0.1850  0.3953  0.4036
  375MOL0     C50499   5.556  10.812   8.484  0.9720 -0.1303 -0.0011
  375MOL0     C50500   5.430  10.759   8.423 -0.0372 -0.0310  0.1441
  375MOL0     C50501   5.383  10.641   8.495 -0.0255  0.6198 -0.6094
  375MOL0     C50502   5.263  10.578   8.437 -0.2372 -0.2452 -0.8876
  375MOL0     C50503   5.294  10.449   8.359 -0.7461  0.4937  0.1144
  375MOL0     C50504   5.378  10.449   8.232  0.2226  0.7192 -0.4610
  375MOL0     C50505   5.381  10.316   8.156 -0.2174  0.5719  0.4998
  375MOL0     C50506   5.241  10.270   8.105 -0.4716 -0.0375  0.1593
  375MOL0     N50507   5.252  10.138   8.042 -0.2516 -0.3081  0.2410
  375MOL0     C50508   5.369  10.084   7.981 -0.0433 -0.8171  0.2453
  375MOL0     C50509   5.323   9.981   7.904 -0.0529  0.6037  0.2851
  375MOL0     C50510   5.399   9.913   7.780 -0.5404 -0.4627 -0.7104
  375MOL0     C50511   5.344   9.993   7.660 -0.2015 -0.1159 -0.9094
  375MOL0     C50512   5.377  10.142   7.665 -0.0926 -0.2655 -0.9715
  375MOL0     C50513   5.529  10.171   7.685  0.2803 -0.2015 -0.0290
  375MOL0     O50514   5.602  10.092   7.597 -0.8596  0.1059  0.0058
  375MOL0     C50515   5.733  10.119   7.561  0.5073 -0.3054  0.0709
  375MOL0     C50516   5.813  10.203   7.642  1.0638  0.1511  0.1498
  375MOL0     C50517   5.938  10.247   7.590 -0.5734  1.1127  0.4576
  375MOL0     C50518   6.021  10.337   7.674 -0.3176  0.1144  0.0934
  375MOL0     C50519   5.978  10.201   7.459 -0.3906 -0.6873 -0.1481
  375MOL0     C50520   6.112  10.226   7.403  1.2728 -0.5996 -0.3817
  375MOL0     O50521   6.118  10.303   7.294  0.3823 -0.1462 -0.3207
  375MOL0     C50522   6.246  10.322   7.254 -0.4493 -0.3795  0.6866
  375MOL0     C50523   6.333  10.409   7.320  0.1373 -0.0185  0.7756
  375MOL0     C50524   6.457  10.439   7.260  0.7493  0.2115 -0.4125
  375MOL0     C50525   6.501  10.381   7.147 -0.8709  0.5320  0.3124
  375MOL0     O50526   6.614  10.443   7.093  0.2674 -0.2789 -0.6852
  375MOL0     C50527   6.644  10.423   6.951 -0.6337 -0.3778 -0.2550
  375MOL0     C50528   6.741  10.539   6.901 -0.4046 -0.3404 -0.2302
  375MOL0     C50529   6.723  10.567   6.751  0.1590  0.5643 -0.4430
  375MOL0     C50530   6.782  10.691   6.686  0.4720  0.2845  0.1494
  375MOL0     C50531   6.745  10.711   6.539  0.7822 -0.4897  0.3156
  375MOL0     C50532   6.750  10.864   6.503  0.3076  0.1696  0.3250
  375MOL0     C50533   6.884  10.940   6.521 -0.2803 -0.3371  0.2084
  375MOL0     C50534   6.988  10.921   6.406 -0.1439 -0.8352 -0.5659
  375MOL0    Cl50535   7.149  10.994   6.453  0.0703  0.2861 -0.3860
  375MOL0     C50536   6.416  10.290   7.082 -0.1299  0.1904 -0.1463
  375MOL0     C50537   6.285  10.264   7.135  0.7441  0.4670  0.2335
  375MOL0     O50538   6.200  10.170   7.455 -0.8009  0.7383 -0.3714
  375MOL0     C50539   5.900  10.109   7.389 -0.6041  0.9503  1.2866
  375MOL0     C50540   5.782  10.071   7.443  0.0384 -0.1052  0.1741
  375MOL0     N50541   5.183   9.985   7.913 -0.6188 -0.3726 -0.3589
  375MOL0     N50542   5.144  10.078   7.987  0.4797  0.0248 -0.2245
  375MOL0     C50543   5.895  10.768   8.526  0.6635  0.0248  0.1795
  375MOL0     C50544   6.026  10.827   8.542 -0.1676 -0.7344  0.3906
  375MOL0     C50545   6.372  11.115   8.428  0.1060  0.0058 -0.3361
  375MOL0     C50546   6.464  11.131   8.327  1.0064  0.7992 -0.1864
  375MOL0     C50547   6.575  11.201   8.348 -0.8897 -0.2093  0.4780
  375MOL0     C50548   6.615  11.249   8.474  0.2831 -0.1013 -0.5192
  375MOL0     O50549   6.738  11.304   8.505 -0.1834  0.3122 -0.3085
  375MOL0     C50550   6.839  11.301   8.405 -1.0906 -0.1192  0.2130
  375MOL0     C50551   6.971  11.319   8.467 -0.6079  0.2233  0.1650
  375MOL0     C50552   7.016  11.193   8.550  0.9004 -0.8740  0.7938
  375MOL0     C50553   7.157  11.206   8.601 -0.6663 -0.2631 -0.1516
  375MOL0     C50554   7.263  11.197   8.496 -0.1951 -0.2401  0.5173
  375MOL0     C50555   7.350  11.183   8.409  0.0044 -0.6221 -1.0018
  375MOL0     C50556   6.519  11.234   8.576  0.9737  0.2921 -0.1517
  375MOL0     C50557   6.396  11.160   8.553  0.7018 -0.1332 -0.1015
  375MOL0     H50558   5.945  11.110   8.352 -2.1923  2.0599  1.6928
  375MOL0     H50559   5.743  10.970   8.296 -1.9368 -2.1011 -0.3112
  375MOL0     H50560   5.569  10.791   8.590  0.7284  1.3426  0.3452
  375MOL0     H50561   5.564  10.921   8.491  1.2315  0.0188 -1.9872
  375MOL0     H50562   5.349  10.832   8.418  0.3324  0.3426 -0.5826
  375MOL0     H50563   5.445  10.719   8.322 -2.1514 -4.8673  1.4848
  375MOL0     H50564   5.459  10.562   8.501 -0.9598 -0.2124  0.8491
  375MOL0     H50565   5.362  10.665   8.600 -0.4086 -0.1513 -0.5009
  375MOL0     H50566   5.197  10.547   8.519  2.2459 -3.5997  0.0618
  375MOL0     H50567   5.208  10.644   8.369  0.3205  0.2443 -0.8687
  375MOL0     H50568   5.352  10.383   8.423 -2.4346  1.3494  2.7017
  375MOL0     H50569   5.198  10.398   8.345  0.5328 -2.3836  1.1059
  375MOL0     H50570   5.354  10.530   8.162  2.1886  2.6748  0.9898
  375MOL0     H50571   5.482  10.470   8.256 -0.1442  2.4936 -0.2287
  375MOL0     H50572   5.448  10.325   8.069 -1.2370  2.1764 -0.1552
  375MOL0     H50573   5.419  10.240   8.225  0.8305  2.3786  1.9995
  375MOL0     H50574   5.201  10.337   8.029 -2.2474 -2.0778 -0.8232
  375MOL0     H50575   5.164  10.255   8.181 -2.2482 -0.9768 -1.7222
  375MOL0     H50576   5.471  10.119   7.978  1.6062 -5.0253  0.1684
  375MOL0     H50577   5.508   9.925   7.785 -0.6611  0.6993 -0.6107
  375MOL0     H50578   5.373   9.807   7.777  1.8047 -1.1336  0.4582
  375MOL0     H50579   5.239   9.981   7.633 -0.6862  0.4331  0.6142
  375MOL0     H50580   5.396   9.948   7.575 -1.9756 -0.4976 -1.8243
  375MOL0     H50581   5.324  10.198   7.742 -1.8161 -1.0919 -1.4989
  375MOL0     H50582   5.346  10.184   7.569 -1.2068 -2.2198 -1.5388
  375MOL0     H50583   5.559  10.164   7.790  1.6748  1.1250 -0.3037
  375MOL0     H50584   5.554  10.275   7.659  1.2534 -0.5240 -0.4385
  375MOL0     H50585   5.781  10.233   7.741  0.4882 -2.4144  0.8004
  375MOL0     H50586   6.018  10.319   7.782  0.9004 -0.4713  0.0488
  375MOL0     H50587   6.128  10.324   7.657 -0.1816  1.8979 -0.5378
  375MOL0     H50588   5.986  10.440   7.674  1.1673  0.6608 -1.0359
  375MOL0     H50589   6.312  10.462   7.413 -0.9828  0.9787 -0.0191
  375MOL0     H50590   6.514  10.518   7.309 -0.1976 -0.0541  1.1743
  375MOL0     H50591   6.700  10.331   6.931  1.3656  1.1225 -1.9670
  375MOL0     H50592   6.555  10.429   6.888 -1.4057  0.4768  0.8809
  375MOL0     H50593   6.727  10.631   6.960  1.7110  0.3676 -0.7369
  375MOL0     H50594   6.842  10.505   6.924 -0.5285  1.0252  2.7442
  375MOL0     H50595   6.614  10.574   6.742  0.1441  1.2907  0.1421
  375MOL0     H50596   6.734  10.476   6.691 -0.8313 -2.5547  3.6313
  375MOL0     H50597   6.746  10.777   6.743  2.4745  1.6038 -0.4372
  375MOL0     H50598   6.889  10.691   6.707  0.1534 -2.0563  2.2863
  375MOL0     H50599   6.643  10.676   6.519  0.5152  1.3507 -1.9960
  375MOL0     H50600   6.815  10.656   6.475 -1.1276  2.9224 -5.5040
  375MOL0     H50601   6.705  10.897   6.409  0.7402  0.8213  0.3403
  375MOL0     H50602   6.681  10.907   6.576  0.4857  0.3509  0.3871
  375MOL0     H50603   6.933  10.911   6.614  0.8924  1.9001  0.3516
  375MOL0     H50604   6.858  11.045   6.535  1.3329  0.2802 -1.1191
  375MOL0     H50605   6.960  10.968   6.312 -0.9822  0.1880  0.1702
  375MOL0     H50606   7.003  10.814   6.386  0.6401 -1.0368  0.9079
  375MOL0     H50607   6.426  10.256   6.979 -1.5939 -2.0962  0.3950
  375MOL0     H50608   6.216  10.206   7.074  0.9331 -0.7509  1.1253
  375MOL0     H50609   5.935  10.079   7.291  0.0367  1.3702  1.3742
  375MOL0     H50610   5.717   9.993   7.405 -0.1252  0.6797 -1.2318
  375MOL0     H50611   5.863  10.679   8.580  0.3966 -0.0282 -0.0624
  375MOL0     H50612   6.107  10.785   8.600  0.0874 -1.6500 -0.6040
  375MOL0     H50613   6.445  11.097   8.225 -2.7118  2.0613 -0.0932
  375MOL0     H50614   6.641  11.210   8.263 -1.9328 -3.1030 -0.7638
  375MOL0     H50615   6.836  11.200   8.362 -2.8025 -0.2300  0.5206
  375MOL0     H50616   6.825  11.372   8.323  0.5427 -1.2669 -1.1274
  375MOL0     H50617   6.977  11.411   8.526 -1.8700  0.7796 -0.5305
  375MOL0     H50618   7.045  11.320   8.386 -0.2668 -1.8511  0.3948
  375MOL0     H50619   6.994  11.102   8.494  0.3975  0.3466 -1.1038
  375MOL0     H50620   6.949  11.189   8.636 -2.2113 -0.1645 -1.3944
  375MOL0     H50621   7.172  11.120   8.667 -0.9027 -1.5175 -1.6735
  375MOL0     H50622   7.166  11.297   8.661 -1.5588 -1.7449  2.3961
  375MOL0     H50623   7.428  11.162   8.339  1.4482 -0.0026  0.3375
  375MOL0     H50624   6.541  11.256   8.680 -0.6796 -3.4825  1.1932
  375MOL0     H50625   6.331  11.143   8.639  1.7145  1.9275  1.1613
  376MOL0     O50626   2.849   7.872   5.614  0.6191  0.5072 -0.3199
  376MOL0     C50627   2.842   7.996   5.642 -0.5051  0.8284 -0.0525
  376MOL0     O50628   2.734   8.079   5.630  0.5484 -0.3051 -0.5571
  376MOL0     C50629   2.610   8.040   5.580  0.2735  0.1900 -0.5474
  376MOL0     C50630   2.494   8.103   5.631 -0.2185  0.6234  0.1109
  376MOL0     C50631   2.365   8.085   5.586 -0.8699 -1.0680  0.1529
  376MOL0     C50632   2.349   7.990   5.482 -0.2042 -0.3828 -0.7191
  376MOL0     O50633   2.221   7.986   5.424 -0.0044  0.4502 -1.2606
  376MOL0     C50634   2.185   7.873   5.349 -0.4280  0.5786  0.0831
  376MOL0     C50635   2.033   7.848   5.343  0.0017  0.2026 -0.9398
  376MOL0     C50636   1.973   7.811   5.475 -0.2351  0.1466 -0.2032
  376MOL0     C50637   1.831   7.758   5.455  0.4260  0.7982 -0.6013
  376MOL0     C50638   1.779   7.729   5.596 -0.6905 -0.2466  0.7356
  376MOL0     C50639   1.855   7.635   5.676 -0.0639  0.1103  0.9439
  376MOL0     C50640   1.878   7.499   5.608  0.1310 -0.3038 -0.1207
  376MOL0     C50641   1.737   7.423   5.624 -0.5035  0.5210  0.1762
  376MOL0     N50642   1.715   7.387   5.761  0.2102  0.3033 -0.1516
  376MOL0     C50643   1.594   7.413   5.824 -0.9413 -0.0320  1.0195
  376MOL0     C50644   1.582   7.335   5.935  0.3172 -0.1433 -0.0815
  376MOL0     C50645   1.463   7.356   6.036 -0.3387  0.8711 -0.0655
  376MOL0     C50646   1.331   7.283   5.985 -0.4205 -0.2691  1.1030
  376MOL0     C50647   1.229   7.368   5.906 -0.0895  0.4368  1.0988
  376MOL0     C50648   1.099   7.294   5.888 -0.6008  1.7324  0.2485
  376MOL0     O50649   1.113   7.213   5.769  0.7455  0.2586  0.0221
  376MOL0     C50650   0.998   7.187   5.694  0.2606 -0.0875  0.5783
  376MOL0     C50651   0.878   7.157   5.758 -0.5490  0.1161  0.1440
  376MOL0     C50652   0.758   7.158   5.683 -0.6392 -0.5257 -0.0669
  376MOL0     C50653   0.625   7.117   5.749 -0.0337  0.2668  0.2633
  376MOL0     C50654   0.775   7.162   5.549  0.2909 -0.3047 -0.2347
  376MOL0     C50655   0.658   7.168   5.454  0.0798  0.1955 -0.4479
  376MOL0     O50656   0.554   7.240   5.504  0.1487 -0.1795  0.4955
  376MOL0     C50657   0.446   7.268   5.427  0.1212  0.0113 -0.1018
  376MOL0     C50658   0.457   7.273   5.285  0.2453  0.9520  0.6805
  376MOL0     C50659   0.342   7.269   5.211 -0.1098  0.0951  1.1476
  376MOL0     C50660   0.222   7.293   5.272  0.1533  0.1936  0.1172
  376MOL0     O50661   0.116   7.314   5.186 -0.4018  0.3243  0.8104
  376MOL0     C50662  -0.002   7.378   5.247  0.8759 -0.0564 -0.6309
  376MOL0     C50663  -0.133   7.379   5.159 -0.3622 -0.5982  0.6170
  376MOL0     C50664  -0.101   7.489   5.048  1.2155 -0.3134 -0.3503
  376MOL0     C50665  -0.227   7.503   4.962  1.0264 -0.3413 -0.6234
  376MOL0     C50666  -0.212   7.619   4.853  0.2729 -0.3293  0.1840
  376MOL0     C50667  -0.340   7.634   4.770  0.0493 -0.5313  0.9149
  376MOL0     C50668  -0.461   7.699   4.849  1.5069 -0.1843 -0.4018
  376MOL0     C50669  -0.572   7.729   4.758  1.1128  0.0971 -0.0349
  376MOL0    Cl50670  -0.657   7.568   4.728 -0.0941  0.0524  0.2783
  376MOL0     C50671   0.214   7.304   5.417 -0.0383  0.2469 -0.3497
  376MOL0     C50672   0.324   7.292   5.489 -0.5713  0.5282 -0.6058
  376MOL0     O50673   0.660   7.107   5.352 -0.5696 -0.4884 -0.3684
  376MOL0     C50674   0.897   7.166   5.487 -1.3070  0.0410  0.2983
  376MOL0     C50675   1.013   7.186   5.560  1.3114 -0.1758 -0.8228
  376MOL0     N50676   1.702   7.263   5.938  0.4663  0.3416 -0.1073
  376MOL0     N50677   1.773   7.284   5.830  0.7130  0.3202 -0.0408
  376MOL0     C50678   2.459   7.908   5.448 -0.0862 -0.2498 -0.9851
  376MOL0     C50679   2.594   7.932   5.494 -0.1258 -0.4541 -0.0917
  376MOL0     C50680   2.976   8.057   5.676 -0.1637 -0.1321 -0.1740
  376MOL0     C50681   2.992   8.199   5.700 -0.1524  0.0657  0.6087
  376MOL0     C50682   3.118   8.248   5.730 -0.6594  0.1331  0.3441
  376MOL0     C50683   3.227   8.155   5.744  0.9277  0.4863 -0.5852
  376MOL0     O50684   3.335   8.216   5.795 -0.3017 -0.6785 -0.0043
  376MOL0     C50685   3.473   8.170   5.770  0.6468  0.0229 -0.1443
  376MOL0     C50686   3.570   8.280   5.830  0.8598 -0.3817  0.5755
  376MOL0     C50687   3.682   8.199   5.883 -0.5863  0.3824  0.1718
  376MOL0     C50688   3.759   8.109   5.785  1.7443 -0.0805  1.1523
  376MOL0     C50689   3.899   8.089   5.820  0.2183 -0.5584 -0.4296
  376MOL0     C50690   4.013   8.043   5.833 -0.1040  0.9049 -0.0499
  376MOL0     C50691   3.221   8.028   5.689  0.7250  0.1669  0.0764
  376MOL0     C50692   3.098   7.978   5.666 -0.1596 -0.4815 -1.0203
  376MOL0     H50693   2.499   8.178   5.709 -3.1039  0.4876  0.5325
  376MOL0     H50694   2.280   8.132   5.635 -0.2502  0.3600 -0.0994
  376MOL0     H50695   2.209   7.885   5.243  0.0219 -0.1763  0.0917
  376MOL0     H50696   2.228   7.787   5.402  1.5583  2.6820  2.1549
  376MOL0     H50697   1.990   7.944   5.311  0.6271  0.3969 -1.1996
  376MOL0     H50698   2.010   7.772   5.269 -1.0352  0.7758 -1.2363
  376MOL0     H50699   2.038   7.738   5.523 -4.0400 -1.6452  2.8100
  376MOL0     H50700   1.972   7.892   5.548  2.9524 -0.6577  0.8664
  376MOL0     H50701   1.770   7.838   5.413  1.2819  1.7672 -0.0502
  376MOL0     H50702   1.818   7.672   5.388 -1.9085  1.9560 -1.7410
  376MOL0     H50703   1.771   7.828   5.642  0.6668  1.7132 -2.8337
  376MOL0     H50704   1.676   7.692   5.584 -0.2248 -0.8595 -2.3479
  376MOL0     H50705   1.952   7.677   5.701 -0.1219  1.9448 -1.4629
  376MOL0     H50706   1.804   7.629   5.772 -1.1064  1.6646  0.5359
  376MOL0     H50707   1.899   7.492   5.501  0.3067  1.0381 -0.1890
  376MOL0     H50708   1.963   7.447   5.654  2.6574  1.1228 -2.7787
  376MOL0     H50709   1.737   7.335   5.558 -0.6762  2.1093 -2.0397
  376MOL0     H50710   1.658   7.495   5.604 -0.3729  0.6943  0.2841
  376MOL0     H50711   1.514   7.482   5.797 -2.1891 -2.0432 -0.6971
  376MOL0     H50712   1.496   7.316   6.132 -1.1062  3.6387  1.4592
  376MOL0     H50713   1.435   7.461   6.048 -2.0431  0.3775  0.6012
  376MOL0     H50714   1.278   7.248   6.074  0.4967 -3.0901  0.6361
  376MOL0     H50715   1.366   7.201   5.922  2.2030 -1.5747  3.9603
  376MOL0     H50716   1.278   7.404   5.815  0.3461 -2.6926 -0.0152
  376MOL0     H50717   1.195   7.456   5.962 -0.4915  0.0184  1.5232
  376MOL0     H50718   1.016   7.365   5.887 -3.1817 -1.0772  1.0321
  376MOL0     H50719   1.085   7.224   5.971  0.6364 -0.2602 -1.1014
  376MOL0     H50720   0.885   7.147   5.866  2.1778  0.5229  0.0645
  376MOL0     H50721   0.632   7.073   5.850 -2.2421 -0.7614  0.0279
  376MOL0     H50722   0.562   7.206   5.756  1.1743  1.1430  0.3298
  376MOL0     H50723   0.571   7.044   5.688  2.3904 -2.0747  0.6844
  376MOL0     H50724   0.548   7.276   5.226 -0.3653 -0.1142 -0.3709
  376MOL0     H50725   0.348   7.259   5.103  3.2904  2.3179  0.9489
  376MOL0     H50726  -0.028   7.321   5.337 -1.8727  1.9009 -0.0217
  376MOL0     H50727   0.016   7.481   5.280 -0.7965  0.2821 -0.6677
  376MOL0     H50728  -0.140   7.283   5.107  0.8729 -1.0444  1.2503
  376MOL0     H50729  -0.226   7.407   5.209 -1.5818  0.7634 -2.1956
  376MOL0     H50730  -0.013   7.446   5.001  1.8212 -1.4956  1.7330
  376MOL0     H50731  -0.085   7.591   5.084 -1.1263  0.1710 -0.4795
  376MOL0     H50732  -0.260   7.409   4.916  0.6616 -0.4505 -0.1541
  376MOL0     H50733  -0.312   7.529   5.027  0.8522 -1.9839 -0.1510
  376MOL0     H50734  -0.132   7.588   4.785  0.1850  1.5897 -0.8526
  376MOL0     H50735  -0.169   7.716   4.879  1.3198 -1.2130  1.9841
  376MOL0     H50736  -0.315   7.691   4.680  1.7066 -1.6979  0.5791
  376MOL0     H50737  -0.389   7.543   4.733 -3.2411  1.3997  0.1425
  376MOL0     H50738  -0.430   7.798   4.883  1.4207  0.9577 -3.3758
  376MOL0     H50739  -0.484   7.631   4.931  4.7954  1.8911  2.5254
  376MOL0     H50740  -0.534   7.779   4.669  2.3795  2.4461  1.6954
  376MOL0     H50741  -0.641   7.801   4.804  2.9379  0.3412  2.5218
  376MOL0     H50742   0.126   7.321   5.478  0.7485  0.2984  0.8030
  376MOL0     H50743   0.316   7.289   5.597 -1.2179  1.9707 -0.5862
  376MOL0     H50744   0.907   7.180   5.380  0.0851 -0.1359  0.3839
  376MOL0     H50745   1.109   7.201   5.512  0.8116  0.8242 -1.5598
  376MOL0     H50746   2.458   7.836   5.367  1.1877  0.6859 -1.8696
  376MOL0     H50747   2.672   7.872   5.451 -3.0118 -3.5689 -1.4205
  376MOL0     H50748   2.905   8.264   5.690  0.3758  0.5105 -1.6096
  376MOL0     H50749   3.125   8.351   5.764 -0.5857 -0.6557  2.9053
  376MOL0     H50750   3.495   8.071   5.810  0.5491 -0.6878 -1.7957
  376MOL0     H50751   3.491   8.159   5.663 -0.8227 -1.6638 -0.2504
  376MOL0     H50752   3.524   8.330   5.916  0.7410 -2.2816  1.6563
  376MOL0     H50753   3.605   8.344   5.748 -0.2444 -2.3677 -1.5443
  376MOL0     H50754   3.657   8.137   5.969  0.4386 -0.6261 -0.2388
  376MOL0     H50755   3.758   8.269   5.917 -1.1415  0.3984  1.4151
  376MOL0     H50756   3.754   8.150   5.683 -1.3621 -2.0033  0.3737
  376MOL0     H50757   3.713   8.010   5.781 -1.0281  1.1122 -3.0656
  376MOL0     H50758   4.111   8.001   5.823 -1.2772 -1.7056 -1.6090
  376MOL0     H50759   3.307   7.963   5.675  0.0571 -2.0431  4.6067
  376MOL0     H50760   3.088   7.876   5.631  2.5420 -0.6662 -1.4645
  377MOL0     O50761   5.985   8.106   5.897 -0.5395 -0.0228  0.9214
  377MOL0     C50762   5.890   8.073   5.968 -0.5645  0.2231 -0.0892
  377MOL0     O50763   5.857   8.144   6.083 -0.5629  0.2954 -0.1126
  377MOL0     C50764   5.915   8.265   6.130 -0.0932  0.5413  0.2625
  377MOL0     C50765   5.972   8.370   6.054 -0.0875  0.8319  0.0857
  377MOL0     C50766   6.019   8.485   6.108 -0.3368 -0.3909 -0.2927
  377MOL0     C50767   6.005   8.506   6.247  0.5507  0.5879  0.6311
  377MOL0     O50768   6.067   8.614   6.306  0.3918  0.0011  0.0327
  377MOL0     C50769   6.048   8.650   6.444 -0.4367  0.2786 -0.2011
  377MOL0     C50770   6.060   8.799   6.447 -0.2931 -0.0019 -0.7945
  377MOL0     C50771   5.930   8.865   6.385  0.0055  0.7224  0.1412
  377MOL0     C50772   5.952   9.015   6.355  0.0715 -0.7720  0.2163
  377MOL0     C50773   5.824   9.096   6.398 -0.8262  0.2875 -0.6023
  377MOL0     C50774   5.807   9.231   6.324  0.4551  0.6205 -0.2638
  377MOL0     C50775   5.673   9.299   6.331 -0.1806  0.1960  0.0329
  377MOL0     C50776   5.631   9.376   6.462 -0.4583  0.0578 -0.5470
  377MOL0     N50777   5.493   9.413   6.458 -0.0483  0.3402 -0.7601
  377MOL0     C50778   5.392   9.352   6.533  0.6206 -0.1650 -0.1210
  377MOL0     C50779   5.279   9.431   6.496 -0.9883  0.1171  0.3224
  377MOL0     C50780   5.145   9.425   6.560  0.4335 -0.2363 -0.0087
  377MOL0     C50781   5.043   9.322   6.501 -0.5073 -0.0039  1.0265
  377MOL0     C50782   5.005   9.371   6.355 -0.6718 -0.2510  0.2367
  377MOL0     C50783   4.932   9.513   6.341  0.0695 -1.0061  0.0951
  377MOL0     O50784   4.800   9.499   6.402 -0.2396 -0.6721 -0.9596
  377MOL0     C50785   4.740   9.613   6.442  0.5853 -0.0780 -0.7495
  377MOL0     C50786   4.605   9.593   6.475 -0.3064  0.1224 -0.3948
  377MOL0     C50787   4.522   9.696   6.526 -0.0933  0.9150  0.9610
  377MOL0     C50788   4.377   9.656   6.544  0.6009 -0.2916  0.2410
  377MOL0     C50789   4.583   9.822   6.562  0.2812 -0.0168 -0.1307
  377MOL0     C50790   4.507   9.929   6.631 -0.5853  0.1236  1.2075
  377MOL0     O50791   4.548  10.059   6.594 -0.2487 -0.1693 -0.5173
  377MOL0     C50792   4.486  10.163   6.663 -0.2195  0.0583 -0.3088
  377MOL0     C50793   4.375  10.223   6.612 -0.4044 -0.1183 -0.2119
  377MOL0     C50794   4.305  10.308   6.688  0.2262 -0.6764 -0.2752
  377MOL0     C50795   4.352  10.358   6.811  0.1300  1.5565  0.2812
  377MOL0     O50796   4.288  10.449   6.894 -0.1711  0.1687  0.4265
  377MOL0     C50797   4.177  10.519   6.827 -0.8652 -1.1095  0.3644
  377MOL0     C50798   4.123  10.625   6.920  0.0539  1.0851 -0.0411
  377MOL0     C50799   4.064  10.732   6.839 -0.0658  0.1869 -0.0399
  377MOL0     C50800   3.988  10.819   6.931  0.8337 -0.7219  0.2644
  377MOL0     C50801   3.922  10.937   6.853  0.0818  0.3010 -0.0669
  377MOL0     C50802   3.813  11.026   6.924  0.3359  1.0522  0.3556
  377MOL0     C50803   3.763  11.123   6.821  1.0743  0.3105  2.0839
  377MOL0     C50804   3.659  11.221   6.886  0.7292 -0.2488  1.0010
  377MOL0    Cl50805   3.741  11.306   7.024  0.1943 -0.3912  0.0641
  377MOL0     C50806   4.470  10.301   6.864  0.1872 -0.3015 -0.0580
  377MOL0     C50807   4.539  10.209   6.785  0.7481  0.1360  0.2895
  377MOL0     O50808   4.409   9.901   6.695  0.2884  0.3646  0.3132
  377MOL0     C50809   4.716   9.841   6.530  0.4843  0.1363  0.3419
  377MOL0     C50810   4.798   9.741   6.472  0.0051  0.0395 -0.0738
  377MOL0     N50811   5.314   9.510   6.391 -0.2487 -0.0953  0.3175
  377MOL0     N50812   5.442   9.501   6.373  0.2569 -0.6331  0.9664
  377MOL0     C50813   5.948   8.404   6.326 -0.3358 -0.8904  0.0413
  377MOL0     C50814   5.901   8.277   6.271  0.0301 -0.4412 -0.2593
  377MOL0     C50815   5.797   7.966   5.925  0.4359  1.0085 -0.8150
  377MOL0     C50816   5.811   7.906   5.801  0.5375 -0.3493  0.8681
  377MOL0     C50817   5.741   7.791   5.771 -0.3655 -0.6390  0.4845
  377MOL0     C50818   5.635   7.742   5.849  0.3834 -0.0583 -0.5578
  377MOL0     O50819   5.551   7.635   5.807 -0.4047  0.3655 -0.8324
  377MOL0     C50820   5.574   7.547   5.706 -0.5430  0.1233  0.4799
  377MOL0     C50821   5.439   7.496   5.663  1.0406 -0.5979 -0.4366
  377MOL0     C50822   5.354   7.426   5.769  1.0478 -0.9006 -0.4717
  377MOL0     C50823   5.203   7.408   5.725 -0.3156 -0.0085  0.0712
  377MOL0     C50824   5.118   7.341   5.822  0.1620  0.6295  0.1953
  377MOL0     C50825   5.051   7.289   5.901  0.4785 -0.0373 -0.5890
  377MOL0     C50826   5.609   7.808   5.969  0.2509 -0.3301  0.3857
  377MOL0     C50827   5.695   7.917   6.004 -0.4758  0.0098  0.0951
  377MOL0     H50828   5.979   8.342   5.950 -1.0662 -0.8486  0.4419
  377MOL0     H50829   6.060   8.573   6.059 -1.8129  1.2571  1.2834
  377MOL0     H50830   5.947   8.618   6.470  0.2014 -1.8298 -0.1235
  377MOL0     H50831   6.122   8.619   6.519 -2.5289  0.1795  1.9546
  377MOL0     H50832   6.076   8.832   6.550 -1.5864  0.0570 -0.5916
  377MOL0     H50833   6.149   8.828   6.391  0.2275 -1.1061 -0.5593
  377MOL0     H50834   5.912   8.819   6.287  1.8967 -1.5961  0.8022
  377MOL0     H50835   5.845   8.846   6.451 -1.8662  2.4386 -1.6127
  377MOL0     H50836   6.041   9.059   6.401 -1.0183  2.2197 -0.3468
  377MOL0     H50837   5.964   9.024   6.247 -0.3722 -0.3406  0.1987
  377MOL0     H50838   5.735   9.041   6.366 -0.3136 -0.5874 -0.5411
  377MOL0     H50839   5.826   9.117   6.505  2.1085  1.4701 -0.8022
  377MOL0     H50840   5.879   9.308   6.352  0.3580  1.5498 -2.4343
  377MOL0     H50841   5.831   9.198   6.223  0.3533 -4.3154  1.0357
  377MOL0     H50842   5.642   9.348   6.238 -3.5260 -1.6231  0.0154
  377MOL0     H50843   5.601   9.216   6.334 -1.8634  1.4829 -2.0082
  377MOL0     H50844   5.702   9.460   6.463  2.2080 -2.0384  0.9944
  377MOL0     H50845   5.652   9.316   6.551 -0.1015  3.0467  1.5485
  377MOL0     H50846   5.402   9.279   6.613  2.0171 -1.9053 -1.7993
  377MOL0     H50847   5.163   9.404   6.666 -0.2330  1.9687  0.6007
  377MOL0     H50848   5.104   9.527   6.558 -0.4813 -0.6122 -1.4847
  377MOL0     H50849   4.949   9.318   6.557 -0.2642 -0.5054  1.4017
  377MOL0     H50850   5.082   9.220   6.498 -0.3578  0.0693 -0.3197
  377MOL0     H50851   4.935   9.304   6.304 -1.7952  0.7622  0.3992
  377MOL0     H50852   5.096   9.373   6.293 -1.4566 -1.5583 -1.0181
  377MOL0     H50853   4.930   9.539   6.234  3.2361  2.4031  0.6538
  377MOL0     H50854   4.990   9.587   6.396  2.2117 -2.3287 -0.2457
  377MOL0     H50855   4.571   9.490   6.467 -0.3788 -0.0004  1.2510
  377MOL0     H50856   4.364   9.663   6.652  3.3353  1.0577  0.5863
  377MOL0     H50857   4.307   9.721   6.492 -0.1990 -3.6252 -3.3723
  377MOL0     H50858   4.355   9.553   6.514 -0.7608  0.0024  0.2034
  377MOL0     H50859   4.331  10.193   6.518  1.1507 -0.6831 -0.7897
  377MOL0     H50860   4.219  10.350   6.638 -0.9121 -1.1798  1.1947
  377MOL0     H50861   4.209  10.568   6.735 -1.6601  1.0674  1.1613
  377MOL0     H50862   4.098  10.448   6.801 -0.2228 -1.8550  0.4056
  377MOL0     H50863   4.062  10.581   6.999  1.3538 -0.8031 -0.0239
  377MOL0     H50864   4.209  10.661   6.977  0.5522 -2.0469  1.3754
  377MOL0     H50865   3.985  10.694   6.774  0.6902 -0.1381 -0.7786
  377MOL0     H50866   4.141  10.791   6.790  0.0449  2.0114  2.1473
  377MOL0     H50867   3.918  10.755   6.986  2.0962 -1.1779  1.3989
  377MOL0     H50868   4.054  10.867   7.004  1.0254 -0.1206 -0.2979
  377MOL0     H50869   3.873  10.889   6.768 -0.0821 -0.5751  0.5122
  377MOL0     H50870   3.999  10.999   6.806  0.0942 -1.0189 -1.9063
  377MOL0     H50871   3.725  10.966   6.948 -0.0575  2.0465  1.4822
  377MOL0     H50872   3.858  11.068   7.015  3.6049 -2.8509  0.8238
  377MOL0     H50873   3.719  11.076   6.732  2.2892  0.0581  1.5945
  377MOL0     H50874   3.841  11.183   6.774 -1.9766  3.1324  0.2090
  377MOL0     H50875   3.577  11.166   6.934 -0.4189 -0.2337 -0.8652
  377MOL0     H50876   3.615  11.297   6.821 -1.4947 -1.5806  0.8301
  377MOL0     H50877   4.519  10.321   6.959  1.4850 -2.0195 -0.3257
  377MOL0     H50878   4.623  10.156   6.827  0.3043 -2.1724 -1.5248
  377MOL0     H50879   4.757   9.938   6.555 -2.1534  1.8921 -1.6735
  377MOL0     H50880   4.901   9.760   6.447  0.6418 -1.6461  1.1026
  377MOL0     H50881   5.947   8.411   6.434  2.8643 -1.3465  0.2133
  377MOL0     H50882   5.857   8.199   6.333  0.6522  0.9928  2.1160
  377MOL0     H50883   5.886   7.936   5.729  0.1732  1.3226  1.1354
  377MOL0     H50884   5.765   7.743   5.677  0.1686  2.0154 -0.8185
  377MOL0     H50885   5.612   7.597   5.616 -0.4958 -0.0463  0.4050
  377MOL0     H50886   5.632   7.463   5.746  1.3086  1.3302  0.4358
  377MOL0     H50887   5.447   7.429   5.577  1.0478 -0.8868 -0.2120
  377MOL0     H50888   5.382   7.583   5.630  1.4897  0.1510  0.6862
  377MOL0     H50889   5.356   7.472   5.868  0.1971 -1.7938 -0.0218
  377MOL0     H50890   5.412   7.334   5.782  2.2818 -1.0574 -5.2793
  377MOL0     H50891   5.203   7.347   5.634 -1.9948  0.4176 -0.2319
  377MOL0     H50892   5.158   7.503   5.697 -0.9244 -0.1691  0.4906
  377MOL0     H50893   4.980   7.270   5.979  1.5919  0.8300  0.6916
  377MOL0     H50894   5.534   7.771   6.037 -1.5421 -0.9766 -1.8246
  377MOL0     H50895   5.665   7.957   6.100  0.4262  1.5465 -0.2209
  378MOL0     O50896   6.614   3.236  10.417  0.1607  1.0549 -0.4173
  378MOL0     C50897   6.649   3.117  10.448  0.6969  0.4207 -0.3297
  378MOL0     O50898   6.570   3.008  10.438  0.3015  0.4472  0.3422
  378MOL0     C50899   6.440   3.018  10.394  0.4073 -0.5607 -0.1112
  378MOL0     C50900   6.358   3.126  10.429  0.8233 -1.2194 -0.6071
  378MOL0     C50901   6.230   3.136  10.380 -0.1380  0.3913  0.1268
  378MOL0     C50902   6.179   3.037  10.299 -0.7547 -0.4429  0.8232
  378MOL0     O50903   6.053   3.034  10.259  0.8645  0.3990 -0.5440
  378MOL0     C50904   6.027   3.085  10.125  0.0746 -0.4735 -0.0374
  378MOL0     C50905   5.890   3.153  10.114 -0.4435 -0.5313 -0.0092
  378MOL0     C50906   5.877   3.196   9.970 -0.0207  1.0506  0.7731
  378MOL0     C50907   5.794   3.102   9.877 -0.4129 -0.4157  0.9506
  378MOL0     C50908   5.648   3.132   9.855 -0.9033  0.3997 -0.0762
  378MOL0     C50909   5.625   3.252   9.763 -0.3448  0.0426  0.4569
  378MOL0     C50910   5.482   3.262   9.711 -0.3329  0.3275 -0.1323
  378MOL0     C50911   5.378   3.289   9.826 -0.0988 -0.0125 -0.4843
  378MOL0     N50912   5.242   3.269   9.777  0.0039  0.2748 -0.3764
  378MOL0     C50913   5.144   3.187   9.839  0.6027 -0.3396 -0.3788
  378MOL0     C50914   5.038   3.213   9.753  0.0930  0.4450  0.1565
  378MOL0     C50915   4.905   3.149   9.781  0.2101  0.8137 -0.1401
  378MOL0     C50916   4.793   3.233   9.709 -0.1183 -0.3823 -0.4466
  378MOL0     C50917   4.667   3.154   9.696  0.7154  0.6312 -0.3820
  378MOL0     C50918   4.547   3.245   9.676  0.0038  0.1072 -0.9446
  378MOL0     O50919   4.441   3.167   9.626  0.4743  0.3301  0.0579
  378MOL0     C50920   4.317   3.224   9.603 -0.6780  0.0218  0.3919
  378MOL0     C50921   4.209   3.150   9.550 -0.1740 -0.5623  0.8036
  378MOL0     C50922   4.083   3.202   9.511 -0.1113 -0.9409 -1.1223
  378MOL0     C50923   3.996   3.114   9.437  0.4604 -0.3715  0.0382
  378MOL0     C50924   4.058   3.334   9.542 -0.4296 -0.8773  0.1174
  378MOL0     C50925   3.937   3.420   9.513 -0.1646 -0.7345 -0.8477
  378MOL0     O50926   3.908   3.531   9.594 -0.1293  0.3663 -0.3243
  378MOL0     C50927   3.789   3.599   9.585 -0.3257 -0.9537  0.1210
  378MOL0     C50928   3.800   3.739   9.593  0.2408 -0.0018 -0.2241
  378MOL0     C50929   3.687   3.822   9.592  0.2788  0.0537 -0.2387
  378MOL0     C50930   3.558   3.759   9.579  0.1823 -0.0604  0.8908
  378MOL0     O50931   3.436   3.818   9.572 -0.2491  0.5011 -0.1970
  378MOL0     C50932   3.432   3.951   9.624 -1.0663 -0.1932 -0.4185
  378MOL0     C50933   3.291   4.016   9.621 -0.0417 -0.6936 -0.6010
  378MOL0     C50934   3.187   3.940   9.696 -0.5565 -0.0529  0.2719
  378MOL0     C50935   3.056   4.009   9.655 -0.8808 -0.2598  0.2828
  378MOL0     C50936   2.943   3.965   9.763  0.3895 -0.2584  0.7578
  378MOL0     C50937   2.806   4.007   9.708 -0.5027  1.0246 -0.2794
  378MOL0     C50938   2.707   3.985   9.829  0.0133  0.9928  0.6371
  378MOL0     C50939   2.568   4.035   9.807  0.0747 -0.4399  0.1031
  378MOL0    Cl50940   2.495   3.976   9.658 -0.5882 -0.1662  0.0344
  378MOL0     C50941   3.553   3.620   9.562  0.1600 -0.7395 -0.8924
  378MOL0     C50942   3.665   3.543   9.555 -0.0032 -0.5765 -0.9241
  378MOL0     O50943   3.872   3.386   9.414  0.5024  0.6990  0.0123
  378MOL0     C50944   4.163   3.406   9.613  0.3167 -0.0922  0.7327
  378MOL0     C50945   4.294   3.357   9.633  0.0557  0.3559  0.1968
  378MOL0     N50946   5.068   3.279   9.644  0.7006 -0.0661 -0.6130
  378MOL0     N50947   5.191   3.327   9.665  0.6066  0.0262 -0.0749
  378MOL0     C50948   6.267   2.939  10.253  0.0363 -0.3491  0.4760
  378MOL0     C50949   6.392   2.926  10.299 -0.6373  1.2595 -0.2333
  378MOL0     C50950   6.789   3.078  10.478  0.2690 -0.3022 -1.4093
  378MOL0     C50951   6.830   2.940  10.482  0.3747 -0.1855  0.1200
  378MOL0     C50952   6.959   2.911  10.489 -0.0932 -0.2712  0.0341
  378MOL0     C50953   7.059   3.010  10.495 -0.7365  0.6485  0.9782
  378MOL0     O50954   7.189   2.980  10.500  0.5259  0.1528 -0.0973
  378MOL0     C50955   7.283   3.073  10.548  0.2836  0.0573 -0.0578
  378MOL0     C50956   7.414   3.000  10.562 -0.4971  1.0375 -0.4520
  378MOL0     C50957   7.538   3.076  10.622  0.6500  0.5325 -0.0748
  378MOL0     C50958   7.663   3.022  10.555  0.4183 -0.0521 -0.0030
  378MOL0     C50959   7.788   3.031  10.637  0.4183  0.3942  0.4008
  378MOL0     C50960   7.893   3.043  10.688 -0.5091 -0.2247  0.1974
  378MOL0     C50961   7.018   3.143  10.498 -0.2020  0.3922 -0.5887
  378MOL0     C50962   6.886   3.179  10.496 -0.4580 -0.0256  0.6093
  378MOL0     H50963   6.382   3.194  10.509  0.2137  0.1165 -1.5257
  378MOL0     H50964   6.168   3.216  10.419 -2.0799 -0.6139 -0.7274
  378MOL0     H50965   6.106   3.154  10.095 -1.6922  0.2024 -3.7303
  378MOL0     H50966   6.035   3.007  10.049  3.3008  0.6694 -1.0277
  378MOL0     H50967   5.808   3.089  10.148 -0.1293 -2.9055 -3.2330
  378MOL0     H50968   5.898   3.248  10.167  1.5094 -0.2214 -0.7935
  378MOL0     H50969   5.827   3.293   9.976 -0.5750  1.1340 -2.9339
  378MOL0     H50970   5.972   3.211   9.918  0.7627 -0.5117  1.6850
  378MOL0     H50971   5.846   3.084   9.783 -0.2837 -0.1538  0.9710
  378MOL0     H50972   5.807   3.004   9.924  1.4995 -2.2499 -2.9712
  378MOL0     H50973   5.606   3.041   9.809  1.1987 -0.1734 -0.9532
  378MOL0     H50974   5.599   3.146   9.952 -1.6201 -2.3415  0.0506
  378MOL0     H50975   5.642   3.338   9.828 -1.4252  0.0346  0.7585
  378MOL0     H50976   5.701   3.253   9.684  0.9610  0.4361  1.6858
  378MOL0     H50977   5.477   3.334   9.629 -0.1537 -1.7029 -2.0108
  378MOL0     H50978   5.462   3.165   9.665  3.0272 -0.9178  0.7463
  378MOL0     H50979   5.404   3.387   9.868  2.4028 -1.9615  3.0559
  378MOL0     H50980   5.399   3.212   9.901 -1.7395  2.2945  2.5606
  378MOL0     H50981   5.143   3.128   9.931 -1.1635 -0.0535 -0.1892
  378MOL0     H50982   4.910   3.044   9.752  4.5213  1.0161 -0.8456
  378MOL0     H50983   4.887   3.165   9.887 -1.3899  2.4496 -0.6012
  378MOL0     H50984   4.824   3.258   9.607  0.0423 -0.3819 -0.3968
  378MOL0     H50985   4.777   3.328   9.760  2.5851 -0.5160  0.8294
  378MOL0     H50986   4.655   3.101   9.791 -2.4876  0.0648 -1.0008
  378MOL0     H50987   4.665   3.077   9.618  1.8403  0.3370 -0.1379
  378MOL0     H50988   4.574   3.324   9.604 -0.2742 -0.7952 -2.0695
  378MOL0     H50989   4.516   3.280   9.775  0.1064 -2.9746  0.2640
  378MOL0     H50990   4.232   3.044   9.539  1.7317 -0.3623  2.2393
  378MOL0     H50991   4.030   3.010   9.442  1.4192 -0.2051 -2.1431
  378MOL0     H50992   3.895   3.113   9.480  0.4350 -2.9882  0.1191
  378MOL0     H50993   4.001   3.149   9.334  2.2847 -0.7329 -0.0271
  378MOL0     H50994   3.898   3.780   9.616  0.5250 -1.5539  1.6726
  378MOL0     H50995   3.704   3.925   9.623 -1.5997  0.3045  0.0367
  378MOL0     H50996   3.476   3.948   9.723 -0.7668  0.9326 -0.5058
  378MOL0     H50997   3.500   4.009   9.560  0.8744 -1.0864  0.7612
  378MOL0     H50998   3.300   4.120   9.655  3.3783 -1.3101  0.7568
  378MOL0     H50999   3.266   4.020   9.514  0.8566  0.4371 -0.7989
  378MOL0     H51000   3.206   3.932   9.803  1.0783  1.4028  0.1339
  378MOL0     H51001   3.186   3.843   9.646 -0.6617 -0.2221  0.6062
  378MOL0     H51002   3.078   4.116   9.648  0.7676 -0.5729  0.1763
  378MOL0     H51003   3.028   3.976   9.555  0.6676 -1.6085  0.2476
  378MOL0     H51004   2.975   4.011   9.857  3.5939  0.0588 -0.3617
  378MOL0     H51005   2.950   3.856   9.767 -2.9402 -0.8392 -2.6632
  378MOL0     H51006   2.803   4.112   9.675 -1.6861  0.9826 -0.3555
  378MOL0     H51007   2.790   3.942   9.621  1.4410 -0.1189  0.1615
  378MOL0     H51008   2.748   4.026   9.922 -3.2746 -1.2282  3.2794
  378MOL0     H51009   2.693   3.877   9.831 -2.4586  1.1441 -2.1547
  378MOL0     H51010   2.559   4.143   9.815  2.8487 -0.2135  1.0940
  378MOL0     H51011   2.521   3.981   9.890 -1.1675 -0.8768 -0.8518
  378MOL0     H51012   3.453   3.578   9.561 -0.1973  0.0919 -0.6525
  378MOL0     H51013   3.658   3.435   9.549  3.2486 -1.0512  1.3878
  378MOL0     H51014   4.143   3.511   9.628  0.8181  0.4798 -2.0801
  378MOL0     H51015   4.363   3.425   9.683 -1.5732  2.1681  0.0951
  378MOL0     H51016   6.229   2.850  10.205  0.4003 -0.3201  0.1231
  378MOL0     H51017   6.458   2.852  10.256  1.0799  1.7924  1.3680
  378MOL0     H51018   6.756   2.861  10.486 -0.7277  0.6734 -1.7773
  378MOL0     H51019   6.995   2.810  10.471  0.5478  0.0560 -0.5659
  378MOL0     H51020   7.294   3.162  10.484  2.3629 -0.1385 -0.0512
  378MOL0     H51021   7.241   3.089  10.648 -2.7965  1.0809 -1.3898
  378MOL0     H51022   7.450   2.979  10.461  1.6103  0.7195  0.3139
  378MOL0     H51023   7.398   2.908  10.619  0.4530  0.5597 -0.9233
  378MOL0     H51024   7.544   3.051  10.729  0.9835  1.6057  0.1748
  378MOL0     H51025   7.552   3.181  10.594  0.4893  0.3786 -0.7327
  378MOL0     H51026   7.677   3.076  10.461 -0.3540  1.8798  0.9434
  378MOL0     H51027   7.643   2.915  10.539 -2.1405  0.4244 -0.4086
  378MOL0     H51028   7.990   3.041  10.734 -1.2550 -2.2714  1.8734
  378MOL0     H51029   7.086   3.227  10.508  1.5816 -0.9471 -1.0224
  378MOL0     H51030   6.855   3.282  10.484 -0.7449 -0.0891  0.8073
  379MOL0     O51031   1.714   3.806   7.242  0.4768  0.3352  0.1087
  379MOL0     C51032   1.814   3.856   7.193 -0.8316  1.0544 -0.4006
  379MOL0     O51033   1.837   3.990   7.165 -0.2781 -0.0134  0.2171
  379MOL0     C51034   1.728   4.063   7.206  0.0492 -0.1084  0.2954
  379MOL0     C51035   1.747   4.147   7.312  0.8581 -0.5220 -0.1280
  379MOL0     C51036   1.645   4.232   7.342  1.1117 -0.2577  0.4405
  379MOL0     C51037   1.515   4.233   7.277 -0.1550  0.1440 -0.0143
  379MOL0     O51038   1.410   4.309   7.312 -0.3497 -0.3224 -0.0356
  379MOL0     C51039   1.409   4.365   7.439  0.0270  0.0330 -0.0311
  379MOL0     C51040   1.286   4.461   7.453  0.8407  0.4943  0.2377
  379MOL0     C51041   1.267   4.549   7.329  0.4515 -0.3433 -0.5346
  379MOL0     C51042   1.200   4.663   7.386 -0.4880 -0.2036 -0.3048
  379MOL0     C51043   1.141   4.749   7.280  0.0008  0.7730  0.0826
  379MOL0     C51044   1.242   4.807   7.179 -1.0963  0.0284  0.2231
  379MOL0     C51045   1.322   4.917   7.255  0.2204 -0.1442  0.7763
  379MOL0     C51046   1.444   4.963   7.165  0.2514  0.8003 -0.2829
  379MOL0     N51047   1.396   5.012   7.036 -0.0399  0.6448 -0.0036
  379MOL0     C51048   1.297   5.103   7.027  0.1573  0.1953  0.5254
  379MOL0     C51049   1.273   5.123   6.895  1.3719 -1.2820 -0.2718
  379MOL0     C51050   1.179   5.234   6.843 -0.9521 -0.1346  0.0144
  379MOL0     C51051   1.071   5.178   6.754  0.7947  0.6033  1.3002
  379MOL0     C51052   1.006   5.280   6.652  0.7024  0.5750 -0.2916
  379MOL0     C51053   0.944   5.405   6.737  0.7212  0.4844 -0.0292
  379MOL0     O51054   0.849   5.491   6.663 -0.1499  0.0636 -0.3127
  379MOL0     C51055   0.726   5.453   6.636  0.4077 -0.0031  0.1330
  379MOL0     C51056   0.678   5.318   6.663  0.1980 -0.2362  0.3791
  379MOL0     C51057   0.540   5.290   6.651  0.0756 -0.2679 -0.4547
  379MOL0     C51058   0.499   5.166   6.728 -0.0697  0.6454 -0.4063
  379MOL0     C51059   0.455   5.373   6.588 -1.0389  0.5293 -0.1707
  379MOL0     C51060   0.313   5.358   6.572 -0.3098  0.4475  0.5147
  379MOL0     O51061   0.273   5.378   6.439  0.2122  0.7369 -0.3473
  379MOL0     C51062   0.148   5.326   6.410 -1.3794 -0.5504  0.6824
  379MOL0     C51063   0.052   5.420   6.381 -0.1866 -0.5751  0.3682
  379MOL0     C51064  -0.073   5.373   6.342  0.3354  0.3071  2.0380
  379MOL0     C51065  -0.099   5.236   6.323  0.4520 -0.0927  0.2900
  379MOL0     O51066  -0.221   5.181   6.283 -0.1372  0.6473 -0.9102
  379MOL0     C51067  -0.314   5.283   6.252 -0.1540 -0.0384 -0.1066
  379MOL0     C51068  -0.458   5.232   6.246  0.0622  0.2004  1.4363
  379MOL0     C51069  -0.491   5.188   6.394 -0.1168  0.8167 -0.4461
  379MOL0     C51070  -0.638   5.161   6.414  0.9286  0.5204  0.4205
  379MOL0     C51071  -0.698   5.033   6.352  0.8733 -0.1548  0.1144
  379MOL0     C51072  -0.850   5.006   6.355  1.6255  0.3503  0.0672
  379MOL0     C51073  -0.889   4.867   6.300  0.4615  0.3759  0.3962
  379MOL0     C51074  -1.041   4.868   6.294 -0.2459  0.4027 -0.5380
  379MOL0    Cl51075  -1.078   4.711   6.217  0.5989  0.1544  0.0509
  379MOL0     C51076   0.004   5.142   6.349 -1.3178 -0.4204 -0.9235
  379MOL0     C51077   0.125   5.186   6.397 -0.0662 -0.0671  0.5712
  379MOL0     O51078   0.242   5.328   6.665 -0.1296 -0.2539  0.4110
  379MOL0     C51079   0.500   5.501   6.550 -0.3744  0.5795  0.1912
  379MOL0     C51080   0.629   5.542   6.577  0.5361 -0.3736 -1.3627
  379MOL0     N51081   1.350   5.033   6.825 -0.5007  0.7816 -0.6236
  379MOL0     N51082   1.410   4.955   6.914 -0.1994 -0.5478 -0.2018
  379MOL0     C51083   1.494   4.134   7.183  0.2991 -0.5905 -0.2089
  379MOL0     C51084   1.604   4.056   7.144 -0.3570 -1.1589 -0.1839
  379MOL0     C51085   1.920   3.768   7.149 -1.4775  0.3117 -0.6035
  379MOL0     C51086   1.948   3.643   7.202  0.4999  0.3827  0.1001
  379MOL0     C51087   2.061   3.563   7.179  0.0232 -0.8758 -0.5723
  379MOL0     C51088   2.158   3.612   7.091  0.4721  0.5160 -0.0046
  379MOL0     O51089   2.263   3.529   7.055 -0.2501  0.4149  0.2479
  379MOL0     C51090   2.381   3.571   6.984  0.0848  0.1234  1.0331
  379MOL0     C51091   2.483   3.477   7.029 -1.0091 -0.0911 -0.2179
  379MOL0     C51092   2.619   3.501   6.954  0.1614  0.3123 -0.1833
  379MOL0     C51093   2.729   3.548   7.043  0.2135 -0.4621 -0.0906
  379MOL0     C51094   2.764   3.434   7.129 -0.2068  0.6560 -0.1081
  379MOL0     C51095   2.791   3.331   7.194  0.2969 -0.2615 -0.6944
  379MOL0     C51096   2.127   3.731   7.028  0.3342  0.3563  1.2775
  379MOL0     C51097   2.019   3.813   7.064  0.1358 -0.4429  0.3586
  379MOL0     H51098   1.831   4.163   7.379 -0.3626  0.1781  1.3027
  379MOL0     H51099   1.664   4.303   7.422  1.5861 -2.3280  2.2423
  379MOL0     H51100   1.406   4.294   7.522  3.7895  1.0455  1.1794
  379MOL0     H51101   1.492   4.435   7.445 -1.3680  1.6679  1.3007
  379MOL0     H51102   1.196   4.400   7.460  0.2995  1.2481 -0.0056
  379MOL0     H51103   1.297   4.511   7.550  0.0045  0.6030  0.2822
  379MOL0     H51104   1.366   4.577   7.289  1.0457 -0.2602  0.9444
  379MOL0     H51105   1.210   4.507   7.245  0.8130 -1.3248 -0.3032
  379MOL0     H51106   1.114   4.613   7.431  1.3619 -3.5182 -0.1444
  379MOL0     H51107   1.266   4.712   7.458  0.2870 -2.2256  0.4300
  379MOL0     H51108   1.067   4.689   7.225 -0.2608  2.1778 -1.1590
  379MOL0     H51109   1.093   4.841   7.314  1.0779  2.2871 -2.2123
  379MOL0     H51110   1.316   4.736   7.140  0.2385  1.3649  0.2222
  379MOL0     H51111   1.183   4.851   7.098  0.4554 -1.2723 -1.6982
  379MOL0     H51112   1.252   4.999   7.275 -1.0171 -0.9339 -0.1773
  379MOL0     H51113   1.356   4.887   7.354 -1.9995 -1.6323  1.1614
  379MOL0     H51114   1.504   4.873   7.154  2.5894  2.2303  0.1778
  379MOL0     H51115   1.513   5.034   7.212 -1.0850  2.1697 -0.3130
  379MOL0     H51116   1.258   5.158   7.112  1.1587 -1.9393  2.4588
  379MOL0     H51117   1.131   5.288   6.926 -2.4642  0.0758 -0.9747
  379MOL0     H51118   1.237   5.301   6.778  0.3297 -0.7377  0.4988
  379MOL0     H51119   0.990   5.147   6.821 -2.0017  4.3741  0.0617
  379MOL0     H51120   1.109   5.094   6.695  0.6568  1.2854  0.2168
  379MOL0     H51121   0.925   5.230   6.597 -0.5974 -0.1594  2.1538
  379MOL0     H51122   1.074   5.318   6.576  1.3427 -0.6158 -0.3358
  379MOL0     H51123   1.038   5.455   6.764  0.3467  2.0577 -1.4349
  379MOL0     H51124   0.896   5.365   6.826  0.7000 -0.9069 -0.6358
  379MOL0     H51125   0.746   5.244   6.702 -0.0361  0.5763  2.4495
  379MOL0     H51126   0.523   5.170   6.835 -1.3197 -4.3302  0.3091
  379MOL0     H51127   0.395   5.133   6.718 -0.1378 -0.0869  1.9657
  379MOL0     H51128   0.551   5.079   6.687  0.5748  1.4610 -1.3618
  379MOL0     H51129   0.077   5.526   6.384 -1.8837 -0.0896 -0.9098
  379MOL0     H51130  -0.146   5.448   6.313 -1.2473 -2.3362 -1.5807
  379MOL0     H51131  -0.320   5.368   6.321 -1.2205  0.3647 -0.6743
  379MOL0     H51132  -0.288   5.321   6.153 -2.7391 -0.3058 -0.9447
  379MOL0     H51133  -0.528   5.306   6.207  2.7112  0.5139 -3.4311
  379MOL0     H51134  -0.455   5.148   6.177  0.0344  1.3093  0.0375
  379MOL0     H51135  -0.455   5.272   6.453  1.4155  0.1172 -0.3150
  379MOL0     H51136  -0.435   5.097   6.421 -2.7046 -1.3581 -1.8868
  379MOL0     H51137  -0.655   5.169   6.522  0.1296  0.5122  0.3008
  379MOL0     H51138  -0.689   5.246   6.367  1.1648 -0.8209 -2.4933
  379MOL0     H51139  -0.660   4.946   6.406 -3.1556 -2.4276 -0.3339
  379MOL0     H51140  -0.667   5.024   6.247 -0.8031  3.0398 -0.7909
  379MOL0     H51141  -0.880   5.033   6.456  3.8525 -2.0000  1.4857
  379MOL0     H51142  -0.898   5.084   6.295  0.7526  0.0459  0.3616
  379MOL0     H51143  -0.858   4.784   6.365  0.8558  2.2486  2.7530
  379MOL0     H51144  -0.846   4.845   6.202  2.4520  1.2655  1.0205
  379MOL0     H51145  -1.090   4.947   6.236 -0.2976 -0.1643 -1.2788
  379MOL0     H51146  -1.082   4.877   6.395  0.6178 -0.3460 -0.1049
  379MOL0     H51147  -0.029   5.039   6.354 -1.0613 -0.4374  1.8603
  379MOL0     H51148   0.207   5.122   6.428  0.5658 -1.5004 -3.3854
  379MOL0     H51149   0.435   5.572   6.499 -2.6761 -1.6611 -0.1481
  379MOL0     H51150   0.669   5.639   6.551  1.4780  0.4605  2.5506
  379MOL0     H51151   1.389   4.127   7.154  0.2074 -0.3836  0.0676
  379MOL0     H51152   1.587   3.977   7.071  1.1643 -2.5147  0.8462
  379MOL0     H51153   1.880   3.590   7.268  1.5532 -1.4904 -0.2492
  379MOL0     H51154   2.067   3.459   7.211  3.1330 -0.6255 -0.0038
  379MOL0     H51155   2.359   3.562   6.878 -1.4167 -1.0738  1.4142
  379MOL0     H51156   2.407   3.674   7.012 -1.4756  0.8955 -0.1934
  379MOL0     H51157   2.448   3.373   7.020  0.7742 -0.9051  1.5212
  379MOL0     H51158   2.504   3.476   7.136 -0.0741  2.9171 -0.2875
  379MOL0     H51159   2.604   3.574   6.875 -0.1987 -1.8643 -2.2436
  379MOL0     H51160   2.659   3.405   6.919  1.1233 -0.3529  2.4684
  379MOL0     H51161   2.696   3.633   7.103  1.9796  0.0410  0.2036
  379MOL0     H51162   2.815   3.581   6.984 -0.6171  1.4635 -0.2811
  379MOL0     H51163   2.814   3.245   7.252 -0.6804  0.0002  0.1163
  379MOL0     H51164   2.201   3.768   6.958  0.6074 -0.2325  1.2497
  379MOL0     H51165   2.023   3.912   7.021 -2.9783  0.3230  1.5695
  380MOL0     O51166  10.674   6.324   0.147  0.0637  0.4522 -0.3268
  380MOL0     C51167  10.692   6.423   0.220 -0.0031  0.2274  0.6774
  380MOL0     O51168  10.598   6.514   0.260 -0.1394  0.5756  0.0531
  380MOL0     C51169  10.475   6.492   0.203  0.0872  0.7927 -0.0265
  380MOL0     C51170  10.450   6.580   0.097  0.7783 -0.6608 -0.3408
  380MOL0     C51171  10.331   6.560   0.022 -0.1616  0.1095 -0.0977
  380MOL0     C51172  10.235   6.458   0.057  0.2032  0.3780 -0.0288
  380MOL0     O51173  10.123   6.460  -0.019  0.0981 -0.0962 -0.1223
  380MOL0     C51174  10.012   6.397   0.014  0.0430 -0.3524  0.4560
  380MOL0     C51175   9.889   6.455  -0.059  0.2557 -0.3032  0.3216
  380MOL0     C51176   9.771   6.368  -0.033 -0.3907  0.2503 -0.5448
  380MOL0     C51177   9.653   6.415  -0.114 -0.1806 -0.6081  0.6236
  380MOL0     C51178   9.529   6.340  -0.065 -0.4095 -0.0504 -0.3343
  380MOL0     C51179   9.405   6.349  -0.155  0.6960 -0.3300 -0.3061
  380MOL0     C51180   9.419   6.285  -0.292 -1.2903  0.1090  0.0917
  380MOL0     C51181   9.485   6.146  -0.300  0.0996 -1.1855 -0.2410
  380MOL0     N51182   9.400   6.048  -0.228 -0.2385 -0.0696  0.1019
  380MOL0     C51183   9.313   5.954  -0.264 -0.4077 -0.8515  0.2625
  380MOL0     C51184   9.291   5.868  -0.159 -0.7849  0.1084  0.5719
  380MOL0     C51185   9.200   5.754  -0.133 -0.2386 -0.2351  0.4004
  380MOL0     C51186   9.070   5.771  -0.215  0.4627  0.0723 -0.1184
  380MOL0     C51187   8.985   5.640  -0.195  0.4786  0.1437 -0.7466
  380MOL0     C51188   9.031   5.516  -0.256  0.2336  0.8619  0.0049
  380MOL0     O51189   8.977   5.406  -0.190  0.3878 -0.3806 -1.4156
  380MOL0     C51190   8.999   5.276  -0.231 -0.1681  0.2310  0.1249
  380MOL0     C51191   8.948   5.177  -0.154  0.1601  0.6138  0.4389
  380MOL0     C51192   8.955   5.040  -0.190  0.0657 -0.4567 -0.2253
  380MOL0     C51193   8.912   4.937  -0.083 -0.2170  0.4164 -1.5540
  380MOL0     C51194   9.014   5.005  -0.324 -0.7712 -0.6288 -0.7349
  380MOL0     C51195   9.015   4.867  -0.378 -0.1157  0.2774 -0.0615
  380MOL0     O51196   8.986   4.844  -0.513  0.0044 -0.0672  0.6464
  380MOL0     C51197   8.973   4.719  -0.564 -0.8980  0.0264  0.2364
  380MOL0     C51198   9.086   4.675  -0.631 -1.0819  0.0043 -0.1206
  380MOL0     C51199   9.084   4.550  -0.684  0.3094 -0.4945  0.2603
  380MOL0     C51200   8.966   4.475  -0.691  0.1661  0.0678  0.0794
  380MOL0     O51201   8.970   4.361  -0.761 -0.1048  0.0350 -0.1935
  380MOL0     C51202   8.857   4.333  -0.849 -0.2344 -0.2253 -0.7943
  380MOL0     C51203   8.907   4.306  -0.990 -0.0682  0.1163 -0.9548
  380MOL0     C51204   8.969   4.163  -1.006 -0.6682 -0.2246  0.0801
  380MOL0     C51205   9.065   4.172  -1.125  0.2575 -0.1785  0.8852
  380MOL0     C51206   9.130   4.034  -1.156 -0.1489 -0.1035  0.3135
  380MOL0     C51207   9.246   4.040  -1.257  0.0581  0.0791 -1.0421
  380MOL0     C51208   9.316   3.907  -1.263 -0.8837  0.3518 -0.0287
  380MOL0     C51209   9.367   3.881  -1.405 -0.3274  0.4254 -0.3015
  380MOL0    Cl51210   9.479   4.007  -1.442  0.4333  0.4976  0.1345
  380MOL0     C51211   8.846   4.530  -0.640 -0.1578  0.7323  0.3017
  380MOL0     C51212   8.856   4.650  -0.575 -0.3153 -0.6934 -1.2130
  380MOL0     O51213   9.033   4.781  -0.298 -0.5733  0.0283  0.4096
  380MOL0     C51214   9.072   5.110  -0.403 -0.2508 -0.6814 -0.0375
  380MOL0     C51215   9.071   5.241  -0.351  0.4098  0.3228  0.0686
  380MOL0     N51216   9.366   5.912  -0.050  0.6819 -0.2378  0.8371
  380MOL0     N51217   9.417   6.027  -0.091 -0.2083  0.3944 -0.0257
  380MOL0     C51218  10.263   6.375   0.165 -0.0422  0.3972 -0.3625
  380MOL0     C51219  10.388   6.388   0.229 -0.4504 -0.2679  0.2793
  380MOL0     C51220  10.824   6.450   0.273  0.3429 -0.0900 -0.2452
  380MOL0     C51221  10.847   6.547   0.376  0.1589  0.3162  0.1289
  380MOL0     C51222  10.977   6.568   0.417 -0.0688  0.2542 -0.0801
  380MOL0     C51223  11.089   6.508   0.358 -0.4028  0.8455  0.4460
  380MOL0     O51224  11.223   6.544   0.393  0.5423  0.5278 -0.1802
  380MOL0     C51225  11.332   6.521   0.307  0.0441  0.2983  0.2225
  380MOL0     C51226  11.351   6.589   0.167  0.2016 -0.2023  0.5283
  380MOL0     C51227  11.324   6.741   0.159  0.3473 -1.2789 -0.5266
  380MOL0     C51228  11.375   6.830   0.274  0.0287 -0.9003  0.3300
  380MOL0     C51229  11.513   6.787   0.294  0.7700 -0.1107 -0.8369
  380MOL0     C51230  11.614   6.731   0.324  0.0410  0.5881  0.3567
  380MOL0     C51231  11.063   6.418   0.258  0.0906 -0.5713 -0.0986
  380MOL0     C51232  10.930   6.380   0.219  0.2399  0.8475 -0.3419
  380MOL0     H51233  10.515   6.659   0.062  0.7836  0.4920  2.0643
  380MOL0     H51234  10.300   6.614  -0.067 -0.5620  1.0190  0.5825
  380MOL0     H51235  10.012   6.295  -0.026 -2.2996 -0.3269  0.3022
  380MOL0     H51236   9.995   6.391   0.122  0.0851 -0.0887  0.4779
  380MOL0     H51237   9.874   6.558  -0.024  0.0812  0.4023 -1.6844
  380MOL0     H51238   9.916   6.462  -0.165  1.5094  1.8934  0.7213
  380MOL0     H51239   9.797   6.274  -0.082 -1.5785  0.1370 -0.9821
  380MOL0     H51240   9.753   6.361   0.075 -0.4039  0.0377 -0.5599
  380MOL0     H51241   9.631   6.521  -0.099  0.7560 -0.5574  1.8209
  380MOL0     H51242   9.671   6.396  -0.220 -1.2396 -0.8018  0.4693
  380MOL0     H51243   9.550   6.232  -0.063 -2.6626 -0.5903  3.0841
  380MOL0     H51244   9.511   6.357   0.042 -3.6709 -0.0990 -0.7806
  380MOL0     H51245   9.317   6.307  -0.105 -0.7758  3.2321  0.4550
  380MOL0     H51246   9.375   6.454  -0.169 -0.9235 -1.0141 -2.6895
  380MOL0     H51247   9.316   6.267  -0.325 -1.3498  0.9217 -0.1898
  380MOL0     H51248   9.460   6.357  -0.365  0.3465  1.6685  2.4125
  380MOL0     H51249   9.590   6.154  -0.267  0.0259  2.6069 -0.5739
  380MOL0     H51250   9.488   6.101  -0.400  1.8443 -1.3127 -0.1747
  380MOL0     H51251   9.271   5.944  -0.363  1.3686  2.0845 -0.9147
  380MOL0     H51252   9.256   5.667  -0.168  0.2572 -0.4349  1.6533
  380MOL0     H51253   9.163   5.738  -0.031 -2.9187  0.9768 -0.2875
  380MOL0     H51254   9.097   5.792  -0.319  1.6638  3.8578  0.8168
  380MOL0     H51255   9.015   5.862  -0.191 -0.3343  0.9719 -4.3948
  380MOL0     H51256   8.891   5.651  -0.249  0.1765 -0.3803 -0.3401
  380MOL0     H51257   8.962   5.630  -0.088 -0.1833  0.9536 -0.7991
  380MOL0     H51258   9.137   5.507  -0.232  1.0437  1.7466 -2.8619
  380MOL0     H51259   9.001   5.510  -0.361 -3.3490 -2.5338  0.9843
  380MOL0     H51260   8.911   5.206  -0.056  1.2213  1.0628  0.7250
  380MOL0     H51261   8.985   4.909  -0.006 -2.2286 -1.9676 -0.3583
  380MOL0     H51262   8.829   4.974  -0.023 -0.7423  0.0640 -2.0564
  380MOL0     H51263   8.878   4.846  -0.134  1.0834 -0.6726 -0.5502
  380MOL0     H51264   9.169   4.745  -0.634 -0.6538 -0.2529  2.8392
  380MOL0     H51265   9.173   4.503  -0.726  0.4108 -0.7027  0.6944
  380MOL0     H51266   8.796   4.252  -0.808 -0.5566  1.0403  1.3579
  380MOL0     H51267   8.788   4.417  -0.856 -1.3593 -1.2094 -2.6662
  380MOL0     H51268   8.822   4.318  -1.057 -1.0451  2.7755  0.6082
  380MOL0     H51269   8.982   4.382  -1.013 -0.9816  2.2136  2.2800
  380MOL0     H51270   8.886   4.094  -1.024 -0.6850 -0.1173 -0.2751
  380MOL0     H51271   9.020   4.134  -0.914 -0.5022  0.4490  0.2138
  380MOL0     H51272   9.009   4.206  -1.213 -0.9742  1.9796  2.4113
  380MOL0     H51273   9.147   4.236  -1.092 -2.0742  2.0165  2.8344
  380MOL0     H51274   9.048   3.965  -1.177  0.1853 -0.2182 -0.6704
  380MOL0     H51275   9.166   4.003  -1.058 -2.8852  1.5949  1.9923
  380MOL0     H51276   9.200   4.065  -1.353  1.3772 -2.8664 -2.5857
  380MOL0     H51277   9.317   4.119  -1.229 -1.4683  1.1420 -0.0501
  380MOL0     H51278   9.248   3.824  -1.240  0.3352 -1.0422 -1.2429
  380MOL0     H51279   9.402   3.902  -1.195 -0.8045 -2.3750 -0.2199
  380MOL0     H51280   9.290   3.899  -1.481  0.4994  1.2112 -0.9747
  380MOL0     H51281   9.409   3.781  -1.418 -0.8744 -0.0440  1.2536
  380MOL0     H51282   8.753   4.478  -0.661  1.0021 -1.2511 -0.1178
  380MOL0     H51283   8.765   4.699  -0.544 -2.0130 -2.7259 -2.7313
  380MOL0     H51284   9.127   5.089  -0.495  1.3655  1.2730  0.4154
  380MOL0     H51285   9.117   5.319  -0.411  1.8334 -0.3271  0.2770
  380MOL0     H51286  10.196   6.292   0.183  1.1948 -0.4355  0.5175
  380MOL0     H51287  10.423   6.313   0.299  1.0169  1.5022  1.5213
  380MOL0     H51288  10.766   6.604   0.422  0.5657  1.5330 -0.6219
  380MOL0     H51289  10.988   6.627   0.507 -1.1033  0.3538 -0.0148
  380MOL0     H51290  11.427   6.547   0.354  0.6503  1.8973 -1.7579
  380MOL0     H51291  11.344   6.413   0.302  2.8417  0.5135  0.9911
  380MOL0     H51292  11.280   6.550   0.093 -0.7788  2.5067 -0.0784
  380MOL0     H51293  11.445   6.556   0.122 -0.7386 -0.2222 -1.5549
  380MOL0     H51294  11.219   6.761   0.139  0.6385  0.1873 -0.6911
  380MOL0     H51295  11.381   6.777   0.072  0.6088  1.0131  0.5451
  380MOL0     H51296  11.317   6.811   0.365 -0.7932 -0.8560 -0.1682
  380MOL0     H51297  11.372   6.938   0.260  2.0801 -0.6291  1.5689
  380MOL0     H51298  11.709   6.688   0.348 -0.0172 -0.1590 -0.6902
  380MOL0     H51299  11.150   6.372   0.213  2.1125  0.1274  2.7638
  380MOL0     H51300  10.923   6.313   0.134 -0.8431  0.0899  0.3093
  381MOL0     O51301   3.707   9.678   1.669  0.1725  0.2557 -0.2535
  381MOL0     C51302   3.759   9.759   1.746 -0.5579 -0.0973  0.5189
  381MOL0     O51303   3.691   9.860   1.813 -0.4106 -1.1910 -0.6971
  381MOL0     C51304   3.562   9.888   1.788 -0.1755 -0.6740 -0.5961
  381MOL0     C51305   3.457   9.823   1.843 -0.5960  0.0821 -0.2941
  381MOL0     C51306   3.319   9.861   1.813 -0.9881 -0.0964 -0.8502
  381MOL0     C51307   3.297   9.979   1.739 -0.0292 -0.4337  0.3289
  381MOL0     O51308   3.175  10.026   1.720  0.2056  0.0593 -0.5330
  381MOL0     C51309   3.102   9.944   1.623 -0.5454 -0.4214  0.0988
  381MOL0     C51310   2.975   9.894   1.681  0.4084 -0.1096 -0.1328
  381MOL0     C51311   2.901   9.793   1.592 -0.4300 -0.0520  0.2275
  381MOL0     C51312   2.761   9.781   1.645  1.2384 -0.4366 -0.1713
  381MOL0     C51313   2.666   9.731   1.530 -0.2504 -0.0287  0.8359
  381MOL0     C51314   2.531   9.690   1.592 -0.2196 -0.5364  0.0438
  381MOL0     C51315   2.434   9.648   1.480 -0.7008 -0.5528  0.1537
  381MOL0     C51316   2.318   9.554   1.532  0.0939 -0.0838 -0.0403
  381MOL0     N51317   2.236   9.494   1.427 -0.8441  0.6288  0.8133
  381MOL0     C51318   2.176   9.367   1.420 -0.0510 -0.5809 -0.5569
  381MOL0     C51319   2.097   9.365   1.320 -0.6140 -0.6293 -0.3487
  381MOL0     C51320   2.004   9.254   1.268 -0.7190 -0.2641  0.6194
  381MOL0     C51321   1.856   9.297   1.244 -0.3698  0.0332 -0.4867
  381MOL0     C51322   1.758   9.181   1.221 -0.3629 -0.7106 -0.2787
  381MOL0     C51323   1.613   9.233   1.221 -0.2612  0.0397  0.1629
  381MOL0     O51324   1.524   9.125   1.182 -0.4456  0.0489 -0.2264
  381MOL0     C51325   1.392   9.128   1.226 -0.3414 -0.5667 -0.0211
  381MOL0     C51326   1.314   9.026   1.177  0.4212  0.5570 -0.8154
  381MOL0     C51327   1.179   9.014   1.216  0.9578 -0.3303 -0.4717
  381MOL0     C51328   1.101   8.895   1.165 -1.0509 -0.4432  0.4162
  381MOL0     C51329   1.119   9.107   1.299 -0.2451  0.2310 -0.4790
  381MOL0     C51330   0.990   9.095   1.352 -0.5425 -0.1628 -0.5685
  381MOL0     O51331   0.929   9.217   1.373  0.2866 -0.4253 -0.0274
  381MOL0     C51332   0.802   9.239   1.428  0.2170  0.5125 -0.0819
  381MOL0     C51333   0.700   9.149   1.424  0.4235  0.1903  0.0858
  381MOL0     C51334   0.576   9.168   1.493  0.5143  0.6776  0.5782
  381MOL0     C51335   0.547   9.288   1.563  0.0409 -0.1331  0.7030
  381MOL0     O51336   0.423   9.301   1.613  0.2235 -0.1937 -0.2679
  381MOL0     C51337   0.380   9.430   1.643  0.8633 -0.5001  0.7333
  381MOL0     C51338   0.245   9.425   1.719  0.3433 -0.5352  0.3741
  381MOL0     C51339   0.124   9.386   1.621  0.0658  0.7209 -0.4818
  381MOL0     C51340  -0.008   9.369   1.700 -0.2116  0.7149  0.5548
  381MOL0     C51341  -0.027   9.220   1.747 -0.4357 -0.3550  0.7933
  381MOL0     C51342  -0.165   9.182   1.807 -0.1186 -1.4266 -0.4435
  381MOL0     C51343  -0.196   9.034   1.784  0.4006 -1.1328 -0.0245
  381MOL0     C51344  -0.285   8.971   1.894  0.3992  0.0837 -0.6314
  381MOL0    Cl51345  -0.442   9.040   1.914  0.2221 -0.4162 -0.1621
  381MOL0     C51346   0.651   9.387   1.560  0.2203  0.1599  0.8581
  381MOL0     C51347   0.778   9.360   1.503  0.9804 -0.6025 -0.2879
  381MOL0     O51348   0.946   8.992   1.395 -0.0737 -0.2229 -0.0091
  381MOL0     C51349   1.200   9.214   1.349 -0.1270 -0.4068 -0.2094
  381MOL0     C51350   1.334   9.222   1.311  0.3829  0.4424 -0.2769
  381MOL0     N51351   2.099   9.485   1.255  0.2109 -0.2526 -0.0769
  381MOL0     N51352   2.183   9.562   1.313 -0.4441 -0.2578 -0.2659
  381MOL0     C51353   3.403  10.047   1.693 -0.4522 -0.5897 -0.1188
  381MOL0     C51354   3.535  10.008   1.724 -1.5235  0.3476 -0.8384
  381MOL0     C51355   3.905   9.746   1.773  0.5793  0.1137  0.7058
  381MOL0     C51356   3.972   9.629   1.743 -0.0460  0.3994  0.3554
  381MOL0     C51357   4.108   9.621   1.767 -0.1998  0.7276 -0.0089
  381MOL0     C51358   4.177   9.719   1.828 -0.2871  0.3331 -0.0094
  381MOL0     O51359   4.303   9.693   1.870  0.4999  0.2396 -0.2276
  381MOL0     C51360   4.334   9.738   2.002  0.2040 -0.4144 -0.7897
  381MOL0     C51361   4.472   9.698   2.047 -0.2580  0.2975  0.2666
  381MOL0     C51362   4.506   9.543   2.059  0.0800 -0.4293 -0.2484
  381MOL0     C51363   4.543   9.474   1.927  0.2114 -0.3807  0.0177
  381MOL0     C51364   4.651   9.378   1.937  0.1084 -0.0198 -0.4743
  381MOL0     C51365   4.751   9.307   1.954 -0.0447  0.1001  0.3553
  381MOL0     C51366   4.110   9.839   1.859  0.2360  0.2017 -0.1460
  381MOL0     C51367   3.976   9.848   1.825 -0.2917  0.3552 -0.8105
  381MOL0     H51368   3.482   9.742   1.912  0.2077  1.4784  1.1043
  381MOL0     H51369   3.246   9.794   1.858 -0.3407  0.7521  1.5989
  381MOL0     H51370   3.094  10.009   1.535 -1.6582  1.5518  1.5699
  381MOL0     H51371   3.155   9.852   1.598  0.4554  0.4877 -1.2481
  381MOL0     H51372   2.993   9.849   1.779  1.1636  0.0650 -0.1853
  381MOL0     H51373   2.924   9.990   1.694 -0.0328 -0.3158 -0.3179
  381MOL0     H51374   2.897   9.828   1.489  0.7387 -0.6079 -0.0172
  381MOL0     H51375   2.959   9.701   1.597 -1.9393 -1.0415  0.2699
  381MOL0     H51376   2.762   9.714   1.732 -1.8644 -0.5431 -0.1158
  381MOL0     H51377   2.732   9.872   1.698  0.0409 -1.7840  1.6270
  381MOL0     H51378   2.648   9.816   1.462 -0.1201  1.1863  2.2695
  381MOL0     H51379   2.716   9.652   1.474  1.3939  0.9483  0.8695
  381MOL0     H51380   2.547   9.605   1.658  2.8603  1.0889  1.6330
  381MOL0     H51381   2.489   9.780   1.639  0.8678  1.3578 -2.3972
  381MOL0     H51382   2.391   9.743   1.446 -1.5448 -0.9283  0.1426
  381MOL0     H51383   2.478   9.589   1.399  0.1565  1.2378 -0.7475
  381MOL0     H51384   2.251   9.607   1.601  1.0198  1.4705 -0.2720
  381MOL0     H51385   2.366   9.472   1.585  0.3689 -1.0206 -1.6813
  381MOL0     H51386   2.199   9.299   1.501  2.7153  1.3845  0.4274
  381MOL0     H51387   2.035   9.207   1.174  1.5502 -1.7151  2.0000
  381MOL0     H51388   2.000   9.173   1.342  1.3382 -1.5133 -0.5548
  381MOL0     H51389   1.878   9.358   1.156  1.7210  0.7723  0.4820
  381MOL0     H51390   1.816   9.361   1.323 -2.1090 -2.0253  0.3972
  381MOL0     H51391   1.764   9.112   1.305 -2.3162  0.5556  0.9822
  381MOL0     H51392   1.791   9.134   1.128  4.2337  2.1297 -0.4380
  381MOL0     H51393   1.603   9.323   1.159  2.5415  0.8193  0.6830
  381MOL0     H51394   1.590   9.260   1.324 -0.5712 -0.3581  0.2001
  381MOL0     H51395   1.369   8.947   1.128  1.3175 -1.4746  3.0541
  381MOL0     H51396   1.162   8.832   1.099  0.7432 -1.5299  2.9539
  381MOL0     H51397   1.090   8.833   1.255  1.1782 -1.1874  0.2622
  381MOL0     H51398   1.008   8.928   1.118 -1.1708 -0.0512  0.9299
  381MOL0     H51399   0.713   9.050   1.380 -2.8498 -0.9912  1.3879
  381MOL0     H51400   0.503   9.088   1.499  1.3475 -0.4612 -2.6465
  381MOL0     H51401   0.455   9.483   1.702  0.4352  0.8755  0.1050
  381MOL0     H51402   0.376   9.486   1.549 -0.1702  2.0757  2.1990
  381MOL0     H51403   0.259   9.358   1.805  1.2221 -2.3031 -1.0724
  381MOL0     H51404   0.222   9.528   1.750  1.9677 -0.1992  0.5751
  381MOL0     H51405   0.164   9.296   1.575 -0.1042  0.5602 -0.3192
  381MOL0     H51406   0.106   9.462   1.544 -3.2401 -0.2363 -0.8237
  381MOL0     H51407   0.001   9.435   1.787 -1.6048 -1.8340  2.7723
  381MOL0     H51408  -0.088   9.410   1.637 -0.2954  1.0660  0.8836
  381MOL0     H51409   0.053   9.198   1.818  0.7650  1.0027 -0.0680
  381MOL0     H51410  -0.011   9.161   1.656 -0.2506  1.0067 -0.0819
  381MOL0     H51411  -0.151   9.192   1.915  0.6870 -1.6086 -0.5310
  381MOL0     H51412  -0.251   9.244   1.778 -0.2037 -0.7755  1.0852
  381MOL0     H51413  -0.098   8.986   1.772  1.6758  1.3299 -0.2389
  381MOL0     H51414  -0.246   9.021   1.688  2.0594  0.0345 -1.0965
  381MOL0     H51415  -0.239   8.979   1.993 -0.8063  0.0753 -0.0633
  381MOL0     H51416  -0.304   8.870   1.856  4.8089 -0.2324 -2.7117
  381MOL0     H51417   0.637   9.485   1.604 -0.4396 -1.0720  3.6537
  381MOL0     H51418   0.855   9.436   1.518  0.1716  0.0733  0.5238
  381MOL0     H51419   1.160   9.285   1.421  2.8135 -2.0281  3.4136
  381MOL0     H51420   1.391   9.305   1.351  0.2407  0.8792 -0.9641
  381MOL0     H51421   3.388  10.144   1.646  0.1482  1.0441  2.8413
  381MOL0     H51422   3.616  10.070   1.689  0.2050 -1.0766  0.4487
  381MOL0     H51423   3.917   9.547   1.698 -1.0826  1.7717 -0.9482
  381MOL0     H51424   4.150   9.527   1.730 -0.5317  1.0353 -1.1894
  381MOL0     H51425   4.325   9.847   2.006 -0.2449 -0.4752  0.5073
  381MOL0     H51426   4.257   9.684   2.058  0.9291 -2.5778 -1.7772
  381MOL0     H51427   4.485   9.744   2.146 -0.5133  1.4818 -0.2360
  381MOL0     H51428   4.539   9.737   1.970 -1.1618 -0.5723 -0.9812
  381MOL0     H51429   4.425   9.492   2.111  1.0060  1.4435  3.4183
  381MOL0     H51430   4.588   9.527   2.129  0.2792  1.8018  0.1136
  381MOL0     H51431   4.572   9.549   1.853  1.1379  2.3190  2.8871
  381MOL0     H51432   4.451   9.424   1.895  1.3179 -1.4744 -1.5770
  381MOL0     H51433   4.836   9.249   1.984  0.8718  1.2213  0.0321
  381MOL0     H51434   4.153   9.930   1.899  1.1830  0.8992 -2.5991
  381MOL0     H51435   3.925   9.940   1.849 -0.5235  0.4756 -1.7131
  382MOL0     O51436   9.479   4.759   7.597 -0.0052 -0.1391 -0.0815
  382MOL0     C51437   9.576   4.838   7.600  0.8250  0.8889  0.1225
  382MOL0     O51438   9.562   4.971   7.638 -0.7274 -0.7082 -0.2817
  382MOL0     C51439   9.440   5.044   7.648 -0.3900  0.7012  0.5085
  382MOL0     C51440   9.450   5.177   7.648 -1.3464  0.0896 -0.3049
  382MOL0     C51441   9.338   5.258   7.658 -0.0924 -0.1462 -0.1491
  382MOL0     C51442   9.212   5.206   7.694 -0.2903 -0.4197  1.0882
  382MOL0     O51443   9.119   5.293   7.738 -0.4393 -0.6768 -0.1833
  382MOL0     C51444   9.000   5.250   7.799  0.2346  0.4681  0.2813
  382MOL0     C51445   8.900   5.201   7.692 -0.2846 -0.1445  0.2470
  382MOL0     C51446   8.794   5.103   7.735  1.0085 -0.3127 -0.3385
  382MOL0     C51447   8.680   5.071   7.643 -0.4359 -0.5412  0.8085
  382MOL0     C51448   8.537   5.121   7.688 -0.7733  1.3717 -0.3089
  382MOL0     C51449   8.510   5.271   7.693 -0.6488 -1.3897  0.0975
  382MOL0     C51450   8.387   5.312   7.777 -0.1138 -0.4775  0.9969
  382MOL0     C51451   8.255   5.292   7.703 -0.2900 -0.6190  0.1276
  382MOL0     N51452   8.144   5.338   7.783 -0.3382  0.4596 -0.5515
  382MOL0     C51453   8.111   5.470   7.798  0.6559 -0.4272 -0.5358
  382MOL0     C51454   8.010   5.471   7.889  0.7088  0.0275  0.2749
  382MOL0     C51455   7.936   5.584   7.958  0.5711 -0.3498  0.6954
  382MOL0     C51456   8.043   5.686   8.003  0.5434 -0.7235 -0.1822
  382MOL0     C51457   7.974   5.776   8.110 -0.2379 -0.3895 -0.2226
  382MOL0     C51458   7.885   5.888   8.058  0.1357 -0.5266  0.2235
  382MOL0     O51459   7.749   5.841   8.059 -0.3808 -0.0907  0.3149
  382MOL0     C51460   7.653   5.924   8.001 -0.2338 -0.9473 -0.1542
  382MOL0     C51461   7.671   6.054   7.955  0.2145 -0.6135 -0.5298
  382MOL0     C51462   7.565   6.127   7.890 -0.5676 -0.2295 -0.2344
  382MOL0     C51463   7.602   6.265   7.840  0.0817  0.1036  0.4753
  382MOL0     C51464   7.441   6.057   7.870 -0.6870 -0.5845 -1.0178
  382MOL0     C51465   7.332   6.109   7.789  0.2423  0.8751 -0.4710
  382MOL0     O51466   7.343   6.240   7.749 -0.4697  0.7310  0.0845
  382MOL0     C51467   7.250   6.298   7.667 -0.7199  0.7439 -1.3137
  382MOL0     C51468   7.216   6.249   7.543 -0.0303  0.1211  0.3314
  382MOL0     C51469   7.126   6.321   7.457 -0.8725 -0.8521  0.3346
  382MOL0     C51470   7.079   6.451   7.500 -0.1417  0.0070 -0.1135
  382MOL0     O51471   6.997   6.520   7.406 -0.0100 -0.0568 -0.0955
  382MOL0     C51472   6.953   6.654   7.442 -0.9883  0.1890  0.0641
  382MOL0     C51473   6.847   6.696   7.345 -0.1198 -0.2361  0.2391
  382MOL0     C51474   6.705   6.635   7.373  0.0047  0.4014  1.1346
  382MOL0     C51475   6.607   6.692   7.269  0.3460  0.9424 -0.0233
  382MOL0     C51476   6.476   6.605   7.293 -0.2019  0.4532 -0.0375
  382MOL0     C51477   6.356   6.653   7.214  0.8501  0.3141 -0.1074
  382MOL0     C51478   6.224   6.573   7.251  0.6257  0.6401  1.2363
  382MOL0     C51479   6.108   6.566   7.139 -0.0003 -0.3721  0.3608
  382MOL0    Cl51480   6.164   6.487   6.996  0.0261  0.3140  0.0583
  382MOL0     C51481   7.107   6.488   7.632 -0.1101 -1.1234  0.1761
  382MOL0     C51482   7.201   6.428   7.708  0.1166  1.5950 -0.0779
  382MOL0     O51483   7.244   6.034   7.748  0.1761 -0.0483  0.5862
  382MOL0     C51484   7.425   5.923   7.919 -0.4217 -0.5179  0.5041
  382MOL0     C51485   7.536   5.854   7.975  1.3113 -0.0620 -0.0283
  382MOL0     N51486   7.978   5.343   7.923  0.3447 -0.1646  0.4185
  382MOL0     N51487   8.056   5.258   7.848  0.1649 -0.5493 -0.1376
  382MOL0     C51488   9.195   5.065   7.679  0.1562  0.9257  0.3471
  382MOL0     C51489   9.308   4.987   7.648  0.6836  0.8021 -0.2259
  382MOL0     C51490   9.715   4.806   7.562  0.0265  0.1815  0.0914
  382MOL0     C51491   9.737   4.667   7.535  0.2241  0.1295 -0.2119
  382MOL0     C51492   9.863   4.619   7.502  0.0071  0.0834 -0.6344
  382MOL0     C51493   9.970   4.714   7.505 -0.3632 -0.5496 -0.5437
  382MOL0     O51494  10.101   4.689   7.485  0.1946  0.2331  0.0400
  382MOL0     C51495  10.128   4.554   7.439  0.3586  0.2367  0.2137
  382MOL0     C51496  10.281   4.550   7.408  0.6687 -0.5036 -0.5376
  382MOL0     C51497  10.334   4.424   7.352  0.1828  0.7281 -0.3196
  382MOL0     C51498  10.480   4.429   7.334  0.2092 -0.1376 -0.4048
  382MOL0     C51499  10.554   4.385   7.453  0.1624  0.4728  0.1653
  382MOL0     C51500  10.592   4.363   7.563 -0.2449  0.5078 -0.0314
  382MOL0     C51501   9.944   4.855   7.525 -0.6895 -0.3392  0.4206
  382MOL0     C51502   9.811   4.897   7.545 -0.1066 -0.4510 -0.5122
  382MOL0     H51503   9.549   5.222   7.649 -1.2012 -0.1787 -1.3492
  382MOL0     H51504   9.347   5.365   7.676 -0.6835 -0.0435 -0.4557
  382MOL0     H51505   9.016   5.168   7.870 -3.9020 -0.3151  0.5401
  382MOL0     H51506   8.958   5.333   7.857  1.1571  0.9200  0.3224
  382MOL0     H51507   8.841   5.285   7.656 -0.6095 -0.7930 -0.7676
  382MOL0     H51508   8.954   5.171   7.602 -1.2717  1.5398 -0.9594
  382MOL0     H51509   8.843   5.011   7.767 -1.1749 -0.7961  1.9168
  382MOL0     H51510   8.758   5.142   7.830  3.0881  3.4295 -0.8932
  382MOL0     H51511   8.693   5.126   7.550 -1.8329  0.0995  0.9808
  382MOL0     H51512   8.671   4.964   7.624  1.6353 -0.8679  1.4101
  382MOL0     H51513   8.471   5.072   7.617  0.0361  2.5024 -1.8808
  382MOL0     H51514   8.529   5.092   7.794  1.6315 -0.7937 -0.6089
  382MOL0     H51515   8.597   5.329   7.724 -0.5400  0.4036 -3.0482
  382MOL0     H51516   8.502   5.300   7.587 -0.8125  0.6993  0.6385
  382MOL0     H51517   8.382   5.250   7.867 -0.7703 -0.4568  0.9780
  382MOL0     H51518   8.389   5.420   7.796 -2.2600 -0.3287  0.6358
  382MOL0     H51519   8.241   5.186   7.681 -2.4246  0.4596 -5.1312
  382MOL0     H51520   8.256   5.349   7.610  1.1547 -2.6973 -1.2106
  382MOL0     H51521   8.157   5.555   7.749  1.2049 -0.4743 -0.1031
  382MOL0     H51522   7.865   5.640   7.895  1.9159  2.1381  1.2518
  382MOL0     H51523   7.881   5.546   8.045 -1.9020  1.1115 -0.1119
  382MOL0     H51524   8.083   5.751   7.925  0.8997  0.4732  0.9461
  382MOL0     H51525   8.127   5.637   8.055  0.0867  0.4403  1.7829
  382MOL0     H51526   8.062   5.829   8.149  0.4605 -0.5357 -1.5592
  382MOL0     H51527   7.924   5.719   8.189 -0.1760  2.1478  1.7785
  382MOL0     H51528   7.915   5.918   7.958 -0.3443 -0.3938  0.1204
  382MOL0     H51529   7.909   5.979   8.114 -1.2537  0.5005 -0.8094
  382MOL0     H51530   7.763   6.108   7.971  0.0666 -0.3430 -0.5775
  382MOL0     H51531   7.709   6.284   7.837  0.3752 -1.4498 -1.2730
  382MOL0     H51532   7.578   6.275   7.734  2.1358  0.4626  0.0087
  382MOL0     H51533   7.560   6.348   7.897 -1.9784 -1.1044  0.8281
  382MOL0     H51534   7.269   6.156   7.524  0.7953 -0.1142  3.2324
  382MOL0     H51535   7.093   6.278   7.363 -2.3071  0.9856 -0.0650
  382MOL0     H51536   6.902   6.654   7.538 -1.8872  0.2774 -0.3972
  382MOL0     H51537   7.031   6.731   7.443  2.2417 -2.8333 -0.2588
  382MOL0     H51538   6.850   6.805   7.348  0.5874 -0.2747  2.0640
  382MOL0     H51539   6.876   6.670   7.243 -1.1780  2.2489 -0.7540
  382MOL0     H51540   6.667   6.681   7.464 -3.2093  1.3103 -0.5081
  382MOL0     H51541   6.687   6.527   7.373 -3.4126  0.8356  2.2590
  382MOL0     H51542   6.594   6.800   7.286  1.9575  1.4308 -1.5048
  382MOL0     H51543   6.637   6.684   7.164  0.2902  3.8933 -0.3682
  382MOL0     H51544   6.447   6.605   7.399 -3.6069  1.9893 -0.8206
  382MOL0     H51545   6.492   6.502   7.260  2.7070  0.6432  0.5146
  382MOL0     H51546   6.333   6.760   7.222 -0.0812  0.5002 -3.5792
  382MOL0     H51547   6.364   6.630   7.108  1.5932 -1.0263  0.2213
  382MOL0     H51548   6.192   6.614   7.347  0.0584  2.2111  0.4170
  382MOL0     H51549   6.248   6.469   7.275 -0.4685 -0.4406 -1.8099
  382MOL0     H51550   6.077   6.668   7.117  0.0214 -0.2080  1.0804
  382MOL0     H51551   6.021   6.513   7.179 -0.2282  2.2140  3.6448
  382MOL0     H51552   7.058   6.575   7.674  0.3087  0.1745 -1.8796
  382MOL0     H51553   7.225   6.491   7.794 -1.0889  2.9478 -0.6897
  382MOL0     H51554   7.331   5.871   7.903 -0.9102  0.5460 -0.2290
  382MOL0     H51555   7.526   5.755   8.018 -1.1539  1.3609  3.1650
  382MOL0     H51556   9.100   5.013   7.686 -0.2523  1.3033 -1.7376
  382MOL0     H51557   9.286   4.882   7.631  1.3903  0.7554 -0.9389
  382MOL0     H51558   9.653   4.599   7.543  2.1258 -2.8424 -2.8805
  382MOL0     H51559   9.878   4.511   7.501 -0.1018  0.0016  1.6461
  382MOL0     H51560  10.099   4.477   7.511  1.2894 -2.0126 -1.6806
  382MOL0     H51561  10.062   4.534   7.354  1.3488  1.0339 -0.7749
  382MOL0     H51562  10.342   4.574   7.496  1.0631 -0.9226 -0.6917
  382MOL0     H51563  10.289   4.632   7.336 -3.3331 -2.2449 -3.3413
  382MOL0     H51564  10.271   4.429   7.263 -2.3173 -0.2277  1.2922
  382MOL0     H51565  10.306   4.344   7.422 -1.2678 -0.2015 -1.8928
  382MOL0     H51566  10.512   4.529   7.305 -2.2105  0.5598 -0.9220
  382MOL0     H51567  10.498   4.355   7.256 -2.2892 -1.2841 -0.0042
  382MOL0     H51568  10.626   4.336   7.661 -0.4835 -3.2196 -0.8436
  382MOL0     H51569  10.036   4.913   7.527 -0.1589 -1.1544 -0.0287
  382MOL0     H51570   9.775   4.999   7.559 -3.4064 -1.8097  2.4962
  383MOL0     O51571   9.532   0.465  10.683 -0.6943  0.8108 -0.8049
  383MOL0     C51572   9.604   0.384  10.630 -1.4772 -0.1928 -0.7191
  383MOL0     O51573   9.584   0.251  10.621 -0.7297 -0.2806  0.6292
  383MOL0     C51574   9.468   0.208  10.670  1.0774  0.0643  1.0714
  383MOL0     C51575   9.349   0.213  10.597  0.6875  0.1859 -0.6536
  383MOL0     C51576   9.229   0.163  10.653 -0.5300  0.2315  0.6011
  383MOL0     C51577   9.236   0.093  10.773 -0.0100 -0.0004 -0.2286
  383MOL0     O51578   9.127   0.039  10.840 -0.6706  0.2570  0.1578
  383MOL0     C51579   8.993   0.070  10.799  0.1974  0.1939 -0.3890
  383MOL0     C51580   8.893   0.048  10.909  0.6544  0.5745  0.3510
  383MOL0     C51581   8.748   0.040  10.855  0.0930 -0.0864  0.3184
  383MOL0     C51582   8.648   0.022  10.964 -0.1747 -0.0852  0.4187
  383MOL0     C51583   8.507   0.003  10.902 -0.2501  0.0141 -0.5128
  383MOL0     C51584   8.387   0.038  10.987 -0.1156  0.3713 -0.3803
  383MOL0     C51585   8.259   0.042  10.907 -0.3879 -0.0323  0.1460
  383MOL0     C51586   8.199  -0.095  10.892  0.6218  0.1136  0.8614
  383MOL0     N51587   8.105  -0.102  10.773 -0.2006 -0.1505 -0.5260
  383MOL0     C51588   7.999  -0.020  10.751  0.4657  0.2534 -0.0095
  383MOL0     C51589   7.929  -0.080  10.647  0.4803  0.2302  0.2485
  383MOL0     C51590   7.805  -0.035  10.594  0.6548  0.2437 -0.7817
  383MOL0     C51591   7.814   0.027  10.455 -0.5234 -0.2951 -0.6628
  383MOL0     C51592   7.684   0.053  10.385 -0.2958 -0.4518  0.1751
  383MOL0     C51593   7.589  -0.059  10.343 -0.3318 -0.7027  1.0553
  383MOL0     O51594   7.649  -0.159  10.266  0.8387 -0.0045  0.6442
  383MOL0     C51595   7.575  -0.219  10.170  0.8217  0.3933 -0.1271
  383MOL0     C51596   7.538  -0.160  10.052  0.8264 -0.7625  0.4634
  383MOL0     C51597   7.444  -0.216   9.965 -0.3496  0.3460  0.8796
  383MOL0     C51598   7.381  -0.120   9.869  0.2039  0.1233  0.7754
  383MOL0     C51599   7.407  -0.350   9.986  0.2091  0.1499  0.1589
  383MOL0     C51600   7.328  -0.423   9.886 -0.5321 -0.3691  0.2871
  383MOL0     O51601   7.227  -0.496   9.934  0.7070  0.1690  0.6408
  383MOL0     C51602   7.122  -0.513   9.847 -0.4744 -0.1750 -0.5612
  383MOL0     C51603   7.077  -0.645   9.829 -0.5209  0.1797  0.8069
  383MOL0     C51604   6.965  -0.669   9.756  0.1662 -0.1069  0.4748
  383MOL0     C51605   6.883  -0.571   9.693  0.0959 -0.4070 -0.4054
  383MOL0     O51606   6.765  -0.604   9.639 -0.3758 -0.4106 -0.7110
  383MOL0     C51607   6.655  -0.511   9.614  0.2133  0.4108 -0.6549
  383MOL0     C51608   6.536  -0.600   9.582  0.1039 -0.1949 -0.8033
  383MOL0     C51609   6.552  -0.667   9.444  0.0114  0.3523 -0.0922
  383MOL0     C51610   6.531  -0.572   9.322  0.1257 -0.4269 -1.2577
  383MOL0     C51611   6.607  -0.634   9.206  0.1290 -0.9275  0.3091
  383MOL0     C51612   6.636  -0.526   9.107  0.5217 -0.0963  0.4510
  383MOL0     C51613   6.701  -0.578   8.980  0.4414 -0.1453  0.0736
  383MOL0     C51614   6.722  -0.452   8.885  0.4603  0.1419 -0.4573
  383MOL0    Cl51615   6.848  -0.349   8.931  0.0510  0.7614  0.5915
  383MOL0     C51616   6.927  -0.440   9.708 -0.8795 -0.4821  0.0199
  383MOL0     C51617   7.041  -0.409   9.789  0.2919  0.8463  0.2011
  383MOL0     O51618   7.362  -0.402   9.770  0.6096 -0.4724  0.6904
  383MOL0     C51619   7.440  -0.412  10.104 -0.4465  0.6472 -0.0326
  383MOL0     C51620   7.519  -0.344  10.195  0.6657 -0.7309 -0.0162
  383MOL0     N51621   7.996  -0.194  10.616 -0.2453  1.0483  0.3874
  383MOL0     N51622   8.105  -0.207  10.688  0.0761 -0.0019 -0.6560
  383MOL0     C51623   9.359   0.088  10.836  0.2771  0.4164  0.1379
  383MOL0     C51624   9.472   0.144  10.786  0.1549 -0.8267 -0.0465
  383MOL0     C51625   9.747   0.427  10.596  0.2307 -0.6602  0.1330
  383MOL0     C51626   9.794   0.556  10.623  0.1610  0.2696  0.2027
  383MOL0     C51627   9.913   0.593  10.574 -1.2980  0.3226  0.3578
  383MOL0     C51628  10.006   0.515  10.510  1.1546 -0.5174  0.0067
  383MOL0     O51629  10.139   0.553  10.479  0.3002 -0.4493 -0.0428
  383MOL0     C51630  10.173   0.692  10.486  0.9725  0.0316 -0.3774
  383MOL0     C51631  10.103   0.781  10.381 -0.3921 -0.4840  1.2427
  383MOL0     C51632  10.166   0.781  10.233  0.2013  0.2583  0.6542
  383MOL0     C51633  10.090   0.689  10.141  0.8276 -0.6566 -0.3808
  383MOL0     C51634  10.166   0.661  10.021  0.0732  0.2246 -0.0348
  383MOL0     C51635  10.228   0.630   9.920  0.6272  0.6259 -0.3904
  383MOL0     C51636   9.952   0.393  10.476 -0.0678  0.5005  0.0679
  383MOL0     C51637   9.827   0.345  10.517 -0.5166 -0.9838  0.0284
  383MOL0     H51638   9.347   0.247  10.494 -2.0223 -0.5051 -0.8992
  383MOL0     H51639   9.134   0.193  10.609 -1.0599  3.2376  3.3763
  383MOL0     H51640   8.982   0.173  10.766 -0.4231  1.1713  2.5638
  383MOL0     H51641   8.966   0.002  10.717 -2.7076  1.6827 -0.7801
  383MOL0     H51642   8.924  -0.043  10.961  0.3941  0.0546 -0.3888
  383MOL0     H51643   8.893   0.124  10.988 -0.4803  1.8613 -0.8173
  383MOL0     H51644   8.726   0.136  10.808 -0.2371  0.4302  1.4833
  383MOL0     H51645   8.749  -0.047  10.789 -0.0224 -0.7280  1.1533
  383MOL0     H51646   8.672  -0.071  11.016 -1.3034 -1.3817 -1.2706
  383MOL0     H51647   8.655   0.102  11.039 -0.7783  0.9638 -0.6099
  383MOL0     H51648   8.507   0.063  10.811  1.2786  1.5254  0.4211
  383MOL0     H51649   8.498  -0.103  10.874 -0.0541 -0.4381  1.0138
  383MOL0     H51650   8.370  -0.031  11.070  1.7787 -1.0737 -1.1273
  383MOL0     H51651   8.406   0.134  11.035  1.2999 -0.3190  0.4819
  383MOL0     H51652   8.188   0.102  10.963 -3.5652  0.1280 -3.6335
  383MOL0     H51653   8.266   0.094  10.811  0.1147  0.7430  0.5903
  383MOL0     H51654   8.132  -0.115  10.976 -3.8663 -0.0948 -2.3475
  383MOL0     H51655   8.275  -0.172  10.882  1.7392  1.3870 -1.3797
  383MOL0     H51656   7.963   0.071  10.797  1.7689 -0.0565  1.6788
  383MOL0     H51657   7.736  -0.120  10.584 -0.3932  1.1967 -2.0427
  383MOL0     H51658   7.767   0.041  10.662  1.5635 -0.3589  0.4482
  383MOL0     H51659   7.882  -0.035  10.396  1.4168 -0.2246  1.3337
  383MOL0     H51660   7.872   0.119  10.464 -1.7368  0.7129 -2.5412
  383MOL0     H51661   7.691   0.112  10.293 -2.1160  1.8734  1.4068
  383MOL0     H51662   7.621   0.110  10.454  1.3811  1.2010  0.4287
  383MOL0     H51663   7.507  -0.016  10.285  0.8614  2.0304  1.2879
  383MOL0     H51664   7.538  -0.106  10.428 -2.4771 -1.1680 -0.4018
  383MOL0     H51665   7.572  -0.058  10.035  1.4058 -1.0601 -0.2481
  383MOL0     H51666   7.426  -0.111   9.770  0.8748 -1.0742  0.9552
  383MOL0     H51667   7.277  -0.153   9.859  0.2759  0.3758 -1.2156
  383MOL0     H51668   7.377  -0.021   9.917 -1.5582  0.1830  0.5909
  383MOL0     H51669   7.134  -0.729   9.869  1.5800 -0.2568 -2.7214
  383MOL0     H51670   6.929  -0.770   9.739  0.2255  0.4797 -5.2847
  383MOL0     H51671   6.630  -0.447   9.699 -0.5531 -1.2555  0.4373
  383MOL0     H51672   6.675  -0.442   9.532 -0.1793  0.9311 -0.3175
  383MOL0     H51673   6.538  -0.683   9.654 -0.9039  1.1363  0.8458
  383MOL0     H51674   6.440  -0.547   9.579  0.6596  0.8090 -1.2500
  383MOL0     H51675   6.488  -0.754   9.424  2.4845 -1.0998 -2.5313
  383MOL0     H51676   6.655  -0.705   9.444  0.2891  1.1064 -0.3801
  383MOL0     H51677   6.423  -0.566   9.310 -0.0865 -0.7959  0.2105
  383MOL0     H51678   6.569  -0.471   9.336 -2.3301  0.3346  0.7754
  383MOL0     H51679   6.550  -0.717   9.163 -1.4029 -0.4360  1.3353
  383MOL0     H51680   6.706  -0.667   9.241 -0.8905 -1.4336  2.9476
  383MOL0     H51681   6.547  -0.470   9.078  0.8920  0.5798  0.5878
  383MOL0     H51682   6.708  -0.456   9.151  1.0001 -1.0828  1.2819
  383MOL0     H51683   6.632  -0.651   8.937 -0.0095  0.3089  0.0184
  383MOL0     H51684   6.797  -0.630   8.988 -1.1716 -3.3818  0.0364
  383MOL0     H51685   6.627  -0.400   8.873  0.5087 -0.0299 -1.7610
  383MOL0     H51686   6.745  -0.482   8.782 -0.0534 -3.6905  0.3722
  383MOL0     H51687   6.879  -0.353   9.664 -1.3123 -0.4701  0.5013
  383MOL0     H51688   7.065  -0.305   9.807  1.3638  0.3886  1.5286
  383MOL0     H51689   7.413  -0.515  10.128  0.2305  0.3498 -0.5088
  383MOL0     H51690   7.566  -0.401  10.274  2.7123  3.1433  1.8213
  383MOL0     H51691   9.356   0.038  10.933  1.0208  2.4836  1.2770
  383MOL0     H51692   9.556   0.131  10.852 -1.1923  0.7320  2.1208
  383MOL0     H51693   9.750   0.631  10.688  3.1258  1.5397  0.9198
  383MOL0     H51694   9.928   0.695  10.607 -1.0206 -0.7992  4.1883
  383MOL0     H51695  10.147   0.725  10.587 -0.0400 -2.4118  0.2390
  383MOL0     H51696  10.279   0.698  10.463  1.2155 -0.4886  0.5581
  383MOL0     H51697  10.108   0.882  10.422 -1.0935  1.1541 -2.3407
  383MOL0     H51698   9.996   0.758  10.379 -0.0256 -2.4279  1.0685
  383MOL0     H51699  10.265   0.736  10.241  1.0097  1.9643  0.6761
  383MOL0     H51700  10.172   0.882  10.191 -1.2098 -1.0682 -3.1775
  383MOL0     H51701   9.988   0.724  10.123  0.3811 -1.8043 -0.1710
  383MOL0     H51702  10.085   0.598  10.200  4.2988 -1.2165 -0.7385
  383MOL0     H51703  10.294   0.591   9.844  4.6073  4.0895  0.9114
  383MOL0     H51704  10.011   0.319  10.423 -1.8169 -2.1415  1.5682
  383MOL0     H51705   9.789   0.249  10.485 -3.4441  0.5267 -1.4431
  384MOL0     O51706   0.173  11.002   2.148  0.1319 -0.3498  0.1619
  384MOL0     C51707   0.194  10.900   2.084  1.5097 -0.0426 -0.1621
  384MOL0     O51708   0.095  10.832   2.018  0.6724  0.1291  0.8054
  384MOL0     C51709  -0.034  10.862   2.051 -0.0248 -0.4152  0.0093
  384MOL0     C51710  -0.088  10.796   2.159 -0.5393 -0.0287 -0.4738
  384MOL0     C51711  -0.217  10.824   2.198 -0.8448 -0.6487 -0.3268
  384MOL0     C51712  -0.291  10.925   2.127  0.0482 -1.0395  0.3459
  384MOL0     O51713  -0.412  10.968   2.175 -0.5060  0.0411  0.0969
  384MOL0     C51714  -0.507  10.876   2.231 -0.9430  0.2545  0.4541
  384MOL0     C51715  -0.600  10.824   2.120  0.0304 -0.1235 -0.6216
  384MOL0     C51716  -0.518  10.731   2.019 -0.4267 -0.0615 -0.1132
  384MOL0     C51717  -0.613  10.683   1.910 -0.2177 -0.7138 -0.4007
  384MOL0     C51718  -0.693  10.552   1.956 -1.1443 -0.3117  0.2380
  384MOL0     C51719  -0.757  10.477   1.841 -0.1395  0.0564  0.6888
  384MOL0     C51720  -0.846  10.354   1.885  0.0114 -0.6025 -0.0022
  384MOL0     C51721  -0.907  10.281   1.757 -0.3925  0.3056 -0.8859
  384MOL0     N51722  -1.006  10.175   1.772  0.1702 -0.1514 -0.5019
  384MOL0     C51723  -1.080  10.148   1.885  0.0604  0.0260 -0.2322
  384MOL0     C51724  -1.148  10.030   1.868 -0.2126  0.3491 -0.4352
  384MOL0     C51725  -1.252   9.970   1.951 -0.2931 -0.1882 -0.6707
  384MOL0     C51726  -1.364  10.082   1.976  0.2234  0.1498  0.0249
  384MOL0     C51727  -1.485  10.022   2.059 -0.2066 -1.1694  0.4855
  384MOL0     C51728  -1.614  10.106   2.035 -0.3396  0.2119 -0.8948
  384MOL0     O51729  -1.721  10.050   2.114 -0.5332  0.2413  0.9414
  384MOL0     C51730  -1.833  10.122   2.135  0.3520 -0.3026  0.0672
  384MOL0     C51731  -1.888  10.224   2.062 -0.0440  0.0489 -0.3337
  384MOL0     C51732  -2.017  10.281   2.085 -0.9844 -1.1080 -0.1128
  384MOL0     C51733  -2.042  10.412   2.013  0.3530  0.1578  0.4129
  384MOL0     C51734  -2.086  10.221   2.187  0.7864  0.3461  0.1744
  384MOL0     C51735  -2.218  10.279   2.246  1.1393 -0.5657 -0.8936
  384MOL0     O51736  -2.298  10.199   2.325 -0.2330  0.1437 -0.8205
  384MOL0     C51737  -2.409  10.242   2.381  0.0553  0.1045  0.1142
  384MOL0     C51738  -2.405  10.360   2.453 -0.5129  0.0278  0.3085
  384MOL0     C51739  -2.507  10.379   2.553 -0.2828 -0.2370  0.3063
  384MOL0     C51740  -2.612  10.285   2.568  0.0547  0.3011 -0.1675
  384MOL0     O51741  -2.712  10.324   2.659  0.0315 -0.0233 -0.4929
  384MOL0     C51742  -2.663  10.388   2.778  0.7163 -0.3730 -0.2052
  384MOL0     C51743  -2.752  10.342   2.892 -0.3994  1.0233  0.5175
  384MOL0     C51744  -2.724  10.421   3.019  0.1366 -0.5674  0.2287
  384MOL0     C51745  -2.777  10.567   3.008 -0.3029 -0.3029 -0.6207
  384MOL0     C51746  -2.923  10.586   2.980 -0.4517  0.9246  0.1493
  384MOL0     C51747  -3.006  10.510   3.092 -0.2860 -0.3964 -0.1046
  384MOL0     C51748  -3.161  10.560   3.070  0.3640  0.3984  0.1290
  384MOL0     C51749  -3.256  10.463   3.134  0.3166  0.1603  0.0048
  384MOL0    Cl51750  -3.231  10.471   3.313  0.0015 -0.0275  0.2397
  384MOL0     C51751  -2.616  10.167   2.503 -1.4015  0.1039 -0.5010
  384MOL0     C51752  -2.503  10.146   2.415  0.2018  0.1751 -0.2924
  384MOL0     O51753  -2.247  10.397   2.214  0.1925  0.7397 -0.2160
  384MOL0     C51754  -2.043  10.110   2.250  0.6114  1.0770  0.5382
  384MOL0     C51755  -1.913  10.060   2.229  0.0002 -0.2464 -0.2589
  384MOL0     N51756  -1.095   9.981   1.744 -0.0234  0.0247  0.4271
  384MOL0     N51757  -1.011  10.065   1.695 -0.2847 -0.1900 -0.3235
  384MOL0     C51758  -0.233  11.004   2.032 -0.2721 -0.1690  1.0870
  384MOL0     C51759  -0.102  10.972   1.986 -0.1485 -0.0526 -0.0216
  384MOL0     C51760   0.324  10.828   2.130  0.0978 -0.1819  0.4931
  384MOL0     C51761   0.434  10.896   2.176  0.7982 -0.6302 -0.6758
  384MOL0     C51762   0.550  10.831   2.223  0.5368 -0.9008  0.6115
  384MOL0     C51763   0.559  10.692   2.201  0.4181  0.6541  0.0392
  384MOL0     O51764   0.668  10.613   2.220  0.6563  0.5380 -0.0807
  384MOL0     C51765   0.780  10.655   2.296 -0.0949 -0.1207  0.2524
  384MOL0     C51766   0.889  10.546   2.294  0.1662  0.5274  0.0854
  384MOL0     C51767   0.918  10.497   2.146 -0.5117 -0.1851 -0.1878
  384MOL0     C51768   1.062  10.437   2.130 -0.6632  0.0454 -0.4787
  384MOL0     C51769   1.082  10.384   1.998 -0.4711  0.4248  1.0559
  384MOL0     C51770   1.080  10.326   1.892 -0.7216 -0.2314  0.7859
  384MOL0     C51771   0.440  10.624   2.157 -0.2357  0.5698  0.4791
  384MOL0     C51772   0.329  10.694   2.116  0.9897  0.7763 -0.5120
  384MOL0     H51773  -0.018  10.730   2.209  0.0569  0.2732 -0.9076
  384MOL0     H51774  -0.247  10.775   2.289 -0.6981  0.1808  0.1826
  384MOL0     H51775  -0.458  10.789   2.277 -0.0925 -0.1568 -1.1664
  384MOL0     H51776  -0.552  10.933   2.313 -0.9103  2.6957 -1.1244
  384MOL0     H51777  -0.683  10.770   2.165  0.1833 -0.7581 -1.0855
  384MOL0     H51778  -0.646  10.913   2.075 -2.1480 -0.7709  0.2136
  384MOL0     H51779  -0.432  10.780   1.972 -1.3455  0.8152 -0.9244
  384MOL0     H51780  -0.476  10.655   2.085  1.6150  0.1418 -1.1167
  384MOL0     H51781  -0.689  10.759   1.889 -0.9847 -0.1273  3.6102
  384MOL0     H51782  -0.559  10.651   1.821  1.9465 -3.3721  1.6499
  384MOL0     H51783  -0.622  10.481   2.000 -1.8564 -1.0626  0.2023
  384MOL0     H51784  -0.768  10.571   2.034  0.9117 -2.0845  2.8085
  384MOL0     H51785  -0.818  10.552   1.790  0.3616  0.2684  0.3866
  384MOL0     H51786  -0.680  10.435   1.775 -1.7993 -2.3365  0.1310
  384MOL0     H51787  -0.790  10.279   1.942  0.2788 -2.0858 -2.0802
  384MOL0     H51788  -0.927  10.400   1.943  1.2876  0.1694  1.2199
  384MOL0     H51789  -0.824  10.246   1.695 -0.3504  1.1696 -1.3372
  384MOL0     H51790  -0.957  10.353   1.692 -0.9905  0.0061 -0.7590
  384MOL0     H51791  -1.089  10.204   1.978  0.2016 -2.6523  1.5212
  384MOL0     H51792  -1.289   9.876   1.909 -0.1441 -1.4018  1.7179
  384MOL0     H51793  -1.214   9.946   2.051 -0.7311 -0.7340 -0.6262
  384MOL0     H51794  -1.389  10.113   1.874  0.5090 -0.2520 -0.1678
  384MOL0     H51795  -1.323  10.158   2.044 -4.5607 -0.7961  4.5980
  384MOL0     H51796  -1.456  10.033   2.164  0.9777 -1.6298  0.2232
  384MOL0     H51797  -1.496   9.919   2.026  3.6078 -1.2766 -0.8678
  384MOL0     H51798  -1.638  10.098   1.928 -0.5672 -0.3014 -0.8129
  384MOL0     H51799  -1.590  10.208   2.064 -0.3301 -0.4405  1.5674
  384MOL0     H51800  -1.837  10.262   1.974 -0.0937  1.0548  0.0624
  384MOL0     H51801  -1.965  10.429   1.938  0.7192  1.2964  1.0199
  384MOL0     H51802  -2.143  10.415   1.969  1.3106 -3.3243 -2.5756
  384MOL0     H51803  -2.033  10.502   2.075 -0.0306  1.0217 -0.7271
  384MOL0     H51804  -2.325  10.431   2.438  0.3830 -1.2545 -1.4838
  384MOL0     H51805  -2.500  10.469   2.614  1.6259 -0.0281 -0.1403
  384MOL0     H51806  -2.563  10.349   2.800  1.1692  0.8949  0.0936
  384MOL0     H51807  -2.663  10.497   2.772 -1.3416 -0.2505  1.2861
  384MOL0     H51808  -2.857  10.345   2.865 -0.5462 -0.0306  0.9152
  384MOL0     H51809  -2.724  10.241   2.923  0.0108  1.3272  1.1789
  384MOL0     H51810  -2.618  10.431   3.046 -0.0203  1.2653  0.3046
  384MOL0     H51811  -2.760  10.367   3.108 -0.6238 -2.0941 -0.9611
  384MOL0     H51812  -2.755  10.613   3.105  1.4262  2.5286 -2.2176
  384MOL0     H51813  -2.730  10.625   2.928  2.9316 -2.1697 -0.2502
  384MOL0     H51814  -2.951  10.539   2.885  0.4418  0.1181  0.2726
  384MOL0     H51815  -2.939  10.695   2.985  6.1566  2.3159  0.3657
  384MOL0     H51816  -2.989  10.402   3.090 -1.1456 -0.5277 -1.3027
  384MOL0     H51817  -2.950  10.543   3.180  2.6879 -1.6248 -1.3985
  384MOL0     H51818  -3.183  10.552   2.964  0.1047 -0.4096  0.2367
  384MOL0     H51819  -3.168  10.665   3.100 -1.2214  0.2778  0.2611
  384MOL0     H51820  -3.236  10.365   3.090  0.1541  1.1622 -2.4673
  384MOL0     H51821  -3.362  10.482   3.113  0.1057 -0.7431  0.2195
  384MOL0     H51822  -2.682  10.082   2.515  0.6545 -1.2842  1.7598
  384MOL0     H51823  -2.497  10.050   2.367 -2.8395  0.1121 -0.7539
  384MOL0     H51824  -2.095  10.060   2.331  0.7443 -1.5267 -0.8784
  384MOL0     H51825  -1.874   9.975   2.283  1.0489 -0.9662 -2.0628
  384MOL0     H51826  -0.289  11.091   1.998  1.8692  0.8824 -0.0039
  384MOL0     H51827  -0.056  11.023   1.902 -1.4231  2.1274  0.5375
  384MOL0     H51828   0.422  11.003   2.162 -2.3578 -0.5110  1.8050
  384MOL0     H51829   0.639  10.886   2.251  2.5446 -3.3591 -0.5582
  384MOL0     H51830   0.819  10.752   2.263  1.3160 -1.0002 -0.7884
  384MOL0     H51831   0.760  10.676   2.401 -0.6012 -3.1394  0.8323
  384MOL0     H51832   0.862  10.460   2.356  0.5931 -0.9955 -1.7533
  384MOL0     H51833   0.982  10.577   2.341 -0.5640  1.0174  1.2490
  384MOL0     H51834   0.901  10.585   2.083 -3.0351 -1.0867 -0.9217
  384MOL0     H51835   0.849  10.420   2.110  1.1560 -0.0233 -4.2746
  384MOL0     H51836   1.085  10.347   2.189  0.4289 -0.9528 -2.3458
  384MOL0     H51837   1.137  10.503   2.173  0.4263 -1.7678  0.5256
  384MOL0     H51838   1.083  10.263   1.806  1.8736 -0.3429  0.8827
  384MOL0     H51839   0.445  10.515   2.153 -3.9702  0.2857  0.1505
  384MOL0     H51840   0.252  10.630   2.075 -0.0491 -0.0744  2.5125
  385MOL0     O51841   8.185   5.851   6.763 -0.0636 -0.5788 -0.3223
  385MOL0     C51842   8.214   5.889   6.876  0.6694  0.0063 -0.5369
  385MOL0     O51843   8.119   5.907   6.970  0.5068 -0.2058  0.5588
  385MOL0     C51844   8.003   5.838   6.974 -0.3673  0.4618  0.3553
  385MOL0     C51845   7.887   5.903   7.000 -0.6038  1.0488 -0.1214
  385MOL0     C51846   7.766   5.831   7.016 -0.2986  1.0935  0.5616
  385MOL0     C51847   7.766   5.693   6.996 -0.4350  0.3390  0.0092
  385MOL0     O51848   7.653   5.607   6.996  0.3586 -0.4317  0.4026
  385MOL0     C51849   7.522   5.668   7.014  0.8127  0.1661 -0.3854
  385MOL0     C51850   7.405   5.563   7.024  0.3480  0.0409 -0.3088
  385MOL0     C51851   7.273   5.633   7.067  0.4499 -0.3767 -0.2291
  385MOL0     C51852   7.255   5.606   7.216 -1.2320  0.6128 -0.8360
  385MOL0     C51853   7.124   5.662   7.256  0.8147 -1.3699  0.2214
  385MOL0     C51854   7.086   5.626   7.405 -0.1601  0.2224  0.2413
  385MOL0     C51855   6.947   5.698   7.428  0.2747 -0.2462 -0.2975
  385MOL0     C51856   6.855   5.620   7.520  0.1373  0.2372 -0.5743
  385MOL0     N51857   6.719   5.674   7.528 -0.2542  0.2093  0.4268
  385MOL0     C51858   6.632   5.702   7.426  0.2750  0.7043  0.3386
  385MOL0     C51859   6.522   5.753   7.482  0.0395  0.2489 -0.1603
  385MOL0     C51860   6.404   5.806   7.409 -0.4408  0.4496 -0.0236
  385MOL0     C51861   6.325   5.708   7.314 -0.6747 -0.5905 -0.2614
  385MOL0     C51862   6.217   5.788   7.230 -0.0448 -0.1826  0.1228
  385MOL0     C51863   6.094   5.819   7.307  0.6192  0.3415 -0.3197
  385MOL0     O51864   6.008   5.902   7.225  0.1589  0.1194  0.3407
  385MOL0     C51865   5.871   5.908   7.262  0.1772  0.0074  0.3661
  385MOL0     C51866   5.819   5.912   7.394 -0.1934  0.0290  0.3973
  385MOL0     C51867   5.681   5.942   7.426 -0.1579  1.4587 -0.1482
  385MOL0     C51868   5.643   5.978   7.570  0.2036 -0.9885  0.3070
  385MOL0     C51869   5.579   5.965   7.325 -0.0372 -0.5219  1.3977
  385MOL0     C51870   5.445   6.010   7.350  0.4338 -0.0071  0.5024
  385MOL0     O51871   5.388   6.006   7.480 -0.8848 -0.2642 -0.0914
  385MOL0     C51872   5.252   6.012   7.490  0.1517 -0.0315  0.1509
  385MOL0     C51873   5.166   5.932   7.415  0.4414 -0.2868 -0.3380
  385MOL0     C51874   5.028   5.935   7.455 -0.0853 -0.3450  0.2008
  385MOL0     C51875   4.984   6.018   7.554 -0.8161 -0.3431  0.5361
  385MOL0     O51876   4.850   6.027   7.567  0.0792 -0.1343  0.5663
  385MOL0     C51877   4.796   6.123   7.661 -0.9154 -0.2395  0.6755
  385MOL0     C51878   4.643   6.095   7.668  0.9892 -0.0154  0.1731
  385MOL0     C51879   4.588   6.208   7.756 -0.9557 -1.0444  0.3026
  385MOL0     C51880   4.442   6.169   7.795 -0.2952 -0.3682  0.0019
  385MOL0     C51881   4.404   6.257   7.914  0.4384  0.4477 -0.5869
  385MOL0     C51882   4.251   6.248   7.941 -0.1945 -0.5794  0.6796
  385MOL0     C51883   4.223   6.287   8.082  0.5388 -0.3893 -0.1814
  385MOL0     C51884   4.067   6.310   8.103 -0.5222  0.4571 -0.0073
  385MOL0    Cl51885   4.019   6.348   8.277  0.1354 -0.0759  0.2661
  385MOL0     C51886   5.075   6.089   7.632  0.7550 -0.1983  0.3005
  385MOL0     C51887   5.203   6.086   7.600  0.6523 -0.4734 -0.5447
  385MOL0     O51888   5.382   6.041   7.246  0.3937  0.0385  0.6358
  385MOL0     C51889   5.628   5.940   7.187  0.3728 -0.3114  0.6526
  385MOL0     C51890   5.773   5.915   7.157 -0.1706  0.1504 -0.6512
  385MOL0     N51891   6.537   5.754   7.620 -0.0782 -0.2424  0.3190
  385MOL0     N51892   6.656   5.710   7.642  0.8516  0.5514 -0.5454
  385MOL0     C51893   7.882   5.630   6.963  0.7356 -0.2777 -0.6038
  385MOL0     C51894   8.001   5.697   6.951 -0.1260 -0.3769  0.9174
  385MOL0     C51895   8.358   5.914   6.923 -0.3822 -0.3667  0.3204
  385MOL0     C51896   8.467   5.925   6.833 -0.5636 -0.9170  0.8038
  385MOL0     C51897   8.591   5.972   6.881 -0.1776  1.1565 -0.5613
  385MOL0     C51898   8.613   5.991   7.014  0.0317 -0.3373  0.1711
  385MOL0     O51899   8.741   6.034   7.061  0.0084  0.4250 -0.1721
  385MOL0     C51900   8.818   5.948   7.146 -0.0579 -0.2423  0.1321
  385MOL0     C51901   8.961   5.994   7.161  0.2491  0.2087  0.6237
  385MOL0     C51902   9.044   5.935   7.274  0.5899  0.5991 -0.4471
  385MOL0     C51903   9.190   5.976   7.264  0.4183  0.1820 -0.5931
  385MOL0     C51904   9.253   5.896   7.371 -0.8437 -0.5305  0.4234
  385MOL0     C51905   9.293   5.814   7.456  1.1766 -0.5180 -1.0643
  385MOL0     C51906   8.507   5.983   7.100  0.4557  0.4446 -0.2792
  385MOL0     C51907   8.381   5.946   7.058  0.4913  0.6481 -0.0941
  385MOL0     H51908   7.893   6.009   7.020 -3.3949  1.3323 -0.3466
  385MOL0     H51909   7.681   5.885   7.057  1.0486  2.3922  1.7501
  385MOL0     H51910   7.530   5.730   7.105  2.0353  0.3209 -0.5849
  385MOL0     H51911   7.491   5.735   6.933 -3.2583  0.0563  0.8452
  385MOL0     H51912   7.385   5.520   6.925 -1.7637 -1.0164  0.4958
  385MOL0     H51913   7.430   5.476   7.086 -1.4927 -0.3622 -0.0695
  385MOL0     H51914   7.287   5.738   7.042  0.6862 -0.6058 -1.1110
  385MOL0     H51915   7.193   5.589   7.006  1.4168 -2.1208 -0.3072
  385MOL0     H51916   7.256   5.501   7.246  2.9811  0.1896 -1.7956
  385MOL0     H51917   7.339   5.651   7.269 -1.2568 -0.9480  0.6114
  385MOL0     H51918   7.117   5.771   7.246  0.9754 -1.2603  1.1840
  385MOL0     H51919   7.041   5.618   7.200  1.8761  0.8173 -3.4078
  385MOL0     H51920   7.083   5.517   7.417  0.6644  0.2170  0.4507
  385MOL0     H51921   7.163   5.659   7.476 -0.4383  2.5662 -0.4526
  385MOL0     H51922   6.974   5.791   7.478  2.1579 -2.5525  3.4510
  385MOL0     H51923   6.895   5.723   7.335 -3.3195 -0.7134  1.4308
  385MOL0     H51924   6.900   5.630   7.619  1.5838  0.2438 -1.2070
  385MOL0     H51925   6.846   5.515   7.488 -1.2907  0.1144  0.1592
  385MOL0     H51926   6.659   5.688   7.322  0.2180 -1.6462  0.5944
  385MOL0     H51927   6.338   5.844   7.488 -0.3076  0.4111  0.1073
  385MOL0     H51928   6.440   5.893   7.353 -1.2653  0.6623 -0.2319
  385MOL0     H51929   6.285   5.616   7.357  0.1081 -2.4049 -3.1462
  385MOL0     H51930   6.397   5.668   7.241  0.7384  0.2247  0.6395
  385MOL0     H51931   6.185   5.733   7.141 -0.6500  1.0115 -0.4287
  385MOL0     H51932   6.255   5.881   7.186  0.0942 -0.8802 -1.3064
  385MOL0     H51933   6.117   5.884   7.392  0.9273 -0.5299  0.2791
  385MOL0     H51934   6.041   5.729   7.340  0.2047  0.4209 -0.7553
  385MOL0     H51935   5.887   5.903   7.478 -0.8496  0.8919  1.0464
  385MOL0     H51936   5.580   6.065   7.591 -0.1707 -1.7079  2.3537
  385MOL0     H51937   5.612   5.887   7.621 -0.2597 -1.7805 -1.3169
  385MOL0     H51938   5.727   6.013   7.632 -0.3937 -0.8998  1.0704
  385MOL0     H51939   5.204   5.869   7.335 -3.6557 -1.9515 -1.1949
  385MOL0     H51940   4.953   5.882   7.397 -1.6118 -0.2282  1.9822
  385MOL0     H51941   4.833   6.113   7.764 -0.9691 -1.2822  0.6079
  385MOL0     H51942   4.816   6.222   7.620  1.4075 -1.6280 -1.8236
  385MOL0     H51943   4.597   6.106   7.569 -0.6208  2.2573  1.0790
  385MOL0     H51944   4.611   6.004   7.718 -1.3993  1.4370  1.5003
  385MOL0     H51945   4.581   6.308   7.711  0.1661  0.4653  3.1963
  385MOL0     H51946   4.650   6.213   7.846 -1.0321 -1.7483  0.3984
  385MOL0     H51947   4.363   6.189   7.722 -1.0792  0.8124  1.1451
  385MOL0     H51948   4.436   6.065   7.827  1.4870 -0.1166  1.2953
  385MOL0     H51949   4.441   6.359   7.906 -0.4992  0.7129 -2.1487
  385MOL0     H51950   4.452   6.218   8.003 -1.0838  0.0115  0.0821
  385MOL0     H51951   4.202   6.321   7.876  2.0942  0.8600  0.4360
  385MOL0     H51952   4.209   6.152   7.912 -0.2535 -0.7096  1.1897
  385MOL0     H51953   4.272   6.383   8.096  2.0326 -0.9849 -1.0575
  385MOL0     H51954   4.251   6.214   8.158  1.9149  0.7870  0.4941
  385MOL0     H51955   4.010   6.220   8.078 -2.9442  1.6249  0.9940
  385MOL0     H51956   4.033   6.382   8.028  3.9909  1.0374 -1.8225
  385MOL0     H51957   5.040   6.138   7.722  2.1715 -0.1704  0.8535
  385MOL0     H51958   5.269   6.139   7.668 -1.9618  0.7217  1.2109
  385MOL0     H51959   5.557   5.951   7.106  0.0009 -0.3682  0.9651
  385MOL0     H51960   5.811   5.893   7.058  2.5381 -1.7041  0.6591
  385MOL0     H51961   7.884   5.523   6.946 -0.0551 -0.6973  1.5555
  385MOL0     H51962   8.095   5.648   6.926  0.0808  1.1894 -1.6872
  385MOL0     H51963   8.445   5.903   6.728  0.7905 -2.1407  0.7462
  385MOL0     H51964   8.681   5.972   6.820 -0.4373 -1.6018 -1.0619
  385MOL0     H51965   8.763   5.940   7.240 -2.0099 -2.9661 -1.1157
  385MOL0     H51966   8.818   5.848   7.102 -0.0028  0.4403 -1.4669
  385MOL0     H51967   8.934   6.099   7.177 -0.6127  0.1986 -0.6033
  385MOL0     H51968   9.010   5.986   7.063 -0.2363  0.1713  0.3783
  385MOL0     H51969   9.022   5.829   7.291  3.4621  0.2347  1.7457
  385MOL0     H51970   9.003   5.973   7.368 -0.9071 -0.6567 -0.5576
  385MOL0     H51971   9.212   6.080   7.289  3.1427 -0.8884  2.1543
  385MOL0     H51972   9.244   5.953   7.172  2.6017 -4.0251  1.4178
  385MOL0     H51973   9.330   5.764   7.543 -2.2080 -1.7925 -0.1863
  385MOL0     H51974   8.534   6.010   7.202  1.2833 -0.4603 -0.2456
  385MOL0     H51975   8.289   5.945   7.116  0.6413 -1.3444  0.2073
  386MOL0     O51976   0.007   5.205   0.586 -0.4618  0.6979 -0.1546
  386MOL0     C51977   0.026   5.301   0.512  0.3960  0.4693 -0.9528
  386MOL0     O51978  -0.078   5.360   0.443 -0.4418 -0.2431  0.2923
  386MOL0     C51979  -0.202   5.306   0.432 -0.4463  0.9510 -0.1764
  386MOL0     C51980  -0.272   5.276   0.552 -0.5869 -0.4065 -0.3313
  386MOL0     C51981  -0.411   5.261   0.542 -0.1908 -0.1447  0.1221
  386MOL0     C51982  -0.479   5.258   0.414 -0.0035 -0.5201  0.2996
  386MOL0     O51983  -0.612   5.239   0.421 -0.3287  0.2802  0.2290
  386MOL0     C51984  -0.680   5.163   0.321  0.2321  0.4843 -0.3345
  386MOL0     C51985  -0.821   5.203   0.336 -0.1348 -0.0474 -0.3172
  386MOL0     C51986  -0.843   5.349   0.299 -0.2680 -0.7175  0.7168
  386MOL0     C51987  -0.990   5.386   0.283 -0.5258 -0.1987  0.7177
  386MOL0     C51988  -1.050   5.401   0.419 -0.0687  0.3017  0.8332
  386MOL0     C51989  -1.195   5.455   0.398 -0.1092  0.1759  0.1790
  386MOL0     C51990  -1.268   5.449   0.532  0.7610  0.4735  1.4748
  386MOL0     C51991  -1.414   5.494   0.512 -1.2306 -0.3248  0.2552
  386MOL0     N51992  -1.493   5.386   0.460  0.2292 -0.1845  0.2020
  386MOL0     C51993  -1.494   5.360   0.324  0.1813  0.3865 -0.9687
  386MOL0     C51994  -1.595   5.269   0.316 -0.4482  0.2018 -0.2906
  386MOL0     C51995  -1.631   5.198   0.179 -1.1440  0.2599  0.2548
  386MOL0     C51996  -1.511   5.141   0.105 -0.1019 -0.1709  0.5211
  386MOL0     C51997  -1.439   5.018   0.167 -0.6010  1.1343 -0.0474
  386MOL0     C51998  -1.521   4.895   0.139  1.0655  0.8582  0.1098
  386MOL0     O51999  -1.631   4.898   0.230 -0.2598  0.3460  0.1549
  386MOL0     C52000  -1.724   4.801   0.217  0.6045  0.6977  0.3742
  386MOL0     C52001  -1.854   4.839   0.257 -0.2345 -1.0488 -0.5192
  386MOL0     C52002  -1.964   4.761   0.246 -0.1983 -0.0131  0.6711
  386MOL0     C52003  -2.097   4.809   0.306 -0.5341 -0.1623  1.0013
  386MOL0     C52004  -1.952   4.634   0.176 -0.1458 -0.7041  0.4241
  386MOL0     C52005  -2.074   4.558   0.137 -0.0732  0.0763 -0.6857
  386MOL0     O52006  -2.190   4.625   0.141 -0.2903 -0.1963 -0.2533
  386MOL0     C52007  -2.305   4.562   0.135 -0.6316  0.3529  1.2726
  386MOL0     C52008  -2.328   4.447   0.199 -0.4117  0.4810 -0.0391
  386MOL0     C52009  -2.460   4.387   0.183  0.6392  0.4033  0.1513
  386MOL0     C52010  -2.562   4.455   0.112  0.1239  1.0983  0.6302
  386MOL0     O52011  -2.697   4.423   0.111 -0.0075  0.4149  0.4165
  386MOL0     C52012  -2.746   4.336   0.211 -0.1786 -0.2349 -0.5113
  386MOL0     C52013  -2.892   4.333   0.203 -0.2110 -0.5226 -0.0044
  386MOL0     C52014  -2.968   4.466   0.179 -0.4304  0.1236  0.2719
  386MOL0     C52015  -3.117   4.433   0.169  0.3570 -0.3496 -0.6093
  386MOL0     C52016  -3.183   4.413   0.311  0.2465 -0.3123  0.7439
  386MOL0     C52017  -3.332   4.376   0.278 -0.2905  0.2583 -0.0999
  386MOL0     C52018  -3.432   4.385   0.391  0.2587  0.1233 -0.2014
  386MOL0     C52019  -3.563   4.461   0.359  0.2424 -0.3780 -0.5563
  386MOL0    Cl52020  -3.538   4.625   0.310 -0.0631  0.1515  0.4154
  386MOL0     C52021  -2.528   4.565   0.041 -0.1572 -0.1333  0.8803
  386MOL0     C52022  -2.400   4.624   0.050 -0.5073 -1.2496 -0.5928
  386MOL0     O52023  -2.063   4.435   0.121 -0.6575  0.2206  0.4246
  386MOL0     C52024  -1.817   4.584   0.148  1.0938 -0.1581 -0.5593
  386MOL0     C52025  -1.708   4.671   0.164  0.0055 -0.1915 -0.5362
  386MOL0     N52026  -1.640   5.232   0.443 -0.6814 -0.6344 -0.1205
  386MOL0     N52027  -1.590   5.321   0.527 -0.1243  0.1759 -0.0428
  386MOL0     C52028  -0.406   5.290   0.298 -0.2417  1.4038 -0.2681
  386MOL0     C52029  -0.269   5.309   0.307  0.3626 -0.1366  0.3162
  386MOL0     C52030   0.161   5.355   0.497 -0.4112 -0.2434 -0.3764
  386MOL0     C52031   0.176   5.457   0.405 -0.0870 -0.6365  0.6295
  386MOL0     C52032   0.304   5.504   0.371 -0.0010 -0.2016  0.2179
  386MOL0     C52033   0.420   5.436   0.416 -0.0069 -0.2754  0.6787
  386MOL0     O52034   0.550   5.459   0.380 -0.2690 -0.2499  0.4759
  386MOL0     C52035   0.572   5.563   0.290  0.9324  0.7373 -0.0418
  386MOL0     C52036   0.715   5.573   0.241  0.0862  0.5824 -0.5718
  386MOL0     C52037   0.795   5.629   0.361  0.0569  0.1679  0.1819
  386MOL0     C52038   0.939   5.660   0.295  0.2132 -0.1294 -0.1254
  386MOL0     C52039   1.051   5.568   0.308  0.5711 -0.2368 -0.3097
  386MOL0     C52040   1.135   5.482   0.302  0.4159  0.4173 -0.1933
  386MOL0     C52041   0.407   5.334   0.505 -0.2258  0.4029  0.8274
  386MOL0     C52042   0.280   5.298   0.554 -0.2526  0.1410  0.1068
  386MOL0     H52043  -0.224   5.276   0.649 -2.6338 -2.7983  0.8172
  386MOL0     H52044  -0.468   5.245   0.634  1.2837  0.5100  1.1942
  386MOL0     H52045  -0.641   5.178   0.220  3.1588 -0.7349  0.4980
  386MOL0     H52046  -0.651   5.065   0.360  2.1618  0.3066 -2.0608
  386MOL0     H52047  -0.887   5.139   0.275  0.5310 -0.8198 -0.2506
  386MOL0     H52048  -0.861   5.189   0.437  1.1938 -0.2892  0.1944
  386MOL0     H52049  -0.794   5.416   0.370 -1.8981 -1.2765  2.4417
  386MOL0     H52050  -0.797   5.354   0.200 -0.7449  1.8451  0.5594
  386MOL0     H52051  -1.003   5.477   0.224  1.2015 -2.3242 -3.3490
  386MOL0     H52052  -1.043   5.303   0.237  2.8354 -1.0013 -2.1027
  386MOL0     H52053  -1.052   5.301   0.462 -0.9172 -0.2800 -0.4831
  386MOL0     H52054  -0.997   5.471   0.483  0.1823  0.4228  0.4982
  386MOL0     H52055  -1.186   5.561   0.373 -1.9277  0.3399  0.0644
  386MOL0     H52056  -1.247   5.400   0.319  1.7672 -0.0748 -0.9380
  386MOL0     H52057  -1.267   5.344   0.563  3.1697 -1.1425 -3.0527
  386MOL0     H52058  -1.217   5.517   0.600  2.3147  0.7462  0.0992
  386MOL0     H52059  -1.408   5.568   0.432  1.4907 -0.0875  0.5599
  386MOL0     H52060  -1.435   5.545   0.607 -0.3830  0.6606 -0.0538
  386MOL0     H52061  -1.445   5.400   0.235  1.9922  2.0797  0.7057
  386MOL0     H52062  -1.700   5.115   0.197 -0.7999 -0.8026 -2.7743
  386MOL0     H52063  -1.680   5.263   0.106  0.1602 -0.0678 -0.9476
  386MOL0     H52064  -1.443   5.227   0.106 -1.1461  0.7070  2.9550
  386MOL0     H52065  -1.545   5.120   0.004  1.0231 -1.0701  0.3096
  386MOL0     H52066  -1.434   5.031   0.275  0.0953 -3.4356  0.6882
  386MOL0     H52067  -1.341   5.009   0.118 -1.3334  2.3887 -1.8554
  386MOL0     H52068  -1.463   4.803   0.151 -1.6510 -1.1572 -1.3044
  386MOL0     H52069  -1.557   4.897   0.036 -0.1688  1.8892  0.5282
  386MOL0     H52070  -1.873   4.941   0.289 -1.2827 -1.6663  0.9460
  386MOL0     H52071  -2.148   4.848   0.217  0.1163  0.1305  0.7506
  386MOL0     H52072  -2.159   4.729   0.348 -1.0490  0.7712  2.0683
  386MOL0     H52073  -2.075   4.888   0.378  0.6782  2.5260 -2.0582
  386MOL0     H52074  -2.256   4.408   0.269 -1.1728  1.7427  1.5143
  386MOL0     H52075  -2.490   4.297   0.237  0.1538  0.9122  0.7365
  386MOL0     H52076  -2.710   4.233   0.206 -1.7309 -1.0465  2.4875
  386MOL0     H52077  -2.714   4.376   0.307  0.1932  0.6495 -0.9917
  386MOL0     H52078  -2.910   4.267   0.118  0.7961  0.1713 -0.7792
  386MOL0     H52079  -2.923   4.284   0.296  2.8796 -0.6215  1.1069
  386MOL0     H52080  -2.928   4.527   0.098  1.2855 -0.0919  0.9138
  386MOL0     H52081  -2.962   4.532   0.267  0.3141 -0.6363  0.8048
  386MOL0     H52082  -3.159   4.522   0.121 -3.9854 -0.0113  3.1444
  386MOL0     H52083  -3.133   4.342   0.110  0.6555 -4.2161  4.5794
  386MOL0     H52084  -3.167   4.511   0.357  2.6827 -0.0273 -0.5554
  386MOL0     H52085  -3.138   4.324   0.356 -2.2613 -4.2612 -3.5687
  386MOL0     H52086  -3.366   4.439   0.196  0.9398 -0.6762 -1.3837
  386MOL0     H52087  -3.336   4.275   0.236 -0.6245 -0.6058  1.8993
  386MOL0     H52088  -3.386   4.429   0.480 -0.4524  0.1713  0.1443
  386MOL0     H52089  -3.460   4.286   0.429  1.4350  1.1391  3.8568
  386MOL0     H52090  -3.628   4.459   0.446 -2.4408  3.1046 -2.2256
  386MOL0     H52091  -3.613   4.402   0.282 -3.5753 -1.0468  2.1613
  386MOL0     H52092  -2.603   4.619  -0.016 -0.6058 -0.4155  1.1945
  386MOL0     H52093  -2.355   4.710   0.001 -0.5288 -1.7135 -1.4338
  386MOL0     H52094  -1.798   4.489   0.098  0.2527 -2.5003  3.1601
  386MOL0     H52095  -1.611   4.631   0.136  0.1770 -0.0341 -0.1804
  386MOL0     H52096  -0.459   5.276   0.204  1.2372 -0.6004 -0.8614
  386MOL0     H52097  -0.216   5.335   0.216  0.1973  0.5849  0.4199
  386MOL0     H52098   0.096   5.502   0.346  0.1028  2.3645  2.4487
  386MOL0     H52099   0.304   5.594   0.311  1.2494 -0.1649  0.2475
  386MOL0     H52100   0.502   5.549   0.208 -0.6748  2.1812  1.0037
  386MOL0     H52101   0.542   5.660   0.331 -2.3546  1.1266 -2.8712
  386MOL0     H52102   0.723   5.645   0.159  1.7776  0.2799 -0.6994
  386MOL0     H52103   0.762   5.479   0.210 -3.4113 -2.1339  1.6205
  386MOL0     H52104   0.806   5.562   0.448  2.4109  1.9920  1.3859
  386MOL0     H52105   0.741   5.717   0.397  0.0399 -0.4912  1.8994
  386MOL0     H52106   0.970   5.754   0.343  0.1603 -0.6500  0.9428
  386MOL0     H52107   0.925   5.684   0.189 -0.8477  0.7095  0.1910
  386MOL0     H52108   1.191   5.390   0.302 -1.4040 -0.7398  0.6707
  386MOL0     H52109   0.501   5.292   0.540  1.4947  0.9564 -2.6912
  386MOL0     H52110   0.281   5.215   0.623  1.2707  2.3405  2.9092
  387MOL0     O52111   2.385   2.636   9.676  0.1246  0.7692 -0.1928
  387MOL0     C52112   2.423   2.708   9.584  0.3085  0.2787  0.1950
  387MOL0     O52113   2.345   2.772   9.490  0.6532 -0.1909  0.6136
  387MOL0     C52114   2.204   2.748   9.481 -0.3234  0.5794 -0.1891
  387MOL0     C52115   2.141   2.744   9.357  0.8141  0.5328 -0.0729
  387MOL0     C52116   1.999   2.716   9.342 -0.1770 -0.3834 -0.0718
  387MOL0     C52117   1.920   2.699   9.457 -0.0275  0.0954  0.3677
  387MOL0     O52118   1.784   2.695   9.427  0.3157 -0.0054 -0.8117
  387MOL0     C52119   1.696   2.753   9.528 -1.1331  0.6408  1.3408
  387MOL0     C52120   1.563   2.785   9.460  0.0901  0.3917 -0.0856
  387MOL0     C52121   1.480   2.849   9.573 -0.3204 -0.0697 -0.0767
  387MOL0     C52122   1.371   2.759   9.624 -0.4367 -0.1011  0.2179
  387MOL0     C52123   1.417   2.615   9.684 -0.2030 -0.3573  0.3673
  387MOL0     C52124   1.289   2.526   9.681  0.4058 -0.1128  0.5719
  387MOL0     C52125   1.332   2.384   9.719  0.0193  0.2337 -0.2321
  387MOL0     C52126   1.223   2.311   9.807 -0.6644 -0.3314 -0.1297
  387MOL0     N52127   1.093   2.299   9.735 -0.2484  0.0558 -1.4154
  387MOL0     C52128   1.081   2.261   9.605 -0.0888  0.3063 -0.6678
  387MOL0     C52129   0.952   2.287   9.574  0.4701  0.7295 -0.0363
  387MOL0     C52130   0.886   2.253   9.442  0.2715  0.1852  0.5448
  387MOL0     C52131   0.807   2.118   9.465 -0.2433  0.7284 -0.1494
  387MOL0     C52132   0.681   2.138   9.556  0.6758  0.9779 -0.2056
  387MOL0     C52133   0.552   2.139   9.477  0.3948  0.5638  1.2353
  387MOL0     O52134   0.436   2.127   9.568 -0.7452  0.6742  0.5080
  387MOL0     C52135   0.403   2.005   9.614 -0.9871  0.2070 -0.1046
  387MOL0     C52136   0.280   1.993   9.665 -0.1444 -0.2524  0.1197
  387MOL0     C52137   0.234   1.873   9.719  0.0307  0.3790  0.2448
  387MOL0     C52138   0.091   1.870   9.770 -0.3688  0.2966  0.5907
  387MOL0     C52139   0.324   1.756   9.710  0.0937  0.1759 -0.7683
  387MOL0     C52140   0.286   1.616   9.769 -0.0348  0.7178  0.7338
  387MOL0     O52141   0.376   1.509   9.767  0.0863  0.3687 -0.0822
  387MOL0     C52142   0.335   1.385   9.805 -0.2436  0.3797  0.2828
  387MOL0     C52143   0.324   1.277   9.715 -0.9770  0.7302 -0.7000
  387MOL0     C52144   0.277   1.152   9.758  0.5231  0.7167  0.5968
  387MOL0     C52145   0.258   1.125   9.897 -0.6438 -0.4711 -0.9059
  387MOL0     O52146   0.221   1.000   9.925 -0.3622  0.4293 -0.4971
  387MOL0     C52147   0.103   0.985  10.010  0.3223 -0.7138  0.5988
  387MOL0     C52148   0.058   0.842   9.984  0.6576  0.1742 -0.7215
  387MOL0     C52149  -0.086   0.810  10.037 -0.5601  0.1326  1.0963
  387MOL0     C52150  -0.187   0.924  10.023  0.0496 -0.7561  1.5805
  387MOL0     C52151  -0.325   0.896  10.088 -0.7580  0.1799 -0.0206
  387MOL0     C52152  -0.317   0.926  10.243  0.6384  0.4247 -0.1849
  387MOL0     C52153  -0.456   0.934  10.304  0.3349 -0.5590 -0.7410
  387MOL0     C52154  -0.457   0.931  10.456  0.1402 -0.7991  0.0469
  387MOL0    Cl52155  -0.410   0.773  10.516  0.2700  0.8066 -0.3963
  387MOL0     C52156   0.273   1.231   9.986 -0.5907 -0.3721 -0.3344
  387MOL0     C52157   0.309   1.363   9.944  0.0477 -0.0488  0.4529
  387MOL0     O52158   0.176   1.607   9.821  0.7189  0.2033  0.0178
  387MOL0     C52159   0.447   1.774   9.660  0.1516 -0.0750  0.2537
  387MOL0     C52160   0.487   1.896   9.608 -0.3204  0.5189  1.3426
  387MOL0     N52161   0.884   2.340   9.678 -0.6343 -0.2727 -0.2753
  387MOL0     N52162   0.978   2.355   9.774 -0.3883  0.2189 -0.3494
  387MOL0     C52163   1.982   2.690   9.581  0.2426  0.3472  0.1705
  387MOL0     C52164   2.119   2.721   9.591 -0.3550 -0.0718 -0.2759
  387MOL0     C52165   2.571   2.717   9.548  0.4381  0.0660  0.1442
  387MOL0     C52166   2.667   2.632   9.606 -0.4071  0.0397  0.0691
  387MOL0     C52167   2.804   2.639   9.570 -0.0561 -0.4199  0.3913
  387MOL0     C52168   2.849   2.730   9.473  0.1147 -0.2822  0.4818
  387MOL0     O52169   2.987   2.724   9.436  0.9443 -0.2669 -0.3761
  387MOL0     C52170   3.035   2.857   9.406  0.8044  0.0022 -0.5242
  387MOL0     C52171   3.186   2.846   9.375  0.8386 -0.1586  0.6956
  387MOL0     C52172   3.241   2.970   9.310  0.2735 -0.7382 -0.7188
  387MOL0     C52173   3.392   2.946   9.278 -0.7918 -0.4707 -0.0617
  387MOL0     C52174   3.491   2.981   9.382  0.8183 -0.8977 -0.1691
  387MOL0     C52175   3.573   3.002   9.468 -1.1482 -0.3742 -0.3958
  387MOL0     C52176   2.754   2.815   9.413  0.3371 -0.1358  0.3630
  387MOL0     C52177   2.622   2.804   9.442 -1.0886 -0.2487  0.1700
  387MOL0     H52178   2.203   2.759   9.270  2.3258  1.3596  1.0937
  387MOL0     H52179   1.953   2.700   9.245 -1.2587 -2.2997  0.6853
  387MOL0     H52180   1.693   2.679   9.608 -1.5173  1.6864  2.3169
  387MOL0     H52181   1.746   2.843   9.564 -1.4039  0.3476  2.5029
  387MOL0     H52182   1.594   2.851   9.379  0.3868 -2.0797 -2.0983
  387MOL0     H52183   1.525   2.693   9.414  0.8154  1.9524 -4.2631
  387MOL0     H52184   1.541   2.878   9.659 -0.7926  1.2435 -0.1631
  387MOL0     H52185   1.417   2.933   9.542 -0.9879 -1.1553 -1.8193
  387MOL0     H52186   1.332   2.816   9.709  0.5790  1.3817 -0.2858
  387MOL0     H52187   1.301   2.743   9.541 -1.2245 -0.4901  0.9404
  387MOL0     H52188   1.494   2.562   9.627  0.8625 -0.3378  1.7317
  387MOL0     H52189   1.461   2.616   9.784  0.7747 -3.3773  0.0691
  387MOL0     H52190   1.210   2.568   9.744 -3.1028 -0.0431 -3.4494
  387MOL0     H52191   1.249   2.532   9.579  3.2285 -2.1510 -0.7783
  387MOL0     H52192   1.363   2.326   9.631  1.9499 -1.1024  1.2489
  387MOL0     H52193   1.424   2.374   9.776 -1.5087 -1.3186  2.1157
  387MOL0     H52194   1.216   2.368   9.900  1.7559  0.7264 -0.5078
  387MOL0     H52195   1.255   2.211   9.836  2.4389  1.0420  1.7428
  387MOL0     H52196   1.159   2.203   9.555 -0.7042 -1.4873  0.3480
  387MOL0     H52197   0.809   2.323   9.410  1.2282  1.0310  0.0499
  387MOL0     H52198   0.961   2.245   9.363 -1.6159 -3.3119 -1.1257
  387MOL0     H52199   0.878   2.044   9.503  1.3560  0.5385 -3.2018
  387MOL0     H52200   0.782   2.079   9.366  2.7222  1.1734 -1.1704
  387MOL0     H52201   0.682   2.229   9.617  2.4113  1.6534 -1.1799
  387MOL0     H52202   0.678   2.057   9.630 -0.4625  2.1115  1.0462
  387MOL0     H52203   0.547   2.058   9.404  0.6202  1.6362 -0.0258
  387MOL0     H52204   0.547   2.239   9.433 -0.4360  1.3278  2.9542
  387MOL0     H52205   0.214   2.078   9.671 -1.2434 -1.0684 -0.0408
  387MOL0     H52206   0.037   1.779   9.744  0.7806  0.2610 -1.8696
  387MOL0     H52207   0.087   1.883   9.879 -0.3451 -0.5040  0.6960
  387MOL0     H52208   0.031   1.945   9.718 -0.3307 -0.9595 -1.3530
  387MOL0     H52209   0.347   1.291   9.609  3.0505 -0.4650 -0.1411
  387MOL0     H52210   0.248   1.077   9.686 -1.6695 -1.2776  3.3375
  387MOL0     H52211   0.117   1.006  10.116  0.9492 -0.5149  0.4831
  387MOL0     H52212   0.028   1.061   9.987 -0.6552 -1.2650  1.8740
  387MOL0     H52213   0.060   0.822   9.877  0.2676  0.8771 -0.8653
  387MOL0     H52214   0.135   0.784  10.037  2.0739  1.0504 -1.7602
  387MOL0     H52215  -0.086   0.775  10.140  0.4703 -1.1598  0.6940
  387MOL0     H52216  -0.125   0.720   9.988  1.8554 -1.0424  1.1744
  387MOL0     H52217  -0.143   1.013  10.068 -2.5738  0.7218  1.4611
  387MOL0     H52218  -0.203   0.948   9.918  2.2891 -0.1021  1.3507
  387MOL0     H52219  -0.343   0.791  10.062 -1.9366  0.7363 -1.6460
  387MOL0     H52220  -0.404   0.959  10.047 -1.3150  0.8338  1.9506
  387MOL0     H52221  -0.263   0.848  10.297  1.4076  1.4390  0.5557
  387MOL0     H52222  -0.268   1.024  10.253  0.4487  0.8188 -2.6003
  387MOL0     H52223  -0.521   0.852  10.272 -3.2806 -0.4884  4.9818
  387MOL0     H52224  -0.496   1.025  10.257  0.4538 -0.8161 -1.3467
  387MOL0     H52225  -0.565   0.939  10.472  0.5040  2.4182  1.6675
  387MOL0     H52226  -0.412   1.017  10.505 -0.4543 -0.6816  0.4010
  387MOL0     H52227   0.256   1.211  10.092 -0.8694  0.0280 -0.3002
  387MOL0     H52228   0.309   1.441  10.019 -1.2624 -0.1840  0.6261
  387MOL0     H52229   0.524   1.698   9.663  2.9555  2.4247  5.1000
  387MOL0     H52230   0.585   1.895   9.561 -1.2589  0.7575 -0.7193
  387MOL0     H52231   1.920   2.671   9.668 -1.7329  2.8379 -0.5667
  387MOL0     H52232   2.166   2.728   9.689 -0.6105 -1.8007 -0.0038
  387MOL0     H52233   2.622   2.575   9.686 -1.9129  1.1172  0.0306
  387MOL0     H52234   2.871   2.569   9.617  0.3220 -0.4512 -0.1920
  387MOL0     H52235   2.990   2.901   9.316 -2.9277 -0.2764  1.0161
  387MOL0     H52236   3.022   2.915   9.498 -0.5103 -2.3192  0.8420
  387MOL0     H52237   3.202   2.758   9.312 -3.2945  0.3549 -1.4052
  387MOL0     H52238   3.240   2.818   9.466 -0.0142 -1.6372  0.7810
  387MOL0     H52239   3.231   3.045   9.389 -3.2862 -0.2174 -1.4775
  387MOL0     H52240   3.186   3.019   9.229 -0.0277 -0.0097 -0.0805
  387MOL0     H52241   3.422   3.005   9.192 -0.8617  1.3620  1.1073
  387MOL0     H52242   3.427   2.843   9.275  2.6669  0.5689  0.1068
  387MOL0     H52243   3.635   3.021   9.553 -1.6133 -2.4522  0.4885
  387MOL0     H52244   2.788   2.880   9.333  1.9248 -0.9771  0.2981
  387MOL0     H52245   2.548   2.860   9.385 -0.8023 -1.7170 -1.7764
  388MOL0     O52246   4.045   4.239   7.318  0.2318  0.3665  0.2451
  388MOL0     C52247   4.150   4.304   7.303 -0.1599 -0.0587 -0.5924
  388MOL0     O52248   4.168   4.432   7.362 -0.7510  0.1034  0.5433
  388MOL0     C52249   4.069   4.486   7.433  0.8409 -0.0154 -0.6465
  388MOL0     C52250   4.048   4.623   7.406  0.5310 -0.3180  0.5373
  388MOL0     C52251   3.951   4.697   7.477 -0.0702  0.6535 -1.1053
  388MOL0     C52252   3.873   4.635   7.584 -0.7634 -0.2632  0.0712
  388MOL0     O52253   3.765   4.693   7.645 -0.2748 -0.9368 -0.4799
  388MOL0     C52254   3.633   4.649   7.623  0.2417  0.2141  0.3109
  388MOL0     C52255   3.584   4.710   7.488 -0.5469 -0.1833  0.0532
  388MOL0     C52256   3.436   4.701   7.460 -0.2974 -0.5884 -0.4678
  388MOL0     C52257   3.405   4.790   7.339  0.6021  0.1531 -0.6833
  388MOL0     C52258   3.256   4.832   7.325 -0.5696 -0.2361  0.2257
  388MOL0     C52259   3.152   4.720   7.309  0.0839  0.5216  0.8747
  388MOL0     C52260   3.010   4.786   7.308 -0.6151 -0.5647 -0.2433
  388MOL0     C52261   2.907   4.672   7.282  0.3525 -0.2166  0.7613
  388MOL0     N52262   2.777   4.702   7.330 -0.3762 -0.4424  0.0403
  388MOL0     C52263   2.672   4.743   7.248  0.2866 -0.4644 -0.0142
  388MOL0     C52264   2.572   4.769   7.342 -0.1312  0.1140 -0.3926
  388MOL0     C52265   2.434   4.826   7.326  0.4892 -0.5653  0.0885
  388MOL0     C52266   2.394   4.840   7.183 -0.4269  0.0556  0.5559
  388MOL0     C52267   2.242   4.859   7.179  0.1136  0.6794  0.0054
  388MOL0     C52268   2.200   5.009   7.207  0.6902 -0.0772 -0.3715
  388MOL0     O52269   2.214   5.033   7.343  0.6838  1.0338 -0.1204
  388MOL0     C52270   2.172   5.155   7.381  0.7050 -0.1261 -0.0649
  388MOL0     C52271   2.125   5.266   7.304  0.2458 -1.1141 -0.0554
  388MOL0     C52272   2.090   5.390   7.360 -0.3217  0.7894 -0.1164
  388MOL0     C52273   2.029   5.489   7.262  0.2478 -0.7807 -0.2055
  388MOL0     C52274   2.110   5.419   7.497 -0.3006 -0.0965 -1.1114
  388MOL0     C52275   2.075   5.548   7.568 -0.2632 -0.1976 -0.8263
  388MOL0     O52276   2.021   5.648   7.499  0.4039 -0.1230  0.6112
  388MOL0     C52277   2.013   5.767   7.565 -0.3446 -0.0864  1.2045
  388MOL0     C52278   1.884   5.820   7.599 -0.4289 -1.1243  0.0351
  388MOL0     C52279   1.863   5.954   7.630 -0.0023  0.3166 -0.8047
  388MOL0     C52280   1.970   6.037   7.632  0.3133  0.0790 -0.0299
  388MOL0     O52281   1.957   6.172   7.647  0.3376  0.1976 -1.0647
  388MOL0     C52282   1.837   6.234   7.603  0.5316  0.3472  0.3052
  388MOL0     C52283   1.850   6.381   7.625 -0.7413  0.1700  0.1010
  388MOL0     C52284   1.987   6.456   7.613  0.5641  0.0283 -1.5753
  388MOL0     C52285   2.040   6.438   7.475 -0.3991  0.1245  0.3720
  388MOL0     C52286   2.180   6.512   7.461 -1.1276 -0.8995  1.0571
  388MOL0     C52287   2.222   6.517   7.315 -0.0489  0.3664 -0.0441
  388MOL0     C52288   2.376   6.540   7.291 -0.3904  0.4321  0.3067
  388MOL0     C52289   2.403   6.517   7.140  0.3681 -0.6349  0.4690
  388MOL0    Cl52290   2.584   6.549   7.115  0.3027 -0.1778 -0.2953
  388MOL0     C52291   2.103   5.984   7.616 -0.3817  0.7781  0.2842
  388MOL0     C52292   2.129   5.848   7.578  0.3562  0.7563 -0.5917
  388MOL0     O52293   2.104   5.565   7.688 -0.1153 -0.0503  0.9488
  388MOL0     C52294   2.173   5.310   7.572 -0.2472  0.0680 -0.6476
  388MOL0     C52295   2.194   5.179   7.522 -0.2122  1.9013 -0.0998
  388MOL0     N52296   2.619   4.737   7.467  0.0613 -0.3665 -0.2541
  388MOL0     N52297   2.742   4.696   7.455  0.3681 -0.5943  0.3674
  388MOL0     C52298   3.898   4.499   7.598  0.0601 -0.0644  0.7381
  388MOL0     C52299   4.000   4.426   7.539  0.8207 -0.3807 -0.0115
  388MOL0     C52300   4.257   4.247   7.214  0.1208  0.3306  0.4348
  388MOL0     C52301   4.260   4.109   7.178  0.4884 -0.2716  0.0540
  388MOL0     C52302   4.365   4.061   7.097  1.2746 -0.4021 -0.3198
  388MOL0     C52303   4.466   4.147   7.054  0.2311 -0.2262  0.6950
  388MOL0     O52304   4.565   4.106   6.976 -0.0489 -0.3497 -0.3145
  388MOL0     C52305   4.577   3.980   6.922  0.6873 -0.2239 -0.0868
  388MOL0     C52306   4.720   3.950   6.876  0.4469 -0.1302 -0.2297
  388MOL0     C52307   4.818   3.908   6.988  0.0728 -0.6787  0.2160
  388MOL0     C52308   4.968   3.928   6.975  0.6197 -0.5406 -0.2844
  388MOL0     C52309   5.015   4.062   6.961 -0.5190 -0.4963  0.6891
  388MOL0     C52310   5.056   4.166   6.919  0.4389 -0.4215  0.4436
  388MOL0     C52311   4.460   4.283   7.080  0.1933  0.3428 -0.1429
  388MOL0     C52312   4.357   4.332   7.161  0.5149 -0.2290 -0.1068
  388MOL0     H52313   4.115   4.677   7.341 -0.1638  1.1832  1.0172
  388MOL0     H52314   3.949   4.801   7.448  2.2423  0.0329 -4.0412
  388MOL0     H52315   3.625   4.540   7.622 -2.7539  0.3660 -0.4781
  388MOL0     H52316   3.553   4.688   7.686 -2.5898 -1.1348 -2.2180
  388MOL0     H52317   3.615   4.814   7.500 -0.2161 -0.4814  2.2936
  388MOL0     H52318   3.638   4.667   7.403  0.4866 -0.2458  0.7305
  388MOL0     H52319   3.412   4.595   7.445  0.8588 -0.5483 -3.1218
  388MOL0     H52320   3.388   4.744   7.548  3.3320  1.8251  0.5736
  388MOL0     H52321   3.457   4.886   7.335 -0.1791  0.6291  0.2386
  388MOL0     H52322   3.436   4.746   7.244  2.4691  1.0034 -0.5120
  388MOL0     H52323   3.219   4.883   7.414 -1.7345 -0.2227 -0.2457
  388MOL0     H52324   3.252   4.902   7.240  3.6847 -0.4668 -0.4152
  388MOL0     H52325   3.181   4.671   7.215  0.5634  0.0665  1.2520
  388MOL0     H52326   3.146   4.646   7.389  0.6729 -3.3707 -2.3275
  388MOL0     H52327   2.987   4.841   7.400  2.7196  1.0721 -0.2494
  388MOL0     H52328   3.007   4.851   7.220  2.0453 -0.8839 -0.6560
  388MOL0     H52329   2.946   4.587   7.337  1.1457 -0.0328  0.4972
  388MOL0     H52330   2.900   4.660   7.173 -1.1892  1.9647  0.5344
  388MOL0     H52331   2.663   4.775   7.145 -0.9650 -0.5889  0.0436
  388MOL0     H52332   2.371   4.757   7.383  0.2955 -1.2463 -0.9369
  388MOL0     H52333   2.428   4.927   7.368 -1.7086  0.9534 -3.4738
  388MOL0     H52334   2.427   4.757   7.120  0.4148 -0.5886  1.8123
  388MOL0     H52335   2.448   4.927   7.144  1.2929 -0.4897  1.6069
  388MOL0     H52336   2.196   4.789   7.249  1.1117 -0.5935 -0.5847
  388MOL0     H52337   2.199   4.832   7.082 -0.6736 -3.1065  1.2537
  388MOL0     H52338   2.097   5.013   7.170  0.5144 -3.8002 -0.6824
  388MOL0     H52339   2.262   5.081   7.152 -1.6724  2.0166 -0.4622
  388MOL0     H52340   2.126   5.242   7.198 -1.5778 -0.4249 -0.2547
  388MOL0     H52341   1.925   5.502   7.292  0.7765  0.0593  1.3862
  388MOL0     H52342   2.076   5.588   7.263 -0.4825 -0.4286 -0.0268
  388MOL0     H52343   2.040   5.444   7.163  2.7374 -1.4422  0.2983
  388MOL0     H52344   1.806   5.746   7.603 -0.4038 -1.1027  1.1895
  388MOL0     H52345   1.761   5.984   7.653 -0.8325 -2.1862 -0.8754
  388MOL0     H52346   1.816   6.214   7.498 -2.2208 -1.6040  1.1367
  388MOL0     H52347   1.748   6.202   7.658 -0.9370  0.5938 -1.8158
  388MOL0     H52348   1.786   6.425   7.548 -0.4513 -1.0175 -0.8534
  388MOL0     H52349   1.802   6.401   7.721 -2.7876 -0.9131 -0.6277
  388MOL0     H52350   2.057   6.411   7.685  0.6136 -0.3076 -1.8309
  388MOL0     H52351   1.984   6.559   7.648  1.7600  0.4227 -2.6100
  388MOL0     H52352   2.048   6.331   7.457 -0.6187 -0.2401  2.2104
  388MOL0     H52353   1.962   6.479   7.410 -0.0924  1.0066  0.5372
  388MOL0     H52354   2.262   6.470   7.521  0.0196 -0.0807  0.1030
  388MOL0     H52355   2.169   6.617   7.490 -1.4229 -0.0902 -1.7127
  388MOL0     H52356   2.200   6.422   7.266  0.3387  2.6349 -5.3289
  388MOL0     H52357   2.153   6.589   7.270 -4.1487 -3.9725 -1.5660
  388MOL0     H52358   2.437   6.469   7.347  1.9182  1.1169 -1.2318
  388MOL0     H52359   2.410   6.642   7.313 -0.9090  0.7263 -0.2224
  388MOL0     H52360   2.339   6.582   7.079  1.8543 -0.0874 -0.5642
  388MOL0     H52361   2.388   6.411   7.118  0.0175 -0.4365 -0.2942
  388MOL0     H52362   2.184   6.054   7.632 -0.1704  0.0922  2.6938
  388MOL0     H52363   2.223   5.802   7.551  0.1323 -0.2993  0.3628
  388MOL0     H52364   2.204   5.320   7.675  0.4948  2.5215 -1.0481
  388MOL0     H52365   2.236   5.100   7.583 -0.1785  1.4318 -0.7265
  388MOL0     H52366   3.842   4.435   7.665  0.9740 -1.4072  0.2624
  388MOL0     H52367   4.039   4.327   7.557  0.3427 -0.1959  2.3845
  388MOL0     H52368   4.185   4.038   7.212 -1.7545  3.5122  3.8903
  388MOL0     H52369   4.364   3.954   7.075  0.6262  0.0716 -2.9764
  388MOL0     H52370   4.546   3.896   6.985  0.1530 -0.0136 -0.0665
  388MOL0     H52371   4.505   3.981   6.840  0.6215  2.4387 -0.0884
  388MOL0     H52372   4.758   4.040   6.825 -0.6389  0.4985  0.0339
  388MOL0     H52373   4.707   3.871   6.801 -1.7100  1.2067 -1.3844
  388MOL0     H52374   4.800   3.803   7.014  1.8758 -0.8552  0.8607
  388MOL0     H52375   4.791   3.977   7.068  2.5849  0.8205 -0.1275
  388MOL0     H52376   5.010   3.868   6.894  0.4492  0.6770 -1.3001
  388MOL0     H52377   4.998   3.896   7.075 -0.1091  1.2830  0.5691
  388MOL0     H52378   5.107   4.258   6.901  0.0543 -0.5932 -1.7846
  388MOL0     H52379   4.544   4.338   7.038  2.1029 -0.0430  2.8777
  388MOL0     H52380   4.342   4.439   7.172  3.0792  0.1312  0.5346
  389MOL0     O52381   7.375   4.956   2.050  0.1195  0.2348 -0.2253
  389MOL0     C52382   7.484   5.010   2.079  0.8609 -0.1977 -0.9121
  389MOL0     O52383   7.546   5.013   2.200  0.2297  0.4466 -0.4753
  389MOL0     C52384   7.498   4.918   2.297 -0.5594 -0.2999 -0.3958
  389MOL0     C52385   7.478   4.785   2.267  0.2246  0.0932  0.1307
  389MOL0     C52386   7.442   4.697   2.367 -0.9628  0.1649 -0.2466
  389MOL0     C52387   7.428   4.724   2.499  0.2325 -0.0857  0.0234
  389MOL0     O52388   7.407   4.629   2.599  0.1359  0.1608 -0.0693
  389MOL0     C52389   7.297   4.531   2.575  0.6049 -0.8928 -0.1338
  389MOL0     C52390   7.277   4.424   2.685 -0.3842  0.2049  0.2059
  389MOL0     C52391   7.150   4.336   2.655 -0.6934  0.3210  0.7850
  389MOL0     C52392   7.109   4.257   2.778  1.1895  0.4903  0.6876
  389MOL0     C52393   6.977   4.199   2.752  0.2606 -0.3296  0.4469
  389MOL0     C52394   6.877   4.231   2.861 -0.0703  0.1060  0.6121
  389MOL0     C52395   6.736   4.180   2.837  0.1331 -0.7634  0.0807
  389MOL0     C52396   6.662   4.260   2.733  0.1194 -0.2687 -0.7598
  389MOL0     N52397   6.523   4.232   2.740  0.6623  0.4792 -0.0543
  389MOL0     C52398   6.429   4.305   2.808  0.9254  0.5169 -0.4003
  389MOL0     C52399   6.312   4.242   2.794 -0.3121  0.4106 -0.6599
  389MOL0     C52400   6.178   4.278   2.865  1.4610 -1.6668 -1.0286
  389MOL0     C52401   6.085   4.359   2.782  0.7400  0.0073 -0.5200
  389MOL0     C52402   6.021   4.277   2.666  0.4418  0.5081  0.1670
  389MOL0     C52403   5.876   4.310   2.640  0.4321 -0.5769 -0.1406
  389MOL0     O52404   5.813   4.263   2.760  0.0180  1.0762  0.3746
  389MOL0     C52405   5.677   4.268   2.759 -0.3580  0.0529 -0.0070
  389MOL0     C52406   5.616   4.180   2.846 -0.5669  0.1987  0.4147
  389MOL0     C52407   5.475   4.178   2.876 -0.7882 -0.0935  1.2134
  389MOL0     C52408   5.426   4.079   2.974  0.2136  0.0993  0.3148
  389MOL0     C52409   5.392   4.266   2.801 -0.0953 -0.0604 -0.9590
  389MOL0     C52410   5.252   4.275   2.823  0.5742  0.2367  0.6320
  389MOL0     O52411   5.168   4.307   2.708 -0.9275  0.6136 -0.7608
  389MOL0     C52412   5.040   4.302   2.734 -0.7352  0.5185 -0.4266
  389MOL0     C52413   4.960   4.406   2.778 -0.3354 -0.1976  0.3924
  389MOL0     C52414   4.824   4.407   2.808 -0.3604  0.2597  0.0517
  389MOL0     C52415   4.761   4.289   2.778 -0.1222 -0.1483  0.0202
  389MOL0     O52416   4.626   4.267   2.799  0.3943 -0.7357  0.0070
  389MOL0     C52417   4.563   4.363   2.885  1.1202  0.5933 -0.5247
  389MOL0     C52418   4.426   4.303   2.911  0.0896  0.0080 -1.1626
  389MOL0     C52419   4.334   4.402   2.988  0.0161 -0.5989 -0.0076
  389MOL0     C52420   4.380   4.434   3.129 -0.0499  0.1750 -0.0556
  389MOL0     C52421   4.299   4.559   3.170 -0.3498 -0.6899  0.5763
  389MOL0     C52422   4.356   4.603   3.297 -0.6536 -0.5096 -0.0604
  389MOL0     C52423   4.322   4.749   3.327 -0.4514  0.6867  1.0268
  389MOL0     C52424   4.361   4.788   3.465 -0.5203 -0.6808  0.2221
  389MOL0    Cl52425   4.355   4.965   3.464 -0.1044 -0.0350  0.0826
  389MOL0     C52426   4.838   4.168   2.748 -0.3380  1.1721 -0.8198
  389MOL0     C52427   4.972   4.175   2.725  0.0819  0.3385 -0.4308
  389MOL0     O52428   5.209   4.241   2.937 -0.3345  0.4992  0.3893
  389MOL0     C52429   5.450   4.344   2.706 -0.7682 -1.3307  0.0655
  389MOL0     C52430   5.585   4.350   2.683 -1.5970 -0.2749 -0.3966
  389MOL0     N52431   6.324   4.141   2.703  0.6339  0.0780 -1.2071
  389MOL0     N52432   6.461   4.127   2.676  1.0121 -0.1581  0.0801
  389MOL0     C52433   7.453   4.855   2.533  0.1772 -0.4879 -0.3057
  389MOL0     C52434   7.477   4.959   2.438 -0.9076  0.7066 -0.1990
  389MOL0     C52435   7.533   5.097   1.970 -0.0197 -0.2341 -0.2598
  389MOL0     C52436   7.664   5.143   1.966  0.6808 -0.6323  1.1856
  389MOL0     C52437   7.713   5.234   1.875 -0.5392  0.0895  1.0274
  389MOL0     C52438   7.632   5.278   1.769 -0.5306  0.1719 -0.0650
  389MOL0     O52439   7.669   5.354   1.666 -0.4252  0.6326 -0.6931
  389MOL0     C52440   7.804   5.375   1.647 -0.1730  0.3851 -0.9017
  389MOL0     C52441   7.842   5.366   1.499  0.8879  0.9708 -1.2926
  389MOL0     C52442   7.763   5.465   1.418 -0.5386 -0.0041 -0.7464
  389MOL0     C52443   7.790   5.478   1.266  0.0866  0.5686 -0.0805
  389MOL0     C52444   7.923   5.536   1.236 -0.7264 -0.9430  1.3709
  389MOL0     C52445   8.021   5.590   1.188  0.8929 -0.5374  0.1421
  389MOL0     C52446   7.502   5.229   1.767  0.0693  0.2686  0.7799
  389MOL0     C52447   7.445   5.150   1.871 -0.0973 -0.4017  0.1240
  389MOL0     H52448   7.495   4.750   2.165  1.8656  0.6305  0.1836
  389MOL0     H52449   7.443   4.595   2.329  2.6999  0.6672 -2.0095
  389MOL0     H52450   7.199   4.576   2.558 -0.6098 -2.1165  2.8588
  389MOL0     H52451   7.318   4.484   2.478 -1.2588 -0.3612 -0.8352
  389MOL0     H52452   7.370   4.367   2.693  0.2418  1.0769 -0.6631
  389MOL0     H52453   7.251   4.468   2.782  0.0173  1.5928 -0.2954
  389MOL0     H52454   7.064   4.397   2.625 -1.4035  0.3864  2.8013
  389MOL0     H52455   7.172   4.286   2.560  0.8018 -0.0214  1.2767
  389MOL0     H52456   7.179   4.178   2.808 -0.5216 -0.9430  1.1006
  389MOL0     H52457   7.088   4.336   2.851  1.6586  1.7614 -0.5244
  389MOL0     H52458   6.934   4.239   2.659 -1.5006  1.8231  2.0886
  389MOL0     H52459   6.982   4.090   2.750  0.2373 -0.4085 -3.3620
  389MOL0     H52460   6.905   4.172   2.949 -0.1347  0.8463  1.1461
  389MOL0     H52461   6.881   4.339   2.881 -0.7660  0.4497 -0.9950
  389MOL0     H52462   6.743   4.072   2.825  1.4990 -0.5432 -1.6169
  389MOL0     H52463   6.683   4.190   2.932 -1.4755 -2.2528 -0.5968
  389MOL0     H52464   6.693   4.222   2.635 -0.1954 -1.9305 -0.2465
  389MOL0     H52465   6.679   4.367   2.743  0.3804 -0.4703  1.5025
  389MOL0     H52466   6.452   4.392   2.868  1.0157  0.1464  0.1130
  389MOL0     H52467   6.129   4.188   2.902 -1.3937  0.4646  0.8332
  389MOL0     H52468   6.206   4.337   2.952 -1.9536  0.7577 -1.3559
  389MOL0     H52469   6.130   4.446   2.733  0.8173 -1.1066 -2.5451
  389MOL0     H52470   6.011   4.397   2.852  1.3592  1.7274 -0.7534
  389MOL0     H52471   6.036   4.170   2.683 -1.1237  0.3900  0.9003
  389MOL0     H52472   6.083   4.294   2.577  1.1595 -1.6529  0.1925
  389MOL0     H52473   5.838   4.255   2.554 -0.3481 -0.9999  0.4585
  389MOL0     H52474   5.871   4.417   2.618 -0.9766 -0.5380  0.2347
  389MOL0     H52475   5.684   4.113   2.897 -0.7909 -2.1567 -2.1336
  389MOL0     H52476   5.332   4.027   2.952 -1.8675  3.2384  1.1117
  389MOL0     H52477   5.498   4.000   2.994  2.0395  1.5125 -0.3323
  389MOL0     H52478   5.411   4.128   3.071 -3.4503  1.2794 -0.6571
  389MOL0     H52479   5.025   4.493   2.783  1.4495 -1.1438 -3.2443
  389MOL0     H52480   4.781   4.500   2.845  1.4941  0.7081  1.2198
  389MOL0     H52481   4.630   4.365   2.972  2.1374 -0.4330 -1.2610
  389MOL0     H52482   4.557   4.465   2.845 -1.5857  1.8105  2.5124
  389MOL0     H52483   4.384   4.268   2.816  1.1286 -4.7949 -0.0925
  389MOL0     H52484   4.438   4.210   2.967 -1.8399 -1.1268 -2.5125
  389MOL0     H52485   4.232   4.363   2.991  0.0727 -0.8851 -1.2641
  389MOL0     H52486   4.337   4.495   2.931  2.1965  0.1484  1.1966
  389MOL0     H52487   4.348   4.348   3.187 -0.6415 -0.4523 -1.2720
  389MOL0     H52488   4.489   4.443   3.124  0.0875 -1.6688 -3.5068
  389MOL0     H52489   4.195   4.539   3.198 -0.4250  1.3618  2.0176
  389MOL0     H52490   4.300   4.644   3.101 -1.9869 -0.5308  0.7081
  389MOL0     H52491   4.308   4.550   3.380 -2.9054 -2.4649 -2.4676
  389MOL0     H52492   4.465   4.595   3.301 -0.6693 -1.9209 -1.7220
  389MOL0     H52493   4.217   4.766   3.304  0.1272 -0.2266 -3.0879
  389MOL0     H52494   4.385   4.809   3.261 -0.4282  0.7417  1.0987
  389MOL0     H52495   4.466   4.764   3.480 -0.0553  0.1650 -1.4526
  389MOL0     H52496   4.296   4.743   3.541 -0.9675  0.0461  0.2780
  389MOL0     H52497   4.784   4.074   2.748  0.0377  0.9447  0.1587
  389MOL0     H52498   5.025   4.082   2.703 -0.2632  0.0876 -0.2135
  389MOL0     H52499   5.402   4.406   2.631  1.0945 -1.4221 -1.2666
  389MOL0     H52500   5.629   4.420   2.612 -0.9930  0.7302  0.9119
  389MOL0     H52501   7.450   4.871   2.640  0.8581 -0.0181 -0.3526
  389MOL0     H52502   7.500   5.061   2.466  1.5118 -0.3608  2.1428
  389MOL0     H52503   7.736   5.091   2.028  1.2542 -1.6457 -0.2761
  389MOL0     H52504   7.819   5.256   1.877 -0.8458  2.2697 -1.2619
  389MOL0     H52505   7.824   5.478   1.680 -0.7763  0.5021 -0.8975
  389MOL0     H52506   7.867   5.304   1.702 -3.5347 -1.3172  1.0198
  389MOL0     H52507   7.814   5.268   1.460  1.6945 -0.2409  0.9702
  389MOL0     H52508   7.949   5.384   1.489  1.2653 -0.5238 -0.2130
  389MOL0     H52509   7.763   5.564   1.464 -2.4119 -0.3155  0.0123
  389MOL0     H52510   7.660   5.432   1.433  0.1386 -1.6606  0.5509
  389MOL0     H52511   7.722   5.555   1.226  2.6154  1.9210 -2.0410
  389MOL0     H52512   7.757   5.390   1.210 -1.9203  2.6671 -2.5341
  389MOL0     H52513   8.111   5.638   1.156  0.2656  0.6802  0.1451
  389MOL0     H52514   7.442   5.256   1.681  2.8215  1.6532 -0.8757
  389MOL0     H52515   7.342   5.117   1.867 -0.5277  0.8238  0.4778
  390MOL0     O52516   5.880   5.166   1.282  0.0016 -0.0306 -0.0486
  390MOL0     C52517   6.000   5.184   1.321  0.1795 -0.7231  1.2754
  390MOL0     O52518   6.105   5.095   1.306 -0.3648  0.2368 -0.4022
  390MOL0     C52519   6.086   4.969   1.259  0.1472  0.6675 -0.4274
  390MOL0     C52520   5.985   4.879   1.311 -0.1768  0.5704  0.6754
  390MOL0     C52521   5.979   4.748   1.260 -0.3503 -0.3410 -0.1523
  390MOL0     C52522   6.078   4.697   1.180 -0.1577  0.0077 -0.2131
  390MOL0     O52523   6.067   4.572   1.129  0.3158  0.1649  0.3809
  390MOL0     C52524   5.949   4.543   1.046  0.1740  0.0302  0.0014
  390MOL0     C52525   5.831   4.488   1.135  1.1865  0.2789  0.4710
  390MOL0     C52526   5.724   4.409   1.044  0.1255  0.2744  0.6807
  390MOL0     C52527   5.651   4.315   1.128 -0.3284 -0.9176 -0.6777
  390MOL0     C52528   5.491   4.301   1.119  0.3297 -0.5346  1.1170
  390MOL0     C52529   5.435   4.203   1.218  0.2219  0.3906 -0.2267
  390MOL0     C52530   5.286   4.222   1.253  0.5835 -0.6452 -0.1007
  390MOL0     C52531   5.195   4.157   1.142 -0.4110  0.7290  0.8378
  390MOL0     N52532   5.066   4.103   1.198  0.0851  0.2119  0.2192
  390MOL0     C52533   5.051   3.978   1.252  1.2149 -0.6182 -0.3794
  390MOL0     C52534   4.920   3.969   1.299  0.6758 -0.2204 -0.4665
  390MOL0     C52535   4.852   3.847   1.346 -0.2626  0.2219  0.5228
  390MOL0     C52536   4.734   3.803   1.256  0.5120  1.3664 -0.1301
  390MOL0     C52537   4.596   3.881   1.268 -0.6251  0.1138  0.7810
  390MOL0     C52538   4.474   3.795   1.255  0.1169  0.0793 -0.2842
  390MOL0     O52539   4.451   3.766   1.117 -0.2543 -0.2536  0.1803
  390MOL0     C52540   4.342   3.681   1.082  0.3394 -0.4111 -0.2047
  390MOL0     C52541   4.251   3.642   1.182 -1.1528 -0.7973 -0.7835
  390MOL0     C52542   4.146   3.559   1.145  0.6289 -0.2769 -0.4425
  390MOL0     C52543   4.051   3.511   1.260 -0.1500 -1.1035  0.5821
  390MOL0     C52544   4.131   3.522   1.005 -0.4311 -0.1772  0.2505
  390MOL0     C52545   4.009   3.464   0.955  0.4412 -0.2526 -0.0228
  390MOL0     O52546   3.894   3.505   1.022  0.2224  0.7595  0.0581
  390MOL0     C52547   3.786   3.430   1.016  0.2343 -0.1873  0.3296
  390MOL0     C52548   3.679   3.457   0.925 -0.2560  0.2453 -0.4049
  390MOL0     C52549   3.570   3.378   0.934  0.4148  0.8405  0.5017
  390MOL0     C52550   3.565   3.265   1.012 -0.3744 -0.2585 -0.8362
  390MOL0     O52551   3.457   3.182   1.014 -0.0129  0.2189  0.1816
  390MOL0     C52552   3.329   3.216   0.969 -0.3309 -0.0947 -0.6590
  390MOL0     C52553   3.240   3.091   0.974 -0.2006  0.2169 -0.3049
  390MOL0     C52554   3.184   3.065   1.109  1.0999  0.0566  0.7952
  390MOL0     C52555   3.071   3.171   1.155 -0.1830 -0.0156  0.0398
  390MOL0     C52556   3.005   3.142   1.291  0.8254 -0.0419  0.2780
  390MOL0     C52557   3.091   3.190   1.412 -1.0788  0.1402 -0.3158
  390MOL0     C52558   2.999   3.211   1.537 -0.8290  0.0024 -0.7310
  390MOL0     C52559   3.096   3.239   1.660 -0.2918  0.0686 -0.4287
  390MOL0    Cl52560   2.995   3.232   1.808  0.1826 -0.1059  0.0115
  390MOL0     C52561   3.678   3.233   1.093 -0.1957  0.1400 -0.3431
  390MOL0     C52562   3.792   3.316   1.095 -0.4735 -0.3574 -0.1097
  390MOL0     O52563   4.015   3.392   0.851 -0.3125 -0.0615 -0.0454
  390MOL0     C52564   4.229   3.562   0.908  0.0478 -0.0435  0.8088
  390MOL0     C52565   4.323   3.651   0.949 -0.4748 -0.5325  0.0376
  390MOL0     N52566   4.859   4.087   1.250  0.2927  0.1935 -0.1316
  390MOL0     N52567   4.948   4.163   1.197  0.5273  0.8133  0.3072
  390MOL0     C52568   6.182   4.776   1.144  0.3395 -0.3055 -0.2128
  390MOL0     C52569   6.182   4.914   1.173  0.8627  0.9437  0.1024
  390MOL0     C52570   6.016   5.322   1.368 -0.2385  0.0512 -0.3151
  390MOL0     C52571   5.921   5.425   1.351  0.4532 -0.4085  0.6376
  390MOL0     C52572   5.958   5.551   1.404 -0.5600  0.5308 -0.4791
  390MOL0     C52573   6.062   5.566   1.498 -0.7129 -0.7642 -0.5089
  390MOL0     O52574   6.099   5.681   1.564 -0.8466  1.0070  0.2520
  390MOL0     C52575   6.028   5.802   1.559  0.1435 -0.6946  0.1930
  390MOL0     C52576   5.895   5.806   1.649 -0.9424  0.8453 -0.2442
  390MOL0     C52577   5.905   5.740   1.789 -0.1229  0.7506  0.1775
  390MOL0     C52578   6.005   5.809   1.885 -0.1968 -0.4408 -0.0857
  390MOL0     C52579   5.995   5.787   2.028 -0.6361 -0.0495  0.9000
  390MOL0     C52580   5.981   5.780   2.152  0.7766 -0.7510 -0.6177
  390MOL0     C52581   6.145   5.456   1.524  0.3444 -0.1471  0.5926
  390MOL0     C52582   6.129   5.340   1.459  0.8211  0.5987  0.7208
  390MOL0     H52583   5.910   4.906   1.385  1.0812  1.6754  1.6010
  390MOL0     H52584   5.883   4.706   1.288 -1.4647  4.0358  3.6901
  390MOL0     H52585   5.913   4.631   0.993 -2.4122 -1.7563 -1.4309
  390MOL0     H52586   5.980   4.463   0.978 -1.6542 -0.5314 -0.2274
  390MOL0     H52587   5.864   4.429   1.221 -0.9035 -0.3590  0.8972
  390MOL0     H52588   5.773   4.571   1.174 -0.1173  0.6940 -2.1605
  390MOL0     H52589   5.653   4.480   0.999  0.2526  2.1561  3.2376
  390MOL0     H52590   5.775   4.349   0.968  2.2470  3.5881 -0.7394
  390MOL0     H52591   5.695   4.216   1.112  0.6193 -0.9037  1.4822
  390MOL0     H52592   5.665   4.345   1.232 -1.7850 -1.0931 -0.4001
  390MOL0     H52593   5.448   4.399   1.142  2.3132  0.6059  0.1611
  390MOL0     H52594   5.457   4.291   1.016 -0.0927  3.3652  0.7082
  390MOL0     H52595   5.444   4.097   1.194  2.3727 -0.3853  3.3513
  390MOL0     H52596   5.483   4.218   1.315 -1.6454 -1.5966  1.1213
  390MOL0     H52597   5.260   4.175   1.348 -0.1165 -1.8728 -0.8737
  390MOL0     H52598   5.263   4.328   1.270 -1.7050 -0.5874 -2.8580
  390MOL0     H52599   5.242   4.069   1.097 -1.2778  0.1075  1.1227
  390MOL0     H52600   5.195   4.225   1.057  1.6856  1.9105  1.6992
  390MOL0     H52601   5.113   3.889   1.257 -1.6540 -2.9146 -1.9037
  390MOL0     H52602   4.920   3.762   1.344 -2.1238 -1.3163 -0.4036
  390MOL0     H52603   4.821   3.866   1.450  0.1341  3.8561  0.1233
  390MOL0     H52604   4.721   3.698   1.282  0.6651  1.3135 -0.2694
  390MOL0     H52605   4.764   3.789   1.152 -1.5994 -4.1525 -0.3569
  390MOL0     H52606   4.592   3.957   1.190  1.7545 -0.9885 -0.5267
  390MOL0     H52607   4.592   3.921   1.370  2.0291 -0.6098  1.2376
  390MOL0     H52608   4.396   3.852   1.307  2.1714  1.7463  1.1677
  390MOL0     H52609   4.485   3.698   1.305  2.5478  1.0299  1.2153
  390MOL0     H52610   4.260   3.676   1.284  1.7436 -0.4293 -1.0899
  390MOL0     H52611   4.022   3.410   1.230 -1.8170 -0.5777  0.3205
  390MOL0     H52612   4.110   3.518   1.352  1.4723  4.8426 -0.4729
  390MOL0     H52613   3.963   3.574   1.276  1.0463  0.0761  3.0938
  390MOL0     H52614   3.686   3.545   0.863  1.2415  0.2341 -0.2707
  390MOL0     H52615   3.492   3.413   0.868  0.1789  2.8427  1.7908
  390MOL0     H52616   3.294   3.302   1.027  1.2961  1.1522 -1.4636
  390MOL0     H52617   3.335   3.247   0.864 -1.2013  3.6004  0.2566
  390MOL0     H52618   3.169   3.109   0.893  1.8852  0.2330 -2.2422
  390MOL0     H52619   3.295   3.000   0.949 -2.0137 -1.5402  1.6462
  390MOL0     H52620   3.260   3.067   1.187  0.1720  0.2464  1.7109
  390MOL0     H52621   3.141   2.965   1.111  2.9746 -0.8921 -1.4013
  390MOL0     H52622   3.103   3.275   1.148  0.0027  0.2292  3.1306
  390MOL0     H52623   3.001   3.159   1.072 -0.7475 -1.7727  0.7290
  390MOL0     H52624   2.995   3.033   1.291  1.6719 -0.1744 -2.1272
  390MOL0     H52625   2.910   3.194   1.304 -0.8534 -2.2431 -2.0876
  390MOL0     H52626   3.164   3.113   1.440 -0.7547  0.7800  0.6176
  390MOL0     H52627   3.139   3.283   1.379 -2.6280  0.2351 -2.5442
  390MOL0     H52628   2.936   3.124   1.557 -0.3195  0.0491  1.2949
  390MOL0     H52629   2.942   3.302   1.518  0.4431  0.6156 -1.7685
  390MOL0     H52630   3.120   3.344   1.636 -6.7006  1.6979 -1.4311
  390MOL0     H52631   3.182   3.171   1.665 -1.5531 -1.4714  2.3249
  390MOL0     H52632   3.680   3.152   1.165 -0.1076  0.4372 -0.0056
  390MOL0     H52633   3.879   3.292   1.155 -0.8147 -0.1615  0.4743
  390MOL0     H52634   4.216   3.519   0.810  0.0878  0.2122  0.6891
  390MOL0     H52635   4.392   3.691   0.875  2.3141 -0.9450  2.2522
  390MOL0     H52636   6.256   4.742   1.071  0.0120 -0.3861 -0.5125
  390MOL0     H52637   6.268   4.975   1.146  0.3945  1.0888 -1.1547
  390MOL0     H52638   5.832   5.424   1.289  1.2511  1.3894 -0.6682
  390MOL0     H52639   5.896   5.639   1.386 -0.5532  1.2925  2.7484
  390MOL0     H52640   6.082   5.889   1.598  0.6653  0.6793 -3.2004
  390MOL0     H52641   6.010   5.823   1.453 -1.5778  2.3567  0.9622
  390MOL0     H52642   5.818   5.744   1.604 -2.1606  0.9505  1.5787
  390MOL0     H52643   5.857   5.909   1.643 -1.2816  0.8676  1.6624
  390MOL0     H52644   5.922   5.632   1.778  1.6243  1.1417 -1.3551
  390MOL0     H52645   5.803   5.754   1.825  0.0289  0.8260  0.5824
  390MOL0     H52646   5.968   5.911   1.868  1.7057  0.2085 -0.4946
  390MOL0     H52647   6.109   5.805   1.852 -0.1424  1.1543 -0.1717
  390MOL0     H52648   5.975   5.759   2.257 -0.6785  2.5948  0.1167
  390MOL0     H52649   6.222   5.469   1.599  0.2513  2.8106  0.3102
  390MOL0     H52650   6.201   5.262   1.480  0.4588  0.3578  1.0697
  391MOL0     O52651   2.312   7.559   1.274  0.3769  0.3561  0.5104
  391MOL0     C52652   2.405   7.632   1.316  0.3378  0.0158  0.3138
  391MOL0     O52653   2.433   7.643   1.445  0.0480 -0.3775  0.0276
  391MOL0     C52654   2.352   7.566   1.529 -1.3221  1.0874  0.5403
  391MOL0     C52655   2.227   7.606   1.558 -0.2469 -0.4834  1.2040
  391MOL0     C52656   2.150   7.546   1.660  0.1848 -0.0256  0.0262
  391MOL0     C52657   2.195   7.424   1.709  0.4302  0.3496 -0.2030
  391MOL0     O52658   2.107   7.353   1.793 -0.5185  0.4029 -0.1108
  391MOL0     C52659   2.168   7.245   1.874  0.1855  0.1098  0.3346
  391MOL0     C52660   2.060   7.187   1.968  0.3894  0.2392  0.4202
  391MOL0     C52661   1.925   7.164   1.894 -0.9351 -0.2964 -0.9168
  391MOL0     C52662   1.832   7.073   1.980  0.5834 -0.0459 -0.7503
  391MOL0     C52663   1.790   6.943   1.898  0.3636  0.0474  0.0956
  391MOL0     C52664   1.897   6.835   1.896 -0.4160  0.0671 -0.8076
  391MOL0     C52665   1.839   6.712   1.815 -0.3697 -0.0483 -0.0625
  391MOL0     C52666   1.794   6.741   1.670  0.0322  0.0858  0.2171
  391MOL0     N52667   1.871   6.812   1.574 -0.3240 -1.0855 -0.2053
  391MOL0     C52668   1.849   6.804   1.435 -0.1264 -0.5356  0.2099
  391MOL0     C52669   1.938   6.896   1.379 -0.1141 -0.2023  0.1483
  391MOL0     C52670   1.938   6.918   1.232  0.1469  0.1362 -0.0090
  391MOL0     C52671   1.800   6.979   1.197  0.0272 -1.1019  1.0541
  391MOL0     C52672   1.774   6.999   1.046 -0.2370 -0.4303  0.4818
  391MOL0     C52673   1.863   7.107   0.988 -0.0192  0.6371  0.3832
  391MOL0     O52674   1.994   7.038   0.959  0.4115 -0.0462  0.4454
  391MOL0     C52675   2.091   7.116   0.908  0.3827 -0.0911  0.1620
  391MOL0     C52676   2.210   7.050   0.871  0.0623 -0.0229  0.4238
  391MOL0     C52677   2.317   7.120   0.813 -0.3047 -0.1691  0.3119
  391MOL0     C52678   2.433   7.030   0.781  0.1134 -0.2688  0.1444
  391MOL0     C52679   2.304   7.257   0.787  0.8768  0.3717  0.5260
  391MOL0     C52680   2.415   7.339   0.723  0.2431  1.5371  0.2380
  391MOL0     O52681   2.406   7.468   0.718  0.0125  0.6568  0.8389
  391MOL0     C52682   2.507   7.547   0.681  0.2672 -0.2220 -0.3502
  391MOL0     C52683   2.459   7.668   0.644  0.4007 -0.0775 -0.1304
  391MOL0     C52684   2.539   7.765   0.588 -0.0737  0.8043 -0.2117
  391MOL0     C52685   2.676   7.743   0.562 -0.5710 -1.6715  1.2465
  391MOL0     O52686   2.765   7.834   0.512 -0.0199 -0.0678  0.3482
  391MOL0     C52687   2.722   7.906   0.396 -0.6249  0.2523  0.1848
  391MOL0     C52688   2.832   7.869   0.304 -0.2850 -0.1962 -0.1441
  391MOL0     C52689   2.965   7.931   0.352 -0.4598 -0.4291  0.0296
  391MOL0     C52690   2.974   8.087   0.365  0.2023  0.7276  0.0401
  391MOL0     C52691   3.124   8.122   0.336  0.9795  0.0072  0.7647
  391MOL0     C52692   3.135   8.276   0.315  0.3087 -0.2668 -0.1952
  391MOL0     C52693   3.276   8.309   0.342 -0.6265  0.2601 -0.1494
  391MOL0     C52694   3.309   8.435   0.270 -0.2872  0.5596  0.1277
  391MOL0    Cl52695   3.227   8.563   0.352 -0.3609 -0.0376 -0.1735
  391MOL0     C52696   2.732   7.632   0.612  0.4976  0.8920  0.2549
  391MOL0     C52697   2.649   7.531   0.677 -1.0423  0.4555 -0.0305
  391MOL0     O52698   2.520   7.278   0.690 -0.4934  0.9006  0.3431
  391MOL0     C52699   2.186   7.325   0.827 -0.0931  0.4426  0.1371
  391MOL0     C52700   2.078   7.256   0.883  0.4180  0.3464 -0.5483
  391MOL0     N52701   2.019   6.943   1.479 -0.3637  0.0654 -0.3230
  391MOL0     N52702   1.972   6.900   1.592  1.1507  0.3881 -0.3555
  391MOL0     C52703   2.324   7.369   1.672  0.4585  0.1293  1.2382
  391MOL0     C52704   2.405   7.450   1.588  0.9246 -0.1313 -0.2871
  391MOL0     C52705   2.492   7.692   1.213 -0.1886  0.1404 -0.3124
  391MOL0     C52706   2.448   7.705   1.073  0.2794  0.8196  0.7913
  391MOL0     C52707   2.530   7.765   0.977  0.2773  0.1955 -0.3738
  391MOL0     C52708   2.665   7.798   0.998 -0.2089 -0.5850  0.5602
  391MOL0     O52709   2.741   7.850   0.896  0.1550 -0.4085  0.4109
  391MOL0     C52710   2.885   7.852   0.906  0.2880  0.8220  0.4633
  391MOL0     C52711   2.959   7.850   0.774  0.0312  0.2345  0.3539
  391MOL0     C52712   3.112   7.840   0.799 -0.0459  0.6103 -0.0810
  391MOL0     C52713   3.193   7.850   0.677 -0.3290 -0.3797 -0.6302
  391MOL0     C52714   3.326   7.814   0.709 -0.5633  0.5770 -0.0967
  391MOL0     C52715   3.436   7.814   0.750 -0.3762 -0.2993  0.0443
  391MOL0     C52716   2.712   7.780   1.130  0.3805 -1.0474 -0.8983
  391MOL0     C52717   2.626   7.737   1.235  0.1522 -0.5274  0.1689
  391MOL0     H52718   2.188   7.683   1.493  1.2579 -0.4691  0.2559
  391MOL0     H52719   2.048   7.579   1.674 -0.0170  0.5716 -2.4186
  391MOL0     H52720   2.195   7.162   1.808 -2.3974  0.5836 -1.4650
  391MOL0     H52721   2.258   7.276   1.929  1.2461 -3.0710  0.6074
  391MOL0     H52722   2.095   7.093   2.010  3.9157  1.3939  0.3775
  391MOL0     H52723   2.036   7.251   2.054 -3.8462 -0.9236  0.3632
  391MOL0     H52724   1.886   7.265   1.883 -1.1157 -0.5339 -2.8949
  391MOL0     H52725   1.951   7.128   1.794  1.0468  1.0035 -0.9268
  391MOL0     H52726   1.883   7.039   2.071  2.2911  1.3413 -1.1254
  391MOL0     H52727   1.745   7.129   2.015  0.3786 -1.0935  0.4851
  391MOL0     H52728   1.699   6.906   1.947  1.5107  1.4659  3.6698
  391MOL0     H52729   1.769   6.975   1.796 -0.9453 -2.0333 -0.3503
  391MOL0     H52730   1.994   6.866   1.856  3.2612 -3.4060  4.2353
  391MOL0     H52731   1.928   6.812   1.998 -1.9256  0.4175 -0.2502
  391MOL0     H52732   1.917   6.635   1.814 -3.7417 -3.9842  2.9336
  391MOL0     H52733   1.758   6.664   1.871  0.4610  0.8446  1.9893
  391MOL0     H52734   1.697   6.791   1.666  0.5215  1.0229 -2.6716
  391MOL0     H52735   1.779   6.641   1.627 -0.1375  1.6532 -3.7553
  391MOL0     H52736   1.768   6.753   1.383 -2.6916  0.7815  2.6844
  391MOL0     H52737   2.017   6.989   1.206  0.1238  0.6783  1.3389
  391MOL0     H52738   1.952   6.824   1.177 -0.2968  0.1426 -0.1364
  391MOL0     H52739   1.801   7.078   1.244  4.8084  0.1289 -1.0042
  391MOL0     H52740   1.719   6.919   1.239 -0.0320  0.0505  2.6828
  391MOL0     H52741   1.668   7.018   1.028  0.5678  0.6541 -5.2575
  391MOL0     H52742   1.784   6.902   0.996 -3.5581 -0.7248  0.1975
  391MOL0     H52743   1.869   7.188   1.062 -0.8027 -0.0333  1.2061
  391MOL0     H52744   1.826   7.148   0.894 -0.6363 -1.4075 -0.3241
  391MOL0     H52745   2.203   6.944   0.893 -0.6991 -0.2913 -1.0458
  391MOL0     H52746   2.520   7.052   0.844 -0.5416  4.1156 -0.1481
  391MOL0     H52747   2.418   6.924   0.801 -0.8589  0.0904  1.4427
  391MOL0     H52748   2.472   7.042   0.680 -1.0337 -2.1425 -0.5820
  391MOL0     H52749   2.352   7.683   0.648  0.7450  2.7440  0.3252
  391MOL0     H52750   2.496   7.862   0.565 -2.6131  0.1487  1.4548
  391MOL0     H52751   2.628   7.872   0.352  1.8156 -4.1649 -2.3483
  391MOL0     H52752   2.703   8.012   0.415 -2.0382 -0.1012  0.9295
  391MOL0     H52753   2.839   7.761   0.297  0.4984 -0.1961  0.4918
  391MOL0     H52754   2.807   7.912   0.207 -1.1891 -0.1283  0.1036
  391MOL0     H52755   3.036   7.904   0.274 -1.6256 -0.2989 -1.1080
  391MOL0     H52756   3.009   7.893   0.445  3.0008  0.7307 -0.9715
  391MOL0     H52757   2.912   8.143   0.294 -0.4809  2.3790  1.8571
  391MOL0     H52758   2.954   8.107   0.470 -1.3609 -1.3369  0.1947
  391MOL0     H52759   3.162   8.075   0.245  0.8720  1.2989  0.0323
  391MOL0     H52760   3.180   8.087   0.424  0.5643 -1.8772  0.3268
  391MOL0     H52761   3.109   8.298   0.211  2.9967 -1.2475 -1.1457
  391MOL0     H52762   3.075   8.328   0.391  1.7631  0.7412  0.3015
  391MOL0     H52763   3.338   8.228   0.301 -0.5465 -0.4315  1.2830
  391MOL0     H52764   3.283   8.324   0.450  0.1474  0.9126 -0.2759
  391MOL0     H52765   3.276   8.420   0.167  0.0715 -0.6349  0.1685
  391MOL0     H52766   3.415   8.460   0.269 -0.2960  0.6046  0.2856
  391MOL0     H52767   2.835   7.600   0.595 -0.2069 -0.3971 -1.8691
  391MOL0     H52768   2.683   7.438   0.721 -2.1759 -0.4197 -0.9569
  391MOL0     H52769   2.170   7.433   0.824 -0.3805  0.5491  2.8753
  391MOL0     H52770   1.989   7.305   0.921 -1.5959 -3.2335 -0.2159
  391MOL0     H52771   2.357   7.274   1.711  2.8556  2.1098  4.5811
  391MOL0     H52772   2.502   7.409   1.560  0.6151  0.3110 -2.1801
  391MOL0     H52773   2.347   7.682   1.042  0.7338 -0.0467 -0.1059
  391MOL0     H52774   2.488   7.777   0.878 -0.1635  0.8834 -0.1086
  391MOL0     H52775   2.917   7.948   0.949 -1.3898  1.7926 -0.3574
  391MOL0     H52776   2.920   7.773   0.974 -0.0344  0.8329  0.6451
  391MOL0     H52777   2.936   7.938   0.714  3.4597  1.3510  0.4817
  391MOL0     H52778   2.922   7.766   0.714 -0.6058  0.8566 -0.1443
  391MOL0     H52779   3.138   7.750   0.856 -0.0582  1.0997  0.7073
  391MOL0     H52780   3.139   7.922   0.866 -0.7373 -2.6723  4.7761
  391MOL0     H52781   3.202   7.949   0.632  0.3504 -0.5383 -0.8527
  391MOL0     H52782   3.154   7.783   0.600  0.1551 -0.9336 -0.4027
  391MOL0     H52783   3.532   7.794   0.793 -0.9208  1.0005  1.9642
  391MOL0     H52784   2.809   7.815   1.163 -0.1996 -1.9344  2.0456
  391MOL0     H52785   2.663   7.738   1.337 -1.0069  1.9671  0.6610
  392MOL0     O52786   3.113   4.005  11.152 -0.4191 -0.2745 -0.3849
  392MOL0     C52787   3.034   3.972  11.062 -0.8578 -0.2647  0.7536
  392MOL0     O52788   2.901   3.979  11.066  0.8533 -0.1692 -0.1938
  392MOL0     C52789   2.837   4.037  11.176 -0.1584 -0.8272  0.5688
  392MOL0     C52790   2.737   3.975  11.253 -0.7717 -0.8229 -0.0530
  392MOL0     C52791   2.678   4.045  11.360  0.2490 -0.3528 -0.3854
  392MOL0     C52792   2.704   4.182  11.385 -0.6162 -0.1687 -0.1110
  392MOL0     O52793   2.633   4.240  11.488 -0.1991  0.1785  0.0487
  392MOL0     C52794   2.638   4.384  11.500  0.6883 -0.2594 -0.8829
  392MOL0     C52795   2.522   4.428  11.589 -0.1659  0.6457  0.3822
  392MOL0     C52796   2.386   4.414  11.517 -0.0268 -0.2769 -0.2669
  392MOL0     C52797   2.309   4.276  11.497 -0.1370  0.1864 -0.6871
  392MOL0     C52798   2.171   4.294  11.427 -0.9554  0.4376 -0.6086
  392MOL0     C52799   2.049   4.335  11.504 -0.7395  0.0647 -0.1194
  392MOL0     C52800   2.062   4.463  11.578  0.0206 -0.1612  0.1670
  392MOL0     C52801   1.931   4.530  11.640 -0.1318 -1.0975 -0.4956
  392MOL0     N52802   1.856   4.437  11.730  0.4291  0.2017  0.3164
  392MOL0     C52803   1.785   4.323  11.702  0.2332 -1.0755 -0.2165
  392MOL0     C52804   1.722   4.292  11.818  0.3664 -0.2107 -0.2257
  392MOL0     C52805   1.650   4.168  11.852  0.2924  0.5123 -0.1454
  392MOL0     C52806   1.509   4.165  11.793 -0.6549 -0.0628  0.2343
  392MOL0     C52807   1.415   4.272  11.851  0.1459  0.2473  0.5009
  392MOL0     C52808   1.278   4.270  11.800 -0.5741  0.1073 -0.6459
  392MOL0     O52809   1.220   4.145  11.848  0.8130 -0.5798  0.4377
  392MOL0     C52810   1.095   4.116  11.787 -1.0813  0.7019 -0.6579
  392MOL0     C52811   1.028   4.198  11.696 -0.6523 -0.5264  1.1446
  392MOL0     C52812   0.897   4.169  11.651  0.1841 -0.7219 -0.5325
  392MOL0     C52813   0.840   4.242  11.535  0.0611 -0.1289 -0.0973
  392MOL0     C52814   0.825   4.054  11.706  0.7496  0.0949 -0.3341
  392MOL0     C52815   0.689   4.005  11.669  0.7717 -0.3269  0.1878
  392MOL0     O52816   0.620   3.935  11.762 -0.2454  1.1585 -0.5959
  392MOL0     C52817   0.484   3.916  11.743 -0.2658  0.9398 -0.3126
  392MOL0     C52818   0.381   4.009  11.755  0.2454 -0.0754 -0.3215
  392MOL0     C52819   0.253   3.976  11.726 -0.7659  0.5385  0.9898
  392MOL0     C52820   0.212   3.847  11.688 -0.0851 -0.3460  0.0967
  392MOL0     O52821   0.076   3.832  11.654 -0.2111 -0.1662  0.2062
  392MOL0     C52822   0.004   3.709  11.677 -0.0912  0.3160  0.7089
  392MOL0     C52823  -0.141   3.750  11.688  0.1495 -0.3981  0.6461
  392MOL0     C52824  -0.193   3.825  11.564  0.1095 -0.0242  0.6491
  392MOL0     C52825  -0.337   3.843  11.572 -0.1811 -0.3685 -0.4626
  392MOL0     C52826  -0.394   3.914  11.456 -0.7395  0.0460  0.0132
  392MOL0     C52827  -0.549   3.925  11.465  0.3106 -0.5492  0.2212
  392MOL0     C52828  -0.604   3.958  11.327 -0.6693 -0.2308  0.2997
  392MOL0     C52829  -0.755   3.993  11.306  0.1069  0.4115  0.1178
  392MOL0    Cl52830  -0.791   4.126  11.413 -0.1184 -0.7230  0.6107
  392MOL0     C52831   0.307   3.752  11.674 -0.7556  0.1955 -0.8472
  392MOL0     C52832   0.442   3.784  11.715  0.2415 -0.3357  0.0482
  392MOL0     O52833   0.649   4.023  11.554  0.1016 -0.1200 -0.1791
  392MOL0     C52834   0.896   3.983  11.801 -0.9056  0.0488 -0.6752
  392MOL0     C52835   1.030   4.007  11.836 -0.8164 -0.1544 -0.7090
  392MOL0     N52836   1.739   4.392  11.903 -0.7481 -0.0105  0.1005
  392MOL0     N52837   1.815   4.478  11.852 -1.2701 -0.0182  0.1103
  392MOL0     C52838   2.812   4.245  11.312 -0.4541 -0.3176 -0.8096
  392MOL0     C52839   2.863   4.175  11.206 -0.0703  0.9464  0.4466
  392MOL0     C52840   3.086   3.922  10.925 -0.0058 -0.6504  0.3293
  392MOL0     C52841   3.224   3.903  10.907 -0.2515  0.1455  0.4720
  392MOL0     C52842   3.281   3.866  10.785  0.5574  1.0089  0.9192
  392MOL0     C52843   3.196   3.845  10.678 -0.2306 -0.4298  0.1975
  392MOL0     O52844   3.241   3.797  10.555  0.0914  0.2755 -0.1858
  392MOL0     C52845   3.370   3.844  10.519 -0.4300 -0.3782  0.1164
  392MOL0     C52846   3.472   3.734  10.534 -0.5390  0.4391 -0.4959
  392MOL0     C52847   3.606   3.777  10.470 -0.9864 -0.2766 -1.6946
  392MOL0     C52848   3.702   3.662  10.451  0.5233  0.1782 -0.0515
  392MOL0     C52849   3.827   3.710  10.387 -0.0602  0.0581 -0.2822
  392MOL0     C52850   3.931   3.744  10.337 -1.6904 -0.4068 -0.9825
  392MOL0     C52851   3.056   3.864  10.686 -0.0101  0.0120 -0.3503
  392MOL0     C52852   3.000   3.883  10.816  0.3659 -0.5122  0.3635
  392MOL0     H52853   2.707   3.876  11.222 -4.3043  0.5176 -1.4211
  392MOL0     H52854   2.608   3.989  11.421  1.2828 -0.0358  1.1472
  392MOL0     H52855   2.738   4.409  11.536  1.0390 -2.9322  0.2645
  392MOL0     H52856   2.624   4.427  11.400  2.4203  0.7889 -0.7061
  392MOL0     H52857   2.521   4.371  11.682 -2.5790  0.7134  0.4522
  392MOL0     H52858   2.538   4.535  11.608  2.1578  0.4235 -0.0258
  392MOL0     H52859   2.325   4.478  11.581  1.5157 -0.2155  1.2113
  392MOL0     H52860   2.388   4.462  11.419  1.4950 -0.5897 -0.4145
  392MOL0     H52861   2.365   4.203  11.437 -0.9022  0.9842 -2.4380
  392MOL0     H52862   2.282   4.233  11.594 -1.0151  0.6040 -0.7358
  392MOL0     H52863   2.177   4.359  11.339  2.3627 -0.5414 -1.2513
  392MOL0     H52864   2.146   4.196  11.385 -0.2176 -0.0773  0.1280
  392MOL0     H52865   1.974   4.346  11.425 -0.2220 -0.0584 -0.6340
  392MOL0     H52866   2.020   4.267  11.584 -0.2250  1.5326  1.3729
  392MOL0     H52867   2.126   4.435  11.662 -0.8192 -2.9162 -0.0053
  392MOL0     H52868   2.096   4.538  11.506 -1.6209  1.4138  0.9542
  392MOL0     H52869   1.866   4.556  11.556  0.0767 -1.3084 -0.7274
  392MOL0     H52870   1.949   4.624  11.693 -0.3185 -2.2190  1.6871
  392MOL0     H52871   1.788   4.267  11.609  3.1689 -2.4130  0.5587
  392MOL0     H52872   1.705   4.081  11.816 -0.3299 -0.4585  1.1690
  392MOL0     H52873   1.639   4.163  11.961 -0.7608 -1.1440 -0.2948
  392MOL0     H52874   1.461   4.072  11.823 -1.4624  1.0091  2.4732
  392MOL0     H52875   1.523   4.175  11.685  1.4005  3.3729  0.6774
  392MOL0     H52876   1.453   4.373  11.832 -0.3390  0.6443  1.5455
  392MOL0     H52877   1.410   4.260  11.960 -0.0218 -1.4874  0.3392
  392MOL0     H52878   1.278   4.263  11.691 -0.5942  0.3519 -0.6611
  392MOL0     H52879   1.221   4.353  11.843 -1.3838 -1.8087  2.3546
  392MOL0     H52880   1.079   4.277  11.641  0.3729 -1.3048  0.9609
  392MOL0     H52881   0.848   4.192  11.439 -3.0437  1.6833 -1.4508
  392MOL0     H52882   0.732   4.253  11.549  0.4589  0.2846  3.6822
  392MOL0     H52883   0.889   4.339  11.525 -1.4058  0.7670  0.8776
  392MOL0     H52884   0.419   4.109  11.771  1.4079 -0.8060  2.0131
  392MOL0     H52885   0.186   4.061  11.726 -1.2753  0.1503  0.3087
  392MOL0     H52886   0.024   3.634  11.599 -0.2312 -1.4624  2.2935
  392MOL0     H52887   0.024   3.656  11.771 -2.4933 -1.1313  0.4927
  392MOL0     H52888  -0.199   3.659  11.707 -0.3558  0.2044  2.1452
  392MOL0     H52889  -0.167   3.821  11.766  0.3865  2.3495 -1.6250
  392MOL0     H52890  -0.182   3.777  11.467  2.9020  1.8616 -0.1223
  392MOL0     H52891  -0.154   3.928  11.563 -0.1259  0.1216  2.5200
  392MOL0     H52892  -0.384   3.748  11.601  1.8328 -1.2139  0.1827
  392MOL0     H52893  -0.349   3.912  11.656  1.1073 -1.9196  1.0577
  392MOL0     H52894  -0.374   3.863  11.362 -0.7042  0.1345 -0.0275
  392MOL0     H52895  -0.343   4.008  11.433 -1.5640  0.2743 -0.9580
  392MOL0     H52896  -0.593   3.829  11.495  1.7513 -1.2027  0.3286
  392MOL0     H52897  -0.580   3.999  11.538  1.0797 -1.2368  1.2702
  392MOL0     H52898  -0.586   3.876  11.257 -0.6891  1.6286 -2.0459
  392MOL0     H52899  -0.544   4.043  11.293 -0.2364 -0.3351  0.7898
  392MOL0     H52900  -0.820   3.909  11.333 -2.1558  1.5543 -1.4555
  392MOL0     H52901  -0.780   4.020  11.204  0.6268 -1.9935 -0.7196
  392MOL0     H52902   0.293   3.649  11.644  1.3314 -0.0173 -1.2490
  392MOL0     H52903   0.518   3.706  11.709  2.8197  1.6624  3.0401
  392MOL0     H52904   0.852   3.900  11.855  2.3226 -0.5174  1.3162
  392MOL0     H52905   1.074   3.949  11.917 -0.2020  0.9952 -0.1895
  392MOL0     H52906   2.858   4.343  11.326 -2.4855  0.7728 -1.4661
  392MOL0     H52907   2.938   4.218  11.142 -2.7905 -0.8337 -4.4509
  392MOL0     H52908   3.289   3.920  10.992 -0.1436 -0.5590  0.5328
  392MOL0     H52909   3.389   3.881  10.790  0.2117  3.7556  2.0089
  392MOL0     H52910   3.363   3.888  10.419 -0.8430  0.8592  0.6730
  392MOL0     H52911   3.384   3.934  10.579 -3.0960 -0.9665  1.7639
  392MOL0     H52912   3.437   3.638  10.493  0.3098  0.4211 -1.2225
  392MOL0     H52913   3.487   3.704  10.638  1.1713  0.0776 -0.8003
  392MOL0     H52914   3.639   3.851  10.543  0.3410 -1.9830 -0.4981
  392MOL0     H52915   3.576   3.833  10.381 -3.8729  1.6432  0.2683
  392MOL0     H52916   3.665   3.580  10.388  2.9133 -0.7247 -0.4083
  392MOL0     H52917   3.737   3.621  10.546  1.1877  1.6220  0.3508
  392MOL0     H52918   4.022   3.778  10.291 -2.1182  1.4635 -0.5363
  392MOL0     H52919   2.988   3.840  10.605  1.1349 -0.6154 -1.1641
  392MOL0     H52920   2.894   3.886  10.839  0.6664 -0.1086  1.8032
  393MOL0     O52921   9.846  10.360   1.376  0.2557  0.4203  0.0230
  393MOL0     C52922   9.928  10.445   1.341  0.9488 -0.0194 -0.2556
  393MOL0     O52923   9.897  10.574   1.300  0.8120 -0.7133  0.7179
  393MOL0     C52924   9.769  10.618   1.270 -0.1832 -0.6819 -0.8287
  393MOL0     C52925   9.729  10.741   1.332  0.1803  0.1289  0.2928
  393MOL0     C52926   9.595  10.795   1.306 -1.0788  0.6058  0.6457
  393MOL0     C52927   9.504  10.713   1.238 -0.5808 -0.1899 -0.6399
  393MOL0     O52928   9.382  10.765   1.209  1.0447 -0.1918 -0.2491
  393MOL0     C52929   9.289  10.709   1.302 -0.7897 -0.1888  1.0091
  393MOL0     C52930   9.149  10.723   1.232  0.5454 -0.0808 -0.6853
  393MOL0     C52931   9.047  10.647   1.322 -1.4273 -0.4483 -0.9939
  393MOL0     C52932   8.905  10.657   1.265 -0.1953 -0.0515  0.2193
  393MOL0     C52933   8.798  10.589   1.353 -0.1337 -0.6043 -0.7865
  393MOL0     C52934   8.663  10.582   1.292 -0.3855 -0.5294  0.0584
  393MOL0     C52935   8.544  10.571   1.391 -0.6574 -0.5441 -0.7185
  393MOL0     C52936   8.543  10.673   1.512  0.1328  0.2433 -0.7259
  393MOL0     N52937   8.419  10.639   1.588 -0.3208  0.4616 -0.7653
  393MOL0     C52938   8.421  10.585   1.716  0.3416  0.5751 -0.8435
  393MOL0     C52939   8.293  10.563   1.746  0.8442 -0.4579  0.0238
  393MOL0     C52940   8.243  10.495   1.873  0.4757  0.1466 -0.3345
  393MOL0     C52941   8.265  10.346   1.898  0.1702 -0.6122 -0.6335
  393MOL0     C52942   8.209  10.250   1.793  0.2035  0.1272 -0.3074
  393MOL0     C52943   8.055  10.276   1.777 -0.0383 -0.5156  0.1206
  393MOL0     O52944   7.995  10.167   1.710 -0.1525  0.0683  0.0141
  393MOL0     C52945   7.864  10.143   1.726 -0.6599  0.3098 -0.1187
  393MOL0     C52946   7.825  10.006   1.712  0.9045 -0.0726  0.3641
  393MOL0     C52947   7.690   9.964   1.731  1.0675 -0.7381  0.0929
  393MOL0     C52948   7.671   9.811   1.740  0.4705  0.3961 -0.0181
  393MOL0     C52949   7.594  10.069   1.751 -0.6117 -0.4611  0.9733
  393MOL0     C52950   7.451  10.040   1.769  0.3726 -0.2818  0.2185
  393MOL0     O52951   7.366  10.140   1.748 -0.3596 -0.0424  0.2635
  393MOL0     C52952   7.228  10.107   1.764  0.2090 -1.4031  0.2346
  393MOL0     C52953   7.153  10.058   1.651  0.1482  0.2692  0.4222
  393MOL0     C52954   7.025  10.004   1.677  0.1962 -0.5253 -0.1837
  393MOL0     C52955   6.963  10.020   1.800  1.4848  0.1724  0.4031
  393MOL0     O52956   6.830   9.970   1.816 -0.3485  0.5407 -0.5412
  393MOL0     C52957   6.812   9.932   1.955  0.3599 -0.3628  0.2462
  393MOL0     C52958   6.670   9.862   1.974  0.4405  0.4155 -1.0190
  393MOL0     C52959   6.556   9.950   1.933 -0.4998  0.7442 -0.1872
  393MOL0     C52960   6.422   9.882   1.967  0.1969  0.4039  0.1930
  393MOL0     C52961   6.295   9.950   1.909 -0.4094  0.1695  0.0654
  393MOL0     C52962   6.199   9.843   1.863 -0.9721  0.2758  0.1999
  393MOL0     C52963   6.051   9.881   1.857 -0.1963  0.1102  0.4558
  393MOL0     C52964   6.025  10.001   1.758  0.7997 -0.2795  1.1323
  393MOL0    Cl52965   5.856  10.035   1.771  0.2233  0.2069 -0.1373
  393MOL0     C52966   7.020  10.101   1.900 -1.3782  0.9606 -0.3277
  393MOL0     C52967   7.157  10.123   1.883 -0.5802  0.5361  0.1544
  393MOL0     O52968   7.426   9.935   1.821  0.2154 -0.2235 -0.4628
  393MOL0     C52969   7.636  10.203   1.757 -0.5756 -0.5668 -0.2955
  393MOL0     C52970   7.773  10.237   1.749 -0.3179 -0.2821 -0.6157
  393MOL0     N52971   8.213  10.617   1.652  0.2973 -0.2124  0.5691
  393MOL0     N52972   8.291  10.676   1.567 -0.1688 -0.2220  0.2222
  393MOL0     C52973   9.543  10.584   1.196  0.8688 -0.0578 -0.9689
  393MOL0     C52974   9.677  10.538   1.201  0.2681  0.0815  0.0273
  393MOL0     C52975  10.067  10.402   1.361 -0.3787 -0.0661 -1.2329
  393MOL0     C52976  10.169  10.501   1.370 -0.5278 -0.4398  0.0321
  393MOL0     C52977  10.305  10.471   1.384  0.2284 -0.7896  0.8155
  393MOL0     C52978  10.347  10.342   1.396 -0.4295 -1.2655 -0.0609
  393MOL0     O52979  10.477  10.306   1.418  0.3169  0.0314 -0.1178
  393MOL0     C52980  10.576  10.401   1.392 -0.2575  0.0393  0.1862
  393MOL0     C52981  10.721  10.343   1.382  0.2257  0.5027 -0.4543
  393MOL0     C52982  10.721  10.261   1.264 -0.9036  0.1560 -0.0963
  393MOL0     C52983  10.856  10.174   1.259 -0.1729 -0.2311  0.4001
  393MOL0     C52984  10.896  10.104   1.134 -0.5414 -0.0166  0.1686
  393MOL0     C52985  10.935  10.047   1.034 -1.2318 -0.0056  0.1419
  393MOL0     C52986  10.254  10.240   1.398 -0.1275 -0.1229 -1.1554
  393MOL0     C52987  10.117  10.271   1.374 -0.8910 -0.2222  0.9963
  393MOL0     H52988   9.801  10.801   1.387 -1.4261 -0.6261  3.4199
  393MOL0     H52989   9.573  10.889   1.355 -3.1815 -0.4606  1.8956
  393MOL0     H52990   9.319  10.604   1.313  1.5803 -0.2113 -3.2308
  393MOL0     H52991   9.302  10.757   1.399  2.7491  0.8432  0.2022
  393MOL0     H52992   9.117  10.827   1.224 -0.2751 -0.1464  1.2750
  393MOL0     H52993   9.145  10.679   1.132  1.1305  0.6129 -1.0240
  393MOL0     H52994   9.079  10.542   1.330  0.8128  0.2782  0.0603
  393MOL0     H52995   9.040  10.686   1.423  0.5103 -0.6831 -0.7452
  393MOL0     H52996   8.877  10.763   1.262  0.3930  0.1828  1.8809
  393MOL0     H52997   8.910  10.617   1.163  0.9153  2.5653 -0.8239
  393MOL0     H52998   8.829  10.492   1.392  0.4445 -0.2182 -0.2629
  393MOL0     H52999   8.795  10.649   1.445 -2.3398  0.3587 -1.4134
  393MOL0     H53000   8.641  10.672   1.233 -3.1101 -0.7753  0.5586
  393MOL0     H53001   8.660  10.501   1.219 -0.3315 -0.3346 -0.1632
  393MOL0     H53002   8.452  10.580   1.332 -2.2677  0.9161  1.8540
  393MOL0     H53003   8.546  10.475   1.443  0.0159 -0.7938 -1.1842
  393MOL0     H53004   8.537  10.774   1.471 -0.7713  0.2132 -0.6747
  393MOL0     H53005   8.637  10.665   1.567 -1.2450 -1.9814  1.5001
  393MOL0     H53006   8.503  10.569   1.784 -0.5301  2.7442  0.8063
  393MOL0     H53007   8.294  10.548   1.954 -0.8672  4.5811 -2.0511
  393MOL0     H53008   8.136  10.518   1.882  0.5328 -0.1550  1.4332
  393MOL0     H53009   8.234  10.324   2.001  0.6163 -0.6257 -0.4971
  393MOL0     H53010   8.373  10.331   1.888  0.1879  0.8311 -3.5472
  393MOL0     H53011   8.211  10.154   1.846 -3.4199  1.0012  1.7259
  393MOL0     H53012   8.268  10.235   1.702 -1.8373 -2.3508 -1.3276
  393MOL0     H53013   8.027  10.367   1.722  0.9782  0.0698  0.5389
  393MOL0     H53014   8.006  10.285   1.874 -0.3907  2.3469 -0.2409
  393MOL0     H53015   7.895   9.926   1.689  1.0520  0.3148 -0.6053
  393MOL0     H53016   7.605   9.777   1.660  0.1459  3.8753 -1.4142
  393MOL0     H53017   7.766   9.763   1.718 -1.1721 -1.9849 -2.4317
  393MOL0     H53018   7.642   9.776   1.840  3.0435 -3.2163 -0.3722
  393MOL0     H53019   7.200  10.032   1.557 -0.6333  1.9771 -0.4847
  393MOL0     H53020   6.980   9.940   1.601 -0.0082 -1.8329  1.0020
  393MOL0     H53021   6.894   9.870   1.993  1.6428  1.3492  0.3731
  393MOL0     H53022   6.805  10.018   2.021  0.4210  1.1868 -1.6791
  393MOL0     H53023   6.669   9.771   1.913  1.5592 -1.1600  1.1972
  393MOL0     H53024   6.669   9.842   2.081 -1.6306  3.5081 -0.3158
  393MOL0     H53025   6.564   9.965   1.825 -0.1130 -0.4587 -0.3392
  393MOL0     H53026   6.563  10.049   1.978  1.8871 -0.5907  2.7451
  393MOL0     H53027   6.429   9.778   1.933 -1.4498 -0.0536  1.1260
  393MOL0     H53028   6.403   9.878   2.075  2.5033  2.2519  0.7372
  393MOL0     H53029   6.332  10.008   1.824  0.1632  0.5277  0.5516
  393MOL0     H53030   6.254  10.022   1.980  0.6474  1.8240 -0.9383
  393MOL0     H53031   6.226   9.814   1.761 -0.9894  1.3605 -0.1266
  393MOL0     H53032   6.209   9.754   1.925 -0.0475 -1.2485 -2.0102
  393MOL0     H53033   6.013   9.896   1.959 -0.7886  1.1851  0.0945
  393MOL0     H53034   5.986   9.797   1.830  0.2143  0.1799 -0.7700
  393MOL0     H53035   6.044   9.958   1.659 -3.1212  0.7383 -0.2459
  393MOL0     H53036   6.088  10.087   1.782  0.4339 -0.1059  1.4775
  393MOL0     H53037   6.982  10.132   1.997 -2.3469  3.9374 -1.5505
  393MOL0     H53038   7.209  10.173   1.964 -1.1370  0.8144  0.3390
  393MOL0     H53039   7.577  10.284   1.800  0.2806 -1.4566  2.8116
  393MOL0     H53040   7.798  10.342   1.757  0.4994 -0.6282  2.1366
  393MOL0     H53041   9.478  10.506   1.156  0.5921 -0.7385  0.7362
  393MOL0     H53042   9.696  10.444   1.151  0.0926  0.6784 -1.1956
  393MOL0     H53043  10.145  10.606   1.353  1.5885 -0.2806 -2.6210
  393MOL0     H53044  10.368  10.559   1.374  4.4335 -3.3854  1.6220
  393MOL0     H53045  10.548  10.455   1.301 -1.2203  0.5348  0.7607
  393MOL0     H53046  10.574  10.476   1.471  0.1632  0.6200 -0.3387
  393MOL0     H53047  10.742  10.281   1.469 -1.4532  3.3198  2.1973
  393MOL0     H53048  10.790  10.427   1.370 -1.5368  1.9178 -1.2271
  393MOL0     H53049  10.717  10.327   1.177 -0.5385  2.2813  1.4109
  393MOL0     H53050  10.641  10.188   1.251  0.4691 -1.0743 -2.2467
  393MOL0     H53051  10.842  10.089   1.326 -0.7774 -0.9130 -0.5623
  393MOL0     H53052  10.940  10.237   1.289  0.2181 -0.8028  0.5325
  393MOL0     H53053  10.979  10.004   0.947  0.8785  0.6336  0.8416
  393MOL0     H53054  10.290  10.138   1.408  2.2576  0.8341  1.6257
  393MOL0     H53055  10.053  10.185   1.390  0.8236 -1.1704  3.3796
  394MOL0     O53056   0.603   9.954   1.127 -0.4545 -0.7858 -0.0510
  394MOL0     C53057   0.640  10.048   1.195  0.1022 -0.0711  0.1300
  394MOL0     O53058   0.565  10.163   1.187  0.1922  0.0970  0.2372
  394MOL0     C53059   0.473  10.179   1.083  0.2488  0.1505 -0.0251
  394MOL0     C53060   0.347  10.118   1.065 -0.0340  0.2662  0.0803
  394MOL0     C53061   0.266  10.154   0.957  0.2347  0.0007  0.3004
  394MOL0     C53062   0.303  10.255   0.870  0.1788  0.4895  0.5259
  394MOL0     O53063   0.231  10.293   0.762 -0.0070  0.0141 -0.0580
  394MOL0     C53064   0.099  10.233   0.763  0.1164 -0.1912  0.2693
  394MOL0     C53065   0.026  10.295   0.655 -0.1618 -0.0588  0.4404
  394MOL0     C53066  -0.104  10.212   0.629  0.7961 -0.7372 -1.2260
  394MOL0     C53067  -0.157  10.247   0.494  0.0738  0.2519 -0.0574
  394MOL0     C53068  -0.284  10.164   0.466 -0.3910  0.3966 -0.8086
  394MOL0     C53069  -0.394  10.205   0.569  0.3427  0.2697 -0.4084
  394MOL0     C53070  -0.528  10.161   0.517  0.1121  0.2347 -0.0014
  394MOL0     C53071  -0.636  10.201   0.613  0.6477  0.2952  0.0750
  394MOL0     N53072  -0.760  10.132   0.587  0.1977  0.0034  0.2794
  394MOL0     C53073  -0.828  10.117   0.465  0.7977  0.0054  0.4585
  394MOL0     C53074  -0.907  10.008   0.495  0.5285  0.3978 -0.1739
  394MOL0     C53075  -0.985   9.921   0.400  0.7548 -0.1306  0.0566
  394MOL0     C53076  -1.140   9.961   0.404 -0.0960 -0.2988 -0.2534
  394MOL0     C53077  -1.205   9.886   0.525  0.6302  0.0030  0.0529
  394MOL0     C53078  -1.356   9.902   0.524 -0.1999  0.0736 -0.3734
  394MOL0     O53079  -1.395  10.044   0.524 -0.6208 -0.3799  0.1390
  394MOL0     C53080  -1.527  10.071   0.553  0.2604 -0.7946 -0.3325
  394MOL0     C53081  -1.621   9.995   0.615  0.0563  0.5289  0.6759
  394MOL0     C53082  -1.751  10.050   0.639 -0.4228  0.2202 -0.3427
  394MOL0     C53083  -1.853   9.955   0.705  0.8187 -0.3254  0.9434
  394MOL0     C53084  -1.779  10.184   0.604 -0.0585 -0.7718 -0.1478
  394MOL0     C53085  -1.908  10.248   0.637 -0.9452 -0.2060 -0.5416
  394MOL0     O53086  -1.997  10.182   0.718  1.0686  0.8106 -0.4277
  394MOL0     C53087  -2.102  10.257   0.771 -0.1224  0.7147  0.7455
  394MOL0     C53088  -2.090  10.373   0.842 -0.6125 -0.0119 -0.8750
  394MOL0     C53089  -2.200  10.420   0.901  0.0043  0.5192  0.0589
  394MOL0     C53090  -2.328  10.354   0.883  0.3543  0.9976  0.1003
  394MOL0     O53091  -2.436  10.409   0.939 -0.3447  0.0049  0.3238
  394MOL0     C53092  -2.516  10.490   0.855  0.6031  0.4366 -0.5223
  394MOL0     C53093  -2.662  10.469   0.895 -0.0338 -0.1341 -0.3993
  394MOL0     C53094  -2.757  10.588   0.872 -0.2406 -0.6054  0.6284
  394MOL0     C53095  -2.901  10.547   0.844  0.0255 -0.5710  0.0356
  394MOL0     C53096  -2.992  10.669   0.808  0.1625  0.6253 -0.8558
  394MOL0     C53097  -2.995  10.704   0.661  0.9704 -0.3518  0.7914
  394MOL0     C53098  -3.081  10.826   0.636  0.8043 -0.1194 -0.8035
  394MOL0     C53099  -3.057  10.891   0.498  0.3644 -1.1761 -0.0360
  394MOL0    Cl53100  -3.163  11.035   0.476 -0.3574 -0.1546 -0.1425
  394MOL0     C53101  -2.342  10.237   0.813  0.2576  0.0347  0.5105
  394MOL0     C53102  -2.229  10.196   0.743 -0.2645 -0.0020  0.0129
  394MOL0     O53103  -1.915  10.366   0.616 -0.2193 -0.2092  0.1691
  394MOL0     C53104  -1.674  10.256   0.545  0.2577 -0.4650  0.4466
  394MOL0     C53105  -1.552  10.204   0.514  0.2628  0.1454  1.0330
  394MOL0     N53106  -0.903   9.961   0.621 -0.9206  0.2672  0.9506
  394MOL0     N53107  -0.809  10.038   0.672  0.1529  0.3676  0.1414
  394MOL0     C53108   0.424  10.319   0.895  0.5848 -0.2611  0.5286
  394MOL0     C53109   0.507  10.273   0.995 -0.0409  0.4602  0.0021
  394MOL0     C53110   0.768  10.049   1.268 -0.0017  0.0988  0.6979
  394MOL0     C53111   0.846   9.934   1.262  0.2895 -0.7672  0.2444
  394MOL0     C53112   0.971   9.932   1.329  0.1826 -0.3660 -0.0898
  394MOL0     C53113   1.018  10.037   1.408  0.8166 -0.6582 -0.3516
  394MOL0     O53114   1.138  10.026   1.480  0.0564  0.3107  0.6318
  394MOL0     C53115   1.209  10.139   1.526  0.2916 -0.0634 -1.0622
  394MOL0     C53116   1.346  10.087   1.572  0.8218  0.4479 -0.2484
  394MOL0     C53117   1.449  10.198   1.587  0.0969  0.0177 -0.2406
  394MOL0     C53118   1.575  10.162   1.665  0.6605  0.3796  0.2455
  394MOL0     C53119   1.641  10.046   1.601 -1.6727 -0.6580 -0.9119
  394MOL0     C53120   1.688   9.958   1.533  0.2355  0.3127  0.3980
  394MOL0     C53121   0.935  10.153   1.414 -0.1850  0.8003  0.1223
  394MOL0     C53122   0.818  10.162   1.333  0.4702  0.2013  0.6663
  394MOL0     H53123   0.313  10.048   1.141  5.9025  0.5095  3.5311
  394MOL0     H53124   0.172  10.101   0.946  0.2380  0.2451 -1.0420
  394MOL0     H53125   0.110  10.127   0.738 -1.1112 -0.3002  0.1390
  394MOL0     H53126   0.043  10.237   0.856  0.6450  0.7908  0.5563
  394MOL0     H53127   0.001  10.402   0.661 -0.3248 -0.1358  1.2818
  394MOL0     H53128   0.088  10.284   0.566 -0.6950  0.0431  0.0504
  394MOL0     H53129  -0.084  10.105   0.644  1.0661 -0.3828  1.5135
  394MOL0     H53130  -0.181  10.245   0.699  0.4719 -2.1142 -0.9015
  394MOL0     H53131  -0.173  10.355   0.485  1.1652  0.8980  3.9798
  394MOL0     H53132  -0.074  10.216   0.429  1.5836  0.5398  1.6742
  394MOL0     H53133  -0.307  10.178   0.360  0.6899  0.9139 -0.9871
  394MOL0     H53134  -0.264  10.058   0.481 -3.3598  0.1551  2.9152
  394MOL0     H53135  -0.372  10.146   0.658 -2.9830 -0.8241 -0.1971
  394MOL0     H53136  -0.392  10.315   0.576  1.4620  0.4822 -2.9697
  394MOL0     H53137  -0.552  10.211   0.423  0.5546 -1.0144 -0.8100
  394MOL0     H53138  -0.525  10.054   0.494  2.2961  0.4403 -0.8754
  394MOL0     H53139  -0.652  10.308   0.600 -0.6292 -0.1612 -3.2640
  394MOL0     H53140  -0.605  10.174   0.714 -0.0950  0.2443  0.2950
  394MOL0     H53141  -0.815  10.163   0.368 -0.6903 -1.0498 -0.2858
  394MOL0     H53142  -0.947   9.935   0.298  1.1580  0.2803  0.2574
  394MOL0     H53143  -0.976   9.814   0.421 -0.0976  0.3126  3.1107
  394MOL0     H53144  -1.187   9.938   0.307 -0.6708  3.6397 -1.0946
  394MOL0     H53145  -1.149  10.068   0.425  1.2902  0.0277 -1.2114
  394MOL0     H53146  -1.165   9.912   0.623  1.2421  0.4196 -0.2968
  394MOL0     H53147  -1.196   9.780   0.498 -1.3272 -0.0371 -0.6098
  394MOL0     H53148  -1.409   9.847   0.602 -2.0003  3.6207  1.1472
  394MOL0     H53149  -1.380   9.860   0.426  1.0090  0.6552 -0.9492
  394MOL0     H53150  -1.609   9.890   0.639  1.7264  0.6794  0.5576
  394MOL0     H53151  -1.939   9.947   0.638  1.0070  1.8394  0.3486
  394MOL0     H53152  -1.817   9.852   0.707 -1.6341 -1.3291 -0.7974
  394MOL0     H53153  -1.888   9.982   0.805 -2.5868 -2.1185  0.3991
  394MOL0     H53154  -1.993  10.416   0.866 -0.1651  0.2350 -2.9209
  394MOL0     H53155  -2.200  10.494   0.980  0.6239  0.9240 -0.3107
  394MOL0     H53156  -2.488  10.591   0.887  3.6479 -0.8844  1.4109
  394MOL0     H53157  -2.491  10.475   0.749  2.0173 -1.1117 -0.0153
  394MOL0     H53158  -2.692  10.380   0.837  1.5891 -0.1578 -1.2451
  394MOL0     H53159  -2.667  10.462   1.004 -0.6048  1.0274 -0.3383
  394MOL0     H53160  -2.723  10.632   0.778 -0.1120  0.0851  0.9911
  394MOL0     H53161  -2.749  10.649   0.963 -0.5214 -0.5930  0.6438
  394MOL0     H53162  -2.902  10.483   0.755  0.1288  1.0350 -1.1590
  394MOL0     H53163  -2.941  10.493   0.930 -1.9212 -1.2730 -1.2493
  394MOL0     H53164  -2.973  10.760   0.866 -0.5447  0.9560 -1.1365
  394MOL0     H53165  -3.089  10.634   0.845  2.3780 -3.9355  1.5905
  394MOL0     H53166  -2.894  10.717   0.622  0.7774  1.7435  0.8556
  394MOL0     H53167  -3.036  10.623   0.600 -1.9371  0.9666  0.8291
  394MOL0     H53168  -3.056  10.902   0.710 -1.9585 -0.8851  1.0519
  394MOL0     H53169  -3.186  10.806   0.656  1.7930 -0.6033  6.4315
  394MOL0     H53170  -3.075  10.820   0.417  0.1549 -0.1595 -0.8982
  394MOL0     H53171  -2.955  10.927   0.485 -1.3027  3.6836 -1.7536
  394MOL0     H53172  -2.437  10.186   0.801 -0.7363  2.4152 -4.0997
  394MOL0     H53173  -2.225  10.106   0.684  1.6652 -0.7794  1.2241
  394MOL0     H53174  -1.680  10.362   0.522  0.6011 -0.4713  0.3290
  394MOL0     H53175  -1.475  10.256   0.457 -2.3181 -1.2354 -4.4236
  394MOL0     H53176   0.442  10.401   0.826 -1.0864  1.9500  2.5638
  394MOL0     H53177   0.605  10.317   1.016 -0.2576  1.8616 -1.7470
  394MOL0     H53178   0.816   9.848   1.203 -1.2788 -2.0006  2.6882
  394MOL0     H53179   1.024   9.838   1.325  1.0898  0.0635  1.1965
  394MOL0     H53180   1.224  10.212   1.446  0.9022 -0.6703 -1.5106
  394MOL0     H53181   1.150  10.191   1.603 -3.7051 -2.2472 -2.3804
  394MOL0     H53182   1.391  10.016   1.502  1.0004  1.3151 -1.0324
  394MOL0     H53183   1.324  10.054   1.674 -1.0732  3.2277  0.3487
  394MOL0     H53184   1.404  10.269   1.658  1.4540 -0.0933  0.7734
  394MOL0     H53185   1.477  10.252   1.496 -1.9008  2.2616  0.3525
  394MOL0     H53186   1.552  10.135   1.768  0.4532 -0.9582 -0.1308
  394MOL0     H53187   1.653  10.238   1.666  0.9832  0.0683  2.0556
  394MOL0     H53188   1.722   9.876   1.472 -3.8631 -1.0405 -0.4240
  394MOL0     H53189   0.965  10.234   1.479 -2.9818 -0.1869  2.9083
  394MOL0     H53190   0.753  10.249   1.337  0.9689  0.6859 -1.0181
  395MOL0     O53191  10.195  10.484   1.889  0.0514  0.6486  0.0237
  395MOL0     C53192  10.087  10.514   1.938  0.4961 -0.5964 -0.0249
  395MOL0     O53193  10.072  10.609   2.040 -0.0492 -0.0253  0.4143
  395MOL0     C53194  10.180  10.688   2.063  0.6485 -0.3176 -0.6302
  395MOL0     C53195  10.277  10.648   2.158  0.2241 -0.6721 -0.1443
  395MOL0     C53196  10.374  10.747   2.189  0.2202 -0.4267  0.0273
  395MOL0     C53197  10.388  10.873   2.137  0.0081 -0.2845 -0.3383
  395MOL0     O53198  10.489  10.965   2.182  0.6110 -0.1493  0.1346
  395MOL0     C53199  10.466  11.105   2.155  0.6662 -0.6432 -0.2040
  395MOL0     C53200  10.589  11.197   2.198 -0.8944 -1.2827 -0.4447
  395MOL0     C53201  10.592  11.210   2.357 -0.5149 -0.5558 -0.5662
  395MOL0     C53202  10.705  11.304   2.397  0.2655  0.5625 -0.3974
  395MOL0     C53203  10.848  11.247   2.367  0.8537 -0.1962 -0.1878
  395MOL0     C53204  10.935  11.235   2.488  0.3359 -0.0447  0.2818
  395MOL0     C53205  11.061  11.171   2.459  0.1767  0.0772 -0.2113
  395MOL0     C53206  11.140  11.253   2.356  0.7424  1.0062 -0.3447
  395MOL0     N53207  11.173  11.378   2.413 -0.0512 -0.7663 -0.1774
  395MOL0     C53208  11.225  11.398   2.542  0.2248 -0.5381  0.0250
  395MOL0     C53209  11.221  11.533   2.557  0.4122  0.9207 -0.5231
  395MOL0     C53210  11.257  11.584   2.689 -0.0580  0.3269 -0.6132
  395MOL0     C53211  11.132  11.629   2.768 -0.2149  0.0151 -0.9860
  395MOL0     C53212  11.129  11.788   2.785 -0.1304  0.3452  0.0804
  395MOL0     C53213  11.016  11.854   2.861  0.1050  0.0645  0.2871
  395MOL0     O53214  10.893  11.835   2.790  0.1124  0.0386  1.0387
  395MOL0     C53215  10.779  11.837   2.867  0.6084 -0.1507  0.1410
  395MOL0     C53216  10.738  11.947   2.943  0.4432  0.0723 -0.0634
  395MOL0     C53217  10.614  11.939   3.017 -1.1544  0.0706  0.2181
  395MOL0     C53218  10.567  12.058   3.099  0.8384 -0.4108 -0.4169
  395MOL0     C53219  10.542  11.815   3.015 -0.2454 -0.6342 -0.2640
  395MOL0     C53220  10.419  11.797   3.092 -0.3950 -0.5154  0.5439
  395MOL0     O53221  10.407  11.672   3.142  0.4123  0.0718  0.7769
  395MOL0     C53222  10.313  11.637   3.227 -0.9624 -0.1263 -0.1682
  395MOL0     C53223  10.329  11.514   3.301  0.2968 -0.7816  1.2927
  395MOL0     C53224  10.231  11.465   3.385  0.3738 -0.0174  0.4144
  395MOL0     C53225  10.113  11.541   3.410 -0.1513 -0.6058  0.1804
  395MOL0     O53226  10.013  11.483   3.498  0.5786  0.5209  0.4349
  395MOL0     C53227   9.901  11.569   3.534  0.6112 -0.4618  0.5470
  395MOL0     C53228   9.787  11.478   3.591  0.0089 -1.0248 -0.5630
  395MOL0     C53229   9.649  11.545   3.593 -0.2081 -0.6910  0.6137
  395MOL0     C53230   9.531  11.451   3.573  0.4585 -0.3412 -0.2816
  395MOL0     C53231   9.508  11.375   3.694 -0.0567  0.2729 -0.9501
  395MOL0     C53232   9.363  11.312   3.691  1.2782  0.6732  0.1135
  395MOL0     C53233   9.349  11.206   3.807 -0.0620 -0.2342  0.5033
  395MOL0     C53234   9.343  11.268   3.943 -0.0170 -0.5734  0.3701
  395MOL0    Cl53235   9.189  11.361   3.971  0.3303 -0.0603  0.1416
  395MOL0     C53236  10.103  11.665   3.345 -0.8155 -0.1084  0.6281
  395MOL0     C53237  10.197  11.707   3.247  0.5398 -0.2151 -0.5548
  395MOL0     O53238  10.323  11.870   3.067  0.5918  0.1207 -0.3528
  395MOL0     C53239  10.588  11.710   2.931  0.1927 -1.0640 -0.1366
  395MOL0     C53240  10.705  11.717   2.869 -0.6669 -0.3687 -0.1285
  395MOL0     N53241  11.182  11.593   2.438 -0.0191 -0.4197  0.4256
  395MOL0     N53242  11.140  11.500   2.361 -0.0933 -0.0459  0.2903
  395MOL0     C53243  10.297  10.903   2.027 -0.7837  0.2268 -0.0883
  395MOL0     C53244  10.198  10.804   1.991  0.1490 -0.5825 -0.1640
  395MOL0     C53245   9.964  10.454   1.889 -0.0805  1.0681  0.7955
  395MOL0     C53246   9.960  10.366   1.779  0.9664  1.3586  0.6711
  395MOL0     C53247   9.837  10.341   1.711 -0.1541 -0.8969  0.3989
  395MOL0     C53248   9.716  10.392   1.762 -0.2281  0.3060  0.0491
  395MOL0     O53249   9.591  10.381   1.702 -0.0200  0.8458 -0.0720
  395MOL0     C53250   9.586  10.265   1.612 -0.4953 -0.1655 -0.4906
  395MOL0     C53251   9.449  10.230   1.583 -0.3888 -0.0953 -0.7741
  395MOL0     C53252   9.375  10.342   1.503 -0.3802 -0.1773 -0.1007
  395MOL0     C53253   9.223  10.292   1.502  0.5814  0.4334 -0.2021
  395MOL0     C53254   9.163  10.285   1.633 -0.4634  0.1967 -0.0080
  395MOL0     C53255   9.092  10.282   1.731  0.2289  0.4711 -0.8766
  395MOL0     C53256   9.724  10.467   1.880  0.2941  0.4832  0.7080
  395MOL0     C53257   9.842  10.506   1.937 -0.4066 -0.2350  0.1360
  395MOL0     H53258  10.259  10.548   2.196 -0.0897 -0.4752  0.2319
  395MOL0     H53259  10.451  10.722   2.262  0.1831  3.1267  1.5035
  395MOL0     H53260  10.456  11.127   2.048 -1.3289  1.4580  0.3361
  395MOL0     H53261  10.386  11.137   2.223  1.4999  3.6715 -0.9964
  395MOL0     H53262  10.682  11.147   2.168  0.3584  0.1194  0.9444
  395MOL0     H53263  10.571  11.294   2.151  1.9391 -0.4102  0.0868
  395MOL0     H53264  10.498  11.251   2.395  0.0877  0.2161  0.1086
  395MOL0     H53265  10.605  11.110   2.400  0.2904 -1.2042 -2.2391
  395MOL0     H53266  10.682  11.393   2.339  0.1882  0.7582 -0.0653
  395MOL0     H53267  10.693  11.319   2.505 -1.4535  0.6203 -0.5842
  395MOL0     H53268  10.846  11.142   2.336  1.8725 -1.4393  3.3730
  395MOL0     H53269  10.893  11.306   2.287  0.4649  1.6964  0.9097
  395MOL0     H53270  10.954  11.333   2.531  3.6085 -1.4680  2.4818
  395MOL0     H53271  10.884  11.171   2.561 -2.4228 -1.2587 -2.4793
  395MOL0     H53272  11.120  11.159   2.550  0.8571  4.6647  0.2064
  395MOL0     H53273  11.059  11.071   2.416  3.8833  0.0125 -0.6043
  395MOL0     H53274  11.087  11.262   2.260 -0.3237 -2.3811 -0.1892
  395MOL0     H53275  11.230  11.197   2.329 -0.4423 -0.3925 -1.5937
  395MOL0     H53276  11.243  11.314   2.609 -1.2029 -0.9352 -0.0427
  395MOL0     H53277  11.305  11.502   2.744 -2.3061 -1.6520 -1.4246
  395MOL0     H53278  11.329  11.662   2.660 -1.6271  1.4203 -1.7141
  395MOL0     H53279  11.152  11.587   2.867  2.3733 -0.7384 -1.7277
  395MOL0     H53280  11.043  11.579   2.729 -0.1382 -0.3829 -0.6596
  395MOL0     H53281  11.111  11.828   2.685 -0.0894  0.9384  0.3067
  395MOL0     H53282  11.225  11.826   2.823 -0.7066  0.8752  1.0452
  395MOL0     H53283  11.045  11.958   2.878  2.3928 -0.1652 -1.6838
  395MOL0     H53284  11.015  11.802   2.958  2.4883  1.8170  1.3360
  395MOL0     H53285  10.790  12.042   2.943  1.4907 -0.4832  0.1472
  395MOL0     H53286  10.486  12.044   3.172  1.2553 -1.2870 -0.1043
  395MOL0     H53287  10.647  12.100   3.160 -0.3713  1.3792  0.0088
  395MOL0     H53288  10.526  12.145   3.047 -1.0251 -0.3600  1.0380
  395MOL0     H53289  10.415  11.450   3.282  2.3251  2.3655 -1.0064
  395MOL0     H53290  10.235  11.360   3.410 -2.0376 -0.4155 -0.5017
  395MOL0     H53291   9.939  11.641   3.608 -0.0736 -2.6127  3.1364
  395MOL0     H53292   9.863  11.631   3.452  1.0495 -2.7825 -1.5227
  395MOL0     H53293   9.794  11.386   3.533 -1.9647 -0.5317 -1.6751
  395MOL0     H53294   9.806  11.465   3.698 -0.8799  0.2694 -0.2146
  395MOL0     H53295   9.655  11.616   3.510 -1.0608 -1.1544  0.1475
  395MOL0     H53296   9.624  11.609   3.679  1.7952 -0.2579  0.9185
  395MOL0     H53297   9.452  11.519   3.537  2.0336  0.2969 -2.7895
  395MOL0     H53298   9.533  11.383   3.487  1.0642 -4.1947  2.5640
  395MOL0     H53299   9.509  11.446   3.778  1.6091  0.4490 -1.0771
  395MOL0     H53300   9.573  11.289   3.712 -2.2644 -1.7445 -2.0245
  395MOL0     H53301   9.294  11.393   3.714  2.5896  0.8147  4.4656
  395MOL0     H53302   9.345  11.268   3.592 -1.9150 -2.5536  1.8791
  395MOL0     H53303   9.436  11.139   3.805 -1.1108 -1.7756 -3.2913
  395MOL0     H53304   9.265  11.136   3.794  0.7471 -1.2279  0.4998
  395MOL0     H53305   9.433  11.327   3.963 -0.9496  0.0246  3.2686
  395MOL0     H53306   9.363  11.186   4.012 -0.1188 -2.1330 -1.3658
  395MOL0     H53307  10.016  11.728   3.361  0.1038  2.8982 -4.1360
  395MOL0     H53308  10.154  11.797   3.205 -0.6373  0.3369  1.6792
  395MOL0     H53309  10.527  11.622   2.910 -0.6915 -0.2540 -1.0414
  395MOL0     H53310  10.732  11.627   2.816 -2.1061 -1.2284  0.5312
  395MOL0     H53311  10.306  10.996   1.972 -1.3495 -0.6380 -1.6896
  395MOL0     H53312  10.127  10.832   1.913 -1.8158  1.6142  2.2243
  395MOL0     H53313  10.054  10.329   1.740  0.6167 -2.4867  3.0212
  395MOL0     H53314   9.836  10.293   1.614 -3.7712  0.9967 -0.6849
  395MOL0     H53315   9.645  10.294   1.525  0.0719  0.6186  0.1368
  395MOL0     H53316   9.633  10.179   1.662  1.1498  0.2962 -1.1927
  395MOL0     H53317   9.400  10.210   1.679  0.8525  0.8343  0.0837
  395MOL0     H53318   9.451  10.135   1.529 -0.8861  0.8482 -2.5248
  395MOL0     H53319   9.418  10.357   1.404 -0.3767  1.0618  0.0707
  395MOL0     H53320   9.381  10.439   1.554 -2.6697  0.1230 -0.3349
  395MOL0     H53321   9.217  10.198   1.447 -1.9817  0.1005  0.5218
  395MOL0     H53322   9.162  10.363   1.446  3.5509  2.3742 -1.2013
  395MOL0     H53323   9.044  10.272   1.826  2.1467  1.9008  0.3260
  395MOL0     H53324   9.632  10.515   1.912  0.0314  1.1620 -0.9401
  395MOL0     H53325   9.840  10.586   2.010  1.3102  0.3839 -0.4390
  396MOL0     O53326  11.180   1.995   1.217  0.3643 -0.6164  0.3409
  396MOL0     C53327  11.248   2.089   1.163  0.7281 -0.6527  0.4112
  396MOL0     O53328  11.198   2.195   1.100  0.6657 -0.5772 -0.1027
  396MOL0     C53329  11.062   2.206   1.098 -0.2446  0.4763  0.9579
  396MOL0     C53330  10.989   2.155   0.989 -0.5058 -0.6650 -0.3221
  396MOL0     C53331  10.852   2.166   0.989 -0.5292 -0.2324  1.4126
  396MOL0     C53332  10.788   2.233   1.093  0.3591  0.6757  0.0733
  396MOL0     O53333  10.649   2.229   1.074  0.0962 -0.0051 -0.0956
  396MOL0     C53334  10.565   2.293   1.174 -0.3418 -1.3746  0.9451
  396MOL0     C53335  10.419   2.296   1.125  0.4401 -0.4458 -0.7772
  396MOL0     C53336  10.319   2.314   1.246 -0.1702  0.2418  0.6653
  396MOL0     C53337  10.174   2.285   1.207  0.5140 -0.0969 -0.6587
  396MOL0     C53338  10.080   2.301   1.330 -0.3068 -0.8351  0.9747
  396MOL0     C53339   9.935   2.331   1.290 -0.1183 -0.1659  0.0182
  396MOL0     C53340   9.821   2.270   1.378  0.0680 -0.0132 -0.1989
  396MOL0     C53341   9.843   2.316   1.526  0.2478 -0.1309 -0.7044
  396MOL0     N53342   9.724   2.361   1.606  0.3170 -0.0095 -0.1093
  396MOL0     C53343   9.623   2.284   1.653 -0.0236 -0.0815 -0.4035
  396MOL0     C53344   9.533   2.363   1.707  0.4373  0.1176 -0.2941
  396MOL0     C53345   9.404   2.324   1.787 -0.0456 -0.0079  0.4289
  396MOL0     C53346   9.283   2.306   1.693 -0.2481 -0.0004 -0.5135
  396MOL0     C53347   9.151   2.321   1.774 -0.4469  0.7418  0.2595
  396MOL0     C53348   9.025   2.278   1.686  0.4094  0.0154  0.7768
  396MOL0     O53349   8.912   2.299   1.766 -0.4222  0.8450 -0.1237
  396MOL0     C53350   8.792   2.332   1.716  0.2938  0.6719 -0.3896
  396MOL0     C53351   8.742   2.345   1.581  0.0519  1.1166 -0.5005
  396MOL0     C53352   8.602   2.355   1.562  1.2178 -0.2659 -0.4698
  396MOL0     C53353   8.555   2.360   1.420 -0.2073  0.6170 -0.1417
  396MOL0     C53354   8.507   2.374   1.665  0.6562  0.8603 -0.2134
  396MOL0     C53355   8.359   2.381   1.652  1.0230  0.4908 -0.4690
  396MOL0     O53356   8.302   2.323   1.545 -0.8120  0.3878  0.5818
  396MOL0     C53357   8.170   2.338   1.519  0.2240  0.5231  0.1701
  396MOL0     C53358   8.128   2.420   1.411 -1.0228  0.9755 -0.0288
  396MOL0     C53359   7.997   2.428   1.363 -0.1971  0.9291 -0.4896
  396MOL0     C53360   7.909   2.354   1.446  0.6143  0.0511 -0.3357
  396MOL0     O53361   7.771   2.362   1.425  0.4425 -0.6073 -0.1651
  396MOL0     C53362   7.706   2.430   1.534 -0.1819 -0.7192  0.4733
  396MOL0     C53363   7.564   2.367   1.556  0.1649  0.8780 -0.1262
  396MOL0     C53364   7.477   2.354   1.419 -0.1801 -0.3732 -0.4586
  396MOL0     C53365   7.325   2.350   1.440 -0.5472  0.0814  0.9768
  396MOL0     C53366   7.250   2.477   1.501 -0.8520 -0.3499 -0.4106
  396MOL0     C53367   7.115   2.428   1.561 -0.2720 -0.0385  0.0727
  396MOL0     C53368   7.071   2.506   1.684 -0.5633 -0.3009 -0.3686
  396MOL0     C53369   7.081   2.655   1.667  0.1255  0.2042 -0.4746
  396MOL0    Cl53370   7.003   2.725   1.812  0.0013 -0.2898  0.0568
  396MOL0     C53371   7.943   2.256   1.541 -0.4941 -1.1190 -0.1522
  396MOL0     C53372   8.078   2.255   1.580  0.4551  0.4734  0.0609
  396MOL0     O53373   8.295   2.426   1.744  0.0205 -0.4386 -0.0099
  396MOL0     C53374   8.568   2.394   1.793 -0.2318  0.2295 -0.3129
  396MOL0     C53375   8.705   2.366   1.819 -0.8691  0.4734  0.3110
  396MOL0     N53376   9.581   2.490   1.703  0.4045 -0.2734 -0.9380
  396MOL0     N53377   9.691   2.491   1.633 -0.4224 -0.4111  0.6475
  396MOL0     C53378  10.859   2.281   1.200 -0.0418 -0.2869  0.8243
  396MOL0     C53379  10.995   2.275   1.198  0.1774 -0.6589 -0.8048
  396MOL0     C53380  11.400   2.073   1.183  0.0555 -0.8005 -0.1517
  396MOL0     C53381  11.454   1.965   1.262  0.4495  0.1797  0.5771
  396MOL0     C53382  11.591   1.947   1.274 -0.5129  0.2183  0.4669
  396MOL0     C53383  11.679   2.041   1.206 -0.1219 -0.0474 -0.6129
  396MOL0     O53384  11.812   2.024   1.198 -0.2754  0.0728  0.8150
  396MOL0     C53385  11.863   1.897   1.240  0.1652  0.2279  0.2012
  396MOL0     C53386  12.014   1.886   1.215 -0.0583  0.2849  0.8379
  396MOL0     C53387  12.079   1.990   1.306 -0.6365  0.9157 -0.3682
  396MOL0     C53388  12.222   1.946   1.361 -0.0384  0.0947  0.2074
  396MOL0     C53389  12.321   1.945   1.252  0.1223 -0.2410 -0.5062
  396MOL0     C53390  12.396   1.936   1.153  0.3549 -1.1388 -0.0101
  396MOL0     C53391  11.630   2.139   1.128  0.8618  0.0665  0.6772
  396MOL0     C53392  11.491   2.152   1.110 -0.1345 -0.6745 -0.1550
  396MOL0     H53393  11.044   2.100   0.913 -1.0982 -1.4539 -0.2010
  396MOL0     H53394  10.807   2.117   0.903  1.2511 -2.2418  1.5290
  396MOL0     H53395  10.592   2.235   1.262  1.0821 -2.4427 -0.1464
  396MOL0     H53396  10.603   2.392   1.198  3.9219 -2.9439  1.5644
  396MOL0     H53397  10.409   2.377   1.053 -2.6336  0.3534  0.3958
  396MOL0     H53398  10.395   2.205   1.069  1.4758 -2.5937  1.9835
  396MOL0     H53399  10.347   2.262   1.338  0.2637 -0.3199  0.2228
  396MOL0     H53400  10.329   2.418   1.278 -1.6153  0.1478  1.4902
  396MOL0     H53401  10.155   2.353   1.123  3.4559  3.0566  0.9728
  396MOL0     H53402  10.165   2.180   1.176  0.0702 -1.1130  2.5987
  396MOL0     H53403  10.083   2.202   1.378 -1.4047 -0.9441  0.8495
  396MOL0     H53404  10.113   2.381   1.397 -0.1102  0.3825 -0.5440
  396MOL0     H53405   9.932   2.440   1.290 -2.0722 -0.1708  1.5220
  396MOL0     H53406   9.906   2.285   1.195  0.5005 -3.1216  1.1501
  396MOL0     H53407   9.719   2.293   1.347  0.6778 -0.4944 -2.8008
  396MOL0     H53408   9.833   2.162   1.376  2.2734  0.1851 -1.2517
  396MOL0     H53409   9.920   2.394   1.530 -0.5772  0.7129 -1.1109
  396MOL0     H53410   9.898   2.250   1.595 -0.1870  2.4236  2.3230
  396MOL0     H53411   9.618   2.176   1.643  0.4864 -0.0582 -0.9653
  396MOL0     H53412   9.415   2.234   1.848 -2.5151 -1.5550 -1.2274
  396MOL0     H53413   9.395   2.415   1.846  4.6983  1.7371 -1.0939
  396MOL0     H53414   9.288   2.205   1.652  1.2012 -1.0359  1.9916
  396MOL0     H53415   9.285   2.379   1.612  1.6809 -0.4134 -0.8671
  396MOL0     H53416   9.127   2.425   1.797  1.4518  0.4123  4.6929
  396MOL0     H53417   9.160   2.261   1.865 -0.6666 -1.4856 -1.1077
  396MOL0     H53418   9.033   2.172   1.659 -0.4973 -0.1136  0.9750
  396MOL0     H53419   9.016   2.335   1.593  2.3021 -2.6579 -1.2095
  396MOL0     H53420   8.809   2.332   1.498  0.4750  1.9173 -0.2977
  396MOL0     H53421   8.646   2.381   1.363  2.3466 -4.3255  1.5514
  396MOL0     H53422   8.515   2.260   1.404  0.6363  0.2488  0.0009
  396MOL0     H53423   8.475   2.433   1.403 -0.9318 -0.0924  0.1545
  396MOL0     H53424   8.203   2.474   1.354 -1.6587 -1.5694 -3.6044
  396MOL0     H53425   7.965   2.485   1.277 -0.5054 -0.5331 -1.3754
  396MOL0     H53426   7.758   2.414   1.629  1.4856  2.0696  0.1461
  396MOL0     H53427   7.699   2.538   1.515 -1.4406 -1.1630 -2.0122
  396MOL0     H53428   7.569   2.274   1.612 -2.3504  1.9719  2.1544
  396MOL0     H53429   7.512   2.425   1.633  2.9315  2.2179  0.8593
  396MOL0     H53430   7.514   2.269   1.361  0.5768 -2.1578  2.4356
  396MOL0     H53431   7.497   2.446   1.364 -1.6729  2.7021  3.6061
  396MOL0     H53432   7.274   2.325   1.347 -0.5897  0.2276  0.9607
  396MOL0     H53433   7.314   2.260   1.502  0.4625 -0.3917  0.4765
  396MOL0     H53434   7.238   2.553   1.423  0.1379 -1.9745 -2.2559
  396MOL0     H53435   7.310   2.521   1.581 -1.1227 -0.6864 -0.0198
  396MOL0     H53436   7.033   2.431   1.488  1.3983 -0.8984 -1.9238
  396MOL0     H53437   7.115   2.324   1.593 -1.5232  0.0464  0.4181
  396MOL0     H53438   7.134   2.484   1.771 -0.4465  0.1798 -0.3274
  396MOL0     H53439   6.969   2.477   1.709 -0.6898  0.3291 -0.1134
  396MOL0     H53440   7.024   2.694   1.582 -1.7888 -1.7113 -0.1570
  396MOL0     H53441   7.185   2.690   1.668 -0.1147  0.9445  0.9853
  396MOL0     H53442   7.867   2.209   1.603 -1.1905  0.4928  0.2799
  396MOL0     H53443   8.113   2.195   1.663  0.1651  1.9617  1.3181
  396MOL0     H53444   8.503   2.417   1.877  0.4329 -0.5303  0.4220
  396MOL0     H53445   8.746   2.364   1.919  0.2500  1.0900 -0.1136
  396MOL0     H53446  10.809   2.328   1.285  0.6288  1.5868  0.2353
  396MOL0     H53447  11.052   2.334   1.269  1.3039  0.0955 -2.2976
  396MOL0     H53448  11.380   1.890   1.286 -0.1325  0.3261 -0.6470
  396MOL0     H53449  11.631   1.864   1.331  1.2903  0.2027 -0.7317
  396MOL0     H53450  11.849   1.876   1.347 -3.2513 -1.4085 -0.4552
  396MOL0     H53451  11.814   1.822   1.179  0.0298  2.2098 -2.2844
  396MOL0     H53452  12.035   1.902   1.109 -0.7947 -2.6267  0.1916
  396MOL0     H53453  12.036   1.782   1.241 -0.8920 -0.4997 -1.3415
  396MOL0     H53454  12.020   1.999   1.397 -4.2067  1.0739 -2.5138
  396MOL0     H53455  12.090   2.085   1.252 -1.0796  2.4258  2.0379
  396MOL0     H53456  12.205   1.844   1.396 -1.2929 -0.4070 -1.6911
  396MOL0     H53457  12.256   2.003   1.448 -0.3950 -0.0467  0.4430
  396MOL0     H53458  12.466   1.921   1.074  1.7010 -2.2185  1.3476
  396MOL0     H53459  11.696   2.193   1.061 -1.2734 -0.1085 -1.7499
  396MOL0     H53460  11.462   2.226   1.036  1.1286  0.9570  0.9140
  397MOL0     O53461   3.974   7.966   9.071  0.3670 -0.2183  0.2939
  397MOL0     C53462   4.027   8.075   9.103  0.1952 -0.9597 -0.4256
  397MOL0     O53463   3.991   8.194   9.056  0.3324  0.2381 -0.6529
  397MOL0     C53464   3.897   8.204   8.959 -0.4413 -0.4425  0.6360
  397MOL0     C53465   3.772   8.140   8.972  0.3725 -0.0361  0.4557
  397MOL0     C53466   3.677   8.164   8.867 -0.8325 -0.2083 -0.5023
  397MOL0     C53467   3.711   8.247   8.755  0.3793  0.2974 -0.0115
  397MOL0     O53468   3.624   8.289   8.660  0.8933  0.0808  0.0370
  397MOL0     C53469   3.495   8.220   8.669  0.7448 -0.2301 -0.3427
  397MOL0     C53470   3.389   8.297   8.762 -0.8596  0.4554  0.4286
  397MOL0     C53471   3.262   8.222   8.781  0.1286 -0.1055  0.3935
  397MOL0     C53472   3.137   8.307   8.819 -1.1322 -0.1367  0.0462
  397MOL0     C53473   3.012   8.199   8.819 -0.0319  0.0819  0.3663
  397MOL0     C53474   2.875   8.255   8.871  0.8688 -0.2483  0.3253
  397MOL0     C53475   2.758   8.156   8.848 -0.5110 -0.1905  0.0429
  397MOL0     C53476   2.624   8.202   8.904 -0.6626 -0.5377  0.1589
  397MOL0     N53477   2.521   8.104   8.868  0.1967 -0.0596 -0.7071
  397MOL0     C53478   2.469   8.015   8.954  0.8088  0.1113 -0.6520
  397MOL0     C53479   2.388   7.935   8.880 -0.5262 -0.7018 -0.0223
  397MOL0     C53480   2.301   7.816   8.936 -0.4281 -0.3218 -0.0446
  397MOL0     C53481   2.345   7.675   8.875  1.2960 -0.7268  0.8122
  397MOL0     C53482   2.235   7.633   8.780 -0.1991 -0.1714 -0.3796
  397MOL0     C53483   2.218   7.713   8.653 -0.2521  0.4505  0.0449
  397MOL0     O53484   2.130   7.630   8.565 -0.7891  0.7337  0.5523
  397MOL0     C53485   2.007   7.682   8.550  0.0285 -0.5835 -0.1320
  397MOL0     C53486   1.896   7.602   8.567 -0.2418 -0.1844 -0.3010
  397MOL0     C53487   1.769   7.652   8.547  0.1187 -0.5839  0.1978
  397MOL0     C53488   1.658   7.556   8.584  0.5412 -0.0478 -0.1508
  397MOL0     C53489   1.743   7.786   8.494 -0.0264  0.5556 -0.0594
  397MOL0     C53490   1.612   7.845   8.452 -0.1815  0.3611  0.7303
  397MOL0     O53491   1.617   7.971   8.407  0.2671 -0.3184  0.2020
  397MOL0     C53492   1.502   8.033   8.386 -0.3467 -1.2443  1.6232
  397MOL0     C53493   1.437   8.018   8.263  0.1734  0.2228 -0.3194
  397MOL0     C53494   1.308   8.076   8.234  0.3218  0.3818 -0.5982
  397MOL0     C53495   1.235   8.150   8.331 -0.1185 -0.5020 -0.0927
  397MOL0     O53496   1.123   8.210   8.283 -0.0210  0.2496  0.0010
  397MOL0     C53497   1.070   8.316   8.368  0.4148 -0.8376 -0.3927
  397MOL0     C53498   0.926   8.342   8.324  0.0435 -0.0662 -0.2725
  397MOL0     C53499   0.822   8.249   8.388 -0.1777 -0.5803 -0.1810
  397MOL0     C53500   0.842   8.248   8.544 -0.1350 -0.0821 -0.4657
  397MOL0     C53501   0.723   8.198   8.615 -1.1556 -0.7175 -0.3351
  397MOL0     C53502   0.753   8.173   8.756 -1.1473  0.0910 -0.8923
  397MOL0     C53503   0.636   8.124   8.832  0.3757  0.4093 -0.9093
  397MOL0     C53504   0.568   7.996   8.768 -1.0176 -0.1995 -0.1476
  397MOL0    Cl53505   0.451   7.932   8.877 -0.0047 -0.0236 -0.1831
  397MOL0     C53506   1.307   8.170   8.452 -1.0228 -0.2979  0.1035
  397MOL0     C53507   1.431   8.104   8.480 -0.8977 -0.4031  0.1952
  397MOL0     O53508   1.509   7.777   8.467 -0.2081 -0.2746 -0.5353
  397MOL0     C53509   1.858   7.864   8.474  0.1846  1.0858  0.6125
  397MOL0     C53510   1.990   7.816   8.507 -0.4184 -0.0644 -0.1403
  397MOL0     N53511   2.393   7.992   8.751  1.1497  0.0624  0.7161
  397MOL0     N53512   2.477   8.079   8.742 -0.3128 -0.2995 -0.8513
  397MOL0     C53513   3.837   8.310   8.757 -0.3239 -0.2445 -0.0569
  397MOL0     C53514   3.925   8.290   8.860 -0.6128  0.2624 -0.3044
  397MOL0     C53515   4.146   8.063   9.194  0.5846 -0.3329  0.1842
  397MOL0     C53516   4.192   8.173   9.261  0.6651 -0.2219 -0.2028
  397MOL0     C53517   4.301   8.167   9.348  0.3030 -0.2664  0.8431
  397MOL0     C53518   4.372   8.047   9.352 -0.6643  0.0201 -0.0265
  397MOL0     O53519   4.467   8.028   9.446 -0.4652 -0.3136  0.2853
  397MOL0     C53520   4.513   8.143   9.520  0.0927  0.7356  0.4924
  397MOL0     C53521   4.436   8.159   9.655 -0.9870 -0.5102 -0.3110
  397MOL0     C53522   4.463   8.047   9.767  0.9631 -0.1712 -0.2926
  397MOL0     C53523   4.435   8.104   9.909  0.0798 -0.4975  0.0835
  397MOL0     C53524   4.293   8.127   9.932 -0.2986  0.3730 -0.0710
  397MOL0     C53525   4.176   8.147   9.936  0.0062 -0.1189  0.0547
  397MOL0     C53526   4.337   7.942   9.281 -0.7108  0.4620  0.2933
  397MOL0     C53527   4.219   7.946   9.201  0.2078  0.2734  0.7704
  397MOL0     H53528   3.738   8.083   9.058 -0.5832 -0.5578 -0.2516
  397MOL0     H53529   3.586   8.109   8.889  1.2961 -3.5485  0.8203
  397MOL0     H53530   3.456   8.224   8.567  1.7561 -0.2664 -0.7484
  397MOL0     H53531   3.488   8.112   8.687 -0.2542 -0.3167 -1.1767
  397MOL0     H53532   3.438   8.310   8.859  2.5859  0.0041 -1.1041
  397MOL0     H53533   3.369   8.394   8.715 -4.1488  0.2878  1.2772
  397MOL0     H53534   3.240   8.169   8.688 -0.9640 -0.0485  0.6112
  397MOL0     H53535   3.276   8.150   8.862 -2.4093 -1.2880 -0.1401
  397MOL0     H53536   3.148   8.356   8.916  0.7903 -1.2284  0.4159
  397MOL0     H53537   3.128   8.388   8.745 -2.1643 -0.6402 -0.4052
  397MOL0     H53538   3.006   8.173   8.714  3.8689  1.2774 -0.3298
  397MOL0     H53539   3.039   8.109   8.875  3.5172  1.0172  0.4618
  397MOL0     H53540   2.882   8.265   8.979 -1.9966 -1.2785  0.6911
  397MOL0     H53541   2.859   8.355   8.831  2.5200 -0.5727 -1.2867
  397MOL0     H53542   2.749   8.132   8.742  0.0299  0.1065 -0.0720
  397MOL0     H53543   2.778   8.066   8.907  1.4406 -0.3807 -0.8525
  397MOL0     H53544   2.604   8.293   8.847 -0.1137 -1.6121 -1.8497
  397MOL0     H53545   2.635   8.226   9.010 -2.2804  0.3609  0.1497
  397MOL0     H53546   2.489   7.999   9.059  0.3321  0.5025 -0.4952
  397MOL0     H53547   2.329   7.815   9.042  0.1077 -0.5270 -0.1859
  397MOL0     H53548   2.197   7.849   8.934 -0.6813 -0.7546  2.2877
  397MOL0     H53549   2.342   7.600   8.954 -1.2411  0.7913  2.2802
  397MOL0     H53550   2.443   7.666   8.827  0.4350 -1.5303 -0.8729
  397MOL0     H53551   2.143   7.626   8.840  1.2259 -1.2403  1.8278
  397MOL0     H53552   2.256   7.528   8.755 -4.6031 -1.9308  2.0088
  397MOL0     H53553   2.314   7.714   8.602  1.2594 -2.3452  2.5378
  397MOL0     H53554   2.195   7.818   8.671  1.0129  0.3756  2.4409
  397MOL0     H53555   1.928   7.504   8.602  2.4186  0.4503 -0.7023
  397MOL0     H53556   1.700   7.456   8.601  1.9936  0.9342  2.4076
  397MOL0     H53557   1.620   7.598   8.677  3.4213  1.1820  0.5653
  397MOL0     H53558   1.582   7.543   8.506 -1.6052  0.7301  1.6947
  397MOL0     H53559   1.483   7.952   8.190  0.1289  0.7762 -0.8599
  397MOL0     H53560   1.253   8.076   8.141 -2.5994  0.5195  1.0043
  397MOL0     H53561   1.073   8.285   8.473  0.5901  2.0573  0.5273
  397MOL0     H53562   1.124   8.411   8.371 -2.5732  0.9641  1.1658
  397MOL0     H53563   0.901   8.442   8.361  2.0392 -0.1457  1.4985
  397MOL0     H53564   0.906   8.348   8.217 -2.8833 -0.6652  0.1449
  397MOL0     H53565   0.841   8.148   8.350  0.5163 -0.4945 -0.0754
  397MOL0     H53566   0.725   8.279   8.349 -1.1349 -1.2829  1.5504
  397MOL0     H53567   0.923   8.179   8.566  0.9292  1.2024 -0.2319
  397MOL0     H53568   0.876   8.345   8.582 -0.0336 -0.1632 -0.3481
  397MOL0     H53569   0.688   8.110   8.560 -1.3344 -1.1586  0.4679
  397MOL0     H53570   0.645   8.273   8.599  0.2163  0.4318 -1.9098
  397MOL0     H53571   0.834   8.099   8.760 -0.8406  0.3691 -1.7387
  397MOL0     H53572   0.787   8.267   8.801 -2.2210  1.5460 -2.9746
  397MOL0     H53573   0.563   8.204   8.839  0.1517  0.1071  0.3803
  397MOL0     H53574   0.676   8.088   8.927  1.5224 -1.3544 -1.9813
  397MOL0     H53575   0.641   7.917   8.747 -1.2160 -0.4931  0.2455
  397MOL0     H53576   0.511   8.031   8.681 -1.8723  0.1549  0.5431
  397MOL0     H53577   1.269   8.240   8.526 -0.1555 -1.1151  1.3581
  397MOL0     H53578   1.472   8.115   8.580  0.4830 -2.5573 -0.0808
  397MOL0     H53579   1.857   7.957   8.417  1.2797  0.8691  0.2045
  397MOL0     H53580   2.079   7.875   8.488  0.5922 -0.7731  2.1203
  397MOL0     H53581   3.857   8.385   8.681  0.4415 -0.8667 -0.4834
  397MOL0     H53582   4.016   8.348   8.872 -1.5569  1.3747  2.5506
  397MOL0     H53583   4.144   8.267   9.235  1.1547  0.0685 -0.0736
  397MOL0     H53584   4.332   8.256   9.402  1.3767 -0.3183  0.3426
  397MOL0     H53585   4.618   8.120   9.542 -0.1551 -0.7847  0.2370
  397MOL0     H53586   4.518   8.234   9.460 -0.8509  0.8065  0.5060
  397MOL0     H53587   4.328   8.173   9.642 -0.5720  2.3727 -1.4492
  397MOL0     H53588   4.469   8.258   9.687  1.6459 -0.9422 -1.4357
  397MOL0     H53589   4.572   8.044   9.764  1.1342  2.5364  0.8859
  397MOL0     H53590   4.409   7.954   9.749 -2.2523  1.3482  0.7120
  397MOL0     H53591   4.491   8.198   9.911 -0.3627 -0.2404  1.5781
  397MOL0     H53592   4.480   8.038   9.984  2.4518  0.5962 -0.2996
  397MOL0     H53593   4.071   8.171   9.937 -0.3351 -1.4870  1.5557
  397MOL0     H53594   4.396   7.856   9.309 -0.2518  0.2611 -1.1802
  397MOL0     H53595   4.207   7.853   9.146 -0.3648  0.8582 -0.1134
  398MOL0     O53596   1.947   7.112   4.416  0.5115  0.0249  0.8224
  398MOL0     C53597   1.943   7.206   4.498 -0.0909  0.1595  0.0494
  398MOL0     O53598   1.918   7.336   4.468  0.0847 -0.0507 -0.1346
  398MOL0     C53599   1.845   7.382   4.355 -0.1370  0.8442 -0.4630
  398MOL0     C53600   1.894   7.481   4.269 -0.5666  0.1609  0.2297
  398MOL0     C53601   1.817   7.535   4.159  0.2246  0.3586  0.2263
  398MOL0     C53602   1.704   7.480   4.117  0.2897 -0.0894  0.2476
  398MOL0     O53603   1.629   7.510   4.007 -0.2852  0.7906  0.4139
  398MOL0     C53604   1.666   7.634   3.945 -0.4293 -0.9630 -0.4258
  398MOL0     C53605   1.579   7.655   3.820  0.4331 -0.5787 -0.1177
  398MOL0     C53606   1.580   7.794   3.781 -0.4261 -0.1799  0.1054
  398MOL0     C53607   1.506   7.828   3.647  0.5779 -0.1646  0.0361
  398MOL0     C53608   1.530   7.981   3.611 -0.0613  0.5398 -0.0018
  398MOL0     C53609   1.493   8.080   3.728  0.0021  0.4146  0.2169
  398MOL0     C53610   1.360   8.062   3.774  0.2917  1.2297 -1.2502
  398MOL0     C53611   1.257   8.086   3.666  0.3721 -0.4211  0.9403
  398MOL0     N53612   1.129   8.065   3.741  0.7339 -0.6257  0.6975
  398MOL0     C53613   1.058   7.946   3.757  0.0213  0.2881  0.7348
  398MOL0     C53614   0.958   7.980   3.846 -0.0218 -0.0278  0.3088
  398MOL0     C53615   0.846   7.897   3.893  0.4258  0.9200 -0.2180
  398MOL0     C53616   0.763   7.842   3.781  0.4661 -0.5058 -0.9960
  398MOL0     C53617   0.655   7.746   3.834 -0.1718 -0.3138  0.1456
  398MOL0     C53618   0.561   7.690   3.730  0.6077  0.5548 -0.0171
  398MOL0     O53619   0.419   7.723   3.752 -0.4944 -0.0704  0.6849
  398MOL0     C53620   0.345   7.630   3.823  0.5867 -0.3625 -0.1860
  398MOL0     C53621   0.396   7.533   3.916  0.0832  0.2538 -0.1419
  398MOL0     C53622   0.310   7.458   3.991 -0.2842  0.7524  0.6517
  398MOL0     C53623   0.375   7.376   4.108 -0.7409  0.6952  1.1564
  398MOL0     C53624   0.177   7.452   3.946 -0.0307  0.0622  0.2652
  398MOL0     C53625   0.070   7.375   4.018 -0.1917  0.0354  0.0623
  398MOL0     O53626  -0.061   7.399   3.996  0.7518 -0.5696  0.0840
  398MOL0     C53627  -0.138   7.425   4.110 -0.1565 -0.2226 -0.6757
  398MOL0     C53628  -0.235   7.514   4.087 -0.1835  0.8403 -0.0734
  398MOL0     C53629  -0.323   7.554   4.185 -0.7154  0.5808  0.6128
  398MOL0     C53630  -0.314   7.504   4.315 -0.6796  0.3848 -0.0843
  398MOL0     O53631  -0.401   7.548   4.411  0.4977  0.3102 -0.6294
  398MOL0     C53632  -0.483   7.670   4.378  0.3625 -1.0880 -0.1542
  398MOL0     C53633  -0.619   7.631   4.321 -0.4252 -0.6963  0.2388
  398MOL0     C53634  -0.712   7.753   4.311 -0.4503  0.2205  0.9865
  398MOL0     C53635  -0.860   7.708   4.333 -0.3892  0.3195 -0.1995
  398MOL0     C53636  -0.964   7.795   4.267  0.1027  0.0178  0.5677
  398MOL0     C53637  -1.097   7.728   4.274 -0.1140  0.1331 -0.3559
  398MOL0     C53638  -1.207   7.797   4.187  0.1086  0.0803 -0.0876
  398MOL0     C53639  -1.330   7.810   4.267 -0.1846 -1.1299 -0.2434
  398MOL0    Cl53640  -1.378   7.653   4.341  0.2532 -0.0067 -0.0745
  398MOL0     C53641  -0.219   7.406   4.340 -1.0350  0.1968 -0.0256
  398MOL0     C53642  -0.129   7.370   4.243 -0.2171 -0.0618  0.9951
  398MOL0     O53643   0.108   7.275   4.080  0.9823 -0.0920  0.1400
  398MOL0     C53644   0.127   7.541   3.848 -0.0714 -0.0804 -0.1347
  398MOL0     C53645   0.211   7.631   3.801 -0.4342 -0.0514  0.3591
  398MOL0     N53646   0.969   8.113   3.872  0.1265  0.2885  0.4398
  398MOL0     N53647   1.068   8.167   3.805  0.3435 -0.2535 -0.0451
  398MOL0     C53648   1.654   7.380   4.198 -0.1972  0.4135  0.5306
  398MOL0     C53649   1.721   7.327   4.315 -0.8573 -0.1462 -0.1389
  398MOL0     C53650   1.977   7.172   4.638  0.8898 -0.0984 -0.0326
  398MOL0     C53651   1.999   7.043   4.681 -0.0631 -0.8096  0.1678
  398MOL0     C53652   2.039   7.018   4.810  0.1152  0.8266 -0.4934
  398MOL0     C53653   2.066   7.127   4.902 -0.3192  0.0271 -0.2727
  398MOL0     O53654   2.081   7.114   5.035 -0.7861 -0.1533  0.9089
  398MOL0     C53655   2.107   6.980   5.070  0.3020  0.7180 -0.6862
  398MOL0     C53656   2.125   6.960   5.221  0.6867 -0.2828 -0.4393
  398MOL0     C53657   2.003   6.887   5.275 -0.3228 -0.0096 -0.4204
  398MOL0     C53658   1.871   6.978   5.274 -0.0561  0.6221  0.0504
  398MOL0     C53659   1.846   7.032   5.411 -0.3511  0.2493  0.9669
  398MOL0     C53660   1.850   7.084   5.518 -0.4769  0.4557  0.1088
  398MOL0     C53661   2.044   7.258   4.848 -0.0440  0.2135  0.7578
  398MOL0     C53662   2.010   7.277   4.722  0.4784 -1.3506 -0.1257
  398MOL0     H53663   1.982   7.536   4.298 -1.6851  1.0464  2.1418
  398MOL0     H53664   1.873   7.605   4.097 -0.4727  0.9053  0.1959
  398MOL0     H53665   1.636   7.717   4.010  0.4043 -0.4536 -0.6723
  398MOL0     H53666   1.773   7.646   3.924 -0.6197 -0.6221 -1.2517
  398MOL0     H53667   1.592   7.585   3.737  2.6023  0.6147 -0.8350
  398MOL0     H53668   1.478   7.632   3.855  0.3902  1.9915  1.7518
  398MOL0     H53669   1.529   7.851   3.860 -2.4873  0.1079 -1.3582
  398MOL0     H53670   1.681   7.835   3.772  0.8550 -2.7314  1.7097
  398MOL0     H53671   1.539   7.756   3.572 -0.1356 -2.6482  1.9437
  398MOL0     H53672   1.399   7.808   3.650  0.7074 -0.8362  0.8087
  398MOL0     H53673   1.633   7.981   3.575  0.1462  1.2142  0.5562
  398MOL0     H53674   1.470   8.001   3.521  0.8300 -1.4833 -1.1157
  398MOL0     H53675   1.559   8.065   3.815 -0.1859 -0.8646  0.1539
  398MOL0     H53676   1.518   8.183   3.699 -3.6673  1.3842  0.0891
  398MOL0     H53677   1.345   7.966   3.825  1.9741  0.5984 -1.8853
  398MOL0     H53678   1.340   8.140   3.847 -3.1410 -1.2599  0.7824
  398MOL0     H53679   1.265   8.013   3.584  1.2020  0.0945  0.5423
  398MOL0     H53680   1.261   8.186   3.624  0.9624 -0.9302 -0.2703
  398MOL0     H53681   1.080   7.850   3.711 -1.2646 -0.4589  1.6019
  398MOL0     H53682   0.876   7.810   3.952 -4.8218 -0.1046  1.4249
  398MOL0     H53683   0.773   7.952   3.953  0.6710  1.0206 -0.0094
  398MOL0     H53684   0.828   7.792   3.709  0.2825 -0.1979 -1.3742
  398MOL0     H53685   0.718   7.925   3.727 -1.4624  0.0161  1.2235
  398MOL0     H53686   0.588   7.804   3.898 -0.5821  1.0036 -1.4161
  398MOL0     H53687   0.702   7.664   3.889  0.0950 -0.3804 -0.1850
  398MOL0     H53688   0.585   7.587   3.703 -2.0310  0.0051 -0.5558
  398MOL0     H53689   0.576   7.743   3.635  1.2952  0.5738  0.0986
  398MOL0     H53690   0.503   7.537   3.935  0.5837  1.2558 -2.6574
  398MOL0     H53691   0.345   7.421   4.204  0.1490  3.1133  0.3802
  398MOL0     H53692   0.340   7.273   4.117 -1.4824  0.7383 -0.7529
  398MOL0     H53693   0.483   7.381   4.093 -0.3245 -0.8668  3.1274
  398MOL0     H53694  -0.255   7.548   3.986  0.5359  3.5752  0.6158
  398MOL0     H53695  -0.392   7.622   4.138  1.3048  1.4786 -1.2185
  398MOL0     H53696  -0.493   7.724   4.472  1.7004  1.2148 -1.2640
  398MOL0     H53697  -0.428   7.740   4.315  0.1929  0.1067  0.9975
  398MOL0     H53698  -0.611   7.586   4.222 -1.6306  1.3211 -0.8300
  398MOL0     H53699  -0.657   7.560   4.395  2.4381 -3.0451 -0.3785
  398MOL0     H53700  -0.697   7.782   4.207 -1.6453  2.0945  1.2907
  398MOL0     H53701  -0.682   7.842   4.368  1.4077  1.2253 -1.3967
  398MOL0     H53702  -0.866   7.605   4.296  0.5147 -0.3805  1.4930
  398MOL0     H53703  -0.874   7.707   4.441  1.1622  1.3301  0.0436
  398MOL0     H53704  -0.937   7.807   4.161 -0.3153  0.7358  0.5421
  398MOL0     H53705  -0.959   7.894   4.313 -3.2684 -0.1877  1.6405
  398MOL0     H53706  -1.095   7.622   4.250  1.4978 -0.6851  2.7822
  398MOL0     H53707  -1.128   7.722   4.379  1.5592 -0.3623  0.1349
  398MOL0     H53708  -1.226   7.730   4.103  0.0086 -1.1027  0.8560
  398MOL0     H53709  -1.172   7.894   4.150 -1.2246  0.7008  0.2262
  398MOL0     H53710  -1.410   7.854   4.206  2.3752  2.1831 -1.5335
  398MOL0     H53711  -1.315   7.878   4.352 -1.5204 -1.1614  0.0418
  398MOL0     H53712  -0.207   7.364   4.439  0.6104 -0.6100 -0.5447
  398MOL0     H53713  -0.050   7.300   4.273 -0.5650  0.1250  2.4383
  398MOL0     H53714   0.022   7.549   3.821  0.2121  2.4824 -0.6925
  398MOL0     H53715   0.165   7.714   3.749  1.1961  0.3169 -0.5773
  398MOL0     H53716   1.558   7.334   4.177  0.0858 -0.0000  0.1076
  398MOL0     H53717   1.676   7.254   4.382 -2.4323  2.9845  2.5186
  398MOL0     H53718   1.994   6.967   4.602 -1.7010 -0.2310 -0.3268
  398MOL0     H53719   2.025   6.913   4.830 -1.6244  0.8724 -1.2312
  398MOL0     H53720   2.030   6.907   5.041 -0.1486 -0.0403  2.1455
  398MOL0     H53721   2.202   6.941   5.030  0.0693 -1.2421  0.5647
  398MOL0     H53722   2.154   7.045   5.283 -1.5881 -0.4800  1.0053
  398MOL0     H53723   2.200   6.882   5.235  1.6106  0.0303 -3.0850
  398MOL0     H53724   2.022   6.853   5.378 -0.6764 -0.0203 -0.3542
  398MOL0     H53725   1.985   6.798   5.215 -0.9987 -2.2930  2.9178
  398MOL0     H53726   1.786   6.917   5.241  1.4232 -1.8413  0.5244
  398MOL0     H53727   1.890   7.058   5.201  3.9457  0.7805  1.0030
  398MOL0     H53728   1.862   7.153   5.599  1.4540 -0.8070  0.9796
  398MOL0     H53729   2.060   7.341   4.917 -0.0901 -1.9285  3.5235
  398MOL0     H53730   2.020   7.384   4.710 -0.6632 -1.2098  0.0369
  399MOL0     O53731   1.932   2.649   0.343 -0.6492 -0.4981 -0.1721
  399MOL0     C53732   1.953   2.545   0.281 -0.1975 -0.1978 -0.2617
  399MOL0     O53733   1.878   2.493   0.189  0.7366  0.6784  0.1860
  399MOL0     C53734   1.761   2.547   0.143  0.8002 -0.4384  0.4616
  399MOL0     C53735   1.744   2.531   0.005  0.3132  0.5426 -0.2228
  399MOL0     C53736   1.628   2.573  -0.065  0.6409  0.5846  0.4248
  399MOL0     C53737   1.529   2.629   0.012 -0.0130 -0.4221  0.1992
  399MOL0     O53738   1.418   2.667  -0.058 -0.2746  0.2555  0.2646
  399MOL0     C53739   1.348   2.557  -0.114  1.2680 -0.0497 -0.1901
  399MOL0     C53740   1.220   2.555  -0.032 -0.1987 -0.0714  0.3780
  399MOL0     C53741   1.129   2.448  -0.103  0.5868 -0.3369 -0.3361
  399MOL0     C53742   1.043   2.522  -0.193 -0.5626  0.3497  0.3281
  399MOL0     C53743   0.921   2.435  -0.229 -0.3218 -0.4255 -0.4813
  399MOL0     C53744   0.841   2.504  -0.340 -0.2844  0.0853 -0.1440
  399MOL0     C53745   0.703   2.432  -0.338 -0.2708  0.3337  0.6062
  399MOL0     C53746   0.603   2.479  -0.235  0.0421  0.6115 -0.3276
  399MOL0     N53747   0.475   2.422  -0.275 -0.7298  0.9537 -0.2120
  399MOL0     C53748   0.413   2.312  -0.212 -0.4674  0.9550 -0.2993
  399MOL0     C53749   0.300   2.304  -0.279  0.3206 -0.8452  0.4317
  399MOL0     C53750   0.195   2.203  -0.256 -0.4362  0.1650 -0.6957
  399MOL0     C53751   0.062   2.222  -0.312  0.0758  1.0043  0.1685
  399MOL0     C53752  -0.026   2.313  -0.233 -0.8055 -0.2973  0.1354
  399MOL0     C53753  -0.003   2.467  -0.264  0.4419 -0.3134 -0.4370
  399MOL0     O53754  -0.051   2.517  -0.392 -0.4208  0.5476 -0.8754
  399MOL0     C53755  -0.173   2.493  -0.436  0.6692  0.9395 -0.1996
  399MOL0     C53756  -0.206   2.483  -0.571  0.2072  0.0385  0.1175
  399MOL0     C53757  -0.339   2.461  -0.611  0.9257 -0.0769  0.7487
  399MOL0     C53758  -0.371   2.460  -0.761 -0.4545 -0.1129 -0.2675
  399MOL0     C53759  -0.438   2.432  -0.513 -0.6015 -0.2556 -0.3294
  399MOL0     C53760  -0.577   2.386  -0.536  0.0528  0.3903 -0.1883
  399MOL0     O53761  -0.664   2.420  -0.428  0.0253  0.1048  0.1587
  399MOL0     C53762  -0.771   2.342  -0.409  0.0190 -0.5359  0.7981
  399MOL0     C53763  -0.770   2.221  -0.339  0.4913  0.7714 -0.3699
  399MOL0     C53764  -0.890   2.155  -0.318 -0.0190  0.7349 -0.0711
  399MOL0     C53765  -1.011   2.203  -0.381 -0.1629  1.1274 -0.8169
  399MOL0     O53766  -1.124   2.127  -0.373  0.1057 -0.1688 -0.2981
  399MOL0     C53767  -1.251   2.193  -0.411 -0.1640  0.4348 -0.1131
  399MOL0     C53768  -1.364   2.100  -0.368  1.4348 -0.3292  0.1199
  399MOL0     C53769  -1.509   2.161  -0.387 -1.1572  1.7402 -0.0053
  399MOL0     C53770  -1.625   2.072  -0.329  0.1452 -0.4516 -0.2805
  399MOL0     C53771  -1.745   2.153  -0.283 -1.1458  0.0396 -0.9853
  399MOL0     C53772  -1.851   2.069  -0.222  0.1290  0.5589  0.6542
  399MOL0     C53773  -1.972   2.154  -0.178  0.2066  0.3174  0.1795
  399MOL0     C53774  -2.076   2.078  -0.097  0.4334 -0.3893 -0.2124
  399MOL0    Cl53775  -2.171   2.182   0.013  0.0614  0.2146 -0.6527
  399MOL0     C53776  -1.010   2.326  -0.460  0.1177 -0.2237 -0.3603
  399MOL0     C53777  -0.889   2.399  -0.462 -0.2181 -0.3489 -0.9064
  399MOL0     O53778  -0.600   2.306  -0.625 -0.0076 -0.0158 -0.6591
  399MOL0     C53779  -0.402   2.448  -0.374 -0.2852 -1.2521  0.8479
  399MOL0     C53780  -0.278   2.495  -0.347 -0.5742 -0.6217 -0.2312
  399MOL0     N53781   0.296   2.402  -0.382  0.3492  0.0233 -0.8812
  399MOL0     N53782   0.400   2.473  -0.369  0.5202 -0.9747  0.3918
  399MOL0     C53783   1.534   2.638   0.155 -0.2187  0.3251 -0.1005
  399MOL0     C53784   1.654   2.596   0.217  0.1153 -0.7334  1.3516
  399MOL0     C53785   2.088   2.488   0.311 -0.0924 -0.5554  0.3752
  399MOL0     C53786   2.190   2.569   0.370  0.7795  0.6032 -0.3091
  399MOL0     C53787   2.316   2.510   0.381  0.0830  0.3006  0.2701
  399MOL0     C53788   2.344   2.376   0.337 -0.3435 -0.4058 -0.0100
  399MOL0     O53789   2.471   2.334   0.367  0.4059  0.2006  0.1772
  399MOL0     C53790   2.544   2.224   0.287  0.4204  1.2067 -0.0314
  399MOL0     C53791   2.530   2.095   0.369  0.7943  0.1667  0.3543
  399MOL0     C53792   2.634   1.984   0.330 -0.4205 -0.1471 -1.1341
  399MOL0     C53793   2.595   1.846   0.389 -0.4780 -0.2243 -0.3254
  399MOL0     C53794   2.715   1.780   0.428 -0.2927  0.2047  0.4229
  399MOL0     C53795   2.828   1.733   0.443 -0.1478 -0.2371  0.6126
  399MOL0     C53796   2.237   2.304   0.279  0.6048 -0.5793  0.6800
  399MOL0     C53797   2.113   2.356   0.258  0.1536 -0.4411 -0.2542
  399MOL0     H53798   1.827   2.483  -0.045 -0.6617  0.8754 -2.2592
  399MOL0     H53799   1.614   2.554  -0.171 -0.1226 -0.2438  0.6568
  399MOL0     H53800   1.331   2.585  -0.219 -2.8866 -1.1137  0.0387
  399MOL0     H53801   1.399   2.461  -0.107 -4.1670 -3.1725  2.0661
  399MOL0     H53802   1.237   2.521   0.070 -0.3002  0.6283  0.6343
  399MOL0     H53803   1.177   2.656  -0.034  2.3162  1.1151 -2.5680
  399MOL0     H53804   1.190   2.371  -0.152  2.9272 -0.8540  3.0264
  399MOL0     H53805   1.074   2.393  -0.026  1.7885 -2.7342 -1.1016
  399MOL0     H53806   1.007   2.613  -0.144  1.4549 -0.9629  4.8258
  399MOL0     H53807   1.094   2.558  -0.283 -0.1715 -0.3631  0.2548
  399MOL0     H53808   0.950   2.334  -0.259 -0.4432  0.4929 -4.2143
  399MOL0     H53809   0.856   2.423  -0.141  2.2213 -0.1118  1.5734
  399MOL0     H53810   0.831   2.611  -0.321 -0.8852 -0.0516  0.3447
  399MOL0     H53811   0.886   2.486  -0.438 -0.5487 -0.6383 -0.1366
  399MOL0     H53812   0.669   2.447  -0.441 -2.0100 -0.4288  1.0337
  399MOL0     H53813   0.721   2.324  -0.327  0.1116  0.0453 -2.0915
  399MOL0     H53814   0.594   2.587  -0.251 -1.9226  0.1643 -3.0375
  399MOL0     H53815   0.637   2.446  -0.137 -0.0644 -2.1615 -1.1428
  399MOL0     H53816   0.458   2.243  -0.141  1.8538 -1.5263 -3.7990
  399MOL0     H53817   0.223   2.108  -0.304 -0.9111  1.1215 -3.0162
  399MOL0     H53818   0.192   2.192  -0.147  0.2740  0.4459 -0.6419
  399MOL0     H53819   0.023   2.120  -0.308 -0.6453  1.2636 -0.0189
  399MOL0     H53820   0.082   2.250  -0.416  3.2823 -0.9585  0.1401
  399MOL0     H53821  -0.012   2.287  -0.128  2.8127 -0.9658 -0.4113
  399MOL0     H53822  -0.132   2.291  -0.250 -0.7756  0.0252 -0.5048
  399MOL0     H53823   0.102   2.498  -0.254  0.4727 -0.1096 -1.3537
  399MOL0     H53824  -0.054   2.523  -0.185 -2.0733 -3.2437  0.1963
  399MOL0     H53825  -0.131   2.498  -0.648  0.2388 -0.4195  0.0565
  399MOL0     H53826  -0.388   2.357  -0.793 -1.5629 -0.8345  2.3633
  399MOL0     H53827  -0.463   2.515  -0.784  0.4314  1.5792  0.1029
  399MOL0     H53828  -0.289   2.514  -0.808  0.1138 -0.1318  0.6829
  399MOL0     H53829  -0.687   2.183  -0.280  2.0169  1.1339 -2.1997
  399MOL0     H53830  -0.882   2.059  -0.269  4.7255  0.1996 -1.4131
  399MOL0     H53831  -1.264   2.295  -0.374 -1.3966 -0.2396  1.4531
  399MOL0     H53832  -1.251   2.200  -0.520 -0.9762 -0.8766 -0.2240
  399MOL0     H53833  -1.359   2.011  -0.432  1.1355  0.7144 -1.3902
  399MOL0     H53834  -1.357   2.076  -0.261  0.4603 -2.6612 -0.2727
  399MOL0     H53835  -1.524   2.152  -0.495 -2.6575 -0.7828  0.3374
  399MOL0     H53836  -1.522   2.265  -0.354 -0.9983  1.2521  1.6557
  399MOL0     H53837  -1.664   1.991  -0.391 -0.1837 -1.1831  0.8455
  399MOL0     H53838  -1.578   2.019  -0.245 -0.0957 -2.2298 -1.2302
  399MOL0     H53839  -1.784   2.204  -0.372 -2.9704  0.9513  0.2925
  399MOL0     H53840  -1.709   2.224  -0.208 -0.2739 -0.5490 -0.8266
  399MOL0     H53841  -1.890   2.006  -0.303 -2.7632  2.6337  0.2565
  399MOL0     H53842  -1.813   2.015  -0.135  0.6271 -2.1814 -1.1390
  399MOL0     H53843  -2.027   2.194  -0.263  0.6942  2.0914  0.6473
  399MOL0     H53844  -1.945   2.235  -0.109 -1.4130  0.1311  1.0727
  399MOL0     H53845  -2.020   2.001  -0.043  1.0811 -0.7522 -1.3609
  399MOL0     H53846  -2.146   2.021  -0.160  1.1730 -0.4545 -1.0038
  399MOL0     H53847  -1.098   2.373  -0.502  0.3801  2.0318  1.3919
  399MOL0     H53848  -0.884   2.499  -0.505  2.8135  0.7504  1.5931
  399MOL0     H53849  -0.459   2.428  -0.284  0.3465 -0.0544  1.5385
  399MOL0     H53850  -0.258   2.529  -0.246  1.3782 -1.0709 -0.4238
  399MOL0     H53851   1.455   2.679   0.217  1.5231  2.7668  0.6490
  399MOL0     H53852   1.663   2.589   0.324 -0.2663 -7.0101  1.3299
  399MOL0     H53853   2.169   2.668   0.410  2.2020  0.5022  0.7730
  399MOL0     H53854   2.397   2.575   0.415 -0.1292  0.7968 -0.1613
  399MOL0     H53855   2.497   2.214   0.189 -1.1074  0.8232  0.6935
  399MOL0     H53856   2.648   2.250   0.268  0.3493  0.9095 -0.8650
  399MOL0     H53857   2.426   2.062   0.366  0.5776  0.7440  1.2115
  399MOL0     H53858   2.557   2.124   0.471 -1.5985 -0.7120  1.3003
  399MOL0     H53859   2.730   2.012   0.376 -0.9682 -2.0974  1.3852
  399MOL0     H53860   2.656   1.980   0.223 -1.8126 -0.0405 -1.4329
  399MOL0     H53861   2.540   1.788   0.314 -2.5807  1.7871 -0.4773
  399MOL0     H53862   2.524   1.843   0.473  2.2607 -1.9360  2.0978
  399MOL0     H53863   2.918   1.678   0.456  1.3750  2.0505  0.3842
  399MOL0     H53864   2.255   2.198   0.266  2.2541 -0.1325 -1.1701
  399MOL0     H53865   2.043   2.299   0.197 -0.5032 -0.4961  0.5363
  400MOL0     O53866   8.987   3.287   3.486 -0.8332 -0.2957 -0.0562
  400MOL0     C53867   8.993   3.247   3.600  0.0770 -0.2519 -0.0779
  400MOL0     O53868   8.892   3.190   3.667  0.5135 -0.0191  0.5281
  400MOL0     C53869   8.776   3.168   3.609 -0.0609  0.1082  0.1132
  400MOL0     C53870   8.691   3.075   3.671 -0.1255  0.3524 -0.0285
  400MOL0     C53871   8.567   3.038   3.611  0.0446 -0.2074 -0.2392
  400MOL0     C53872   8.502   3.111   3.508  0.8524  0.5358 -0.1658
  400MOL0     O53873   8.378   3.082   3.452  0.2641 -0.2263  0.3279
  400MOL0     C53874   8.287   3.005   3.531  0.5489  0.5197 -0.2909
  400MOL0     C53875   8.146   3.027   3.480 -0.3798 -0.0555  0.8113
  400MOL0     C53876   8.045   2.977   3.585 -0.2024  0.4464 -0.0391
  400MOL0     C53877   7.905   2.976   3.531  1.0147  1.0044 -0.7770
  400MOL0     C53878   7.839   3.108   3.535  0.2599 -0.1704  0.0132
  400MOL0     C53879   7.696   3.088   3.482  1.0862 -0.3522  0.3529
  400MOL0     C53880   7.592   3.187   3.535  0.0967  0.1123  0.0702
  400MOL0     C53881   7.570   3.184   3.692 -0.6905 -0.2032 -0.1529
  400MOL0     N53882   7.451   3.262   3.738 -0.8424 -0.0813 -0.0639
  400MOL0     C53883   7.362   3.222   3.832 -0.6945  0.7485 -0.3917
  400MOL0     C53884   7.267   3.321   3.835 -0.3780  0.3105  0.1114
  400MOL0     C53885   7.153   3.329   3.932 -0.1155 -0.9248  0.9853
  400MOL0     C53886   7.044   3.217   3.921 -1.0004 -0.4200  0.7274
  400MOL0     C53887   7.013   3.175   3.771  0.1385  0.9435  0.2421
  400MOL0     C53888   6.965   3.283   3.680  0.4035  0.9488  0.0746
  400MOL0     O53889   6.851   3.354   3.730  0.3192  0.5827 -0.0206
  400MOL0     C53890   6.735   3.288   3.724  0.0521  0.4268 -0.3178
  400MOL0     C53891   6.695   3.226   3.837 -0.1552 -0.3468 -0.4379
  400MOL0     C53892   6.566   3.170   3.843 -0.7217  1.0456  0.0365
  400MOL0     C53893   6.541   3.106   3.981  0.4560 -0.6299  0.1571
  400MOL0     C53894   6.475   3.196   3.735  0.7575  0.3173  0.1047
  400MOL0     C53895   6.328   3.162   3.749  0.6735 -0.1163  0.2316
  400MOL0     O53896   6.283   3.129   3.874  0.1104  0.9662  0.5179
  400MOL0     C53897   6.144   3.103   3.880  0.5177 -0.1254 -0.2200
  400MOL0     C53898   6.067   3.223   3.892 -0.1956 -0.4024  0.3351
  400MOL0     C53899   5.931   3.204   3.895  0.4128  0.1410  0.7076
  400MOL0     C53900   5.868   3.077   3.888  1.1436  0.4363  0.1242
  400MOL0     O53901   5.732   3.057   3.895  0.4436  0.6307  0.1403
  400MOL0     C53902   5.636   3.157   3.928  0.4722 -0.0945 -0.1799
  400MOL0     C53903   5.504   3.098   3.955  0.1586  0.4511 -0.1642
  400MOL0     C53904   5.512   2.989   4.062  0.1180 -0.9497 -0.3573
  400MOL0     C53905   5.370   2.937   4.101 -0.0670  0.3057 -0.4921
  400MOL0     C53906   5.370   2.897   4.249  0.2566  0.6394  0.3640
  400MOL0     C53907   5.235   2.838   4.311  0.8281  0.3164  0.4640
  400MOL0     C53908   5.215   2.698   4.246 -0.2076  0.2562  0.3244
  400MOL0     C53909   5.101   2.618   4.322 -0.7126  0.3356 -0.2913
  400MOL0    Cl53910   5.133   2.581   4.500 -0.0931 -0.1495  0.6538
  400MOL0     C53911   5.943   2.968   3.885 -0.3299 -0.2687  0.1092
  400MOL0     C53912   6.082   2.981   3.874  0.7038  0.1322  0.3018
  400MOL0     O53913   6.258   3.161   3.650 -0.1887  0.6139  0.6685
  400MOL0     C53914   6.526   3.248   3.613 -0.1622 -0.2000  0.3600
  400MOL0     C53915   6.659   3.298   3.609 -0.6930  0.8057  0.1672
  400MOL0     N53916   7.302   3.421   3.748  0.0097  0.0376 -0.3566
  400MOL0     N53917   7.405   3.375   3.675  0.6411 -0.5566 -0.5546
  400MOL0     C53918   8.578   3.222   3.463  0.5880  0.3500 -0.4894
  400MOL0     C53919   8.708   3.234   3.503  0.2895  0.0205  1.2675
  400MOL0     C53920   9.120   3.268   3.679 -0.6377 -0.3371  0.2391
  400MOL0     C53921   9.235   3.313   3.611  0.1749  0.0964 -0.0549
  400MOL0     C53922   9.343   3.341   3.691  0.2012 -0.6184 -0.5388
  400MOL0     C53923   9.342   3.341   3.829  0.0341  0.0278  0.5054
  400MOL0     O53924   9.449   3.408   3.888 -0.4792  0.1311  0.5555
  400MOL0     C53925   9.420   3.502   3.993 -0.8425 -0.5974 -0.4177
  400MOL0     C53926   9.517   3.619   3.989 -0.8956  0.1838  0.5604
  400MOL0     C53927   9.665   3.591   4.022 -0.7911 -0.3848  0.1908
  400MOL0     C53928   9.759   3.707   3.996 -0.7837 -0.1254  0.2313
  400MOL0     C53929   9.756   3.750   3.851  0.1150  0.1971 -0.4854
  400MOL0     C53930   9.772   3.779   3.727  1.0913  0.2158 -0.7880
  400MOL0     C53931   9.229   3.288   3.894 -1.2867 -0.3958  0.0562
  400MOL0     C53932   9.116   3.253   3.821  0.2864 -0.2152 -1.9249
  400MOL0     H53933   8.731   3.028   3.760 -1.7028  0.4260  0.7467
  400MOL0     H53934   8.522   2.946   3.646  0.2547 -0.1790  0.1095
  400MOL0     H53935   8.316   2.900   3.541  3.0203  0.7028 -3.6332
  400MOL0     H53936   8.274   3.041   3.633  0.1549 -0.8870  0.1712
  400MOL0     H53937   8.139   3.130   3.445  2.2810  0.9099  2.8082
  400MOL0     H53938   8.130   2.958   3.397  0.4962 -1.2819  1.6247
  400MOL0     H53939   8.074   2.875   3.611 -1.4272  0.2589  0.6042
  400MOL0     H53940   8.046   3.035   3.678 -2.4076  1.3640 -0.5274
  400MOL0     H53941   7.885   2.912   3.444  0.3110 -0.4635  0.4092
  400MOL0     H53942   7.853   2.917   3.607 -1.0824  1.2364 -1.9607
  400MOL0     H53943   7.842   3.157   3.632 -1.1780  1.2450 -0.6121
  400MOL0     H53944   7.886   3.180   3.466 -0.9268 -0.5759 -1.2619
  400MOL0     H53945   7.706   3.102   3.374  1.2570 -2.0740  0.1224
  400MOL0     H53946   7.654   2.990   3.506 -0.5138  0.7509  2.3852
  400MOL0     H53947   7.611   3.279   3.479 -1.4011 -0.7987 -2.1003
  400MOL0     H53948   7.496   3.171   3.484  1.1287  0.4447 -2.1147
  400MOL0     H53949   7.657   3.236   3.733 -1.9097  1.1891  0.7386
  400MOL0     H53950   7.568   3.083   3.735  1.3932 -1.0408 -1.8133
  400MOL0     H53951   7.377   3.137   3.898 -1.4988 -0.0765 -1.2379
  400MOL0     H53952   7.179   3.343   4.037  0.2177  0.0938  0.7795
  400MOL0     H53953   7.101   3.418   3.895  1.3107 -2.3949 -5.9366
  400MOL0     H53954   6.951   3.235   3.976 -2.1676 -1.8378 -0.6848
  400MOL0     H53955   7.083   3.131   3.975 -1.5261 -1.3202 -0.2923
  400MOL0     H53956   6.931   3.103   3.778  0.2089  0.8040 -0.3145
  400MOL0     H53957   7.101   3.121   3.735  0.8324 -0.2074  3.3038
  400MOL0     H53958   6.938   3.223   3.592 -0.9599  0.8149  0.5602
  400MOL0     H53959   7.045   3.353   3.654  0.8639  0.1925 -0.6194
  400MOL0     H53960   6.764   3.237   3.920 -1.9962  0.7103  1.0085
  400MOL0     H53961   6.495   3.007   3.983 -1.5275  0.2293  0.0354
  400MOL0     H53962   6.638   3.094   4.030  0.4541  1.5188  0.7832
  400MOL0     H53963   6.470   3.173   4.031 -1.1773 -1.0077 -1.5446
  400MOL0     H53964   6.119   3.315   3.912  1.8620 -0.9967 -1.8247
  400MOL0     H53965   5.860   3.283   3.916 -2.4070 -1.4028 -2.0432
  400MOL0     H53966   5.680   3.206   4.016 -2.5992 -1.3409  2.2522
  400MOL0     H53967   5.629   3.229   3.847 -1.3507  2.2892  1.9405
  400MOL0     H53968   5.443   3.188   3.970 -0.4059  0.4205 -2.0130
  400MOL0     H53969   5.465   3.048   3.867 -0.9430  1.3795 -0.2218
  400MOL0     H53970   5.557   3.046   4.143 -0.0129  1.6792 -2.0405
  400MOL0     H53971   5.573   2.904   4.030 -1.9424 -3.5678  2.0837
  400MOL0     H53972   5.303   3.023   4.090 -0.0399  0.2633 -1.0216
  400MOL0     H53973   5.331   2.860   4.035  0.9067 -1.5625  1.0069
  400MOL0     H53974   5.391   2.983   4.313 -1.8483  0.9077  0.7518
  400MOL0     H53975   5.444   2.816   4.257 -0.5803 -0.3496 -1.2935
  400MOL0     H53976   5.243   2.828   4.420 -2.3112  2.6870  1.0220
  400MOL0     H53977   5.142   2.889   4.288  0.3427 -1.8424 -3.2206
  400MOL0     H53978   5.308   2.642   4.242  0.3236  1.0762  0.9114
  400MOL0     H53979   5.176   2.715   4.145  0.4141  3.0339  0.4767
  400MOL0     H53980   5.080   2.526   4.267  2.4103  0.8221 -2.5858
  400MOL0     H53981   5.008   2.675   4.324 -1.9450 -1.5866  0.8047
  400MOL0     H53982   5.895   2.871   3.893  0.3303 -0.7439 -1.3498
  400MOL0     H53983   6.139   2.888   3.877  1.4813  0.6209  1.1940
  400MOL0     H53984   6.452   3.256   3.535 -0.0566 -0.8765  0.1815
  400MOL0     H53985   6.697   3.346   3.519  2.2347  1.5593  1.6682
  400MOL0     H53986   8.538   3.286   3.384  3.8706  0.9675 -1.8024
  400MOL0     H53987   8.773   3.311   3.461  2.3871 -2.0304  0.5309
  400MOL0     H53988   9.231   3.324   3.503 -1.2306 -1.0014 -0.1434
  400MOL0     H53989   9.428   3.394   3.649 -1.2310  3.4959  1.1618
  400MOL0     H53990   9.320   3.545   3.987 -1.0110 -1.1807 -2.7845
  400MOL0     H53991   9.441   3.448   4.086  1.1886  1.4181  0.3872
  400MOL0     H53992   9.481   3.701   4.051  0.6567  2.1735 -1.0371
  400MOL0     H53993   9.507   3.652   3.885  2.3633  1.6122  0.5783
  400MOL0     H53994   9.707   3.496   3.989 -2.2378 -0.3169 -2.0033
  400MOL0     H53995   9.671   3.569   4.129  2.8560 -2.1090 -0.2141
  400MOL0     H53996   9.860   3.672   4.020 -0.0127  0.2534 -2.1829
  400MOL0     H53997   9.743   3.788   4.067  1.3249  3.5969 -3.0926
  400MOL0     H53998   9.802   3.816   3.631  0.1556  2.7572 -0.1957
  400MOL0     H53999   9.224   3.289   4.002 -0.7626 -1.5687  0.1027
  400MOL0     H54000   9.025   3.231   3.877  1.3901  0.0768  0.1060
  401MOL0     O54001   2.732   4.984  10.545  0.3278  0.2247  0.3263
  401MOL0     C54002   2.772   5.033  10.651  0.7964 -0.5576  0.3239
  401MOL0     O54003   2.704   5.029  10.770 -0.3053 -0.0956 -0.4358
  401MOL0     C54004   2.568   4.999  10.766 -0.7237  0.3502  0.2225
  401MOL0     C54005   2.523   4.875  10.716 -0.1370 -0.7111 -0.0078
  401MOL0     C54006   2.384   4.852  10.717 -0.1254 -0.5003 -0.0408
  401MOL0     C54007   2.285   4.949  10.750 -0.1566  0.4500  0.1715
  401MOL0     O54008   2.154   4.923  10.747 -0.6937 -0.0522  0.4011
  401MOL0     C54009   2.070   4.933  10.862  0.0784  0.1035 -0.4245
  401MOL0     C54010   1.928   4.895  10.825  0.8380 -0.2293  1.0277
  401MOL0     C54011   1.857   4.992  10.725  0.9484 -0.0969 -0.1243
  401MOL0     C54012   1.712   4.954  10.697 -0.6833  0.6650 -0.1528
  401MOL0     C54013   1.629   5.072  10.761 -0.2505  1.0409 -1.3775
  401MOL0     C54014   1.478   5.037  10.763  0.1266  0.7584  0.5943
  401MOL0     C54015   1.430   5.030  10.615  0.6951 -0.2320 -0.9095
  401MOL0     C54016   1.287   4.979  10.615  0.2092  0.1334 -0.7748
  401MOL0     N54017   1.284   4.836  10.622  0.6327 -0.0242  0.2656
  401MOL0     C54018   1.360   4.757  10.528 -0.6266 -0.4004 -0.9741
  401MOL0     C54019   1.315   4.637  10.556  0.0759  0.0015  0.1418
  401MOL0     C54020   1.349   4.513  10.493 -0.6567  0.0978  0.5734
  401MOL0     C54021   1.254   4.470  10.375 -0.2683 -0.0811  0.2394
  401MOL0     C54022   1.111   4.468  10.422  0.8131 -0.2682 -0.8364
  401MOL0     C54023   1.005   4.426  10.320 -0.0351 -0.2859 -0.4388
  401MOL0     O54024   0.868   4.453  10.352  0.1966  0.7571 -0.2880
  401MOL0     C54025   0.775   4.463  10.257 -0.2801  0.5502 -0.1671
  401MOL0     C54026   0.789   4.431  10.122 -0.8440 -0.0927 -0.0229
  401MOL0     C54027   0.683   4.449  10.030 -0.4209  0.1036  0.6914
  401MOL0     C54028   0.715   4.415   9.887  0.5359 -0.0542 -0.3919
  401MOL0     C54029   0.562   4.493  10.077 -0.4342 -0.1214 -0.2605
  401MOL0     C54030   0.454   4.524   9.990 -0.3898  0.2721 -0.1048
  401MOL0     O54031   0.483   4.596   9.875 -0.1287  0.0412 -0.1573
  401MOL0     C54032   0.381   4.634   9.789  0.0645 -0.1441 -0.3527
  401MOL0     C54033   0.323   4.555   9.691 -0.3884 -0.2195  0.2595
  401MOL0     C54034   0.206   4.595   9.627 -0.2536 -0.1141 -0.8846
  401MOL0     C54035   0.146   4.717   9.660 -0.3914 -0.2552  0.3723
  401MOL0     O54036   0.023   4.742   9.616 -0.1644 -0.2564 -0.0395
  401MOL0     C54037  -0.034   4.870   9.648 -0.4164  0.2710  0.1893
  401MOL0     C54038  -0.138   4.900   9.537 -0.3624  0.0007  0.4899
  401MOL0     C54039  -0.077   4.876   9.398  0.0442 -0.0964  0.1797
  401MOL0     C54040  -0.138   4.953   9.288 -0.0712 -0.1907 -0.0963
  401MOL0     C54041  -0.088   4.899   9.146 -0.4467  0.1136 -1.4027
  401MOL0     C54042  -0.127   4.983   9.042 -0.0670  0.1394 -0.7875
  401MOL0     C54043  -0.071   4.922   8.911  1.0765  0.1463 -0.1118
  401MOL0     C54044  -0.141   4.989   8.791 -0.5938  0.0735 -0.4612
  401MOL0    Cl54045  -0.305   4.936   8.772  0.2670 -0.1914  0.4460
  401MOL0     C54046   0.204   4.778   9.768 -0.7780 -0.4908  0.1362
  401MOL0     C54047   0.315   4.748   9.832 -0.0823 -0.0760 -0.3377
  401MOL0     O54048   0.344   4.480  10.022  0.5388 -0.6543 -0.3863
  401MOL0     C54049   0.547   4.520  10.214  0.7580  0.0053  0.0755
  401MOL0     C54050   0.653   4.508  10.300  1.2035 -0.1441  0.5656
  401MOL0     N54051   1.212   4.639  10.653  0.8290  0.6998  0.3650
  401MOL0     N54052   1.196   4.766  10.694  0.3443  0.1249  0.0481
  401MOL0     C54053   2.339   5.065  10.801  0.0016 -0.6413  0.4580
  401MOL0     C54054   2.478   5.092  10.812  0.8175 -0.1149 -0.0679
  401MOL0     C54055   2.904   5.089  10.663  0.6656 -0.0850  0.3317
  401MOL0     C54056   2.972   5.109  10.784 -0.0727  0.6497  0.5755
  401MOL0     C54057   3.101   5.145  10.791 -1.0918 -0.2323 -0.3588
  401MOL0     C54058   3.167   5.175  10.675  0.3326  0.8359  0.8368
  401MOL0     O54059   3.289   5.237  10.661  0.0101  0.3905  0.0980
  401MOL0     C54060   3.387   5.257  10.773 -0.1672 -0.2546 -0.8217
  401MOL0     C54061   3.481   5.364  10.722  0.3535  0.0779 -0.2013
  401MOL0     C54062   3.557   5.430  10.844  0.5300 -0.4076  0.8434
  401MOL0     C54063   3.683   5.511  10.801 -0.2455  1.1517 -0.6398
  401MOL0     C54064   3.767   5.413  10.723 -0.5948 -0.2194 -0.4384
  401MOL0     C54065   3.828   5.323  10.666  0.5752 -0.0863  0.1198
  401MOL0     C54066   3.099   5.162  10.549  0.0150 -0.4991 -0.0460
  401MOL0     C54067   2.971   5.117  10.542 -0.8320 -0.0655 -0.2863
  401MOL0     H54068   2.590   4.802  10.671  1.0460  1.8144 -2.6332
  401MOL0     H54069   2.346   4.754  10.690  0.4329 -0.1915 -2.1268
  401MOL0     H54070   2.104   4.860  10.936 -1.9807 -0.5612 -0.0552
  401MOL0     H54071   2.070   5.037  10.894 -2.4864  0.8048 -2.3558
  401MOL0     H54072   1.922   4.793  10.786 -2.5489  0.5526 -0.9616
  401MOL0     H54073   1.870   4.899  10.917 -0.6026  1.3457  0.1162
  401MOL0     H54074   1.868   5.097  10.754 -1.2399  0.2395 -0.3359
  401MOL0     H54075   1.914   4.987  10.632  0.3464 -0.0252 -0.5019
  401MOL0     H54076   1.699   4.947  10.589  0.7002  1.3768 -0.3932
  401MOL0     H54077   1.689   4.853  10.734 -1.1026 -0.5230 -3.3541
  401MOL0     H54078   1.649   5.080  10.868 -4.3548 -0.3362 -0.3441
  401MOL0     H54079   1.654   5.170  10.719 -3.4210  1.1619 -3.2904
  401MOL0     H54080   1.456   4.945  10.819  0.6563 -3.4318 -5.1244
  401MOL0     H54081   1.420   5.123  10.798  0.1532  2.1666 -2.5118
  401MOL0     H54082   1.426   5.131  10.574  0.2559 -0.1264 -0.6204
  401MOL0     H54083   1.501   4.970  10.558 -1.4120 -2.4921 -1.3165
  401MOL0     H54084   1.246   4.991  10.514  2.7488 -0.7641 -2.0134
  401MOL0     H54085   1.220   5.024  10.689  1.6038  3.2282 -1.2182
  401MOL0     H54086   1.441   4.773  10.457  0.2375 -0.1541  0.0540
  401MOL0     H54087   1.454   4.513  10.463 -0.6288 -0.0314  0.6696
  401MOL0     H54088   1.334   4.443  10.576 -3.0524 -1.2481 -0.8666
  401MOL0     H54089   1.272   4.365  10.350 -1.8027 -0.5963  1.1200
  401MOL0     H54090   1.270   4.528  10.284  0.1468  1.2289  1.1264
  401MOL0     H54091   1.093   4.568  10.461 -1.3263 -1.1740  0.7029
  401MOL0     H54092   1.100   4.412  10.516  0.6730  3.0550  1.2856
  401MOL0     H54093   1.013   4.317  10.324 -0.4617 -0.3111 -0.2502
  401MOL0     H54094   1.037   4.467  10.224 -0.4564 -1.1272 -0.9518
  401MOL0     H54095   0.884   4.389  10.091 -1.6328 -0.2430 -2.4573
  401MOL0     H54096   0.699   4.308   9.874  0.6935 -0.2021  0.5584
  401MOL0     H54097   0.663   4.458   9.800 -1.1888  0.1949  0.7177
  401MOL0     H54098   0.821   4.441   9.879  1.3354 -2.9736 -0.2314
  401MOL0     H54099   0.364   4.455   9.681  1.0449  0.1852  1.7516
  401MOL0     H54100   0.151   4.519   9.572 -0.2488 -1.8053  1.3042
  401MOL0     H54101  -0.077   4.876   9.748 -0.3781  1.9667  0.1307
  401MOL0     H54102   0.043   4.947   9.640  1.0672 -0.8256  2.5868
  401MOL0     H54103  -0.237   4.857   9.556 -0.7363  0.7675  0.2877
  401MOL0     H54104  -0.151   5.008   9.542 -1.8813  0.0183 -2.3684
  401MOL0     H54105  -0.082   4.769   9.375 -2.3814  0.4695 -2.4527
  401MOL0     H54106   0.028   4.904   9.401 -0.0745  0.6341 -1.4814
  401MOL0     H54107  -0.244   4.929   9.296  0.0194 -0.3524  0.6601
  401MOL0     H54108  -0.128   5.059   9.310 -2.8420  0.4584 -1.5712
  401MOL0     H54109  -0.124   4.798   9.129  0.1658 -0.1014 -1.4601
  401MOL0     H54110   0.020   4.881   9.148 -0.7658 -1.9477 -1.0844
  401MOL0     H54111  -0.234   5.002   9.032 -0.3475 -0.6585  0.4458
  401MOL0     H54112  -0.076   5.078   9.060  2.2735 -0.9210 -1.4012
  401MOL0     H54113  -0.099   4.816   8.907 -0.7787  0.6102 -0.1162
  401MOL0     H54114   0.038   4.929   8.902  0.9675  2.7307 -0.1393
  401MOL0     H54115  -0.085   4.967   8.700  0.5688  0.8885  0.0280
  401MOL0     H54116  -0.119   5.096   8.803  3.2323 -0.4684 -1.0819
  401MOL0     H54117   0.148   4.863   9.806  3.2261  2.5870 -0.1795
  401MOL0     H54118   0.341   4.805   9.921 -0.1011  1.1657 -1.1208
  401MOL0     H54119   0.450   4.544  10.255  0.7035  0.5419 -0.3650
  401MOL0     H54120   0.646   4.541  10.403  1.2509 -0.7613  0.7675
  401MOL0     H54121   2.269   5.137  10.841  0.4290  1.3881 -2.1603
  401MOL0     H54122   2.501   5.185  10.862 -2.9712 -0.2709  2.3213
  401MOL0     H54123   2.933   5.081  10.881  2.0553  1.9227  1.8960
  401MOL0     H54124   3.145   5.157  10.890 -3.4812 -1.3813  0.9349
  401MOL0     H54125   3.338   5.280  10.867  4.0414 -2.3079  2.1934
  401MOL0     H54126   3.443   5.163  10.776 -2.5309 -1.8294 -2.3186
  401MOL0     H54127   3.416   5.433  10.667 -0.3211  1.2587  1.9464
  401MOL0     H54128   3.552   5.323  10.649 -0.0463 -0.0089 -0.5456
  401MOL0     H54129   3.597   5.356  10.913  0.7209 -0.8407  0.2768
  401MOL0     H54130   3.490   5.496  10.900  1.1286  0.6985  0.3054
  401MOL0     H54131   3.729   5.556  10.890 -2.7153 -2.3052  2.7080
  401MOL0     H54132   3.646   5.597  10.745 -0.8968  0.9109 -0.5841
  401MOL0     H54133   3.885   5.243  10.623  1.4406  1.3112 -1.4730
  401MOL0     H54134   3.148   5.183  10.455  0.4348 -3.5421 -0.5962
  401MOL0     H54135   2.935   5.102  10.441 -1.4166 -2.9285  0.2682
  402MOL0     O54136   4.038   4.049   7.642 -0.6936 -0.6731  0.3683
  402MOL0     C54137   4.022   3.984   7.539 -0.4332  0.2710  0.3067
  402MOL0     O54138   3.910   3.984   7.457  0.6012 -0.1439 -0.0422
  402MOL0     C54139   3.789   4.036   7.505 -0.4684  1.0063 -0.8238
  402MOL0     C54140   3.753   4.165   7.482  0.3059 -0.0114 -0.5723
  402MOL0     C54141   3.641   4.219   7.535  1.3068 -0.1702  0.0730
  402MOL0     C54142   3.565   4.146   7.627 -1.0116 -0.3107 -0.1186
  402MOL0     O54143   3.452   4.209   7.662  0.3598  1.4222  0.2638
  402MOL0     C54144   3.363   4.131   7.737  0.2512 -0.4642  0.2837
  402MOL0     C54145   3.282   4.036   7.648  0.0681 -0.3156 -0.5975
  402MOL0     C54146   3.182   3.965   7.736 -0.9497 -0.1304 -0.6491
  402MOL0     C54147   3.124   3.857   7.655  0.1264 -0.7844  0.2562
  402MOL0     C54148   2.981   3.826   7.708 -0.0341 -0.2995 -0.3941
  402MOL0     C54149   2.972   3.793   7.853  0.2189 -0.3844  0.1254
  402MOL0     C54150   2.847   3.848   7.919 -0.1195  0.3286  0.4355
  402MOL0     C54151   2.831   3.774   8.053  0.6057 -0.0262 -0.1869
  402MOL0     N54152   2.705   3.806   8.122  0.6096  0.4990 -0.1376
  402MOL0     C54153   2.689   3.872   8.235 -0.7243 -0.0307 -0.5008
  402MOL0     C54154   2.558   3.868   8.267 -1.3192  0.3256 -0.5670
  402MOL0     C54155   2.491   3.951   8.378  0.0691  0.5535  0.2016
  402MOL0     C54156   2.539   4.091   8.402  0.1069 -0.2001 -0.4218
  402MOL0     C54157   2.510   4.135   8.546 -0.4474 -0.6355 -1.0330
  402MOL0     C54158   2.358   4.148   8.556  0.5534 -0.5155 -0.0613
  402MOL0     O54159   2.324   4.264   8.636 -0.5276 -0.3965 -0.4004
  402MOL0     C54160   2.191   4.292   8.639  0.8851 -0.6408 -0.5384
  402MOL0     C54161   2.157   4.433   8.659 -0.8680  0.9328  0.8057
  402MOL0     C54162   2.026   4.477   8.654 -0.1258 -0.6056  0.3717
  402MOL0     C54163   2.009   4.628   8.696  0.4644 -0.0104 -0.0589
  402MOL0     C54164   1.921   4.381   8.632 -0.0522  0.4231 -0.6855
  402MOL0     C54165   1.780   4.417   8.615  0.2278  0.4369 -1.0214
  402MOL0     O54166   1.753   4.543   8.575 -0.4405  0.1636 -0.3538
  402MOL0     C54167   1.626   4.582   8.588  0.1349  0.2954 -0.4764
  402MOL0     C54168   1.568   4.655   8.485 -0.0163  0.3708  0.4390
  402MOL0     C54169   1.443   4.706   8.502  0.5560  0.1971 -0.2600
  402MOL0     C54170   1.362   4.675   8.623  0.0556  0.0615  0.0638
  402MOL0     O54171   1.244   4.724   8.653 -0.2174  0.2446  0.2318
  402MOL0     C54172   1.170   4.804   8.557  0.7640  0.1162  0.1974
  402MOL0     C54173   1.209   4.950   8.561 -0.1402 -0.2862 -0.3465
  402MOL0     C54174   1.115   5.040   8.480 -0.2191 -0.7022 -0.6482
  402MOL0     C54175   1.121   5.186   8.524 -0.4143  0.0169 -0.0569
  402MOL0     C54176   1.004   5.262   8.461  1.4393 -0.3730 -0.1500
  402MOL0     C54177   0.989   5.413   8.500 -0.0184 -0.2968 -0.0889
  402MOL0     C54178   0.993   5.425   8.656  0.4205  0.2460  0.5025
  402MOL0     C54179   0.963   5.574   8.680  1.0505 -0.2752  0.5317
  402MOL0    Cl54180   1.006   5.610   8.858  0.3117 -0.3000 -0.1392
  402MOL0     C54181   1.428   4.605   8.725  0.7171 -0.4171  0.3066
  402MOL0     C54182   1.558   4.567   8.710 -0.3939 -0.7395  0.3700
  402MOL0     O54183   1.695   4.323   8.621  0.3759 -0.0901 -0.1196
  402MOL0     C54184   1.953   4.249   8.628  0.5739  0.1191 -0.3814
  402MOL0     C54185   2.081   4.210   8.623 -0.4680  0.0536 -0.0359
  402MOL0     N54186   2.503   3.773   8.191  0.3815  0.1756  0.2329
  402MOL0     N54187   2.597   3.736   8.101  0.2799  1.1334  0.8104
  402MOL0     C54188   3.613   4.024   7.677 -0.4536  0.4963 -0.2149
  402MOL0     C54189   3.719   3.959   7.596  0.5625  0.6880  0.1001
  402MOL0     C54190   4.140   3.907   7.503 -0.3232 -0.1601 -0.6146
  402MOL0     C54191   4.258   3.906   7.582 -0.2565 -0.2783  0.2425
  402MOL0     C54192   4.365   3.824   7.536  0.2573 -0.0095  0.1976
  402MOL0     C54193   4.364   3.762   7.417 -0.1338 -0.7653  0.1610
  402MOL0     O54194   4.484   3.699   7.386  0.0482 -0.4798 -0.7583
  402MOL0     C54195   4.505   3.636   7.262  0.4335  0.7339 -0.1069
  402MOL0     C54196   4.657   3.617   7.245  0.3775 -0.5868  0.3873
  402MOL0     C54197   4.715   3.516   7.345 -1.1372 -0.8634 -0.2406
  402MOL0     C54198   4.856   3.462   7.298  0.0295 -0.0498 -0.8929
  402MOL0     C54199   4.914   3.374   7.397 -0.2762 -0.3951 -0.5722
  402MOL0     C54200   4.928   3.297   7.485  0.2352 -0.3725  0.6136
  402MOL0     C54201   4.254   3.770   7.336  0.1514  0.4297 -0.4532
  402MOL0     C54202   4.139   3.846   7.370 -0.4576 -0.5300  0.3559
  402MOL0     H54203   3.802   4.232   7.412 -2.0169  0.5095 -1.8170
  402MOL0     H54204   3.613   4.321   7.512  2.7637  0.4304  0.8707
  402MOL0     H54205   3.408   4.081   7.823 -0.5427  0.3587  1.2065
  402MOL0     H54206   3.284   4.188   7.787  0.0709 -0.8705  0.4579
  402MOL0     H54207   3.217   4.099   7.587 -1.9007  0.9670  2.5475
  402MOL0     H54208   3.348   3.961   7.604  0.9666 -0.9606  1.6711
  402MOL0     H54209   3.235   3.916   7.818 -2.9314 -0.3037  0.5781
  402MOL0     H54210   3.114   4.043   7.772  0.6019  0.3942  1.3016
  402MOL0     H54211   3.100   3.905   7.560 -0.8307  0.9465  1.3090
  402MOL0     H54212   3.183   3.766   7.657 -3.3098 -3.2035  1.5639
  402MOL0     H54213   2.921   3.917   7.698  0.7139  0.4112  1.2498
  402MOL0     H54214   2.935   3.754   7.640  0.6031  0.1325 -1.3008
  402MOL0     H54215   2.991   3.685   7.861 -0.0918 -0.4779 -0.3570
  402MOL0     H54216   3.052   3.842   7.910 -0.6301  1.1272  0.0664
  402MOL0     H54217   2.836   3.957   7.923  0.1241  0.3247  1.6125
  402MOL0     H54218   2.759   3.822   7.860  0.2210  1.1783 -0.4609
  402MOL0     H54219   2.912   3.778   8.126 -1.6063 -1.3138  2.5708
  402MOL0     H54220   2.807   3.672   8.020 -0.9873 -0.0921  1.0412
  402MOL0     H54221   2.769   3.917   8.292  0.9421 -1.1342 -1.8692
  402MOL0     H54222   2.384   3.941   8.359  0.5603 -1.7361 -1.8593
  402MOL0     H54223   2.518   3.895   8.468 -1.2878 -1.4946 -0.6036
  402MOL0     H54224   2.506   4.159   8.323 -1.1031 -0.2458  0.0157
  402MOL0     H54225   2.646   4.073   8.393  0.0003 -0.6026 -0.9247
  402MOL0     H54226   2.550   4.237   8.550 -0.6922 -0.5772  0.6331
  402MOL0     H54227   2.554   4.070   8.622  0.8940 -0.2309 -1.4440
  402MOL0     H54228   2.313   4.055   8.593  0.6346 -0.4752  0.1366
  402MOL0     H54229   2.314   4.154   8.456  1.0314 -0.9499 -0.3063
  402MOL0     H54230   2.246   4.492   8.674  0.3322 -0.8138  0.8214
  402MOL0     H54231   1.984   4.701   8.618  1.3998  0.7012  0.2722
  402MOL0     H54232   1.941   4.630   8.782 -2.1499  1.1421 -2.0083
  402MOL0     H54233   2.104   4.670   8.733  1.7937  0.2563 -3.4004
  402MOL0     H54234   1.615   4.677   8.390 -2.8602 -0.7789 -1.3998
  402MOL0     H54235   1.399   4.765   8.422 -1.4311 -1.7408 -0.7239
  402MOL0     H54236   1.179   4.765   8.455 -2.1136  1.4988 -0.7131
  402MOL0     H54237   1.063   4.795   8.578  0.7134 -0.6066 -0.3535
  402MOL0     H54238   1.209   4.986   8.664  1.7377  0.0330 -0.4199
  402MOL0     H54239   1.311   4.959   8.521  0.5501 -2.4534  0.7897
  402MOL0     H54240   1.010   5.013   8.496  0.3310 -1.1860  2.9586
  402MOL0     H54241   1.137   5.041   8.373  2.2078  0.5778 -0.2220
  402MOL0     H54242   1.098   5.183   8.630  0.9898 -2.6963  0.2807
  402MOL0     H54243   1.219   5.230   8.502 -0.4897 -0.2944 -1.0738
  402MOL0     H54244   0.911   5.224   8.505  0.5227  1.0453 -0.7844
  402MOL0     H54245   1.001   5.252   8.352 -4.1823  0.4608 -0.3552
  402MOL0     H54246   1.075   5.469   8.464  0.4711 -0.9519  0.0574
  402MOL0     H54247   0.901   5.446   8.443 -0.6809 -1.3284  0.3136
  402MOL0     H54248   1.094   5.393   8.686  1.1910 -0.7119 -2.7438
  402MOL0     H54249   0.919   5.357   8.699  0.2410 -0.7044 -1.2513
  402MOL0     H54250   0.857   5.602   8.668  1.2081  2.4021  3.9438
  402MOL0     H54251   1.026   5.637   8.616 -0.4356  1.2850  0.5187
  402MOL0     H54252   1.371   4.578   8.814 -0.0437  0.8956  0.2387
  402MOL0     H54253   1.597   4.509   8.793 -0.6534 -1.1420  0.2147
  402MOL0     H54254   1.870   4.183   8.604 -0.5452  2.0529 -2.1825
  402MOL0     H54255   2.105   4.104   8.620  1.6560  0.4576  0.6079
  402MOL0     H54256   3.578   3.973   7.766  3.2473  0.9417  1.6779
  402MOL0     H54257   3.754   3.858   7.611  0.9704  0.1578 -3.6218
  402MOL0     H54258   4.279   3.951   7.679  0.4543  0.0530 -0.0586
  402MOL0     H54259   4.453   3.810   7.598 -0.1471  2.8310  1.5492
  402MOL0     H54260   4.450   3.542   7.248 -1.2122  1.8783 -1.6963
  402MOL0     H54261   4.487   3.704   7.179  1.7075 -0.2414 -1.2410
  402MOL0     H54262   4.715   3.709   7.238 -0.1044 -0.3118 -0.0856
  402MOL0     H54263   4.667   3.573   7.145 -0.6980  0.2899 -0.1309
  402MOL0     H54264   4.643   3.434   7.343 -2.5367  0.2974 -3.5059
  402MOL0     H54265   4.720   3.555   7.447 -0.0048  0.7114 -0.8623
  402MOL0     H54266   4.925   3.545   7.279 -1.0574  1.6021  1.7741
  402MOL0     H54267   4.854   3.401   7.208  0.1274 -3.8458  1.4766
  402MOL0     H54268   4.937   3.225   7.564 -0.9641 -0.8239  0.3699
  402MOL0     H54269   4.251   3.719   7.241 -1.3280  0.4371 -0.4362
  402MOL0     H54270   4.052   3.857   7.306 -1.5548 -0.6975  1.7742
  403MOL0     O54271   9.690  10.934   9.953  0.3556  0.1463  0.0656
  403MOL0     C54272   9.653  11.044   9.989 -0.5169 -0.6053  0.4586
  403MOL0     O54273   9.720  11.146  10.057 -0.0335  0.0856 -0.0330
  403MOL0     C54274   9.847  11.111  10.096 -0.5655 -0.0619 -0.5672
  403MOL0     C54275   9.893  11.066  10.220  0.0684 -0.2432 -0.4337
  403MOL0     C54276  10.033  11.054  10.258  0.8565  0.0112 -0.2920
  403MOL0     C54277  10.137  11.068  10.165 -0.7766 -0.3900  0.6047
  403MOL0     O54278  10.265  11.061  10.209 -0.2799 -0.8453 -1.2590
  403MOL0     C54279  10.376  11.031  10.131  0.0414 -0.7009 -0.7025
  403MOL0     C54280  10.495  11.022  10.224 -0.6098  0.0638 -0.3680
  403MOL0     C54281  10.462  10.938  10.350  0.7116  0.3717 -0.4938
  403MOL0     C54282  10.416  10.796  10.307 -0.1400 -1.0022 -1.2062
  403MOL0     C54283  10.362  10.704  10.424 -0.4059  0.4571 -0.2708
  403MOL0     C54284  10.298  10.583  10.372  0.6116  0.6786  0.7931
  403MOL0     C54285  10.245  10.497  10.490 -0.0402  0.5657  0.4622
  403MOL0     C54286  10.107  10.419  10.474  0.7174 -0.0868  0.0263
  403MOL0     N54287   9.991  10.504  10.501  0.2238 -0.1140 -0.1728
  403MOL0     C54288   9.929  10.588  10.415  0.3953  0.3843  0.4665
  403MOL0     C54289   9.870  10.682  10.493  0.5210 -0.7062  0.1505
  403MOL0     C54290   9.796  10.801  10.427  0.0486 -0.2022 -0.0125
  403MOL0     C54291   9.656  10.808  10.498 -0.3598  0.3042  0.5567
  403MOL0     C54292   9.548  10.901  10.447  0.1530 -0.1147  0.3557
  403MOL0     C54293   9.519  10.904  10.292 -0.5262  0.5141 -1.0549
  403MOL0     O54294   9.486  10.788  10.212 -0.3779  0.1560 -0.3108
  403MOL0     C54295   9.364  10.734  10.247 -0.2857 -0.0716 -0.0766
  403MOL0     C54296   9.369  10.596  10.265  0.2331 -0.1607 -0.7624
  403MOL0     C54297   9.264  10.522  10.316  1.1618  0.6472  0.4589
  403MOL0     C54298   9.286  10.378  10.323 -0.7209  0.3090  0.7297
  403MOL0     C54299   9.139  10.590  10.336  0.3784 -0.5164  0.6809
  403MOL0     C54300   9.018  10.517  10.376  0.1158  0.0768  0.1322
  403MOL0     O54301   8.891  10.554  10.330  0.1578 -0.4297  0.3664
  403MOL0     C54302   8.779  10.520  10.407  0.1039  0.0957  0.7221
  403MOL0     C54303   8.692  10.613  10.462 -0.3940 -0.4851  0.1832
  403MOL0     C54304   8.588  10.580  10.549  0.1809  0.0740  1.1732
  403MOL0     C54305   8.557  10.440  10.564 -0.8529 -0.0932 -0.4079
  403MOL0     O54306   8.456  10.389  10.639  0.5688  0.9318 -0.6703
  403MOL0     C54307   8.336  10.464  10.646  0.7348 -0.4475 -0.3372
  403MOL0     C54308   8.235  10.390  10.734 -0.5519  0.0141  0.3926
  403MOL0     C54309   8.089  10.430  10.715 -0.3112  0.0144  0.0962
  403MOL0     C54310   7.998  10.307  10.764 -0.6061  0.2018  0.5066
  403MOL0     C54311   7.854  10.349  10.780 -0.0601  0.2436 -0.1995
  403MOL0     C54312   7.784  10.359  10.647  0.0617  0.4581  0.2771
  403MOL0     C54313   7.639  10.395  10.681 -0.1750  0.7956  0.0032
  403MOL0     C54314   7.558  10.381  10.554 -0.8026 -1.0813  0.7419
  403MOL0    Cl54315   7.398  10.438  10.599 -0.0729  0.3342  0.0501
  403MOL0     C54316   8.644  10.346  10.502 -1.1532  0.6590  0.3861
  403MOL0     C54317   8.751  10.386  10.425  0.7426 -0.0712  0.3889
  403MOL0     O54318   9.047  10.434  10.463  0.7768 -0.4454  0.3770
  403MOL0     C54319   9.130  10.731  10.304 -0.5261  0.5743 -0.4678
  403MOL0     C54320   9.242  10.800  10.258  0.1560 -0.6292 -0.0497
  403MOL0     N54321   9.886  10.646  10.617  0.1787  0.9697  0.3767
  403MOL0     N54322   9.961  10.541  10.622  0.3859  0.3268  0.2535
  403MOL0     C54323  10.087  11.101  10.036 -0.2293 -0.8045  0.1166
  403MOL0     C54324   9.952  11.123  10.006  0.5368  0.7221  0.0357
  403MOL0     C54325   9.509  11.082   9.969  0.1678  0.5977 -0.2726
  403MOL0     C54326   9.419  10.971   9.979 -0.1337 -0.0677 -0.2881
  403MOL0     C54327   9.286  11.003   9.950  0.3745  0.1793  0.1582
  403MOL0     C54328   9.237  11.135   9.920 -0.3944  0.6781 -0.5732
  403MOL0     O54329   9.107  11.169   9.892 -0.4000 -0.3319 -0.2105
  403MOL0     C54330   9.021  11.061   9.836  0.7746 -0.3728 -0.1234
  403MOL0     C54331   8.891  11.127   9.781  0.1762  0.2986 -0.0727
  403MOL0     C54332   8.800  11.155   9.902  0.0456  0.0871 -0.5306
  403MOL0     C54333   8.667  11.210   9.849  0.1167 -0.5980 -0.0647
  403MOL0     C54334   8.596  11.109   9.789  0.6117  0.5926  0.2224
  403MOL0     C54335   8.531  11.021   9.733 -0.1255  0.5313  0.3863
  403MOL0     C54336   9.330  11.235   9.895  0.1537  0.2243  0.1055
  403MOL0     C54337   9.468  11.209   9.926 -0.7384  0.2937  0.1591
  403MOL0     H54338   9.821  11.053  10.300  1.3351 -0.9596  0.6309
  403MOL0     H54339  10.051  11.028  10.362  0.4547  2.0363  0.3330
  403MOL0     H54340  10.343  10.943  10.074 -3.8670  0.8839 -1.2520
  403MOL0     H54341  10.397  11.105  10.053 -1.8732  1.2487  0.4921
  403MOL0     H54342  10.575  10.968  10.173  0.3539 -0.2686  1.4231
  403MOL0     H54343  10.532  11.122  10.251 -0.9481  0.5520 -1.6032
  403MOL0     H54344  10.556  10.925  10.404  1.8727  1.8057 -2.0643
  403MOL0     H54345  10.394  10.992  10.417  0.1113  0.8307 -1.4410
  403MOL0     H54346  10.328  10.812  10.244 -0.1657  0.3899 -0.8372
  403MOL0     H54347  10.504  10.745  10.266  1.8358  0.8873  0.4156
  403MOL0     H54348  10.440  10.676  10.495 -0.4321 -1.0060 -0.7792
  403MOL0     H54349  10.280  10.757  10.473  0.1866 -1.4605  3.2106
  403MOL0     H54350  10.210  10.622  10.319  0.8601  2.6709  1.7359
  403MOL0     H54351  10.359  10.529  10.299 -0.7661  0.1806 -0.0190
  403MOL0     H54352  10.324  10.424  10.506 -0.9510 -0.7771 -0.8868
  403MOL0     H54353  10.245  10.552  10.585  1.6491 -3.1536  2.8348
  403MOL0     H54354  10.122  10.331  10.537  0.6977  0.5054  0.8700
  403MOL0     H54355  10.088  10.385  10.372 -1.9212  3.0753 -0.7335
  403MOL0     H54356   9.933  10.594  10.307  0.7859  1.3236  0.5191
  403MOL0     H54357   9.853  10.889  10.460  0.9145 -1.1842  1.2140
  403MOL0     H54358   9.796  10.796  10.318 -0.6076 -1.4532  0.0294
  403MOL0     H54359   9.659  10.818  10.607 -1.4579 -1.2790  0.7639
  403MOL0     H54360   9.619  10.711  10.463  2.2728  0.1852 -2.3539
  403MOL0     H54361   9.581  11.003  10.468 -0.1199 -0.3210  1.8575
  403MOL0     H54362   9.462  10.875  10.509 -0.5125 -0.8865 -0.8371
  403MOL0     H54363   9.615  10.943  10.258  0.2754  2.3454  2.7103
  403MOL0     H54364   9.439  10.977  10.277  0.7307  1.7665 -1.9202
  403MOL0     H54365   9.466  10.551  10.250  0.2565 -0.2313 -0.4117
  403MOL0     H54366   9.220  10.331  10.251 -1.8567  2.4523  0.2963
  403MOL0     H54367   9.393  10.361  10.308  0.0511  4.5449  0.3524
  403MOL0     H54368   9.270  10.327  10.419  1.4116 -1.9882 -0.0149
  403MOL0     H54369   8.699  10.721  10.447 -2.3056 -0.0496  1.9890
  403MOL0     H54370   8.525  10.654  10.597 -2.5701 -2.2640  1.3724
  403MOL0     H54371   8.355  10.566  10.680 -1.9792 -0.3357  1.1402
  403MOL0     H54372   8.289  10.477  10.548 -0.5056 -0.6843  0.2084
  403MOL0     H54373   8.236  10.289  10.693 -2.6340  0.1541 -0.1167
  403MOL0     H54374   8.267  10.376  10.838  0.6123  0.1891  0.0743
  403MOL0     H54375   8.070  10.440  10.607  3.4627  0.7299 -0.6538
  403MOL0     H54376   8.073  10.520  10.775 -0.0270 -0.3370  0.7056
  403MOL0     H54377   7.995  10.222  10.695 -3.8236  0.5814  0.0064
  403MOL0     H54378   8.032  10.273  10.862  0.7744 -1.6159 -0.5277
  403MOL0     H54379   7.863  10.440  10.840  2.3962 -0.6462  0.9405
  403MOL0     H54380   7.803  10.281  10.848  1.8831 -0.3175  0.7825
  403MOL0     H54381   7.837  10.442  10.599  3.0353 -1.8671 -0.7448
  403MOL0     H54382   7.795  10.275  10.578 -2.4492  2.3780 -2.7113
  403MOL0     H54383   7.638  10.497  10.720  0.8225  0.9217 -0.2735
  403MOL0     H54384   7.602  10.325  10.757  1.4438 -1.2179 -0.9472
  403MOL0     H54385   7.573  10.280  10.514  1.3083 -0.3758 -0.3799
  403MOL0     H54386   7.598  10.442  10.473 -2.2769  1.2382  1.6645
  403MOL0     H54387   8.623  10.239  10.508 -1.4098  0.5858 -1.3643
  403MOL0     H54388   8.827  10.311  10.404  2.7660  1.4250  1.9032
  403MOL0     H54389   9.042  10.793  10.318 -0.1766  1.3612 -1.6173
  403MOL0     H54390   9.237  10.907  10.244  1.3481 -0.9671 -4.7186
  403MOL0     H54391  10.161  11.122   9.959 -0.5295 -2.5815 -0.7300
  403MOL0     H54392   9.918  11.137   9.903  1.8863  2.8427 -0.1729
  403MOL0     H54393   9.445  10.871  10.011 -1.5467 -2.1112 -4.6623
  403MOL0     H54394   9.219  10.919   9.964  2.9053 -1.8318  1.0138
  403MOL0     H54395   9.073  11.013   9.753 -0.7510 -1.2315 -0.6261
  403MOL0     H54396   8.998  10.979   9.905  1.5865 -0.4234  0.1041
  403MOL0     H54397   8.842  11.056   9.713  0.8260 -0.0977 -0.1430
  403MOL0     H54398   8.913  11.220   9.728  1.2314  1.2954  2.0371
  403MOL0     H54399   8.834  11.238   9.964  0.7048  1.2505 -2.3652
  403MOL0     H54400   8.780  11.059   9.951  2.0490 -1.2013 -2.0627
  403MOL0     H54401   8.686  11.297   9.785  3.5737 -1.0529  0.1595
  403MOL0     H54402   8.620  11.252   9.939  3.2565  3.4056  0.0270
  403MOL0     H54403   8.468  10.949   9.684  1.5963 -0.3899 -0.5837
  403MOL0     H54404   9.297  11.331   9.856  2.6757  0.5951 -1.2940
  403MOL0     H54405   9.541  11.289   9.918 -1.5221  1.0301  0.2179
  404MOL0     O54406   7.268   7.320   0.241 -0.9472  0.1968 -0.2262
  404MOL0     C54407   7.318   7.310   0.347  0.1334  0.7012  1.0166
  404MOL0     O54408   7.262   7.329   0.470  0.1081 -0.6615  0.5297
  404MOL0     C54409   7.129   7.343   0.470  0.1003 -0.1546 -0.8250
  404MOL0     C54410   7.068   7.469   0.448 -0.0806 -0.4698  0.1965
  404MOL0     C54411   6.927   7.488   0.451 -0.1157 -0.1417 -0.4369
  404MOL0     C54412   6.842   7.382   0.468  0.0737 -0.2206  0.4911
  404MOL0     O54413   6.701   7.391   0.459 -0.0066 -0.5500 -0.2050
  404MOL0     C54414   6.647   7.493   0.371  0.1729  0.4720  0.7045
  404MOL0     C54415   6.635   7.626   0.430  0.3194 -0.8393 -0.4679
  404MOL0     C54416   6.621   7.617   0.584  0.3351 -0.4204  0.1086
  404MOL0     C54417   6.556   7.741   0.646  0.0356  0.4771 -0.0070
  404MOL0     C54418   6.408   7.748   0.609  0.4968 -0.7103 -0.8314
  404MOL0     C54419   6.353   7.873   0.675 -0.2078 -0.0835 -0.0517
  404MOL0     C54420   6.197   7.883   0.647  0.0146 -0.6300 -0.0384
  404MOL0     C54421   6.132   7.998   0.726  1.0859 -0.1080 -0.9556
  404MOL0     N54422   5.991   8.014   0.697 -0.0788 -0.0041 -0.2922
  404MOL0     C54423   5.947   8.095   0.599 -0.1048 -0.4810  0.5044
  404MOL0     C54424   5.811   8.094   0.603 -0.6494  0.0906 -1.0124
  404MOL0     C54425   5.707   8.171   0.520 -0.3341 -0.4433  0.5696
  404MOL0     C54426   5.571   8.177   0.601  0.2497 -0.0150 -0.9572
  404MOL0     C54427   5.474   8.254   0.519  0.2827 -1.3969  0.3279
  404MOL0     C54428   5.326   8.230   0.564 -0.0265  0.0672  0.4315
  404MOL0     O54429   5.231   8.252   0.462  0.2366  0.3240 -0.1337
  404MOL0     C54430   5.103   8.284   0.500  0.4556 -0.0443  0.0636
  404MOL0     C54431   5.034   8.208   0.591  0.7458  0.6035  0.5296
  404MOL0     C54432   4.902   8.243   0.625 -0.1825 -0.1394  0.2933
  404MOL0     C54433   4.830   8.167   0.735  0.3781 -0.6866 -0.0593
  404MOL0     C54434   4.840   8.359   0.568  0.2292 -0.1042 -0.5289
  404MOL0     C54435   4.701   8.406   0.605 -0.2253 -1.0557  0.1087
  404MOL0     O54436   4.683   8.548   0.575 -0.3275  0.4489 -0.4733
  404MOL0     C54437   4.559   8.592   0.621 -0.6229 -0.0042 -0.4871
  404MOL0     C54438   4.439   8.555   0.554 -0.5254  0.3352  0.7653
  404MOL0     C54439   4.319   8.615   0.578 -0.6164 -0.4448 -0.3807
  404MOL0     C54440   4.310   8.711   0.682 -0.1733  0.2827 -0.2755
  404MOL0     O54441   4.194   8.783   0.693  0.7434  0.2313  0.4009
  404MOL0     C54442   4.081   8.703   0.696  1.0304 -0.1145  0.4985
  404MOL0     C54443   3.972   8.802   0.734  0.4138 -0.1145 -0.0963
  404MOL0     C54444   3.839   8.742   0.682  0.4249 -0.2253  0.2198
  404MOL0     C54445   3.730   8.858   0.700  0.0641  0.2109 -0.5214
  404MOL0     C54446   3.614   8.842   0.594 -0.8302  0.1925  0.3616
  404MOL0     C54447   3.549   8.707   0.567 -0.0797  0.2754 -0.4808
  404MOL0     C54448   3.411   8.683   0.613 -1.2107 -0.4007 -0.1620
  404MOL0     C54449   3.397   8.689   0.760 -0.5328  0.3057  1.1744
  404MOL0    Cl54450   3.383   8.848   0.839 -0.0740  0.2113  0.0234
  404MOL0     C54451   4.420   8.738   0.754 -0.9826  0.0923 -0.3272
  404MOL0     C54452   4.548   8.681   0.720  1.3339  0.4863 -0.0787
  404MOL0     O54453   4.622   8.327   0.647  0.0405 -0.1332 -0.7235
  404MOL0     C54454   4.926   8.442   0.488 -0.0498  0.4589 -0.7377
  404MOL0     C54455   5.051   8.399   0.455  0.0148 -0.6310 -0.6874
  404MOL0     N54456   5.780   8.024   0.718  0.6102 -0.4507  0.7019
  404MOL0     N54457   5.885   7.967   0.770 -0.2115 -0.0823  0.2258
  404MOL0     C54458   6.898   7.255   0.487 -0.1074  0.4496 -0.6138
  404MOL0     C54459   7.041   7.234   0.487  0.9840  0.5305 -0.3280
  404MOL0     C54460   7.459   7.266   0.332  0.6219 -0.2428 -0.8883
  404MOL0     C54461   7.540   7.286   0.442  0.4736 -1.1001  0.5310
  404MOL0     C54462   7.672   7.244   0.436  0.1522  0.6783 -0.2255
  404MOL0     C54463   7.724   7.175   0.330 -1.0261  0.0077 -0.1747
  404MOL0     O54464   7.849   7.119   0.326  0.0473 -0.2159  0.2684
  404MOL0     C54465   7.939   7.139   0.435  0.9221  0.2976  0.0784
  404MOL0     C54466   7.979   7.288   0.443 -0.0645 -0.1907  0.0118
  404MOL0     C54467   8.066   7.343   0.327 -0.2034 -0.4325 -0.4047
  404MOL0     C54468   8.120   7.480   0.367  0.0816 -0.4948 -0.2401
  404MOL0     C54469   8.236   7.475   0.466 -0.3717 -0.0296  0.3599
  404MOL0     C54470   8.333   7.461   0.537  0.1630  0.0611 -0.3116
  404MOL0     C54471   7.646   7.165   0.221  0.2901 -0.6754  0.1362
  404MOL0     C54472   7.510   7.203   0.224  0.6812  0.0254 -0.6212
  404MOL0     H54473   7.127   7.559   0.443 -0.7009  0.0088  1.2950
  404MOL0     H54474   6.904   7.594   0.448  0.5079  0.0377  0.5930
  404MOL0     H54475   6.701   7.493   0.275 -2.1123 -0.2757 -0.6486
  404MOL0     H54476   6.550   7.454   0.341  0.8601  0.7478 -2.1435
  404MOL0     H54477   6.717   7.697   0.412 -0.5026 -0.0921 -1.3844
  404MOL0     H54478   6.547   7.669   0.382 -1.6391  2.6293  5.1709
  404MOL0     H54479   6.560   7.528   0.604 -0.8543  0.5588  0.9662
  404MOL0     H54480   6.718   7.592   0.628  0.3428  0.3008  0.5200
  404MOL0     H54481   6.568   7.747   0.754  1.6692  2.8314 -0.2442
  404MOL0     H54482   6.622   7.819   0.608  3.0190 -1.0048  1.7295
  404MOL0     H54483   6.388   7.757   0.502 -1.6450 -1.9307 -0.5901
  404MOL0     H54484   6.355   7.660   0.647 -2.1110  1.3838  0.7065
  404MOL0     H54485   6.375   7.876   0.782 -1.3649 -1.2219  0.2349
  404MOL0     H54486   6.412   7.959   0.642 -0.4195  1.4479  3.2037
  404MOL0     H54487   6.181   7.895   0.540  1.1408  0.6521 -0.0904
  404MOL0     H54488   6.149   7.787   0.669 -0.1423 -1.0704 -2.0957
  404MOL0     H54489   6.187   8.090   0.703  0.5218  0.5569  0.2577
  404MOL0     H54490   6.139   7.979   0.833  0.2286 -4.2109 -1.4803
  404MOL0     H54491   6.005   8.160   0.534 -2.2095  2.0820  0.9854
  404MOL0     H54492   5.737   8.276   0.508 -0.7630 -0.2546  1.1344
  404MOL0     H54493   5.690   8.116   0.427  0.0723 -0.3996  0.4651
  404MOL0     H54494   5.589   8.222   0.699  1.7445  0.7573 -1.5488
  404MOL0     H54495   5.533   8.075   0.608 -2.1364  0.8395 -0.4921
  404MOL0     H54496   5.479   8.212   0.418 -4.3135 -0.8270 -0.3677
  404MOL0     H54497   5.493   8.361   0.501 -2.5722 -1.2053 -2.3860
  404MOL0     H54498   5.316   8.298   0.649  0.1245 -0.6491  1.0322
  404MOL0     H54499   5.310   8.127   0.598 -1.8391  0.9403  2.4906
  404MOL0     H54500   5.078   8.119   0.634  3.2048 -0.1335 -3.1039
  404MOL0     H54501   4.784   8.231   0.810  2.1692 -0.1013  0.5718
  404MOL0     H54502   4.760   8.100   0.683 -0.5066 -1.0586  1.5574
  404MOL0     H54503   4.902   8.095   0.775  3.5434  1.8125 -0.8875
  404MOL0     H54504   4.443   8.480   0.476  1.4733 -1.7648  2.7694
  404MOL0     H54505   4.234   8.582   0.520 -2.7145  1.5336  1.4095
  404MOL0     H54506   4.077   8.649   0.600 -0.4276  0.9626 -0.0763
  404MOL0     H54507   4.083   8.634   0.781 -3.9509  0.2389  1.1712
  404MOL0     H54508   3.969   8.810   0.843 -1.8499 -0.6851 -0.0671
  404MOL0     H54509   3.994   8.894   0.680  1.5036 -0.6099 -0.5339
  404MOL0     H54510   3.826   8.659   0.752  1.7469  0.4839  1.3516
  404MOL0     H54511   3.851   8.701   0.581  0.8463 -3.9294  1.6082
  404MOL0     H54512   3.684   8.871   0.798  0.6125 -1.4104 -0.0123
  404MOL0     H54513   3.770   8.954   0.666 -2.5988  1.0833 -1.4476
  404MOL0     H54514   3.654   8.872   0.496 -4.9119  1.4561 -1.1470
  404MOL0     H54515   3.538   8.917   0.618 -0.3211 -0.0306  2.9051
  404MOL0     H54516   3.553   8.695   0.458 -0.6903 -1.3771 -0.3520
  404MOL0     H54517   3.618   8.635   0.612  0.0534 -0.0462 -1.1823
  404MOL0     H54518   3.383   8.583   0.578 -0.4327 -1.7257  2.7202
  404MOL0     H54519   3.348   8.759   0.566 -3.5144 -0.2362  2.8619
  404MOL0     H54520   3.487   8.643   0.802 -0.8106 -2.4267 -0.9344
  404MOL0     H54521   3.309   8.628   0.784  0.1513 -0.7506  1.0672
  404MOL0     H54522   4.408   8.804   0.840  1.1397 -1.8899  1.6576
  404MOL0     H54523   4.639   8.719   0.766  1.7815  1.9649 -2.0693
  404MOL0     H54524   4.907   8.538   0.440  1.8937 -0.0545 -2.7099
  404MOL0     H54525   5.114   8.480   0.421 -2.2420  2.1131  1.1568
  404MOL0     H54526   6.833   7.168   0.486 -1.5820  1.5144 -0.4875
  404MOL0     H54527   7.079   7.133   0.489 -0.2045  0.0405  2.2793
  404MOL0     H54528   7.502   7.340   0.528 -1.9343 -1.6522 -0.0954
  404MOL0     H54529   7.728   7.256   0.529 -0.9067  0.7875  0.4193
  404MOL0     H54530   7.896   7.094   0.525 -0.7041 -0.0635 -0.8340
  404MOL0     H54531   8.021   7.074   0.402 -0.3951 -0.3161 -2.2737
  404MOL0     H54532   8.039   7.313   0.531 -0.2586  0.7403 -0.1145
  404MOL0     H54533   7.894   7.356   0.447 -1.3500 -1.6474 -1.1221
  404MOL0     H54534   8.001   7.333   0.240 -2.8312 -1.8321  1.5858
  404MOL0     H54535   8.144   7.270   0.302 -1.6638 -1.9370 -0.7644
  404MOL0     H54536   8.044   7.552   0.399  0.8996  0.7756 -1.0379
  404MOL0     H54537   8.156   7.527   0.274 -0.9643 -1.1511 -0.9950
  404MOL0     H54538   8.407   7.455   0.615 -0.0356  0.4915 -0.0865
  404MOL0     H54539   7.677   7.102   0.137 -0.8241 -2.9534  1.3383
  404MOL0     H54540   7.441   7.179   0.143 -1.8676  4.9354 -0.2792
  405MOL0     O54541   1.139   2.210   1.726 -0.4251  1.6759  0.0127
  405MOL0     C54542   1.147   2.105   1.650  0.3301 -0.1082  0.7417
  405MOL0     O54543   1.144   2.114   1.515 -0.7526 -0.6075  0.1848
  405MOL0     C54544   1.170   2.240   1.470  0.5731 -0.1841 -0.4520
  405MOL0     C54545   1.288   2.304   1.501 -0.1618  0.3350 -0.0111
  405MOL0     C54546   1.323   2.428   1.444  0.0009 -0.1544  0.0290
  405MOL0     C54547   1.236   2.485   1.356 -0.3064 -0.2998  1.0971
  405MOL0     O54548   1.260   2.606   1.295 -0.4376 -0.6176 -0.2654
  405MOL0     C54549   1.283   2.720   1.382  1.0435 -0.1845  0.3042
  405MOL0     C54550   1.271   2.846   1.301  0.7575 -0.9092 -1.4057
  405MOL0     C54551   1.346   2.851   1.159  0.6074  0.2117 -0.6997
  405MOL0     C54552   1.493   2.819   1.173 -0.1122 -0.5284 -0.6191
  405MOL0     C54553   1.566   2.872   1.040  0.2739  0.0708  0.0407
  405MOL0     C54554   1.713   2.886   1.078  0.3874  0.2713 -0.4226
  405MOL0     C54555   1.782   2.955   0.956 -0.0068  0.2728 -0.9194
  405MOL0     C54556   1.938   2.935   0.964  0.4814 -0.5563  0.0940
  405MOL0     N54557   1.985   2.805   0.941 -0.2350  0.3633  0.5424
  405MOL0     C54558   1.983   2.738   0.821 -0.3705 -0.3097  0.4679
  405MOL0     C54559   2.018   2.609   0.845 -1.2658  0.2775  0.4871
  405MOL0     C54560   2.030   2.492   0.752  0.9844 -0.3312 -0.2482
  405MOL0     C54561   2.174   2.427   0.745 -0.5301 -0.1308 -0.1301
  405MOL0     C54562   2.167   2.277   0.712  0.7733 -1.1552  0.9605
  405MOL0     C54563   2.297   2.214   0.667  0.6132  1.2753 -0.8419
  405MOL0     O54564   2.274   2.109   0.573 -0.0272 -0.9364 -0.2858
  405MOL0     C54565   2.248   1.986   0.622  0.7248  0.3215 -0.4334
  405MOL0     C54566   2.231   1.884   0.525 -0.6988  0.6178 -0.1146
  405MOL0     C54567   2.177   1.756   0.550  0.0491  0.2170 -0.1692
  405MOL0     C54568   2.168   1.658   0.448  0.2114  0.0145  0.3734
  405MOL0     C54569   2.135   1.726   0.680  0.2488 -0.0496  0.7687
  405MOL0     C54570   2.073   1.600   0.722 -0.0169 -0.6134  0.2181
  405MOL0     O54571   2.129   1.543   0.829  0.7916 -0.0822 -0.9318
  405MOL0     C54572   2.078   1.423   0.871 -0.0418 -0.3380  0.5122
  405MOL0     C54573   2.100   1.305   0.793  0.1055 -0.5795 -0.1580
  405MOL0     C54574   2.029   1.191   0.826 -0.1272 -0.2876 -0.4064
  405MOL0     C54575   1.943   1.187   0.932  0.3765 -0.2050  0.1897
  405MOL0     O54576   1.863   1.085   0.961 -0.0055  0.2944  0.4353
  405MOL0     C54577   1.892   0.958   0.909 -0.0246  0.5133  0.0411
  405MOL0     C54578   1.822   0.866   1.005  0.1000 -0.0525  0.7923
  405MOL0     C54579   1.679   0.897   1.054 -0.4459  0.1441  0.5314
  405MOL0     C54580   1.629   0.798   1.153  1.0765  0.6323 -0.0418
  405MOL0     C54581   1.494   0.830   1.203  0.2650 -0.9575  0.4274
  405MOL0     C54582   1.406   0.708   1.190  0.5217 -0.7335  0.5282
  405MOL0     C54583   1.299   0.704   1.300 -0.0322 -0.6225 -0.3523
  405MOL0     C54584   1.209   0.584   1.300 -0.5380 -0.6517 -0.1823
  405MOL0    Cl54585   1.091   0.596   1.435  0.3808 -0.2086  0.3829
  405MOL0     C54586   1.915   1.306   0.998  0.9576 -0.0236 -0.7614
  405MOL0     C54587   1.988   1.417   0.976 -0.9355  0.0252 -0.3186
  405MOL0     O54588   1.976   1.561   0.664 -0.0530  0.5745  0.2538
  405MOL0     C54589   2.160   1.828   0.778 -0.0817  0.2993 -0.3189
  405MOL0     C54590   2.207   1.955   0.757 -0.1933 -1.2362  0.6948
  405MOL0     N54591   2.040   2.603   0.989 -0.0512  0.7435  0.1380
  405MOL0     N54592   2.020   2.719   1.043  0.3082  0.8184  0.2306
  405MOL0     C54593   1.120   2.424   1.320 -0.0349  0.7168 -0.0841
  405MOL0     C54594   1.084   2.296   1.375 -0.5045  0.0441 -0.1757
  405MOL0     C54595   1.138   1.973   1.713 -0.0746 -0.1405 -0.4435
  405MOL0     C54596   1.146   1.952   1.851  0.6391 -0.0836 -0.0719
  405MOL0     C54597   1.135   1.818   1.910 -0.2343 -0.5307  0.2992
  405MOL0     C54598   1.123   1.700   1.833 -0.1511  0.4029  0.2614
  405MOL0     O54599   1.103   1.575   1.898  0.3083 -0.4674  0.5456
  405MOL0     C54600   1.105   1.459   1.812  0.9227 -0.6655 -0.4066
  405MOL0     C54601   1.246   1.436   1.744 -0.3253 -0.5746 -0.1120
  405MOL0     C54602   1.263   1.300   1.678  0.2208  0.0593  0.1091
  405MOL0     C54603   1.379   1.307   1.573 -0.2764  0.4736 -0.1283
  405MOL0     C54604   1.387   1.208   1.470 -0.6986  0.2634 -0.8673
  405MOL0     C54605   1.384   1.131   1.378 -0.3013 -0.3625 -0.0024
  405MOL0     C54606   1.113   1.728   1.696  0.4088  0.5045 -0.1224
  405MOL0     C54607   1.119   1.857   1.637 -0.5008  0.0778  0.8444
  405MOL0     H54608   1.362   2.267   1.571 -1.0441 -4.1934 -1.1262
  405MOL0     H54609   1.414   2.479   1.476 -0.1015  0.5671 -0.7907
  405MOL0     H54610   1.207   2.726   1.460 -0.0653  3.6682 -0.8714
  405MOL0     H54611   1.386   2.707   1.418  1.5135 -0.9515 -1.2096
  405MOL0     H54612   1.164   2.861   1.285  0.3771  0.9051  1.9775
  405MOL0     H54613   1.311   2.931   1.357 -0.1825 -1.0416 -0.4949
  405MOL0     H54614   1.313   2.779   1.085 -0.0547  1.4081 -1.6059
  405MOL0     H54615   1.322   2.949   1.116 -1.7157 -0.0321 -0.0892
  405MOL0     H54616   1.526   2.867   1.265  0.7319  1.7662 -2.0319
  405MOL0     H54617   1.500   2.710   1.185 -1.5047 -0.6160 -0.4573
  405MOL0     H54618   1.557   2.800   0.958  0.5110  0.7375 -0.5793
  405MOL0     H54619   1.516   2.961   1.002 -2.1767 -2.3060 -2.7991
  405MOL0     H54620   1.726   2.954   1.163  0.7580 -2.2302  1.6201
  405MOL0     H54621   1.758   2.791   1.108 -1.5196 -0.2628  0.9970
  405MOL0     H54622   1.747   2.909   0.863 -1.6026  2.2530 -1.3732
  405MOL0     H54623   1.760   3.062   0.954  2.1260  0.7508 -1.0044
  405MOL0     H54624   1.967   2.945   1.069  0.1154  0.6807  0.0983
  405MOL0     H54625   1.989   3.007   0.898 -0.6655  0.4098  0.2195
  405MOL0     H54626   1.965   2.785   0.725 -3.8606 -1.6335  0.3533
  405MOL0     H54627   1.967   2.414   0.796 -1.4159  0.9061 -1.3223
  405MOL0     H54628   2.001   2.523   0.652 -0.7107  0.1048  0.3532
  405MOL0     H54629   2.224   2.437   0.842  0.3372  0.4185 -0.6241
  405MOL0     H54630   2.237   2.478   0.672  0.1877  1.4280  1.4998
  405MOL0     H54631   2.100   2.273   0.626  1.6621  1.7816 -0.0195
  405MOL0     H54632   2.116   2.234   0.798 -2.6576 -0.9666 -0.8203
  405MOL0     H54633   2.362   2.188   0.751 -1.7696  1.2408  1.0919
  405MOL0     H54634   2.352   2.295   0.618  0.3802  1.8411 -0.1828
  405MOL0     H54635   2.257   1.911   0.423  1.4231 -2.3579 -0.4895
  405MOL0     H54636   2.062   1.643   0.422 -0.4525 -1.2133  3.3747
  405MOL0     H54637   2.211   1.692   0.353 -2.5490  1.2503 -0.5591
  405MOL0     H54638   2.201   1.555   0.464 -0.2677 -0.2933 -0.5143
  405MOL0     H54639   2.171   1.302   0.711  0.1994 -0.7251 -0.0731
  405MOL0     H54640   2.038   1.110   0.755  0.2965  0.3368 -1.0903
  405MOL0     H54641   1.850   0.947   0.808 -0.5825  0.2284  0.2997
  405MOL0     H54642   2.000   0.937   0.908 -0.3933 -1.5975 -0.5992
  405MOL0     H54643   1.819   0.771   0.950  2.1032  1.5813 -2.4380
  405MOL0     H54644   1.881   0.855   1.097 -1.5021  0.4004  1.9253
  405MOL0     H54645   1.613   0.894   0.967  0.3040 -1.2961 -0.0110
  405MOL0     H54646   1.683   0.999   1.094 -0.1985 -0.1103  1.1690
  405MOL0     H54647   1.627   0.702   1.100  2.3239  0.2408  0.5796
  405MOL0     H54648   1.695   0.788   1.239  2.1640  0.0635 -0.9116
  405MOL0     H54649   1.446   0.920   1.162  0.3595 -1.5230 -0.9869
  405MOL0     H54650   1.515   0.855   1.307  0.2134  0.7698  0.0588
  405MOL0     H54651   1.354   0.697   1.094  2.9341 -2.0622 -0.7292
  405MOL0     H54652   1.464   0.615   1.195 -0.7801 -1.5862  0.3381
  405MOL0     H54653   1.239   0.795   1.292  0.8956  0.1133  0.6910
  405MOL0     H54654   1.342   0.711   1.400 -1.1929  1.1108  0.0665
  405MOL0     H54655   1.272   0.495   1.306 -1.4281 -1.2717  0.1943
  405MOL0     H54656   1.157   0.578   1.204  1.6237 -2.5426 -1.3346
  405MOL0     H54657   1.840   1.296   1.075  0.9994  4.1619  0.0036
  405MOL0     H54658   1.981   1.500   1.046  0.4287  0.1825 -0.3474
  405MOL0     H54659   2.128   1.804   0.879  0.0400 -0.0460 -0.3624
  405MOL0     H54660   2.218   2.025   0.840  2.7522 -0.2149 -0.4178
  405MOL0     H54661   1.057   2.477   1.249 -0.3483  2.1836  1.2324
  405MOL0     H54662   1.002   2.239   1.332 -1.9582  0.4133  1.8884
  405MOL0     H54663   1.147   2.033   1.924 -3.2162 -0.6395  0.8412
  405MOL0     H54664   1.143   1.803   2.017  1.1229  0.4814  0.3628
  405MOL0     H54665   1.077   1.373   1.874  0.7561 -0.5097 -0.2632
  405MOL0     H54666   1.024   1.473   1.740 -1.5124  3.3261  2.6723
  405MOL0     H54667   1.321   1.436   1.823 -0.3053 -3.4463 -0.0438
  405MOL0     H54668   1.256   1.516   1.670 -0.8884  1.0432  1.4808
  405MOL0     H54669   1.171   1.266   1.631  0.9925  0.6401 -1.9166
  405MOL0     H54670   1.288   1.232   1.760  0.2208  0.2461  0.2670
  405MOL0     H54671   1.471   1.290   1.629 -0.2022 -2.1765 -0.9359
  405MOL0     H54672   1.386   1.404   1.522  1.6645 -0.6038 -2.0898
  405MOL0     H54673   1.378   1.061   1.297  0.6697  0.5323 -0.8735
  405MOL0     H54674   1.098   1.648   1.625  0.4519  2.3684 -2.3369
  405MOL0     H54675   1.115   1.859   1.529 -1.1507  1.4265  0.8820
  406MOL0     O54676   2.619  10.322   8.241 -0.2606  0.6028  0.7645
  406MOL0     C54677   2.640  10.321   8.119  0.4680  0.2430 -0.3808
  406MOL0     O54678   2.554  10.267   8.028  0.8608 -0.2574 -0.1001
  406MOL0     C54679   2.422  10.237   8.047  0.4345 -0.2684 -1.3159
  406MOL0     C54680   2.373  10.164   8.158  0.6596 -0.2523 -0.6215
  406MOL0     C54681   2.235  10.139   8.176  0.2157 -0.3240 -0.0578
  406MOL0     C54682   2.146  10.188   8.082 -0.7714  0.1008  0.5351
  406MOL0     O54683   2.011  10.173   8.102 -0.4741  0.0798 -0.1521
  406MOL0     C54684   1.917  10.259   8.034 -0.5987 -0.1282  0.5695
  406MOL0     C54685   1.894  10.393   8.106  0.2678  0.3421  0.8589
  406MOL0     C54686   1.837  10.379   8.242  0.0266 -0.7472  0.1948
  406MOL0     C54687   1.872  10.499   8.329 -0.0180 -0.4785  1.0270
  406MOL0     C54688   1.843  10.473   8.475 -0.3467 -0.0602  0.2890
  406MOL0     C54689   1.697  10.476   8.503  0.4888  0.0547 -0.1542
  406MOL0     C54690   1.662  10.474   8.655 -0.6414 -0.7912 -0.1536
  406MOL0     C54691   1.516  10.496   8.677  1.0994 -0.0220 -0.9918
  406MOL0     N54692   1.448  10.365   8.679 -0.2382 -0.8610  0.6008
  406MOL0     C54693   1.383  10.304   8.793  0.2564 -0.0167 -0.1794
  406MOL0     C54694   1.320  10.196   8.746 -0.2668  0.6534 -0.0434
  406MOL0     C54695   1.247  10.086   8.815 -0.6002 -0.4392  0.1175
  406MOL0     C54696   1.115  10.123   8.874  0.4737 -0.2208  0.4487
  406MOL0     C54697   1.022  10.010   8.864 -0.1466 -0.3246  0.3904
  406MOL0     C54698   0.879  10.045   8.907  0.1470 -0.4013 -0.4537
  406MOL0     O54699   0.863  10.017   9.043  0.0192 -0.1277 -0.6251
  406MOL0     C54700   0.749  10.049   9.105  0.1747 -0.0606 -0.3513
  406MOL0     C54701   0.755  10.063   9.243  0.2533  0.5062  0.6536
  406MOL0     C54702   0.635  10.086   9.314 -0.3548  0.9832  0.2134
  406MOL0     C54703   0.675  10.114   9.454 -0.5987  1.2395  0.1433
  406MOL0     C54704   0.514  10.094   9.253  1.2069 -0.5022 -0.3233
  406MOL0     C54705   0.387  10.124   9.324  0.2576  0.6399 -0.0486
  406MOL0     O54706   0.273  10.048   9.296  1.0400  0.2063  0.0272
  406MOL0     C54707   0.153  10.094   9.341  0.6393  0.0662 -0.3712
  406MOL0     C54708   0.113  10.225   9.351 -0.6996  0.6416  0.1079
  406MOL0     C54709  -0.011  10.257   9.408  0.1735 -1.4605  1.1759
  406MOL0     C54710  -0.101  10.155   9.448  0.3699  0.3575  0.0764
  406MOL0     O54711  -0.228  10.197   9.485 -0.0242 -0.4363  0.1285
  406MOL0     C54712  -0.347  10.112   9.465  1.7212  0.1350 -0.1334
  406MOL0     C54713  -0.468  10.211   9.477  0.3030  0.2482 -0.0145
  406MOL0     C54714  -0.602  10.132   9.494  0.8633 -0.5545 -0.2460
  406MOL0     C54715  -0.722  10.237   9.482 -0.4640 -0.1422 -0.9170
  406MOL0     C54716  -0.851  10.165   9.523  0.5739  0.6971 -0.2496
  406MOL0     C54717  -0.973  10.261   9.488 -0.1186 -0.3120  0.1734
  406MOL0     C54718  -1.107  10.210   9.551 -0.4160  0.4017  0.1904
  406MOL0     C54719  -1.229  10.301   9.534 -0.0914 -0.1612 -0.7406
  406MOL0    Cl54720  -1.384  10.221   9.571  0.2858  0.0096  0.6578
  406MOL0     C54721  -0.065  10.017   9.437 -0.8360 -0.0193 -0.2178
  406MOL0     C54722   0.066   9.987   9.388 -0.1335 -0.6775  0.6502
  406MOL0     O54723   0.387  10.220   9.403  0.2135  0.3285 -0.3885
  406MOL0     C54724   0.508  10.079   9.109 -0.4093  0.0350 -0.0890
  406MOL0     C54725   0.628  10.063   9.041 -0.3659  0.8486 -0.4444
  406MOL0     N54726   1.344  10.195   8.607  0.0409  0.6723 -0.3975
  406MOL0     N54727   1.421  10.292   8.574 -0.8046  0.5387 -0.0285
  406MOL0     C54728   2.191  10.258   7.968 -0.1693 -0.6710  0.8409
  406MOL0     C54729   2.330  10.286   7.960 -0.2579  0.5356  0.6107
  406MOL0     C54730   2.764  10.374   8.072  0.0169 -0.1048  0.8678
  406MOL0     C54731   2.787  10.395   7.929 -0.1807  0.6929 -1.0483
  406MOL0     C54732   2.900  10.459   7.889 -0.8099  0.3352 -0.1736
  406MOL0     C54733   3.002  10.496   7.976  0.0212 -0.1576  0.3248
  406MOL0     O54734   3.112  10.555   7.915 -0.2037 -0.7906  0.0794
  406MOL0     C54735   3.240  10.543   7.988 -0.7606  0.3780  0.4609
  406MOL0     C54736   3.356  10.541   7.888  0.2572 -0.7960 -0.0511
  406MOL0     C54737   3.454  10.657   7.920  1.3730 -0.2994  0.0560
  406MOL0     C54738   3.559  10.680   7.805  0.3491  0.2883  0.7786
  406MOL0     C54739   3.662  10.586   7.805  0.0493 -0.3367 -0.2197
  406MOL0     C54740   3.742  10.495   7.793  0.8724  0.4647 -0.4688
  406MOL0     C54741   2.985  10.468   8.115  0.4252 -0.4990  0.3957
  406MOL0     C54742   2.865  10.405   8.161 -0.4107 -0.1116  0.5022
  406MOL0     H54743   2.444  10.123   8.229  2.4110  0.4272 -1.8907
  406MOL0     H54744   2.199  10.072   8.254  0.9509 -0.5773  0.0791
  406MOL0     H54745   1.950  10.277   7.931 -2.7189  0.7890 -0.0048
  406MOL0     H54746   1.821  10.209   8.023  0.3386 -2.1612  1.2138
  406MOL0     H54747   1.994  10.436   8.104  1.2787 -1.5708 -3.9112
  406MOL0     H54748   1.834  10.471   8.056  0.1619  1.0233  2.0241
  406MOL0     H54749   1.728  10.375   8.243 -0.0210  0.2388 -0.0602
  406MOL0     H54750   1.875  10.287   8.288  0.4147 -0.0850  1.2236
  406MOL0     H54751   1.978  10.523   8.315 -0.7039  1.7308 -1.3004
  406MOL0     H54752   1.830  10.594   8.295 -1.2525  0.1651  4.0163
  406MOL0     H54753   1.886  10.375   8.500  0.8435  0.4473  0.2873
  406MOL0     H54754   1.892  10.545   8.540  0.6837 -1.9283  1.6688
  406MOL0     H54755   1.647  10.565   8.466  1.1250  0.9252  1.0109
  406MOL0     H54756   1.656  10.382   8.463 -0.7769  0.3098  0.4970
  406MOL0     H54757   1.704  10.381   8.696  1.3518 -0.9629 -2.3546
  406MOL0     H54758   1.711  10.560   8.702  0.4810 -1.0262 -0.8655
  406MOL0     H54759   1.471  10.561   8.600  0.0018  2.9653  1.9133
  406MOL0     H54760   1.500  10.542   8.775  1.0547 -0.5094 -0.7706
  406MOL0     H54761   1.388  10.340   8.896  1.4757  1.0951 -0.5895
  406MOL0     H54762   1.233  10.007   8.741  0.2713 -0.2004 -0.3171
  406MOL0     H54763   1.312  10.052   8.895  0.0080 -3.9152 -1.6547
  406MOL0     H54764   1.079  10.207   8.815 -0.0525  0.3495  1.5560
  406MOL0     H54765   1.129  10.154   8.978  0.0758  0.9370  0.1660
  406MOL0     H54766   1.054   9.929   8.930 -0.0880 -1.6179 -1.1678
  406MOL0     H54767   1.006   9.972   8.763  1.2374 -4.4166  1.4861
  406MOL0     H54768   0.806   9.982   8.857 -1.2513 -1.4986  2.7178
  406MOL0     H54769   0.865  10.153   8.897  1.2637  0.1570  2.8041
  406MOL0     H54770   0.852  10.067   9.292 -0.2768  0.8006  1.7273
  406MOL0     H54771   0.680  10.017   9.504 -1.1494  1.8427  1.3954
  406MOL0     H54772   0.774  10.161   9.459 -0.1364  0.1917  1.3718
  406MOL0     H54773   0.595  10.174   9.498 -0.8629 -1.5239  3.9855
  406MOL0     H54774   0.178  10.301   9.308  0.0128 -0.7441 -1.3567
  406MOL0     H54775  -0.041  10.361   9.413  1.7803 -1.0315  3.2208
  406MOL0     H54776  -0.359  10.051   9.375 -0.9026 -0.7167  0.7181
  406MOL0     H54777  -0.359  10.054   9.557 -2.7598  2.7479  1.2279
  406MOL0     H54778  -0.438  10.272   9.563  1.3547 -1.5074  0.9162
  406MOL0     H54779  -0.476  10.260   9.379 -2.3642  0.8129  0.4298
  406MOL0     H54780  -0.610  10.081   9.590  0.5547 -1.0554 -0.5365
  406MOL0     H54781  -0.616  10.061   9.412 -0.1161  0.1948 -0.7506
  406MOL0     H54782  -0.708  10.325   9.545  0.3015 -0.0029 -1.2655
  406MOL0     H54783  -0.735  10.279   9.382 -0.6339 -0.8310 -1.1955
  406MOL0     H54784  -0.844  10.133   9.627 -0.3451  2.3117  0.3414
  406MOL0     H54785  -0.863  10.074   9.463  0.0873  0.7744 -0.2745
  406MOL0     H54786  -0.950  10.358   9.534 -0.8446  1.0526 -2.1881
  406MOL0     H54787  -0.980  10.271   9.380 -0.4662 -2.9398 -0.1105
  406MOL0     H54788  -1.089  10.196   9.658 -0.1513 -0.2968  0.0590
  406MOL0     H54789  -1.126  10.115   9.500 -0.7529  1.3802 -1.5642
  406MOL0     H54790  -1.229  10.347   9.434 -1.3655 -0.1061 -0.7339
  406MOL0     H54791  -1.210  10.389   9.597  2.5495 -0.7369 -0.6147
  406MOL0     H54792  -0.145   9.950   9.467 -1.4166  0.5528 -0.4484
  406MOL0     H54793   0.103   9.886   9.377  1.1752 -0.4432  2.4180
  406MOL0     H54794   0.416  10.088   9.052 -0.1485 -0.0055 -0.5240
  406MOL0     H54795   0.622  10.066   8.932 -1.8210  2.1287 -0.3697
  406MOL0     H54796   2.142  10.308   7.885  1.6493 -2.4795 -1.4689
  406MOL0     H54797   2.367  10.346   7.877 -1.4607 -0.3101 -0.5685
  406MOL0     H54798   2.711  10.370   7.856 -2.0549  0.1671  1.0034
  406MOL0     H54799   2.908  10.488   7.784 -0.5814  2.4778  0.3965
  406MOL0     H54800   3.272  10.623   8.055  2.4360 -1.2759  1.1392
  406MOL0     H54801   3.244  10.452   8.049 -1.1443 -0.2818 -0.4833
  406MOL0     H54802   3.323  10.548   7.783  0.8465  2.6442 -0.1322
  406MOL0     H54803   3.399  10.441   7.901 -0.7909 -1.4188 -1.0595
  406MOL0     H54804   3.498  10.641   8.018 -4.4925 -4.3650  2.6017
  406MOL0     H54805   3.396  10.750   7.925 -0.2844 -0.9487 -3.4557
  406MOL0     H54806   3.607  10.775   7.830 -0.0653  0.6396  0.2553
  406MOL0     H54807   3.520  10.681   7.703 -2.6030 -2.3486  1.7137
  406MOL0     H54808   3.812  10.416   7.777 -0.6263 -1.2618  1.0360
  406MOL0     H54809   3.072  10.487   8.178  3.6995  0.4540 -3.9215
  406MOL0     H54810   2.868  10.386   8.268  1.7277  1.3002  0.7634
  407MOL0     O54811   1.421   6.554   8.664 -0.3137  0.1760 -0.6178
  407MOL0     C54812   1.508   6.523   8.583  0.0173 -0.6306 -0.3969
  407MOL0     O54813   1.477   6.482   8.459 -0.7269 -0.5399  0.3310
  407MOL0     C54814   1.348   6.459   8.426 -0.1008  0.7877  0.3980
  407MOL0     C54815   1.272   6.552   8.363 -0.8548 -0.8421  0.8774
  407MOL0     C54816   1.138   6.521   8.319 -0.5187  0.4485 -0.6686
  407MOL0     C54817   1.087   6.395   8.344 -0.7184 -0.1978  0.6222
  407MOL0     O54818   0.960   6.367   8.295 -0.2748 -0.5006 -0.0620
  407MOL0     C54819   0.915   6.231   8.292 -0.6465  0.8554 -0.1126
  407MOL0     C54820   0.773   6.217   8.253  0.1691 -1.0741  0.0202
  407MOL0     C54821   0.685   6.300   8.357  0.8042  1.1425 -0.1827
  407MOL0     C54822   0.535   6.315   8.304 -1.0795  0.1868  0.1252
  407MOL0     C54823   0.507   6.429   8.200  0.6068 -0.3672 -0.6720
  407MOL0     C54824   0.365   6.443   8.158 -0.4449 -0.0262  0.1733
  407MOL0     C54825   0.294   6.533   8.258 -0.0117  0.5390 -0.0340
  407MOL0     C54826   0.142   6.517   8.245  0.3599 -0.1608  0.9283
  407MOL0     N54827   0.081   6.394   8.287 -0.6879  1.0236 -0.5669
  407MOL0     C54828  -0.034   6.345   8.228 -0.2192 -0.3040 -0.6540
  407MOL0     C54829  -0.044   6.224   8.285  0.1209 -0.9277  0.1279
  407MOL0     C54830  -0.162   6.135   8.262  0.8822  0.2157  0.2405
  407MOL0     C54831  -0.198   6.094   8.117  0.7447  0.3265  0.1847
  407MOL0     C54832  -0.308   6.176   8.055 -0.9257 -0.7319  0.4517
  407MOL0     C54833  -0.344   6.116   7.918  0.0734 -0.4083 -0.9130
  407MOL0     O54834  -0.417   5.986   7.925  0.6646 -0.2317 -0.1075
  407MOL0     C54835  -0.549   5.988   7.898  0.1743 -0.1074 -0.2831
  407MOL0     C54836  -0.645   5.944   7.982  0.9040 -0.2547 -0.2367
  407MOL0     C54837  -0.789   5.935   7.955 -0.7142 -0.5599  0.5096
  407MOL0     C54838  -0.875   5.904   8.074 -0.7412 -0.4960  0.0690
  407MOL0     C54839  -0.827   5.970   7.818 -0.3185  0.0060 -0.5370
  407MOL0     C54840  -0.957   5.950   7.758  0.4532 -0.5139  0.1873
  407MOL0     O54841  -0.989   6.036   7.656  0.0091  0.5294  1.0122
  407MOL0     C54842  -1.119   6.049   7.622  0.0102 -0.0863 -0.2393
  407MOL0     C54843  -1.221   6.063   7.719  0.9606 -0.0550 -0.1158
  407MOL0     C54844  -1.354   6.069   7.672  0.0952 -0.5417  0.4627
  407MOL0     C54845  -1.386   6.064   7.537 -0.7268 -0.4241  0.0641
  407MOL0     O54846  -1.519   6.078   7.507  0.3156 -0.6038  0.1793
  407MOL0     C54847  -1.547   6.122   7.368  0.5670  0.5040 -0.8484
  407MOL0     C54848  -1.694   6.170   7.363 -0.1215  0.4922 -0.5159
  407MOL0     C54849  -1.722   6.213   7.218  0.0772 -0.0910  0.6783
  407MOL0     C54850  -1.867   6.246   7.200  0.6003  0.5280 -0.8605
  407MOL0     C54851  -1.908   6.321   7.069 -0.2295  0.7172 -0.4457
  407MOL0     C54852  -2.063   6.353   7.072 -0.6516 -0.1195 -0.3845
  407MOL0     C54853  -2.164   6.270   6.989 -0.1767 -0.1910  0.2233
  407MOL0     C54854  -2.314   6.319   6.994 -1.2609 -0.7792  0.8910
  407MOL0    Cl54855  -2.397   6.246   6.860  0.0631  0.1382  0.1985
  407MOL0     C54856  -1.281   6.042   7.441  0.2098  0.1480 -0.5891
  407MOL0     C54857  -1.151   6.036   7.487 -0.8593  0.6442  0.8154
  407MOL0     O54858  -1.029   5.859   7.803  0.4235 -0.9913  0.0347
  407MOL0     C54859  -0.724   6.015   7.729 -0.7083  0.3784 -0.7592
  407MOL0     C54860  -0.599   6.034   7.774 -0.7427  0.2642  0.0928
  407MOL0     N54861   0.061   6.206   8.372 -0.0493 -0.0032 -0.3874
  407MOL0     N54862   0.149   6.305   8.369  0.6006 -0.1923  0.0694
  407MOL0     C54863   1.168   6.304   8.417  0.4681  0.1450  0.0868
  407MOL0     C54864   1.299   6.331   8.450  0.1244  0.0748 -0.9509
  407MOL0     C54865   1.647   6.545   8.635  0.3946  0.3224 -0.2708
  407MOL0     C54866   1.753   6.483   8.566 -0.0702  0.0655  0.4579
  407MOL0     C54867   1.886   6.506   8.612 -0.0376  0.0274  0.4855
  407MOL0     C54868   1.908   6.583   8.728  0.8219  0.3898 -0.1519
  407MOL0     O54869   2.036   6.600   8.773  0.2993  0.2411  0.2980
  407MOL0     C54870   2.071   6.729   8.832 -0.5034  0.1067  0.2661
  407MOL0     C54871   2.223   6.738   8.848 -0.5924  0.1899  0.1582
  407MOL0     C54872   2.301   6.739   8.719 -1.1901 -0.7592  0.1271
  407MOL0     C54873   2.360   6.876   8.690  0.7784 -0.3902  0.4359
  407MOL0     C54874   2.483   6.899   8.766  0.1813 -0.0759  0.1042
  407MOL0     C54875   2.563   6.902   8.855  0.7456 -0.2075 -0.2194
  407MOL0     C54876   1.802   6.648   8.789 -0.3326 -0.1286 -0.0054
  407MOL0     C54877   1.670   6.628   8.753  0.2154  0.0666  0.5942
  407MOL0     H54878   1.322   6.647   8.348 -0.5729 -1.4408 -2.8286
  407MOL0     H54879   1.073   6.594   8.272  1.1153  1.9072 -0.7763
  407MOL0     H54880   0.970   6.175   8.216 -2.5103 -0.0419 -0.8534
  407MOL0     H54881   0.917   6.172   8.384 -2.5115 -1.4548 -1.4533
  407MOL0     H54882   0.762   6.258   8.152 -0.9969 -1.2744  0.0545
  407MOL0     H54883   0.739   6.113   8.245  0.5263 -1.1989  0.1126
  407MOL0     H54884   0.684   6.244   8.451 -1.3480  1.4900  0.0383
  407MOL0     H54885   0.722   6.401   8.376  0.5449  0.7049  3.5497
  407MOL0     H54886   0.529   6.222   8.246  0.5086 -0.6411  1.2012
  407MOL0     H54887   0.460   6.309   8.382  1.3271 -1.5287  2.4947
  407MOL0     H54888   0.548   6.523   8.236 -0.3695  0.0468 -0.6142
  407MOL0     H54889   0.565   6.409   8.109 -0.0328 -1.1132 -0.9363
  407MOL0     H54890   0.380   6.486   8.059  1.4447 -1.3129 -0.1504
  407MOL0     H54891   0.313   6.347   8.161  2.4440 -1.6800  0.5428
  407MOL0     H54892   0.335   6.509   8.356  3.7968 -0.9061 -1.7734
  407MOL0     H54893   0.337   6.631   8.236 -0.2185  0.3319 -1.4421
  407MOL0     H54894   0.121   6.523   8.138 -2.9189  0.7668  1.5129
  407MOL0     H54895   0.095   6.605   8.289 -1.2639  0.4055 -1.6923
  407MOL0     H54896  -0.103   6.413   8.178  0.4918 -0.3586 -1.7284
  407MOL0     H54897  -0.159   6.046   8.326 -1.8504  1.8464  2.9078
  407MOL0     H54898  -0.250   6.193   8.292 -1.6123 -2.9725 -0.4071
  407MOL0     H54899  -0.243   5.994   8.126 -0.1626  0.6897 -0.1726
  407MOL0     H54900  -0.109   6.092   8.054 -0.0237 -2.9490 -1.0138
  407MOL0     H54901  -0.268   6.275   8.031 -1.6501 -0.9362 -1.9379
  407MOL0     H54902  -0.397   6.184   8.119  0.8988 -0.5220  3.1179
  407MOL0     H54903  -0.250   6.083   7.873  0.4724 -2.2516  1.0752
  407MOL0     H54904  -0.390   6.194   7.857  1.3897  0.3867 -0.9047
  407MOL0     H54905  -0.610   5.923   8.082  0.3832  0.0777  0.0157
  407MOL0     H54906  -0.860   5.801   8.107  2.9397 -0.4489 -0.9958
  407MOL0     H54907  -0.850   5.977   8.152  0.0669  0.2813 -0.8855
  407MOL0     H54908  -0.976   5.929   8.040 -0.4209  0.9462  0.1186
  407MOL0     H54909  -1.205   6.065   7.826 -2.6105  0.1648  0.5498
  407MOL0     H54910  -1.423   6.106   7.747 -0.7104  1.5039 -1.1702
  407MOL0     H54911  -1.481   6.201   7.329 -0.3131  1.4451 -0.4964
  407MOL0     H54912  -1.537   6.037   7.301  1.5325  1.0561 -1.4315
  407MOL0     H54913  -1.763   6.089   7.389  0.3412  0.1424 -0.3735
  407MOL0     H54914  -1.716   6.253   7.430  2.0803  1.3330 -0.7680
  407MOL0     H54915  -1.696   6.138   7.143  3.3057 -0.1132  1.6612
  407MOL0     H54916  -1.663   6.302   7.197  1.9033 -0.9193  1.9737
  407MOL0     H54917  -1.917   6.149   7.204  0.5350  0.5438 -1.2385
  407MOL0     H54918  -1.910   6.303   7.283 -1.1185 -0.1840 -1.2249
  407MOL0     H54919  -1.881   6.264   6.979  2.1509 -0.7437  1.0811
  407MOL0     H54920  -1.852   6.415   7.076  0.4376  0.2394  1.0252
  407MOL0     H54921  -2.090   6.350   7.178 -0.8733 -0.8653 -0.4565
  407MOL0     H54922  -2.070   6.457   7.039 -0.8329 -0.1810 -0.5469
  407MOL0     H54923  -2.152   6.165   7.019  1.7288 -0.4469 -1.3076
  407MOL0     H54924  -2.128   6.285   6.887  1.8748  4.9312  1.4088
  407MOL0     H54925  -2.320   6.427   6.981  1.7789 -0.8716 -3.2797
  407MOL0     H54926  -2.357   6.280   7.087  1.2388  0.7489  2.8287
  407MOL0     H54927  -1.298   6.032   7.334  2.3144  2.1300 -1.1757
  407MOL0     H54928  -1.081   6.005   7.411 -0.8972 -1.7961  1.6784
  407MOL0     H54929  -0.746   6.034   7.624 -1.4370 -0.7630 -0.8307
  407MOL0     H54930  -0.530   6.053   7.693  0.0405  0.3552  0.7721
  407MOL0     H54931   1.133   6.204   8.438 -1.5144  1.0442  1.4511
  407MOL0     H54932   1.355   6.259   8.509 -0.0351 -0.2269 -1.1658
  407MOL0     H54933   1.744   6.426   8.474  1.4319 -2.8912  1.9779
  407MOL0     H54934   1.977   6.486   8.556 -0.2327 -0.2165  0.2525
  407MOL0     H54935   2.038   6.812   8.769  1.0459 -0.3950 -1.2924
  407MOL0     H54936   2.037   6.739   8.936  1.3806  0.4335  0.8951
  407MOL0     H54937   2.260   6.656   8.909  0.4946 -1.5929 -2.6723
  407MOL0     H54938   2.250   6.828   8.903  0.2688  1.3180 -1.9693
  407MOL0     H54939   2.226   6.714   8.644 -1.6594  2.1564 -0.4850
  407MOL0     H54940   2.384   6.669   8.735 -0.4404  0.6483  3.0307
  407MOL0     H54941   2.283   6.951   8.712  0.8179 -0.1038 -0.3613
  407MOL0     H54942   2.367   6.890   8.582  0.1960 -0.1806  0.4201
  407MOL0     H54943   2.631   6.916   8.937 -1.8955 -2.4832  2.6555
  407MOL0     H54944   1.817   6.715   8.873  0.3416  1.2658 -1.1844
  407MOL0     H54945   1.594   6.693   8.797 -2.7467  0.6005 -4.4331
  408MOL0     O54946   5.256   8.335   7.606 -0.4047  0.3335 -0.0922
  408MOL0     C54947   5.306   8.393   7.512 -0.1379 -0.1152  0.0713
  408MOL0     O54948   5.230   8.432   7.395 -0.1303  0.9829  0.5207
  408MOL0     C54949   5.103   8.373   7.398 -0.4551 -0.2782 -0.1458
  408MOL0     C54950   5.003   8.439   7.470  0.1203 -0.0237  1.0068
  408MOL0     C54951   4.869   8.391   7.458  0.4648 -0.1489  0.1817
  408MOL0     C54952   4.836   8.280   7.384  0.1058  0.1561  0.4956
  408MOL0     O54953   4.719   8.217   7.405  0.3918 -0.7746 -1.2583
  408MOL0     C54954   4.656   8.128   7.312 -0.0752  0.1790 -0.3302
  408MOL0     C54955   4.659   8.164   7.157  0.4738 -0.0552  0.8351
  408MOL0     C54956   4.588   8.293   7.127  0.5967  0.5877  0.0956
  408MOL0     C54957   4.568   8.314   6.975 -0.1490  0.3367 -0.1265
  408MOL0     C54958   4.501   8.452   6.944 -0.4874  0.1886  0.7843
  408MOL0     C54959   4.360   8.466   6.993  0.3583 -0.2177 -0.6539
  408MOL0     C54960   4.260   8.362   6.941  0.4431  0.0547  0.1963
  408MOL0     C54961   4.118   8.378   6.987 -0.0757 -0.2602  0.6710
  408MOL0     N54962   4.016   8.286   6.919  0.5843  0.3366 -0.0317
  408MOL0     C54963   3.924   8.210   6.997  0.6486 -0.5873 -0.0321
  408MOL0     C54964   3.850   8.138   6.908 -0.0250  0.1398 -0.2187
  408MOL0     C54965   3.722   8.063   6.934  0.3857 -0.8174 -0.4983
  408MOL0     C54966   3.613   8.161   6.995  0.3225  1.1720  0.3057
  408MOL0     C54967   3.479   8.090   7.001 -0.3027 -0.1957 -0.4033
  408MOL0     C54968   3.398   8.097   6.871 -0.6643 -0.6224  0.1054
  408MOL0     O54969   3.269   8.056   6.902 -0.0525  0.0163  0.3025
  408MOL0     C54970   3.155   8.132   6.870  0.3405 -0.4854  0.9843
  408MOL0     C54971   3.161   8.275   6.878  0.5413  0.7751 -0.4962
  408MOL0     C54972   3.043   8.344   6.855 -0.2593  0.0322 -0.5485
  408MOL0     C54973   3.045   8.495   6.876 -0.0297 -0.3057 -0.1351
  408MOL0     C54974   2.926   8.281   6.817  0.0448  0.3796 -1.0788
  408MOL0     C54975   2.797   8.336   6.786 -0.4154  0.4694  0.0139
  408MOL0     O54976   2.688   8.253   6.814 -0.1548 -0.2277 -0.3223
  408MOL0     C54977   2.558   8.295   6.841 -0.1363  0.3246 -0.0173
  408MOL0     C54978   2.511   8.428   6.841 -1.0018 -0.3079 -0.0524
  408MOL0     C54979   2.370   8.447   6.840  0.3379 -0.5427 -0.4543
  408MOL0     C54980   2.284   8.338   6.848  0.1723 -0.0557 -0.5039
  408MOL0     O54981   2.147   8.340   6.848  0.0169 -0.1316  0.1715
  408MOL0     C54982   2.081   8.470   6.869 -0.1211  0.2573  0.1436
  408MOL0     C54983   1.929   8.457   6.898  0.3218  0.4198  0.9116
  408MOL0     C54984   1.853   8.362   6.806  0.4235  0.3707  0.4149
  408MOL0     C54985   1.701   8.387   6.830 -0.2146  0.1184  0.2894
  408MOL0     C54986   1.619   8.375   6.694 -0.0056 -0.8759 -0.1216
  408MOL0     C54987   1.481   8.313   6.729 -0.0235 -0.6469 -0.2160
  408MOL0     C54988   1.375   8.297   6.618 -0.6158 -0.1740  0.0085
  408MOL0     C54989   1.254   8.227   6.676  0.4785 -0.3107 -0.7708
  408MOL0    Cl54990   1.126   8.202   6.547  0.1394  0.0180 -0.2491
  408MOL0     C54991   2.333   8.207   6.858 -0.4550  0.8736 -0.2400
  408MOL0     C54992   2.469   8.193   6.864  0.2890 -0.1096 -0.2593
  408MOL0     O54993   2.784   8.452   6.745 -0.9877  0.6129  0.1027
  408MOL0     C54994   2.923   8.137   6.816  0.4693 -0.2285 -0.0550
  408MOL0     C54995   3.036   8.068   6.856 -0.1240 -0.1796 -0.2978
  408MOL0     N54996   3.901   8.161   6.781  0.2702 -0.5049  1.0902
  408MOL0     N54997   4.006   8.237   6.792  0.4760  0.2032  0.5811
  408MOL0     C54998   4.942   8.222   7.308 -0.0339  0.2645 -0.4823
  408MOL0     C54999   5.071   8.262   7.320  1.2348  0.4906 -0.3069
  408MOL0     C55000   5.441   8.440   7.541 -0.6544  0.2862  0.1557
  408MOL0     C55001   5.528   8.383   7.633  0.1031  0.2448 -0.5599
  408MOL0     C55002   5.657   8.438   7.653 -0.2813  0.8044  0.2244
  408MOL0     C55003   5.713   8.536   7.573  0.0451  0.9361  0.3730
  408MOL0     O55004   5.840   8.586   7.606  0.3579  0.6170  0.4190
  408MOL0     C55005   5.884   8.703   7.548 -0.4251 -0.0825 -0.2586
  408MOL0     C55006   5.893   8.817   7.652  0.4052  1.1047 -0.3682
  408MOL0     C55007   6.024   8.827   7.733  0.5531  0.0120 -0.6518
  408MOL0     C55008   6.145   8.856   7.655 -0.3855 -0.5919 -0.1315
  408MOL0     C55009   6.259   8.915   7.732  0.2358 -0.7816  0.2407
  408MOL0     C55010   6.342   8.972   7.802  0.3676 -0.4792  0.0002
  408MOL0     C55011   5.630   8.582   7.460  0.1183 -0.0186 -0.2660
  408MOL0     C55012   5.499   8.539   7.450  0.2851  0.6858  0.6102
  408MOL0     H55013   5.020   8.519   7.541 -2.4859  3.1579 -1.6417
  408MOL0     H55014   4.795   8.434   7.524 -0.6633 -0.6101 -0.7336
  408MOL0     H55015   4.687   8.024   7.328 -2.3299 -0.3310  1.1480
  408MOL0     H55016   4.550   8.119   7.333 -0.3024 -0.1622 -1.5296
  408MOL0     H55017   4.761   8.183   7.124  0.4159  0.9736  1.2042
  408MOL0     H55018   4.611   8.085   7.099 -0.0129  1.1508 -0.4802
  408MOL0     H55019   4.485   8.288   7.163  0.7187  1.0979  0.5379
  408MOL0     H55020   4.628   8.387   7.167 -1.7706  1.0933  1.4787
  408MOL0     H55021   4.672   8.312   6.938 -0.2333  1.2160 -0.4256
  408MOL0     H55022   4.507   8.234   6.932  0.0799 -1.1709  2.1583
  408MOL0     H55023   4.572   8.531   6.969 -1.5772  1.0937  1.1086
  408MOL0     H55024   4.501   8.460   6.835  0.8004  0.2812  0.7798
  408MOL0     H55025   4.362   8.463   7.102 -1.7588  1.7155 -0.4902
  408MOL0     H55026   4.332   8.566   6.959  3.2021  0.0634 -2.5068
  408MOL0     H55027   4.262   8.376   6.832 -1.5627 -0.2334  0.0954
  408MOL0     H55028   4.293   8.260   6.960  1.8696  0.2414 -1.0933
  408MOL0     H55029   4.092   8.484   6.994  3.1289  0.9803 -2.8606
  408MOL0     H55030   4.115   8.335   7.087 -2.0145  1.0781  1.2598
  408MOL0     H55031   3.910   8.222   7.103  0.7460  1.2936 -0.2008
  408MOL0     H55032   3.675   8.024   6.844  0.0092  1.8779 -1.5563
  408MOL0     H55033   3.758   7.979   6.994  0.3157 -1.2277 -1.0303
  408MOL0     H55034   3.597   8.252   6.936  2.9197  0.3634 -1.8761
  408MOL0     H55035   3.636   8.201   7.094 -1.7703  2.2644  0.4069
  408MOL0     H55036   3.411   8.128   7.078  0.6808  1.5480 -0.3511
  408MOL0     H55037   3.489   7.985   7.029 -0.4601  0.0879  0.7431
  408MOL0     H55038   3.443   8.020   6.807 -0.1691  1.0894 -1.6965
  408MOL0     H55039   3.413   8.188   6.813 -2.2003 -0.9640 -0.8841
  408MOL0     H55040   3.250   8.327   6.909  0.1669 -0.9233  4.2474
  408MOL0     H55041   2.987   8.528   6.962 -1.0054  1.6655 -1.4771
  408MOL0     H55042   3.143   8.541   6.891 -0.2378 -0.5796  2.7418
  408MOL0     H55043   2.998   8.545   6.791 -3.0715  1.2459  2.2916
  408MOL0     H55044   2.570   8.516   6.817 -3.0190  1.1231  0.0002
  408MOL0     H55045   2.330   8.548   6.839  3.5278  0.8356 -0.9735
  408MOL0     H55046   2.126   8.509   6.961  1.2466  2.1467 -1.2417
  408MOL0     H55047   2.102   8.534   6.783 -0.0897 -1.4252 -1.1334
  408MOL0     H55048   1.921   8.412   6.998 -0.4243 -2.0348 -0.1797
  408MOL0     H55049   1.887   8.558   6.887 -0.4639 -0.1718 -2.7955
  408MOL0     H55050   1.884   8.258   6.819  2.9745  0.7033 -1.9363
  408MOL0     H55051   1.892   8.388   6.707 -0.7866  0.1561 -0.1311
  408MOL0     H55052   1.673   8.303   6.894  2.1604 -1.0936 -0.1400
  408MOL0     H55053   1.687   8.488   6.869 -0.8119  0.4805 -0.8377
  408MOL0     H55054   1.675   8.295   6.645 -1.3961 -1.5612 -0.6512
  408MOL0     H55055   1.613   8.462   6.627  1.7606  0.4896  1.3915
  408MOL0     H55056   1.492   8.220   6.786  3.1238 -1.1295 -1.4317
  408MOL0     H55057   1.444   8.392   6.794  1.5981  1.2403 -1.4965
  408MOL0     H55058   1.407   8.231   6.537 -0.0433  1.2866 -1.0125
  408MOL0     H55059   1.358   8.395   6.571  0.8333  1.2552  2.2552
  408MOL0     H55060   1.211   8.284   6.759  1.1297 -0.3558 -0.3968
  408MOL0     H55061   1.277   8.127   6.716 -0.4056 -0.9146 -1.7374
  408MOL0     H55062   2.256   8.131   6.850 -1.1905  1.6766 -1.0000
  408MOL0     H55063   2.527   8.102   6.877  3.6431  2.1760  2.5273
  408MOL0     H55064   2.836   8.078   6.788  1.7158 -1.2487 -2.0974
  408MOL0     H55065   3.049   7.960   6.865 -3.6411 -0.6512  0.7497
  408MOL0     H55066   4.935   8.122   7.267  1.6493  0.6038 -1.7165
  408MOL0     H55067   5.143   8.216   7.253 -0.3999 -1.7800 -0.6204
  408MOL0     H55068   5.491   8.305   7.698 -0.2197 -0.6915 -1.8333
  408MOL0     H55069   5.702   8.407   7.747 -0.0989 -2.0573 -0.7120
  408MOL0     H55070   5.987   8.704   7.513  0.7340  0.6637  2.8637
  408MOL0     H55071   5.821   8.739   7.466 -0.3548  0.2438 -0.1679
  408MOL0     H55072   5.805   8.815   7.717 -0.0484 -1.7902 -0.9538
  408MOL0     H55073   5.880   8.905   7.588 -0.9114  0.7810 -0.5832
  408MOL0     H55074   6.041   8.732   7.784 -2.2001  0.5646  1.5359
  408MOL0     H55075   6.000   8.888   7.820  2.1623 -2.3104  1.5882
  408MOL0     H55076   6.120   8.925   7.573 -0.5778 -0.1677  0.2786
  408MOL0     H55077   6.189   8.765   7.614  0.5367 -1.8807  3.3620
  408MOL0     H55078   6.415   9.019   7.865 -0.4890  1.1379 -0.1510
  408MOL0     H55079   5.670   8.654   7.388  2.0917 -0.1281  0.6659
  408MOL0     H55080   5.450   8.565   7.357  2.3337  0.5004 -0.5748
  409MOL0     O55081   7.128   6.446   2.438 -0.3959  0.8556 -0.3499
  409MOL0     C55082   7.176   6.383   2.535 -0.3040 -0.0593  0.2228
  409MOL0     O55083   7.121   6.268   2.587 -0.6074  0.0774  0.2979
  409MOL0     C55084   7.019   6.205   2.524 -0.1653  0.0721 -0.9079
  409MOL0     C55085   6.882   6.238   2.542 -0.0904 -0.2528 -0.4131
  409MOL0     C55086   6.785   6.180   2.460  0.3923  0.5298 -0.2295
  409MOL0     C55087   6.814   6.096   2.360 -0.3788  0.6992  0.1206
  409MOL0     O55088   6.707   6.035   2.304  0.1075 -0.4140  0.6854
  409MOL0     C55089   6.721   5.967   2.180 -0.0516  0.2398  0.4540
  409MOL0     C55090   6.586   5.911   2.140 -0.4735 -0.0813 -0.1671
  409MOL0     C55091   6.498   6.028   2.113  0.2374 -0.1919 -0.5929
  409MOL0     C55092   6.350   5.972   2.086 -0.7324 -0.1921  0.0754
  409MOL0     C55093   6.258   6.094   2.040 -0.1419 -0.3098  1.0489
  409MOL0     C55094   6.270   6.138   1.894 -0.3002  0.3480 -0.9828
  409MOL0     C55095   6.188   6.262   1.861 -0.3414  0.7026  0.1159
  409MOL0     C55096   6.257   6.389   1.895 -0.2491  0.3684 -0.7328
  409MOL0     N55097   6.193   6.517   1.854 -0.5706  0.6909  0.5734
  409MOL0     C55098   6.062   6.545   1.865 -0.4459  0.2115  0.3597
  409MOL0     C55099   6.046   6.665   1.808 -0.9276 -0.1768  1.1090
  409MOL0     C55100   5.917   6.735   1.764 -1.0646 -0.5214 -0.6916
  409MOL0     C55101   5.851   6.814   1.886  0.9779 -1.2701  0.7258
  409MOL0     C55102   5.747   6.733   1.958 -0.1905 -0.3603 -0.2772
  409MOL0     C55103   5.685   6.801   2.074  0.1958  1.3379 -0.2523
  409MOL0     O55104   5.667   6.943   2.058  0.5457  0.8745  0.5292
  409MOL0     C55105   5.546   6.979   2.012 -0.1486 -0.2704  1.4355
  409MOL0     C55106   5.430   6.901   1.987  0.4139 -0.7024 -0.4266
  409MOL0     C55107   5.304   6.958   1.949  0.5953  0.3135 -0.4775
  409MOL0     C55108   5.186   6.862   1.932  0.3882 -0.0992 -0.2608
  409MOL0     C55109   5.291   7.100   1.933  0.7917  0.3452  0.3584
  409MOL0     C55110   5.167   7.176   1.890 -1.4416  0.1562 -0.6529
  409MOL0     O55111   5.177   7.307   1.873 -0.0188 -0.8176  0.5726
  409MOL0     C55112   5.061   7.375   1.868  0.1479 -0.0595 -0.7202
  409MOL0     C55113   4.991   7.390   1.985  0.4389  0.7385 -0.8720
  409MOL0     C55114   4.868   7.451   1.984 -0.2548  0.4290  0.1438
  409MOL0     C55115   4.806   7.481   1.869  0.4137  0.7935  0.6427
  409MOL0     O55116   4.677   7.531   1.866  0.0610 -0.1168  0.7973
  409MOL0     C55117   4.581   7.523   1.979  0.4422 -0.2028 -0.5376
  409MOL0     C55118   4.435   7.544   1.936 -0.3166  0.3212  0.0616
  409MOL0     C55119   4.378   7.453   1.829 -0.2695  0.1844  0.3581
  409MOL0     C55120   4.227   7.473   1.823  0.0045  0.5254  0.3322
  409MOL0     C55121   4.172   7.360   1.731 -0.2016  0.1269 -0.6888
  409MOL0     C55122   4.027   7.371   1.704 -0.2328  1.0152  0.6126
  409MOL0     C55123   3.990   7.250   1.616  0.2632  0.4384  0.0169
  409MOL0     C55124   3.848   7.261   1.572  0.1439 -1.0432 -0.4307
  409MOL0    Cl55125   3.745   7.253   1.717 -0.2732 -0.3682 -0.1584
  409MOL0     C55126   4.870   7.457   1.749  0.6559  0.6407 -0.2911
  409MOL0     C55127   4.999   7.413   1.746  0.1909 -0.3114 -0.5883
  409MOL0     O55128   5.065   7.105   1.872  0.8452  0.1837  0.4253
  409MOL0     C55129   5.408   7.172   1.948  0.1025 -0.2299  0.0122
  409MOL0     C55130   5.525   7.113   1.993 -0.9938 -0.0640 -0.1701
  409MOL0     N55131   6.168   6.701   1.762  1.0257 -0.3538  0.9392
  409MOL0     N55132   6.260   6.620   1.793 -0.6159 -0.2547 -0.1304
  409MOL0     C55133   6.949   6.063   2.332 -0.4754 -0.3611 -0.4775
  409MOL0     C55134   7.050   6.119   2.416 -0.0140 -0.3958  0.1477
  409MOL0     C55135   7.309   6.417   2.590 -0.3995  0.8869  0.8347
  409MOL0     C55136   7.347   6.362   2.714 -0.7323 -0.0146 -0.6834
  409MOL0     C55137   7.470   6.407   2.768 -0.2252 -0.0365 -0.5801
  409MOL0     C55138   7.557   6.492   2.704 -0.1826  0.0530 -0.0737
  409MOL0     O55139   7.680   6.501   2.758  0.4652 -0.3697  0.4543
  409MOL0     C55140   7.736   6.637   2.755  0.2964  0.5162 -0.1592
  409MOL0     C55141   7.867   6.643   2.833 -0.0193  0.3539  0.0307
  409MOL0     C55142   7.835   6.650   2.986  0.2686  0.7162  0.7650
  409MOL0     C55143   7.938   6.742   3.060 -0.7997  0.6849  0.2273
  409MOL0     C55144   7.891   6.752   3.200  1.1019 -0.5875  0.3727
  409MOL0     C55145   7.856   6.746   3.317  0.0957  0.4339 -0.1199
  409MOL0     C55146   7.515   6.547   2.585 -0.6006  0.0795 -0.2346
  409MOL0     C55147   7.392   6.507   2.523 -1.4403 -0.7221 -0.1020
  409MOL0     H55148   6.858   6.323   2.606  1.8623  1.4056 -1.7455
  409MOL0     H55149   6.680   6.209   2.464  0.6987  1.9588 -1.7301
  409MOL0     H55150   6.760   6.025   2.096  0.2448 -0.7859 -0.1333
  409MOL0     H55151   6.786   5.881   2.198  0.4979  0.8545  1.4841
  409MOL0     H55152   6.587   5.838   2.059  0.3316  2.0353 -2.1506
  409MOL0     H55153   6.539   5.868   2.230 -0.6716 -0.7033 -0.5589
  409MOL0     H55154   6.489   6.093   2.200 -2.1039 -2.9372  1.3952
  409MOL0     H55155   6.539   6.072   2.022 -0.3030  1.3182 -0.1354
  409MOL0     H55156   6.351   5.906   2.000 -2.7392  3.2143 -2.8502
  409MOL0     H55157   6.300   5.926   2.172  0.1822 -0.0671  0.6846
  409MOL0     H55158   6.155   6.062   2.057 -0.2834 -1.5575 -1.6404
  409MOL0     H55159   6.277   6.173   2.113  3.0640 -1.5574  1.7300
  409MOL0     H55160   6.377   6.147   1.878  0.0464 -2.7035 -0.9080
  409MOL0     H55161   6.225   6.056   1.838 -0.9494  1.6472 -2.4539
  409MOL0     H55162   6.159   6.253   1.756  3.4046  0.0569 -1.0214
  409MOL0     H55163   6.096   6.254   1.920 -0.6694 -3.8809 -0.6803
  409MOL0     H55164   6.362   6.379   1.866  0.5117  0.4859  1.7528
  409MOL0     H55165   6.269   6.385   2.004  1.8291  2.1289 -0.8217
  409MOL0     H55166   5.992   6.475   1.909 -0.5907 -1.4740 -2.3246
  409MOL0     H55167   5.940   6.801   1.679 -0.3718 -0.7000 -0.6553
  409MOL0     H55168   5.845   6.670   1.714 -0.6091 -0.6612 -1.1731
  409MOL0     H55169   5.818   6.915   1.858  1.5444 -1.0491  0.8377
  409MOL0     H55170   5.927   6.840   1.961  0.4975  1.3719  0.4043
  409MOL0     H55171   5.795   6.639   1.986 -0.6680 -0.0942  1.5254
  409MOL0     H55172   5.670   6.704   1.885 -1.3763 -1.1328  1.2261
  409MOL0     H55173   5.756   6.786   2.155 -0.3047 -2.8990 -0.3602
  409MOL0     H55174   5.596   6.746   2.106  0.5166  1.2689  0.5328
  409MOL0     H55175   5.442   6.794   1.994 -0.7970 -0.8215  0.1637
  409MOL0     H55176   5.144   6.873   1.831 -0.9407 -0.3319  0.2460
  409MOL0     H55177   5.230   6.764   1.950 -2.0276 -1.8362 -2.9179
  409MOL0     H55178   5.112   6.882   2.009  0.2071  3.0941 -1.0791
  409MOL0     H55179   5.024   7.337   2.074 -2.1930  0.3832 -0.0426
  409MOL0     H55180   4.814   7.456   2.078 -3.2277 -1.1860 -1.2991
  409MOL0     H55181   4.585   7.426   2.030 -0.0483  0.8361  1.5991
  409MOL0     H55182   4.592   7.600   2.057 -0.8065 -0.5072 -0.0296
  409MOL0     H55183   4.368   7.546   2.022 -0.4860 -2.1616  0.0555
  409MOL0     H55184   4.427   7.647   1.900 -0.8836  0.6189  1.0253
  409MOL0     H55185   4.405   7.349   1.845  2.9010  1.1263  2.0572
  409MOL0     H55186   4.418   7.475   1.729 -0.1028 -2.1822 -0.1381
  409MOL0     H55187   4.186   7.457   1.923  0.3924 -0.2792  0.3711
  409MOL0     H55188   4.186   7.571   1.800  0.2351  0.6489  0.4389
  409MOL0     H55189   4.195   7.271   1.790  1.6955  1.5500  0.8660
  409MOL0     H55190   4.225   7.345   1.637  0.6221  0.9518 -0.3671
  409MOL0     H55191   3.971   7.368   1.798 -3.6761  0.0588 -1.3077
  409MOL0     H55192   4.030   7.466   1.650 -0.5615 -0.2882 -1.8315
  409MOL0     H55193   4.015   7.164   1.678 -0.4301 -0.6971 -1.2186
  409MOL0     H55194   4.051   7.244   1.525  1.1592 -0.4187  0.6536
  409MOL0     H55195   3.813   7.194   1.493  1.9728 -1.4871 -0.9089
  409MOL0     H55196   3.832   7.357   1.522 -0.9065 -1.3877 -0.7816
  409MOL0     H55197   4.819   7.481   1.656  0.2345 -0.9022 -0.4768
  409MOL0     H55198   5.053   7.398   1.652 -0.1656 -3.3188 -0.4087
  409MOL0     H55199   5.408   7.279   1.933 -1.1546 -0.3327 -0.8490
  409MOL0     H55200   5.617   7.170   2.006 -1.3867  0.7518 -0.8898
  409MOL0     H55201   6.970   5.996   2.250 -3.6338  1.3618 -2.9331
  409MOL0     H55202   7.152   6.094   2.389 -1.3137 -2.8061 -3.0803
  409MOL0     H55203   7.282   6.288   2.759  1.3475 -0.6604  1.4841
  409MOL0     H55204   7.502   6.360   2.861  1.3164  2.6422  0.3447
  409MOL0     H55205   7.744   6.681   2.655  3.0239 -0.3497 -0.4069
  409MOL0     H55206   7.655   6.696   2.799 -0.1855  0.3946 -0.8560
  409MOL0     H55207   7.917   6.735   2.803 -2.2691  1.6125 -0.1111
  409MOL0     H55208   7.934   6.560   2.809  0.7481  1.5474 -2.2123
  409MOL0     H55209   7.842   6.550   3.030  0.5267  0.2980 -0.1910
  409MOL0     H55210   7.736   6.693   2.998  0.1307  0.1309  1.8402
  409MOL0     H55211   7.941   6.844   3.019  0.2299  1.4484  2.1057
  409MOL0     H55212   8.038   6.699   3.059 -0.2016  1.9632 -1.6849
  409MOL0     H55213   7.820   6.751   3.418 -0.5706 -0.0673 -0.3283
  409MOL0     H55214   7.581   6.622   2.542 -0.9328  0.2911 -0.3747
  409MOL0     H55215   7.360   6.546   2.427  0.4786 -3.5142 -2.0428
  410MOL0     O55216   6.954   7.430   4.172  0.1695 -1.1918  0.5091
  410MOL0     C55217   6.979   7.555   4.169  0.4474  0.3256 -0.4540
  410MOL0     O55218   7.093   7.619   4.118 -0.3426 -0.0541  0.1020
  410MOL0     C55219   7.191   7.536   4.063 -0.2398 -0.2544  0.4451
  410MOL0     C55220   7.185   7.484   3.935 -0.2766  0.0055  0.3750
  410MOL0     C55221   7.285   7.406   3.885  0.2679  0.3028 -0.0124
  410MOL0     C55222   7.407   7.390   3.950  0.7448 -0.3881  0.2322
  410MOL0     O55223   7.509   7.326   3.879 -0.4625  0.4613 -0.3884
  410MOL0     C55224   7.645   7.325   3.938 -0.4048 -0.6444  0.2042
  410MOL0     C55225   7.714   7.241   3.838  0.1227  1.2101 -0.7454
  410MOL0     C55226   7.801   7.128   3.904 -1.0682 -0.6486 -0.5854
  410MOL0     C55227   7.733   7.023   3.995 -0.3025 -0.5060 -0.8190
  410MOL0     C55228   7.837   6.941   4.074 -0.6643  0.5195  0.4017
  410MOL0     C55229   7.765   6.851   4.182 -0.1720  0.1067 -0.1027
  410MOL0     C55230   7.865   6.737   4.232 -0.3041 -0.5877 -0.4353
  410MOL0     C55231   7.793   6.616   4.302  0.9991  0.2957 -0.6693
  410MOL0     N55232   7.701   6.662   4.409 -0.9305  0.6635 -0.1964
  410MOL0     C55233   7.732   6.725   4.524 -0.4762  0.8088 -0.1568
  410MOL0     C55234   7.623   6.762   4.588 -0.3282  0.0591  0.5175
  410MOL0     C55235   7.611   6.825   4.725 -0.0208 -0.2968 -1.3119
  410MOL0     C55236   7.484   6.910   4.734  0.1902 -1.4466 -0.4776
  410MOL0     C55237   7.484   6.999   4.858 -0.2792 -0.2274  0.2729
  410MOL0     C55238   7.365   7.094   4.882 -0.5558 -0.2964 -0.3499
  410MOL0     O55239   7.240   7.021   4.873  0.7691 -0.1351  0.7376
  410MOL0     C55240   7.129   7.088   4.910  0.0124 -0.4763  0.2452
  410MOL0     C55241   7.081   7.062   5.035  0.2786  0.1494  0.5142
  410MOL0     C55242   6.985   7.142   5.098 -0.1526  0.5726 -0.3556
  410MOL0     C55243   6.977   7.123   5.249 -0.4275 -0.0689  1.0102
  410MOL0     C55244   6.909   7.237   5.019  0.1448 -0.2693  0.0012
  410MOL0     C55245   6.787   7.307   5.075 -0.2579  0.3041  0.2333
  410MOL0     O55246   6.760   7.422   5.006 -0.5541  0.2465 -0.1011
  410MOL0     C55247   6.660   7.489   5.050  0.7611 -0.5655  0.5494
  410MOL0     C55248   6.539   7.453   4.990  0.4849 -0.5009  0.3865
  410MOL0     C55249   6.420   7.497   5.042 -0.5702 -0.6077 -1.0640
  410MOL0     C55250   6.422   7.602   5.135 -0.0526 -0.2040 -0.0969
  410MOL0     O55251   6.306   7.661   5.170  0.6527  0.5596 -0.1008
  410MOL0     C55252   6.300   7.807   5.164 -0.3764 -0.3914 -0.3210
  410MOL0     C55253   6.274   7.845   5.309  0.5675  0.1290 -0.2275
  410MOL0     C55254   6.207   7.987   5.310  0.2363 -0.3368 -0.6940
  410MOL0     C55255   6.059   7.983   5.261 -0.4113 -0.0178 -0.0788
  410MOL0     C55256   5.968   8.108   5.291 -0.3505 -0.0677  0.0146
  410MOL0     C55257   5.943   8.123   5.433  0.2433  0.2077  0.5434
  410MOL0     C55258   5.861   8.247   5.461 -0.4020 -0.1192 -0.3348
  410MOL0     C55259   5.873   8.284   5.606  1.0411  0.6436 -1.2977
  410MOL0    Cl55260   5.776   8.441   5.620 -0.0432 -0.0466  0.3066
  410MOL0     C55261   6.550   7.646   5.189  0.4400  0.8778 -0.4295
  410MOL0     C55262   6.669   7.579   5.155 -0.0629 -0.2125  0.6546
  410MOL0     O55263   6.728   7.261   5.168  0.3545  0.0347  0.6389
  410MOL0     C55264   6.950   7.251   4.890 -0.7666 -0.0006  0.2667
  410MOL0     C55265   7.064   7.188   4.836 -0.6109  0.0579  0.2897
  410MOL0     N55266   7.520   6.725   4.507 -0.2400 -0.6497 -0.4533
  410MOL0     N55267   7.560   6.658   4.403 -0.1619  0.1949 -0.0496
  410MOL0     C55268   7.417   7.439   4.084  0.3059  0.1696  0.3948
  410MOL0     C55269   7.305   7.508   4.130 -0.3410 -0.2154 -0.6843
  410MOL0     C55270   6.874   7.633   4.248 -0.5459 -0.3064 -0.0269
  410MOL0     C55271   6.872   7.775   4.243  1.3181  0.0608  0.3585
  410MOL0     C55272   6.758   7.843   4.303 -0.4156  1.6280 -0.5481
  410MOL0     C55273   6.660   7.769   4.366 -1.2391  0.1607 -0.2110
  410MOL0     O55274   6.573   7.842   4.435  0.2958  0.3055  0.5383
  410MOL0     C55275   6.477   7.766   4.517  0.4767  0.0768  0.1035
  410MOL0     C55276   6.365   7.864   4.564  0.1297 -0.2420 -0.3175
  410MOL0     C55277   6.280   7.804   4.680 -0.0205 -1.6172  0.2499
  410MOL0     C55278   6.346   7.825   4.814  0.2526  0.1336 -0.5892
  410MOL0     C55279   6.321   7.960   4.872  1.1477  0.2482 -0.0061
  410MOL0     C55280   6.295   8.071   4.917  0.9343  0.2856  0.3510
  410MOL0     C55281   6.671   7.631   4.373 -1.1245 -0.7311  0.2086
  410MOL0     C55282   6.777   7.568   4.318  0.5089 -0.1891  0.8224
  410MOL0     H55283   7.093   7.500   3.880  0.2882  1.0276 -0.3143
  410MOL0     H55284   7.274   7.354   3.790 -1.3154  0.4000  0.0837
  410MOL0     H55285   7.691   7.424   3.947 -0.1440 -0.6516 -0.9271
  410MOL0     H55286   7.638   7.275   4.035 -0.9045 -0.8409  0.0699
  410MOL0     H55287   7.650   7.195   3.762  1.4443 -3.1073  0.4558
  410MOL0     H55288   7.781   7.305   3.780  0.3040  0.4319 -1.4043
  410MOL0     H55289   7.858   7.084   3.822  0.0086 -0.8275  0.2353
  410MOL0     H55290   7.870   7.184   3.968 -2.2085 -0.1045  0.2090
  410MOL0     H55291   7.669   7.069   4.071  1.9919 -0.2862  1.1090
  410MOL0     H55292   7.674   6.946   3.946 -0.2103 -1.8769  1.0937
  410MOL0     H55293   7.878   6.875   3.997 -3.9826  1.2551 -2.2079
  410MOL0     H55294   7.913   6.995   4.132 -1.2058 -0.1561  1.8042
  410MOL0     H55295   7.720   6.911   4.261 -2.4937  1.0449 -2.0318
  410MOL0     H55296   7.678   6.803   4.136  0.3716 -0.3112 -0.7083
  410MOL0     H55297   7.921   6.698   4.146 -1.2642 -1.2308 -0.7977
  410MOL0     H55298   7.931   6.776   4.309 -3.4801  3.4805  0.6097
  410MOL0     H55299   7.867   6.547   4.345  2.1282  2.8249  1.8245
  410MOL0     H55300   7.721   6.566   4.238 -1.0990  2.3206 -0.0161
  410MOL0     H55301   7.835   6.733   4.560 -0.7370 -1.5075  1.3313
  410MOL0     H55302   7.606   6.759   4.812  0.7276  4.0519  2.3885
  410MOL0     H55303   7.703   6.880   4.745  0.1799 -2.0860  4.7083
  410MOL0     H55304   7.395   6.847   4.740  0.3315 -1.5481  0.9765
  410MOL0     H55305   7.473   6.966   4.641  1.7099  2.9919  1.7455
  410MOL0     H55306   7.578   7.052   4.873  0.2005 -1.2238  0.8868
  410MOL0     H55307   7.484   6.925   4.939  0.7322  1.0523  1.4876
  410MOL0     H55308   7.364   7.185   4.820 -3.8170 -1.3235 -2.0142
  410MOL0     H55309   7.385   7.129   4.984 -0.1714 -1.2021 -0.1039
  410MOL0     H55310   7.129   6.986   5.096  0.4728  0.7102  1.0707
  410MOL0     H55311   6.959   7.225   5.283  1.0009 -0.4368  3.0845
  410MOL0     H55312   6.902   7.050   5.283  1.4166 -2.3997  0.3818
  410MOL0     H55313   7.071   7.079   5.283 -1.0199 -1.7859  0.5769
  410MOL0     H55314   6.534   7.382   4.908  1.9721 -2.1047  1.6178
  410MOL0     H55315   6.324   7.472   4.999 -1.3913 -0.0230  0.3416
  410MOL0     H55316   6.391   7.845   5.116  0.5006  0.4877  1.9194
  410MOL0     H55317   6.216   7.831   5.099 -0.6926 -1.1938 -0.2293
  410MOL0     H55318   6.211   7.767   5.352  2.8513 -1.4362  0.4397
  410MOL0     H55319   6.376   7.851   5.349  1.6507 -1.4888 -2.5407
  410MOL0     H55320   6.265   8.051   5.243  1.5567 -0.2173  0.5241
  410MOL0     H55321   6.215   8.038   5.407  0.7841  1.0374 -1.4326
  410MOL0     H55322   6.065   7.973   5.153  1.0695 -1.6795  0.1148
  410MOL0     H55323   6.013   7.896   5.308  1.2804 -1.0784 -0.2772
  410MOL0     H55324   5.873   8.086   5.241 -0.8505 -0.1983  0.9753
  410MOL0     H55325   6.011   8.200   5.252 -2.1672  0.4229 -0.9456
  410MOL0     H55326   5.898   8.033   5.476 -0.7435  0.4120 -0.0527
  410MOL0     H55327   6.037   8.151   5.482 -1.4612  5.2888  1.4768
  410MOL0     H55328   5.755   8.236   5.439 -0.7867  3.0138 -0.5109
  410MOL0     H55329   5.888   8.333   5.399  3.3106  0.3122  1.5980
  410MOL0     H55330   5.974   8.293   5.647  0.4369  0.6934  0.2517
  410MOL0     H55331   5.813   8.206   5.655 -0.4796  0.8391 -2.7305
  410MOL0     H55332   6.553   7.712   5.275 -0.3487 -0.9860  1.1040
  410MOL0     H55333   6.756   7.597   5.216 -1.0485  1.8939  1.5334
  410MOL0     H55334   6.900   7.311   4.815  0.1119  0.1381 -0.2249
  410MOL0     H55335   7.099   7.204   4.734  1.3896 -0.2639  0.8888
  410MOL0     H55336   7.513   7.421   4.132  0.6540 -1.8874 -0.9682
  410MOL0     H55337   7.310   7.542   4.233 -0.5305  0.5884 -0.9361
  410MOL0     H55338   6.949   7.833   4.192  1.9249 -0.4957  0.6246
  410MOL0     H55339   6.743   7.951   4.302  0.1789  1.7128 -1.1143
  410MOL0     H55340   6.426   7.706   4.441 -1.8172  1.4246  0.4665
  410MOL0     H55341   6.516   7.707   4.600  1.3544  1.7025  0.9023
  410MOL0     H55342   6.308   7.904   4.480  1.2682 -0.9280 -1.4416
  410MOL0     H55343   6.413   7.949   4.614 -0.0063  1.1332 -2.3673
  410MOL0     H55344   6.268   7.696   4.664  3.4655 -1.9687 -0.8341
  410MOL0     H55345   6.174   7.831   4.677  0.1705 -0.9301 -1.3198
  410MOL0     H55346   6.455   7.817   4.810  0.2631 -1.1456  1.2623
  410MOL0     H55347   6.307   7.748   4.881 -0.9712 -0.8746 -2.3864
  410MOL0     H55348   6.257   8.158   4.966 -1.7443 -1.8326  2.4190
  410MOL0     H55349   6.605   7.559   4.419  1.4529 -4.0641 -0.9009
  410MOL0     H55350   6.779   7.460   4.328  0.7956 -0.0699  2.1855
  411MOL0     O55351   2.127   1.560   7.141  0.1426 -0.5271  1.2703
  411MOL0     C55352   2.132   1.452   7.082  0.3190 -0.2522 -0.4279
  411MOL0     O55353   2.016   1.384   7.027 -1.0646  0.1166 -0.9800
  411MOL0     C55354   1.890   1.427   7.068 -0.1538  0.0977  0.7260
  411MOL0     C55355   1.789   1.434   6.982  0.2445 -0.3847 -0.5929
  411MOL0     C55356   1.658   1.461   7.020 -0.3284  0.6361 -0.3209
  411MOL0     C55357   1.619   1.479   7.151  0.7498 -0.4650  0.8340
  411MOL0     O55358   1.493   1.493   7.202  0.0602 -0.0277  0.0814
  411MOL0     C55359   1.394   1.534   7.116  0.7030 -0.3901  0.0661
  411MOL0     C55360   1.295   1.607   7.201  0.0239 -0.5607  0.5066
  411MOL0     C55361   1.197   1.683   7.110 -0.9326 -0.0698 -0.3821
  411MOL0     C55362   1.112   1.786   7.192 -0.3324 -0.3792  0.7460
  411MOL0     C55363   0.962   1.786   7.179  0.0681 -0.2535  0.2279
  411MOL0     C55364   0.900   1.893   7.263  0.3263  0.3272  0.0735
  411MOL0     C55365   0.748   1.891   7.262 -0.1719  0.1923 -0.0993
  411MOL0     C55366   0.673   1.763   7.311 -0.0872  0.5059  0.6475
  411MOL0     N55367   0.673   1.733   7.453 -0.7542 -0.4554  0.2360
  411MOL0     C55368   0.595   1.803   7.538  0.4672 -0.0796 -0.3946
  411MOL0     C55369   0.591   1.731   7.656 -0.5817  0.0728 -0.6401
  411MOL0     C55370   0.512   1.759   7.777 -0.1239  0.2446 -0.6165
  411MOL0     C55371   0.496   1.912   7.813 -0.8050  0.4727  0.4563
  411MOL0     C55372   0.370   1.973   7.875  0.1026 -0.2610 -0.5727
  411MOL0     C55373   0.342   1.931   8.017 -0.3375  0.1113 -0.5711
  411MOL0     O55374   0.232   2.012   8.072 -0.1993 -0.5945  0.2437
  411MOL0     C55375   0.134   1.956   8.138 -0.8719  0.7899  0.3379
  411MOL0     C55376   0.156   1.847   8.227 -0.2101 -0.5251  0.6650
  411MOL0     C55377   0.054   1.788   8.292  0.5311  0.5411 -0.4193
  411MOL0     C55378   0.075   1.671   8.379 -0.2976 -0.7378 -0.0562
  411MOL0     C55379  -0.073   1.847   8.289  0.7543 -0.5687  0.2923
  411MOL0     C55380  -0.192   1.810   8.369  0.4207 -0.7247 -0.2516
  411MOL0     O55381  -0.293   1.901   8.362  0.2478  0.3158 -0.3038
  411MOL0     C55382  -0.423   1.860   8.382  0.5530  0.3360  0.2073
  411MOL0     C55383  -0.515   1.958   8.404 -0.0306 -0.4109 -0.5039
  411MOL0     C55384  -0.651   1.929   8.408 -0.4970  0.1394 -0.2384
  411MOL0     C55385  -0.697   1.803   8.384  0.3079  0.0084  0.2136
  411MOL0     O55386  -0.839   1.784   8.373 -1.1179  0.1378 -0.5783
  411MOL0     C55387  -0.932   1.872   8.442  0.1488 -0.0669  0.0192
  411MOL0     C55388  -1.078   1.824   8.404 -0.8645 -0.0523 -0.0513
  411MOL0     C55389  -1.117   1.693   8.485 -0.1492  0.0079  0.0365
  411MOL0     C55390  -1.246   1.623   8.414 -0.4721 -0.0763  0.4594
  411MOL0     C55391  -1.193   1.494   8.352  0.9647 -0.0708 -0.1458
  411MOL0     C55392  -1.314   1.421   8.277 -0.2284  0.7538 -0.5475
  411MOL0     C55393  -1.261   1.294   8.196 -0.3035 -0.2104 -0.0136
  411MOL0     C55394  -1.220   1.178   8.290 -0.2398  0.2450  0.0021
  411MOL0    Cl55395  -1.137   1.056   8.187  0.0301  0.9054 -0.2687
  411MOL0     C55396  -0.603   1.699   8.354 -0.6937 -0.2336 -0.0742
  411MOL0     C55397  -0.462   1.725   8.354  0.6775  0.0772 -0.5145
  411MOL0     O55398  -0.193   1.710   8.446  0.0029  0.6534 -0.0161
  411MOL0     C55399  -0.086   1.971   8.211  0.3249  0.2591 -0.0496
  411MOL0     C55400   0.016   2.022   8.134 -0.2328  0.3977 -0.0075
  411MOL0     N55401   0.682   1.620   7.637  0.0064 -0.0861 -0.4098
  411MOL0     N55402   0.729   1.629   7.518  0.5752  0.7360 -0.8713
  411MOL0     C55403   1.719   1.482   7.247 -0.0306  0.2470  0.3008
  411MOL0     C55404   1.857   1.463   7.207 -0.8703  0.6441  0.8893
  411MOL0     C55405   2.266   1.399   7.059 -0.1449  1.1484 -0.1199
  411MOL0     C55406   2.383   1.475   7.071  0.3440 -0.4168  0.2774
  411MOL0     C55407   2.506   1.405   7.073  0.5454 -0.2987 -0.3959
  411MOL0     C55408   2.522   1.271   7.056 -0.4808  0.0428  0.6412
  411MOL0     O55409   2.653   1.217   7.049 -0.1866  0.2537 -0.1958
  411MOL0     C55410   2.678   1.092   6.988  0.6459  0.2591  0.1107
  411MOL0     C55411   2.821   1.077   6.926 -0.5499 -0.2188  0.1688
  411MOL0     C55412   2.846   1.193   6.824  0.1525  0.3998 -0.1420
  411MOL0     C55413   2.749   1.214   6.711 -0.0121 -0.1976  0.0621
  411MOL0     C55414   2.737   1.086   6.636  0.5134 -0.3026 -1.3158
  411MOL0     C55415   2.731   0.968   6.604 -0.5523 -0.1572 -0.3507
  411MOL0     C55416   2.402   1.200   7.045 -0.4048  0.7515  0.7326
  411MOL0     C55417   2.281   1.261   7.037 -0.0148 -0.2183  0.1073
  411MOL0     H55418   1.817   1.445   6.878 -2.5440  0.4799 -1.3302
  411MOL0     H55419   1.576   1.460   6.948 -1.1128  2.8807  0.4484
  411MOL0     H55420   1.438   1.603   7.043 -1.6022  1.7019  0.5240
  411MOL0     H55421   1.340   1.456   7.061 -2.0403  2.1762 -1.1604
  411MOL0     H55422   1.243   1.529   7.258 -0.8872 -0.9315 -0.7759
  411MOL0     H55423   1.349   1.673   7.269  2.1248 -0.9536 -0.7121
  411MOL0     H55424   1.256   1.736   7.035 -0.8889  0.6342  0.1443
  411MOL0     H55425   1.136   1.619   7.046 -2.5145  0.3152  0.6714
  411MOL0     H55426   1.148   1.772   7.295  1.2546  1.4976  0.5195
  411MOL0     H55427   1.159   1.882   7.169  1.1961 -0.9100  1.4941
  411MOL0     H55428   0.947   1.798   7.071 -4.7435  1.1742  0.8241
  411MOL0     H55429   0.918   1.692   7.212  0.9210 -1.1262 -1.0288
  411MOL0     H55430   0.930   1.879   7.367  0.3645 -0.4616 -0.0367
  411MOL0     H55431   0.938   1.987   7.221  0.2009  0.9185  1.2573
  411MOL0     H55432   0.706   1.977   7.313  0.4972 -0.4301  1.5625
  411MOL0     H55433   0.723   1.907   7.156 -1.6394  0.4281  0.2653
  411MOL0     H55434   0.707   1.675   7.255 -2.6834 -0.2432  0.1279
  411MOL0     H55435   0.570   1.766   7.275  0.6848  1.2719 -1.6610
  411MOL0     H55436   0.529   1.887   7.520  1.3915 -0.0954 -5.1590
  411MOL0     H55437   0.414   1.717   7.754  0.1865 -0.6147 -0.4068
  411MOL0     H55438   0.543   1.708   7.868 -0.3415 -2.4315 -1.9487
  411MOL0     H55439   0.502   1.967   7.719  2.7583 -1.9394 -0.9527
  411MOL0     H55440   0.588   1.945   7.861  1.2037 -2.2721 -1.1979
  411MOL0     H55441   0.280   1.945   7.819 -1.0129  0.8326  0.5988
  411MOL0     H55442   0.376   2.083   7.871 -1.7074 -0.1325 -4.1687
  411MOL0     H55443   0.439   1.941   8.066  1.0108 -1.1971 -2.7911
  411MOL0     H55444   0.308   1.827   8.006 -0.2058  0.2043 -2.1073
  411MOL0     H55445   0.254   1.805   8.246 -0.6005 -1.1856  1.2956
  411MOL0     H55446   0.173   1.631   8.350  0.9173  2.1623 -0.3037
  411MOL0     H55447   0.073   1.702   8.484  0.8128  1.3746 -0.5846
  411MOL0     H55448   0.005   1.591   8.358 -1.5906  0.3237  0.0755
  411MOL0     H55449  -0.473   2.054   8.434  2.8163 -1.3293 -1.2296
  411MOL0     H55450  -0.724   2.008   8.422 -0.8980  0.0177 -1.4630
  411MOL0     H55451  -0.907   1.868   8.548  0.7981 -0.8839 -0.1544
  411MOL0     H55452  -0.923   1.969   8.392  1.5716  0.8383  1.9237
  411MOL0     H55453  -1.146   1.900   8.444 -1.8680 -0.6274 -0.6308
  411MOL0     H55454  -1.086   1.813   8.296 -1.6076 -1.3214  0.1102
  411MOL0     H55455  -1.139   1.711   8.591 -0.0183 -0.1607  0.0917
  411MOL0     H55456  -1.028   1.633   8.466 -0.6709 -0.0095 -2.9454
  411MOL0     H55457  -1.325   1.602   8.487 -1.2911  0.0028 -0.3901
  411MOL0     H55458  -1.292   1.688   8.339  0.8356  0.7854  0.3694
  411MOL0     H55459  -1.161   1.429   8.434 -0.4250 -0.7770 -0.1169
  411MOL0     H55460  -1.109   1.517   8.287 -0.8109  0.6115 -2.3376
  411MOL0     H55461  -1.383   1.386   8.354 -0.8226 -0.9401 -1.7709
  411MOL0     H55462  -1.367   1.489   8.210 -0.1062 -0.1100 -1.5709
  411MOL0     H55463  -1.181   1.318   8.125 -0.2318  0.8974  0.4213
  411MOL0     H55464  -1.352   1.262   8.145 -0.5193 -2.0177  1.3880
  411MOL0     H55465  -1.302   1.142   8.354 -0.3074  0.4692  0.0406
  411MOL0     H55466  -1.145   1.208   8.363  2.5246 -2.3824 -1.5298
  411MOL0     H55467  -0.641   1.610   8.306 -1.2039  0.6760 -1.4255
  411MOL0     H55468  -0.399   1.641   8.326 -0.0788 -2.0667  3.4893
  411MOL0     H55469  -0.181   2.024   8.208  1.2749  1.9960 -1.1029
  411MOL0     H55470   0.011   2.102   8.061 -1.6035 -1.1416 -1.7129
  411MOL0     H55471   1.691   1.498   7.351 -0.9919 -2.8469  0.6027
  411MOL0     H55472   1.939   1.476   7.277  0.8087  1.1086 -1.0437
  411MOL0     H55473   2.390   1.583   7.085  2.4974 -0.5337  0.4229
  411MOL0     H55474   2.597   1.461   7.093 -1.4909  2.6702  1.4828
  411MOL0     H55475   2.670   1.018   7.068 -0.7454  1.6242  1.2923
  411MOL0     H55476   2.600   1.072   6.913 -2.5872  2.1496  2.6953
  411MOL0     H55477   2.846   0.985   6.874  2.0283  1.6177 -2.1301
  411MOL0     H55478   2.893   1.091   7.008 -2.7326 -0.4980  2.2427
  411MOL0     H55479   2.945   1.179   6.779  0.8537  4.8378 -0.4399
  411MOL0     H55480   2.843   1.289   6.876 -1.9234  0.2519  0.0775
  411MOL0     H55481   2.797   1.283   6.642  1.2656 -1.1457 -0.0289
  411MOL0     H55482   2.654   1.257   6.744  0.8535  0.6760  1.5106
  411MOL0     H55483   2.737   0.863   6.583 -0.8101  0.3547 -3.4228
  411MOL0     H55484   2.411   1.092   7.037  3.4268  0.6495  3.3270
  411MOL0     H55485   2.184   1.213   7.034  0.1588 -0.5409 -0.4126
  412MOL0     O55486  10.893  10.828   8.141  0.0487 -0.6763 -0.6618
  412MOL0     C55487  10.915  10.916   8.063 -0.1877  0.8180 -0.1833
  412MOL0     O55488  10.820  10.970   7.977  0.1371 -0.6284  0.8045
  412MOL0     C55489  10.699  10.924   7.945  0.4840 -0.6857 -0.8466
  412MOL0     C55490  10.634  11.009   7.863 -0.4020  0.0746  0.1805
  412MOL0     C55491  10.517  10.974   7.804  0.2720 -0.4001  0.9748
  412MOL0     C55492  10.451  10.860   7.830  0.2039 -0.9256 -0.2308
  412MOL0     O55493  10.337  10.827   7.762  0.6994  0.2865  0.7380
  412MOL0     C55494  10.228  10.918   7.769 -0.7132  0.3442  0.0352
  412MOL0     C55495  10.195  11.002   7.652 -0.4967 -0.5472 -0.6723
  412MOL0     C55496  10.195  10.930   7.523  0.8171 -0.9328  0.5421
  412MOL0     C55497  10.126  10.800   7.500  0.1741  0.0749  0.4311
  412MOL0     C55498  10.125  10.768   7.352  0.1587 -0.1406 -0.0527
  412MOL0     C55499  10.035  10.646   7.329 -1.1376 -0.1847  0.8347
  412MOL0     C55500   9.892  10.648   7.369  1.0862 -1.0717 -0.1758
  412MOL0     C55501   9.811  10.535   7.308  0.5966 -0.2638 -0.2213
  412MOL0     N55502   9.670  10.561   7.322  0.5603 -0.3379 -0.4767
  412MOL0     C55503   9.581  10.605   7.222 -0.8105  0.0241  0.0335
  412MOL0     C55504   9.468  10.640   7.285  0.2533 -0.0055  0.3194
  412MOL0     C55505   9.382  10.715   7.200 -0.0757 -0.0150  0.2161
  412MOL0     C55506   9.314  10.833   7.288 -0.4968  0.0362  0.6638
  412MOL0     C55507   9.211  10.900   7.203  0.6216 -0.4035  0.6110
  412MOL0     C55508   9.136  11.001   7.286 -0.4834 -0.7085 -0.8390
  412MOL0     O55509   9.048  10.931   7.382  0.1701 -0.4078  0.1887
  412MOL0     C55510   8.941  10.990   7.438  0.9737 -0.0115 -0.3538
  412MOL0     C55511   8.873  10.917   7.537  0.6301 -1.0687  0.3033
  412MOL0     C55512   8.761  10.971   7.597 -0.2658  0.2853  0.3068
  412MOL0     C55513   8.701  10.888   7.716  0.6474 -0.3374 -0.2968
  412MOL0     C55514   8.712  11.106   7.563  0.3623  0.4272  0.3217
  412MOL0     C55515   8.596  11.183   7.617 -0.1862  0.1474 -0.6869
  412MOL0     O55516   8.480  11.112   7.647  0.4631 -0.2611  0.3403
  412MOL0     C55517   8.397  11.159   7.737  0.8695  0.3323  0.9031
  412MOL0     C55518   8.265  11.122   7.725  0.3138  0.6878  0.2225
  412MOL0     C55519   8.172  11.158   7.824 -0.1697 -0.2944  1.1098
  412MOL0     C55520   8.207  11.242   7.936 -0.4677  0.3991  0.5312
  412MOL0     O55521   8.108  11.286   8.015 -0.1139 -0.6003 -0.1076
  412MOL0     C55522   8.120  11.410   8.085 -0.1889 -0.6679 -0.1364
  412MOL0     C55523   7.989  11.497   8.083 -0.9501  0.2916 -0.3158
  412MOL0     C55524   7.864  11.411   8.097 -0.2513  0.3231  0.3652
  412MOL0     C55525   7.741  11.505   8.075 -0.1059  0.2386  0.3884
  412MOL0     C55526   7.617  11.426   8.082 -0.0887  0.9340 -0.3597
  412MOL0     C55527   7.499  11.519   8.049 -0.4030  0.0306 -0.0743
  412MOL0     C55528   7.358  11.463   8.091 -0.0295 -0.4642  0.9262
  412MOL0     C55529   7.252  11.570   8.066  0.2457  0.0673 -0.0304
  412MOL0    Cl55530   7.228  11.615   7.893 -0.1707  0.1389  0.0050
  412MOL0     C55531   8.340  11.279   7.947 -0.2153  0.2841  0.3674
  412MOL0     C55532   8.431  11.236   7.853  0.9366 -0.4207 -0.6811
  412MOL0     O55533   8.609  11.306   7.618  0.0915 -0.2108  0.2246
  412MOL0     C55534   8.795  11.176   7.473  0.5342  0.7564 -0.1830
  412MOL0     C55535   8.900  11.121   7.407 -0.0417 -0.3895  0.0631
  412MOL0     N55536   9.485  10.627   7.423 -0.4676  0.3482  0.0089
  412MOL0     N55537   9.605  10.565   7.442  0.2372 -0.5630  0.3156
  412MOL0     C55538  10.517  10.770   7.920 -0.1943  0.2787  0.3750
  412MOL0     C55539  10.644  10.800   7.973  0.2909 -0.1524 -1.0062
  412MOL0     C55540  11.049  10.972   8.063 -0.7591  0.5434 -0.3312
  412MOL0     C55541  11.078  11.089   7.986 -0.1296 -0.0011  0.4685
  412MOL0     C55542  11.206  11.150   8.010  0.7874  0.7471  0.9554
  412MOL0     C55543  11.292  11.107   8.115  0.3248  0.3496 -0.6250
  412MOL0     O55544  11.397  11.188   8.144  0.5533  0.0255 -0.6112
  412MOL0     C55545  11.494  11.164   8.253  0.0252 -0.3116 -0.1321
  412MOL0     C55546  11.591  11.281   8.247 -0.0850  0.6548  0.5657
  412MOL0     C55547  11.519  11.412   8.282 -1.0998 -1.0263  0.3076
  412MOL0     C55548  11.607  11.543   8.290 -0.0267  0.4001 -0.1144
  412MOL0     C55549  11.711  11.527   8.391  0.1451 -0.4544  0.6261
  412MOL0     C55550  11.801  11.518   8.465  0.2275  0.1501 -0.7336
  412MOL0     C55551  11.261  10.994   8.184 -0.1303  0.0784 -0.4283
  412MOL0     C55552  11.138  10.924   8.159 -1.1857  0.5127 -0.0859
  412MOL0     H55553  10.680  11.102   7.830  2.2613 -1.1165  0.3022
  412MOL0     H55554  10.474  11.056   7.746  2.5741  1.8914  2.3102
  412MOL0     H55555  10.136  10.862   7.787  0.7657 -1.8321  1.2256
  412MOL0     H55556  10.232  10.993   7.849 -1.6737  0.7180 -0.2498
  412MOL0     H55557  10.093  11.029   7.679  0.1839  1.8574 -0.3150
  412MOL0     H55558  10.251  11.095   7.644  2.7861 -2.1331  1.4993
  412MOL0     H55559  10.158  11.002   7.449 -0.1971 -1.1885  0.7939
  412MOL0     H55560  10.301  10.916   7.498  0.6325 -1.1829 -0.1175
  412MOL0     H55561  10.182  10.719   7.548 -2.4415 -1.4205  1.1803
  412MOL0     H55562  10.024  10.805   7.539 -0.5371  0.1684 -1.3394
  412MOL0     H55563  10.092  10.852   7.291 -1.3285  0.7605  1.8775
  412MOL0     H55564  10.227  10.746   7.318  0.6114 -2.2637  2.3215
  412MOL0     H55565  10.033  10.629   7.221 -2.0820  1.5014  0.5570
  412MOL0     H55566  10.082  10.556   7.371  1.0288  2.3322  4.3209
  412MOL0     H55567   9.895  10.627   7.476  5.2043 -3.3317 -0.5493
  412MOL0     H55568   9.845  10.743   7.342 -2.9478 -2.6704  0.4983
  412MOL0     H55569   9.852  10.452   7.366  1.9220  2.0099  2.3313
  412MOL0     H55570   9.827  10.529   7.200  2.5576  0.0582  0.0032
  412MOL0     H55571   9.594  10.620   7.115 -0.4473  0.1282  0.0925
  412MOL0     H55572   9.439  10.759   7.117 -2.9120 -0.8614 -2.3953
  412MOL0     H55573   9.305  10.653   7.152 -1.0760  2.8304 -2.1783
  412MOL0     H55574   9.391  10.901   7.326  1.6936 -1.4256 -0.8832
  412MOL0     H55575   9.257  10.797   7.374  0.4349  1.8993  2.1257
  412MOL0     H55576   9.138  10.829   7.165  0.2665  1.1315 -1.7933
  412MOL0     H55577   9.260  10.945   7.116  1.4253 -2.9240 -0.3204
  412MOL0     H55578   9.071  11.060   7.220  1.1974  1.0113 -1.0198
  412MOL0     H55579   9.209  11.063   7.338  0.5338 -2.4659 -0.0862
  412MOL0     H55580   8.924  10.827   7.571 -1.9023 -1.7411  2.6983
  412MOL0     H55581   8.617  10.926   7.775  0.1486 -3.3480  1.1021
  412MOL0     H55582   8.678  10.785   7.691  2.1070 -0.9120  0.5592
  412MOL0     H55583   8.778  10.887   7.795  0.9309 -0.0746 -0.5649
  412MOL0     H55584   8.234  11.061   7.641  1.1376 -4.0983  3.0220
  412MOL0     H55585   8.067  11.134   7.814 -0.5301  1.7900 -0.6374
  412MOL0     H55586   8.149  11.391   8.189 -0.0930 -0.9044 -0.2051
  412MOL0     H55587   8.203  11.472   8.050  0.9529 -1.1718  1.5683
  412MOL0     H55588   7.992  11.576   8.158 -0.7390  0.7496 -0.8017
  412MOL0     H55589   7.988  11.549   7.986 -2.4124 -3.6746 -2.6862
  412MOL0     H55590   7.850  11.381   8.201 -2.1324  1.0476  0.3557
  412MOL0     H55591   7.860  11.332   8.021 -0.4175  2.5322 -2.0782
  412MOL0     H55592   7.729  11.588   8.145 -0.4204 -0.4568  1.1817
  412MOL0     H55593   7.747  11.542   7.972  2.1585 -1.2313 -0.0796
  412MOL0     H55594   7.610  11.402   8.188  1.4727 -0.1095 -0.4694
  412MOL0     H55595   7.619  11.330   8.030  1.9582  0.2347  0.9006
  412MOL0     H55596   7.515  11.615   8.098  0.0649 -1.0884  2.0725
  412MOL0     H55597   7.514  11.536   7.942  0.3989  1.5240  0.2453
  412MOL0     H55598   7.374  11.452   8.199 -2.0014  1.0063  1.4240
  412MOL0     H55599   7.330  11.369   8.042 -0.6233  0.7043 -1.1177
  412MOL0     H55600   7.290  11.656   8.122  0.7510 -1.7419  2.6011
  412MOL0     H55601   7.155  11.546   8.111 -0.4386  0.1481 -1.4178
  412MOL0     H55602   8.369  11.339   8.032  1.0841 -1.4617  1.2392
  412MOL0     H55603   8.535  11.266   7.864  1.4792 -2.4707  0.4586
  412MOL0     H55604   8.767  11.272   7.432  5.1196  1.8170 -1.3719
  412MOL0     H55605   8.946  11.180   7.328 -3.4490 -0.8558 -2.5299
  412MOL0     H55606  10.477  10.670   7.931  2.3121 -1.1602 -2.1081
  412MOL0     H55607  10.699  10.722   8.025 -0.7372  0.1068  0.5325
  412MOL0     H55608  11.022  11.132   7.904 -0.9329 -0.6903  0.6450
  412MOL0     H55609  11.226  11.241   7.955  0.3826  0.2684 -0.0012
  412MOL0     H55610  11.449  11.163   8.353  3.3593  0.9167  1.5525
  412MOL0     H55611  11.546  11.069   8.241 -0.4428 -0.3672 -1.9364
  412MOL0     H55612  11.636  11.276   8.147  0.0808 -0.5322  0.6734
  412MOL0     H55613  11.666  11.255   8.323 -1.3593  0.7285  1.8906
  412MOL0     H55614  11.455  11.398   8.369 -0.1389 -0.8617  1.0516
  412MOL0     H55615  11.456  11.441   8.198  1.0952  0.2284 -1.0125
  412MOL0     H55616  11.546  11.629   8.319 -1.6025 -0.8184  0.3317
  412MOL0     H55617  11.645  11.561   8.189  0.4168  0.0963 -0.0010
  412MOL0     H55618  11.881  11.530   8.536 -1.8322  3.4322  1.3242
  412MOL0     H55619  11.326  10.952   8.260  0.8810  1.0817 -0.7188
  412MOL0     H55620  11.126  10.831   8.212 -1.1785  1.4223  1.5663
  413MOL0     O55621   0.082   8.468   9.938  0.3143 -0.0396 -0.1622
  413MOL0     C55622   0.166   8.523   9.868 -0.3577  0.4213 -0.0414
  413MOL0     O55623   0.160   8.654   9.839 -0.7759 -0.3849 -0.6315
  413MOL0     C55624   0.059   8.743   9.891 -0.1084  0.2259  0.2060
  413MOL0     C55625   0.012   8.735  10.023 -0.2936 -1.3345  0.1365
  413MOL0     C55626  -0.081   8.831  10.066 -0.2302 -0.5898  0.5717
  413MOL0     C55627  -0.109   8.940   9.984  0.6648  0.0333 -0.7520
  413MOL0     O55628  -0.203   9.037  10.023  0.5142 -0.0900 -0.4997
  413MOL0     C55629  -0.193   9.106  10.150 -0.2446  0.4870  0.3772
  413MOL0     C55630  -0.309   9.202  10.141 -0.7447 -0.0591 -0.1459
  413MOL0     C55631  -0.281   9.303  10.025 -0.2608  0.0624 -0.1000
  413MOL0     C55632  -0.343   9.441  10.046  0.1437 -0.2327  0.3234
  413MOL0     C55633  -0.500   9.427  10.080 -0.1714 -0.8071 -0.4123
  413MOL0     C55634  -0.587   9.370   9.960  0.1214  0.8006  0.0307
  413MOL0     C55635  -0.577   9.446   9.825  0.0620  0.0667 -0.8381
  413MOL0     C55636  -0.682   9.395   9.720  0.3319 -0.6728 -0.6939
  413MOL0     N55637  -0.682   9.249   9.698  0.8277  0.3409 -0.0466
  413MOL0     C55638  -0.584   9.168   9.655 -0.5062  0.7029  0.4655
  413MOL0     C55639  -0.637   9.043   9.670  0.2085 -0.1269 -0.5813
  413MOL0     C55640  -0.565   8.920   9.622  1.1536 -0.3932 -0.0162
  413MOL0     C55641  -0.415   8.923   9.642 -0.6251 -0.2222  0.3343
  413MOL0     C55642  -0.359   8.780   9.591  0.3228 -0.5292  0.4984
  413MOL0     C55643  -0.310   8.798   9.450  0.3147 -0.2747 -0.1875
  413MOL0     O55644  -0.197   8.881   9.441 -0.6544  0.6305  0.1290
  413MOL0     C55645  -0.076   8.829   9.419 -0.3173  1.2202  0.3140
  413MOL0     C55646   0.030   8.913   9.407 -0.2957  0.1050 -0.0175
  413MOL0     C55647   0.164   8.869   9.399 -0.3703 -0.8061 -0.0246
  413MOL0     C55648   0.259   8.987   9.417  0.9490 -0.0366 -0.0432
  413MOL0     C55649   0.194   8.738   9.380  0.2133  0.6244 -0.4682
  413MOL0     C55650   0.335   8.682   9.347  0.2799 -0.5007 -0.9347
  413MOL0     O55651   0.338   8.541   9.330 -0.5725  0.5870 -0.0566
  413MOL0     C55652   0.456   8.476   9.288  0.5066 -0.2372 -0.1747
  413MOL0     C55653   0.578   8.522   9.326 -0.5426 -0.5928 -0.8306
  413MOL0     C55654   0.703   8.470   9.282  0.3194 -0.2968 -0.1859
  413MOL0     C55655   0.694   8.349   9.207 -0.0005  0.4954 -0.6312
  413MOL0     O55656   0.802   8.269   9.185 -0.2651  0.4986  0.2193
  413MOL0     C55657   0.904   8.254   9.282  0.3317 -0.5241 -0.3211
  413MOL0     C55658   1.020   8.158   9.258  0.6225 -0.0579  0.2758
  413MOL0     C55659   0.992   8.004   9.241 -0.4399  0.6033  0.9119
  413MOL0     C55660   0.871   7.976   9.158  0.1876  0.4177  0.6013
  413MOL0     C55661   0.857   7.818   9.136  0.0184  0.8951 -0.8526
  413MOL0     C55662   0.805   7.763   9.003  0.5299 -0.4914  0.0046
  413MOL0     C55663   0.837   7.616   8.982 -1.4629 -0.2953 -0.4945
  413MOL0     C55664   0.709   7.541   9.018  0.1234 -0.3344  0.1234
  413MOL0    Cl55665   0.687   7.533   9.197  0.0849 -0.3791  0.2967
  413MOL0     C55666   0.567   8.303   9.168 -0.5756 -0.3723  0.0881
  413MOL0     C55667   0.453   8.370   9.205 -0.3186  0.4743 -0.7430
  413MOL0     O55668   0.418   8.763   9.320 -0.5545 -0.5000  0.2194
  413MOL0     C55669   0.086   8.647   9.377  0.2684 -0.6992 -0.5687
  413MOL0     C55670  -0.050   8.691   9.387 -0.3730 -0.5382 -0.2781
  413MOL0     N55671  -0.758   9.052   9.725 -0.1704  0.1151 -0.4986
  413MOL0     N55672  -0.791   9.173   9.725  0.4962  0.5871 -0.6201
  413MOL0     C55673  -0.065   8.944   9.854 -0.1341  0.3390  0.4940
  413MOL0     C55674   0.024   8.843   9.804  0.8797  0.8257 -0.4916
  413MOL0     C55675   0.286   8.448   9.833  0.1247  0.5348  0.0324
  413MOL0     C55676   0.331   8.338   9.917 -0.2864 -0.3889  0.3537
  413MOL0     C55677   0.458   8.288   9.879  0.3505  0.4678 -0.4630
  413MOL0     C55678   0.536   8.329   9.773 -0.3051 -0.7197  0.1250
  413MOL0     O55679   0.662   8.267   9.751  0.0773  0.0861 -0.0936
  413MOL0     C55680   0.758   8.325   9.664  0.4075 -0.7877  0.8662
  413MOL0     C55681   0.894   8.276   9.694 -0.0036  0.7243  0.2979
  413MOL0     C55682   0.958   8.356   9.801  0.2112  0.5133 -0.2490
  413MOL0     C55683   1.107   8.308   9.814 -0.6813 -0.3071  0.1471
  413MOL0     C55684   1.191   8.375   9.715 -0.2022 -0.1918 -0.9727
  413MOL0     C55685   1.265   8.420   9.628 -0.8662 -0.4512  0.6082
  413MOL0     C55686   0.489   8.425   9.695  0.2705 -1.1937  0.3933
  413MOL0     C55687   0.362   8.490   9.727 -0.2099 -0.8794 -0.4101
  413MOL0     H55688   0.045   8.661  10.095  2.3923  0.2305  0.6530
  413MOL0     H55689  -0.121   8.831  10.167 -0.5025 -2.6328  0.5039
  413MOL0     H55690  -0.205   9.035  10.232 -2.0274  0.5440  0.2022
  413MOL0     H55691  -0.100   9.164  10.150  0.0862  0.0119 -1.1707
  413MOL0     H55692  -0.406   9.154  10.125 -1.5790  0.9864  1.4914
  413MOL0     H55693  -0.308   9.259  10.235  1.3760  0.9324 -0.7020
  413MOL0     H55694  -0.177   9.334  10.037 -0.8019  2.5819 -1.2117
  413MOL0     H55695  -0.290   9.252   9.929  0.3593 -2.1284  0.9369
  413MOL0     H55696  -0.294   9.482  10.135 -1.6614 -0.6330  1.5691
  413MOL0     H55697  -0.329   9.506   9.959 -1.3369  1.9207  1.5995
  413MOL0     H55698  -0.507   9.373  10.176 -0.6953 -0.7225 -0.3993
  413MOL0     H55699  -0.531   9.527  10.110 -1.5386 -1.3224 -0.0316
  413MOL0     H55700  -0.562   9.264   9.955 -1.2030  0.5152 -1.2667
  413MOL0     H55701  -0.691   9.381   9.993 -0.4616 -3.4927  0.1345
  413MOL0     H55702  -0.598   9.552   9.845 -2.9538 -0.3239 -1.4580
  413MOL0     H55703  -0.474   9.432   9.791  1.0122  0.0109  1.7808
  413MOL0     H55704  -0.656   9.449   9.629  1.4192  0.2135  0.1143
  413MOL0     H55705  -0.781   9.422   9.760  1.0547 -0.1280  0.8155
  413MOL0     H55706  -0.489   9.192   9.608  0.2710 -4.2619 -1.1032
  413MOL0     H55707  -0.596   8.831   9.676 -1.0940  0.1489 -0.2991
  413MOL0     H55708  -0.595   8.911   9.517  2.4958  1.7595 -0.6573
  413MOL0     H55709  -0.394   8.919   9.749  1.1115 -1.4567  0.0072
  413MOL0     H55710  -0.361   9.007   9.598  0.3222 -0.8226  0.3090
  413MOL0     H55711  -0.446   8.714   9.593 -0.4880  0.4519 -0.5609
  413MOL0     H55712  -0.278   8.739   9.651  0.3765 -0.3694  0.5351
  413MOL0     H55713  -0.390   8.854   9.401 -0.0218  2.0223  2.6983
  413MOL0     H55714  -0.300   8.698   9.406  0.7863 -0.9018  1.2807
  413MOL0     H55715  -0.000   9.017   9.413 -0.5413 -0.0131  1.0518
  413MOL0     H55716   0.208   9.081   9.440 -1.4387 -1.4152  0.6900
  413MOL0     H55717   0.328   8.972   9.501  0.9524  2.1878  0.4214
  413MOL0     H55718   0.306   8.979   9.319 -2.1967 -0.4080 -1.6615
  413MOL0     H55719   0.575   8.605   9.395 -1.0439 -1.6661  0.4924
  413MOL0     H55720   0.793   8.512   9.325  0.8670 -1.1748 -0.4346
  413MOL0     H55721   0.958   8.349   9.292  1.3427 -1.0891 -0.2948
  413MOL0     H55722   0.854   8.231   9.377  2.3180 -0.9032  0.6734
  413MOL0     H55723   1.080   8.199   9.177  0.5662 -2.0914 -0.8566
  413MOL0     H55724   1.071   8.157   9.355 -0.2525 -0.6100  0.7456
  413MOL0     H55725   0.999   7.946   9.333  3.7957 -1.5002 -0.4903
  413MOL0     H55726   1.077   7.959   9.189 -1.3712 -0.0559 -0.1066
  413MOL0     H55727   0.774   8.008   9.196  0.4185  1.9297 -0.0036
  413MOL0     H55728   0.889   8.031   9.065 -0.7079 -2.9077 -1.7226
  413MOL0     H55729   0.809   7.774   9.224  2.5457  2.5345  1.5062
  413MOL0     H55730   0.952   7.764   9.145 -1.2462 -1.5001 -1.0360
  413MOL0     H55731   0.700   7.786   8.983 -0.6117 -4.3963  0.6091
  413MOL0     H55732   0.854   7.827   8.929 -1.1611  1.6424  0.6177
  413MOL0     H55733   0.930   7.583   9.029 -2.2271 -1.4353  0.2789
  413MOL0     H55734   0.860   7.594   8.877 -1.5058 -0.6030 -0.4417
  413MOL0     H55735   0.711   7.442   8.971 -1.6959  0.1252 -1.0284
  413MOL0     H55736   0.627   7.599   8.974  0.3869  0.7494  1.0193
  413MOL0     H55737   0.557   8.217   9.103 -3.5048  0.9171 -1.3864
  413MOL0     H55738   0.356   8.334   9.173 -1.4491  0.0516  2.6814
  413MOL0     H55739   0.100   8.540   9.366 -2.8200 -1.0133 -2.9086
  413MOL0     H55740  -0.115   8.605   9.381 -0.0087 -0.9492  1.2711
  413MOL0     H55741  -0.097   9.027   9.792 -1.7701 -1.9317 -1.8996
  413MOL0     H55742   0.077   8.847   9.709 -0.5397 -1.8738 -1.5035
  413MOL0     H55743   0.282   8.303  10.007  0.8156 -1.2104  0.6642
  413MOL0     H55744   0.502   8.203   9.931 -1.1154  0.0523  0.1486
  413MOL0     H55745   0.719   8.289   9.568 -1.9071  1.4504  0.8660
  413MOL0     H55746   0.758   8.434   9.653 -1.4480 -0.8563 -0.3407
  413MOL0     H55747   0.957   8.300   9.607 -0.5340 -1.2682 -0.6990
  413MOL0     H55748   0.905   8.171   9.721  2.9663  1.6748  3.5191
  413MOL0     H55749   0.914   8.348   9.901  1.8722  0.7382  0.5524
  413MOL0     H55750   0.957   8.461   9.771  1.1255  0.8221  0.7237
  413MOL0     H55751   1.106   8.200   9.800 -1.3927 -0.3049  0.1305
  413MOL0     H55752   1.147   8.341   9.910  4.5357  4.3878 -2.9857
  413MOL0     H55753   1.326   8.460   9.550  1.2173  0.4815  2.5985
  413MOL0     H55754   0.541   8.472   9.613  0.3807  1.4463  1.8724
  413MOL0     H55755   0.349   8.581   9.669  1.1526 -0.6156 -0.3365
  414MOL0     O55756   6.111   0.524   5.010  0.0537  0.9625 -0.3572
  414MOL0     C55757   6.195   0.597   5.065 -0.2106  0.1657 -0.3264
  414MOL0     O55758   6.175   0.691   5.154 -0.3902 -0.0524  0.2209
  414MOL0     C55759   6.045   0.720   5.183 -0.7467  1.1775 -0.2363
  414MOL0     C55760   5.945   0.741   5.087  0.6243 -0.4422  0.3281
  414MOL0     C55761   5.810   0.735   5.128  0.8057 -0.6381  0.3872
  414MOL0     C55762   5.778   0.744   5.270  0.0264  0.9383  0.8490
  414MOL0     O55763   5.654   0.750   5.321  0.7536 -0.6181 -0.2642
  414MOL0     C55764   5.539   0.775   5.230 -0.7193 -0.0824 -0.1860
  414MOL0     C55765   5.417   0.810   5.307 -0.4067  0.0865  0.0098
  414MOL0     C55766   5.295   0.817   5.212  0.9267 -0.2978 -0.1796
  414MOL0     C55767   5.165   0.824   5.285  0.3684 -1.0572 -0.1045
  414MOL0     C55768   5.090   0.692   5.275  0.5581 -0.0887  0.2931
  414MOL0     C55769   4.960   0.675   5.348 -1.0033 -0.2992  0.1830
  414MOL0     C55770   4.874   0.801   5.332  0.1528  0.1184  0.1144
  414MOL0     C55771   4.723   0.764   5.361 -0.6995 -0.0283  0.5473
  414MOL0     N55772   4.708   0.700   5.490  0.0746  0.1098  0.2393
  414MOL0     C55773   4.661   0.780   5.583  0.6358 -0.1481  0.1537
  414MOL0     C55774   4.588   0.708   5.663 -0.4464  0.7656 -0.1159
  414MOL0     C55775   4.522   0.762   5.782  0.0188 -0.6229  0.3815
  414MOL0     C55776   4.555   0.686   5.902 -0.4386  0.2079  0.3915
  414MOL0     C55777   4.483   0.736   6.027 -0.2481  0.0278  0.1478
  414MOL0     C55778   4.332   0.769   6.009  0.0353  0.5001 -0.4801
  414MOL0     O55779   4.258   0.661   5.956 -0.1552 -0.4603 -0.1080
  414MOL0     C55780   4.159   0.699   5.876 -0.7959 -0.3264 -0.7839
  414MOL0     C55781   4.145   0.650   5.746  0.4192 -0.3765 -0.4592
  414MOL0     C55782   4.035   0.680   5.668  0.2757  0.2592  0.1786
  414MOL0     C55783   4.028   0.621   5.531  0.0760  0.3023 -0.1729
  414MOL0     C55784   3.929   0.760   5.710  0.2692 -0.9957 -0.2903
  414MOL0     C55785   3.804   0.787   5.637  0.3131  0.0754 -0.3216
  414MOL0     O55786   3.718   0.890   5.679 -0.2332  0.3100 -0.7921
  414MOL0     C55787   3.581   0.889   5.639  0.2753  0.5836 -0.8326
  414MOL0     C55788   3.539   0.929   5.514 -0.0588 -0.4196  0.6390
  414MOL0     C55789   3.402   0.918   5.478 -1.1814 -0.5025  0.4896
  414MOL0     C55790   3.314   0.852   5.559 -0.7994  0.7783  0.1371
  414MOL0     O55791   3.175   0.837   5.526 -0.3789  0.6179 -0.2182
  414MOL0     C55792   3.125   0.882   5.403  0.1622 -0.4313  0.0194
  414MOL0     C55793   2.978   0.873   5.403  0.2831  0.1536  0.4305
  414MOL0     C55794   2.913   0.991   5.478 -0.9101  0.2808 -0.0126
  414MOL0     C55795   2.770   1.013   5.424 -0.2512  0.3104  0.4687
  414MOL0     C55796   2.699   1.142   5.458 -0.0393 -0.7735  0.4964
  414MOL0     C55797   2.565   1.130   5.534  0.2224 -0.1424 -0.4536
  414MOL0     C55798   2.516   1.239   5.625  0.4523  0.2825 -0.2414
  414MOL0     C55799   2.608   1.247   5.747 -0.1598  0.1758  0.1870
  414MOL0    Cl55800   2.555   1.136   5.874  0.1062 -0.0394 -0.0156
  414MOL0     C55801   3.361   0.815   5.689  0.0449 -0.7224 -0.1697
  414MOL0     C55802   3.498   0.835   5.734  0.0931 -0.4538  0.1509
  414MOL0     O55803   3.776   0.705   5.551 -0.7571 -0.1609 -0.0756
  414MOL0     C55804   3.945   0.813   5.845 -0.6294 -0.3797  0.6272
  414MOL0     C55805   4.054   0.775   5.928  0.3018 -0.3443 -1.3831
  414MOL0     N55806   4.591   0.587   5.603  0.6015  0.2178 -0.1788
  414MOL0     N55807   4.663   0.576   5.498  0.2468 -0.9229  0.1253
  414MOL0     C55808   5.886   0.741   5.361 -0.7208 -0.7871 -0.1419
  414MOL0     C55809   6.018   0.726   5.321 -0.3269 -0.2252  0.4616
  414MOL0     C55810   6.333   0.565   5.034 -0.1843  0.7537 -0.1491
  414MOL0     C55811   6.440   0.648   5.069 -0.9835 -0.8632 -0.2211
  414MOL0     C55812   6.577   0.616   5.030  0.6561 -0.3839  0.2815
  414MOL0     C55813   6.611   0.500   4.966  0.4562  0.3633  0.9570
  414MOL0     O55814   6.735   0.469   4.928  0.1848 -0.1669 -0.1238
  414MOL0     C55815   6.775   0.335   4.969 -0.9894 -0.5740  0.6727
  414MOL0     C55816   6.928   0.346   4.996 -0.8918 -0.2650 -0.7035
  414MOL0     C55817   7.003   0.411   4.883 -0.8331 -0.1796  0.1205
  414MOL0     C55818   7.158   0.430   4.899  0.1470 -0.2184  1.0004
  414MOL0     C55819   7.219   0.478   4.768 -0.9626  0.9215 -1.0798
  414MOL0     C55820   7.273   0.521   4.665 -0.2487 -0.2652  0.1472
  414MOL0     C55821   6.501   0.428   4.915  1.0091  0.3158  0.4988
  414MOL0     C55822   6.370   0.462   4.944 -0.2547 -0.4465 -0.0029
  414MOL0     H55823   5.969   0.734   4.981 -0.8268 -0.6720 -0.0109
  414MOL0     H55824   5.739   0.729   5.047  2.3223 -1.9151 -0.9260
  414MOL0     H55825   5.563   0.855   5.159  0.3168  0.6348  0.9154
  414MOL0     H55826   5.515   0.679   5.186  0.0053 -1.0090  1.3437
  414MOL0     H55827   5.397   0.735   5.385  1.2969 -0.4711 -0.0364
  414MOL0     H55828   5.434   0.912   5.341 -4.2438 -0.3564  4.0751
  414MOL0     H55829   5.309   0.912   5.160  4.2688 -0.4484  0.2791
  414MOL0     H55830   5.283   0.740   5.136 -2.5756 -0.2432  0.1188
  414MOL0     H55831   5.165   0.850   5.391  3.0553 -2.5546  0.3468
  414MOL0     H55832   5.108   0.901   5.232 -2.1518 -1.0670  2.3670
  414MOL0     H55833   5.063   0.676   5.170  2.4964 -1.3918 -0.0632
  414MOL0     H55834   5.156   0.614   5.313 -0.2234  0.3913  2.7709
  414MOL0     H55835   4.914   0.579   5.322 -0.7760 -0.2981 -0.2349
  414MOL0     H55836   4.988   0.664   5.453 -1.5302  3.1375  0.7859
  414MOL0     H55837   4.904   0.885   5.395 -2.4473  1.9392 -0.9010
  414MOL0     H55838   4.875   0.841   5.230 -0.6415  1.8194  0.7251
  414MOL0     H55839   4.679   0.689   5.295 -1.3366 -1.4567  2.4988
  414MOL0     H55840   4.660   0.854   5.358  0.1048  0.5791  1.4009
  414MOL0     H55841   4.673   0.888   5.582  4.7381 -0.3824  3.0177
  414MOL0     H55842   4.530   0.870   5.798 -0.0237 -0.4522 -0.7201
  414MOL0     H55843   4.414   0.755   5.761  0.3233  0.6876 -1.9028
  414MOL0     H55844   4.663   0.703   5.907 -0.3691  1.7713 -3.2107
  414MOL0     H55845   4.530   0.579   5.896 -1.9484  0.3810  2.2655
  414MOL0     H55846   4.527   0.835   6.043 -0.5792  0.2317 -0.1887
  414MOL0     H55847   4.487   0.664   6.109 -0.6613 -3.2068 -2.4218
  414MOL0     H55848   4.318   0.855   5.943  1.4299  3.1143  2.3756
  414MOL0     H55849   4.304   0.806   6.108  3.3206 -0.7226  1.0468
  414MOL0     H55850   4.205   0.574   5.697 -0.4156 -1.0814 -0.4065
  414MOL0     H55851   3.956   0.540   5.541  3.1748 -3.1084 -2.7225
  414MOL0     H55852   3.994   0.702   5.465  0.2452  1.9037  1.6100
  414MOL0     H55853   4.116   0.572   5.490  0.3260 -0.7234  1.5420
  414MOL0     H55854   3.624   0.960   5.454 -0.1804 -3.3222 -1.2008
  414MOL0     H55855   3.379   0.957   5.380  1.8786  1.0362  0.2704
  414MOL0     H55856   3.163   0.984   5.387 -3.1684  0.6621 -1.8987
  414MOL0     H55857   3.168   0.826   5.319  0.8798 -0.3620  0.3367
  414MOL0     H55858   2.946   0.879   5.298 -0.0450 -1.4738  0.3990
  414MOL0     H55859   2.937   0.780   5.444 -0.1077  1.0982  2.2856
  414MOL0     H55860   2.972   1.081   5.458 -1.4647  1.1751  2.1600
  414MOL0     H55861   2.907   0.952   5.580 -1.6288 -1.9084 -0.8320
  414MOL0     H55862   2.784   1.015   5.316  2.1759 -0.4754  0.7125
  414MOL0     H55863   2.706   0.926   5.445  0.6638 -0.4415  0.2185
  414MOL0     H55864   2.681   1.188   5.360  3.9111  1.5339  0.6189
  414MOL0     H55865   2.774   1.209   5.500 -1.6649  3.5929 -2.8051
  414MOL0     H55866   2.487   1.116   5.458 -1.5269 -4.3659  1.7673
  414MOL0     H55867   2.574   1.038   5.592 -2.9439 -0.5788 -0.4693
  414MOL0     H55868   2.409   1.239   5.648  0.4439  0.3242 -0.2802
  414MOL0     H55869   2.543   1.330   5.571 -1.5453  1.7445  1.0777
  414MOL0     H55870   2.600   1.346   5.792  1.4084  0.5029 -0.1754
  414MOL0     H55871   2.711   1.227   5.716 -1.1358  0.0211 -3.3969
  414MOL0     H55872   3.288   0.780   5.761  1.4174 -0.4001  1.4468
  414MOL0     H55873   3.549   0.800   5.823  0.0483 -4.3283 -1.1469
  414MOL0     H55874   3.864   0.875   5.883  0.3364  1.2761  0.0912
  414MOL0     H55875   4.042   0.818   6.027 -4.6190 -3.7512 -0.1712
  414MOL0     H55876   5.859   0.728   5.465  2.1953  1.8210  1.0884
  414MOL0     H55877   6.097   0.696   5.389  0.9196  0.3062 -0.7080
  414MOL0     H55878   6.408   0.739   5.118 -0.4627 -0.7166 -0.1387
  414MOL0     H55879   6.656   0.683   5.063 -0.6799  0.9743  0.8304
  414MOL0     H55880   6.705   0.299   5.045 -2.9616  2.3878  0.4090
  414MOL0     H55881   6.755   0.278   4.878  0.7323 -0.1516 -0.0154
  414MOL0     H55882   6.976   0.248   5.011  0.0818  0.5663  2.2672
  414MOL0     H55883   6.940   0.401   5.090  2.0350 -2.1681  0.1829
  414MOL0     H55884   6.948   0.497   4.844 -1.3919 -0.4315  0.3540
  414MOL0     H55885   6.992   0.339   4.801  0.7219  0.2927 -0.5487
  414MOL0     H55886   7.201   0.333   4.925 -2.8590 -1.3909  2.0762
  414MOL0     H55887   7.174   0.508   4.975 -0.6787  2.0194 -1.0070
  414MOL0     H55888   7.307   0.578   4.581 -2.0079 -0.0307 -0.4498
  414MOL0     H55889   6.518   0.356   4.835 -0.5958 -1.2024  1.4518
  414MOL0     H55890   6.303   0.400   4.884  0.1559  0.1719 -1.1362
  415MOL0     O55891   5.608   7.797   8.303  0.0218  0.0398  0.6885
  415MOL0     C55892   5.664   7.743   8.396  0.5471  0.6205 -0.4003
  415MOL0     O55893   5.620   7.749   8.526  0.2393  0.5107 -0.3220
  415MOL0     C55894   5.497   7.770   8.577 -0.2543 -0.0963  0.0208
  415MOL0     C55895   5.384   7.797   8.495 -0.2198  0.1810 -0.0490
  415MOL0     C55896   5.253   7.809   8.555  0.3783 -0.3818 -0.2206
  415MOL0     C55897   5.233   7.783   8.689  0.1967  1.3371 -0.5298
  415MOL0     O55898   5.119   7.729   8.749 -0.1866 -0.2198  0.8885
  415MOL0     C55899   5.021   7.689   8.656  1.0190 -0.8068 -0.1841
  415MOL0     C55900   4.946   7.576   8.725 -0.2008 -0.1217  0.1857
  415MOL0     C55901   4.867   7.626   8.852  0.1926 -0.3183  0.5681
  415MOL0     C55902   4.737   7.709   8.830 -0.2406  0.6273 -0.4362
  415MOL0     C55903   4.681   7.738   8.971  0.3039 -0.4850 -0.2246
  415MOL0     C55904   4.539   7.809   8.963  0.2246  0.8827  0.0867
  415MOL0     C55905   4.552   7.940   8.903  0.1602 -0.5625  0.3127
  415MOL0     C55906   4.413   8.016   8.882  0.0144  0.0291 -0.2772
  415MOL0     N55907   4.331   7.936   8.791 -0.0027 -0.0399 -0.2140
  415MOL0     C55908   4.198   7.948   8.801  0.9804  0.3223  0.0057
  415MOL0     C55909   4.154   7.864   8.695  0.2497  0.2248 -0.4568
  415MOL0     C55910   4.013   7.858   8.652 -0.5581  0.1228 -0.0309
  415MOL0     C55911   3.912   7.819   8.761 -0.1708 -0.1502 -0.5138
  415MOL0     C55912   3.769   7.841   8.722  1.3342  0.2076 -0.3627
  415MOL0     C55913   3.667   7.824   8.843 -0.0027 -0.1413  0.0468
  415MOL0     O55914   3.540   7.873   8.808  0.0902 -0.3928  0.7170
  415MOL0     C55915   3.433   7.788   8.801 -0.2004 -0.3685  0.5917
  415MOL0     C55916   3.436   7.656   8.750 -0.6882  0.0706 -0.9049
  415MOL0     C55917   3.326   7.566   8.744 -0.5567 -0.1248 -0.2411
  415MOL0     C55918   3.352   7.437   8.670 -1.0083  0.2266 -0.1687
  415MOL0     C55919   3.206   7.615   8.801 -0.7432  0.2437 -0.7518
  415MOL0     C55920   3.088   7.527   8.794 -0.2815 -0.4232  0.3598
  415MOL0     O55921   2.989   7.578   8.873  0.2316  0.0563  0.1035
  415MOL0     C55922   2.870   7.521   8.876  0.3699  0.3363 -0.6198
  415MOL0     C55923   2.831   7.444   8.983  0.1588 -0.7838 -0.2670
  415MOL0     C55924   2.705   7.389   8.987  0.3299 -0.3484 -1.1382
  415MOL0     C55925   2.622   7.389   8.878  0.7796  0.1658  0.5909
  415MOL0     O55926   2.497   7.335   8.866 -0.0253 -0.4449  0.7882
  415MOL0     C55927   2.472   7.230   8.967 -0.2764 -0.0721  0.3961
  415MOL0     C55928   2.345   7.148   8.957  0.5893 -0.1035 -0.4572
  415MOL0     C55929   2.226   7.236   8.975  0.6069 -0.4578 -0.1470
  415MOL0     C55930   2.103   7.170   8.914  0.3510  0.0267  1.0522
  415MOL0     C55931   1.982   7.253   8.970  0.5356  0.1479  0.3132
  415MOL0     C55932   1.982   7.384   8.888 -0.3384 -0.0863  0.6463
  415MOL0     C55933   1.884   7.491   8.943  0.0377 -0.8431  0.2226
  415MOL0     C55934   1.943   7.568   9.067 -0.4520 -0.2069 -0.4172
  415MOL0    Cl55935   1.831   7.670   9.147  0.4520 -0.3079 -0.2439
  415MOL0     C55936   2.662   7.462   8.763  1.1265 -0.1514  1.0914
  415MOL0     C55937   2.783   7.527   8.760  0.8348 -0.3159 -1.1953
  415MOL0     O55938   3.091   7.414   8.749  0.1707  0.3244 -0.1894
  415MOL0     C55939   3.198   7.745   8.853 -0.8430  0.8619  0.3998
  415MOL0     C55940   3.306   7.832   8.849 -0.2734 -0.4704  0.6730
  415MOL0     N55941   4.265   7.798   8.642 -0.0136 -0.5194  0.1661
  415MOL0     N55942   4.372   7.857   8.686  0.3730 -0.3234 -0.3843
  415MOL0     C55943   5.351   7.779   8.770 -0.5064  0.3185 -0.3724
  415MOL0     C55944   5.477   7.760   8.714 -0.1406  0.3023  0.2024
  415MOL0     C55945   5.780   7.647   8.368 -1.1632 -0.6351 -0.7931
  415MOL0     C55946   5.817   7.553   8.461 -0.0959 -1.0480 -0.2642
  415MOL0     C55947   5.913   7.468   8.427  0.2476 -0.4841  0.1875
  415MOL0     C55948   5.986   7.475   8.304 -0.1328 -0.4069  0.2622
  415MOL0     O55949   6.074   7.370   8.271 -0.6318  0.3352 -0.2067
  415MOL0     C55950   6.199   7.407   8.216 -0.6431 -0.2271  0.1023
  415MOL0     C55951   6.212   7.373   8.067  0.7002 -0.0939  0.3014
  415MOL0     C55952   6.225   7.226   8.039 -0.7318  0.7227  0.8805
  415MOL0     C55953   6.362   7.161   8.074  0.0243 -0.3583  0.0635
  415MOL0     C55954   6.468   7.220   7.982  0.2967 -0.0652  0.3549
  415MOL0     C55955   6.555   7.239   7.904 -0.5114  0.7714  0.3287
  415MOL0     C55956   5.948   7.571   8.214  0.4412 -0.2462 -0.4719
  415MOL0     C55957   5.853   7.662   8.253  0.6755  0.0399  0.0589
  415MOL0     H55958   5.403   7.803   8.388  3.3345 -4.2495  0.0338
  415MOL0     H55959   5.167   7.830   8.492  0.0227  2.7605  1.1101
  415MOL0     H55960   4.960   7.777   8.636  1.8403 -0.2730 -0.3801
  415MOL0     H55961   5.053   7.664   8.555 -1.0275  3.1328 -2.0479
  415MOL0     H55962   4.870   7.523   8.666  0.1619 -1.3876  0.8336
  415MOL0     H55963   5.016   7.495   8.746  0.9908  0.2219 -2.0384
  415MOL0     H55964   4.840   7.528   8.893  0.5991 -0.1759  1.1887
  415MOL0     H55965   4.939   7.673   8.920  0.6010 -0.6002  0.3411
  415MOL0     H55966   4.755   7.801   8.775 -4.4018  1.2605 -1.0512
  415MOL0     H55967   4.663   7.649   8.776 -1.5152  1.6342  0.1343
  415MOL0     H55968   4.661   7.638   9.011 -0.6915 -1.6347 -3.2866
  415MOL0     H55969   4.753   7.792   9.032  2.3685 -2.1969 -1.0287
  415MOL0     H55970   4.479   7.754   8.890  2.5046  1.9410 -2.7624
  415MOL0     H55971   4.496   7.824   9.063 -0.8940  0.0436 -0.2445
  415MOL0     H55972   4.612   8.006   8.967 -1.4107  1.8165 -0.5343
  415MOL0     H55973   4.606   7.936   8.808  0.6582 -1.3903  0.6236
  415MOL0     H55974   4.416   8.121   8.852 -2.1208 -0.2491 -1.7078
  415MOL0     H55975   4.354   8.011   8.974  0.1784  1.9094 -0.0237
  415MOL0     H55976   4.134   7.998   8.872  2.4548  0.9448  0.9282
  415MOL0     H55977   3.986   7.951   8.600 -0.3369 -0.1431 -0.6333
  415MOL0     H55978   4.011   7.779   8.576  2.5506  0.7223 -0.8771
  415MOL0     H55979   3.934   7.877   8.852 -0.7040  1.5611 -1.4450
  415MOL0     H55980   3.934   7.716   8.791  0.2714  0.6703  2.3119
  415MOL0     H55981   3.744   7.776   8.638  1.3896 -0.2028 -0.0716
  415MOL0     H55982   3.755   7.944   8.689 -2.3393 -0.1739 -0.3559
  415MOL0     H55983   3.711   7.882   8.925  0.5475 -0.3300 -0.1049
  415MOL0     H55984   3.669   7.718   8.869  4.7169 -0.1930  0.4128
  415MOL0     H55985   3.526   7.620   8.700 -0.1609 -1.5938  1.0937
  415MOL0     H55986   3.330   7.350   8.732 -1.0835 -0.1156 -0.6655
  415MOL0     H55987   3.294   7.433   8.577 -0.4786  1.5696 -0.5812
  415MOL0     H55988   3.457   7.421   8.647 -0.8578 -1.5228  1.5185
  415MOL0     H55989   2.892   7.428   9.071  0.1905  0.4630 -0.0466
  415MOL0     H55990   2.685   7.338   9.082  0.3587 -2.4461 -2.1910
  415MOL0     H55991   2.556   7.161   8.956 -1.3025 -1.4684  1.0366
  415MOL0     H55992   2.463   7.274   9.067  0.4384 -1.5922  1.1605
  415MOL0     H55993   2.329   7.107   8.856 -3.4765  0.2112 -0.1095
  415MOL0     H55994   2.348   7.065   9.028  0.2255 -0.6658 -1.0778
  415MOL0     H55995   2.257   7.328   8.925 -1.4329  0.2132 -0.2573
  415MOL0     H55996   2.208   7.249   9.082  1.9905 -0.6768  0.1350
  415MOL0     H55997   2.102   7.178   8.805 -2.1771  2.1573  1.1273
  415MOL0     H55998   2.107   7.065   8.943 -2.4040 -0.7923 -1.1377
  415MOL0     H55999   1.986   7.268   9.078 -1.8710 -0.3008  0.5112
  415MOL0     H56000   1.884   7.206   8.970  0.9033 -0.6683  1.6564
  415MOL0     H56001   2.078   7.438   8.890 -1.8372  3.2142 -3.1849
  415MOL0     H56002   1.964   7.360   8.783  2.3771  1.4854 -0.2932
  415MOL0     H56003   1.789   7.450   8.980 -0.4143 -0.2924 -0.3122
  415MOL0     H56004   1.862   7.564   8.865  1.0416 -0.4171  0.3291
  415MOL0     H56005   2.023   7.633   9.032  0.3717 -1.3473 -0.7357
  415MOL0     H56006   1.986   7.495   9.138 -0.9371  0.4625  0.5830
  415MOL0     H56007   2.600   7.463   8.674  0.7509  0.1727  1.3497
  415MOL0     H56008   2.818   7.569   8.667  0.8032  1.8460 -0.2744
  415MOL0     H56009   3.105   7.770   8.902 -0.7234 -0.9361  1.6280
  415MOL0     H56010   3.290   7.933   8.887  0.3683 -0.1500  0.1082
  415MOL0     H56011   5.337   7.748   8.873 -1.1289  1.2012 -0.1704
  415MOL0     H56012   5.565   7.743   8.777 -0.1152  0.5342  0.2336
  415MOL0     H56013   5.764   7.543   8.554 -0.4587  0.5501 -0.2632
  415MOL0     H56014   5.950   7.400   8.504 -1.7652 -0.2582  1.4140
  415MOL0     H56015   6.223   7.514   8.221  1.6250 -0.5661 -2.0348
  415MOL0     H56016   6.275   7.354   8.274 -2.2718 -0.4140  2.1746
  415MOL0     H56017   6.295   7.433   8.029 -0.8299  1.7205 -0.3535
  415MOL0     H56018   6.131   7.416   8.007 -0.7705 -2.0131  0.8240
  415MOL0     H56019   6.203   7.205   7.933 -0.1885  0.7302  0.7664
  415MOL0     H56020   6.155   7.176   8.107 -1.2586 -0.7777 -0.6849
  415MOL0     H56021   6.352   7.056   8.046 -3.4450  0.1052 -0.8828
  415MOL0     H56022   6.393   7.181   8.177 -3.0805 -0.1226  1.0424
  415MOL0     H56023   6.625   7.260   7.826 -1.1480  0.1083 -0.4355
  415MOL0     H56024   6.001   7.590   8.122  1.3881  0.1171  0.1353
  415MOL0     H56025   5.831   7.741   8.183  1.9965  0.4271  0.0573
  416MOL0     O56026   5.189   1.527   7.243  0.2277  0.4910 -0.1290
  416MOL0     C56027   5.232   1.430   7.308 -0.0632 -0.1218 -0.0101
  416MOL0     O56028   5.155   1.322   7.351  0.2323  0.2733  0.2361
  416MOL0     C56029   5.033   1.303   7.296  0.3018  0.4669  0.3554
  416MOL0     C56030   4.930   1.248   7.375 -0.8555 -0.8505 -0.9659
  416MOL0     C56031   4.808   1.213   7.313 -0.3392 -0.2871  0.6982
  416MOL0     C56032   4.782   1.233   7.178 -0.5325  0.5811  0.4234
  416MOL0     O56033   4.659   1.184   7.140  0.5951  0.1969 -0.3132
  416MOL0     C56034   4.650   1.110   7.018  0.4398  0.3494 -0.3900
  416MOL0     C56035   4.537   1.004   7.031 -0.1274 -1.1552  1.3417
  416MOL0     C56036   4.545   0.907   6.904  1.0336  0.3250  0.2351
  416MOL0     C56037   4.449   0.775   6.922  0.3276 -0.9093  0.1556
  416MOL0     C56038   4.314   0.817   6.862 -0.6334 -0.0981  0.2464
  416MOL0     C56039   4.201   0.753   6.952  1.1264 -0.5632  0.7253
  416MOL0     C56040   4.073   0.808   6.900  0.0589 -0.4077 -0.1892
  416MOL0     C56041   3.949   0.754   6.972  0.9538 -0.8433 -0.2787
  416MOL0     N56042   3.944   0.777   7.118 -0.0351 -0.5060  0.1440
  416MOL0     C56043   3.992   0.885   7.184  0.5217  0.6337  0.0440
  416MOL0     C56044   3.954   0.863   7.316 -0.3504  0.5867  0.2804
  416MOL0     C56045   3.960   0.976   7.416  0.7379  0.8271  1.0590
  416MOL0     C56046   4.091   0.989   7.501 -0.6315 -0.0627 -0.1392
  416MOL0     C56047   4.116   0.856   7.582 -0.5275  0.1341  0.2234
  416MOL0     C56048   4.265   0.818   7.606  0.0182  0.8130 -0.0797
  416MOL0     O56049   4.337   0.929   7.655 -0.1030 -0.0646  0.4097
  416MOL0     C56050   4.465   0.895   7.673 -0.4499 -0.0554 -0.3187
  416MOL0     C56051   4.520   0.785   7.741 -0.8317  0.2380  0.6665
  416MOL0     C56052   4.651   0.760   7.762 -0.0576  0.1891  0.4388
  416MOL0     C56053   4.692   0.646   7.844  0.0597  0.0888 -0.5484
  416MOL0     C56054   4.744   0.848   7.706 -0.1031 -0.4828  1.0211
  416MOL0     C56055   4.889   0.830   7.703  0.5534 -0.0116  0.2083
  416MOL0     O56056   4.952   0.905   7.613  0.6392  0.1773  0.1436
  416MOL0     C56057   5.081   0.945   7.634  0.4110 -0.3323  0.7652
  416MOL0     C56058   5.119   1.015   7.750 -0.1916  0.5264  0.0752
  416MOL0     C56059   5.255   1.058   7.767 -0.0429  0.8175 -0.2743
  416MOL0     C56060   5.352   1.031   7.670 -0.1369 -0.4983  0.6183
  416MOL0     O56061   5.488   1.053   7.683  0.9001  0.0448  0.9087
  416MOL0     C56062   5.549   1.076   7.814 -0.6799  0.5778 -0.7595
  416MOL0     C56063   5.702   1.104   7.806 -0.7075 -0.4698  0.2452
  416MOL0     C56064   5.779   1.095   7.946 -0.8435  0.4001 -0.5954
  416MOL0     C56065   5.878   0.980   7.940 -0.2007  0.4681 -0.9376
  416MOL0     C56066   6.003   1.010   7.863  0.5913 -0.1679  0.4815
  416MOL0     C56067   6.133   1.025   7.942  0.7335 -0.3715 -0.5993
  416MOL0     C56068   6.109   1.140   8.039 -0.5976 -0.5972 -0.0414
  416MOL0     C56069   6.234   1.173   8.120 -0.2036 -1.2774 -0.9173
  416MOL0    Cl56070   6.258   1.072   8.267  0.2108  0.1789 -0.0401
  416MOL0     C56071   5.311   0.967   7.549 -0.1508  0.5335  0.0180
  416MOL0     C56072   5.176   0.933   7.534 -0.5558  0.3123  0.7205
  416MOL0     O56073   4.945   0.757   7.783  0.0212 -0.5412  0.4693
  416MOL0     C56074   4.696   0.965   7.638 -0.2507 -0.3027 -0.0310
  416MOL0     C56075   4.559   0.982   7.619  0.1211  0.0471 -0.5075
  416MOL0     N56076   3.875   0.747   7.325 -0.8585 -0.6036 -0.4814
  416MOL0     N56077   3.867   0.706   7.200  0.1182  0.1492 -0.4589
  416MOL0     C56078   4.891   1.275   7.091  1.1583 -0.8572  0.0440
  416MOL0     C56079   5.008   1.317   7.157 -0.2561  0.0897  0.1965
  416MOL0     C56080   5.370   1.426   7.364  1.2643  0.5056 -0.1832
  416MOL0     C56081   5.424   1.321   7.433 -0.2282 -0.5954  0.1142
  416MOL0     C56082   5.554   1.329   7.487 -0.2470 -0.4728  0.7727
  416MOL0     C56083   5.637   1.438   7.475  0.5440 -0.5334  0.4697
  416MOL0     O56084   5.752   1.424   7.536  0.1085  0.9844  0.0857
  416MOL0     C56085   5.842   1.525   7.563 -0.7106 -0.4549 -0.6553
  416MOL0     C56086   5.983   1.478   7.603 -0.9720  0.5097 -0.3900
  416MOL0     C56087   6.102   1.583   7.625  0.6873 -0.3704  0.5677
  416MOL0     C56088   6.236   1.506   7.629  0.1405  0.1399 -0.1420
  416MOL0     C56089   6.334   1.586   7.701 -0.0937 -0.5371  1.1083
  416MOL0     C56090   6.425   1.643   7.762  0.9900 -0.7816  0.2738
  416MOL0     C56091   5.586   1.536   7.388 -0.0286 -0.6966 -1.1042
  416MOL0     C56092   5.456   1.534   7.336  0.3270  0.8887 -0.4554
  416MOL0     H56093   4.942   1.222   7.480  0.6490  3.0400  0.0046
  416MOL0     H56094   4.728   1.167   7.370  0.2959 -0.0236  1.8430
  416MOL0     H56095   4.623   1.187   6.946  2.4803  0.6290 -0.9106
  416MOL0     H56096   4.742   1.053   7.002 -0.0217  0.1900 -2.7729
  416MOL0     H56097   4.562   0.951   7.124 -1.7879 -1.5143  1.6192
  416MOL0     H56098   4.436   1.044   7.033 -0.2759 -1.1421 -2.0686
  416MOL0     H56099   4.524   0.962   6.811 -0.4175 -1.8621 -0.8169
  416MOL0     H56100   4.647   0.869   6.899  0.8737 -0.0915  0.1473
  416MOL0     H56101   4.488   0.692   6.862 -0.7923  1.2451 -3.9198
  416MOL0     H56102   4.439   0.756   7.029  2.8046 -0.1387  0.6112
  416MOL0     H56103   4.305   0.925   6.871  0.0289 -0.1450  1.7115
  416MOL0     H56104   4.314   0.787   6.757 -0.2975  1.2711 -0.1551
  416MOL0     H56105   4.200   0.644   6.936  1.3791 -0.7429  1.8585
  416MOL0     H56106   4.211   0.786   7.055  1.0388 -3.8657  1.9272
  416MOL0     H56107   4.068   0.917   6.904 -1.9455 -0.4891  1.2889
  416MOL0     H56108   4.063   0.781   6.794 -1.7034 -2.2320  0.3771
  416MOL0     H56109   3.924   0.649   6.951 -0.2654 -0.6812  0.2858
  416MOL0     H56110   3.863   0.810   6.934  0.2178 -0.4555  1.7969
  416MOL0     H56111   4.031   0.974   7.135 -0.1342 -0.3565 -2.4129
  416MOL0     H56112   3.945   1.069   7.360  0.4816  0.4319  0.4641
  416MOL0     H56113   3.881   0.974   7.492 -0.4952 -1.2992 -0.1832
  416MOL0     H56114   4.086   1.077   7.565 -2.4428 -0.4875  0.3739
  416MOL0     H56115   4.165   1.005   7.422 -1.6294 -2.3560 -1.6602
  416MOL0     H56116   4.075   0.769   7.531 -1.3794  0.1494  0.8539
  416MOL0     H56117   4.064   0.866   7.678 -0.8616  0.2407  0.0305
  416MOL0     H56118   4.302   0.773   7.514 -1.1148 -1.9305  0.6934
  416MOL0     H56119   4.278   0.730   7.670  1.0657 -1.1118 -2.7687
  416MOL0     H56120   4.448   0.720   7.789 -0.1110  1.1115  3.0741
  416MOL0     H56121   4.758   0.679   7.925 -2.5609  1.0249  1.3542
  416MOL0     H56122   4.604   0.603   7.893  0.5427 -0.9431 -0.5620
  416MOL0     H56123   4.740   0.555   7.807  0.1320 -0.6655  1.2777
  416MOL0     H56124   5.040   1.030   7.822 -0.1298 -0.6096  0.4062
  416MOL0     H56125   5.283   1.103   7.861 -0.1738  0.3764 -0.0249
  416MOL0     H56126   5.510   1.160   7.872  3.5004  1.5990  0.9451
  416MOL0     H56127   5.536   0.988   7.878  0.4582  1.4523  0.7245
  416MOL0     H56128   5.752   1.047   7.727 -0.3542 -0.9396  0.7900
  416MOL0     H56129   5.713   1.206   7.768 -0.3614 -0.6430 -0.1316
  416MOL0     H56130   5.710   1.091   8.031 -0.1602  1.6245  0.0379
  416MOL0     H56131   5.836   1.184   7.975  2.5771 -1.9522  0.5625
  416MOL0     H56132   5.914   0.942   8.036  1.9010 -0.3050 -1.9854
  416MOL0     H56133   5.831   0.893   7.894  2.0412 -1.9289  1.0287
  416MOL0     H56134   5.984   1.095   7.798  1.4609 -1.5666 -1.7137
  416MOL0     H56135   6.024   0.934   7.787 -2.5113 -0.3384 -0.3660
  416MOL0     H56136   6.171   0.927   7.972 -0.4456 -1.3592 -2.1575
  416MOL0     H56137   6.216   1.053   7.876 -0.1951  1.2129 -1.1541
  416MOL0     H56138   6.040   1.119   8.121 -0.7679  0.1270  0.0074
  416MOL0     H56139   6.090   1.232   7.982  0.6768  0.9191  1.8444
  416MOL0     H56140   6.223   1.277   8.151 -0.5620 -0.6986 -2.8652
  416MOL0     H56141   6.318   1.170   8.050  1.7837  2.6294  0.9688
  416MOL0     H56142   5.379   0.937   7.470  0.4095 -1.8365  1.3044
  416MOL0     H56143   5.147   0.875   7.447  2.9173 -2.1327  1.0183
  416MOL0     H56144   4.767   1.045   7.620  1.1864 -1.7534 -1.1524
  416MOL0     H56145   4.515   1.079   7.595 -0.8314 -0.1827  0.2295
  416MOL0     H56146   4.873   1.286   6.985 -3.3821  1.1726  0.7790
  416MOL0     H56147   5.099   1.339   7.101 -0.2407 -0.4916 -0.0088
  416MOL0     H56148   5.364   1.231   7.443 -0.8850 -0.4385 -1.9752
  416MOL0     H56149   5.596   1.236   7.525  4.7405 -0.7839 -4.1972
  416MOL0     H56150   5.856   1.587   7.475  0.6674  0.2486  0.0290
  416MOL0     H56151   5.811   1.593   7.643 -1.1390 -0.5853 -0.7087
  416MOL0     H56152   6.013   1.403   7.529  0.6759  0.5225  0.2261
  416MOL0     H56153   5.970   1.417   7.693 -1.3415  1.6653  0.3606
  416MOL0     H56154   6.088   1.633   7.722 -0.6566 -0.3796  0.3939
  416MOL0     H56155   6.093   1.671   7.561 -1.4810  0.0951  1.4131
  416MOL0     H56156   6.268   1.476   7.529  1.7213  0.0136  0.3618
  416MOL0     H56157   6.244   1.414   7.687  0.7873  0.1528 -0.1956
  416MOL0     H56158   6.503   1.689   7.819  1.0214  1.5651 -1.5053
  416MOL0     H56159   5.637   1.627   7.357 -2.2645  1.3799  0.9364
  416MOL0     H56160   5.419   1.609   7.266 -2.5678  0.7355  0.7806
  417MOL0     O56161   1.656  10.864   5.080 -0.0340 -0.0391 -0.8377
  417MOL0     C56162   1.715  10.791   5.006  0.6216 -0.6736  0.5928
  417MOL0     O56163   1.667  10.735   4.885  0.0131  0.0830  0.6107
  417MOL0     C56164   1.555  10.782   4.822 -0.6454  0.2998 -0.1036
  417MOL0     C56165   1.477  10.682   4.765  0.2947 -0.0026 -0.3533
  417MOL0     C56166   1.359  10.712   4.689 -0.9563 -0.3582 -0.2150
  417MOL0     C56167   1.324  10.852   4.675  0.0101  0.6330  0.3079
  417MOL0     O56168   1.214  10.897   4.611  0.1260  0.2124 -0.5820
  417MOL0     C56169   1.111  10.817   4.557  0.1389  0.1334  0.6008
  417MOL0     C56170   0.982  10.897   4.580  0.7366 -0.0781  0.9653
  417MOL0     C56171   0.862  10.843   4.507 -0.1135  0.3112  0.2664
  417MOL0     C56172   0.746  10.951   4.544 -0.1223  0.6072  0.0217
  417MOL0     C56173   0.613  10.891   4.509  0.3207 -0.2353 -0.1976
  417MOL0     C56174   0.499  10.972   4.577 -1.0640  0.4707 -0.3426
  417MOL0     C56175   0.359  10.933   4.537 -0.0519  0.6005 -0.7290
  417MOL0     C56176   0.241  10.990   4.614  0.6272 -0.1359 -0.8012
  417MOL0     N56177   0.119  10.949   4.536 -0.0927 -0.1847  0.1980
  417MOL0     C56178   0.033  10.850   4.576  0.2147  0.4556  0.5211
  417MOL0     C56179  -0.083  10.877   4.519  0.4649 -0.9436  0.0112
  417MOL0     C56180  -0.202  10.795   4.547 -0.5297  0.5666 -0.6841
  417MOL0     C56181  -0.319  10.886   4.528 -0.0253 -0.0250 -0.2590
  417MOL0     C56182  -0.463  10.817   4.526 -0.1801 -0.9615  0.4235
  417MOL0     C56183  -0.565  10.923   4.491  0.4456 -0.9663  0.1894
  417MOL0     O56184  -0.703  10.874   4.524  0.5450 -0.6311 -0.3706
  417MOL0     C56185  -0.810  10.958   4.527 -0.5708 -0.4540 -0.6300
  417MOL0     C56186  -0.927  10.907   4.582 -0.1597 -0.6131 -0.9704
  417MOL0     C56187  -1.049  10.984   4.586  0.2852 -0.0662  0.3697
  417MOL0     C56188  -1.162  10.912   4.635  0.5037  0.1835 -0.4546
  417MOL0     C56189  -1.045  11.122   4.562  0.3190 -0.1826 -0.0060
  417MOL0     C56190  -1.154  11.220   4.558 -0.5823  0.8971 -0.0214
  417MOL0     O56191  -1.271  11.170   4.519  0.3811 -0.6712 -0.2197
  417MOL0     C56192  -1.378  11.255   4.536 -0.3660  0.2305  0.2530
  417MOL0     C56193  -1.418  11.282   4.670  1.0336 -0.4778  0.2550
  417MOL0     C56194  -1.545  11.343   4.699  0.4229  0.1316  0.8030
  417MOL0     C56195  -1.626  11.376   4.593 -0.1536 -0.0051 -0.3150
  417MOL0     O56196  -1.750  11.432   4.605 -0.2290 -0.5246  0.4669
  417MOL0     C56197  -1.803  11.456   4.740 -0.0730  0.6191  0.4949
  417MOL0     C56198  -1.954  11.467   4.726  0.3636  0.1247 -0.2480
  417MOL0     C56199  -2.021  11.486   4.872  0.8522  0.3556  0.3482
  417MOL0     C56200  -2.173  11.464   4.883 -0.3228  0.0517  0.1814
  417MOL0     C56201  -2.227  11.507   5.026  0.9075 -0.0142  0.5084
  417MOL0     C56202  -2.381  11.473   5.045  0.4100  0.1159 -0.3719
  417MOL0     C56203  -2.441  11.506   5.179  0.5618 -0.1701  0.6551
  417MOL0     C56204  -2.590  11.459   5.175  0.1100  0.1490 -0.2186
  417MOL0    Cl56205  -2.666  11.470   5.339 -0.1258 -0.3401 -0.1133
  417MOL0     C56206  -1.577  11.361   4.461 -0.2408  0.2050  0.9966
  417MOL0     C56207  -1.463  11.287   4.432  0.2381 -0.2823 -0.1179
  417MOL0     O56208  -1.131  11.329   4.595 -0.8903 -0.5321  0.2315
  417MOL0     C56209  -0.927  11.170   4.503  0.3624  0.5098  0.8544
  417MOL0     C56210  -0.814  11.089   4.487  0.5755 -0.3281  0.6401
  417MOL0     N56211  -0.072  10.995   4.439 -0.1676 -0.6020 -0.2185
  417MOL0     N56212   0.050  11.027   4.459  0.4278 -0.0124 -0.2526
  417MOL0     C56213   1.408  10.956   4.736  0.0358  0.5714  0.6434
  417MOL0     C56214   1.523  10.920   4.810 -0.5900  0.0347 -0.5008
  417MOL0     C56215   1.858  10.764   5.027  0.0394 -0.4522  1.1887
  417MOL0     C56216   1.938  10.716   4.924 -0.8840 -0.1549  0.0487
  417MOL0     C56217   2.075  10.692   4.943 -1.0677  0.2886  0.1525
  417MOL0     C56218   2.143  10.725   5.067 -0.4013  0.1213 -0.0448
  417MOL0     O56219   2.281  10.716   5.060  0.3323  0.6260  0.1680
  417MOL0     C56220   2.363  10.749   5.175  0.2480  0.0307  0.3570
  417MOL0     C56221   2.519  10.735   5.147 -0.0988 -1.0487 -0.2512
  417MOL0     C56222   2.571  10.830   5.034  0.1727  0.6063  0.2234
  417MOL0     C56223   2.720  10.861   5.037 -0.0558 -0.2898 -1.1372
  417MOL0     C56224   2.760  10.893   5.173 -0.1871 -0.9092 -1.0607
  417MOL0     C56225   2.796  10.921   5.282 -0.1117 -0.2505  0.0936
  417MOL0     C56226   2.062  10.771   5.173  0.1974  0.1304 -0.1624
  417MOL0     C56227   1.923  10.798   5.148 -0.5617  0.0359  0.2537
  417MOL0     H56228   1.501  10.576   4.774 -1.4695 -0.4127 -0.1526
  417MOL0     H56229   1.312  10.633   4.632  1.7936 -0.1919 -3.0180
  417MOL0     H56230   1.130  10.803   4.450  2.3896  2.6800  0.5549
  417MOL0     H56231   1.105  10.715   4.596 -0.7879 -0.3344 -0.6814
  417MOL0     H56232   0.968  10.906   4.688 -0.8216  2.1103  0.6603
  417MOL0     H56233   0.984  10.999   4.539 -1.6472 -0.4463 -0.2282
  417MOL0     H56234   0.880  10.833   4.399 -1.1137 -4.0762  0.3082
  417MOL0     H56235   0.835  10.749   4.556  1.3000  0.0061  0.5134
  417MOL0     H56236   0.747  10.960   4.653  0.9560 -2.6038  0.3694
  417MOL0     H56237   0.761  11.048   4.496  1.1043  0.3487 -0.1444
  417MOL0     H56238   0.605  10.880   4.400  1.0017 -1.0464 -0.1676
  417MOL0     H56239   0.601  10.792   4.554 -2.1806  0.1743  0.1796
  417MOL0     H56240   0.516  10.966   4.684  2.3286  0.9417 -0.7365
  417MOL0     H56241   0.518  11.076   4.546 -1.3558  0.5394 -0.2928
  417MOL0     H56242   0.358  10.955   4.430  1.0338  0.7204 -0.7210
  417MOL0     H56243   0.343  10.825   4.548  3.0203  0.2236  1.2565
  417MOL0     H56244   0.263  11.097   4.608  0.4510  0.0155  0.9590
  417MOL0     H56245   0.234  10.969   4.721  1.1182  0.8757 -0.5564
  417MOL0     H56246   0.051  10.771   4.648  1.7608 -0.7310 -1.0930
  417MOL0     H56247  -0.218  10.710   4.480  1.3452 -0.3227 -0.0769
  417MOL0     H56248  -0.196  10.752   4.648 -2.4789  2.1215  0.1784
  417MOL0     H56249  -0.321  10.932   4.429 -0.7187 -0.6792 -0.5604
  417MOL0     H56250  -0.312  10.964   4.604  0.8981 -0.1322 -0.2212
  417MOL0     H56251  -0.480  10.770   4.624 -2.6124 -0.7921  0.1284
  417MOL0     H56252  -0.462  10.726   4.465  0.0641 -1.9017  1.7795
  417MOL0     H56253  -0.565  10.962   4.388  1.8977 -0.4318  0.3577
  417MOL0     H56254  -0.549  11.009   4.557 -0.6508  1.6271 -2.6532
  417MOL0     H56255  -0.930  10.803   4.611  0.4996 -0.3431  0.1295
  417MOL0     H56256  -1.255  10.971   4.643  0.2592 -0.3469  1.0666
  417MOL0     H56257  -1.182  10.819   4.583  2.8562 -1.3506  1.2199
  417MOL0     H56258  -1.154  10.884   4.741 -1.5761 -2.5347 -0.9105
  417MOL0     H56259  -1.362  11.246   4.756 -0.7369 -5.2491 -0.2873
  417MOL0     H56260  -1.582  11.342   4.801 -2.9606  2.0146 -0.2548
  417MOL0     H56261  -1.791  11.370   4.806  1.1757  1.2122  1.0610
  417MOL0     H56262  -1.766  11.551   4.779 -0.5565  1.7597 -1.6390
  417MOL0     H56263  -1.988  11.553   4.668 -1.7645 -1.2518 -1.1822
  417MOL0     H56264  -1.991  11.380   4.670 -1.2921 -0.5237  1.7261
  417MOL0     H56265  -2.003  11.590   4.898 -0.2773  0.4282  0.8736
  417MOL0     H56266  -1.987  11.410   4.943 -3.9860  0.6765  3.4925
  417MOL0     H56267  -2.228  11.521   4.808  2.9036  2.4334 -0.6023
  417MOL0     H56268  -2.200  11.361   4.860  3.7890 -1.0806 -0.3142
  417MOL0     H56269  -2.211  11.614   5.041  0.8015  0.3891 -1.8956
  417MOL0     H56270  -2.167  11.457   5.102 -1.6396  0.2080  2.8068
  417MOL0     H56271  -2.430  11.540   4.974  1.1983  1.9107  0.7311
  417MOL0     H56272  -2.411  11.369   5.025 -2.1756  0.5317  0.9214
  417MOL0     H56273  -2.444  11.614   5.189 -2.6626  0.6496 -5.0750
  417MOL0     H56274  -2.386  11.449   5.255 -2.9966 -1.1820  2.6979
  417MOL0     H56275  -2.603  11.356   5.139  0.4517  0.4742 -1.3111
  417MOL0     H56276  -2.649  11.518   5.104 -0.9781  1.0161  1.3661
  417MOL0     H56277  -1.628  11.404   4.375  1.1551  2.4029  1.2027
  417MOL0     H56278  -1.451  11.263   4.327  0.1169 -0.5894 -0.0616
  417MOL0     H56279  -0.916  11.274   4.474 -1.4671  0.3346 -0.6651
  417MOL0     H56280  -0.729  11.130   4.432 -0.7408  0.3564 -0.9593
  417MOL0     H56281   1.385  11.061   4.719  0.5142  0.5430 -0.2515
  417MOL0     H56282   1.589  10.991   4.858  1.2328 -2.0505  0.2566
  417MOL0     H56283   1.897  10.679   4.831  0.9882  1.8009 -1.6921
  417MOL0     H56284   2.122  10.645   4.857 -1.7549  1.3313 -0.8397
  417MOL0     H56285   2.347  10.853   5.204  3.8376 -0.0850  3.6234
  417MOL0     H56286   2.341  10.692   5.266  1.5662 -2.2706 -0.6836
  417MOL0     H56287   2.551  10.631   5.131  2.5518 -0.5273  1.1706
  417MOL0     H56288   2.564  10.754   5.245  1.1112 -2.2363 -0.5401
  417MOL0     H56289   2.500  10.913   5.029 -0.8377  0.0484  3.1824
  417MOL0     H56290   2.559  10.778   4.938 -0.7756 -0.5149  0.9301
  417MOL0     H56291   2.737  10.949   4.975 -3.6258  1.4002  0.0133
  417MOL0     H56292   2.780  10.774   5.008 -0.7100 -0.7373 -1.1868
  417MOL0     H56293   2.852  10.949   5.369 -0.8984 -0.8534  0.8062
  417MOL0     H56294   2.107  10.806   5.265 -1.7995  3.7482 -0.3238
  417MOL0     H56295   1.862  10.825   5.234  0.6078  1.0034  0.8133
  418MOL0     O56296   2.686   0.414   1.031  0.3489  0.6421  0.4120
  418MOL0     C56297   2.658   0.534   1.010  0.0321 -0.2665  0.1226
  418MOL0     O56298   2.540   0.583   0.952 -0.1450  0.7996 -0.1592
  418MOL0     C56299   2.442   0.488   0.946  0.1858 -0.0470  0.4197
  418MOL0     C56300   2.367   0.483   1.063 -0.3744  0.6011 -0.2502
  418MOL0     C56301   2.265   0.388   1.077 -0.1937 -0.3345 -0.0486
  418MOL0     C56302   2.220   0.314   0.961  0.4142 -0.9355 -0.3559
  418MOL0     O56303   2.104   0.243   0.966 -0.4136  0.3986  0.0036
  418MOL0     C56304   2.010   0.221   0.855 -0.1601 -0.6456  0.0495
  418MOL0     C56305   1.896   0.323   0.849  0.4725  0.1671 -0.1865
  418MOL0     C56306   1.944   0.476   0.816 -0.2123  0.2467 -0.1270
  418MOL0     C56307   2.012   0.485   0.682 -0.9481  0.0020  0.6824
  418MOL0     C56308   1.996   0.629   0.629 -0.0436 -0.6942 -0.3220
  418MOL0     C56309   2.128   0.701   0.621  0.6863 -0.3727  0.8199
  418MOL0     C56310   2.181   0.739   0.761  1.0281 -0.0894 -0.3300
  418MOL0     C56311   2.329   0.775   0.746 -0.3316  0.7298  1.0966
  418MOL0     N56312   2.357   0.918   0.688  0.2419  0.2612 -0.2433
  418MOL0     C56313   2.475   0.954   0.627 -0.1517 -0.4577  0.5976
  418MOL0     C56314   2.453   1.058   0.544 -0.1549  0.3125 -0.0213
  418MOL0     C56315   2.561   1.135   0.476 -0.1833  1.0167  0.0851
  418MOL0     C56316   2.520   1.269   0.394  0.3625 -0.2740 -0.2684
  418MOL0     C56317   2.544   1.403   0.470  0.2784  0.5807  0.4566
  418MOL0     C56318   2.514   1.412   0.619  0.1410 -0.0501  0.1103
  418MOL0     O56319   2.527   1.553   0.643  0.4744  0.6869 -0.0610
  418MOL0     C56320   2.495   1.613   0.764  0.2051 -0.5260 -0.2731
  418MOL0     C56321   2.529   1.746   0.787 -0.1256 -0.2640  0.5969
  418MOL0     C56322   2.499   1.818   0.903 -0.3907 -0.2180 -0.5399
  418MOL0     C56323   2.541   1.962   0.903  0.3416 -0.1953 -1.0214
  418MOL0     C56324   2.430   1.749   1.006 -0.3945  0.5712  0.3290
  418MOL0     C56325   2.375   1.818   1.126 -0.1656 -0.3481  0.1445
  418MOL0     O56326   2.336   1.741   1.229  0.3485  0.8718 -0.0849
  418MOL0     C56327   2.280   1.796   1.334  0.0674 -0.3962 -0.9337
  418MOL0     C56328   2.352   1.802   1.457  0.2034 -0.4352 -0.7584
  418MOL0     C56329   2.279   1.863   1.566 -0.1281  1.4445  1.1946
  418MOL0     C56330   2.158   1.926   1.554  0.3568 -0.4752 -0.0991
  418MOL0     O56331   2.115   2.002   1.660  0.1509 -0.7822 -0.2333
  418MOL0     C56332   1.981   1.982   1.709 -0.3019  0.0264  0.1189
  418MOL0     C56333   1.924   2.096   1.789 -0.2965 -0.1196  0.2565
  418MOL0     C56334   1.891   2.220   1.708 -0.9135  1.2543 -0.4243
  418MOL0     C56335   1.748   2.231   1.656  0.3276 -1.1449  0.1309
  418MOL0     C56336   1.716   2.123   1.552 -0.0737  0.9809  0.0282
  418MOL0     C56337   1.617   2.010   1.598  0.6798 -0.7721 -0.2055
  418MOL0     C56338   1.571   1.939   1.479  0.5742 -0.1364 -0.0755
  418MOL0     C56339   1.484   1.823   1.532  0.2256  0.6421 -0.1593
  418MOL0    Cl56340   1.454   1.705   1.400  0.2648  0.7968  0.7144
  418MOL0     C56341   2.090   1.913   1.432  0.1492 -1.2024  0.4764
  418MOL0     C56342   2.155   1.854   1.325 -0.0659 -0.4414  0.2758
  418MOL0     O56343   2.344   1.934   1.122 -0.4489 -0.1593  0.5301
  418MOL0     C56344   2.395   1.612   0.987  0.2077  0.8490  0.5975
  418MOL0     C56345   2.428   1.546   0.868 -0.5421 -0.8185 -0.2519
  418MOL0     N56346   2.325   1.094   0.575 -0.5465  0.4105 -0.1843
  418MOL0     N56347   2.266   1.013   0.654 -0.3834  0.1098 -0.1735
  418MOL0     C56348   2.297   0.327   0.843 -0.4578  0.5050 -0.7464
  418MOL0     C56349   2.413   0.412   0.836  0.2826  0.3055 -0.1729
  418MOL0     C56350   2.771   0.621   1.050 -0.3048 -0.3854  0.6815
  418MOL0     C56351   2.776   0.747   1.010 -0.2809 -0.5424  0.0926
  418MOL0     C56352   2.882   0.832   1.032 -0.1054 -0.7301  0.0216
  418MOL0     C56353   2.986   0.793   1.105 -0.3016  0.7459  0.5855
  418MOL0     O56354   3.092   0.876   1.140  0.3328  0.2490  0.1567
  418MOL0     C56355   3.057   1.016   1.139  0.0014 -0.2810 -0.3074
  418MOL0     C56356   3.188   1.090   1.187 -0.1554  0.0988 -0.1746
  418MOL0     C56357   3.313   1.065   1.096  0.3017 -0.7232  0.2574
  418MOL0     C56358   3.440   1.128   1.155 -0.2945  0.6219  1.1532
  418MOL0     C56359   3.551   1.069   1.077 -0.1194 -0.6435  0.5467
  418MOL0     C56360   3.651   1.024   1.036 -0.5178  1.2762 -0.3002
  418MOL0     C56361   2.995   0.657   1.147  0.5212  0.5690  1.4499
  418MOL0     C56362   2.886   0.571   1.109  0.4905  0.4403 -0.5191
  418MOL0     H56363   2.405   0.553   1.137  0.2614  0.7511 -0.7129
  418MOL0     H56364   2.213   0.362   1.169  0.3153 -3.4507 -0.5287
  418MOL0     H56365   2.056   0.222   0.756 -3.3387 -1.9012 -1.5326
  418MOL0     H56366   1.972   0.119   0.857 -2.2364  0.0356 -1.4413
  418MOL0     H56367   1.822   0.291   0.775 -2.4207 -1.3013  3.0412
  418MOL0     H56368   1.844   0.305   0.944 -2.0228  1.8016 -1.1253
  418MOL0     H56369   1.850   0.533   0.816  1.0220  2.3879  1.1224
  418MOL0     H56370   2.007   0.517   0.895  2.4440 -1.1903 -1.3690
  418MOL0     H56371   2.119   0.463   0.689 -0.2178  1.7916 -2.6975
  418MOL0     H56372   1.964   0.415   0.613 -1.1817  1.5943 -0.8268
  418MOL0     H56373   1.969   0.617   0.524 -0.4498  0.0301 -0.3103
  418MOL0     H56374   1.917   0.694   0.669 -0.8415 -1.8340  0.0208
  418MOL0     H56375   2.206   0.649   0.564  0.6341  1.3884 -0.9931
  418MOL0     H56376   2.101   0.796   0.573 -2.7168 -0.0500  3.0626
  418MOL0     H56377   2.137   0.827   0.808  0.2735 -2.0664  2.9617
  418MOL0     H56378   2.162   0.658   0.831  1.3739 -0.9804 -1.2405
  418MOL0     H56379   2.383   0.703   0.683 -0.8442  0.2520  1.1988
  418MOL0     H56380   2.378   0.775   0.844  3.2437 -0.4054 -0.5113
  418MOL0     H56381   2.574   0.914   0.647  0.0979 -1.0736 -1.6342
  418MOL0     H56382   2.639   1.169   0.544 -1.5758 -0.1958  2.4342
  418MOL0     H56383   2.609   1.061   0.411  1.5933  1.7467  0.5293
  418MOL0     H56384   2.414   1.262   0.366  0.3260  1.3395 -0.6346
  418MOL0     H56385   2.577   1.286   0.302 -0.7315 -1.5287 -1.2208
  418MOL0     H56386   2.475   1.475   0.423 -0.1483 -1.0532 -1.5493
  418MOL0     H56387   2.648   1.435   0.456 -0.1172  1.6392 -0.2260
  418MOL0     H56388   2.578   1.354   0.687  2.7291  2.4384 -0.0320
  418MOL0     H56389   2.408   1.388   0.634 -0.7475  2.0923 -2.1455
  418MOL0     H56390   2.577   1.813   0.717 -1.5232  1.1354  0.9117
  418MOL0     H56391   2.608   1.985   0.820  1.7869  0.3228  0.2524
  418MOL0     H56392   2.451   2.022   0.887  0.2994 -0.3171 -1.2447
  418MOL0     H56393   2.590   1.992   0.996  1.7255  1.0084 -2.1027
  418MOL0     H56394   2.441   1.743   1.476 -1.6732 -2.9668  0.8225
  418MOL0     H56395   2.331   1.875   1.661  2.4433  3.7622 -0.3614
  418MOL0     H56396   1.904   1.951   1.638  1.4080  1.9140 -2.7293
  418MOL0     H56397   1.996   1.892   1.771  0.7922 -1.0855 -1.6876
  418MOL0     H56398   1.837   2.056   1.843  0.0216 -1.9171 -0.4965
  418MOL0     H56399   1.989   2.125   1.872 -1.2244  2.3439  0.2239
  418MOL0     H56400   1.953   2.208   1.619  1.6937 -3.6991  1.6835
  418MOL0     H56401   1.919   2.303   1.774 -3.5027  1.1975  0.8947
  418MOL0     H56402   1.671   2.234   1.734  1.8613  3.7064  1.7781
  418MOL0     H56403   1.739   2.327   1.606  0.2338 -2.0132 -1.5908
  418MOL0     H56404   1.811   2.079   1.522 -0.0022  1.8534 -1.0714
  418MOL0     H56405   1.685   2.173   1.460 -2.4965 -0.4895 -0.0427
  418MOL0     H56406   1.666   1.939   1.665  0.7084 -1.0561 -0.5271
  418MOL0     H56407   1.532   2.058   1.649  1.3879 -2.3344  2.6643
  418MOL0     H56408   1.645   1.898   1.410  0.1990 -0.3300 -0.3696
  418MOL0     H56409   1.511   2.005   1.415  2.6672  0.0457 -1.9385
  418MOL0     H56410   1.388   1.852   1.576  0.2486 -1.6745  1.5761
  418MOL0     H56411   1.547   1.775   1.607  0.6035  2.2408  0.5967
  418MOL0     H56412   1.998   1.964   1.407  2.6423  3.2073 -0.6591
  418MOL0     H56413   2.094   1.841   1.236 -2.1712 -1.1944  1.7517
  418MOL0     H56414   2.331   1.558   1.056  0.1267  0.4733  0.2311
  418MOL0     H56415   2.395   1.445   0.851  0.3060 -1.4875  1.7136
  418MOL0     H56416   2.267   0.261   0.762 -1.0116 -0.1108 -0.0582
  418MOL0     H56417   2.473   0.424   0.747  1.2935  1.9379  0.6930
  418MOL0     H56418   2.697   0.773   0.939 -0.5783  1.6068  1.1420
  418MOL0     H56419   2.889   0.928   0.982  2.9216 -1.0869 -0.4698
  418MOL0     H56420   3.033   1.051   1.038 -1.0177 -0.1819 -0.0359
  418MOL0     H56421   2.974   1.035   1.208 -1.0241 -2.5165 -0.8125
  418MOL0     H56422   3.213   1.068   1.291  0.6953 -0.8986 -0.5799
  418MOL0     H56423   3.181   1.199   1.175  0.4738  0.0144 -1.3566
  418MOL0     H56424   3.294   1.087   0.990 -1.9943 -0.1795  0.7244
  418MOL0     H56425   3.334   0.957   1.091  2.5208 -0.3142  0.1318
  418MOL0     H56426   3.452   1.101   1.260 -1.0863 -3.7902  0.2659
  418MOL0     H56427   3.432   1.238   1.155 -0.2998  0.6316  0.3085
  418MOL0     H56428   3.737   0.964   1.014  0.5184  1.4014  2.9096
  418MOL0     H56429   3.088   0.627   1.193  0.7917 -1.7742 -0.3991
  418MOL0     H56430   2.899   0.464   1.117  0.1856  0.5109  1.6937
  419MOL0     O56431   5.736   6.199   4.411 -0.5840  0.7931  0.5754
  419MOL0     C56432   5.813   6.111   4.372  0.1144  0.2523 -0.2023
  419MOL0     O56433   5.776   5.981   4.339  0.3252 -0.9622  0.5523
  419MOL0     C56434   5.643   5.948   4.361 -0.7388  0.3759 -0.4822
  419MOL0     C56435   5.615   5.849   4.452 -0.0367  0.4614  0.7634
  419MOL0     C56436   5.483   5.816   4.481  0.2011 -0.0222  0.0543
  419MOL0     C56437   5.378   5.885   4.422  0.4032 -0.2167  0.3786
  419MOL0     O56438   5.245   5.846   4.446 -0.5459 -0.1597 -0.3461
  419MOL0     C56439   5.221   5.717   4.507  0.1623  0.0301  0.4729
  419MOL0     C56440   5.079   5.666   4.505 -0.5299 -0.3116  0.2495
  419MOL0     C56441   5.000   5.727   4.623  0.0959 -0.0616  0.3928
  419MOL0     C56442   4.855   5.685   4.618  0.6916 -0.1357  0.4317
  419MOL0     C56443   4.791   5.682   4.752  0.9785 -1.1992 -0.8665
  419MOL0     C56444   4.792   5.810   4.833  0.0900  0.2177 -0.6445
  419MOL0     C56445   4.677   5.813   4.932  0.2775 -0.2637  0.2917
  419MOL0     C56446   4.679   5.703   5.029 -0.2854  0.0288 -1.0646
  419MOL0     N56447   4.611   5.737   5.146 -0.5761 -0.0924  0.9009
  419MOL0     C56448   4.642   5.835   5.242 -0.0150  0.1678  0.3500
  419MOL0     C56449   4.527   5.845   5.312  0.5955 -0.6491 -0.7550
  419MOL0     C56450   4.506   5.964   5.409  0.7811 -0.5526  0.9018
  419MOL0     C56451   4.401   5.942   5.510 -0.2900 -0.8720  0.8387
  419MOL0     C56452   4.465   5.853   5.612 -0.3592 -0.0158  0.3452
  419MOL0     C56453   4.347   5.826   5.714 -0.3078  0.0217  0.0104
  419MOL0     O56454   4.254   5.735   5.648  0.0521  0.1257  0.6129
  419MOL0     C56455   4.118   5.734   5.677  0.1407 -0.7886 -0.5275
  419MOL0     C56456   4.045   5.855   5.661  0.0557 -0.3676 -0.0157
  419MOL0     C56457   3.910   5.860   5.678  0.0062  0.7368 -0.9687
  419MOL0     C56458   3.845   6.002   5.665  0.3912 -0.1120  0.3484
  419MOL0     C56459   3.845   5.743   5.707  0.6115  0.8883  0.4398
  419MOL0     C56460   3.704   5.741   5.748  0.4289 -0.1569  0.1194
  419MOL0     O56461   3.677   5.775   5.883 -0.0684  0.0794 -0.2268
  419MOL0     C56462   3.551   5.788   5.923  0.3533 -0.1798 -0.1717
  419MOL0     C56463   3.497   5.909   5.965 -0.5156  0.4412  0.7155
  419MOL0     C56464   3.369   5.921   6.008  0.3476  0.6361 -0.6191
  419MOL0     C56465   3.298   5.806   6.030  0.5752  0.4612  0.0890
  419MOL0     O56466   3.178   5.830   6.081 -0.1897 -0.4781 -0.0940
  419MOL0     C56467   3.068   5.743   6.059  0.1003 -0.2495  0.9332
  419MOL0     C56468   2.963   5.772   6.169  0.3122 -0.9136 -0.0249
  419MOL0     C56469   2.860   5.658   6.195 -0.0512 -0.0069 -0.2271
  419MOL0     C56470   2.720   5.683   6.122  0.8998 -0.1083 -0.1069
  419MOL0     C56471   2.635   5.559   6.141 -0.7250 -0.0695 -0.0412
  419MOL0     C56472   2.487   5.580   6.111  0.3197  0.3279  0.0925
  419MOL0     C56473   2.464   5.609   5.965  0.0703 -0.1284 -0.1302
  419MOL0     C56474   2.314   5.615   5.941  0.3307  0.0276 -0.2592
  419MOL0    Cl56475   2.229   5.471   6.018 -0.4528 -0.5985 -0.7642
  419MOL0     C56476   3.356   5.682   6.005 -0.5152 -0.4510  0.3433
  419MOL0     C56477   3.482   5.675   5.949 -0.3295 -0.1161  0.2950
  419MOL0     O56478   3.622   5.707   5.664 -0.6223  0.0190  0.9014
  419MOL0     C56479   3.920   5.619   5.711  0.4393 -0.6386  0.0059
  419MOL0     C56480   4.056   5.616   5.708 -0.2228  0.1263 -0.5874
  419MOL0     N56481   4.432   5.751   5.259 -0.5085  0.0353  0.2212
  419MOL0     N56482   4.484   5.687   5.156 -0.3231 -0.4574  0.5356
  419MOL0     C56483   5.400   5.978   4.324  0.3279 -0.0395  0.6492
  419MOL0     C56484   5.531   6.016   4.298 -0.2595 -0.3891 -0.9339
  419MOL0     C56485   5.952   6.132   4.334  0.0219 -0.4676  0.4028
  419MOL0     C56486   5.999   6.267   4.301  0.0702 -0.3107 -0.1670
  419MOL0     C56487   6.133   6.280   4.279 -0.4187 -0.1268 -0.5646
  419MOL0     C56488   6.230   6.180   4.299  0.0668 -0.4492  0.4113
  419MOL0     O56489   6.364   6.196   4.287 -0.3746  0.1809  0.9706
  419MOL0     C56490   6.400   6.327   4.332 -0.6871 -1.0829 -0.0107
  419MOL0     C56491   6.556   6.350   4.346  0.0439 -0.1306 -0.5285
  419MOL0     C56492   6.625   6.361   4.218  0.6561 -1.0727  0.4573
  419MOL0     C56493   6.768   6.391   4.230 -0.1594 -0.5880  0.4063
  419MOL0     C56494   6.828   6.378   4.096  0.1493 -0.0149 -0.4000
  419MOL0     C56495   6.870   6.381   3.984  0.5893  1.0679  0.7074
  419MOL0     C56496   6.182   6.052   4.327 -0.1018  0.1871 -0.1760
  419MOL0     C56497   6.042   6.030   4.341 -0.9462 -0.0175  0.7278
  419MOL0     H56498   5.681   5.788   4.513  1.2356  0.5335 -0.4704
  419MOL0     H56499   5.477   5.729   4.546  2.8753 -0.6251 -0.3728
  419MOL0     H56500   5.275   5.645   4.444  3.6079  2.8712 -0.1197
  419MOL0     H56501   5.265   5.704   4.606  0.0304  0.5478  0.6029
  419MOL0     H56502   5.028   5.695   4.412  1.7313 -2.4821 -1.8122
  419MOL0     H56503   5.085   5.559   4.524  1.1091 -0.0212  1.5945
  419MOL0     H56504   5.052   5.694   4.714  0.4591 -1.3429 -0.2571
  419MOL0     H56505   5.000   5.837   4.618 -1.6827  0.0028  1.0152
  419MOL0     H56506   4.808   5.762   4.557  2.6910  1.6032  0.9817
  419MOL0     H56507   4.852   5.582   4.581  0.9709  0.0287 -0.0533
  419MOL0     H56508   4.686   5.657   4.732  0.8250 -0.9305 -0.4290
  419MOL0     H56509   4.834   5.596   4.804  2.6702 -0.2576 -0.6348
  419MOL0     H56510   4.882   5.837   4.890 -0.9838  0.8435  0.8342
  419MOL0     H56511   4.763   5.888   4.762 -2.3142  0.5550  0.5953
  419MOL0     H56512   4.687   5.904   4.991  1.3744  0.6874 -1.2762
  419MOL0     H56513   4.583   5.813   4.876 -0.0107  0.3505  0.7689
  419MOL0     H56514   4.776   5.685   5.077 -2.9547  0.7129  5.8680
  419MOL0     H56515   4.648   5.609   4.982  1.0027 -1.3481  0.7034
  419MOL0     H56516   4.733   5.893   5.244  1.4873 -2.0601  0.8708
  419MOL0     H56517   4.598   6.007   5.449  1.2520  1.6062 -2.1615
  419MOL0     H56518   4.462   6.045   5.350 -1.6436 -1.0232  1.9655
  419MOL0     H56519   4.311   5.902   5.462 -0.8738  0.1231  1.0710
  419MOL0     H56520   4.379   6.043   5.547 -2.5896 -0.8112 -0.5067
  419MOL0     H56521   4.545   5.905   5.665  1.3209 -0.3436 -1.7262
  419MOL0     H56522   4.509   5.763   5.568 -0.1161  0.3941 -0.2628
  419MOL0     H56523   4.285   5.911   5.742 -2.2941 -1.5527  0.6116
  419MOL0     H56524   4.372   5.777   5.808  1.1677  1.3815  0.3745
  419MOL0     H56525   4.086   5.952   5.634 -1.3990 -0.1395 -1.6471
  419MOL0     H56526   3.740   5.992   5.694  1.3704 -3.0788  3.4651
  419MOL0     H56527   3.879   6.074   5.741 -1.9249  1.0043  0.4328
  419MOL0     H56528   3.857   6.045   5.565 -1.4827 -2.4336 -0.9700
  419MOL0     H56529   3.570   5.988   5.959  2.1693 -1.9486 -0.3274
  419MOL0     H56530   3.333   6.010   6.057  3.7708  1.5098  0.6134
  419MOL0     H56531   3.026   5.775   5.963 -1.3728  3.4802  2.6265
  419MOL0     H56532   3.100   5.638   6.056  2.6805  0.4288 -3.2061
  419MOL0     H56533   3.012   5.792   6.264  0.9345 -0.7499 -0.3762
  419MOL0     H56534   2.913   5.864   6.136  1.8875 -0.2936 -0.7570
  419MOL0     H56535   2.850   5.637   6.302 -0.6432  0.8386 -0.1032
  419MOL0     H56536   2.905   5.560   6.176  1.7729 -0.3681  4.5115
  419MOL0     H56537   2.672   5.771   6.166  1.4251  0.8554 -1.3908
  419MOL0     H56538   2.752   5.701   6.019  2.6504  1.3742  0.6397
  419MOL0     H56539   2.656   5.521   6.242  0.6685 -1.1894 -0.7163
  419MOL0     H56540   2.688   5.495   6.070  3.3207  1.1039  1.6667
  419MOL0     H56541   2.441   5.487   6.144 -0.7105  0.2403 -1.4520
  419MOL0     H56542   2.452   5.667   6.167 -1.0119 -0.1859  0.0742
  419MOL0     H56543   2.494   5.526   5.900  0.6743  0.2147 -0.3001
  419MOL0     H56544   2.519   5.699   5.936  1.6606 -0.5491  1.4494
  419MOL0     H56545   2.306   5.615   5.832  0.9139  1.0329 -0.3112
  419MOL0     H56546   2.269   5.708   5.977  1.5309  0.0045  1.4083
  419MOL0     H56547   3.305   5.589   6.029 -1.3417  0.4331  2.2214
  419MOL0     H56548   3.535   5.583   5.928  1.2896  0.7626  0.3677
  419MOL0     H56549   3.866   5.525   5.720  1.0063 -0.9172  0.6387
  419MOL0     H56550   4.112   5.524   5.718  0.4055  0.7198  2.7386
  419MOL0     H56551   5.319   6.034   4.279  0.4478  0.5900  1.2075
  419MOL0     H56552   5.536   6.102   4.232  2.4194  2.4082  2.4805
  419MOL0     H56553   5.928   6.346   4.277 -0.3688 -1.2920 -2.3364
  419MOL0     H56554   6.165   6.376   4.240  1.0435  0.4781  1.9053
  419MOL0     H56555   6.361   6.405   4.267 -0.6098  0.5962  1.8669
  419MOL0     H56556   6.350   6.344   4.428  0.6148 -0.2408  0.5536
  419MOL0     H56557   6.608   6.272   4.402  0.7815  0.1344 -0.8337
  419MOL0     H56558   6.561   6.444   4.401 -2.0738  0.2953 -0.9771
  419MOL0     H56559   6.563   6.439   4.172 -1.0870 -2.2882  0.6293
  419MOL0     H56560   6.607   6.270   4.161  0.1940 -0.4239 -0.4534
  419MOL0     H56561   6.843   6.330   4.283  1.9841  1.0058 -0.6275
  419MOL0     H56562   6.774   6.489   4.277 -0.9880  0.1144 -0.9125
  419MOL0     H56563   6.885   6.385   3.878 -0.1767 -1.0803  0.4585
  419MOL0     H56564   6.245   5.966   4.344 -1.8276 -1.1629 -0.3912
  419MOL0     H56565   6.020   5.924   4.349  5.2089 -1.7993 -0.2281
  420MOL0     O56566   4.222   9.335   6.174 -0.0198  0.1316  0.1369
  420MOL0     C56567   4.253   9.449   6.204  0.1826 -0.3397 -0.6297
  420MOL0     O56568   4.177   9.530   6.266 -0.3882 -0.4373 -0.1625
  420MOL0     C56569   4.052   9.492   6.307  0.4940  0.5533 -0.0361
  420MOL0     C56570   3.945   9.565   6.248 -0.0426 -0.6538 -0.0392
  420MOL0     C56571   3.814   9.535   6.280 -0.0048  0.1708 -0.7718
  420MOL0     C56572   3.786   9.439   6.381 -0.1941 -0.1653 -0.1763
  420MOL0     O56573   3.663   9.403   6.433 -0.9074  0.1189 -0.0218
  420MOL0     C56574   3.550   9.457   6.369  0.6253 -0.4925 -0.5009
  420MOL0     C56575   3.425   9.385   6.424 -0.4432 -0.7351  0.2096
  420MOL0     C56576   3.313   9.381   6.323 -0.4569  0.6140 -0.2251
  420MOL0     C56577   3.190   9.354   6.398  0.3093 -0.0038  0.6600
  420MOL0     C56578   3.069   9.322   6.302 -1.2242  0.3137 -0.5111
  420MOL0     C56579   2.925   9.327   6.373 -0.0083 -0.7522 -0.0737
  420MOL0     C56580   2.820   9.300   6.267 -0.6433  0.7143  0.1374
  420MOL0     C56581   2.687   9.339   6.326 -0.2542 -0.4482  1.0231
  420MOL0     N56582   2.568   9.301   6.250 -0.0942 -0.0200  0.4908
  420MOL0     C56583   2.556   9.177   6.196  0.0572  0.4218  0.6752
  420MOL0     C56584   2.427   9.159   6.160  0.0264 -0.4874  0.1249
  420MOL0     C56585   2.356   9.033   6.111  0.6013 -1.0763 -0.1803
  420MOL0     C56586   2.247   9.067   6.009 -0.8316  0.6476 -1.1139
  420MOL0     C56587   2.141   8.963   5.984  0.5268 -1.0872  0.2311
  420MOL0     C56588   2.001   9.018   5.947  0.1001 -0.0581 -0.1278
  420MOL0     O56589   2.019   9.129   5.855  0.2942  0.1310  0.6454
  420MOL0     C56590   1.911   9.212   5.833 -0.7066  0.2495 -0.1460
  420MOL0     C56591   1.785   9.208   5.894 -0.0279 -1.2434 -0.2614
  420MOL0     C56592   1.684   9.302   5.873 -0.0069  0.2643  0.5013
  420MOL0     C56593   1.554   9.279   5.947 -0.4762  0.1507 -0.1103
  420MOL0     C56594   1.706   9.403   5.773  0.2817  0.5077 -0.1097
  420MOL0     C56595   1.602   9.498   5.741 -0.1921 -0.0732 -0.2153
  420MOL0     O56596   1.647   9.617   5.694  0.0342  0.0948  0.3979
  420MOL0     C56597   1.549   9.718   5.690  0.1776 -0.3802 -0.0420
  420MOL0     C56598   1.420   9.704   5.625 -0.2515  0.7278 -0.1605
  420MOL0     C56599   1.327   9.803   5.630 -0.3667  0.4672  0.0426
  420MOL0     C56600   1.351   9.931   5.676 -0.5366  0.2525 -0.3465
  420MOL0     O56601   1.269  10.046   5.658 -0.0631 -0.6553 -0.6887
  420MOL0     C56602   1.294  10.119   5.529 -0.3163 -0.4811  0.1481
  420MOL0     C56603   1.162  10.125   5.450 -0.0526  0.6033  0.0383
  420MOL0     C56604   1.065  10.212   5.525  0.3737 -1.2366 -0.0188
  420MOL0     C56605   0.918  10.198   5.466 -0.5578 -0.5604 -0.6218
  420MOL0     C56606   0.818  10.294   5.535  0.7821 -0.3485 -0.0850
  420MOL0     C56607   0.670  10.264   5.488 -0.0356  0.2359 -0.4599
  420MOL0     C56608   0.632  10.112   5.514 -0.0705  0.4435 -0.0871
  420MOL0     C56609   0.478  10.093   5.515  0.0832  0.7304 -1.0667
  420MOL0    Cl56610   0.418  10.134   5.347  0.6619 -0.0111 -0.0186
  420MOL0     C56611   1.478   9.944   5.739  1.0094 -0.4393 -0.2629
  420MOL0     C56612   1.578   9.848   5.742 -0.1754  0.3496  0.5450
  420MOL0     O56613   1.488   9.467   5.750  0.1760  0.6422 -0.0696
  420MOL0     C56614   1.826   9.396   5.701 -0.4953 -0.4677  0.7620
  420MOL0     C56615   1.930   9.315   5.739  0.5062  0.2911  0.6775
  420MOL0     N56616   2.358   9.278   6.194  0.2752  0.6761  0.7726
  420MOL0     N56617   2.447   9.361   6.244 -0.0928 -0.8073  0.7966
  420MOL0     C56618   3.890   9.372   6.439 -0.2385  0.4494  0.3244
  420MOL0     C56619   4.025   9.393   6.400  0.5855  0.2560  0.3322
  420MOL0     C56620   4.392   9.493   6.169  0.3947 -0.2906 -1.1175
  420MOL0     C56621   4.412   9.640   6.155  1.3749  0.0439 -0.0829
  420MOL0     C56622   4.538   9.693   6.121  0.0899 -0.5487  0.3044
  420MOL0     C56623   4.643   9.607   6.111  0.2335 -0.0807 -0.1770
  420MOL0     O56624   4.784   9.638   6.089  0.2324 -0.4240  0.1914
  420MOL0     C56625   4.821   9.760   6.027 -0.4668  0.1784 -0.5533
  420MOL0     C56626   4.802   9.759   5.874  0.0040  0.9074 -0.0239
  420MOL0     C56627   4.766   9.889   5.803 -0.0133  0.3847 -0.9931
  420MOL0     C56628   4.744   9.884   5.654 -0.2048 -0.5299 -0.3651
  420MOL0     C56629   4.867   9.844   5.580  0.1785 -0.1824  0.8756
  420MOL0     C56630   4.973   9.832   5.516  0.7218  0.6291 -0.1647
  420MOL0     C56631   4.629   9.469   6.119  0.0643  0.2882 -0.1911
  420MOL0     C56632   4.499   9.413   6.145  0.8362  0.8905  0.3158
  420MOL0     H56633   3.958   9.641   6.171 -3.5975 -0.8633 -1.0294
  420MOL0     H56634   3.739   9.592   6.226  0.5941  2.0587  0.2714
  420MOL0     H56635   3.543   9.564   6.395  1.1825 -0.2731 -1.2122
  420MOL0     H56636   3.566   9.447   6.262 -1.0234  0.2958 -0.8583
  420MOL0     H56637   3.443   9.279   6.446  5.0251  0.1662  1.3960
  420MOL0     H56638   3.396   9.421   6.523 -0.1845 -3.0901  1.2174
  420MOL0     H56639   3.298   9.478   6.275 -1.9011  0.5938  0.1620
  420MOL0     H56640   3.322   9.306   6.244  0.1747 -0.6331  0.9842
  420MOL0     H56641   3.193   9.282   6.480 -2.7759  1.2074  2.0171
  420MOL0     H56642   3.160   9.447   6.447 -2.6652 -0.0949 -0.7664
  420MOL0     H56643   3.064   9.396   6.222 -1.1558 -0.6950 -1.4744
  420MOL0     H56644   3.087   9.222   6.261 -0.7406  0.1660  0.0445
  420MOL0     H56645   2.921   9.253   6.454 -1.0248  0.0659  0.6583
  420MOL0     H56646   2.913   9.430   6.409 -0.7967 -1.1793  0.9554
  420MOL0     H56647   2.835   9.360   6.177 -0.2473 -0.5075 -0.6441
  420MOL0     H56648   2.822   9.194   6.238  0.1795  1.3255 -2.1956
  420MOL0     H56649   2.688   9.449   6.322 -1.8911 -0.4275  0.4638
  420MOL0     H56650   2.686   9.293   6.425 -1.5729 -0.3205  1.0780
  420MOL0     H56651   2.629   9.096   6.189 -1.7597 -1.2434  0.1640
  420MOL0     H56652   2.423   8.950   6.088  1.6543 -0.7180  1.4295
  420MOL0     H56653   2.307   9.003   6.204 -1.1933  0.1724 -0.6584
  420MOL0     H56654   2.299   9.105   5.921  1.1729  0.8655  0.1127
  420MOL0     H56655   2.183   9.149   6.042 -2.9573 -1.2429 -0.2431
  420MOL0     H56656   2.121   8.907   6.076  0.7080  1.2787  1.8091
  420MOL0     H56657   2.172   8.894   5.906  0.4497 -0.7857 -0.0692
  420MOL0     H56658   1.945   9.052   6.035 -0.8029  0.7598 -0.9799
  420MOL0     H56659   1.943   8.943   5.892  0.0073  2.7801 -4.4440
  420MOL0     H56660   1.770   9.145   5.981  0.4283  3.2250  3.3852
  420MOL0     H56661   1.559   9.193   6.015 -1.4079 -0.9298 -1.3261
  420MOL0     H56662   1.526   9.362   6.012 -1.2405 -1.5453  1.8499
  420MOL0     H56663   1.473   9.263   5.875  2.2376 -1.4220 -3.1018
  420MOL0     H56664   1.394   9.607   5.584  3.1025 -0.8958  1.1690
  420MOL0     H56665   1.227   9.787   5.589  0.1294 -2.5832 -0.2446
  420MOL0     H56666   1.343  10.213   5.554 -0.4562  0.1000 -1.6491
  420MOL0     H56667   1.363  10.054   5.475  0.3850 -1.3003  1.9516
  420MOL0     H56668   1.170  10.174   5.352 -5.2878 -0.1857 -1.0855
  420MOL0     H56669   1.121  10.024   5.443  1.2688 -0.2467  3.0370
  420MOL0     H56670   1.091  10.317   5.509 -4.7621 -0.0161 -2.8289
  420MOL0     H56671   1.064  10.195   5.633  2.4431  2.2515  0.6715
  420MOL0     H56672   0.931  10.223   5.360  2.8005  4.6801  0.6453
  420MOL0     H56673   0.885  10.097   5.489 -0.3767 -0.3591  0.5707
  420MOL0     H56674   0.825  10.395   5.493 -1.7049 -0.6897 -1.4791
  420MOL0     H56675   0.817  10.296   5.645  0.2662 -2.4814 -0.0188
  420MOL0     H56676   0.595  10.332   5.529  2.1777  2.1228  0.6617
  420MOL0     H56677   0.653  10.271   5.380 -3.5566  2.2897  0.0791
  420MOL0     H56678   0.672  10.091   5.614  0.2355 -0.3496 -0.3688
  420MOL0     H56679   0.690  10.044   5.451  1.1405  0.4928  0.9250
  420MOL0     H56680   0.434  10.162   5.587  2.6392 -0.2619  1.6440
  420MOL0     H56681   0.443   9.991   5.533  1.5116  0.6054  1.6167
  420MOL0     H56682   1.506  10.042   5.777  6.0737 -1.4920 -0.6375
  420MOL0     H56683   1.670   9.867   5.797 -0.5910 -0.5393  1.5938
  420MOL0     H56684   1.834   9.459   5.613 -0.4410  1.9815  2.4157
  420MOL0     H56685   2.023   9.317   5.684 -0.4148  2.7140 -0.9427
  420MOL0     H56686   3.867   9.305   6.521  1.3672 -2.0792 -1.1499
  420MOL0     H56687   4.111   9.344   6.445  0.6428 -1.2822 -1.3410
  420MOL0     H56688   4.325   9.703   6.170  0.2332 -1.3888 -0.4471
  420MOL0     H56689   4.552   9.800   6.114 -3.3048 -0.0522 -0.9824
  420MOL0     H56690   4.784   9.849   6.079 -1.1679 -0.7744  0.6201
  420MOL0     H56691   4.928   9.773   6.040 -0.7305  1.4858  0.5332
  420MOL0     H56692   4.734   9.677   5.851  0.1699  0.3094  1.5027
  420MOL0     H56693   4.896   9.720   5.834  0.3924  1.8972 -0.1152
  420MOL0     H56694   4.845   9.964   5.816  0.1491 -0.2593  2.5314
  420MOL0     H56695   4.673   9.923   5.849  0.2791  1.5088 -1.1879
  420MOL0     H56696   4.710   9.986   5.633  1.6785  0.5742  1.5657
  420MOL0     H56697   4.659   9.821   5.626 -1.4712  1.2040 -0.6366
  420MOL0     H56698   5.059   9.811   5.457  1.2048 -3.2628  1.5796
  420MOL0     H56699   4.723   9.416   6.105 -0.5383 -0.2886 -2.6448
  420MOL0     H56700   4.480   9.307   6.155  1.7613  0.5734 -0.9431
  421MOL0     O56701   2.130   6.186   6.012 -0.0210 -0.3739 -0.4086
  421MOL0     C56702   2.139   6.092   6.092 -0.6765  0.1596 -0.4342
  421MOL0     O56703   2.048   5.998   6.110 -0.2126  0.1519 -0.2616
  421MOL0     C56704   1.926   6.002   6.047  0.3913 -0.3847 -1.1121
  421MOL0     C56705   1.912   6.000   5.909 -0.3039 -0.0855 -0.3376
  421MOL0     C56706   1.779   5.980   5.848  0.0182  0.1436 -0.4262
  421MOL0     C56707   1.663   5.963   5.923 -0.3583 -0.6357 -0.0635
  421MOL0     O56708   1.542   5.930   5.868  0.3956 -0.5444 -0.0383
  421MOL0     C56709   1.516   5.986   5.735  0.0077 -0.6352 -0.3176
  421MOL0     C56710   1.384   5.952   5.677  0.0197 -0.6730 -0.0576
  421MOL0     C56711   1.270   6.003   5.763  0.2955  0.6751  0.4510
  421MOL0     C56712   1.147   6.028   5.682  0.4301 -0.1644  0.8832
  421MOL0     C56713   1.035   6.083   5.778  0.7175 -0.8402 -0.8901
  421MOL0     C56714   0.921   6.141   5.702  0.2499  1.0561  0.8261
  421MOL0     C56715   0.951   6.278   5.653 -0.6477 -0.3470  0.1816
  421MOL0     C56716   0.841   6.322   5.552  0.3075  0.3221 -0.2287
  421MOL0     N56717   0.722   6.368   5.624 -0.3297  0.2683 -0.1635
  421MOL0     C56718   0.616   6.292   5.652  0.6601 -0.9192  0.5187
  421MOL0     C56719   0.519   6.383   5.700  0.1752 -0.6118 -0.4414
  421MOL0     C56720   0.378   6.343   5.740 -0.0924  0.3083  0.3328
  421MOL0     C56721   0.363   6.367   5.898  0.1691  0.2011 -0.6045
  421MOL0     C56722   0.230   6.306   5.941  0.8785  0.2329  0.3383
  421MOL0     C56723   0.169   6.366   6.069 -0.2812  0.2740 -0.0418
  421MOL0     O56724   0.115   6.503   6.069  0.4828 -0.0358  0.0887
  421MOL0     C56725  -0.020   6.537   6.036 -0.5489 -0.7279  0.1808
  421MOL0     C56726  -0.108   6.439   5.991 -0.0656 -0.9032  0.4318
  421MOL0     C56727  -0.239   6.468   5.967 -0.1573  0.6263 -0.0379
  421MOL0     C56728  -0.328   6.349   5.939  0.1681  1.1408  0.2266
  421MOL0     C56729  -0.289   6.597   5.977  0.1561  0.5581  0.2024
  421MOL0     C56730  -0.426   6.651   5.950  0.3510 -1.5993  0.2748
  421MOL0     O56731  -0.447   6.785   5.981 -0.6024 -0.5621 -0.4361
  421MOL0     C56732  -0.574   6.846   5.963 -0.6032  0.8697 -0.0890
  421MOL0     C56733  -0.645   6.927   6.052 -0.1459  0.1211  0.3422
  421MOL0     C56734  -0.756   7.000   6.018 -0.2781 -0.1075  0.6794
  421MOL0     C56735  -0.806   6.999   5.881 -0.0215  0.1220  0.1151
  421MOL0     O56736  -0.917   7.077   5.852  0.3662 -0.0417 -0.1102
  421MOL0     C56737  -0.928   7.128   5.716 -0.2357 -0.5820  0.1372
  421MOL0     C56738  -1.020   7.248   5.701 -0.0714 -0.6796 -0.3352
  421MOL0     C56739  -1.172   7.220   5.684  0.4455  0.3401 -0.0011
  421MOL0     C56740  -1.252   7.350   5.722 -0.0219 -0.0990  0.0165
  421MOL0     C56741  -1.395   7.326   5.678  0.9490  0.1624 -0.5706
  421MOL0     C56742  -1.470   7.461   5.670  0.0569  0.4523  0.5107
  421MOL0     C56743  -1.622   7.447   5.655 -0.0369  0.1945 -0.3174
  421MOL0     C56744  -1.688   7.570   5.615  0.6122 -0.7676 -0.0169
  421MOL0    Cl56745  -1.862   7.538   5.604 -0.0058  0.2711 -0.4575
  421MOL0     C56746  -0.734   6.923   5.787 -0.1173 -0.3010 -0.4219
  421MOL0     C56747  -0.618   6.849   5.824  0.5168  0.3662 -0.0139
  421MOL0     O56748  -0.519   6.574   5.934 -0.3011  0.3129  0.2675
  421MOL0     C56749  -0.187   6.692   5.997 -0.0278 -0.6535  0.3131
  421MOL0     C56750  -0.056   6.665   6.032  0.5369 -0.4393  0.3742
  421MOL0     N56751   0.584   6.507   5.710 -0.2341 -0.1748 -0.5646
  421MOL0     N56752   0.697   6.500   5.649 -0.1703 -0.0208 -0.5008
  421MOL0     C56753   1.677   5.972   6.064 -0.3464  0.3881  0.1082
  421MOL0     C56754   1.806   5.981   6.122 -0.1866 -0.3943  0.4047
  421MOL0     C56755   2.274   6.067   6.138  0.6784 -0.2579 -0.8521
  421MOL0     C56756   2.372   6.159   6.129  0.3581  0.0690 -0.6931
  421MOL0     C56757   2.504   6.135   6.184 -0.0614 -0.4004  0.4288
  421MOL0     C56758   2.536   6.022   6.257  0.0622 -0.8090  0.0014
  421MOL0     O56759   2.659   6.009   6.316 -0.3027 -0.0379 -0.8149
  421MOL0     C56760   2.691   5.924   6.426 -0.0777  0.1314 -0.1263
  421MOL0     C56761   2.829   5.963   6.480 -0.2661 -0.5103 -0.3089
  421MOL0     C56762   2.883   5.848   6.570  0.6256 -0.6297  0.1933
  421MOL0     C56763   3.020   5.884   6.627 -0.1319  0.5132 -0.4558
  421MOL0     C56764   3.123   5.866   6.525  0.4827 -0.5278  0.8271
  421MOL0     C56765   3.218   5.853   6.454  0.1026  0.6483 -0.3294
  421MOL0     C56766   2.438   5.927   6.261 -0.4965  0.4088 -0.2444
  421MOL0     C56767   2.316   5.941   6.196  0.0958  0.0518 -0.7592
  421MOL0     H56768   2.000   6.003   5.845 -1.7840 -0.6643 -2.4976
  421MOL0     H56769   1.782   5.974   5.740  3.4164  0.4701 -0.4594
  421MOL0     H56770   1.543   6.091   5.724 -1.9722 -0.0638 -0.2601
  421MOL0     H56771   1.579   5.923   5.673  1.7146 -0.2729  0.9736
  421MOL0     H56772   1.379   6.003   5.581  0.7841 -2.3753 -1.0510
  421MOL0     H56773   1.387   5.843   5.667 -0.5391 -1.1885  3.7833
  421MOL0     H56774   1.248   5.935   5.847 -0.9174 -0.9558 -1.1065
  421MOL0     H56775   1.309   6.095   5.808  0.4895  0.7615  0.1077
  421MOL0     H56776   1.170   6.098   5.601 -0.0553  0.1906  1.0541
  421MOL0     H56777   1.104   5.939   5.635 -0.5126  0.9179 -0.3856
  421MOL0     H56778   1.005   6.010   5.854  1.0955  0.5617  0.6568
  421MOL0     H56779   1.074   6.167   5.835 -3.2386  1.1594 -0.7914
  421MOL0     H56780   0.907   6.073   5.618  2.4067  0.6768  0.7128
  421MOL0     H56781   0.826   6.138   5.755 -1.3026 -1.9882 -1.8036
  421MOL0     H56782   0.951   6.352   5.734 -1.1933 -0.5753  0.3917
  421MOL0     H56783   1.048   6.274   5.602 -1.5978 -1.1655 -1.6518
  421MOL0     H56784   0.817   6.237   5.487  0.8938  0.3159 -0.4445
  421MOL0     H56785   0.866   6.398   5.477 -4.2134  2.0670 -0.2692
  421MOL0     H56786   0.602   6.189   5.620  1.1064 -0.3116 -1.8161
  421MOL0     H56787   0.309   6.395   5.672 -2.2654 -1.8362  0.7600
  421MOL0     H56788   0.368   6.236   5.720  1.0070  0.6621 -2.7480
  421MOL0     H56789   0.358   6.472   5.929  1.0348  0.3046 -0.7752
  421MOL0     H56790   0.445   6.334   5.962 -1.2049  1.9131  2.2116
  421MOL0     H56791   0.243   6.199   5.954 -0.5531  0.3281  3.2747
  421MOL0     H56792   0.155   6.317   5.862  2.2834  2.4532 -0.8169
  421MOL0     H56793   0.248   6.379   6.144 -0.8090  0.4620  0.4905
  421MOL0     H56794   0.097   6.295   6.110  1.9824 -1.9887  0.2579
  421MOL0     H56795  -0.083   6.334   5.992  0.2745 -0.8258  0.3121
  421MOL0     H56796  -0.408   6.347   6.013 -0.9200  2.5942 -0.8480
  421MOL0     H56797  -0.375   6.352   5.840  1.8106  1.5737 -0.5969
  421MOL0     H56798  -0.269   6.257   5.949  0.9246  1.5017 -0.6385
  421MOL0     H56799  -0.608   6.946   6.153  0.4068 -0.4208  0.2468
  421MOL0     H56800  -0.820   7.060   6.082 -1.8182 -0.2007 -0.6869
  421MOL0     H56801  -0.830   7.156   5.676 -2.1450  3.4070 -2.4054
  421MOL0     H56802  -0.965   7.045   5.656  0.1233 -0.0842 -0.7877
  421MOL0     H56803  -1.008   7.318   5.784 -2.8342 -0.9496  0.3877
  421MOL0     H56804  -1.004   7.312   5.614 -0.7714  2.5789  1.7516
  421MOL0     H56805  -1.194   7.152   5.766 -0.0632  0.5167  0.0097
  421MOL0     H56806  -1.203   7.178   5.589 -2.8883  0.4162  0.9442
  421MOL0     H56807  -1.263   7.368   5.829 -3.4687  1.2074 -0.4265
  421MOL0     H56808  -1.205   7.425   5.657  0.8491 -4.0320 -4.4556
  421MOL0     H56809  -1.445   7.270   5.758 -0.7392 -1.6972 -2.7954
  421MOL0     H56810  -1.406   7.270   5.585 -0.7413  1.6524 -1.3139
  421MOL0     H56811  -1.443   7.511   5.764 -0.5933 -1.0237  1.5276
  421MOL0     H56812  -1.432   7.525   5.590  1.5519 -0.2240  0.6332
  421MOL0     H56813  -1.656   7.410   5.752  3.1096  0.2844  0.9335
  421MOL0     H56814  -1.649   7.379   5.574  0.5073  2.2550 -2.3368
  421MOL0     H56815  -1.658   7.608   5.517 -2.0831 -0.8890 -0.9879
  421MOL0     H56816  -1.667   7.654   5.682 -0.8568  0.4488 -1.0145
  421MOL0     H56817  -0.772   6.912   5.686  0.1715 -1.2493 -0.4355
  421MOL0     H56818  -0.569   6.789   5.749  0.5379 -0.5995  0.7489
  421MOL0     H56819  -0.200   6.799   5.983  2.4995 -0.0265  2.1060
  421MOL0     H56820   0.013   6.744   6.061 -1.2809  1.9471 -1.3880
  421MOL0     H56821   1.589   5.972   6.128  1.1989 -1.6936  2.4252
  421MOL0     H56822   1.790   5.977   6.230 -0.3207  2.2906  0.5330
  421MOL0     H56823   2.351   6.254   6.082 -2.1600 -0.0613  0.0052
  421MOL0     H56824   2.577   6.214   6.173 -0.5646 -0.1343 -1.4348
  421MOL0     H56825   2.622   5.923   6.511  0.0248 -1.5054 -0.0431
  421MOL0     H56826   2.713   5.825   6.385 -0.1335 -0.1531  0.5197
  421MOL0     H56827   2.821   6.054   6.541  1.4370 -0.0880 -0.6715
  421MOL0     H56828   2.883   5.989   6.389 -2.9245  4.8208 -0.7801
  421MOL0     H56829   2.893   5.758   6.508 -1.2292  0.0796 -1.2279
  421MOL0     H56830   2.810   5.822   6.647 -0.0716  0.8872  0.0894
  421MOL0     H56831   3.044   5.822   6.714  0.8433  1.2135 -0.2178
  421MOL0     H56832   3.019   5.985   6.669  0.7529 -1.0033  3.7663
  421MOL0     H56833   3.306   5.841   6.394 -0.2096  1.9271 -1.0838
  421MOL0     H56834   2.457   5.834   6.314  1.6336  2.4829  2.9596
  421MOL0     H56835   2.245   5.859   6.196  0.6867 -0.4828 -1.7170
  422MOL0     O56836   2.967  10.257   0.937 -0.1550 -0.0368  0.1100
  422MOL0     C56837   3.035  10.214   0.839  0.9396  0.5296  0.3240
  422MOL0     O56838   2.975  10.194   0.719  0.3404 -0.3358  0.6322
  422MOL0     C56839   2.836  10.162   0.706 -0.7123 -0.0845 -0.7189
  422MOL0     C56840   2.766  10.212   0.594 -0.7129 -0.0193 -0.2591
  422MOL0     C56841   2.623  10.197   0.583 -1.3108  0.5095  0.4305
  422MOL0     C56842   2.553  10.127   0.690  0.2777  0.0194 -0.2666
  422MOL0     O56843   2.416  10.108   0.701  0.0070  0.1048  0.5214
  422MOL0     C56844   2.338  10.207   0.634 -0.4231  0.3667  0.3835
  422MOL0     C56845   2.189  10.198   0.671 -0.3773 -1.0698  0.3652
  422MOL0     C56846   2.129  10.067   0.618  0.6112  0.5404  1.2045
  422MOL0     C56847   1.970  10.057   0.634 -0.1186 -0.0090 -0.2410
  422MOL0     C56848   1.899   9.928   0.591  0.1739 -0.7349  0.5526
  422MOL0     C56849   1.944   9.884   0.456 -0.1309  0.9355 -0.9843
  422MOL0     C56850   1.896   9.737   0.434  0.1531  0.8963  0.0664
  422MOL0     C56851   1.931   9.698   0.286  0.7578  0.3897 -0.4161
  422MOL0     N56852   1.887   9.560   0.252 -0.1664  0.3665  0.0388
  422MOL0     C56853   1.871   9.449   0.331 -0.6360  0.1317 -0.8648
  422MOL0     C56854   1.799   9.365   0.245  0.0612  0.1563 -0.3609
  422MOL0     C56855   1.721   9.237   0.286 -0.8965  0.7709  0.6149
  422MOL0     C56856   1.608   9.210   0.186 -0.5658  0.2275  0.3406
  422MOL0     C56857   1.492   9.309   0.210 -0.1696 -0.6122 -0.4106
  422MOL0     C56858   1.384   9.291   0.104 -0.1558  0.4199  0.2263
  422MOL0     O56859   1.266   9.356   0.156  0.1884 -0.5462  0.3474
  422MOL0     C56860   1.145   9.299   0.117 -0.7136  0.0347 -0.0891
  422MOL0     C56861   1.113   9.270  -0.021  0.3522 -0.3944 -0.2332
  422MOL0     C56862   0.987   9.228  -0.068 -0.0892 -0.4085 -0.7504
  422MOL0     C56863   0.985   9.194  -0.213 -0.5426  0.7875 -0.6290
  422MOL0     C56864   0.876   9.228   0.027  0.1350 -0.5295  0.0802
  422MOL0     C56865   0.746   9.180   0.001  0.4191 -1.0630 -0.1842
  422MOL0     O56866   0.679   9.136   0.106 -0.6423 -0.5768  0.1636
  422MOL0     C56867   0.575   9.054   0.104  0.1166  0.7227 -0.1303
  422MOL0     C56868   0.455   9.075   0.184 -0.3731 -1.0252  0.3212
  422MOL0     C56869   0.353   8.978   0.188 -0.5650  0.8843 -0.1220
  422MOL0     C56870   0.367   8.855   0.112 -0.2781 -0.6150  0.2071
  422MOL0     O56871   0.262   8.771   0.115 -0.5622 -0.1542  0.1320
  422MOL0     C56872   0.210   8.720  -0.009 -0.7202 -0.0082  0.3173
  422MOL0     C56873   0.082   8.621   0.008 -0.6688 -0.2856 -0.2689
  422MOL0     C56874  -0.008   8.660   0.122 -0.5711 -0.1122 -0.6343
  422MOL0     C56875  -0.080   8.538   0.173 -0.7007  0.5679 -0.0642
  422MOL0     C56876  -0.165   8.590   0.296 -0.5679  0.6097 -0.5303
  422MOL0     C56877  -0.207   8.455   0.365 -0.6016 -0.0077 -0.0273
  422MOL0     C56878  -0.312   8.387   0.278  0.4876 -0.3830 -0.1542
  422MOL0     C56879  -0.376   8.273   0.343  0.0528  0.5863 -1.1275
  422MOL0    Cl56880  -0.488   8.329   0.474 -0.4685 -0.3226 -0.0374
  422MOL0     C56881   0.482   8.840   0.024  0.3128  0.7447  0.1289
  422MOL0     C56882   0.584   8.938   0.028  0.0891  0.1690 -0.3431
  422MOL0     O56883   0.708   9.158  -0.114  0.0275 -0.3305  0.1278
  422MOL0     C56884   0.909   9.260   0.165  0.0359  0.0788  0.0327
  422MOL0     C56885   1.039   9.298   0.200 -0.0769 -0.3097  0.0750
  422MOL0     N56886   1.778   9.432   0.126  0.2191  0.2504  0.0334
  422MOL0     N56887   1.849   9.533   0.131  0.1568 -0.5980 -0.0697
  422MOL0     C56888   2.630  10.068   0.790 -0.5324 -0.7912 -0.3221
  422MOL0     C56889   2.770  10.088   0.802  0.1317 -0.0713  0.1035
  422MOL0     C56890   3.176  10.172   0.867 -0.9159  0.7007 -1.1825
  422MOL0     C56891   3.246  10.101   0.770  0.5190 -0.4172 -0.4385
  422MOL0     C56892   3.382  10.069   0.792  0.0016  0.3199  0.4949
  422MOL0     C56893   3.450  10.095   0.915  0.0889  0.1317  0.1086
  422MOL0     O56894   3.578  10.060   0.949  0.6315  0.7701  0.5491
  422MOL0     C56895   3.679  10.059   0.850  0.1939  1.1727 -0.3055
  422MOL0     C56896   3.810  10.076   0.917 -0.4310  0.8289  0.3149
  422MOL0     C56897   3.829  10.209   0.989  1.0748 -0.1775 -0.1298
  422MOL0     C56898   3.906  10.315   0.913  0.3131 -0.8352 -0.5619
  422MOL0     C56899   4.043  10.283   0.884  0.7020 -0.3186  0.0477
  422MOL0     C56900   4.161  10.281   0.870 -0.6491  0.2676  0.3311
  422MOL0     C56901   3.364  10.147   1.018 -0.9577 -0.3454  0.5091
  422MOL0     C56902   3.232  10.194   0.996 -0.2579  0.5194  0.0136
  422MOL0     H56903   2.831  10.264   0.524  0.2496 -0.8783 -0.0197
  422MOL0     H56904   2.561  10.227   0.499 -0.8293 -0.0607 -0.1399
  422MOL0     H56905   2.378  10.308   0.651  0.4306  0.3818 -1.4798
  422MOL0     H56906   2.345  10.186   0.527  1.3769 -2.6199  0.9841
  422MOL0     H56907   2.172  10.218   0.778  2.7189 -0.4912  0.8449
  422MOL0     H56908   2.152  10.288   0.621  1.7505 -0.5673 -0.4171
  422MOL0     H56909   2.148  10.070   0.510  1.2254 -1.4379  1.2205
  422MOL0     H56910   2.186   9.982   0.654  3.4161  0.1160 -3.4033
  422MOL0     H56911   1.933  10.082   0.734  2.0593  0.9750  0.3802
  422MOL0     H56912   1.932  10.131   0.563  1.6884 -0.0031 -1.2533
  422MOL0     H56913   1.900   9.859   0.676 -2.4498 -1.8122 -0.1771
  422MOL0     H56914   1.793   9.958   0.593  0.2732 -0.3821  2.2630
  422MOL0     H56915   1.904   9.949   0.378 -3.2194  0.0023 -0.3216
  422MOL0     H56916   2.053   9.890   0.454 -0.1100  1.4128  0.3209
  422MOL0     H56917   1.928   9.668   0.513 -2.0345 -0.7021 -0.3375
  422MOL0     H56918   1.787   9.724   0.437  0.2874 -1.4087 -1.7738
  422MOL0     H56919   2.038   9.707   0.267  0.3643  2.5706 -2.0198
  422MOL0     H56920   1.886   9.767   0.215  0.4420 -2.1041 -2.8143
  422MOL0     H56921   1.896   9.425   0.433 -0.7407 -2.9876 -1.4911
  422MOL0     H56922   1.787   9.150   0.281  1.1234  2.2814 -1.0072
  422MOL0     H56923   1.685   9.254   0.388  1.8482  1.2490  1.5904
  422MOL0     H56924   1.573   9.109   0.206 -1.9320  1.1224  2.7874
  422MOL0     H56925   1.637   9.216   0.080 -0.9149 -1.7530  0.0999
  422MOL0     H56926   1.525   9.413   0.219  2.7020 -0.9535 -4.3081
  422MOL0     H56927   1.449   9.281   0.306  0.6174  0.1602  0.1793
  422MOL0     H56928   1.367   9.184   0.091  2.1487  0.1939 -1.6541
  422MOL0     H56929   1.417   9.341   0.012 -2.4650  0.7103 -0.5202
  422MOL0     H56930   1.194   9.278  -0.092 -1.4977  1.5046 -2.3183
  422MOL0     H56931   1.084   9.180  -0.257 -1.0785  0.5312 -1.7964
  422MOL0     H56932   0.943   9.094  -0.222  2.0185 -0.3686 -0.3727
  422MOL0     H56933   0.925   9.262  -0.275 -1.8888 -2.2432 -2.9234
  422MOL0     H56934   0.435   9.167   0.238 -0.3930  0.7457 -2.5004
  422MOL0     H56935   0.265   8.976   0.251 -2.0979 -1.8584 -2.1272
  422MOL0     H56936   0.184   8.813  -0.060  0.2205  1.5001  2.4576
  422MOL0     H56937   0.289   8.667  -0.062  1.7596  1.5418  2.2387
  422MOL0     H56938   0.012   8.628  -0.076 -0.8498 -2.6392 -0.3735
  422MOL0     H56939   0.119   8.518   0.015 -1.1221 -0.4245  0.2673
  422MOL0     H56940  -0.081   8.733   0.086  0.7461  0.4527 -2.2856
  422MOL0     H56941   0.044   8.717   0.199  2.1588  2.0546 -3.7880
  422MOL0     H56942  -0.153   8.516   0.094 -0.9120 -0.4466  0.3980
  422MOL0     H56943  -0.015   8.453   0.197 -1.0601  0.7834  1.7966
  422MOL0     H56944  -0.237   8.671   0.275  1.2935  1.6775 -3.2975
  422MOL0     H56945  -0.094   8.640   0.364  0.9223  1.1506 -2.4000
  422MOL0     H56946  -0.122   8.388   0.375 -0.9648 -0.3668  0.7019
  422MOL0     H56947  -0.242   8.485   0.464  0.5172  1.8922 -0.1616
  422MOL0     H56948  -0.271   8.345   0.185  1.9586  1.1517 -0.2501
  422MOL0     H56949  -0.396   8.453   0.255 -0.3648 -0.5059  2.3590
  422MOL0     H56950  -0.301   8.206   0.387 -4.2316 -2.7243  2.0641
  422MOL0     H56951  -0.429   8.211   0.270  0.3190 -1.7372  0.5354
  422MOL0     H56952   0.483   8.755  -0.043 -0.6859  2.5006 -2.2211
  422MOL0     H56953   0.669   8.923  -0.038  0.2005  1.5235 -0.5453
  422MOL0     H56954   0.829   9.265   0.238  0.4647  0.7886  0.4622
  422MOL0     H56955   1.046   9.325   0.305 -0.2708 -0.7642  0.2087
  422MOL0     H56956   2.576  10.019   0.871 -2.5700  2.4885  0.4750
  422MOL0     H56957   2.819  10.058   0.894  1.2721 -0.3889 -0.5842
  422MOL0     H56958   3.193  10.071   0.680 -0.6286  1.3830 -0.4164
  422MOL0     H56959   3.443  10.036   0.708 -2.3506 -1.2010 -0.7170
  422MOL0     H56960   3.682   9.967   0.791  2.2835  1.2158 -0.3396
  422MOL0     H56961   3.655  10.136   0.777  1.3888  2.6246  0.7700
  422MOL0     H56962   3.892  10.047   0.851 -1.0808 -4.3131  1.3693
  422MOL0     H56963   3.816   9.988   0.981 -2.1907 -0.7798 -1.5865
  422MOL0     H56964   3.895  10.190   1.074  2.8585  0.1030 -1.4018
  422MOL0     H56965   3.733  10.254   1.016  1.0682  1.7695 -2.9866
  422MOL0     H56966   3.909  10.416   0.955  3.0809  0.3695 -3.2660
  422MOL0     H56967   3.857  10.319   0.815  0.4417 -1.5688 -0.6603
  422MOL0     H56968   4.268  10.278   0.862 -0.3011  3.2596  2.2576
  422MOL0     H56969   3.411  10.153   1.116  1.0140  0.1334 -0.4205
  422MOL0     H56970   3.173  10.239   1.076 -1.2756 -1.7395  0.6217
  423MOL0     O56971   9.050  10.969   4.296 -0.5018  0.0927  0.3054
  423MOL0     C56972   9.033  10.952   4.178 -1.0116 -0.2935  0.8092
  423MOL0     O56973   8.908  10.941   4.119 -0.2157 -0.0689  0.4687
  423MOL0     C56974   8.800  11.002   4.187 -0.2876  0.4396  0.0029
  423MOL0     C56975   8.775  11.130   4.144  0.2423  0.4012 -0.1454
  423MOL0     C56976   8.670  11.194   4.209 -0.3308  0.0848 -0.1231
  423MOL0     C56977   8.605  11.139   4.318 -0.3193 -0.1335 -0.9319
  423MOL0     O56978   8.503  11.220   4.360  0.2779 -0.5690 -0.2193
  423MOL0     C56979   8.460  11.217   4.495  0.4437  1.2554 -0.0949
  423MOL0     C56980   8.318  11.151   4.492 -0.6856  0.6006  0.6442
  423MOL0     C56981   8.218  11.224   4.406  0.3377  0.0425 -0.3869
  423MOL0     C56982   8.205  11.374   4.430  0.2655  0.6530 -0.7464
  423MOL0     C56983   8.088  11.439   4.357 -0.4814  0.1078 -0.2010
  423MOL0     C56984   8.068  11.594   4.384 -0.0145 -0.7875  1.1010
  423MOL0     C56985   8.167  11.690   4.303  0.4886  0.0347  0.4710
  423MOL0     C56986   8.137  11.840   4.316 -0.4868 -0.1344  0.0052
  423MOL0     N56987   8.003  11.889   4.261 -0.3896  0.3498 -0.2986
  423MOL0     C56988   7.980  11.959   4.142 -0.3234  0.3373  0.3109
  423MOL0     C56989   7.853  12.001   4.155 -0.8887  0.3844 -0.3180
  423MOL0     C56990   7.781  12.076   4.040 -1.0091  0.1749  0.6816
  423MOL0     C56991   7.647  12.026   4.000 -0.9191 -0.6455  0.3095
  423MOL0     C56992   7.650  11.909   3.909 -0.0542  0.8232  0.4192
  423MOL0     C56993   7.515  11.854   3.872  0.5463  0.0107  1.0448
  423MOL0     O56994   7.463  11.750   3.965 -0.0338  0.0626  0.1476
  423MOL0     C56995   7.424  11.629   3.918  0.5697  0.5218  0.2831
  423MOL0     C56996   7.328  11.573   3.993  0.5684 -0.4436 -0.3790
  423MOL0     C56997   7.278  11.454   3.958  0.3528 -0.0023 -0.4056
  423MOL0     C56998   7.180  11.390   4.057 -0.8691 -1.3067  0.4154
  423MOL0     C56999   7.317  11.398   3.838 -0.2910  0.5428 -0.8203
  423MOL0     C57000   7.262  11.274   3.789  0.0840 -0.0386  0.6631
  423MOL0     O57001   7.353  11.177   3.742  0.1655 -0.7523  0.4153
  423MOL0     C57002   7.298  11.059   3.707 -0.0478  0.0951 -0.1416
  423MOL0     C57003   7.274  11.020   3.574 -0.4397 -0.3576  0.1153
  423MOL0     C57004   7.207  10.901   3.546  0.2490 -0.1207  0.3025
  423MOL0     C57005   7.170  10.817   3.651 -0.1259  0.1942  0.3531
  423MOL0     O57006   7.123  10.697   3.619 -0.2888  0.0594 -0.5865
  423MOL0     C57007   7.008  10.656   3.695  0.2460  0.5571 -0.0138
  423MOL0     C57008   6.913  10.589   3.589 -0.1758 -1.0144  0.8368
  423MOL0     C57009   6.873  10.696   3.492  0.4046 -0.2934 -0.2325
  423MOL0     C57010   6.755  10.636   3.408 -0.1020 -0.1006  1.2544
  423MOL0     C57011   6.688  10.745   3.331 -0.2161 -0.6084 -0.8459
  423MOL0     C57012   6.586  10.700   3.226 -0.5550  0.5053 -0.5866
  423MOL0     C57013   6.472  10.614   3.289  0.8071  0.0200 -0.6516
  423MOL0     C57014   6.345  10.601   3.189  0.9165 -0.0310 -0.4202
  423MOL0    Cl57015   6.368  10.436   3.100 -0.0924 -0.2510  0.4266
  423MOL0     C57016   7.196  10.852   3.785  0.4826  0.1676  0.3171
  423MOL0     C57017   7.255  10.970   3.811 -0.4277 -0.5695  0.1836
  423MOL0     O57018   7.145  11.263   3.764 -0.6104  0.8694 -0.2780
  423MOL0     C57019   7.423  11.445   3.762  0.0134  0.3379 -0.7463
  423MOL0     C57020   7.475  11.561   3.808 -0.0599  0.0713  0.4565
  423MOL0     N57021   7.795  11.950   4.274 -0.6159 -0.0123  0.2915
  423MOL0     N57022   7.891  11.891   4.344  0.2598 -0.2148  0.7136
  423MOL0     C57023   8.631  11.008   4.353 -0.8776  0.6919 -0.3743
  423MOL0     C57024   8.733  10.937   4.292  1.0827 -0.1115  0.0147
  423MOL0     C57025   9.155  10.937   4.087 -0.1487  0.2102 -0.8027
  423MOL0     C57026   9.286  10.931   4.144 -0.6275  0.1287 -0.1641
  423MOL0     C57027   9.397  10.908   4.061  0.3787 -0.7077 -0.5674
  423MOL0     C57028   9.379  10.866   3.927 -0.7478  0.0525  0.8084
  423MOL0     O57029   9.495  10.818   3.858 -0.5685 -0.1838 -1.1742
  423MOL0     C57030   9.476  10.775   3.722 -0.3233 -1.0420 -0.3587
  423MOL0     C57031   9.595  10.723   3.656 -0.0834 -0.1510  0.8607
  423MOL0     C57032   9.627  10.590   3.722 -0.0633 -0.0928 -0.0915
  423MOL0     C57033   9.737  10.520   3.656  0.1110  1.2078  0.9897
  423MOL0     C57034   9.854  10.594   3.656 -0.3508 -0.0381  0.2994
  423MOL0     C57035   9.949  10.666   3.646  0.4249  0.0175 -0.4934
  423MOL0     C57036   9.253  10.855   3.884 -1.0677  0.2474  0.9215
  423MOL0     C57037   9.143  10.909   3.953 -0.2595  0.5242 -0.1232
  423MOL0     H57038   8.836  11.164   4.061  2.5961  2.0291  2.1092
  423MOL0     H57039   8.656  11.297   4.177  1.1194  0.6581  1.0075
  423MOL0     H57040   8.521  11.147   4.553  0.0450  0.3146 -0.7822
  423MOL0     H57041   8.457  11.322   4.526 -0.2315  0.9662  0.8828
  423MOL0     H57042   8.323  11.051   4.446  2.5330  0.8685  0.1851
  423MOL0     H57043   8.279  11.145   4.594  0.0102 -2.2718  0.8322
  423MOL0     H57044   8.242  11.201   4.302 -0.0620  0.4687 -0.5779
  423MOL0     H57045   8.118  11.184   4.424  1.3391 -2.8694 -0.7505
  423MOL0     H57046   8.188  11.378   4.538 -2.0230 -1.0543 -0.9808
  423MOL0     H57047   8.300  11.423   4.405  0.3730  0.3676 -0.8956
  423MOL0     H57048   8.094  11.422   4.250  0.7486 -0.3466 -0.0814
  423MOL0     H57049   7.997  11.393   4.395 -1.7003  1.9842 -0.7187
  423MOL0     H57050   7.966  11.616   4.350  0.0264 -1.7392  0.3345
  423MOL0     H57051   8.067  11.601   4.493 -1.2783 -1.9582  1.1916
  423MOL0     H57052   8.268  11.684   4.343  0.6452 -0.7998 -0.0462
  423MOL0     H57053   8.160  11.661   4.198 -2.1861  0.8344  0.3560
  423MOL0     H57054   8.214  11.903   4.270  1.8670 -1.3007  2.0951
  423MOL0     H57055   8.144  11.865   4.422 -0.4187  0.3823 -0.1150
  423MOL0     H57056   8.043  11.995   4.062 -0.1197 -1.0737 -0.1871
  423MOL0     H57057   7.766  12.182   4.062 -1.9514  0.7849 -2.4221
  423MOL0     H57058   7.849  12.086   3.955  2.6285 -1.1006  3.1840
  423MOL0     H57059   7.585  12.106   3.959 -0.2865 -0.2613  0.0913
  423MOL0     H57060   7.613  11.993   4.099  1.1603 -0.1048  1.2442
  423MOL0     H57061   7.720  11.834   3.946 -0.8613 -0.0250  0.2451
  423MOL0     H57062   7.687  11.954   3.816  4.3275 -2.4067  0.2503
  423MOL0     H57063   7.529  11.818   3.770  2.7895 -0.0404  1.3173
  423MOL0     H57064   7.435  11.929   3.878 -1.4514 -2.1383  3.2574
  423MOL0     H57065   7.293  11.636   4.075 -0.1205  0.2570 -1.1996
  423MOL0     H57066   7.228  11.370   4.154  0.5633  2.7490  0.7389
  423MOL0     H57067   7.094  11.453   4.076  0.7534  0.0962  4.1567
  423MOL0     H57068   7.131  11.303   4.012  0.0843 -1.2759 -0.7384
  423MOL0     H57069   7.297  11.102   3.507 -0.4635  0.6403  1.3005
  423MOL0     H57070   7.191  10.866   3.445 -5.1018 -0.6754  1.0346
  423MOL0     H57071   7.028  10.576   3.767 -3.1996 -2.4540 -2.0597
  423MOL0     H57072   6.957  10.740   3.743  0.1053  1.1952 -1.2500
  423MOL0     H57073   6.955  10.506   3.532  1.1051 -0.7646  1.3807
  423MOL0     H57074   6.822  10.557   3.640 -0.0214 -0.1375  1.7033
  423MOL0     H57075   6.954  10.708   3.418  1.6481 -1.6242  0.8394
  423MOL0     H57076   6.841  10.787   3.544  0.4333 -1.0558  1.1666
  423MOL0     H57077   6.791  10.565   3.333  1.1225  2.2988 -0.5700
  423MOL0     H57078   6.686  10.593   3.481 -0.0691 -2.8047 -0.1877
  423MOL0     H57079   6.774  10.793   3.284  0.0451  2.6867  2.4979
  423MOL0     H57080   6.646  10.814   3.405 -1.0187 -1.0999 -0.8257
  423MOL0     H57081   6.542  10.785   3.174 -2.8786 -0.5311 -0.4409
  423MOL0     H57082   6.633  10.645   3.144 -0.5969  1.7300 -1.4519
  423MOL0     H57083   6.441  10.665   3.380 -1.2233  1.0872 -1.8777
  423MOL0     H57084   6.508  10.514   3.315  2.2845  0.8396  0.5913
  423MOL0     H57085   6.328  10.673   3.109 -1.2384 -1.9991 -1.8868
  423MOL0     H57086   6.255  10.588   3.249 -1.2210 -0.4619 -3.4601
  423MOL0     H57087   7.162  10.787   3.865  1.2038  0.6951  1.0778
  423MOL0     H57088   7.279  10.999   3.913  2.0091  1.1536 -0.7823
  423MOL0     H57089   7.466  11.393   3.676 -0.6035 -0.4229 -0.6086
  423MOL0     H57090   7.552  11.602   3.743 -1.7511  3.9594  0.6329
  423MOL0     H57091   8.574  10.951   4.426  1.6283 -0.6188  0.6840
  423MOL0     H57092   8.762  10.838   4.325  2.9950  0.1798 -0.6335
  423MOL0     H57093   9.291  10.945   4.252  2.3527  1.2073 -0.3334
  423MOL0     H57094   9.496  10.892   4.103  0.2693 -1.8202 -0.6962
  423MOL0     H57095   9.398  10.698   3.716 -1.8199  0.4900 -1.8853
  423MOL0     H57096   9.441  10.857   3.658 -1.1428 -0.9736  0.1509
  423MOL0     H57097   9.670  10.803   3.664 -0.4279  0.1837  0.7645
  423MOL0     H57098   9.574  10.710   3.549  0.5651 -0.4621  0.7665
  423MOL0     H57099   9.550  10.513   3.714  1.2325 -1.2768 -2.7460
  423MOL0     H57100   9.657  10.614   3.824 -4.9374  1.2638  1.2521
  423MOL0     H57101   9.709  10.496   3.553  0.0732 -1.9321  1.6225
  423MOL0     H57102   9.767  10.423   3.697  1.0301 -0.5139 -3.1390
  423MOL0     H57103  10.026  10.739   3.632 -0.5777  1.4813  1.1480
  423MOL0     H57104   9.227  10.814   3.787 -1.2649 -0.2827  1.1973
  423MOL0     H57105   9.045  10.916   3.907 -0.5777 -1.2416  0.2216
  424MOL0     O57106  10.939   0.144   7.350 -0.9733 -0.3817 -0.1511
  424MOL0     C57107  10.960   0.266   7.366  0.0615  0.2971 -0.8691
  424MOL0     O57108  10.866   0.364   7.362 -0.5664  0.0382  0.1650
  424MOL0     C57109  10.736   0.320   7.354 -0.5532  0.0444  0.6903
  424MOL0     C57110  10.678   0.267   7.239 -0.4009 -0.2009  0.5832
  424MOL0     C57111  10.544   0.218   7.244  0.9888  0.0167 -0.3490
  424MOL0     C57112  10.467   0.241   7.355  0.0020  0.0849 -1.0187
  424MOL0     O57113  10.339   0.179   7.358 -0.1271  0.4589  0.2786
  424MOL0     C57114  10.266   0.156   7.490 -0.5489 -0.2397  0.4188
  424MOL0     C57115  10.126   0.099   7.464 -1.0884 -0.7183 -0.6573
  424MOL0     C57116  10.143  -0.042   7.419  0.2431  1.3783 -0.2700
  424MOL0     C57117  10.121  -0.050   7.266  0.1609  0.3440  0.8309
  424MOL0     C57118  10.104  -0.196   7.210 -0.2427  0.1984  0.2433
  424MOL0     C57119  10.061  -0.192   7.064  0.0481  0.6009  0.7621
  424MOL0     C57120  10.009  -0.336   7.012 -0.6971 -0.4211  0.3557
  424MOL0     C57121   9.891  -0.374   7.107 -0.8856  1.2578  0.8359
  424MOL0     N57122   9.776  -0.413   7.026 -0.5626  0.4612  0.4887
  424MOL0     C57123   9.698  -0.333   6.952 -0.9186  0.3826  0.1969
  424MOL0     C57124   9.601  -0.412   6.903 -0.2978  0.6420 -0.0285
  424MOL0     C57125   9.494  -0.373   6.804 -0.4859 -0.8252  0.8539
  424MOL0     C57126   9.361  -0.338   6.873 -1.0509  0.5340 -0.0517
  424MOL0     C57127   9.256  -0.294   6.769 -0.2029  0.1411  0.3127
  424MOL0     C57128   9.143  -0.213   6.837  0.4513  0.0885  1.3478
  424MOL0     O57129   9.057  -0.291   6.922  0.2180  0.7415  0.5812
  424MOL0     C57130   8.950  -0.231   6.983 -0.2239 -0.5419 -0.2749
  424MOL0     C57131   8.936  -0.092   6.992 -0.7402  0.8333  0.0329
  424MOL0     C57132   8.834  -0.021   7.058  0.9855 -0.2117  0.2907
  424MOL0     C57133   8.825   0.126   7.051 -0.7929  0.8969  0.2171
  424MOL0     C57134   8.727  -0.101   7.116 -0.0236  0.0299  0.0408
  424MOL0     C57135   8.611  -0.047   7.189  0.2801 -0.2495 -0.2427
  424MOL0     O57136   8.490  -0.116   7.176  0.3960 -0.8985 -0.3924
  424MOL0     C57137   8.373  -0.075   7.239  0.2459 -0.2044  1.0752
  424MOL0     C57138   8.254  -0.112   7.173 -0.5780  0.2490 -0.8298
  424MOL0     C57139   8.131  -0.089   7.221  0.2640 -0.1461  0.0732
  424MOL0     C57140   8.114  -0.032   7.347  0.5016  0.0482  0.3934
  424MOL0     O57141   7.984  -0.031   7.389  0.4606  0.0992  0.2622
  424MOL0     C57142   7.962   0.022   7.522  0.3403  0.5435  0.4522
  424MOL0     C57143   7.840  -0.053   7.584  0.3220 -0.0954 -0.2989
  424MOL0     C57144   7.707   0.019   7.589  1.4939 -0.4376 -0.2493
  424MOL0     C57145   7.605  -0.076   7.655 -0.9736 -0.1361  0.2173
  424MOL0     C57146   7.465  -0.028   7.660 -1.1172  0.2100 -1.1220
  424MOL0     C57147   7.362  -0.116   7.728  0.1696  0.7382 -0.0213
  424MOL0     C57148   7.221  -0.082   7.668  0.3687 -0.4695 -0.4997
  424MOL0     C57149   7.105  -0.168   7.743 -0.2502  0.1490 -0.8086
  424MOL0    Cl57150   7.092  -0.114   7.917  0.5159 -0.3137  0.2503
  424MOL0     C57151   8.229   0.015   7.418  0.8068  0.1360  0.8145
  424MOL0     C57152   8.354  -0.009   7.361 -0.1710 -0.6595  1.0841
  424MOL0     O57153   8.615   0.062   7.247 -0.2358  0.0393  0.4853
  424MOL0     C57154   8.736  -0.242   7.100  0.0870  0.1217  0.1305
  424MOL0     C57155   8.849  -0.304   7.049 -0.8601 -0.0729  0.8413
  424MOL0     N57156   9.627  -0.545   6.943  0.3802 -0.3419  0.2492
  424MOL0     N57157   9.719  -0.533   7.030 -0.3343  0.0139  0.1999
  424MOL0     C57158  10.527   0.296   7.471 -0.6318 -0.1515 -0.3862
  424MOL0     C57159  10.660   0.329   7.471  0.1506 -0.4939  0.4781
  424MOL0     C57160  11.100   0.307   7.403 -0.1957  0.3952 -0.0885
  424MOL0     C57161  11.211   0.211   7.382  0.1843  0.1991 -0.1290
  424MOL0     C57162  11.343   0.254   7.404  0.6928  0.5473 -0.1629
  424MOL0     C57163  11.362   0.386   7.437 -0.1489  0.5759  0.1701
  424MOL0     O57164  11.480   0.453   7.443 -0.4970 -0.5880  0.1395
  424MOL0     C57165  11.588   0.372   7.475  0.1118  0.4194 -0.1722
  424MOL0     C57166  11.581   0.316   7.617 -0.2536  0.4992 -0.1597
  424MOL0     C57167  11.554   0.426   7.722  0.2569  0.7588 -0.0182
  424MOL0     C57168  11.582   0.387   7.867 -0.3962  0.0814 -0.1851
  424MOL0     C57169  11.586   0.509   7.947 -0.4246  0.1329 -0.5644
  424MOL0     C57170  11.607   0.597   8.032 -0.2202  0.4430  0.6666
  424MOL0     C57171  11.256   0.472   7.467 -0.3525  0.3048 -0.4395
  424MOL0     C57172  11.125   0.437   7.440 -0.5970 -0.6062 -0.2210
  424MOL0     H57173  10.731   0.251   7.146  2.0809 -0.8937  1.9936
  424MOL0     H57174  10.499   0.169   7.158 -1.6195  0.7517  0.5164
  424MOL0     H57175  10.323   0.088   7.554 -0.7006 -0.0870  0.7172
  424MOL0     H57176  10.263   0.253   7.541  1.3708  0.6253 -0.9490
  424MOL0     H57177  10.071   0.104   7.558 -0.1107 -1.3154 -0.0231
  424MOL0     H57178  10.066   0.156   7.393  1.2562  0.8542 -1.4917
  424MOL0     H57179  10.243  -0.078   7.443 -0.6458 -1.1023  0.0532
  424MOL0     H57180  10.078  -0.112   7.472  1.6407 -0.5326 -0.9899
  424MOL0     H57181  10.037   0.015   7.242 -0.1887  0.6638  2.7456
  424MOL0     H57182  10.217  -0.010   7.233  0.9391 -0.8228  1.5949
  424MOL0     H57183  10.197  -0.253   7.214 -1.7453 -2.4029  0.0761
  424MOL0     H57184  10.037  -0.238   7.286 -0.2773  0.9721  0.6584
  424MOL0     H57185   9.980  -0.124   7.035  1.4100  0.8032 -3.0454
  424MOL0     H57186  10.145  -0.163   7.001 -2.1261  0.5179 -2.4278
  424MOL0     H57187   9.978  -0.322   6.908  1.0667  1.8975  0.0352
  424MOL0     H57188  10.090  -0.409   7.011 -0.2474  0.0672 -1.2981
  424MOL0     H57189   9.864  -0.297   7.180  0.8040 -0.5543  3.5297
  424MOL0     H57190   9.903  -0.465   7.167 -1.8591 -2.1805 -3.6550
  424MOL0     H57191   9.701  -0.225   6.939  0.5521  0.4072  0.6025
  424MOL0     H57192   9.526  -0.281   6.755  4.1804 -4.2016 -3.4120
  424MOL0     H57193   9.473  -0.445   6.725 -1.5451  1.2111 -0.8165
  424MOL0     H57194   9.367  -0.279   6.965 -1.6800  1.0620 -0.3452
  424MOL0     H57195   9.315  -0.435   6.896 -2.4941  0.7088 -2.0298
  424MOL0     H57196   9.210  -0.373   6.709  1.4849  0.4531 -1.4744
  424MOL0     H57197   9.312  -0.228   6.702  1.3478 -2.7274 -1.3765
  424MOL0     H57198   9.079  -0.170   6.760  2.0382  0.8815  0.4216
  424MOL0     H57199   9.184  -0.130   6.896  0.5473  0.4777  0.7479
  424MOL0     H57200   9.007  -0.023   6.947  0.2394  0.0197  0.3129
  424MOL0     H57201   8.914   0.159   6.998  0.3217  0.0950  1.5115
  424MOL0     H57202   8.729   0.150   7.005 -0.5353  1.5820  0.0284
  424MOL0     H57203   8.834   0.174   7.149 -0.2311  2.4325 -0.5577
  424MOL0     H57204   8.259  -0.170   7.082  1.0542 -1.9264  0.5591
  424MOL0     H57205   8.041  -0.112   7.165  0.0843 -1.7329  0.9297
  424MOL0     H57206   8.048  -0.017   7.578 -0.4158 -0.7869  0.7182
  424MOL0     H57207   7.954   0.130   7.539  0.2424  0.5548  0.3334
  424MOL0     H57208   7.828  -0.148   7.531  0.6746  1.4094 -3.2470
  424MOL0     H57209   7.866  -0.065   7.690 -0.9519  0.2572  0.0683
  424MOL0     H57210   7.664   0.049   7.493 -2.0119  0.0562  1.3141
  424MOL0     H57211   7.723   0.102   7.658  1.0354 -2.0815  1.9303
  424MOL0     H57212   7.610  -0.168   7.594  1.6567 -0.5261  0.9087
  424MOL0     H57213   7.640  -0.109   7.753  4.6913 -1.1790 -1.7829
  424MOL0     H57214   7.426  -0.012   7.559  0.3726 -4.8380 -2.8037
  424MOL0     H57215   7.469   0.064   7.719 -3.1779 -0.9444  0.9935
  424MOL0     H57216   7.383  -0.223   7.716  0.4060  0.9026 -1.1076
  424MOL0     H57217   7.361  -0.099   7.836 -3.1503 -0.5635  0.2828
  424MOL0     H57218   7.222  -0.116   7.564 -0.5565 -0.0915 -0.6425
  424MOL0     H57219   7.196   0.023   7.680  1.9045  0.1995 -2.5882
  424MOL0     H57220   7.116  -0.277   7.732 -0.5132 -0.0934  1.0999
  424MOL0     H57221   7.014  -0.140   7.689 -0.5939 -2.1510 -1.5442
  424MOL0     H57222   8.226   0.079   7.505 -0.7959  3.7047 -1.6411
  424MOL0     H57223   8.443   0.012   7.420  0.7892 -6.1472  2.1764
  424MOL0     H57224   8.651  -0.304   7.127 -1.2087  1.3008 -1.0845
  424MOL0     H57225   8.863  -0.411   7.039 -1.9577 -0.0239 -2.5487
  424MOL0     H57226  10.467   0.322   7.558 -0.5143 -0.6254 -0.1599
  424MOL0     H57227  10.705   0.368   7.561 -0.9536 -2.1099  1.7987
  424MOL0     H57228  11.191   0.114   7.338  2.4113  0.6646 -2.4578
  424MOL0     H57229  11.422   0.183   7.382 -0.1098 -0.6166  0.5904
  424MOL0     H57230  11.617   0.296   7.403 -1.6695 -0.6159  0.1531
  424MOL0     H57231  11.673   0.440   7.486 -0.8171  1.6834 -0.6555
  424MOL0     H57232  11.680   0.271   7.634 -0.6284  0.1814  1.2809
  424MOL0     H57233  11.520   0.226   7.626  0.9949 -0.5272 -1.4948
  424MOL0     H57234  11.446   0.440   7.733  0.2435 -0.2486  1.3622
  424MOL0     H57235  11.616   0.512   7.695  1.9915 -0.8471 -1.4469
  424MOL0     H57236  11.675   0.330   7.877  0.9784  2.0979 -0.9033
  424MOL0     H57237  11.507   0.325   7.918 -0.1586 -0.9051 -1.0140
  424MOL0     H57238  11.601   0.672   8.108 -0.7131  0.8258  0.2567
  424MOL0     H57239  11.283   0.570   7.503  2.5050 -0.9334  1.1204
  424MOL0     H57240  11.050   0.515   7.447  0.9798  0.8121  3.2880
  425MOL0     O57241   5.679  11.053   7.571  0.3485 -1.0449  0.2598
  425MOL0     C57242   5.756  11.121   7.641 -0.3661  0.2365  0.5332
  425MOL0     O57243   5.727  11.167   7.768 -0.3483 -0.1471 -0.2671
  425MOL0     C57244   5.606  11.132   7.827  0.7859  0.8451  0.6563
  425MOL0     C57245   5.482  11.143   7.762 -0.2664  0.1239 -0.3631
  425MOL0     C57246   5.363  11.121   7.833  0.3117 -0.5509 -0.2916
  425MOL0     C57247   5.368  11.055   7.957 -0.0958  0.1915  0.4820
  425MOL0     O57248   5.246  11.041   8.016 -0.3052  0.3129  0.0581
  425MOL0     C57249   5.227  10.925   8.100 -0.2912 -0.4908 -0.1959
  425MOL0     C57250   5.088  10.857   8.073  0.6522 -0.0964  0.1001
  425MOL0     C57251   5.072  10.737   8.158 -0.0290 -0.0492  0.1774
  425MOL0     C57252   4.957  10.652   8.112 -0.4949  0.0764 -0.8158
  425MOL0     C57253   4.951  10.532   8.195 -0.0684  0.6314 -0.1873
  425MOL0     C57254   4.817  10.466   8.220 -0.0692 -0.1823 -0.1743
  425MOL0     C57255   4.721  10.444   8.109 -0.2315  0.1067 -0.0085
  425MOL0     C57256   4.772  10.356   7.995 -0.7840  0.0471 -0.6656
  425MOL0     N57257   4.740  10.215   8.024  0.5613 -0.2264  0.9821
  425MOL0     C57258   4.831  10.122   8.070  0.5488 -0.5173 -0.5476
  425MOL0     C57259   4.767  10.003   8.062 -0.3768 -0.4787  0.1100
  425MOL0     C57260   4.814   9.860   8.075 -0.4514 -0.0464  0.6430
  425MOL0     C57261   4.804   9.821   8.225  0.4578 -0.1996  1.2704
  425MOL0     C57262   4.819   9.674   8.256 -0.3999  0.0200 -0.6670
  425MOL0     C57263   4.785   9.654   8.403  0.1800 -0.1940 -0.0466
  425MOL0     O57264   4.643   9.646   8.440 -0.5620 -0.0362  0.2599
  425MOL0     C57265   4.562   9.548   8.388 -0.5287 -0.0080  0.4401
  425MOL0     C57266   4.618   9.440   8.321  0.5686  0.4053 -0.6226
  425MOL0     C57267   4.544   9.349   8.254 -0.0963  0.7421  0.2298
  425MOL0     C57268   4.620   9.235   8.183  0.0056 -0.3810 -0.2776
  425MOL0     C57269   4.405   9.365   8.249  0.6361 -0.5464 -0.1640
  425MOL0     C57270   4.319   9.284   8.154  0.2356  0.3840  0.1597
  425MOL0     O57271   4.208   9.353   8.121 -0.0248  0.2642  0.0404
  425MOL0     C57272   4.104   9.274   8.079  0.0478  0.2020 -0.1883
  425MOL0     C57273   4.031   9.191   8.174  0.5343  0.2635  0.6573
  425MOL0     C57274   3.929   9.112   8.130 -0.2867  1.3595  0.3775
  425MOL0     C57275   3.886   9.131   8.002  1.0232  0.0088  0.2900
  425MOL0     O57276   3.766   9.077   7.951  0.3322 -0.1330 -0.0277
  425MOL0     C57277   3.667   9.017   8.040  0.2452 -0.2118  0.5342
  425MOL0     C57278   3.527   9.056   7.972 -0.1094 -0.2757  0.6745
  425MOL0     C57279   3.415   8.998   8.044 -0.1071 -0.2289  0.2561
  425MOL0     C57280   3.281   9.038   7.996 -0.0548  0.2203 -0.2392
  425MOL0     C57281   3.173   8.998   8.101  0.1328 -0.4020  0.5536
  425MOL0     C57282   3.040   9.049   8.041 -0.2333 -0.3174 -0.7057
  425MOL0     C57283   3.025   9.209   8.062 -0.6741 -0.6924 -0.8936
  425MOL0     C57284   2.895   9.264   8.001  0.7090 -0.8230 -0.7995
  425MOL0    Cl57285   2.750   9.250   8.116 -0.0709  0.5892  0.0873
  425MOL0     C57286   3.960   9.210   7.908 -0.0148  0.3672  0.5756
  425MOL0     C57287   4.068   9.291   7.949 -0.0217  0.7542  0.3553
  425MOL0     O57288   4.340   9.164   8.121 -0.0076 -0.6083  0.5514
  425MOL0     C57289   4.350   9.481   8.318  0.8129  1.0411 -0.3593
  425MOL0     C57290   4.425   9.559   8.392 -0.1160  0.0076  0.2924
  425MOL0     N57291   4.643  10.027   8.005 -0.5740  0.1140  0.3293
  425MOL0     N57292   4.628  10.153   7.980  0.2302 -0.2877  0.6672
  425MOL0     C57293   5.489  11.025   8.011  0.0171  0.0540  0.0513
  425MOL0     C57294   5.607  11.073   7.956  0.0027  0.4131  0.7763
  425MOL0     C57295   5.895  11.148   7.601 -0.0524  0.0989 -0.4910
  425MOL0     C57296   5.990  11.162   7.698 -0.2316 -0.1714 -0.8340
  425MOL0     C57297   6.117  11.194   7.664 -0.8159  0.1442  0.2724
  425MOL0     C57298   6.155  11.225   7.529  0.2619  0.0175  0.4572
  425MOL0     O57299   6.275  11.258   7.488  0.0305  0.5421  0.3204
  425MOL0     C57300   6.363  11.310   7.593 -0.3933 -0.6277  0.5964
  425MOL0     C57301   6.472  11.401   7.532 -0.9273 -0.2294  0.3999
  425MOL0     C57302   6.520  11.342   7.397  0.1790  0.2241  0.2773
  425MOL0     C57303   6.654  11.405   7.360  0.0716  0.0199 -0.0187
  425MOL0     C57304   6.684  11.359   7.234 -0.4777  0.6840  0.0481
  425MOL0     C57305   6.706  11.303   7.120  0.1726 -0.1643 -0.3183
  425MOL0     C57306   6.050  11.214   7.431  1.0219  1.1428 -0.6346
  425MOL0     C57307   5.922  11.175   7.465  0.8823  0.1276  0.6210
  425MOL0     H57308   5.482  11.194   7.666 -0.2738  1.3927  0.2870
  425MOL0     H57309   5.263  11.135   7.794 -0.1009  0.9432  1.1646
  425MOL0     H57310   5.313  10.858   8.087 -0.3055 -0.2130 -1.9185
  425MOL0     H57311   5.229  10.952   8.206 -2.8761  0.2054 -0.2643
  425MOL0     H57312   5.004  10.926   8.084 -1.7970 -2.7822 -0.4325
  425MOL0     H57313   5.096  10.830   7.967  4.1986  2.6083 -0.4863
  425MOL0     H57314   5.157  10.674   8.131  0.4418  1.3534 -1.7700
  425MOL0     H57315   5.071  10.765   8.264  0.6977  0.7185 -0.0095
  425MOL0     H57316   4.869  10.714   8.134 -0.7198  0.5529 -2.8203
  425MOL0     H57317   4.965  10.635   8.004 -0.2609  1.8391 -1.1042
  425MOL0     H57318   5.016  10.463   8.140 -1.2861  1.7141 -3.2313
  425MOL0     H57319   5.001  10.544   8.292 -1.9036  1.1130  0.7383
  425MOL0     H57320   4.836  10.373   8.276 -0.9790  0.0194  0.4976
  425MOL0     H57321   4.754  10.530   8.283 -0.0009  0.2995 -0.5909
  425MOL0     H57322   4.629  10.394   8.139 -0.4674  0.1547 -0.6362
  425MOL0     H57323   4.705  10.541   8.060  0.7510 -0.4729 -1.5974
  425MOL0     H57324   4.881  10.358   7.984 -0.7515 -0.5423 -0.4967
  425MOL0     H57325   4.727  10.378   7.898  1.2044  0.3449 -1.5735
  425MOL0     H57326   4.929  10.139   8.113  0.7301 -0.1357 -1.0936
  425MOL0     H57327   4.746   9.799   8.014 -1.3180  0.8031  0.7474
  425MOL0     H57328   4.913   9.842   8.032 -0.7322  0.3806 -0.1848
  425MOL0     H57329   4.702   9.850   8.253 -0.6846  1.3568 -3.5419
  425MOL0     H57330   4.879   9.878   8.281  0.8469  1.3244 -0.6864
  425MOL0     H57331   4.920   9.637   8.236  0.6972  2.0291  0.7747
  425MOL0     H57332   4.747   9.613   8.201  0.8121 -0.7958 -1.3798
  425MOL0     H57333   4.831   9.741   8.452 -0.0986  0.8549 -1.5908
  425MOL0     H57334   4.837   9.565   8.439  1.7627  0.3569 -0.8747
  425MOL0     H57335   4.724   9.420   8.330  0.9746  2.6169  0.0722
  425MOL0     H57336   4.604   9.246   8.075 -2.6331 -0.5214  0.0470
  425MOL0     H57337   4.728   9.246   8.199  0.1190  0.0863 -1.2863
  425MOL0     H57338   4.582   9.142   8.227  0.5794  1.5166  4.8619
  425MOL0     H57339   4.075   9.186   8.273  2.6782 -0.9232 -0.2939
  425MOL0     H57340   3.878   9.044   8.197 -1.2773  1.7191 -0.0072
  425MOL0     H57341   3.686   8.910   8.030  1.1131 -0.1091  0.9899
  425MOL0     H57342   3.675   9.062   8.140 -0.2164  2.2217 -0.4355
  425MOL0     H57343   3.520   9.165   7.982 -2.6356 -0.2644 -0.4646
  425MOL0     H57344   3.525   9.025   7.867 -0.2911  0.6959  0.3839
  425MOL0     H57345   3.425   9.017   8.152  2.0310  0.6848 -0.0543
  425MOL0     H57346   3.425   8.891   8.029 -0.4583 -0.3184  0.6194
  425MOL0     H57347   3.284   9.147   7.982 -2.5460  0.1214 -2.2748
  425MOL0     H57348   3.260   8.993   7.898 -2.6037  1.0107 -0.1287
  425MOL0     H57349   3.176   9.037   8.203 -2.0799 -2.6714  1.5877
  425MOL0     H57350   3.179   8.889   8.103 -2.4759 -0.6438 -0.5986
  425MOL0     H57351   3.032   9.020   7.936  0.1814 -1.4511 -0.4399
  425MOL0     H57352   2.961   8.997   8.096 -0.3182  0.1182 -0.4125
  425MOL0     H57353   3.108   9.268   8.021 -2.5431  2.6504 -0.2785
  425MOL0     H57354   3.027   9.223   8.171 -0.2666 -2.8185 -0.5832
  425MOL0     H57355   2.864   9.207   7.913 -2.3858 -0.9584  0.2639
  425MOL0     H57356   2.892   9.369   7.970 -2.0113 -0.5340  0.1627
  425MOL0     H57357   3.929   9.232   7.806  0.7855 -1.5857 -0.1406
  425MOL0     H57358   4.107   9.371   7.887 -2.2879  2.2155  0.6801
  425MOL0     H57359   4.248   9.517   8.322  1.0043  1.5204  2.3858
  425MOL0     H57360   4.368   9.640   8.437  2.2553  1.2060  1.2928
  425MOL0     H57361   5.487  10.971   8.105  1.7357  0.0310  0.1048
  425MOL0     H57362   5.704  11.063   8.003  1.4540  0.6178 -1.9821
  425MOL0     H57363   5.960  11.149   7.802 -0.0609  1.3268 -0.5776
  425MOL0     H57364   6.200  11.189   7.734 -1.8503 -2.2317  1.4443
  425MOL0     H57365   6.307  11.374   7.663 -2.6947  0.2635 -1.8833
  425MOL0     H57366   6.410  11.224   7.641 -1.1776 -1.3456  0.1056
  425MOL0     H57367   6.556  11.409   7.601 -0.7259  0.6283  0.0829
  425MOL0     H57368   6.439  11.503   7.508  1.9752  0.9427  0.8899
  425MOL0     H57369   6.441  11.348   7.323 -1.7663 -3.6023  1.7633
  425MOL0     H57370   6.534  11.235   7.418  0.5357  0.3778  0.8718
  425MOL0     H57371   6.728  11.367   7.431  0.5642 -1.1344 -1.0879
  425MOL0     H57372   6.645  11.514   7.361  0.5551  0.1046 -1.4474
  425MOL0     H57373   6.739  11.254   7.030  0.0032  1.7098 -1.4534
  425MOL0     H57374   6.074  11.233   7.327 -0.6028  1.2898 -1.0220
  425MOL0     H57375   5.844  11.161   7.391 -0.7683 -0.7053  2.4547
  426MOL0     O57376  10.280   3.256   1.043 -0.0771 -0.1682  0.3471
  426MOL0     C57377  10.250   3.275   0.928 -0.4418  0.1341 -0.6186
  426MOL0     O57378  10.115   3.296   0.883 -0.0102 -0.0811 -0.3803
  426MOL0     C57379  10.011   3.262   0.972  0.2060 -1.1497 -0.2162
  426MOL0     C57380   9.908   3.364   1.008 -0.4026  0.7383  0.1983
  426MOL0     C57381   9.796   3.340   1.083 -0.4941 -0.6559 -0.0053
  426MOL0     C57382   9.769   3.207   1.123  0.1598  0.1272 -0.0416
  426MOL0     O57383   9.662   3.168   1.196 -0.5157 -0.5333 -0.1600
  426MOL0     C57384   9.538   3.182   1.142 -0.0580  0.2655  0.1326
  426MOL0     C57385   9.449   3.084   1.214 -0.4006 -0.6246  0.1580
  426MOL0     C57386   9.304   3.100   1.159 -0.0266 -0.6306  0.6668
  426MOL0     C57387   9.213   3.014   1.233 -0.2779 -1.0833  0.8207
  426MOL0     C57388   9.085   2.981   1.161  1.0106 -0.3354  0.3755
  426MOL0     C57389   9.100   2.887   1.046 -0.4105 -0.3354  0.6510
  426MOL0     C57390   8.970   2.838   0.993  1.2255 -0.3174 -0.8742
  426MOL0     C57391   8.894   2.924   0.888 -0.7597  0.6381  0.1507
  426MOL0     N57392   8.779   2.855   0.834 -0.4707  0.3611 -0.0852
  426MOL0     C57393   8.647   2.863   0.888  0.5130 -0.7111 -1.2319
  426MOL0     C57394   8.567   2.803   0.806  0.4675  0.6912  0.4740
  426MOL0     C57395   8.418   2.787   0.808 -0.6081 -0.3362 -0.5146
  426MOL0     C57396   8.335   2.909   0.865 -0.7291 -0.1776  0.4016
  426MOL0     C57397   8.364   3.044   0.788  0.6554  0.6399  0.2406
  426MOL0     C57398   8.344   3.031   0.629  0.0538  0.3553  0.3586
  426MOL0     O57399   8.396   3.145   0.558  0.4280 -0.0573 -1.0213
  426MOL0     C57400   8.533   3.148   0.566  0.9797  0.3783 -0.2605
  426MOL0     C57401   8.611   3.060   0.496  0.2995  0.2401 -0.4851
  426MOL0     C57402   8.754   3.067   0.493  0.6247 -0.3742 -0.8666
  426MOL0     C57403   8.834   2.969   0.418  0.4234  0.1073  0.0460
  426MOL0     C57404   8.819   3.166   0.563 -0.4053 -0.5236 -0.0243
  426MOL0     C57405   8.966   3.192   0.562  0.3515  0.5497  0.1514
  426MOL0     O57406   9.004   3.321   0.539 -0.8158 -0.3749 -0.0751
  426MOL0     C57407   9.112   3.359   0.454  0.5262 -0.2188 -0.5868
  426MOL0     C57408   9.175   3.278   0.359 -0.3482  0.4861 -0.8873
  426MOL0     C57409   9.284   3.321   0.292 -0.5072 -0.3029  0.3963
  426MOL0     C57410   9.339   3.443   0.319 -1.1447 -1.0761 -0.4195
  426MOL0     O57411   9.457   3.486   0.249  0.1290  0.0929 -0.0948
  426MOL0     C57412   9.510   3.618   0.275  0.2975 -0.3547  0.0524
  426MOL0     C57413   9.641   3.627   0.192 -0.4542 -0.5664 -0.9147
  426MOL0     C57414   9.689   3.770   0.192 -0.1096 -0.1820  0.0272
  426MOL0     C57415   9.841   3.773   0.169 -0.2612 -0.5238  0.5027
  426MOL0     C57416   9.878   3.913   0.124 -0.8463  0.4711  0.8650
  426MOL0     C57417  10.031   3.907   0.093 -0.0058 -0.1217 -0.6053
  426MOL0     C57418  10.087   4.057   0.079  0.8181  0.1332 -0.1895
  426MOL0     C57419  10.240   4.062   0.055 -0.1962 -0.3758  0.2886
  426MOL0    Cl57420  10.277   4.238   0.028 -0.1843  0.1196 -0.4999
  426MOL0     C57421   9.273   3.536   0.412  0.9579  0.2549  0.0183
  426MOL0     C57422   9.160   3.485   0.479  0.4711 -0.5377 -0.0224
  426MOL0     O57423   9.042   3.097   0.577  0.3667  0.3538  0.4373
  426MOL0     C57424   8.741   3.259   0.628  0.2012 -0.2235 -0.1291
  426MOL0     C57425   8.594   3.246   0.635 -0.0759  0.9539  0.7570
  426MOL0     N57426   8.642   2.746   0.705  0.7415  0.5027 -0.2798
  426MOL0     N57427   8.764   2.780   0.719  0.1120 -0.2554  0.1081
  426MOL0     C57428   9.864   3.109   1.091 -0.5593 -0.1513 -0.0387
  426MOL0     C57429   9.983   3.133   1.025 -0.2297 -0.4168  0.5497
  426MOL0     C57430  10.355   3.273   0.816  0.8390 -0.2208 -0.0064
  426MOL0     C57431  10.315   3.289   0.681  0.8039  1.3151 -1.0103
  426MOL0     C57432  10.408   3.294   0.586 -0.4391 -0.3799  0.5050
  426MOL0     C57433  10.545   3.278   0.607 -0.0105 -0.7345  0.3510
  426MOL0     O57434  10.651   3.283   0.509 -0.1798 -0.0565 -0.5655
  426MOL0     C57435  10.633   3.255   0.366  0.2698  0.1601 -0.2879
  426MOL0     C57436  10.768   3.270   0.293  0.2080  0.7165 -0.9332
  426MOL0     C57437  10.863   3.165   0.344 -0.1637  0.5789 -0.0404
  426MOL0     C57438  10.985   3.162   0.253 -0.1192  1.7434  0.0327
  426MOL0     C57439  11.055   3.290   0.237  0.8107 -0.6306 -0.2249
  426MOL0     C57440  11.114   3.394   0.227 -0.3784 -0.1887  0.6207
  426MOL0     C57441  10.580   3.273   0.743 -1.0101  0.3503 -0.0421
  426MOL0     C57442  10.489   3.262   0.848  0.1294  0.2547  0.6981
  426MOL0     H57443   9.930   3.463   0.969  4.0912 -0.6881 -1.5033
  426MOL0     H57444   9.729   3.425   1.100 -0.1315 -0.1142 -1.1656
  426MOL0     H57445   9.498   3.281   1.161  0.6829  0.2485  1.9337
  426MOL0     H57446   9.543   3.174   1.033  1.0013  0.0944  0.1879
  426MOL0     H57447   9.478   2.982   1.187  2.5527 -0.4932  2.3634
  426MOL0     H57448   9.456   3.086   1.323 -0.1029 -0.4003  0.1360
  426MOL0     H57449   9.281   3.207   1.163  4.3800  0.5651 -0.4421
  426MOL0     H57450   9.308   3.061   1.057  1.4438 -2.2737  1.3145
  426MOL0     H57451   9.271   2.922   1.243  0.3466 -0.6239  1.6142
  426MOL0     H57452   9.191   3.064   1.328 -0.3893  0.0182  0.2295
  426MOL0     H57453   9.019   2.934   1.235 -0.2127 -2.0061 -1.6471
  426MOL0     H57454   9.028   3.069   1.131  3.7085  1.5793  0.5220
  426MOL0     H57455   9.150   2.944   0.967 -0.3946 -0.7501  0.3534
  426MOL0     H57456   9.172   2.810   1.077  0.3290  0.3010  0.5519
  426MOL0     H57457   9.014   2.749   0.946  0.9762 -0.1675 -1.3994
  426MOL0     H57458   8.902   2.805   1.072  2.0889  1.3475  0.6367
  426MOL0     H57459   8.968   2.932   0.808  1.2754 -1.6412  1.6569
  426MOL0     H57460   8.862   3.023   0.922 -1.1356  0.5302  0.1135
  426MOL0     H57461   8.604   2.919   0.971  0.0850 -0.5203 -1.5791
  426MOL0     H57462   8.375   2.762   0.711 -0.1230 -2.1772 -0.3011
  426MOL0     H57463   8.404   2.709   0.884 -0.8327 -3.2775 -3.3435
  426MOL0     H57464   8.360   2.932   0.969 -1.0347 -1.3722  0.7529
  426MOL0     H57465   8.232   2.872   0.860 -2.0464  3.1498  0.5371
  426MOL0     H57466   8.460   3.084   0.821 -1.2646  3.2812  3.2953
  426MOL0     H57467   8.290   3.119   0.819 -0.3444  0.1840 -0.9542
  426MOL0     H57468   8.237   3.015   0.615  0.0825 -1.3272  1.8494
  426MOL0     H57469   8.385   2.939   0.586 -1.0889 -1.8204  3.5488
  426MOL0     H57470   8.575   2.971   0.446  1.4944 -0.7166  0.3191
  426MOL0     H57471   8.782   2.915   0.339 -1.6458  1.2291  0.5722
  426MOL0     H57472   8.925   3.011   0.373  0.6884 -2.1457 -1.6628
  426MOL0     H57473   8.875   2.893   0.485  0.0758  0.5474  0.7658
  426MOL0     H57474   9.128   3.181   0.348 -4.8779  2.3274 -0.2046
  426MOL0     H57475   9.331   3.262   0.214 -0.9645 -1.5985  1.0638
  426MOL0     H57476   9.445   3.699   0.242  4.1099  2.1139 -2.1218
  426MOL0     H57477   9.542   3.629   0.379 -2.7523 -1.0685  1.1812
  426MOL0     H57478   9.713   3.559   0.238  1.1208 -0.0017 -2.4264
  426MOL0     H57479   9.623   3.597   0.089 -1.3587 -0.6497 -0.7382
  426MOL0     H57480   9.662   3.834   0.277  0.8637 -0.9473  0.9402
  426MOL0     H57481   9.656   3.812   0.097  1.8752  3.0802  0.6501
  426MOL0     H57482   9.897   3.735   0.255 -1.3071 -1.8762  0.6281
  426MOL0     H57483   9.861   3.698   0.092  0.3319 -0.8075  0.9297
  426MOL0     H57484   9.863   3.986   0.204 -0.3133  2.3171 -0.6583
  426MOL0     H57485   9.823   3.948   0.036 -3.4890  0.3248  2.3660
  426MOL0     H57486  10.080   3.867   0.182 -0.3431  0.5295 -0.1149
  426MOL0     H57487  10.056   3.839   0.012  0.2592  0.3058 -0.8872
  426MOL0     H57488  10.066   4.116   0.169 -0.3500  1.2674 -1.1689
  426MOL0     H57489  10.026   4.102  -0.000  0.9383 -0.4977 -0.6497
  426MOL0     H57490  10.271   3.998  -0.029  1.2304  0.8483 -0.1542
  426MOL0     H57491  10.295   4.021   0.141 -1.8295  2.0885  2.6727
  426MOL0     H57492   9.311   3.635   0.435  0.8083  0.5032 -0.7710
  426MOL0     H57493   9.099   3.541   0.549 -1.5366  2.4683 -3.7828
  426MOL0     H57494   8.789   3.328   0.696  3.0328 -2.1877  0.0557
  426MOL0     H57495   8.547   3.326   0.692  1.6353  2.4662  0.1487
  426MOL0     H57496   9.841   3.008   1.122  2.3110 -0.3050  2.0087
  426MOL0     H57497  10.051   3.053   1.000  0.8372 -0.2495  2.6825
  426MOL0     H57498  10.209   3.300   0.661  0.2634  0.7335  1.2350
  426MOL0     H57499  10.378   3.305   0.482  1.2616 -0.7556 -0.0533
  426MOL0     H57500  10.601   3.154   0.339 -2.8733  1.3035 -1.3858
  426MOL0     H57501  10.558   3.321   0.321  0.4890  0.2038 -0.5895
  426MOL0     H57502  10.794   3.375   0.311 -0.6050  0.8032 -0.1606
  426MOL0     H57503  10.747   3.261   0.186  3.4673 -2.1326 -1.4914
  426MOL0     H57504  10.808   3.071   0.334 -2.0559  1.3774  2.1910
  426MOL0     H57505  10.879   3.177   0.451 -1.5234  1.1510  0.1197
  426MOL0     H57506  10.925   3.125   0.169 -1.6328 -1.2851  2.2567
  426MOL0     H57507  11.053   3.082   0.280 -2.2296  0.2883  1.3675
  426MOL0     H57508  11.177   3.481   0.227  0.8928 -1.0856 -0.3707
  426MOL0     H57509  10.687   3.272   0.763 -0.8453  1.1495 -0.8193
  426MOL0     H57510  10.536   3.255   0.946  1.1551  0.5380  0.2412
  427MOL0     O57511  11.268   9.444   6.684  0.4224 -0.0226 -0.8111
  427MOL0     C57512  11.287   9.408   6.803 -0.2362 -0.2736  0.1893
  427MOL0     O57513  11.197   9.330   6.884  0.6330 -0.2612 -0.0063
  427MOL0     C57514  11.079   9.294   6.824 -0.0943 -0.1044 -0.2683
  427MOL0     C57515  11.072   9.204   6.719 -0.1058 -0.3132  0.0566
  427MOL0     C57516  10.954   9.157   6.651  0.2349 -0.0215 -0.7386
  427MOL0     C57517  10.833   9.193   6.717  0.4505 -0.4351 -0.8715
  427MOL0     O57518  10.712   9.145   6.668 -0.0617 -0.4477  0.1975
  427MOL0     C57519  10.702   9.050   6.559 -1.1929  0.3090  0.3508
  427MOL0     C57520  10.573   8.971   6.540 -0.1912 -0.3474 -0.3615
  427MOL0     C57521  10.464   9.066   6.493 -0.4155  0.1440  0.4460
  427MOL0     C57522  10.343   8.973   6.473 -0.2721  0.1673  0.0216
  427MOL0     C57523  10.219   9.055   6.452  0.1352  0.0647  0.1690
  427MOL0     C57524  10.171   9.118   6.579 -0.7659 -0.9357 -0.2072
  427MOL0     C57525  10.065   9.221   6.552 -0.0515  0.7926 -0.5512
  427MOL0     C57526  10.071   9.339   6.460 -0.0582 -0.2119  0.6794
  427MOL0     N57527  10.206   9.401   6.449 -0.5999  0.3471 -0.5616
  427MOL0     C57528  10.301   9.422   6.544 -0.0699 -0.4354 -0.1681
  427MOL0     C57529  10.409   9.491   6.493  0.6512 -0.7102  0.4257
  427MOL0     C57530  10.535   9.522   6.561  0.2739 -0.7698  0.6668
  427MOL0     C57531  10.558   9.673   6.559 -0.6327  0.5046 -0.4106
  427MOL0     C57532  10.682   9.726   6.625  0.6478 -0.1455  0.2985
  427MOL0     C57533  10.670   9.877   6.651 -0.2866  0.3927  0.3817
  427MOL0     O57534  10.794   9.932   6.613 -0.0771  0.3855 -0.1653
  427MOL0     C57535  10.846  10.036   6.683  0.0479  0.2746 -0.5240
  427MOL0     C57536  10.775  10.132   6.762 -0.5658  0.6039 -0.0273
  427MOL0     C57537  10.845  10.247   6.811 -0.1228 -1.0278 -0.4376
  427MOL0     C57538  10.756  10.342   6.897  0.9893  0.0180  0.1444
  427MOL0     C57539  10.981  10.272   6.785  0.3475  0.1907 -1.4841
  427MOL0     C57540  11.058  10.386   6.828 -0.4663 -0.1748 -0.0642
  427MOL0     O57541  11.189  10.357   6.854 -0.1251 -0.6083 -0.2388
  427MOL0     C57542  11.270  10.461   6.906  0.3175 -0.5811  0.7041
  427MOL0     C57543  11.273  10.492   7.049  0.1791 -0.0327 -0.3125
  427MOL0     C57544  11.347  10.597   7.099  0.8030 -0.2445  0.6573
  427MOL0     C57545  11.417  10.676   7.009  0.1261 -0.9458 -0.6316
  427MOL0     O57546  11.482  10.774   7.077 -0.6199 -0.0816 -0.0104
  427MOL0     C57547  11.585  10.839   6.995  0.1639  0.3215 -0.6516
  427MOL0     C57548  11.725  10.762   6.994  0.0069  0.3800  0.6438
  427MOL0     C57549  11.826  10.802   7.103  0.2219  0.0127  0.1560
  427MOL0     C57550  11.934  10.697   7.138 -0.3036 -0.0756  0.1302
  427MOL0     C57551  12.062  10.765   7.199 -0.4324  0.3186 -0.9634
  427MOL0     C57552  12.176  10.660   7.228  0.4803  0.7970  0.8523
  427MOL0     C57553  12.293  10.745   7.286 -0.2128  0.1490 -0.1967
  427MOL0     C57554  12.367  10.678   7.403  0.4692 -0.9392 -0.3742
  427MOL0    Cl57555  12.465  10.535   7.346  0.2066  0.0639 -0.4134
  427MOL0     C57556  11.434  10.634   6.876  0.0327 -0.4598 -0.0630
  427MOL0     C57557  11.350  10.538   6.818 -0.8890 -0.0515 -0.6030
  427MOL0     O57558  11.005  10.497   6.839 -0.4716  0.0380  0.3975
  427MOL0     C57559  11.050  10.170   6.714 -0.0685  0.3695 -0.0364
  427MOL0     C57560  10.978  10.066   6.658  0.1627  0.2370  0.2683
  427MOL0     N57561  10.379   9.509   6.357  0.0524  1.1924  0.5614
  427MOL0     N57562  10.258   9.454   6.333 -0.6843 -0.4967  0.3337
  427MOL0     C57563  10.835   9.286   6.825  0.4475  0.3031  0.9672
  427MOL0     C57564  10.954   9.337   6.875 -0.2512 -0.4983  0.0691
  427MOL0     C57565  11.420   9.447   6.859 -0.7671 -0.5494  0.8336
  427MOL0     C57566  11.437   9.443   6.999 -0.1765 -0.0137 -0.2517
  427MOL0     C57567  11.565   9.484   7.056 -0.4014  0.4780  0.5021
  427MOL0     C57568  11.665   9.535   6.970  0.2474 -0.4325 -0.9661
  427MOL0     O57569  11.787   9.571   7.024  0.4676 -0.4885 -0.8892
  427MOL0     C57570  11.786   9.707   7.057 -0.1646 -0.5803  0.1057
  427MOL0     C57571  11.891   9.774   6.973 -0.7844  0.0240 -0.6336
  427MOL0     C57572  12.019   9.772   7.049  0.1863  0.7752  0.8402
  427MOL0     C57573  12.035   9.881   7.158  0.2520 -0.1674  1.0068
  427MOL0     C57574  12.122   9.834   7.268  0.0089  0.2475  0.7109
  427MOL0     C57575  12.191   9.786   7.359 -0.9879  0.2399 -0.0697
  427MOL0     C57576  11.645   9.542   6.841  0.2933 -0.0071 -0.0114
  427MOL0     C57577  11.525   9.497   6.787  0.3284 -0.1411 -0.2108
  427MOL0     H57578  11.170   9.173   6.685  0.6839  0.2331  1.7464
  427MOL0     H57579  10.950   9.098   6.560  0.0469 -3.1508  1.1622
  427MOL0     H57580  10.735   9.099   6.467  3.3301 -2.6357  0.0684
  427MOL0     H57581  10.781   8.976   6.577 -0.6992  0.4856 -0.9959
  427MOL0     H57582  10.583   8.888   6.469 -0.6504 -0.8717  0.1726
  427MOL0     H57583  10.552   8.937   6.642  2.1150 -1.3838 -0.1477
  427MOL0     H57584  10.454   9.148   6.566  1.0280 -0.3715  1.2778
  427MOL0     H57585  10.498   9.106   6.397 -1.3163 -1.6976 -0.6878
  427MOL0     H57586  10.362   8.932   6.373  0.4713 -0.9197  0.5963
  427MOL0     H57587  10.339   8.893   6.547  0.9080 -1.0507 -1.1745
  427MOL0     H57588  10.230   9.124   6.367  2.5271 -2.6563 -1.9233
  427MOL0     H57589  10.137   8.995   6.411  0.2704 -1.2802  1.7718
  427MOL0     H57590  10.117   9.041   6.635 -0.3481 -0.7193  0.4988
  427MOL0     H57591  10.251   9.157   6.642 -0.7728  1.0476 -1.3307
  427MOL0     H57592   9.975   9.177   6.508  0.2191  1.1440 -1.4714
  427MOL0     H57593  10.032   9.236   6.655  0.7468 -3.6876  0.5673
  427MOL0     H57594  10.010   9.415   6.510  0.2830  0.1982  0.4725
  427MOL0     H57595  10.021   9.328   6.364 -1.6196  0.3344  1.3899
  427MOL0     H57596  10.292   9.394   6.649  3.3047 -0.1693  0.2848
  427MOL0     H57597  10.537   9.486   6.664  2.0776 -1.3855  0.4428
  427MOL0     H57598  10.614   9.473   6.504 -1.4286 -1.5947 -1.1240
  427MOL0     H57599  10.475   9.718   6.615 -0.3133  2.1069 -1.1857
  427MOL0     H57600  10.550   9.702   6.454  0.1831 -1.1120 -0.9571
  427MOL0     H57601  10.759   9.710   6.548  3.2011 -0.3168  2.7080
  427MOL0     H57602  10.708   9.668   6.714 -3.1606 -4.0968 -0.8260
  427MOL0     H57603  10.653   9.890   6.758 -0.5325  0.5168  0.3273
  427MOL0     H57604  10.596   9.927   6.587  1.9227  2.1358 -0.9308
  427MOL0     H57605  10.669  10.124   6.784 -1.0248  4.3429 -0.2769
  427MOL0     H57606  10.654  10.333   6.858  2.2780  1.9283 -4.4055
  427MOL0     H57607  10.757  10.310   7.001 -2.0044 -1.6971 -0.2348
  427MOL0     H57608  10.784  10.446   6.878 -2.2036  0.5534 -2.5755
  427MOL0     H57609  11.204  10.453   7.124  3.1089 -1.5818  1.7426
  427MOL0     H57610  11.349  10.615   7.206 -0.2370  0.5150  0.5542
  427MOL0     H57611  11.558  10.854   6.890 -0.4384  1.7679 -0.3253
  427MOL0     H57612  11.581  10.937   7.045 -3.4887  0.8833 -1.6821
  427MOL0     H57613  11.705  10.654   6.994  0.3758  0.2696 -1.3201
  427MOL0     H57614  11.769  10.783   6.896  1.1800  1.9490  1.4748
  427MOL0     H57615  11.760  10.816   7.189 -0.7205 -2.5778 -0.0609
  427MOL0     H57616  11.871  10.898   7.076 -1.8662  1.0249  0.0326
  427MOL0     H57617  11.884  10.625   7.204 -2.1596  0.4217 -0.6543
  427MOL0     H57618  11.964  10.643   7.048  1.2972  4.0361 -2.0815
  427MOL0     H57619  12.028  10.814   7.291 -2.9272  0.3891 -1.8346
  427MOL0     H57620  12.104  10.842   7.134 -0.0563  1.1368  0.2142
  427MOL0     H57621  12.125  10.588   7.292  0.5677  0.3788  0.4535
  427MOL0     H57622  12.200  10.611   7.133  1.3050 -0.5415  1.7265
  427MOL0     H57623  12.257  10.840   7.327 -1.0922 -0.0380 -0.5143
  427MOL0     H57624  12.366  10.763   7.206 -0.4991 -0.6797 -0.6461
  427MOL0     H57625  12.295  10.655   7.482 -0.8139 -0.4748 -1.3743
  427MOL0     H57626  12.441  10.746   7.447 -0.6265  0.0407 -0.0018
  427MOL0     H57627  11.508  10.678   6.810  0.4680  0.2529  0.8838
  427MOL0     H57628  11.361  10.521   6.711 -0.3170  0.5648 -0.6463
  427MOL0     H57629  11.156  10.181   6.693  0.4952 -1.6002  1.5158
  427MOL0     H57630  11.029  10.003   6.586 -2.2661 -0.0301 -1.3570
  427MOL0     H57631  10.745   9.344   6.841 -0.9096 -0.9954 -1.4502
  427MOL0     H57632  10.960   9.417   6.948  2.7599 -0.2011 -0.3752
  427MOL0     H57633  11.359   9.405   7.065 -0.1020  1.8084  0.9677
  427MOL0     H57634  11.581   9.475   7.163  0.7799  2.0180  0.4771
  427MOL0     H57635  11.688   9.754   7.048  0.2907  0.4280  0.3458
  427MOL0     H57636  11.806   9.705   7.164  0.3891 -1.0694  0.0004
  427MOL0     H57637  11.864   9.877   6.946  1.4019  1.4999  2.2699
  427MOL0     H57638  11.908   9.717   6.881  0.8434  1.7338 -1.4566
  427MOL0     H57639  12.098   9.786   6.975 -0.6789 -3.1170 -1.0659
  427MOL0     H57640  12.022   9.672   7.095 -0.5656 -0.4619 -1.6370
  427MOL0     H57641  11.940   9.911   7.203 -0.3427  0.9829 -0.8704
  427MOL0     H57642  12.085   9.970   7.118  1.6230 -0.5093  1.8932
  427MOL0     H57643  12.257   9.740   7.430 -0.3625  1.1457 -0.0349
  427MOL0     H57644  11.714   9.579   6.766 -0.6674  1.2446 -0.3054
  427MOL0     H57645  11.516   9.507   6.679  0.5009  0.9605 -0.1382
  428MOL0     O57646   5.005   9.403   5.977  0.5042 -0.0033 -0.3316
  428MOL0     C57647   5.073   9.355   5.883  0.2009  0.3997 -0.9569
  428MOL0     O57648   5.037   9.355   5.748  0.2481 -0.4277  0.0645
  428MOL0     C57649   4.902   9.389   5.716 -0.3243  0.0272  0.5570
  428MOL0     C57650   4.872   9.485   5.614  0.6102  1.0156 -0.4356
  428MOL0     C57651   4.738   9.521   5.581  0.2553 -0.4469  0.2539
  428MOL0     C57652   4.631   9.471   5.646  0.7242  1.7917  0.0256
  428MOL0     O57653   4.508   9.521   5.621  0.4689  0.4702  0.7869
  428MOL0     C57654   4.415   9.513   5.724 -1.2849 -0.4636  1.0265
  428MOL0     C57655   4.304   9.604   5.681 -1.4468 -0.5290 -0.3326
  428MOL0     C57656   4.216   9.611   5.804 -0.4146  0.4084 -0.3384
  428MOL0     C57657   4.105   9.707   5.772 -0.3345 -0.2672 -0.1964
  428MOL0     C57658   4.001   9.703   5.883  0.9463 -0.4349  0.1659
  428MOL0     C57659   3.866   9.778   5.848 -0.2015 -0.4488 -0.0519
  428MOL0     C57660   3.803   9.794   5.989 -1.5909 -0.9699  0.0872
  428MOL0     C57661   3.678   9.877   5.961  0.0967 -0.0089 -0.6014
  428MOL0     N57662   3.591   9.871   6.082  0.3461  0.0364  0.5485
  428MOL0     C57663   3.615   9.940   6.204 -0.7318 -0.4502 -1.0274
  428MOL0     C57664   3.540   9.867   6.294 -0.1220 -1.1794  0.6069
  428MOL0     C57665   3.528   9.876   6.441 -0.4173  0.0341 -0.1352
  428MOL0     C57666   3.519  10.034   6.471 -0.3149  0.6097 -0.1249
  428MOL0     C57667   3.502  10.066   6.626 -0.3309  0.8685  0.5177
  428MOL0     C57668   3.357  10.032   6.678  0.0242 -0.4555  0.5269
  428MOL0     O57669   3.310   9.896   6.684  0.0958  0.1311  0.1685
  428MOL0     C57670   3.175   9.894   6.706 -1.0423 -0.4655 -0.3782
  428MOL0     C57671   3.112   9.790   6.643  0.1050  0.2063 -0.3017
  428MOL0     C57672   2.971   9.765   6.653 -0.0923  0.0989 -0.4443
  428MOL0     C57673   2.922   9.661   6.557 -0.7108 -0.0658 -0.2575
  428MOL0     C57674   2.891   9.866   6.723 -0.3798  0.1089 -0.0939
  428MOL0     C57675   2.738   9.850   6.730  0.1128  0.4222 -0.0246
  428MOL0     O57676   2.681   9.890   6.845  0.5621 -0.1694 -0.3689
  428MOL0     C57677   2.543   9.875   6.854 -0.2784 -0.9032 -1.0260
  428MOL0     C57678   2.492   9.817   6.971 -0.2056 -0.6581  0.3573
  428MOL0     C57679   2.348   9.809   6.993  0.5944  0.0279 -0.2685
  428MOL0     C57680   2.265   9.881   6.910 -0.3168 -0.7349 -0.2346
  428MOL0     O57681   2.132   9.899   6.924  1.1984  0.0150  0.1010
  428MOL0     C57682   2.049   9.783   6.967 -0.4843 -0.8805 -0.9109
  428MOL0     C57683   1.901   9.822   6.951  0.1044 -0.2783 -0.2665
  428MOL0     C57684   1.809   9.721   7.031  0.2794 -0.8884 -0.0774
  428MOL0     C57685   1.663   9.764   7.018 -0.2348  0.5773 -0.4191
  428MOL0     C57686   1.572   9.662   7.082 -0.7036 -0.0055  0.8723
  428MOL0     C57687   1.432   9.723   7.091  0.4546 -0.0483 -0.5829
  428MOL0     C57688   1.323   9.615   7.084  0.4484 -0.2649  0.3434
  428MOL0     C57689   1.192   9.675   7.134  0.6872 -0.2890 -0.8387
  428MOL0    Cl57690   1.119   9.802   7.024  0.0036  0.0748 -0.3464
  428MOL0     C57691   2.325   9.959   6.808  0.1636 -0.0525  0.3271
  428MOL0     C57692   2.466   9.953   6.776 -0.6762  0.0552 -0.3636
  428MOL0     O57693   2.675   9.811   6.635 -0.2487 -0.3949  0.0074
  428MOL0     C57694   2.965   9.964   6.804  0.3666 -0.1334 -0.1072
  428MOL0     C57695   3.106   9.977   6.792  0.0284  0.5770  0.4417
  428MOL0     N57696   3.466   9.775   6.222  0.4749 -0.6069  0.2730
  428MOL0     N57697   3.502   9.768   6.103 -0.1647 -0.3486  0.0390
  428MOL0     C57698   4.657   9.379   5.751  0.1356 -0.0748  0.3606
  428MOL0     C57699   4.791   9.337   5.782  0.0159  0.7178  0.2849
  428MOL0     C57700   5.210   9.304   5.903  1.1523  0.7509 -0.0503
  428MOL0     C57701   5.261   9.310   6.035 -0.4179  0.4341 -0.2506
  428MOL0     C57702   5.397   9.280   6.066 -0.2496 -0.8234 -0.6049
  428MOL0     C57703   5.478   9.230   5.964 -0.4444 -0.5636 -0.4825
  428MOL0     O57704   5.612   9.206   5.994  1.3794 -0.7364 -0.3110
  428MOL0     C57705   5.684   9.151   5.893 -0.1055  0.8198 -0.0388
  428MOL0     C57706   5.818   9.090   5.951 -1.1113 -0.4571  0.2991
  428MOL0     C57707   5.791   8.960   6.033 -0.5392 -0.5025  0.2073
  428MOL0     C57708   5.909   8.859   6.025  0.0969  0.6922 -0.7498
  428MOL0     C57709   5.933   8.808   5.889  0.6912 -0.4420  0.1814
  428MOL0     C57710   5.958   8.771   5.772  0.2326  0.4855 -0.7766
  428MOL0     C57711   5.425   9.216   5.833  0.1751 -0.2425  0.5648
  428MOL0     C57712   5.294   9.256   5.804  0.3484 -0.3882 -0.2278
  428MOL0     H57713   4.937   9.527   5.537 -0.1604 -0.7395 -2.1355
  428MOL0     H57714   4.715   9.588   5.499 -3.0263  2.0528  2.9226
  428MOL0     H57715   4.373   9.413   5.730  0.5614 -1.2942  0.7821
  428MOL0     H57716   4.458   9.559   5.814 -1.9092 -0.4846  1.3393
  428MOL0     H57717   4.341   9.706   5.668  0.5971 -0.6646  3.1304
  428MOL0     H57718   4.255   9.570   5.589  1.0107 -1.6488 -1.3078
  428MOL0     H57719   4.182   9.509   5.824  1.6396  0.1604  2.6098
  428MOL0     H57720   4.269   9.646   5.893 -0.1970 -0.2772 -0.1949
  428MOL0     H57721   4.143   9.809   5.761  0.2904  0.0724  3.6608
  428MOL0     H57722   4.057   9.673   5.679  0.3014 -0.8336 -0.3269
  428MOL0     H57723   3.979   9.599   5.910 -0.5395  0.2274  1.7363
  428MOL0     H57724   4.045   9.749   5.972 -0.9883  0.9409  0.4732
  428MOL0     H57725   3.894   9.871   5.797 -2.4055 -0.8430 -2.1847
  428MOL0     H57726   3.797   9.713   5.793 -1.5121  2.1033 -1.6296
  428MOL0     H57727   3.770   9.699   6.034 -0.2382 -1.8089 -0.6243
  428MOL0     H57728   3.861   9.844   6.067 -1.1786 -0.2059 -0.6952
  428MOL0     H57729   3.627   9.825   5.880  1.3005 -1.2229 -0.6200
  428MOL0     H57730   3.722   9.976   5.946  5.5937 -1.5210  2.4759
  428MOL0     H57731   3.690  10.018   6.213  0.7832 -1.8677 -0.8579
  428MOL0     H57732   3.445   9.812   6.474 -0.1771  1.0973  2.8335
  428MOL0     H57733   3.617   9.834   6.490  0.4537 -0.4284 -2.0407
  428MOL0     H57734   3.447  10.089   6.410  0.3989  2.2455  0.4603
  428MOL0     H57735   3.615  10.079   6.443  1.1056 -0.4067  2.7263
  428MOL0     H57736   3.514  10.175   6.631 -1.1179  0.9671  0.4724
  428MOL0     H57737   3.586  10.026   6.683  0.9656 -0.3724 -2.1023
  428MOL0     H57738   3.288  10.092   6.617 -0.7928 -2.7333 -0.9441
  428MOL0     H57739   3.352  10.069   6.780  2.2223  0.6455  0.2866
  428MOL0     H57740   3.161   9.732   6.565  1.5160  2.4454 -1.1860
  428MOL0     H57741   2.994   9.580   6.556 -1.0976 -0.4165 -0.2306
  428MOL0     H57742   2.828   9.615   6.589  0.3133 -1.9669  0.1382
  428MOL0     H57743   2.904   9.702   6.457 -0.3107  1.6413  0.3317
  428MOL0     H57744   2.569   9.768   7.030 -1.3891 -2.8132  0.2232
  428MOL0     H57745   2.301   9.747   7.069 -0.3585  1.4957  0.3823
  428MOL0     H57746   2.069   9.690   6.913 -2.6866 -0.6906 -2.1907
  428MOL0     H57747   2.058   9.765   7.075 -2.0989  0.2930 -0.5351
  428MOL0     H57748   1.885   9.922   6.992 -1.1383 -0.9727  1.0329
  428MOL0     H57749   1.876   9.821   6.844  2.3659 -0.1301 -0.8519
  428MOL0     H57750   1.834   9.739   7.136  1.8365  0.8222 -0.6914
  428MOL0     H57751   1.847   9.622   7.004  1.9284  0.1626 -1.8896
  428MOL0     H57752   1.668   9.860   7.071 -0.5472 -0.3294  1.3055
  428MOL0     H57753   1.631   9.763   6.913 -1.2859  0.2367 -0.1017
  428MOL0     H57754   1.609   9.641   7.183  1.0425 -1.2300  0.0201
  428MOL0     H57755   1.578   9.575   7.016  0.9534 -0.2163  1.2573
  428MOL0     H57756   1.432   9.767   7.192 -0.4305 -1.5036  0.0797
  428MOL0     H57757   1.421   9.804   7.019  0.4587  1.5833  1.1610
  428MOL0     H57758   1.359   9.532   7.146  1.0454  0.4710  0.9979
  428MOL0     H57759   1.313   9.587   6.978 -0.3588  0.8678  0.1038
  428MOL0     H57760   1.198   9.710   7.237 -2.6394  0.5966 -0.8045
  428MOL0     H57761   1.129   9.585   7.132  2.1364 -1.4224  1.4442
  428MOL0     H57762   2.255  10.016   6.747  1.1011  1.4842  0.6464
  428MOL0     H57763   2.514  10.008   6.695  0.8425  1.2810  1.3004
  428MOL0     H57764   2.906  10.023   6.874  1.2447 -0.2216  0.7260
  428MOL0     H57765   3.164  10.047   6.852 -0.5536  0.0970  1.5940
  428MOL0     H57766   4.576   9.342   5.813 -0.3443 -1.0610 -0.8397
  428MOL0     H57767   4.813   9.275   5.868  1.0345  0.0835 -0.4037
  428MOL0     H57768   5.203   9.344   6.120  0.8590  0.3862  0.6607
  428MOL0     H57769   5.433   9.291   6.168  2.6152  1.4713 -1.7419
  428MOL0     H57770   5.626   9.074   5.842 -1.7397  1.9517  0.0428
  428MOL0     H57771   5.699   9.231   5.820 -3.7904 -0.5843 -2.6905
  428MOL0     H57772   5.863   9.173   6.007 -2.0225  1.2536 -1.3920
  428MOL0     H57773   5.881   9.056   5.869 -2.5821 -0.2907 -0.9274
  428MOL0     H57774   5.699   8.908   6.002 -0.9676 -0.2803  1.0868
  428MOL0     H57775   5.774   8.990   6.136 -0.4519 -0.2181  0.1380
  428MOL0     H57776   5.873   8.776   6.087 -1.5718  1.6400 -0.4192
  428MOL0     H57777   6.003   8.893   6.070 -1.0326  3.7836 -0.5498
  428MOL0     H57778   5.981   8.739   5.673  2.3689  2.0371 -0.8243
  428MOL0     H57779   5.486   9.213   5.743  0.9672  2.4077  0.9427
  428MOL0     H57780   5.253   9.243   5.704 -1.8180 -1.6059  0.7371
  429MOL0     O57781   3.348   6.797   4.867 -0.2855  0.3942  0.2725
  429MOL0     C57782   3.420   6.704   4.839 -0.0067  0.4173 -0.8662
  429MOL0     O57783   3.399   6.575   4.876 -0.5347  1.3721  0.2376
  429MOL0     C57784   3.263   6.530   4.884 -0.5826  0.0616 -0.2680
  429MOL0     C57785   3.157   6.554   4.802 -0.3034 -0.1431  0.1787
  429MOL0     C57786   3.036   6.486   4.801  0.2230  0.5642 -0.2049
  429MOL0     C57787   3.006   6.400   4.909  0.1404  0.0783 -0.4549
  429MOL0     O57788   2.880   6.342   4.913  0.5228 -0.6371 -0.5477
  429MOL0     C57789   2.880   6.197   4.926 -0.2686 -0.7501  0.4065
  429MOL0     C57790   2.822   6.152   5.056  0.0196  0.5218 -0.1545
  429MOL0     C57791   2.787   6.004   5.043 -1.1089  0.3493 -0.1332
  429MOL0     C57792   2.910   5.916   5.040 -0.0815 -0.5988 -0.4665
  429MOL0     C57793   2.895   5.776   4.983  0.2443  0.3453  0.6521
  429MOL0     C57794   2.782   5.699   5.045  0.5130 -0.4924 -0.6752
  429MOL0     C57795   2.736   5.588   4.964  0.2581 -0.0379 -0.1082
  429MOL0     C57796   2.625   5.512   5.028  0.0035 -0.0971  1.1713
  429MOL0     N57797   2.673   5.426   5.136 -0.3244  0.0290 -0.0941
  429MOL0     C57798   2.713   5.292   5.106 -0.4552 -0.0332 -0.0226
  429MOL0     C57799   2.751   5.247   5.230  0.2603 -0.0829  0.5214
  429MOL0     C57800   2.812   5.112   5.277  0.1197 -0.1869  0.5424
  429MOL0     C57801   2.797   5.069   5.422 -0.1486  0.0291 -0.0011
  429MOL0     C57802   2.647   5.051   5.442 -0.0320  1.1020 -0.1883
  429MOL0     C57803   2.562   4.958   5.339  0.1078  0.0490  1.0075
  429MOL0     O57804   2.436   4.920   5.399  0.1625 -0.4592 -0.1837
  429MOL0     C57805   2.337   4.878   5.319 -0.8020 -0.1575  0.0400
  429MOL0     C57806   2.355   4.782   5.226 -0.4897  0.1474 -0.1285
  429MOL0     C57807   2.259   4.747   5.139  0.2114 -0.3069 -0.0536
  429MOL0     C57808   2.293   4.656   5.018  0.1459  0.4042 -1.0635
  429MOL0     C57809   2.131   4.796   5.154 -0.1658 -0.6785 -0.5010
  429MOL0     C57810   2.004   4.754   5.088  0.0697  0.3354  0.1706
  429MOL0     O57811   1.892   4.746   5.174 -0.4861 -0.4190 -0.5073
  429MOL0     C57812   1.764   4.716   5.129 -0.7279  0.4290 -1.0947
  429MOL0     C57813   1.727   4.686   4.996  0.5123 -0.8139 -0.2722
  429MOL0     C57814   1.591   4.642   4.982  0.7349 -0.1866  0.3676
  429MOL0     C57815   1.498   4.640   5.081  0.5959 -0.3509  0.5064
  429MOL0     O57816   1.378   4.589   5.054 -0.1457 -0.7557  0.5379
  429MOL0     C57817   1.267   4.608   5.145  0.2403  0.1737 -0.0015
  429MOL0     C57818   1.138   4.559   5.081 -0.1801 -0.2825  0.4189
  429MOL0     C57819   1.095   4.638   4.958  0.4104 -0.4058  0.5927
  429MOL0     C57820   1.001   4.562   4.856  0.7805 -0.3039  0.8736
  429MOL0     C57821   0.860   4.518   4.916 -0.2338  0.6264 -0.4715
  429MOL0     C57822   0.777   4.628   4.975 -0.3730  0.2367  0.7252
  429MOL0     C57823   0.629   4.576   5.008 -0.0406  0.6787  0.1122
  429MOL0     C57824   0.544   4.564   4.882  0.2495  0.7459  1.0063
  429MOL0    Cl57825   0.471   4.726   4.849 -0.0765  0.6112  0.0342
  429MOL0     C57826   1.539   4.668   5.210  1.0100 -0.2466  0.1675
  429MOL0     C57827   1.670   4.708   5.236  0.8051  0.9176  0.2957
  429MOL0     O57828   2.005   4.729   4.969  0.1098  0.0283  0.1383
  429MOL0     C57829   2.111   4.889   5.257 -0.0019 -0.5752 -0.0477
  429MOL0     C57830   2.217   4.937   5.338  0.0821 -0.1786  0.1753
  429MOL0     N57831   2.745   5.351   5.324 -0.1286  0.5058  0.3218
  429MOL0     N57832   2.682   5.453   5.265 -1.0952  0.3490 -0.5749
  429MOL0     C57833   3.108   6.376   4.997 -0.6300 -1.0086  0.3691
  429MOL0     C57834   3.236   6.433   4.989 -0.6563  0.7853  0.0624
  429MOL0     C57835   3.531   6.731   4.741  0.4625  0.3378 -0.4036
  429MOL0     C57836   3.565   6.867   4.718 -0.6321 -0.3796 -0.2853
  429MOL0     C57837   3.689   6.888   4.651 -1.0219  0.0102  0.2968
  429MOL0     C57838   3.765   6.780   4.598 -0.0324  0.4905  0.0640
  429MOL0     O57839   3.881   6.810   4.528 -0.3567 -0.0892 -0.5333
  429MOL0     C57840   3.976   6.699   4.501  0.0951 -0.0608 -0.8016
  429MOL0     C57841   4.104   6.760   4.441 -0.6247 -1.5127 -0.3463
  429MOL0     C57842   4.192   6.836   4.539  0.7745 -0.0587  0.1220
  429MOL0     C57843   4.305   6.900   4.466 -0.1804  0.0970 -0.0144
  429MOL0     C57844   4.405   6.803   4.426 -0.3625 -0.0504  0.8573
  429MOL0     C57845   4.504   6.728   4.416 -0.2632  0.4190 -0.4946
  429MOL0     C57846   3.717   6.650   4.617 -0.2471  0.0361 -0.2583
  429MOL0     C57847   3.600   6.622   4.684  0.5110 -0.5217  0.4719
  429MOL0     H57848   3.180   6.622   4.721  2.2389 -1.4794 -0.3312
  429MOL0     H57849   2.959   6.507   4.728  1.5953 -1.2018 -2.2801
  429MOL0     H57850   2.812   6.166   4.846  2.2049  1.9640 -3.1105
  429MOL0     H57851   2.978   6.158   4.898  0.8267  1.3428  1.0523
  429MOL0     H57852   2.885   6.168   5.144 -1.7596  0.9286  1.1089
  429MOL0     H57853   2.735   6.218   5.061  1.0127  2.0756 -2.1976
  429MOL0     H57854   2.717   5.969   5.119  1.5681 -1.2004  1.7701
  429MOL0     H57855   2.744   5.993   4.943  2.4015 -1.5909 -1.5820
  429MOL0     H57856   2.992   5.970   4.992  0.6975 -0.7891  0.5953
  429MOL0     H57857   2.933   5.912   5.147 -1.5315  2.4089  0.0637
  429MOL0     H57858   2.884   5.775   4.874  0.5978  2.4750  0.5548
  429MOL0     H57859   2.985   5.720   5.011 -0.4856 -0.4751  1.4426
  429MOL0     H57860   2.795   5.678   5.151 -0.1813  1.3068 -0.1936
  429MOL0     H57861   2.696   5.766   5.038 -0.5921 -1.9184 -0.9945
  429MOL0     H57862   2.694   5.623   4.869 -0.2825 -0.0049  0.1420
  429MOL0     H57863   2.810   5.509   4.945 -2.3896 -2.9816  0.9584
  429MOL0     H57864   2.560   5.456   4.960 -0.6094  0.3046  1.4220
  429MOL0     H57865   2.562   5.584   5.081 -2.2283  1.4595 -3.1694
  429MOL0     H57866   2.725   5.243   5.010  0.6828  0.0911  0.0449
  429MOL0     H57867   2.788   5.041   5.198 -0.1915 -1.4460  1.7469
  429MOL0     H57868   2.921   5.118   5.264  0.2711 -1.4251  1.1679
  429MOL0     H57869   2.837   5.143   5.490 -0.6967 -0.9319  1.4158
  429MOL0     H57870   2.853   4.976   5.438 -1.7158 -1.6199 -3.0193
  429MOL0     H57871   2.600   5.149   5.455 -0.2775  1.0085 -0.3552
  429MOL0     H57872   2.636   4.992   5.533  1.5060 -0.0552 -0.7117
  429MOL0     H57873   2.610   4.868   5.300 -1.5507  1.0457 -4.0285
  429MOL0     H57874   2.552   5.028   5.255 -2.4764 -0.7839  0.5476
  429MOL0     H57875   2.454   4.740   5.207  0.0813  0.6304  1.6343
  429MOL0     H57876   2.206   4.594   4.991  1.7136 -2.3756 -0.0996
  429MOL0     H57877   2.314   4.723   4.935  0.7686  0.5852 -0.7646
  429MOL0     H57878   2.382   4.594   5.031 -0.0605  0.7353  3.9718
  429MOL0     H57879   1.792   4.688   4.909 -0.1144 -1.4385 -0.7672
  429MOL0     H57880   1.562   4.612   4.882 -0.3243 -1.5213  1.0392
  429MOL0     H57881   1.279   4.548   5.235  2.0759 -2.2078 -1.6718
  429MOL0     H57882   1.247   4.714   5.165 -3.1326 -0.5284  0.9431
  429MOL0     H57883   1.173   4.461   5.047  1.6014  0.8927 -1.4279
  429MOL0     H57884   1.055   4.555   5.151 -0.0394  2.7588  0.8624
  429MOL0     H57885   1.182   4.674   4.902 -0.7656  1.8265  0.0582
  429MOL0     H57886   1.046   4.729   4.996 -1.0646 -1.7651  2.1192
  429MOL0     H57887   0.982   4.627   4.770  0.6484 -0.1117  1.0474
  429MOL0     H57888   1.058   4.479   4.813  0.4621  0.2355 -0.6356
  429MOL0     H57889   0.879   4.439   4.990 -1.2794  0.0764 -0.7677
  429MOL0     H57890   0.795   4.465   4.846 -1.2884 -0.4841  1.2692
  429MOL0     H57891   0.818   4.666   5.069 -1.3627  1.6743  0.6122
  429MOL0     H57892   0.768   4.713   4.908 -0.6134  0.0706  0.5459
  429MOL0     H57893   0.589   4.646   5.081  1.8993  0.2405  1.7021
  429MOL0     H57894   0.638   4.473   5.045 -1.4935  0.4737 -0.0683
  429MOL0     H57895   0.462   4.492   4.892  0.0598  0.9635  1.0481
  429MOL0     H57896   0.599   4.530   4.794 -3.9674 -0.2850 -1.5641
  429MOL0     H57897   1.459   4.651   5.282 -0.4702  0.3167 -1.2638
  429MOL0     H57898   1.694   4.730   5.340  0.2924  0.6090  0.4875
  429MOL0     H57899   2.012   4.920   5.287 -0.0285  0.5472 -1.1826
  429MOL0     H57900   2.193   5.003   5.421  0.9236  0.2174  0.1076
  429MOL0     H57901   3.103   6.307   5.081  2.2902 -2.3333 -0.4452
  429MOL0     H57902   3.316   6.405   5.057 -0.2320 -2.5941 -1.6299
  429MOL0     H57903   3.511   6.948   4.767  0.4706 -0.1981  0.6466
  429MOL0     H57904   3.722   6.991   4.648 -0.2025 -0.2268 -3.2324
  429MOL0     H57905   4.000   6.640   4.590 -0.9391 -3.0223 -2.3443
  429MOL0     H57906   3.926   6.634   4.429 -1.0750  0.9000 -0.8847
  429MOL0     H57907   4.062   6.830   4.368  1.1564  2.5910  2.2074
  429MOL0     H57908   4.161   6.676   4.401 -0.5298 -0.8824 -1.5731
  429MOL0     H57909   4.223   6.769   4.619 -4.5397 -3.9960 -0.5802
  429MOL0     H57910   4.137   6.920   4.583 -2.0696 -1.8694  0.2966
  429MOL0     H57911   4.352   6.964   4.541 -0.5756 -0.6796  0.9205
  429MOL0     H57912   4.274   6.958   4.379  1.9145  0.5055 -0.5208
  429MOL0     H57913   4.588   6.664   4.405 -2.5989 -2.8844 -0.6556
  429MOL0     H57914   3.771   6.568   4.571  0.6030 -0.8106  2.1110
  429MOL0     H57915   3.565   6.521   4.707 -0.5170  0.0701  1.6756
  430MOL0     O57916   3.275   0.744   1.620  0.1992  0.1627 -0.5544
  430MOL0     C57917   3.197   0.654   1.657 -0.6855  0.4763 -0.5513
  430MOL0     O57918   3.233   0.559   1.752 -0.3258  0.3507  0.4028
  430MOL0     C57919   3.356   0.569   1.817  0.1941 -0.0515  0.8607
  430MOL0     C57920   3.363   0.589   1.961 -0.1308 -0.7199  0.2947
  430MOL0     C57921   3.483   0.607   2.019 -0.1511  1.2634 -0.6262
  430MOL0     C57922   3.608   0.606   1.951  0.3172 -0.3118 -0.0582
  430MOL0     O57923   3.720   0.642   2.020  0.0211 -0.4145 -0.2226
  430MOL0     C57924   3.837   0.553   2.001 -0.7963 -0.0756  0.6889
  430MOL0     C57925   3.948   0.602   1.904  0.4433 -0.2715 -0.3504
  430MOL0     C57926   3.986   0.736   1.937  0.1021  0.3457 -0.6569
  430MOL0     C57927   4.100   0.796   1.845 -0.3083  0.1828 -0.8474
  430MOL0     C57928   4.167   0.926   1.896 -0.5604  0.0040  0.2679
  430MOL0     C57929   4.277   0.880   2.002 -0.6582 -0.4236  0.1011
  430MOL0     C57930   4.379   0.995   2.036 -0.4296  0.8153  0.1267
  430MOL0     C57931   4.479   0.949   2.134 -0.2318  0.2887 -0.7799
  430MOL0     N57932   4.580   1.054   2.148 -0.6438  0.5035  0.2204
  430MOL0     C57933   4.568   1.176   2.210 -0.1894  0.6857  0.8473
  430MOL0     C57934   4.681   1.249   2.172  0.0426 -0.1211  0.2823
  430MOL0     C57935   4.718   1.382   2.232 -0.3423 -0.0859 -0.4887
  430MOL0     C57936   4.785   1.362   2.367 -0.9372 -1.0495  0.3862
  430MOL0     C57937   4.676   1.357   2.472  0.5190 -0.7746  0.0914
  430MOL0     C57938   4.714   1.248   2.575 -0.0698  0.7178  1.0243
  430MOL0     O57939   4.638   1.244   2.692  0.4502 -0.2368 -0.2065
  430MOL0     C57940   4.622   1.135   2.771 -0.4922  0.1821 -0.2148
  430MOL0     C57941   4.511   1.128   2.865 -0.5510 -0.4282 -0.2476
  430MOL0     C57942   4.489   1.011   2.933  0.6293  0.1199 -0.0775
  430MOL0     C57943   4.379   1.005   3.028  1.1707  0.2339 -0.0433
  430MOL0     C57944   4.569   0.906   2.915  0.4117  0.3121 -0.8809
  430MOL0     C57945   4.557   0.777   2.989  0.2574  0.2056 -0.1138
  430MOL0     O57946   4.520   0.773   3.124 -0.5338  0.7196 -0.3978
  430MOL0     C57947   4.502   0.641   3.173  0.6009 -1.1523 -0.2926
  430MOL0     C57948   4.591   0.583   3.258 -0.1442 -0.0618  0.1228
  430MOL0     C57949   4.567   0.449   3.305 -0.2076  0.0215 -0.8175
  430MOL0     C57950   4.450   0.390   3.268  0.0483 -0.4463 -0.0783
  430MOL0     O57951   4.410   0.259   3.305 -0.5934  0.0897 -0.1670
  430MOL0     C57952   4.462   0.211   3.427 -1.3872 -0.1874  1.2068
  430MOL0     C57953   4.402   0.071   3.455  0.9820  0.6122 -0.1213
  430MOL0     C57954   4.251   0.071   3.458  0.3051 -0.1709 -0.4504
  430MOL0     C57955   4.198  -0.069   3.497 -0.1886 -0.3211  0.2203
  430MOL0     C57956   4.053  -0.085   3.513  0.2585 -0.6106  0.1547
  430MOL0     C57957   4.025  -0.183   3.623  1.0963  0.1235  0.3748
  430MOL0     C57958   3.888  -0.158   3.686 -0.5957  0.3463  0.2693
  430MOL0     C57959   3.894  -0.210   3.833 -0.2333  0.1277 -0.0814
  430MOL0    Cl57960   3.980  -0.374   3.844 -0.1462  0.1143  0.0473
  430MOL0     C57961   4.352   0.453   3.188  0.1049 -0.1300 -0.9167
  430MOL0     C57962   4.377   0.576   3.134 -0.7440 -0.6313 -0.7919
  430MOL0     O57963   4.548   0.683   2.909 -0.0252 -0.5357  0.0114
  430MOL0     C57964   4.684   0.912   2.842  0.2056 -0.8169  0.3569
  430MOL0     C57965   4.709   1.024   2.760  0.0167  0.9274  0.1130
  430MOL0     N57966   4.747   1.173   2.076 -0.3439 -0.2960  0.4458
  430MOL0     N57967   4.697   1.055   2.073 -0.6431  0.2747 -0.5759
  430MOL0     C57968   3.606   0.590   1.814 -0.2748  0.7435 -0.1115
  430MOL0     C57969   3.481   0.574   1.746 -0.1033 -0.0008  0.4578
  430MOL0     C57970   3.051   0.666   1.631 -0.2757  0.7065  0.3038
  430MOL0     C57971   2.961   0.586   1.702  0.4469  0.0251 -0.4689
  430MOL0     C57972   2.819   0.608   1.673  0.3127 -0.1006  1.0178
  430MOL0     C57973   2.773   0.696   1.573  0.2584  0.1045  0.2885
  430MOL0     O57974   2.639   0.729   1.524 -0.8856  0.2422  0.3351
  430MOL0     C57975   2.532   0.645   1.565  0.0462 -0.4895  0.1816
  430MOL0     C57976   2.528   0.513   1.490  0.1742 -0.0146 -0.0020
  430MOL0     C57977   2.388   0.449   1.494 -0.8121 -0.2948 -0.2834
  430MOL0     C57978   2.352   0.381   1.631 -0.0537 -0.0309  0.5327
  430MOL0     C57979   2.205   0.370   1.634 -0.2624  0.0214  0.0499
  430MOL0     C57980   2.083   0.337   1.632 -0.6285  0.7072  0.0586
  430MOL0     C57981   2.873   0.776   1.508 -1.0020 -0.2440 -0.5186
  430MOL0     C57982   3.003   0.747   1.533  0.5953 -0.3424 -1.3279
  430MOL0     H57983   3.281   0.598   2.032  0.6741  0.2922  1.1235
  430MOL0     H57984   3.501   0.629   2.124  0.5614 -3.0046  0.3087
  430MOL0     H57985   3.878   0.549   2.102 -2.9019  2.9832  1.8108
  430MOL0     H57986   3.812   0.452   1.967 -0.6607  0.3269 -0.6746
  430MOL0     H57987   4.039   0.545   1.926  0.1788 -0.6750 -0.2945
  430MOL0     H57988   3.914   0.593   1.801  2.4242 -0.4199 -1.0393
  430MOL0     H57989   3.895   0.798   1.933 -0.3203  0.0141  1.7750
  430MOL0     H57990   4.033   0.730   2.036 -3.0364  0.6963  0.9974
  430MOL0     H57991   4.181   0.724   1.829 -1.2931 -0.8641 -1.2665
  430MOL0     H57992   4.060   0.817   1.746 -2.2358  0.2412 -0.1086
  430MOL0     H57993   4.225   0.973   1.817  2.9708 -1.5009  1.7092
  430MOL0     H57994   4.093   0.996   1.935 -1.0769 -1.7627  2.7984
  430MOL0     H57995   4.224   0.831   2.084 -0.8208 -0.2490  0.1009
  430MOL0     H57996   4.336   0.801   1.956 -0.9634 -0.1117 -0.8476
  430MOL0     H57997   4.427   1.035   1.946  3.5128 -2.2007  0.6274
  430MOL0     H57998   4.328   1.079   2.085  0.5139 -0.4753  3.6061
  430MOL0     H57999   4.517   0.857   2.089 -2.7336 -0.8848 -0.6433
  430MOL0     H58000   4.432   0.935   2.232  0.8056  2.5252  0.1176
  430MOL0     H58001   4.488   1.209   2.275 -2.2543 -2.5078  0.1236
  430MOL0     H58002   4.802   1.415   2.169  0.7280 -1.2842  0.2608
  430MOL0     H58003   4.627   1.442   2.231  0.3835  1.2419  2.5612
  430MOL0     H58004   4.839   1.457   2.380 -0.9267 -0.7472 -1.5833
  430MOL0     H58005   4.862   1.284   2.370  1.2965  1.0415  1.8639
  430MOL0     H58006   4.577   1.344   2.429  0.3204 -0.4048  0.4322
  430MOL0     H58007   4.674   1.460   2.509  1.9920 -0.6748 -0.0348
  430MOL0     H58008   4.821   1.256   2.597  1.4826 -1.0282 -4.3137
  430MOL0     H58009   4.703   1.163   2.508 -1.6056  0.5534  1.4484
  430MOL0     H58010   4.455   1.222   2.867  1.6950  1.2038 -3.6566
  430MOL0     H58011   4.314   1.090   3.003  0.2738 -0.7833 -1.2600
  430MOL0     H58012   4.334   0.906   3.028 -0.3271  0.8832  0.2821
  430MOL0     H58013   4.424   1.021   3.127  1.0496  0.2605  0.0077
  430MOL0     H58014   4.682   0.638   3.278  0.6324 -0.8799 -0.9830
  430MOL0     H58015   4.652   0.403   3.354 -0.0563  0.5525 -0.5727
  430MOL0     H58016   4.569   0.190   3.420 -1.3982 -0.2552  1.2460
  430MOL0     H58017   4.439   0.281   3.508 -1.3345  1.5744 -0.2286
  430MOL0     H58018   4.425  -0.004   3.379  0.7734 -2.4685  2.6388
  430MOL0     H58019   4.436   0.031   3.551 -1.9439 -5.1222 -1.0431
  430MOL0     H58020   4.203   0.092   3.363 -0.3410 -0.9965 -0.3244
  430MOL0     H58021   4.209   0.144   3.527  0.3981 -1.2231  0.7686
  430MOL0     H58022   4.226  -0.143   3.421 -3.0114 -1.1912 -0.0752
  430MOL0     H58023   4.253  -0.097   3.587 -2.7444  1.8672  2.6493
  430MOL0     H58024   4.012  -0.121   3.418  2.4991  1.7498 -1.8469
  430MOL0     H58025   4.004   0.012   3.527  1.3282  0.0339 -0.4397
  430MOL0     H58026   4.018  -0.280   3.572 -0.6638 -0.2521  1.2462
  430MOL0     H58027   4.108  -0.180   3.695  2.1627  2.8228 -0.8654
  430MOL0     H58028   3.805  -0.211   3.639  0.5882 -1.1666 -0.1754
  430MOL0     H58029   3.858  -0.052   3.684  1.4939  1.0224  1.2186
  430MOL0     H58030   3.790  -0.211   3.867 -1.5488 -3.3512 -3.4462
  430MOL0     H58031   3.949  -0.138   3.893 -1.7655  0.5622  0.8407
  430MOL0     H58032   4.262   0.403   3.154 -0.5642  2.2467 -2.9374
  430MOL0     H58033   4.310   0.628   3.067 -2.9681 -0.6307  1.3185
  430MOL0     H58034   4.749   0.826   2.852  2.0803  0.4593 -0.3914
  430MOL0     H58035   4.804   1.024   2.707 -0.6341 -3.2454 -1.4670
  430MOL0     H58036   3.697   0.591   1.756  1.6884 -0.4952  2.7304
  430MOL0     H58037   3.491   0.576   1.638  2.1310 -1.1673  0.5854
  430MOL0     H58038   2.992   0.511   1.774  0.1584  0.4897  0.1414
  430MOL0     H58039   2.733   0.560   1.719  0.6879 -2.1065 -0.2451
  430MOL0     H58040   2.544   0.632   1.673 -0.2882 -0.4146  0.2285
  430MOL0     H58041   2.444   0.707   1.545  0.6753  0.4275  0.1531
  430MOL0     H58042   2.602   0.440   1.525 -0.8129 -0.9669  0.1784
  430MOL0     H58043   2.555   0.534   1.386 -2.5354  2.0313 -0.4108
  430MOL0     H58044   2.377   0.376   1.413 -0.5162 -0.4662 -0.1704
  430MOL0     H58045   2.306   0.515   1.464 -0.2738 -0.0091 -1.1667
  430MOL0     H58046   2.386   0.440   1.717  2.5971 -0.9468  0.2227
  430MOL0     H58047   2.395   0.280   1.634  0.5297  0.0810 -1.8771
  430MOL0     H58048   1.981   0.305   1.638 -1.7779  3.9754  0.2947
  430MOL0     H58049   2.853   0.853   1.434  2.4948  0.0158 -1.3825
  430MOL0     H58050   3.072   0.815   1.483  1.1449 -1.6817 -2.4272
  431MOL0     O58051   7.041   0.889   1.396 -0.0528 -0.0367  0.5401
  431MOL0     C58052   7.029   0.767   1.380 -0.4504 -0.0862  1.1968
  431MOL0     O58053   6.944   0.708   1.291 -0.4115  0.1006  0.4768
  431MOL0     C58054   6.847   0.790   1.233 -0.4431  0.3258  0.5794
  431MOL0     C58055   6.744   0.833   1.307  1.0479 -1.3309  0.0825
  431MOL0     C58056   6.653   0.927   1.258  0.7362  0.3143  0.4043
  431MOL0     C58057   6.665   0.982   1.126  0.6072 -0.3018 -0.4027
  431MOL0     O58058   6.584   1.078   1.073 -0.0780  0.5502 -0.5235
  431MOL0     C58059   6.523   1.165   1.158  0.8696  0.2334 -0.6500
  431MOL0     C58060   6.491   1.302   1.096  0.1705 -0.4973  0.2995
  431MOL0     C58061   6.374   1.280   0.999 -0.4159  0.4302  0.1226
  431MOL0     C58062   6.341   1.416   0.940 -0.1901 -0.3209 -0.0403
  431MOL0     C58063   6.222   1.419   0.837  0.1262  0.2955 -0.1966
  431MOL0     C58064   6.084   1.409   0.905  0.3892 -0.6650 -0.5335
  431MOL0     C58065   5.975   1.419   0.799 -0.0008  0.8580  0.3294
  431MOL0     C58066   5.942   1.283   0.722 -0.4130 -0.8318 -0.4655
  431MOL0     N58067   5.837   1.297   0.622 -0.5324 -0.4728 -0.2424
  431MOL0     C58068   5.705   1.252   0.620 -0.7502  0.3375 -0.2899
  431MOL0     C58069   5.668   1.285   0.492  0.3714 -0.4000 -0.2332
  431MOL0     C58070   5.525   1.265   0.437  0.5205 -0.0462 -0.2097
  431MOL0     C58071   5.502   1.121   0.393 -0.1784  0.3262  0.1329
  431MOL0     C58072   5.380   1.096   0.304  0.5366  1.0790  0.5543
  431MOL0     C58073   5.338   0.960   0.291  0.2940  0.3622 -0.1774
  431MOL0     O58074   5.203   0.950   0.248  0.0175 -0.4408  0.3769
  431MOL0     C58075   5.185   0.940   0.111  0.9920 -0.6718  0.2405
  431MOL0     C58076   5.268   0.983   0.005 -0.6617  0.1212  1.2019
  431MOL0     C58077   5.217   0.972  -0.129  0.0490 -0.0822  0.2636
  431MOL0     C58078   5.319   1.010  -0.245 -0.8783 -0.1515 -0.5217
  431MOL0     C58079   5.096   0.907  -0.156 -0.2876  0.2040 -0.4768
  431MOL0     C58080   5.041   0.897  -0.298  0.5079  0.3446 -0.4770
  431MOL0     O58081   5.100   0.961  -0.397  1.0359 -0.1893 -0.7079
  431MOL0     C58082   5.046   0.954  -0.517 -0.0981 -0.0483  0.8742
  431MOL0     C58083   5.136   0.932  -0.620  0.0357  0.5451 -0.2664
  431MOL0     C58084   5.087   0.933  -0.755 -0.7419  0.1704 -0.8475
  431MOL0     C58085   4.955   0.968  -0.776  1.0760  0.1599  0.4341
  431MOL0     O58086   4.900   0.972  -0.905 -0.2954 -0.7314 -0.1048
  431MOL0     C58087   4.966   0.905  -1.017 -0.9537  0.0298 -0.4355
  431MOL0     C58088   4.878   0.897  -1.135 -1.4750 -0.1895 -0.0222
  431MOL0     C58089   4.843   1.037  -1.201 -0.9740  0.3067  0.1459
  431MOL0     C58090   4.734   1.007  -1.304  0.1685 -0.1211 -0.2276
  431MOL0     C58091   4.709   1.119  -1.410 -0.3598 -0.4934  0.0593
  431MOL0     C58092   4.628   1.235  -1.364  0.3843 -0.2398  0.1321
  431MOL0     C58093   4.625   1.333  -1.480 -0.1269 -0.4732  0.3729
  431MOL0     C58094   4.551   1.461  -1.468  0.3369 -0.7061  0.8599
  431MOL0    Cl58095   4.617   1.563  -1.330  0.2269  0.2148 -0.0743
  431MOL0     C58096   4.867   0.995  -0.674  0.3224 -0.8283 -0.5052
  431MOL0     C58097   4.911   0.985  -0.544 -0.1126  0.3269  0.4341
  431MOL0     O58098   4.954   0.806  -0.313  0.7538 -0.0815  0.1752
  431MOL0     C58099   5.015   0.869  -0.050 -0.9185  0.4152  0.5177
  431MOL0     C58100   5.052   0.894   0.083 -0.1497  0.1492  0.4096
  431MOL0     N58101   5.768   1.360   0.431  1.0900  0.0144  0.3115
  431MOL0     N58102   5.863   1.371   0.510 -0.1257  0.2642  0.0658
  431MOL0     C58103   6.781   0.943   1.046  1.2207 -0.2390  0.0542
  431MOL0     C58104   6.864   0.845   1.103 -0.4949 -0.2272 -0.3517
  431MOL0     C58105   7.110   0.676   1.475  0.7383  1.3239  0.1739
  431MOL0     C58106   7.098   0.541   1.480 -0.0758  0.5565 -0.2598
  431MOL0     C58107   7.164   0.463   1.585  0.7993 -0.1406 -0.2291
  431MOL0     C58108   7.240   0.530   1.687 -0.2313  0.4189 -0.3670
  431MOL0     O58109   7.290   0.457   1.797 -0.3169 -0.5478 -0.5696
  431MOL0     C58110   7.357   0.330   1.783  0.7035 -0.7029 -0.2833
  431MOL0     C58111   7.319   0.258   1.921 -0.9641  0.3911  0.0733
  431MOL0     C58112   7.169   0.189   1.929 -0.6186 -0.3149  0.8039
  431MOL0     C58113   7.170   0.071   1.829 -0.9664  0.3754 -0.5040
  431MOL0     C58114   7.037   0.016   1.824 -0.4264  0.2808  0.1193
  431MOL0     C58115   6.926  -0.023   1.818  0.8649  0.6604 -0.6208
  431MOL0     C58116   7.253   0.662   1.682 -0.3428  0.7955 -0.8573
  431MOL0     C58117   7.200   0.734   1.571 -0.2711 -0.8691  0.2450
  431MOL0     H58118   6.720   0.780   1.400  0.9930  1.0702  1.5167
  431MOL0     H58119   6.562   0.932   1.316 -0.8688 -4.2218 -1.2509
  431MOL0     H58120   6.438   1.123   1.213  2.1782 -1.2257  0.3779
  431MOL0     H58121   6.601   1.197   1.228  0.5573  2.4117 -1.2402
  431MOL0     H58122   6.475   1.368   1.182  0.5810 -2.2148  1.7312
  431MOL0     H58123   6.577   1.350   1.047  0.2007 -1.2507 -0.4003
  431MOL0     H58124   6.399   1.216   0.913 -1.3995  1.9735 -1.3864
  431MOL0     H58125   6.291   1.234   1.053 -0.9815 -2.0195 -2.5952
  431MOL0     H58126   6.324   1.493   1.015 -1.5739 -0.6974  0.0507
  431MOL0     H58127   6.429   1.448   0.882  0.2928 -1.9938 -0.2854
  431MOL0     H58128   6.235   1.512   0.781 -0.0996  0.8205  0.6093
  431MOL0     H58129   6.234   1.334   0.768  1.4886 -0.6641  1.1690
  431MOL0     H58130   6.074   1.317   0.963  0.0617 -0.4000 -0.1697
  431MOL0     H58131   6.077   1.485   0.983 -0.5013 -2.9510  1.7341
  431MOL0     H58132   5.889   1.459   0.854  0.7135  2.1709  0.5388
  431MOL0     H58133   6.011   1.496   0.730  3.1525  0.1100  1.0040
  431MOL0     H58134   5.904   1.215   0.799 -2.2054  0.1620 -0.4190
  431MOL0     H58135   6.031   1.231   0.684  1.3893  0.7887  1.3399
  431MOL0     H58136   5.642   1.198   0.690 -1.3738  0.3590 -0.8220
  431MOL0     H58137   5.453   1.304   0.510 -0.4405 -0.4381 -0.9241
  431MOL0     H58138   5.496   1.328   0.352  0.3221 -1.7139 -1.4385
  431MOL0     H58139   5.483   1.079   0.493 -0.4422  1.4074  0.5491
  431MOL0     H58140   5.590   1.082   0.342 -0.4755  0.4146 -0.4483
  431MOL0     H58141   5.396   1.142   0.206  2.4660  1.5095  1.0237
  431MOL0     H58142   5.302   1.148   0.361  1.3461  1.4831  1.3205
  431MOL0     H58143   5.348   0.903   0.384  3.1110  0.9305 -0.0337
  431MOL0     H58144   5.412   0.908   0.228 -0.9404  0.1935 -1.5480
  431MOL0     H58145   5.365   1.030   0.022  0.0770 -1.2643  0.9620
  431MOL0     H58146   5.285   1.100  -0.297 -2.9859 -0.4953  0.1549
  431MOL0     H58147   5.413   1.038  -0.197 -2.4461 -0.1211  2.8776
  431MOL0     H58148   5.336   0.915  -0.296  0.3122 -0.9779  1.3229
  431MOL0     H58149   5.242   0.918  -0.601 -0.0964 -0.6585 -0.3582
  431MOL0     H58150   5.150   0.919  -0.841  1.4081  0.8094  0.5539
  431MOL0     H58151   5.057   0.957  -1.046 -1.2270 -0.4143 -2.1642
  431MOL0     H58152   5.015   0.809  -1.000  3.1801  1.2204 -3.9156
  431MOL0     H58153   4.906   0.825  -1.213 -0.6003  1.4070 -1.2407
  431MOL0     H58154   4.781   0.865  -1.095 -2.7801  0.2522 -2.6525
  431MOL0     H58155   4.935   1.067  -1.253 -0.7259 -1.2176 -0.3469
  431MOL0     H58156   4.816   1.107  -1.121 -0.6842  0.5671  0.0208
  431MOL0     H58157   4.765   0.921  -1.364  3.9231 -0.3266  1.7550
  431MOL0     H58158   4.641   0.998  -1.248  2.1063 -0.3728  3.1864
  431MOL0     H58159   4.654   1.081  -1.497  1.5672  1.7568 -2.3422
  431MOL0     H58160   4.809   1.150  -1.443 -0.4925 -0.6104 -0.4648
  431MOL0     H58161   4.526   1.203  -1.340 -0.7441  3.1335  0.3804
  431MOL0     H58162   4.681   1.287  -1.283 -1.0088 -1.7908  2.1378
  431MOL0     H58163   4.594   1.279  -1.570  0.8289 -0.7541  0.2000
  431MOL0     H58164   4.727   1.373  -1.481 -0.2462 -0.1551 -0.5847
  431MOL0     H58165   4.445   1.434  -1.460  0.3170 -0.5641  1.1124
  431MOL0     H58166   4.574   1.508  -1.564  0.8236 -3.2932 -0.3862
  431MOL0     H58167   4.760   0.998  -0.689  0.0970 -0.4850  1.0602
  431MOL0     H58168   4.840   1.008  -0.466 -0.4683 -0.3378  0.3123
  431MOL0     H58169   4.922   0.813  -0.055 -0.4446 -0.5280  1.7831
  431MOL0     H58170   4.989   0.863   0.166 -1.1589 -3.3282 -1.4386
  431MOL0     H58171   6.782   0.983   0.945  2.9059 -2.1329 -0.7374
  431MOL0     H58172   6.947   0.816   1.039 -1.6812 -2.9621 -0.8173
  431MOL0     H58173   7.045   0.489   1.401 -0.7614 -1.4963  1.4596
  431MOL0     H58174   7.147   0.356   1.588 -0.4598  0.0566  0.5412
  431MOL0     H58175   7.309   0.270   1.706 -1.6682 -0.4258  0.8977
  431MOL0     H58176   7.464   0.349   1.771  0.5821  0.0384 -0.1976
  431MOL0     H58177   7.320   0.327   2.006  0.5768 -0.4524  0.7869
  431MOL0     H58178   7.392   0.180   1.944 -0.5605  0.9161  0.6060
  431MOL0     H58179   7.102   0.272   1.903 -0.8698 -1.0865 -1.1309
  431MOL0     H58180   7.154   0.148   2.030 -1.1276  0.5744  1.0975
  431MOL0     H58181   7.251   0.003   1.857  0.1464  1.6425 -0.5220
  431MOL0     H58182   7.193   0.089   1.724 -0.8766 -1.9912 -0.9559
  431MOL0     H58183   6.825  -0.058   1.816  0.8200  0.5826  1.3892
  431MOL0     H58184   7.322   0.711   1.750  0.7525 -2.6273  0.6940
  431MOL0     H58185   7.231   0.837   1.556  1.4330 -1.5160 -1.0665
  432MOL0     O58186   4.321   9.277   0.611 -0.0611  0.2313  0.4013
  432MOL0     C58187   4.329   9.350   0.515 -0.8345  0.0801  0.7152
  432MOL0     O58188   4.230   9.409   0.446 -0.7833  0.6093 -0.1525
  432MOL0     C58189   4.096   9.385   0.452  0.1680 -0.8210 -0.0699
  432MOL0     C58190   4.044   9.258   0.487  0.2301  0.7899  0.1889
  432MOL0     C58191   3.910   9.249   0.490  0.3496  0.0593 -0.7044
  432MOL0     C58192   3.826   9.364   0.447 -0.0786 -0.1621  0.3667
  432MOL0     O58193   3.692   9.345   0.459 -0.0955  0.3959  0.7351
  432MOL0     C58194   3.590   9.444   0.418 -0.2914 -0.0945 -0.2574
  432MOL0     C58195   3.443   9.404   0.450  0.2338 -1.0574  0.6620
  432MOL0     C58196   3.433   9.386   0.602  1.0246 -0.4267 -0.4310
  432MOL0     C58197   3.294   9.392   0.643 -0.4426 -0.0768 -0.5341
  432MOL0     C58198   3.217   9.258   0.616 -0.4117  0.3880  0.3694
  432MOL0     C58199   3.092   9.255   0.703 -0.4186 -0.7956 -0.4737
  432MOL0     C58200   3.001   9.134   0.675 -0.6866  0.8232  0.2747
  432MOL0     C58201   3.079   9.003   0.715 -0.3424  0.1283  0.1799
  432MOL0     N58202   3.004   8.884   0.751  0.1901  0.5090 -0.8664
  432MOL0     C58203   2.919   8.870   0.860  0.3576 -0.3678 -0.1952
  432MOL0     C58204   2.892   8.736   0.867 -1.0189  0.1584 -1.0084
  432MOL0     C58205   2.803   8.660   0.967  0.1476  0.4093  1.1046
  432MOL0     C58206   2.662   8.671   0.905  0.3419  0.5895 -0.4685
  432MOL0     C58207   2.573   8.595   1.003  0.2160 -0.1881 -0.9518
  432MOL0     C58208   2.444   8.548   0.946  0.0946 -0.2191 -0.3251
  432MOL0     O58209   2.385   8.452   1.042 -0.3976  0.1813 -0.1270
  432MOL0     C58210   2.264   8.492   1.094 -1.1256 -0.7342  0.1850
  432MOL0     C58211   2.146   8.427   1.076 -0.2015  0.1358 -0.2324
  432MOL0     C58212   2.032   8.457   1.147 -0.6223 -0.8009  0.0506
  432MOL0     C58213   1.910   8.381   1.117 -0.1602  0.2751 -0.3753
  432MOL0     C58214   2.037   8.569   1.238  0.3877  0.5901 -0.2723
  432MOL0     C58215   1.917   8.626   1.308 -0.0783  0.7711  0.1687
  432MOL0     O58216   1.794   8.601   1.247 -0.7527  0.3480 -0.5892
  432MOL0     C58217   1.676   8.628   1.316  0.3158 -0.4481 -0.8609
  432MOL0     C58218   1.590   8.527   1.361  0.9910 -0.3297 -0.1075
  432MOL0     C58219   1.459   8.556   1.398  0.5000  0.2802  0.3763
  432MOL0     C58220   1.411   8.691   1.404  0.9990 -0.4563  0.4702
  432MOL0     O58221   1.282   8.726   1.445 -0.7909 -0.2891 -0.3402
  432MOL0     C58222   1.192   8.620   1.454  0.6537 -0.1426 -0.5168
  432MOL0     C58223   1.049   8.653   1.496  0.5886  0.3444 -0.2320
  432MOL0     C58224   0.971   8.522   1.494 -0.1018  0.5919 -0.1342
  432MOL0     C58225   0.829   8.531   1.547 -0.5829  0.5987 -0.3988
  432MOL0     C58226   0.730   8.572   1.440 -0.2054 -0.9796 -0.3116
  432MOL0     C58227   0.589   8.534   1.481  0.7111  0.3108 -0.7180
  432MOL0     C58228   0.489   8.617   1.389  0.1169  0.1784 -0.3747
  432MOL0     C58229   0.341   8.628   1.439 -0.7959 -1.4197  0.3020
  432MOL0    Cl58230   0.360   8.707   1.603 -0.4332  0.0149 -0.1737
  432MOL0     C58231   1.494   8.787   1.354  1.1056 -0.1641  0.2017
  432MOL0     C58232   1.622   8.761   1.308 -0.8174  1.7115 -0.4996
  432MOL0     O58233   1.934   8.696   1.406 -0.0441 -0.8294  0.5558
  432MOL0     C58234   2.162   8.617   1.265  0.1700 -0.0572 -0.8411
  432MOL0     C58235   2.274   8.586   1.184 -0.0771  0.1626 -0.9878
  432MOL0     N58236   2.962   8.674   0.774 -0.1906  0.4509  0.1007
  432MOL0     N58237   3.035   8.756   0.713 -0.2101 -0.1421 -0.1877
  432MOL0     C58238   3.881   9.486   0.409  0.4751 -0.3031  0.1616
  432MOL0     C58239   4.023   9.502   0.411  0.4517  0.7887  0.3223
  432MOL0     C58240   4.459   9.383   0.463 -0.4533  1.1084 -1.0138
  432MOL0     C58241   4.574   9.342   0.529  0.4040 -0.8241 -0.8456
  432MOL0     C58242   4.702   9.373   0.486 -0.0060  0.0279 -0.6410
  432MOL0     C58243   4.715   9.442   0.367 -0.2363  0.9164  0.9576
  432MOL0     O58244   4.840   9.482   0.319  0.4830  0.2799 -0.2571
  432MOL0     C58245   4.955   9.431   0.390 -0.0369  0.3248 -1.0395
  432MOL0     C58246   5.074   9.432   0.299  0.7812 -0.3621  0.2892
  432MOL0     C58247   5.115   9.568   0.253  0.0879  0.3393  0.0493
  432MOL0     C58248   5.227   9.566   0.153  0.2433  0.1054 -0.7550
  432MOL0     C58249   5.352   9.501   0.198 -0.0029 -0.4381 -0.7676
  432MOL0     C58250   5.465   9.461   0.224 -0.2985 -0.3771 -0.2914
  432MOL0     C58251   4.603   9.501   0.303 -0.9071  0.6405 -0.3218
  432MOL0     C58252   4.477   9.472   0.353  0.6747  0.1934 -0.0825
  432MOL0     H58253   4.105   9.172   0.514  2.3975  1.8329 -1.0948
  432MOL0     H58254   3.858   9.155   0.506 -0.9559  0.6954 -1.0508
  432MOL0     H58255   3.604   9.543   0.463 -0.7996 -0.1321  0.0011
  432MOL0     H58256   3.602   9.439   0.310  0.2868  1.4994 -0.2894
  432MOL0     H58257   3.384   9.488   0.413  0.9063 -0.6599  0.4774
  432MOL0     H58258   3.407   9.314   0.400 -0.7642  0.3416 -1.2597
  432MOL0     H58259   3.470   9.288   0.633  0.5421 -0.0069  1.6412
  432MOL0     H58260   3.488   9.467   0.652  1.1096 -0.4160 -0.5417
  432MOL0     H58261   3.305   9.398   0.752 -1.2033  0.0449 -0.4570
  432MOL0     H58262   3.244   9.479   0.599 -0.7412  0.7053  1.2694
  432MOL0     H58263   3.183   9.257   0.512  1.7208  0.3275 -0.3679
  432MOL0     H58264   3.279   9.169   0.629  2.0865  2.1069  0.9726
  432MOL0     H58265   3.127   9.252   0.807  2.6104 -0.0317 -1.3802
  432MOL0     H58266   3.045   9.354   0.704  0.8090 -0.1818 -0.5903
  432MOL0     H58267   2.913   9.158   0.735  1.2299  2.6154  2.6049
  432MOL0     H58268   2.966   9.145   0.572 -3.2990  0.0916  1.0152
  432MOL0     H58269   3.151   9.027   0.794 -0.7765  4.5286 -0.5244
  432MOL0     H58270   3.135   8.974   0.626  0.3750  1.7477  0.0807
  432MOL0     H58271   2.871   8.941   0.926 -1.7665 -0.7924 -1.1914
  432MOL0     H58272   2.839   8.559   0.987  0.8898  0.2607 -0.7529
  432MOL0     H58273   2.813   8.709   1.064 -0.0264  3.5224 -0.2995
  432MOL0     H58274   2.657   8.617   0.810 -2.5565 -0.2256  0.0342
  432MOL0     H58275   2.623   8.769   0.875  0.9270  1.0732  0.3355
  432MOL0     H58276   2.562   8.643   1.101 -0.6377 -0.5698 -0.8467
  432MOL0     H58277   2.615   8.495   1.019 -0.9667 -0.7572 -1.2354
  432MOL0     H58278   2.476   8.485   0.863  0.3766 -0.3386 -0.1294
  432MOL0     H58279   2.376   8.630   0.921 -0.7978 -0.5329  0.9737
  432MOL0     H58280   2.147   8.347   1.002 -0.4121  1.1968 -1.4266
  432MOL0     H58281   1.866   8.345   1.211 -0.1190  1.4270  0.0982
  432MOL0     H58282   1.827   8.426   1.062 -2.2592 -4.6423 -1.8932
  432MOL0     H58283   1.940   8.296   1.054  0.1399 -0.3351  0.5712
  432MOL0     H58284   1.625   8.425   1.374  2.8017  0.1712 -0.6918
  432MOL0     H58285   1.410   8.465   1.431  0.5060 -0.1339 -0.7288
  432MOL0     H58286   1.178   8.588   1.351 -1.0700  0.6478 -0.5628
  432MOL0     H58287   1.227   8.539   1.518  2.1284 -0.1706 -1.3260
  432MOL0     H58288   1.038   8.697   1.595 -1.2296  0.0066 -0.2495
  432MOL0     H58289   1.010   8.724   1.423  2.7836  2.1219  0.2345
  432MOL0     H58290   1.027   8.452   1.557 -1.0897  2.5678  3.1974
  432MOL0     H58291   0.960   8.474   1.396  0.3185 -2.7808  1.3292
  432MOL0     H58292   0.792   8.437   1.587 -1.6986  1.3587  0.4421
  432MOL0     H58293   0.834   8.602   1.631  2.3905  1.8299 -1.4807
  432MOL0     H58294   0.741   8.522   1.343 -0.7893 -0.2045 -0.7950
  432MOL0     H58295   0.742   8.680   1.428 -1.1569 -0.7808  0.3641
  432MOL0     H58296   0.575   8.427   1.462  3.3816  0.0017 -1.2331
  432MOL0     H58297   0.572   8.552   1.588 -1.9606 -1.2772 -0.7772
  432MOL0     H58298   0.507   8.579   1.288  0.2757 -3.4046  0.8838
  432MOL0     H58299   0.526   8.716   1.359 -0.2303  0.1066 -1.0597
  432MOL0     H58300   0.300   8.527   1.453 -0.6842 -1.5170 -0.0608
  432MOL0     H58301   0.287   8.687   1.364  1.1961  0.6510  0.3923
  432MOL0     H58302   1.455   8.887   1.345 -0.9164 -0.8661  0.6759
  432MOL0     H58303   1.678   8.835   1.252  0.8260 -0.9909 -2.6391
  432MOL0     H58304   2.180   8.698   1.335  0.3590 -1.0566  0.3035
  432MOL0     H58305   2.369   8.635   1.205 -1.0773  2.3650 -1.2759
  432MOL0     H58306   3.824   9.578   0.398  1.1361  0.1182  0.2279
  432MOL0     H58307   4.075   9.589   0.373  4.0779 -0.8838  0.9816
  432MOL0     H58308   4.572   9.279   0.618  1.4946  2.3945  1.6630
  432MOL0     H58309   4.782   9.339   0.550 -1.2056 -1.2815  0.2278
  432MOL0     H58310   4.970   9.486   0.484 -0.0751  1.1071 -1.4809
  432MOL0     H58311   4.941   9.324   0.411 -2.8040  0.9927  1.3135
  432MOL0     H58312   5.042   9.373   0.212 -0.1695  0.7003 -0.1090
  432MOL0     H58313   5.162   9.379   0.335  1.4315  1.4676  1.4671
  432MOL0     H58314   5.156   9.620   0.339  2.9202  0.3830 -1.2069
  432MOL0     H58315   5.033   9.635   0.222 -0.0295  2.9041  5.0000
  432MOL0     H58316   5.257   9.666   0.122  1.6515 -0.4237 -1.2104
  432MOL0     H58317   5.197   9.505   0.067  1.4084  0.0551 -1.1429
  432MOL0     H58318   5.552   9.403   0.248 -1.7875 -2.0499  1.3140
  432MOL0     H58319   4.627   9.546   0.207 -0.0071  0.6900 -0.0825
  432MOL0     H58320   4.387   9.512   0.309 -1.6604 -1.2574  2.9815
  433MOL0     O58321  10.329   8.797   0.623  0.2112  0.3130  0.3792
  433MOL0     C58322  10.399   8.888   0.660  0.2033  0.2499 -0.0405
  433MOL0     O58323  10.364   9.018   0.679 -0.4178 -0.1830 -0.3178
  433MOL0     C58324  10.241   9.062   0.637  0.3033 -0.1064 -0.5973
  433MOL0     C58325  10.126   9.032   0.715 -0.8977 -0.6105  0.5560
  433MOL0     C58326  10.002   9.055   0.658  0.2991 -0.5518 -0.0964
  433MOL0     C58327   9.986   9.106   0.526  0.2124  0.2707  0.5045
  433MOL0     O58328   9.863   9.131   0.461  0.3328 -0.2509 -0.2289
  433MOL0     C58329   9.748   9.153   0.544  0.1476 -0.0854  1.1171
  433MOL0     C58330   9.635   9.165   0.443  0.5176  0.7521 -0.6687
  433MOL0     C58331   9.503   9.183   0.517 -0.0928  0.6215  0.2429
  433MOL0     C58332   9.397   9.234   0.419 -0.2156 -0.3008  0.5199
  433MOL0     C58333   9.254   9.256   0.464  0.3895  0.0309 -0.5731
  433MOL0     C58334   9.193   9.134   0.534 -0.6320 -0.4848  0.0558
  433MOL0     C58335   9.045   9.168   0.574  0.3898  0.0097 -0.1135
  433MOL0     C58336   8.944   9.135   0.461  0.1348  0.7189 -1.0342
  433MOL0     N58337   8.833   9.227   0.459 -0.1875  0.7789  0.1236
  433MOL0     C58338   8.723   9.211   0.540 -0.1361  0.3421  0.3814
  433MOL0     C58339   8.653   9.332   0.526 -0.1798  0.6914 -0.9656
  433MOL0     C58340   8.511   9.342   0.569  0.8826  0.3908  0.3021
  433MOL0     C58341   8.403   9.306   0.465  0.5581  0.4675  0.9555
  433MOL0     C58342   8.381   9.406   0.350  0.4956  0.2710  0.8050
  433MOL0     C58343   8.346   9.338   0.205  0.6222  0.0043  0.0783
  433MOL0     O58344   8.238   9.233   0.211 -0.0226  0.3301 -1.0045
  433MOL0     C58345   8.112   9.288   0.208 -0.7345 -0.5759  0.3736
  433MOL0     C58346   8.070   9.355   0.089  0.3829 -0.4755  0.1844
  433MOL0     C58347   7.937   9.407   0.078 -0.2176  0.1896 -0.5004
  433MOL0     C58348   7.898   9.460  -0.058 -0.2268  0.8899  0.4520
  433MOL0     C58349   7.854   9.399   0.192 -0.7451 -0.6230  0.1788
  433MOL0     C58350   7.723   9.456   0.190  0.7440 -0.2520  1.0030
  433MOL0     O58351   7.683   9.518   0.301 -0.1348  0.8038  0.0319
  433MOL0     C58352   7.551   9.543   0.328  0.6939 -0.2906 -0.4920
  433MOL0     C58353   7.441   9.462   0.295  0.7251 -1.1763 -0.8631
  433MOL0     C58354   7.311   9.508   0.324 -0.6362  0.0872 -0.4422
  433MOL0     C58355   7.284   9.613   0.408  0.1556 -0.0785  0.8858
  433MOL0     O58356   7.149   9.640   0.434 -0.1567 -0.0287  0.2291
  433MOL0     C58357   7.123   9.738   0.537 -0.5059  1.0294 -0.0836
  433MOL0     C58358   6.978   9.718   0.573 -1.1010  0.2046 -0.1294
  433MOL0     C58359   6.941   9.800   0.702 -0.4490 -1.3446  0.2318
  433MOL0     C58360   6.842   9.722   0.794  0.5324  0.8850 -0.4581
  433MOL0     C58361   6.712   9.789   0.842  0.3810  0.2764  0.2573
  433MOL0     C58362   6.647   9.690   0.945 -0.7896 -0.8189 -0.3475
  433MOL0     C58363   6.550   9.742   1.050 -0.7946  0.4223 -0.2452
  433MOL0     C58364   6.426   9.781   0.972 -0.0018  0.5620 -0.2150
  433MOL0    Cl58365   6.441   9.946   0.906 -0.0829 -0.3168 -0.1393
  433MOL0     C58366   7.393   9.691   0.453 -0.6942 -0.1298 -0.1381
  433MOL0     C58367   7.525   9.651   0.418  0.8141 -0.2517  0.3899
  433MOL0     O58368   7.650   9.431   0.093  0.3336 -0.4581 -0.3295
  433MOL0     C58369   7.900   9.325   0.303  0.1384 -1.1059  0.3489
  433MOL0     C58370   8.034   9.273   0.312  0.5947 -0.4857 -0.7750
  433MOL0     N58371   8.733   9.416   0.454  0.4731 -0.0883  0.7285
  433MOL0     N58372   8.835   9.353   0.415 -0.4602 -0.5441 -0.3015
  433MOL0     C58373  10.095   9.132   0.456 -0.3092  0.4243  0.2018
  433MOL0     C58374  10.222   9.121   0.505 -0.4794 -0.6671 -0.2514
  433MOL0     C58375  10.550   8.867   0.677 -0.4854  0.5744  0.1271
  433MOL0     C58376  10.638   8.969   0.650  0.4542  0.1087 -0.5437
  433MOL0     C58377  10.774   8.948   0.652 -0.5591  0.3530 -0.6523
  433MOL0     C58378  10.829   8.826   0.701 -0.3961 -0.1933  0.0200
  433MOL0     O58379  10.958   8.806   0.721 -0.2625 -0.1425 -0.3026
  433MOL0     C58380  11.032   8.774   0.599 -0.1488  0.0334 -0.3097
  433MOL0     C58381  11.173   8.747   0.643  0.2759  0.3646 -0.0387
  433MOL0     C58382  11.241   8.866   0.704 -0.0767  0.4512 -0.3130
  433MOL0     C58383  11.253   9.001   0.623  0.2225  0.6188  0.0391
  433MOL0     C58384  11.330   8.969   0.504 -0.2630  0.4946  0.2342
  433MOL0     C58385  11.367   8.946   0.391 -0.4972  0.2370 -0.7408
  433MOL0     C58386  10.742   8.732   0.749  0.1692 -0.9858  0.4866
  433MOL0     C58387  10.606   8.744   0.731 -0.0848  0.2978  0.2479
  433MOL0     H58388  10.148   8.991   0.813 -0.1937  0.2700  0.7876
  433MOL0     H58389   9.915   9.020   0.713 -1.8026  2.7246 -1.0263
  433MOL0     H58390   9.731   9.061   0.601  2.3586  0.3664  2.6130
  433MOL0     H58391   9.761   9.242   0.607  2.2069 -1.2005  2.3514
  433MOL0     H58392   9.655   9.258   0.389 -1.3764  1.2753 -0.5226
  433MOL0     H58393   9.631   9.080   0.375 -4.6913  2.1634 -2.5697
  433MOL0     H58394   9.469   9.086   0.556  0.2694  0.1361 -0.6312
  433MOL0     H58395   9.513   9.245   0.607 -0.6485  3.5324 -1.5842
  433MOL0     H58396   9.437   9.322   0.368 -0.7247  1.4383  2.9362
  433MOL0     H58397   9.385   9.159   0.340  1.4317 -1.5155  1.3465
  433MOL0     H58398   9.254   9.337   0.538 -0.5938 -0.7039  0.2633
  433MOL0     H58399   9.189   9.286   0.381  2.3158  3.1337 -1.1120
  433MOL0     H58400   9.204   9.053   0.461  2.4262  0.1776 -0.3812
  433MOL0     H58401   9.248   9.119   0.628  1.1324  3.4618 -0.1605
  433MOL0     H58402   9.021   9.123   0.671  0.0981 -2.6037 -1.3288
  433MOL0     H58403   9.038   9.277   0.589  1.3471  0.6081 -3.2965
  433MOL0     H58404   8.924   9.028   0.468  2.5956  0.1960 -1.3041
  433MOL0     H58405   8.995   9.143   0.365  2.0640 -2.1809 -0.3892
  433MOL0     H58406   8.683   9.127   0.596  0.0979 -1.0272 -1.4364
  433MOL0     H58407   8.498   9.281   0.659  0.3326 -0.1491 -0.1309
  433MOL0     H58408   8.493   9.446   0.596 -0.9628  0.2090 -0.0968
  433MOL0     H58409   8.303   9.288   0.506  0.5594 -1.7667  0.1365
  433MOL0     H58410   8.415   9.204   0.428  0.6803  0.1478  1.8439
  433MOL0     H58411   8.474   9.462   0.336  2.0300 -2.7535 -3.1845
  433MOL0     H58412   8.303   9.478   0.375  1.9797  2.1111  0.3923
  433MOL0     H58413   8.434   9.282   0.173  0.3244 -0.6342  0.3506
  433MOL0     H58414   8.318   9.420   0.138 -1.0258  0.0483  0.7740
  433MOL0     H58415   8.131   9.359  -0.001 -1.7866 -1.7600 -1.4659
  433MOL0     H58416   7.975   9.441  -0.133  0.8856 -0.8436  1.9684
  433MOL0     H58417   7.823   9.401  -0.111  1.9383 -0.5559 -1.1911
  433MOL0     H58418   7.867   9.565  -0.056  0.0549  1.1510 -2.9104
  433MOL0     H58419   7.441   9.368   0.242 -0.2396 -1.1968 -0.8337
  433MOL0     H58420   7.219   9.461   0.289 -0.9691 -0.4412  1.0360
  433MOL0     H58421   7.186   9.720   0.624  1.1431  0.5560 -1.3264
  433MOL0     H58422   7.145   9.838   0.500 -1.4745  0.3197 -2.8730
  433MOL0     H58423   6.916   9.757   0.492 -1.5222  0.9521  0.5379
  433MOL0     H58424   6.959   9.611   0.586 -0.3692 -0.1788 -1.9273
  433MOL0     H58425   6.890   9.894   0.681  1.1073 -0.9620 -2.2578
  433MOL0     H58426   7.031   9.828   0.758 -1.3151  0.4859  0.7761
  433MOL0     H58427   6.807   9.638   0.734  0.7278  0.6707 -0.2693
  433MOL0     H58428   6.895   9.686   0.882 -0.7465 -0.8788 -0.3578
  433MOL0     H58429   6.632   9.805   0.769  0.8381  0.2254 -0.2567
  433MOL0     H58430   6.739   9.888   0.879  1.2440  0.6820 -1.3643
  433MOL0     H58431   6.602   9.601   0.900 -0.7030 -0.6937 -0.6854
  433MOL0     H58432   6.724   9.656   1.014 -0.9965 -1.6251 -0.5022
  433MOL0     H58433   6.581   9.829   1.107  2.7348  1.1078 -2.9230
  433MOL0     H58434   6.532   9.658   1.118  0.1443 -0.2043 -0.7451
  433MOL0     H58435   6.338   9.774   1.036  0.2537  2.7072  0.4313
  433MOL0     H58436   6.425   9.707   0.891  2.5959 -0.7221  0.7889
  433MOL0     H58437   7.385   9.781   0.513  2.3957  0.7122 -0.8178
  433MOL0     H58438   7.603   9.724   0.438  1.6099  0.1743 -3.4447
  433MOL0     H58439   7.843   9.301   0.393 -1.3600 -0.6676 -0.4561
  433MOL0     H58440   8.062   9.207   0.394  3.4799  0.8133 -0.5831
  433MOL0     H58441  10.073   9.152   0.352  1.1984  1.8413  0.1160
  433MOL0     H58442  10.303   9.157   0.443  1.1981 -0.0291  2.1515
  433MOL0     H58443  10.608   9.066   0.611  1.4364 -0.2930 -2.3770
  433MOL0     H58444  10.844   9.020   0.611 -0.8706 -0.9295 -3.7876
  433MOL0     H58445  10.990   8.686   0.550  0.4790 -1.2077  1.3011
  433MOL0     H58446  11.040   8.865   0.538  0.0014  1.4857  1.7831
  433MOL0     H58447  11.243   8.717   0.565  1.2061 -1.4731  1.4043
  433MOL0     H58448  11.177   8.659   0.709 -0.8112 -1.2377 -2.0094
  433MOL0     H58449  11.338   8.824   0.730 -0.4436 -1.7548 -2.2189
  433MOL0     H58450  11.189   8.894   0.796 -0.1190  2.6451 -0.9582
  433MOL0     H58451  11.317   9.074   0.674  1.4539 -0.1355 -0.3861
  433MOL0     H58452  11.159   9.053   0.604 -0.3152  0.1455  1.3470
  433MOL0     H58453  11.413   8.927   0.296  1.1329  0.2326  0.0138
  433MOL0     H58454  10.783   8.647   0.802 -1.5178 -1.7656  0.5798
  433MOL0     H58455  10.538   8.667   0.765 -0.6163  0.9449  0.6715
  434MOL0     O58456   4.861   8.337   4.042 -0.0633 -0.3303 -0.5737
  434MOL0     C58457   4.876   8.237   3.971  0.1692 -0.2081 -0.2657
  434MOL0     O58458   4.777   8.174   3.889 -0.4052 -0.3500  0.1845
  434MOL0     C58459   4.662   8.232   3.872  0.1039  0.2023  0.0275
  434MOL0     C58460   4.575   8.245   3.984  0.5843 -0.5331  0.3567
  434MOL0     C58461   4.460   8.322   3.966 -0.5320  0.9603  0.7362
  434MOL0     C58462   4.433   8.389   3.847 -0.2624 -0.6658 -0.7860
  434MOL0     O58463   4.316   8.462   3.841 -0.0544 -0.2612 -0.1533
  434MOL0     C58464   4.289   8.544   3.721  1.3699 -0.4590 -0.3534
  434MOL0     C58465   4.149   8.602   3.750  0.8899  0.1687 -0.0510
  434MOL0     C58466   4.181   8.728   3.824  0.3216  0.1612 -0.1293
  434MOL0     C58467   4.054   8.811   3.860 -0.0815 -0.7575  0.1569
  434MOL0     C58468   4.088   8.949   3.906  1.7227  0.0682  0.0085
  434MOL0     C58469   3.967   9.021   3.976 -0.2730  0.4322  0.1461
  434MOL0     C58470   4.025   9.141   4.065  0.4136  0.3217 -0.4811
  434MOL0     C58471   3.911   9.206   4.142  0.1952  0.1273 -1.1058
  434MOL0     N58472   3.959   9.319   4.220  0.2278  0.4348 -0.7796
  434MOL0     C58473   4.065   9.329   4.308 -0.0651 -0.3050  0.6521
  434MOL0     C58474   4.070   9.463   4.334 -0.3288  0.3514  0.7412
  434MOL0     C58475   4.169   9.545   4.415  0.0606 -1.0107 -0.6261
  434MOL0     C58476   4.151   9.506   4.564 -0.1614  0.3026  0.1449
  434MOL0     C58477   4.203   9.618   4.654 -0.4375  0.0266 -0.2893
  434MOL0     C58478   4.109   9.731   4.696 -0.0714  0.1613 -0.1622
  434MOL0     O58479   4.002   9.670   4.770 -0.1680  0.3993 -0.3681
  434MOL0     C58480   3.913   9.752   4.842  0.5170  0.3128 -1.1847
  434MOL0     C58481   3.900   9.893   4.840 -0.2184  0.7981 -0.0932
  434MOL0     C58482   3.801   9.954   4.916 -0.3874  0.4915  0.5716
  434MOL0     C58483   3.810  10.103   4.913  0.0875 -0.5324 -0.4848
  434MOL0     C58484   3.714   9.875   4.995 -0.1222  0.1089  0.3164
  434MOL0     C58485   3.599   9.929   5.074 -0.2828 -0.1859 -0.2388
  434MOL0     O58486   3.494   9.843   5.109  0.0162 -0.1662 -0.6507
  434MOL0     C58487   3.383   9.893   5.178  0.0833  0.7921  0.6565
  434MOL0     C58488   3.405   9.953   5.300  0.4100 -0.4292  0.1304
  434MOL0     C58489   3.303  10.010   5.374  0.0845  0.3817  0.7628
  434MOL0     C58490   3.169   9.990   5.321  0.8990  0.5745  0.5025
  434MOL0     O58491   3.053  10.033   5.385  0.2755 -0.5707 -0.1840
  434MOL0     C58492   3.014   9.941   5.486  0.0794 -0.0256  0.4682
  434MOL0     C58493   2.893   9.996   5.565  0.0662  0.3026  0.9155
  434MOL0     C58494   2.913  10.130   5.638  0.1184 -0.5149  0.0947
  434MOL0     C58495   2.844  10.128   5.775 -0.3804  0.0299 -0.4702
  434MOL0     C58496   2.868  10.259   5.840 -0.2404  0.2584  1.3152
  434MOL0     C58497   2.822  10.263   5.987  0.4699 -0.4847  0.1282
  434MOL0     C58498   2.849  10.407   6.047  0.2619  0.6475  0.3622
  434MOL0     C58499   2.778  10.524   5.980  0.2212 -0.3613  0.2128
  434MOL0    Cl58500   2.845  10.694   6.028 -0.0856 -0.7447 -0.2214
  434MOL0     C58501   3.145   9.932   5.195 -0.5152  0.4602  0.3194
  434MOL0     C58502   3.259   9.891   5.124 -0.2682 -0.3655  0.0929
  434MOL0     O58503   3.602  10.051   5.107  0.1534 -0.0481  0.3033
  434MOL0     C58504   3.725   9.734   4.996  0.6429 -0.6118 -0.3051
  434MOL0     C58505   3.826   9.673   4.927  0.0086 -0.1032 -0.3338
  434MOL0     N58506   3.963   9.528   4.274  0.3922  0.3527 -0.0868
  434MOL0     N58507   3.899   9.441   4.202 -0.1414  0.0155  1.1037
  434MOL0     C58508   4.523   8.372   3.738  0.0746  0.2296 -0.0082
  434MOL0     C58509   4.636   8.290   3.745 -0.3914  0.0527  0.3719
  434MOL0     C58510   5.006   8.163   3.985  0.7103 -0.4561 -0.6095
  434MOL0     C58511   5.004   8.032   3.934 -1.6928  1.0827 -0.5949
  434MOL0     C58512   5.124   7.956   3.951  0.4406  0.1344 -0.4866
  434MOL0     C58513   5.224   8.011   4.027 -0.2558  0.3269  0.3275
  434MOL0     O58514   5.321   7.927   4.065  0.2698  0.0119 -0.3275
  434MOL0     C58515   5.351   7.806   4.001 -0.0451 -0.7972 -0.2977
  434MOL0     C58516   5.485   7.758   4.036  0.9411  0.0877  0.4092
  434MOL0     C58517   5.588   7.832   3.951 -0.4039  0.8568  0.4858
  434MOL0     C58518   5.737   7.781   3.987  0.2736  0.2761 -0.3990
  434MOL0     C58519   5.842   7.870   3.948 -0.2848  0.3098  0.5197
  434MOL0     C58520   5.927   7.946   3.909  1.0720  0.3157  0.5409
  434MOL0     C58521   5.220   8.132   4.087 -0.0375 -0.2414  0.5946
  434MOL0     C58522   5.116   8.213   4.058  0.2741 -0.1990 -0.2285
  434MOL0     H58523   4.594   8.192   4.077  0.3953 -1.4859 -0.1370
  434MOL0     H58524   4.381   8.336   4.039 -0.9422 -1.8474  0.9335
  434MOL0     H58525   4.353   8.627   3.688  0.8063 -1.1378 -3.4335
  434MOL0     H58526   4.293   8.474   3.637  0.1553 -3.1648  1.6998
  434MOL0     H58527   4.094   8.624   3.658 -0.8812  0.5360  1.0496
  434MOL0     H58528   4.081   8.541   3.809  0.9110  2.1738  2.2002
  434MOL0     H58529   4.238   8.706   3.915  1.4317 -0.1681 -0.8800
  434MOL0     H58530   4.247   8.781   3.755  0.5578  0.2543  0.1669
  434MOL0     H58531   3.994   8.819   3.769  0.7346 -1.9130 -0.5112
  434MOL0     H58532   3.994   8.770   3.942 -2.1255  3.5517  1.1103
  434MOL0     H58533   4.175   8.947   3.974  0.9451 -0.2641  1.0182
  434MOL0     H58534   4.121   9.007   3.820  1.2529 -0.1781 -0.3396
  434MOL0     H58535   3.896   9.062   3.904  0.7384  2.5070  0.2310
  434MOL0     H58536   3.913   8.945   4.032 -1.6173  1.2116 -0.0656
  434MOL0     H58537   4.104   9.096   4.125  0.6377 -2.3041 -2.5506
  434MOL0     H58538   4.074   9.207   3.993  1.5404  0.3029  0.2538
  434MOL0     H58539   3.865   9.132   4.208  0.5667  0.3025 -0.6378
  434MOL0     H58540   3.837   9.245   4.073 -1.5657  0.3623  0.8218
  434MOL0     H58541   4.131   9.251   4.345 -0.8336 -1.3659 -0.1466
  434MOL0     H58542   4.273   9.520   4.389  0.7670  1.2170 -0.1516
  434MOL0     H58543   4.155   9.653   4.403 -0.9898 -1.0242  0.3357
  434MOL0     H58544   4.202   9.414   4.592 -1.7038 -0.0258  2.0314
  434MOL0     H58545   4.045   9.493   4.585  0.3048 -1.3141  1.6995
  434MOL0     H58546   4.292   9.669   4.615  0.0940 -0.7116 -0.0648
  434MOL0     H58547   4.247   9.579   4.746  2.9209  3.5295 -0.1454
  434MOL0     H58548   4.064   9.772   4.604  0.5955 -1.3669 -1.2051
  434MOL0     H58549   4.169   9.805   4.749 -1.8628 -0.5866  3.1772
  434MOL0     H58550   3.959   9.949   4.768  1.3174 -2.9003 -1.9428
  434MOL0     H58551   3.834  10.141   5.012  2.6348 -1.5885 -0.6153
  434MOL0     H58552   3.892  10.139   4.850 -0.5235  0.5865 -0.6657
  434MOL0     H58553   3.708  10.132   4.885 -0.0772 -0.0023  0.6385
  434MOL0     H58554   3.502   9.963   5.349  0.4489  3.0969 -0.3698
  434MOL0     H58555   3.315  10.065   5.467 -2.0772  1.2131  0.6025
  434MOL0     H58556   2.984   9.850   5.433 -3.3456  1.3543 -0.2110
  434MOL0     H58557   3.101   9.918   5.549  1.5947  1.5070 -0.9413
  434MOL0     H58558   2.808  10.002   5.497  1.1935  1.9151 -0.4087
  434MOL0     H58559   2.876   9.921   5.643  0.0030  0.9720  1.5578
  434MOL0     H58560   2.884  10.211   5.571  3.3419 -1.1706 -2.3275
  434MOL0     H58561   3.022  10.135   5.648  0.2329 -1.1135 -0.8316
  434MOL0     H58562   2.739  10.109   5.751  0.0734 -1.9112 -1.1750
  434MOL0     H58563   2.894  10.056   5.841 -2.1745  0.0004  0.9190
  434MOL0     H58564   2.823  10.347   5.793  2.4036  2.8563  3.2970
  434MOL0     H58565   2.973  10.289   5.840 -0.2387  1.4618 -4.4647
  434MOL0     H58566   2.718  10.231   6.000  0.8672 -0.7659  3.1783
  434MOL0     H58567   2.883  10.200   6.052  1.3559  3.0768  3.1130
  434MOL0     H58568   2.956  10.422   6.034 -0.0808  3.0101 -0.1817
  434MOL0     H58569   2.817  10.419   6.152  1.0324  0.3405  0.6354
  434MOL0     H58570   2.670  10.512   5.997 -0.0382 -0.7370 -1.5432
  434MOL0     H58571   2.788  10.523   5.871  0.8827  0.9338  0.2511
  434MOL0     H58572   3.053   9.932   5.137 -0.5861  2.1942  0.3794
  434MOL0     H58573   3.240   9.848   5.026 -0.5839  1.8557 -0.8872
  434MOL0     H58574   3.657   9.676   5.058 -2.2600 -0.5633 -3.2146
  434MOL0     H58575   3.846   9.566   4.925  6.3515  0.6642  0.9629
  434MOL0     H58576   4.511   8.423   3.643  2.8615  0.2068 -0.4476
  434MOL0     H58577   4.708   8.274   3.665 -0.4310  1.4192  0.0407
  434MOL0     H58578   4.924   7.983   3.879 -2.2453  3.6184 -2.1953
  434MOL0     H58579   5.122   7.864   3.895 -3.0312 -0.5373  0.4717
  434MOL0     H58580   5.276   7.737   4.042 -0.4127 -0.6365 -0.6913
  434MOL0     H58581   5.332   7.815   3.893 -1.4888 -3.6210 -0.3822
  434MOL0     H58582   5.497   7.651   4.018  0.5742 -0.0564  1.0110
  434MOL0     H58583   5.493   7.763   4.145 -0.8840  0.7369  0.5412
  434MOL0     H58584   5.582   7.941   3.953  1.2102  0.9627  1.1356
  434MOL0     H58585   5.570   7.808   3.846  0.0045  2.3009  0.0637
  434MOL0     H58586   5.751   7.681   3.944 -3.0426 -0.6836  0.4521
  434MOL0     H58587   5.755   7.769   4.094  0.0489 -1.8967 -0.5645
  434MOL0     H58588   6.004   8.015   3.881 -0.1193  1.9505  1.1255
  434MOL0     H58589   5.312   8.157   4.139 -0.1480 -0.9981  1.1658
  434MOL0     H58590   5.116   8.313   4.099 -1.4165 -1.1882  2.4360
  435MOL0     O58591   9.958   5.848   3.070  0.5395 -0.1423 -0.3139
  435MOL0     C58592   9.993   5.915   3.171  0.4035  0.3701  0.0794
  435MOL0     O58593   9.912   6.000   3.226 -0.0855  0.4852 -0.4432
  435MOL0     C58594   9.775   5.995   3.196 -0.4022 -0.1210 -0.0021
  435MOL0     C58595   9.717   6.110   3.134  0.1450 -0.3469  0.1070
  435MOL0     C58596   9.586   6.105   3.087 -0.2167  0.5587 -0.4247
  435MOL0     C58597   9.507   5.989   3.104  0.2745  0.1151 -0.2855
  435MOL0     O58598   9.392   5.963   3.037 -0.6348 -0.3460  0.3658
  435MOL0     C58599   9.344   6.080   2.955  0.3630 -0.9300 -0.4612
  435MOL0     C58600   9.202   6.040   2.911  0.2324  0.0603  0.1156
  435MOL0     C58601   9.116   6.149   2.836 -0.8146 -0.3332  0.6114
  435MOL0     C58602   8.974   6.086   2.828  0.1404  0.2789 -0.2480
  435MOL0     C58603   8.894   6.178   2.747 -0.8522  0.7698  0.1479
  435MOL0     C58604   8.760   6.110   2.718 -0.1858 -0.5398  0.3910
  435MOL0     C58605   8.664   6.218   2.676  0.0238  1.0560 -0.0457
  435MOL0     C58606   8.537   6.166   2.603 -0.0172  0.7682  0.1570
  435MOL0     N58607   8.473   6.048   2.665  0.6572 -0.1352  0.5883
  435MOL0     C58608   8.416   6.046   2.790 -0.2390  0.8547 -0.4194
  435MOL0     C58609   8.338   5.939   2.783  0.3046  0.8474 -1.6113
  435MOL0     C58610   8.245   5.880   2.889  0.5638  0.3951  0.2545
  435MOL0     C58611   8.124   5.971   2.895 -0.1816  0.1654  0.2101
  435MOL0     C58612   8.019   5.932   2.995 -0.7719  0.2478  0.0035
  435MOL0     C58613   7.903   6.038   2.993 -0.6579  0.1006 -0.1057
  435MOL0     O58614   7.946   6.159   3.061  0.0523  0.3962  0.2762
  435MOL0     C58615   7.853   6.240   3.115 -0.4601  0.5104 -0.3223
  435MOL0     C58616   7.875   6.284   3.248 -0.8273  0.1014 -0.8189
  435MOL0     C58617   7.788   6.375   3.304  0.3209  0.5726  0.0728
  435MOL0     C58618   7.821   6.408   3.449 -0.5637 -0.7167 -0.3076
  435MOL0     C58619   7.673   6.425   3.235 -0.3290 -0.0702  1.3191
  435MOL0     C58620   7.584   6.528   3.282 -0.7206 -0.4288 -0.3618
  435MOL0     O58621   7.531   6.610   3.189  0.2104 -0.0250  0.3245
  435MOL0     C58622   7.440   6.695   3.231  0.8941  0.3809 -0.4683
  435MOL0     C58623   7.305   6.657   3.245 -0.1849 -0.5687 -0.2449
  435MOL0     C58624   7.193   6.745   3.268 -0.6084  0.3822 -0.1952
  435MOL0     C58625   7.213   6.883   3.285 -0.0767 -0.1730  0.4308
  435MOL0     O58626   7.109   6.967   3.311  0.1358 -1.0978 -0.3766
  435MOL0     C58627   7.142   7.109   3.294  0.7977  0.5980 -0.1281
  435MOL0     C58628   7.022   7.196   3.322  0.6962  0.6906  0.0093
  435MOL0     C58629   7.040   7.322   3.242  0.0574 -0.5141 -0.0540
  435MOL0     C58630   6.934   7.417   3.287  0.4755  1.0745  0.2644
  435MOL0     C58631   6.874   7.490   3.162 -0.5254 -1.2662 -0.1183
  435MOL0     C58632   6.756   7.418   3.116 -0.4595  0.2238  0.4576
  435MOL0     C58633   6.666   7.507   3.035 -0.9626 -0.3990  0.8798
  435MOL0     C58634   6.547   7.439   2.975  0.2164 -0.2439 -0.3897
  435MOL0    Cl58635   6.398   7.451   3.081  0.0734  0.2420 -0.1082
  435MOL0     C58636   7.351   6.922   3.278 -0.5674  0.6352  0.0401
  435MOL0     C58637   7.461   6.832   3.248 -0.4639 -0.9597 -0.2511
  435MOL0     O58638   7.559   6.531   3.401  0.1549 -0.3713 -0.4947
  435MOL0     C58639   7.653   6.376   3.098  0.1932 -0.2826  0.4798
  435MOL0     C58640   7.738   6.282   3.041  0.1974 -0.0997  0.2809
  435MOL0     N58641   8.346   5.877   2.654 -0.3596  0.6573 -0.5615
  435MOL0     N58642   8.424   5.948   2.586  0.6238 -0.9324 -0.6317
  435MOL0     C58643   9.558   5.876   3.181 -0.6038 -1.0229 -0.4064
  435MOL0     C58644   9.691   5.878   3.228  0.2197  0.1215  0.6512
  435MOL0     C58645  10.132   5.897   3.221  0.3059  0.1504  0.7794
  435MOL0     C58646  10.168   5.979   3.329  0.1982  0.7557 -0.6262
  435MOL0     C58647  10.301   5.975   3.380 -0.0008  0.6391  0.5803
  435MOL0     C58648  10.387   5.880   3.327  0.3278 -0.2942 -0.9113
  435MOL0     O58649  10.512   5.873   3.382 -0.0272 -0.4577 -0.2964
  435MOL0     C58650  10.584   5.751   3.379 -0.2183  0.7419  0.5139
  435MOL0     C58651  10.677   5.728   3.503 -0.0683 -0.4311  0.9032
  435MOL0     C58652  10.598   5.741   3.635 -0.6379 -0.1018 -0.1419
  435MOL0     C58653  10.589   5.615   3.729 -0.0371  0.3277 -0.1097
  435MOL0     C58654  10.721   5.569   3.760 -0.6274  0.6633 -0.0012
  435MOL0     C58655  10.813   5.517   3.813 -0.8653  0.6378 -0.1537
  435MOL0     C58656  10.355   5.800   3.210 -0.6456 -0.2302 -0.0002
  435MOL0     C58657  10.221   5.805   3.158 -0.6149  0.3175  0.2176
  435MOL0     H58658   9.780   6.197   3.121  0.6174 -0.8277 -1.0092
  435MOL0     H58659   9.562   6.196   3.035  1.3634  1.9993  1.1894
  435MOL0     H58660   9.329   6.171   3.015 -1.0270 -1.7845  0.5506
  435MOL0     H58661   9.407   6.098   2.868 -0.5280 -0.3652 -1.0134
  435MOL0     H58662   9.211   5.958   2.840 -0.8428 -0.4411  0.5364
  435MOL0     H58663   9.142   6.005   2.996  1.2372  0.8880  1.1932
  435MOL0     H58664   9.103   6.238   2.898 -1.6388  0.8999 -1.2440
  435MOL0     H58665   9.164   6.175   2.741 -0.6273 -3.7201 -0.3460
  435MOL0     H58666   8.985   5.992   2.774 -0.8180 -0.3916  0.6921
  435MOL0     H58667   8.933   6.068   2.927 -0.8714  1.0709 -0.5064
  435MOL0     H58668   8.879   6.271   2.803 -1.8650  0.2224  0.8300
  435MOL0     H58669   8.951   6.195   2.656 -0.5076 -0.7417  0.0570
  435MOL0     H58670   8.762   6.035   2.638 -2.7003  1.2152 -1.4617
  435MOL0     H58671   8.706   6.075   2.807 -1.5369  3.6862  1.4731
  435MOL0     H58672   8.627   6.264   2.768 -1.5538  0.9647 -0.6024
  435MOL0     H58673   8.713   6.294   2.615  2.4782  1.1032  1.8196
  435MOL0     H58674   8.558   6.157   2.496  1.6393  0.2292  0.4960
  435MOL0     H58675   8.458   6.241   2.612  0.7646  1.7751 -0.9425
  435MOL0     H58676   8.435   6.103   2.881 -0.1391  1.3218 -0.7280
  435MOL0     H58677   8.205   5.781   2.865  2.2967 -0.3378  0.2003
  435MOL0     H58678   8.285   5.885   2.991 -2.6354 -1.4672  1.7506
  435MOL0     H58679   8.077   5.977   2.796  1.6403 -1.9334 -0.8697
  435MOL0     H58680   8.155   6.073   2.919  2.7585 -0.7250  0.6059
  435MOL0     H58681   8.059   5.911   3.095  0.1343 -5.0618 -1.1929
  435MOL0     H58682   7.988   5.833   2.962 -1.2288 -0.0030  1.1148
  435MOL0     H58683   7.835   5.988   3.063  2.2672 -0.0274  2.9192
  435MOL0     H58684   7.869   6.057   2.891  2.6843 -1.8647 -1.7387
  435MOL0     H58685   7.964   6.243   3.295 -1.0502 -0.8574 -1.1923
  435MOL0     H58686   7.916   6.366   3.482 -0.2024  1.2992  1.4325
  435MOL0     H58687   7.835   6.516   3.463  1.3294 -1.2946  4.0019
  435MOL0     H58688   7.735   6.360   3.497 -0.8086 -0.0231 -0.0408
  435MOL0     H58689   7.284   6.551   3.247 -1.7940 -0.2658  0.9921
  435MOL0     H58690   7.088   6.718   3.268 -0.1108 -1.8020 -1.6700
  435MOL0     H58691   7.211   7.132   3.376 -1.2024  0.3856  1.6995
  435MOL0     H58692   7.183   7.127   3.194  0.2968  1.0669 -0.2489
  435MOL0     H58693   6.935   7.140   3.289  0.3557  1.0301  0.3193
  435MOL0     H58694   7.012   7.212   3.430  2.0376 -5.0992  1.3377
  435MOL0     H58695   7.052   7.303   3.135  2.6540 -0.7190  0.2057
  435MOL0     H58696   7.140   7.360   3.268  0.5543 -1.7652 -0.0320
  435MOL0     H58697   6.858   7.363   3.343 -1.6277  1.3543 -2.1736
  435MOL0     H58698   6.980   7.491   3.354  1.2431  0.3566  0.5549
  435MOL0     H58699   6.945   7.512   3.081  0.0319  2.8920  1.2379
  435MOL0     H58700   6.838   7.587   3.197 -0.4217 -1.1675 -0.2828
  435MOL0     H58701   6.790   7.335   3.053 -1.4463  0.7568 -0.8078
  435MOL0     H58702   6.689   7.370   3.189  1.2479 -1.5925  0.9235
  435MOL0     H58703   6.722   7.552   2.952 -3.0496 -0.0012 -0.3698
  435MOL0     H58704   6.635   7.581   3.109 -2.3606 -1.1304  1.0426
  435MOL0     H58705   6.562   7.335   2.945  4.7566  0.2013 -0.3059
  435MOL0     H58706   6.512   7.490   2.885  0.4203  2.0103  0.7228
  435MOL0     H58707   7.366   7.028   3.296 -0.3293  0.2413  2.4812
  435MOL0     H58708   7.562   6.867   3.227 -1.5764  2.7627 -0.1711
  435MOL0     H58709   7.564   6.408   3.044  0.2897 -3.2268 -1.6618
  435MOL0     H58710   7.719   6.244   2.940  0.6754 -1.0157  0.5244
  435MOL0     H58711   9.504   5.783   3.194  3.8380 -3.4625  4.4718
  435MOL0     H58712   9.731   5.794   3.282 -2.3174 -2.1211 -0.7254
  435MOL0     H58713  10.098   6.060   3.348 -1.3609 -0.0082 -2.7201
  435MOL0     H58714  10.335   6.047   3.454  3.6837  0.7106 -0.9208
  435MOL0     H58715  10.518   5.664   3.376 -0.8902  1.2636 -1.4991
  435MOL0     H58716  10.642   5.759   3.286 -2.5504  0.1624 -1.0967
  435MOL0     H58717  10.751   5.808   3.504  0.9685 -1.3255 -0.5262
  435MOL0     H58718  10.738   5.637   3.504 -1.0509 -1.1424  2.8544
  435MOL0     H58719  10.498   5.783   3.615  0.0057  0.5500 -2.3014
  435MOL0     H58720  10.643   5.804   3.712 -2.5707  1.6127 -0.3032
  435MOL0     H58721  10.534   5.538   3.675  0.1064 -1.1024  1.6556
  435MOL0     H58722  10.534   5.636   3.822 -1.9702 -1.7956 -0.6733
  435MOL0     H58723  10.879   5.460   3.875 -2.6311  0.9457  2.1971
  435MOL0     H58724  10.426   5.736   3.159  0.4939  3.6113 -3.7814
  435MOL0     H58725  10.190   5.739   3.077  2.8364  0.2344 -1.1757
  436MOL0     O58726   7.527  10.701   4.047  0.4065 -0.7265 -0.0235
  436MOL0     C58727   7.585  10.761   3.960 -0.0158  0.2564  0.2286
  436MOL0     O58728   7.586  10.901   3.936  0.1456  0.1095 -0.5426
  436MOL0     C58729   7.552  10.991   4.040 -0.0191  0.2112  0.5742
  436MOL0     C58730   7.541  11.123   4.006 -0.2463 -0.2495 -0.0351
  436MOL0     C58731   7.508  11.219   4.096 -0.1054 -0.3983 -0.0805
  436MOL0     C58732   7.473  11.184   4.226 -0.0797  0.2728  0.6129
  436MOL0     O58733   7.423  11.275   4.320 -0.2598  0.0501  0.0231
  436MOL0     C58734   7.340  11.224   4.429 -0.6268  0.1975 -0.8415
  436MOL0     C58735   7.266  11.346   4.500 -0.3520  0.3487 -0.2604
  436MOL0     C58736   7.153  11.421   4.435  0.3893  0.0364 -0.2128
  436MOL0     C58737   7.062  11.485   4.554 -0.3718  0.6927  0.1331
  436MOL0     C58738   6.921  11.500   4.504 -0.2810 -0.1123  0.2286
  436MOL0     C58739   6.902  11.591   4.384 -0.0326  0.0339 -0.4350
  436MOL0     C58740   6.759  11.581   4.329 -0.3277 -0.4991 -0.0821
  436MOL0     C58741   6.704  11.712   4.247  0.0756  0.3796 -0.7844
  436MOL0     N58742   6.757  11.741   4.108 -0.3313 -0.6179  0.4386
  436MOL0     C58743   6.888  11.771   4.076  0.3377  0.6621 -0.0858
  436MOL0     C58744   6.883  11.787   3.940  0.3662  0.0424 -0.5610
  436MOL0     C58745   7.000  11.820   3.853  0.2502 -0.7693 -0.5541
  436MOL0     C58746   7.077  11.947   3.906  0.7574  0.1990 -0.6940
  436MOL0     C58747   6.984  12.058   3.960  0.1068 -0.4365  0.4021
  436MOL0     C58748   7.053  12.192   3.985  0.1945  0.4292  0.2658
  436MOL0     O58749   7.116  12.231   3.860 -0.4553  0.0316  0.2834
  436MOL0     C58750   7.186  12.347   3.848 -0.3460 -1.1827  0.4519
  436MOL0     C58751   7.222  12.385   3.717 -0.1590 -0.9579 -0.6568
  436MOL0     C58752   7.280  12.508   3.687  0.2790  0.3432  0.2999
  436MOL0     C58753   7.291  12.539   3.540  0.2690 -0.3847 -1.1732
  436MOL0     C58754   7.319  12.599   3.789  0.5645 -0.3300 -0.8634
  436MOL0     C58755   7.380  12.737   3.779  0.4186  0.1429 -0.0315
  436MOL0     O58756   7.432  12.785   3.892  0.7827 -0.6519 -0.1581
  436MOL0     C58757   7.521  12.884   3.891 -0.9198  1.3763 -0.2168
  436MOL0     C58758   7.496  12.992   3.972 -0.2329  0.7284  0.1888
  436MOL0     C58759   7.586  13.097   3.984 -0.3990  0.5461  1.0724
  436MOL0     C58760   7.706  13.087   3.918  0.1000 -0.1094 -0.4028
  436MOL0     O58761   7.792  13.189   3.951 -0.0295 -0.7245  0.2350
  436MOL0     C58762   7.929  13.184   3.896 -0.3906 -0.0171  0.5762
  436MOL0     C58763   8.011  13.313   3.933 -0.2929  0.4670  0.0974
  436MOL0     C58764   8.101  13.299   4.062  0.0516  0.0851  0.5543
  436MOL0     C58765   8.195  13.410   4.115  0.6318 -0.1103  0.5095
  436MOL0     C58766   8.276  13.352   4.234  0.3859 -0.4359  0.6723
  436MOL0     C58767   8.360  13.463   4.295 -0.3399 -0.8708 -0.2365
  436MOL0     C58768   8.482  13.423   4.375  0.1914 -0.2245  0.1913
  436MOL0     C58769   8.578  13.546   4.386 -0.0743 -0.4696  0.3773
  436MOL0    Cl58770   8.718  13.484   4.480  0.1308 -0.4119  0.0289
  436MOL0     C58771   7.741  12.970   3.837  0.2248  0.0306  0.1370
  436MOL0     C58772   7.645  12.878   3.828  1.1192  0.1308  0.1649
  436MOL0     O58773   7.402  12.780   3.668 -0.6508  0.0919 -1.0628
  436MOL0     C58774   7.282  12.558   3.920 -0.8133  0.1302 -0.1934
  436MOL0     C58775   7.217  12.433   3.949 -0.4408 -1.3057 -0.3414
  436MOL0     N58776   6.758  11.753   3.894  0.4149 -0.5237  0.1757
  436MOL0     N58777   6.678  11.741   3.998 -0.2496  0.2996 -0.3733
  436MOL0     C58778   7.495  11.055   4.268  0.0093  0.2711  0.8229
  436MOL0     C58779   7.530  10.955   4.171 -0.1105 -0.7226  0.5897
  436MOL0     C58780   7.667  10.674   3.877  0.2710  0.4209 -0.2148
  436MOL0     C58781   7.789  10.736   3.829 -0.7429  0.2432 -0.5663
  436MOL0     C58782   7.872  10.669   3.741  0.0289  0.1985  0.3835
  436MOL0     C58783   7.852  10.531   3.717 -0.2299 -0.9200  0.6636
  436MOL0     O58784   7.942  10.451   3.663  0.0463 -0.5071  0.2901
  436MOL0     C58785   7.903  10.329   3.596  0.2618  0.9787  0.6439
  436MOL0     C58786   7.946  10.215   3.690  0.3854 -0.4203  0.1726
  436MOL0     C58787   8.104  10.207   3.710  0.4595 -0.0746  0.1238
  436MOL0     C58788   8.178  10.153   3.591 -0.3423 -0.1767 -0.5879
  436MOL0     C58789   8.316  10.093   3.612 -0.0021 -0.9442 -0.0263
  436MOL0     C58790   8.423  10.039   3.633  0.5310 -0.2466  0.3600
  436MOL0     C58791   7.728  10.472   3.763 -0.9312 -0.4475 -1.1005
  436MOL0     C58792   7.632  10.542   3.838  0.3066 -1.0087 -0.2234
  436MOL0     H58793   7.561  11.151   3.903 -1.8388 -0.5649 -0.4645
  436MOL0     H58794   7.475  11.317   4.064 -1.2923 -0.7844 -0.1105
  436MOL0     H58795   7.280  11.135   4.404  3.2809 -2.3140 -2.1658
  436MOL0     H58796   7.405  11.189   4.509 -1.1929  2.4692  0.7151
  436MOL0     H58797   7.219  11.304   4.589 -2.3650  1.0533 -0.9418
  436MOL0     H58798   7.344  11.418   4.526  0.5057  0.2333 -2.2688
  436MOL0     H58799   7.207  11.495   4.375  1.9706 -2.9184 -2.6740
  436MOL0     H58800   7.096  11.350   4.375 -1.6188 -1.3968  3.0920
  436MOL0     H58801   7.047  11.414   4.635 -2.1479  2.6755  1.6646
  436MOL0     H58802   7.114  11.577   4.582 -0.9798  1.9207 -2.4097
  436MOL0     H58803   6.891  11.401   4.470 -0.6713 -0.0011  0.2425
  436MOL0     H58804   6.851  11.538   4.580 -2.3882  0.6234 -1.9497
  436MOL0     H58805   6.934  11.689   4.418 -1.8018  0.4636  0.0874
  436MOL0     H58806   6.966  11.561   4.301 -0.8352  3.4416 -2.4418
  436MOL0     H58807   6.759  11.493   4.263 -2.8230 -0.0700 -0.7765
  436MOL0     H58808   6.690  11.577   4.414  0.4236  0.0874  0.5704
  436MOL0     H58809   6.699  11.806   4.303  0.1424  0.7482 -1.3818
  436MOL0     H58810   6.598  11.692   4.228  0.0941 -0.4560 -0.0475
  436MOL0     H58811   6.965  11.776   4.152  1.9679 -1.4002 -1.4642
  436MOL0     H58812   7.066  11.733   3.842  1.7042  0.3342 -0.8402
  436MOL0     H58813   6.948  11.837   3.758 -0.5581  1.1104  0.1787
  436MOL0     H58814   7.120  11.991   3.815  0.6089 -2.3040 -2.0371
  436MOL0     H58815   7.154  11.932   3.982  0.9559 -0.6898 -1.0672
  436MOL0     H58816   6.954  12.023   4.060  1.7966 -2.9017  0.1400
  436MOL0     H58817   6.895  12.070   3.898  0.0583  0.2053  0.5859
  436MOL0     H58818   7.137  12.178   4.054  1.5810 -2.6334 -1.8138
  436MOL0     H58819   6.981  12.267   4.020  0.1793  0.3524  0.3977
  436MOL0     H58820   7.198  12.319   3.634 -1.5821 -0.1292 -0.9426
  436MOL0     H58821   7.289  12.445   3.485  1.8941 -0.1780 -1.6138
  436MOL0     H58822   7.216  12.615   3.515  1.4804  2.1831  2.1642
  436MOL0     H58823   7.385  12.590   3.519 -0.2162  1.3106  0.4122
  436MOL0     H58824   7.394  12.994   4.011 -0.4554 -0.3551 -0.3061
  436MOL0     H58825   7.576  13.180   4.054  3.1762  2.7985 -0.7821
  436MOL0     H58826   7.978  13.097   3.941 -3.2920 -2.1813 -0.1181
  436MOL0     H58827   7.915  13.184   3.788 -5.6150  2.2311  0.9255
  436MOL0     H58828   8.077  13.329   3.847 -2.5294  0.6866 -1.6888
  436MOL0     H58829   7.943  13.398   3.943 -0.1316  0.4845  1.0941
  436MOL0     H58830   8.176  13.221   4.047  1.0675  0.7523  1.9728
  436MOL0     H58831   8.028  13.269   4.137  1.6641 -1.1268  1.7050
  436MOL0     H58832   8.270  13.439   4.040  2.0124 -0.9283  1.5265
  436MOL0     H58833   8.137  13.493   4.156 -0.4966 -1.2765  1.3348
  436MOL0     H58834   8.340  13.267   4.209  1.0535  0.4152 -0.6325
  436MOL0     H58835   8.211  13.324   4.317  2.2677  0.3162  2.4740
  436MOL0     H58836   8.379  13.526   4.209 -2.4707  0.1081 -0.0608
  436MOL0     H58837   8.297  13.523   4.361  1.5501  2.2327 -1.0922
  436MOL0     H58838   8.530  13.338   4.325 -1.4975 -1.1626  0.0888
  436MOL0     H58839   8.459  13.383   4.474  2.7143  1.4057  1.5708
  436MOL0     H58840   8.531  13.619   4.451  1.9763 -0.8443  2.4106
  436MOL0     H58841   8.614  13.592   4.293  0.5852  0.8681  1.2663
  436MOL0     H58842   7.836  12.950   3.789 -0.5845 -0.3021 -1.4112
  436MOL0     H58843   7.659  12.786   3.772 -2.4496  0.0109 -0.8215
  436MOL0     H58844   7.303  12.615   4.010 -2.6057  0.3922  0.0856
  436MOL0     H58845   7.200  12.393   4.049  2.2799  0.3398  0.8908
  436MOL0     H58846   7.485  11.035   4.375  0.8802  1.4400  1.1398
  436MOL0     H58847   7.560  10.863   4.219  0.9678 -0.2932  0.7592
  436MOL0     H58848   7.823  10.837   3.850 -2.0630  0.9567 -1.7189
  436MOL0     H58849   7.960  10.717   3.699  2.3617 -1.4897  2.9666
  436MOL0     H58850   7.797  10.326   3.568  0.2308 -1.3993  0.8470
  436MOL0     H58851   7.960  10.318   3.504  0.6198 -0.2680  1.0012
  436MOL0     H58852   7.912  10.119   3.650  1.2491 -0.4287 -0.5627
  436MOL0     H58853   7.889  10.222   3.783 -1.9563 -1.9104 -1.0543
  436MOL0     H58854   8.114  10.144   3.799 -0.9235 -0.1256  0.2649
  436MOL0     H58855   8.150  10.304   3.729 -0.6944  0.8573 -1.5758
  436MOL0     H58856   8.192  10.235   3.520 -0.0088 -1.1180 -1.6401
  436MOL0     H58857   8.116  10.076   3.543 -2.7164 -0.5514  2.7233
  436MOL0     H58858   8.515   9.987   3.656 -1.2001 -2.9101  1.8295
  436MOL0     H58859   7.714  10.365   3.748  0.9866 -1.2393  1.8805
  436MOL0     H58860   7.547  10.494   3.885  0.9446  0.3626  2.5530
  437MOL0     O58861  11.228   2.231   9.644 -0.1950  0.5281  0.0928
  437MOL0     C58862  11.250   2.330   9.709 -0.6883 -0.0677  0.0502
  437MOL0     O58863  11.191   2.446   9.688  0.4035 -1.1940 -0.3113
  437MOL0     C58864  11.072   2.448   9.622 -0.1126 -0.2262  0.2631
  437MOL0     C58865  11.035   2.557   9.527 -0.0252  0.1905  0.0943
  437MOL0     C58866  10.917   2.560   9.457 -1.1734  0.3808 -0.6704
  437MOL0     C58867  10.828   2.455   9.457  0.0317 -0.6927  0.2311
  437MOL0     O58868  10.723   2.466   9.365  0.2420  0.7793  0.1806
  437MOL0     C58869  10.662   2.344   9.312 -0.5109 -0.4606  0.3608
  437MOL0     C58870  10.512   2.379   9.278 -0.5016 -0.4971 -0.6832
  437MOL0     C58871  10.425   2.268   9.220 -0.9795 -0.0440  0.6231
  437MOL0     C58872  10.275   2.285   9.246  0.5238  0.2277 -0.1291
  437MOL0     C58873  10.184   2.208   9.139  0.5284 -1.0558  0.1137
  437MOL0     C58874  10.041   2.177   9.198 -1.2369  0.0672 -0.4326
  437MOL0     C58875   9.935   2.130   9.094 -0.0216  0.7702  0.1704
  437MOL0     C58876   9.919   2.225   8.973  0.1184 -0.0405 -0.1545
  437MOL0     N58877   9.778   2.216   8.922 -0.2750  0.5105  0.0742
  437MOL0     C58878   9.733   2.307   8.829  0.8489 -0.0489 -1.1493
  437MOL0     C58879   9.618   2.258   8.770  0.3769 -0.3225 -0.2204
  437MOL0     C58880   9.536   2.329   8.669 -0.8220 -0.4493  0.0541
  437MOL0     C58881   9.393   2.311   8.702  0.6720  0.2137  0.7507
  437MOL0     C58882   9.300   2.351   8.589 -0.1102 -0.0073  0.6481
  437MOL0     C58883   9.285   2.502   8.546 -0.3468 -0.7477 -0.2603
  437MOL0     O58884   9.333   2.577   8.650  0.4310 -0.3631  0.3824
  437MOL0     C58885   9.243   2.616   8.745 -0.7584  0.4867  0.1711
  437MOL0     C58886   9.301   2.684   8.858  0.4186  0.4289 -0.5793
  437MOL0     C58887   9.228   2.704   8.979 -0.6693  0.2461 -0.2667
  437MOL0     C58888   9.311   2.751   9.099 -0.9919 -0.7630 -0.0829
  437MOL0     C58889   9.090   2.682   8.980 -0.1824 -0.5311  1.2299
  437MOL0     C58890   8.992   2.718   9.093 -0.6722  0.0773  0.8306
  437MOL0     O58891   8.865   2.674   9.071 -0.2222  0.5082  0.7028
  437MOL0     C58892   8.768   2.695   9.153 -0.2248  0.7380 -0.1086
  437MOL0     C58893   8.779   2.668   9.288  0.0726 -0.0038  0.5128
  437MOL0     C58894   8.673   2.667   9.373 -0.1259 -0.9946  0.4233
  437MOL0     C58895   8.553   2.709   9.318 -0.2174 -1.3235 -1.0340
  437MOL0     O58896   8.453   2.717   9.414  0.0751 -0.6521  0.8302
  437MOL0     C58897   8.346   2.805   9.381  0.7661  0.7005 -0.4709
  437MOL0     C58898   8.255   2.837   9.505 -0.3267  0.4462 -0.6881
  437MOL0     C58899   8.320   2.912   9.617  0.8630  1.4454 -0.4168
  437MOL0     C58900   8.220   2.952   9.733  0.3569  0.9466 -0.1792
  437MOL0     C58901   8.150   3.083   9.704  0.1343 -0.4955  0.1123
  437MOL0     C58902   8.061   3.145   9.809 -0.0470  0.1389  0.4612
  437MOL0     C58903   8.123   3.223   9.916 -0.1546 -0.3823  0.1566
  437MOL0     C58904   8.111   3.374   9.896  0.4052  0.5690 -0.2341
  437MOL0    Cl58905   8.228   3.431   9.774  0.0999  0.0089 -0.3586
  437MOL0     C58906   8.538   2.744   9.185  0.0756  0.2220 -0.3049
  437MOL0     C58907   8.646   2.738   9.105  0.1512  0.1549 -0.1196
  437MOL0     O58908   9.029   2.795   9.181 -0.0672  0.6513 -0.7515
  437MOL0     C58909   9.036   2.611   8.868 -0.1559  0.3373 -0.4226
  437MOL0     C58910   9.108   2.587   8.753  0.8411 -0.3150 -0.0668
  437MOL0     N58911   9.607   2.135   8.835 -0.5707 -0.0047  0.3658
  437MOL0     N58912   9.702   2.107   8.916 -0.8294  0.1891  0.1726
  437MOL0     C58913  10.862   2.341   9.540 -0.2728 -0.1044  0.4965
  437MOL0     C58914  10.975   2.341   9.625  0.4896  0.1924 -0.0910
  437MOL0     C58915  11.357   2.328   9.811  1.0662  0.2995  0.4310
  437MOL0     C58916  11.381   2.209   9.878 -0.6571  0.5063  0.5083
  437MOL0     C58917  11.488   2.196   9.962  0.3014 -1.0751  0.9656
  437MOL0     C58918  11.571   2.304   9.984 -0.8089  0.0245  0.0038
  437MOL0     O58919  11.686   2.300  10.063  0.6193 -0.2935  0.4156
  437MOL0     C58920  11.725   2.180  10.130  0.3684  0.1506  0.4299
  437MOL0     C58921  11.808   2.088  10.038 -0.5989  0.6102 -0.2828
  437MOL0     C58922  11.929   2.169   9.975 -0.0530 -0.0529  0.3970
  437MOL0     C58923  12.041   2.081   9.916  0.1390  0.2995  1.3041
  437MOL0     C58924  12.104   2.004  10.020  0.2474 -0.0972  0.5400
  437MOL0     C58925  12.163   1.949  10.107  0.8563  0.0466  1.0515
  437MOL0     C58926  11.554   2.415   9.908  0.6213 -0.0193 -0.6093
  437MOL0     C58927  11.440   2.437   9.833  0.5499 -0.5079  1.0751
  437MOL0     H58928  11.097   2.646   9.527 -0.7396  0.7413 -2.0091
  437MOL0     H58929  10.889   2.640   9.390  0.8559  0.1200 -1.9285
  437MOL0     H58930  10.705   2.309   9.218  0.3728 -0.1754  0.6440
  437MOL0     H58931  10.669   2.263   9.385  3.2919  2.6691  3.9740
  437MOL0     H58932  10.464   2.387   9.376 -0.8170 -3.0105 -0.5803
  437MOL0     H58933  10.513   2.473   9.222  0.8981 -1.4828 -2.4220
  437MOL0     H58934  10.442   2.274   9.112 -1.8637  0.2633  0.4981
  437MOL0     H58935  10.451   2.164   9.243 -1.2187 -0.1762  0.2958
  437MOL0     H58936  10.255   2.256   9.349  1.4666 -1.6716 -0.4387
  437MOL0     H58937  10.250   2.390   9.233 -2.0661 -0.3942 -0.8834
  437MOL0     H58938  10.175   2.260   9.043  0.9836 -0.4459  0.3918
  437MOL0     H58939  10.235   2.118   9.104  2.4822 -0.4832  1.3118
  437MOL0     H58940  10.043   2.101   9.276 -1.5076 -0.2347 -0.7147
  437MOL0     H58941  10.003   2.268   9.246  1.4413 -0.1502  2.4036
  437MOL0     H58942   9.962   2.030   9.061  0.5665  0.9415  0.1357
  437MOL0     H58943   9.833   2.134   9.135 -0.5308  2.7888 -1.1636
  437MOL0     H58944   9.991   2.194   8.897  0.9908  2.8181 -0.6231
  437MOL0     H58945   9.947   2.323   9.013 -0.2103  1.2216 -2.8243
  437MOL0     H58946   9.769   2.407   8.810 -0.9330  0.7039 -0.7575
  437MOL0     H58947   9.562   2.435   8.665  1.9012 -1.0677 -1.0065
  437MOL0     H58948   9.570   2.291   8.573 -1.1228 -0.1669 -0.1644
  437MOL0     H58949   9.375   2.378   8.787  2.1387  2.4728 -0.6265
  437MOL0     H58950   9.383   2.204   8.724 -1.0767  0.9727  4.3850
  437MOL0     H58951   9.198   2.316   8.612  0.2038 -0.5874  1.1833
  437MOL0     H58952   9.328   2.305   8.494  0.0838  0.1723  0.6201
  437MOL0     H58953   9.187   2.536   8.512  0.5696  2.2063 -0.1854
  437MOL0     H58954   9.345   2.520   8.457 -0.2464 -4.0868 -0.9965
  437MOL0     H58955   9.409   2.689   8.857  0.4127  0.8486  0.2470
  437MOL0     H58956   9.266   2.723   9.195 -0.7584  2.3621  1.0604
  437MOL0     H58957   9.412   2.711   9.090 -0.1832  1.1984 -0.3329
  437MOL0     H58958   9.328   2.859   9.099  1.5587 -1.0995 -0.1226
  437MOL0     H58959   8.875   2.642   9.330  0.3848  0.8897  0.3870
  437MOL0     H58960   8.684   2.651   9.480  1.6442  0.1040  0.4458
  437MOL0     H58961   8.396   2.899   9.354  0.2105  1.0624 -0.2641
  437MOL0     H58962   8.289   2.753   9.304  0.7054  0.2809 -0.1493
  437MOL0     H58963   8.163   2.887   9.471 -0.4377  0.7181  0.0042
  437MOL0     H58964   8.238   2.740   9.553  1.7531  0.7223  0.7586
  437MOL0     H58965   8.368   3.001   9.576  2.3533  0.0599 -1.8088
  437MOL0     H58966   8.403   2.857   9.661  0.2306 -0.4018 -1.4147
  437MOL0     H58967   8.140   2.878   9.737  1.7218 -0.6162 -0.8294
  437MOL0     H58968   8.274   2.954   9.828 -1.4062 -0.5549  0.9236
  437MOL0     H58969   8.083   3.067   9.619 -2.2679  1.9687  1.4139
  437MOL0     H58970   8.224   3.152   9.663 -0.4208 -0.4792 -0.9006
  437MOL0     H58971   7.991   3.207   9.753  1.4113  0.9637 -0.5357
  437MOL0     H58972   7.995   3.079   9.866 -1.0666  1.8356  1.3224
  437MOL0     H58973   8.229   3.206   9.937 -0.5989 -0.9611  2.2481
  437MOL0     H58974   8.076   3.198  10.012  1.1728 -3.4336  0.1292
  437MOL0     H58975   8.128   3.415   9.996 -0.0305 -3.2218  1.5773
  437MOL0     H58976   8.006   3.396   9.873 -0.3424 -0.1440  2.1786
  437MOL0     H58977   8.440   2.779   9.152 -0.4980 -1.0993 -0.0442
  437MOL0     H58978   8.626   2.771   9.004 -0.9867  2.7135  0.8659
  437MOL0     H58979   8.938   2.566   8.873 -1.0576  2.2728  0.3722
  437MOL0     H58980   9.054   2.523   8.684  0.6116 -0.9449  0.6770
  437MOL0     H58981  10.801   2.251   9.533  0.2261 -0.5449  1.6099
  437MOL0     H58982  10.999   2.264   9.698 -0.7861  1.3696  1.6403
  437MOL0     H58983  11.326   2.118   9.857 -0.7336  0.2238  1.8431
  437MOL0     H58984  11.511   2.100  10.007  2.4181 -0.1963  1.8924
  437MOL0     H58985  11.789   2.200  10.216  3.9753 -2.8190 -1.2762
  437MOL0     H58986  11.637   2.127  10.166  0.9600 -0.8650  0.4173
  437MOL0     H58987  11.752   2.046   9.953 -0.3779 -0.4899  0.0980
  437MOL0     H58988  11.859   2.009  10.094 -0.5681  1.3653  0.7864
  437MOL0     H58989  11.974   2.243  10.042  0.3515  0.7940 -0.7904
  437MOL0     H58990  11.894   2.227   9.890  0.5269  1.2589  1.0237
  437MOL0     H58991  12.107   2.142   9.854 -0.0337 -0.4549  0.3494
  437MOL0     H58992  12.003   2.008   9.844  3.1422 -0.7510  0.6494
  437MOL0     H58993  12.220   1.895  10.179  1.6273 -1.4926 -0.6172
  437MOL0     H58994  11.609   2.505   9.934 -1.9755  1.1339  1.2905
  437MOL0     H58995  11.420   2.525   9.773 -0.0366 -0.2686  1.6058
  438MOL0     O58996   1.753   1.823   8.305 -0.2699 -0.8574 -0.2541
  438MOL0     C58997   1.689   1.838   8.195 -0.1119  0.1141  0.1028
  438MOL0     O58998   1.566   1.789   8.161  0.7733 -0.1477 -1.0242
  438MOL0     C58999   1.498   1.705   8.251 -1.1881  1.0018 -0.0242
  438MOL0     C59000   1.360   1.708   8.245  0.9924 -0.4308 -0.3350
  438MOL0     C59001   1.284   1.625   8.326 -0.8240  0.2490 -0.6770
  438MOL0     C59002   1.345   1.546   8.423 -0.3281 -0.1059 -0.6833
  438MOL0     O59003   1.264   1.490   8.517  0.0019 -0.3405 -0.2163
  438MOL0     C59004   1.207   1.361   8.478 -0.3804 -0.4867  0.3527
  438MOL0     C59005   1.082   1.324   8.555  0.9349 -0.2383 -0.1759
  438MOL0     C59006   0.978   1.438   8.541 -0.6056  0.0067 -0.1129
  438MOL0     C59007   0.836   1.397   8.563 -0.3355  0.0582  0.1594
  438MOL0     C59008   0.758   1.513   8.622 -1.4199  0.0441  0.0924
  438MOL0     C59009   0.612   1.506   8.579 -0.0755 -1.1849  0.1312
  438MOL0     C59010   0.548   1.643   8.604  0.2695 -0.0193 -0.7149
  438MOL0     C59011   0.405   1.657   8.528 -0.7938  0.5153  0.2312
  438MOL0     N59012   0.329   1.763   8.601 -0.0428  0.5130 -0.0382
  438MOL0     C59013   0.290   1.884   8.543 -1.2675  0.0720 -0.8303
  438MOL0     C59014   0.217   1.950   8.634  0.1028  0.4637 -0.3829
  438MOL0     C59015   0.153   2.079   8.619 -0.5984  0.3697  0.3301
  438MOL0     C59016   0.017   2.069   8.561  0.0495  0.4051 -0.4968
  438MOL0     C59017  -0.043   2.213   8.566  0.2013 -0.3293  0.5214
  438MOL0     C59018  -0.183   2.224   8.495 -0.2641  0.5410  0.9649
  438MOL0     O59019  -0.255   2.327   8.556  0.0681 -0.7057 -0.4979
  438MOL0     C59020  -0.375   2.379   8.505 -0.7494  0.1472  0.4749
  438MOL0     C59021  -0.443   2.320   8.399 -0.3158  0.7036 -0.2530
  438MOL0     C59022  -0.572   2.366   8.363 -0.8377 -0.4442  0.6088
  438MOL0     C59023  -0.647   2.272   8.270  0.0802  0.1371  0.1673
  438MOL0     C59024  -0.624   2.482   8.419  0.1070 -1.2501 -0.5056
  438MOL0     C59025  -0.765   2.535   8.396 -0.3293 -0.3261  1.3018
  438MOL0     O59026  -0.802   2.653   8.463  0.0533  0.5872  0.0929
  438MOL0     C59027  -0.926   2.702   8.453  0.3315 -0.7177 -0.3745
  438MOL0     C59028  -1.044   2.631   8.473  0.5722 -0.7511 -0.4638
  438MOL0     C59029  -1.162   2.695   8.442  0.7235  0.2376 -0.4256
  438MOL0     C59030  -1.177   2.825   8.386  0.2918 -0.2171  0.3056
  438MOL0     O59031  -1.304   2.865   8.368 -0.5362 -0.7228 -0.1916
  438MOL0     C59032  -1.327   3.010   8.351 -0.1573  0.7755  0.2543
  438MOL0     C59033  -1.470   3.044   8.373 -0.8075  0.1296  0.1645
  438MOL0     C59034  -1.497   3.083   8.514  0.2560  0.6794 -0.5133
  438MOL0     C59035  -1.648   3.114   8.543 -0.0405 -0.0977  1.0645
  438MOL0     C59036  -1.708   3.217   8.444  0.0288 -0.9827  0.0316
  438MOL0     C59037  -1.851   3.262   8.481 -0.3195 -0.6737 -1.6819
  438MOL0     C59038  -1.925   3.327   8.361 -0.2210  0.5044 -0.4047
  438MOL0     C59039  -2.070   3.347   8.393  0.6485 -0.8830 -0.1951
  438MOL0    Cl59040  -2.140   3.433   8.249  0.4761  0.2604  0.1265
  438MOL0     C59041  -1.062   2.901   8.365  1.1112  0.1496 -0.6659
  438MOL0     C59042  -0.938   2.830   8.398  0.9265 -0.8932  0.5287
  438MOL0     O59043  -0.829   2.488   8.304 -0.4196  1.2459  0.6156
  438MOL0     C59044  -0.550   2.549   8.517 -0.6750  0.2195  0.8491
  438MOL0     C59045  -0.424   2.496   8.565  0.7831  0.1178  0.4224
  438MOL0     N59046   0.217   1.873   8.756  0.4608  0.3226  0.7613
  438MOL0     N59047   0.282   1.764   8.729 -0.4358 -0.3068 -0.1073
  438MOL0     C59048   1.485   1.537   8.428 -1.2157  0.1998 -0.0650
  438MOL0     C59049   1.563   1.611   8.338  0.3613  0.5048  0.6675
  438MOL0     C59050   1.751   1.923   8.092 -0.2882  0.4799 -0.2564
  438MOL0     C59051   1.704   1.939   7.958  0.1126  0.1024  0.6868
  438MOL0     C59052   1.774   2.007   7.859  0.3758 -1.7964 -1.6419
  438MOL0     C59053   1.894   2.063   7.887  0.7523 -0.5499  0.3208
  438MOL0     O59054   1.959   2.125   7.788 -0.4854 -0.1743  0.9271
  438MOL0     C59055   2.083   2.067   7.764  0.4033 -0.1289 -0.4233
  438MOL0     C59056   2.158   2.127   7.639 -0.6035 -0.1695 -0.8758
  438MOL0     C59057   2.184   2.281   7.674 -0.2033 -0.8952  0.3029
  438MOL0     C59058   2.241   2.361   7.550  0.2366  0.5941 -0.5842
  438MOL0     C59059   2.377   2.317   7.525  0.5782 -0.4227 -0.1599
  438MOL0     C59060   2.479   2.271   7.487  0.7288  0.5533  0.1231
  438MOL0     C59061   1.940   2.055   8.019  0.1181 -0.4073  0.6559
  438MOL0     C59062   1.866   1.989   8.118  0.3545 -0.2473 -0.4416
  438MOL0     H59063   1.305   1.778   8.183 -0.0412 -0.1236  0.9047
  438MOL0     H59064   1.177   1.641   8.328 -0.6256  1.6349  0.9071
  438MOL0     H59065   1.170   1.365   8.376 -1.1681 -0.3694  0.6359
  438MOL0     H59066   1.291   1.292   8.489  2.5879  2.6256 -0.7471
  438MOL0     H59067   1.038   1.237   8.505  2.0553 -1.0702  0.2366
  438MOL0     H59068   1.105   1.308   8.661 -0.6870 -2.0707 -0.0368
  438MOL0     H59069   1.022   1.517   8.604 -0.2466 -0.1125 -0.2155
  438MOL0     H59070   0.984   1.479   8.440 -1.6466 -3.2429 -1.6287
  438MOL0     H59071   0.801   1.364   8.464 -0.8351 -1.6681  0.8752
  438MOL0     H59072   0.833   1.307   8.625 -0.6667  0.9803  1.5297
  438MOL0     H59073   0.769   1.514   8.731 -2.3130 -2.7390  0.2773
  438MOL0     H59074   0.798   1.606   8.579 -2.6910  0.0253 -1.2169
  438MOL0     H59075   0.610   1.503   8.470  0.2226 -1.5115  0.1317
  438MOL0     H59076   0.558   1.424   8.627  0.2691 -1.8444 -0.5884
  438MOL0     H59077   0.530   1.673   8.707 -0.8098  2.0522 -1.4339
  438MOL0     H59078   0.613   1.717   8.556 -1.9730  1.8224 -1.0964
  438MOL0     H59079   0.350   1.563   8.520 -0.3587  0.3954 -2.0683
  438MOL0     H59080   0.430   1.687   8.426  2.0782 -3.0270 -0.3397
  438MOL0     H59081   0.308   1.928   8.445 -1.9002 -0.3123 -1.1216
  438MOL0     H59082   0.125   2.120   8.716 -4.1590 -0.1896 -0.3480
  438MOL0     H59083   0.217   2.151   8.567 -0.1842  1.2030  1.9348
  438MOL0     H59084  -0.048   1.994   8.606  0.5252 -1.2208 -2.3439
  438MOL0     H59085   0.036   2.026   8.462  2.2107 -1.5162  0.6507
  438MOL0     H59086   0.030   2.288   8.536  0.4972 -1.5501 -2.0459
  438MOL0     H59087  -0.072   2.236   8.669  0.4491 -1.2887  0.8186
  438MOL0     H59088  -0.243   2.134   8.510 -2.6866  1.2438 -3.1801
  438MOL0     H59089  -0.175   2.247   8.389 -0.7865  0.0584  0.8216
  438MOL0     H59090  -0.412   2.234   8.340 -0.1481  0.7521 -0.2365
  438MOL0     H59091  -0.694   2.326   8.187 -1.7910  0.5616  1.4289
  438MOL0     H59092  -0.583   2.200   8.217  0.6249 -0.3998  1.5023
  438MOL0     H59093  -0.724   2.214   8.322 -0.8720 -0.6405 -1.9631
  438MOL0     H59094  -1.040   2.533   8.518  3.6546 -1.2182 -1.4557
  438MOL0     H59095  -1.253   2.635   8.452  0.1956  0.5297 -2.8668
  438MOL0     H59096  -1.260   3.066   8.417  1.1756 -1.2718  0.7440
  438MOL0     H59097  -1.308   3.027   8.244 -3.3351 -2.0571 -0.9473
  438MOL0     H59098  -1.480   3.140   8.321  1.3419  0.6165  0.5544
  438MOL0     H59099  -1.533   2.965   8.330  0.4856 -0.3186 -0.9872
  438MOL0     H59100  -1.432   3.169   8.532  2.9452 -0.6847 -2.7437
  438MOL0     H59101  -1.473   3.000   8.581  0.6338 -0.8503 -2.4452
  438MOL0     H59102  -1.694   3.016   8.525 -1.6848  0.3115  2.7684
  438MOL0     H59103  -1.673   3.136   8.647 -3.5219 -0.6097  0.4701
  438MOL0     H59104  -1.715   3.158   8.352  2.4737  0.5150 -1.2441
  438MOL0     H59105  -1.644   3.305   8.429 -1.2022  0.1487  1.2037
  438MOL0     H59106  -1.921   3.187   8.518 -1.9193  1.6969  0.4057
  438MOL0     H59107  -1.852   3.338   8.559 -2.9168 -0.1259 -2.1579
  438MOL0     H59108  -1.906   3.265   8.273  2.2216  2.3077 -1.2722
  438MOL0     H59109  -1.875   3.423   8.345  2.8633 -0.5860  1.7398
  438MOL0     H59110  -2.083   3.398   8.488  1.0861  0.0194 -0.6069
  438MOL0     H59111  -2.126   3.253   8.403 -3.8192  1.5716  0.3884
  438MOL0     H59112  -1.068   2.994   8.310 -2.7226 -0.0929 -0.9762
  438MOL0     H59113  -0.844   2.879   8.372  0.9926 -0.8101  0.9033
  438MOL0     H59114  -0.565   2.649   8.557  0.4232  0.9847 -0.5334
  438MOL0     H59115  -0.370   2.543   8.647 -0.1822  1.8152  0.1431
  438MOL0     H59116   1.523   1.459   8.495 -0.7201 -1.3185 -2.0236
  438MOL0     H59117   1.668   1.587   8.328 -0.3619 -2.0654 -2.7472
  438MOL0     H59118   1.616   1.885   7.926  0.9272  0.4932 -2.5565
  438MOL0     H59119   1.728   2.020   7.761 -3.4995 -1.7398  0.0146
  438MOL0     H59120   2.152   2.092   7.844  2.4584 -2.0645 -1.4605
  438MOL0     H59121   2.071   1.959   7.745 -0.2833  0.1603 -1.7659
  438MOL0     H59122   2.105   2.120   7.544 -1.3202  1.9919 -0.7014
  438MOL0     H59123   2.258   2.083   7.635 -0.7755 -0.4575 -2.6416
  438MOL0     H59124   2.238   2.300   7.767 -3.0982  2.2440  1.5699
  438MOL0     H59125   2.087   2.328   7.694  1.3911  1.6537  2.7041
  438MOL0     H59126   2.256   2.468   7.566 -0.0927  0.3264  2.0818
  438MOL0     H59127   2.184   2.345   7.458  0.8783 -1.5102 -0.6602
  438MOL0     H59128   2.570   2.222   7.458 -0.7597 -1.9543 -0.6745
  438MOL0     H59129   2.037   2.102   8.037  0.6052 -0.7195 -0.9390
  438MOL0     H59130   1.906   2.000   8.218  2.9830  0.2681 -1.4874
  439MOL0     O59131   6.055   3.833   4.888  0.2419 -0.5432  0.9128
  439MOL0     C59132   6.077   3.744   4.975  0.2043 -0.7326  0.3836
  439MOL0     O59133   5.991   3.698   5.063 -0.0441  0.5523 -0.0737
  439MOL0     C59134   5.857   3.718   5.042 -0.1430  0.5808  0.0089
  439MOL0     C59135   5.781   3.757   5.148 -0.4457 -0.5310  0.0479
  439MOL0     C59136   5.643   3.784   5.134 -0.8638  0.1043  0.1943
  439MOL0     C59137   5.580   3.741   5.021 -0.7063 -0.0918  0.2818
  439MOL0     O59138   5.444   3.747   5.002  0.6309 -0.3904 -0.0461
  439MOL0     C59139   5.350   3.764   5.117  0.0099 -0.2056  1.3415
  439MOL0     C59140   5.199   3.783   5.099  0.4697 -0.1811  0.0071
  439MOL0     C59141   5.157   3.910   5.020 -0.4403  0.6316  0.2244
  439MOL0     C59142   5.002   3.943   5.018 -0.7194 -0.0720  0.1219
  439MOL0     C59143   4.986   4.078   4.945  0.0654  0.1647 -0.0376
  439MOL0     C59144   4.844   4.092   4.892 -0.2688  0.8755 -0.5162
  439MOL0     C59145   4.741   4.068   5.004  0.3062 -0.1548 -0.3873
  439MOL0     C59146   4.600   4.103   4.960  1.1967 -0.7511  0.3110
  439MOL0     N59147   4.544   4.014   4.856 -0.5124 -0.1852  0.5153
  439MOL0     C59148   4.527   4.064   4.725  0.6664  0.2142 -0.3122
  439MOL0     C59149   4.447   3.971   4.661 -0.2173  0.3875  0.0179
  439MOL0     C59150   4.390   3.968   4.525 -0.0047 -0.0426  0.3934
  439MOL0     C59151   4.360   3.822   4.490 -0.3657  0.2155  0.1612
  439MOL0     C59152   4.307   3.777   4.348  0.1230 -0.5566 -0.9745
  439MOL0     C59153   4.185   3.863   4.299  0.0160  0.7175 -0.1871
  439MOL0     O59154   4.063   3.822   4.367 -0.0074 -0.0558  0.4489
  439MOL0     C59155   3.949   3.879   4.315 -0.1644 -0.1369 -0.4969
  439MOL0     C59156   3.937   4.007   4.260 -0.4793  0.7152 -0.3608
  439MOL0     C59157   3.813   4.056   4.233  1.0113  0.2241 -0.1767
  439MOL0     C59158   3.811   4.203   4.183  0.2720  0.1499  0.1034
  439MOL0     C59159   3.692   3.969   4.241 -0.2299 -0.0810 -0.2948
  439MOL0     C59160   3.551   4.013   4.216 -0.0623  0.1965 -0.6109
  439MOL0     O59161   3.462   3.943   4.287  0.1802  0.0453  0.4401
  439MOL0     C59162   3.339   3.996   4.293  0.0360  0.3436 -0.5055
  439MOL0     C59163   3.233   3.914   4.261 -0.8362  0.0103  0.0992
  439MOL0     C59164   3.098   3.964   4.268  0.3375  0.1854  1.1927
  439MOL0     C59165   3.059   4.093   4.304 -0.2222  0.6873 -0.1241
  439MOL0     O59166   2.931   4.144   4.311 -0.1116 -0.0305 -0.2454
  439MOL0     C59167   2.842   4.062   4.388  0.7888 -0.2610  0.1358
  439MOL0     C59168   2.737   4.160   4.427  0.7148  0.5839 -0.7811
  439MOL0     C59169   2.632   4.176   4.313  0.2062 -0.6629  0.5762
  439MOL0     C59170   2.524   4.278   4.359  0.0915  0.0989 -1.0534
  439MOL0     C59171   2.397   4.282   4.268  0.4717  0.7182  0.0151
  439MOL0     C59172   2.304   4.391   4.308 -0.2002  0.4217  0.7868
  439MOL0     C59173   2.168   4.364   4.245  0.5327 -0.3364 -0.2337
  439MOL0     C59174   2.080   4.469   4.309 -0.7319  0.4109  0.4775
  439MOL0    Cl59175   1.911   4.439   4.252  0.2257 -0.2951  0.3664
  439MOL0     C59176   3.169   4.163   4.361  0.7305 -1.6197  0.3403
  439MOL0     C59177   3.301   4.119   4.346  0.3009 -0.1969  0.4461
  439MOL0     O59178   3.526   4.105   4.139  0.1068  0.1118 -0.2658
  439MOL0     C59179   3.711   3.837   4.278 -0.4827  0.2003 -0.4045
  439MOL0     C59180   3.836   3.799   4.314 -0.3576  0.0401 -0.2788
  439MOL0     N59181   4.413   3.874   4.756  0.0875  0.5269 -1.4006
  439MOL0     N59182   4.480   3.900   4.865  0.3385  0.3623 -0.1415
  439MOL0     C59183   5.658   3.678   4.927 -0.1601 -0.3763  0.0689
  439MOL0     C59184   5.796   3.673   4.927  0.5666 -0.0716  0.4832
  439MOL0     C59185   6.207   3.696   4.982 -0.0943  0.1439 -0.0714
  439MOL0     C59186   6.244   3.566   5.041 -0.0703 -0.0228 -0.4978
  439MOL0     C59187   6.374   3.516   5.044 -0.4959  0.2075  0.1067
  439MOL0     C59188   6.474   3.581   4.972  0.0349  0.6690 -0.2218
  439MOL0     O59189   6.599   3.540   4.963  0.1456  0.2363 -0.0092
  439MOL0     C59190   6.649   3.468   5.071 -0.4540  0.0352  0.2671
  439MOL0     C59191   6.805   3.490   5.068  0.5959 -0.6617  0.6174
  439MOL0     C59192   6.861   3.630   5.105  0.7602  0.7031 -0.5543
  439MOL0     C59193   6.789   3.700   5.225  0.2851  0.3992  0.5696
  439MOL0     C59194   6.783   3.620   5.343  0.5757 -0.2771  1.0204
  439MOL0     C59195   6.802   3.530   5.419 -0.2849  0.3750  0.2698
  439MOL0     C59196   6.441   3.694   4.906  0.1913  0.1939  0.3825
  439MOL0     C59197   6.314   3.755   4.912  0.1315  0.0876  0.2986
  439MOL0     H59198   5.837   3.780   5.238 -0.2550 -1.3241  0.1365
  439MOL0     H59199   5.589   3.834   5.214 -2.3439 -0.6046 -0.3414
  439MOL0     H59200   5.354   3.674   5.179 -1.0220 -2.4290 -1.6190
  439MOL0     H59201   5.387   3.853   5.170  0.0234  1.1592 -0.8438
  439MOL0     H59202   5.159   3.705   5.034 -0.8587  0.3029  0.2081
  439MOL0     H59203   5.153   3.782   5.198  0.3824 -0.3730 -0.0342
  439MOL0     H59204   5.205   3.989   5.078 -2.7478  0.6054  2.3748
  439MOL0     H59205   5.190   3.901   4.916 -0.0230  0.2623  0.3893
  439MOL0     H59206   4.948   3.864   4.967  0.1484 -0.7480  0.2160
  439MOL0     H59207   4.964   3.957   5.120  2.1907  0.7056  1.2050
  439MOL0     H59208   5.016   4.156   5.016 -0.9225 -1.6901  2.5757
  439MOL0     H59209   5.052   4.083   4.858 -3.4290  0.7170 -2.8607
  439MOL0     H59210   4.846   4.198   4.866  1.8790  1.0728  0.3196
  439MOL0     H59211   4.820   4.030   4.805 -1.7391 -1.9338  1.7103
  439MOL0     H59212   4.739   3.960   5.021  2.6968 -0.1906 -0.0999
  439MOL0     H59213   4.756   4.116   5.101  0.7133 -3.8785  1.5833
  439MOL0     H59214   4.607   4.208   4.932  2.0580 -0.3560  1.8693
  439MOL0     H59215   4.532   4.109   5.046 -1.6063  2.9087 -1.8686
  439MOL0     H59216   4.575   4.148   4.675 -2.0238  0.0908 -3.4801
  439MOL0     H59217   4.298   4.027   4.514  0.0037  0.3147  2.0373
  439MOL0     H59218   4.463   3.994   4.447  0.3784  0.8850  1.0456
  439MOL0     H59219   4.295   3.779   4.567  0.2592  1.8521  1.6616
  439MOL0     H59220   4.456   3.773   4.510 -0.9345 -1.1315 -0.2666
  439MOL0     H59221   4.281   3.670   4.354  2.2144 -1.0915 -0.6454
  439MOL0     H59222   4.382   3.778   4.268  1.3397  0.6925  0.1437
  439MOL0     H59223   4.181   3.833   4.194 -1.3890  2.9835 -0.8526
  439MOL0     H59224   4.195   3.971   4.290 -1.8768  1.1014  1.6173
  439MOL0     H59225   4.024   4.071   4.249 -0.9182  1.2332 -0.9325
  439MOL0     H59226   3.901   4.265   4.190  1.1107 -1.1637  1.5572
  439MOL0     H59227   3.796   4.188   4.075  2.9650 -6.4664  0.1998
  439MOL0     H59228   3.722   4.254   4.219 -1.8387 -1.8715 -1.8934
  439MOL0     H59229   3.247   3.809   4.239 -0.1423  0.5938 -2.5919
  439MOL0     H59230   3.028   3.882   4.250  1.4175 -0.7020  0.8995
  439MOL0     H59231   2.788   3.994   4.322 -0.0113  0.8810 -0.4122
  439MOL0     H59232   2.888   4.014   4.475  0.7778  1.9205  1.4032
  439MOL0     H59233   2.705   4.114   4.522  1.5382  0.4880 -0.5441
  439MOL0     H59234   2.788   4.255   4.443  1.5164  0.8515 -4.2469
  439MOL0     H59235   2.588   4.078   4.291  4.6430 -2.7643 -0.0746
  439MOL0     H59236   2.685   4.206   4.222 -1.4141  2.0741  0.4198
  439MOL0     H59237   2.494   4.255   4.462 -0.2816  2.7056 -0.5193
  439MOL0     H59238   2.559   4.382   4.364 -1.2554  0.5889 -1.3831
  439MOL0     H59239   2.350   4.184   4.277 -0.1689  0.9861 -0.3711
  439MOL0     H59240   2.433   4.284   4.164 -2.5278 -3.4979 -1.3661
  439MOL0     H59241   2.294   4.393   4.417 -1.0555 -2.2732  0.8410
  439MOL0     H59242   2.348   4.487   4.281 -1.7438  0.8757 -0.2532
  439MOL0     H59243   2.128   4.268   4.278  1.0639  0.1906  2.1125
  439MOL0     H59244   2.172   4.371   4.136  0.6213 -0.6774 -0.2562
  439MOL0     H59245   2.119   4.565   4.273  5.2510 -2.0625 -0.9453
  439MOL0     H59246   2.084   4.460   4.417  2.4999  1.7424  0.5841
  439MOL0     H59247   3.149   4.258   4.410 -0.6330 -2.9060  2.4596
  439MOL0     H59248   3.371   4.191   4.389 -0.6596 -0.1495  2.0086
  439MOL0     H59249   3.629   3.767   4.278  0.1399 -0.6890  3.0228
  439MOL0     H59250   3.857   3.697   4.346  3.9765  0.3278 -1.5269
  439MOL0     H59251   5.613   3.642   4.834  1.8586  0.9629 -1.5220
  439MOL0     H59252   5.852   3.630   4.845  1.2659  0.0873  0.8666
  439MOL0     H59253   6.176   3.495   5.087  4.5306 -3.0558  2.6325
  439MOL0     H59254   6.387   3.418   5.089 -0.8462  0.9733  1.9568
  439MOL0     H59255   6.616   3.507   5.167  0.1961  3.4052 -0.7556
  439MOL0     H59256   6.626   3.361   5.066  0.2702 -0.1149 -0.1056
  439MOL0     H59257   6.820   3.473   4.961 -2.9645  0.1449 -0.1426
  439MOL0     H59258   6.858   3.415   5.128 -0.7818 -0.3176  2.3449
  439MOL0     H59259   6.862   3.684   5.010  1.2535  0.2946 -0.7853
  439MOL0     H59260   6.962   3.614   5.143  0.4217 -1.7220 -0.5534
  439MOL0     H59261   6.692   3.736   5.191  1.3755  1.0230 -2.1964
  439MOL0     H59262   6.836   3.797   5.246 -0.6654  1.2839 -1.1094
  439MOL0     H59263   6.822   3.453   5.490  0.9689  1.3425  1.0222
  439MOL0     H59264   6.527   3.735   4.854 -0.2506  0.4318 -0.1742
  439MOL0     H59265   6.306   3.853   4.865  0.2068  0.5551  1.2331
  440MOL0     O59266  10.207   7.650   5.900  0.1691 -0.2391  0.0452
  440MOL0     C59267  10.238   7.648   6.021  0.8118 -0.2751 -1.1352
  440MOL0     O59268  10.172   7.693   6.123  0.2909 -0.2392 -0.0422
  440MOL0     C59269  10.055   7.761   6.095  0.0067  0.3971 -0.1510
  440MOL0     C59270  10.048   7.897   6.107 -0.0435  0.9572 -0.0382
  440MOL0     C59271   9.932   7.967   6.085 -0.1880  0.3400 -0.5381
  440MOL0     C59272   9.813   7.903   6.054  0.3967  0.7040 -0.5043
  440MOL0     O59273   9.694   7.954   6.008 -0.1230 -0.1635  0.0452
  440MOL0     C59274   9.636   8.052   6.091  0.2789 -0.0549 -0.1670
  440MOL0     C59275   9.487   8.076   6.063  0.3174 -0.2212  0.9814
  440MOL0     C59276   9.388   8.008   6.166  0.2314  0.6867  0.0887
  440MOL0     C59277   9.253   8.077   6.138 -0.6330  0.6361 -0.1104
  440MOL0     C59278   9.131   8.028   6.228 -0.1990  0.4779  0.3506
  440MOL0     C59279   9.059   7.906   6.168 -0.5915  1.3076  0.2331
  440MOL0     C59280   8.926   7.878   6.238  0.5468  0.2053 -0.6546
  440MOL0     C59281   8.854   7.747   6.181 -0.2298  0.4310  0.1688
  440MOL0     N59282   8.709   7.731   6.222 -0.3839 -0.0379 -0.3694
  440MOL0     C59283   8.675   7.657   6.330  0.4088  0.2351 -0.7585
  440MOL0     C59284   8.539   7.670   6.345  0.2266  0.1338  0.6457
  440MOL0     C59285   8.456   7.603   6.449  0.2071  0.1067  0.4306
  440MOL0     C59286   8.307   7.661   6.449  0.1612 -0.0822  0.6811
  440MOL0     C59287   8.211   7.595   6.548 -0.2970  0.1764 -0.5686
  440MOL0     C59288   8.072   7.664   6.533 -0.3491 -0.1769  0.2489
  440MOL0     O59289   7.972   7.588   6.604 -0.7584  0.3162  0.1368
  440MOL0     C59290   7.854   7.649   6.629 -0.4307 -0.7665 -0.7411
  440MOL0     C59291   7.763   7.574   6.700  0.4924 -0.6258 -0.6355
  440MOL0     C59292   7.634   7.617   6.721  0.0811  0.3437 -0.3130
  440MOL0     C59293   7.540   7.523   6.780  0.1343  0.3580  0.2440
  440MOL0     C59294   7.584   7.746   6.685 -0.0726 -1.1743  0.5390
  440MOL0     C59295   7.444   7.795   6.687 -0.7731  0.1021 -0.0215
  440MOL0     O59296   7.415   7.900   6.602  0.3461 -0.0229  0.0477
  440MOL0     C59297   7.290   7.967   6.617 -0.6320  0.3833  0.0377
  440MOL0     C59298   7.180   7.910   6.550  0.1023 -0.5083  0.2238
  440MOL0     C59299   7.044   7.966   6.567 -1.4388  0.0085 -0.4530
  440MOL0     C59300   7.034   8.090   6.640 -0.5923 -0.7156  0.1474
  440MOL0     O59301   6.915   8.160   6.658  0.2795 -0.2819 -0.1360
  440MOL0     C59302   6.785   8.103   6.650  1.1318  0.6607  1.0738
  440MOL0     C59303   6.685   8.219   6.666  0.1320 -0.0573  1.0149
  440MOL0     C59304   6.680   8.257   6.815  0.1854  0.1185 -0.4018
  440MOL0     C59305   6.605   8.160   6.903  0.8094 -0.5174  0.1146
  440MOL0     C59306   6.583   8.230   7.040 -0.1956 -0.7350  0.3580
  440MOL0     C59307   6.457   8.318   7.061 -0.1920 -0.2542 -0.1267
  440MOL0     C59308   6.449   8.382   7.200 -0.1975 -0.8684 -0.5963
  440MOL0     C59309   6.308   8.396   7.248 -1.2398 -0.1351 -0.1965
  440MOL0    Cl59310   6.326   8.507   7.393  0.0862 -0.0871 -0.3425
  440MOL0     C59311   7.155   8.155   6.683  0.1834  0.6210  0.3547
  440MOL0     C59312   7.278   8.094   6.665 -0.4712 -0.4337 -0.3182
  440MOL0     O59313   7.379   7.768   6.784 -1.1767  0.9430 -0.2331
  440MOL0     C59314   7.676   7.822   6.612  0.3250  0.2898  0.3973
  440MOL0     C59315   7.808   7.781   6.586 -0.4358 -0.3365  0.3903
  440MOL0     N59316   8.497   7.756   6.248 -0.8950 -0.1523  0.2640
  440MOL0     N59317   8.602   7.798   6.176 -0.2094 -0.0808  0.1880
  440MOL0     C59318   9.807   7.765   6.062  0.3452 -0.3355 -0.4607
  440MOL0     C59319   9.930   7.694   6.080 -0.7963 -0.8402  0.4395
  440MOL0     C59320  10.372   7.586   6.042 -0.8433 -0.2523 -0.0549
  440MOL0     C59321  10.434   7.583   6.167 -0.4696  0.7889  0.2015
  440MOL0     C59322  10.546   7.509   6.185 -0.7509  0.0860 -0.3796
  440MOL0     C59323  10.622   7.457   6.079  1.0006  0.0372  0.3211
  440MOL0     O59324  10.727   7.372   6.112  0.3386  0.8370  0.7881
  440MOL0     C59325  10.813   7.331   6.005  0.0848  0.4122 -0.1341
  440MOL0     C59326  10.923   7.251   6.062  0.0628 -0.0972 -0.1724
  440MOL0     C59327  11.026   7.211   5.958 -0.3179 -0.1074 -0.2793
  440MOL0     C59328  11.135   7.117   6.024  0.2573  0.1196 -0.1747
  440MOL0     C59329  11.237   7.187   6.109  1.0640 -0.1846 -0.4815
  440MOL0     C59330  11.319   7.250   6.179 -0.9400  0.3281  0.0348
  440MOL0     C59331  10.574   7.478   5.949  0.1852 -0.2128 -0.2159
  440MOL0     C59332  10.445   7.536   5.929 -0.4719  1.0597 -0.2226
  440MOL0     H59333  10.137   7.955   6.133  1.3389 -1.8302  1.9090
  440MOL0     H59334   9.934   8.075   6.096 -2.1228  0.1655  2.4693
  440MOL0     H59335   9.641   8.013   6.193 -1.9296  0.9844  0.3874
  440MOL0     H59336   9.693   8.145   6.079  0.9683 -0.5441 -0.8091
  440MOL0     H59337   9.464   8.183   6.059  1.7320  0.0703 -0.6216
  440MOL0     H59338   9.474   8.045   5.959  3.0441  1.4884  0.0369
  440MOL0     H59339   9.375   7.900   6.158  0.1740  0.5356  1.8773
  440MOL0     H59340   9.422   8.037   6.266 -1.6006  2.4828  0.2436
  440MOL0     H59341   9.267   8.184   6.157 -1.4599  0.6729  0.3471
  440MOL0     H59342   9.230   8.062   6.032  0.0980  1.4112 -0.3844
  440MOL0     H59343   9.162   8.018   6.332  1.6448  0.7959 -0.1326
  440MOL0     H59344   9.055   8.106   6.230  0.0028  0.8423 -2.3928
  440MOL0     H59345   9.030   7.918   6.064  1.5066 -4.3012 -1.3642
  440MOL0     H59346   9.121   7.816   6.178 -1.8958  0.3091 -0.4797
  440MOL0     H59347   8.945   7.866   6.345 -0.3238  2.4907 -0.1705
  440MOL0     H59348   8.852   7.959   6.235  0.2139  0.0366  1.5072
  440MOL0     H59349   8.914   7.661   6.214  0.7530  0.9590 -0.2039
  440MOL0     H59350   8.862   7.748   6.072  1.1504 -2.0007  0.1694
  440MOL0     H59351   8.736   7.596   6.397 -0.9591  1.0042  1.3042
  440MOL0     H59352   8.456   7.494   6.437 -1.3222 -0.0110  1.2726
  440MOL0     H59353   8.507   7.618   6.544 -0.4490 -0.7108  0.9221
  440MOL0     H59354   8.264   7.658   6.348  1.0439 -3.3598  0.3025
  440MOL0     H59355   8.318   7.766   6.480  1.4323  0.2222 -0.6768
  440MOL0     H59356   8.249   7.611   6.650 -2.5424  1.5293  0.1372
  440MOL0     H59357   8.194   7.488   6.535  1.6443 -0.5902  2.0983
  440MOL0     H59358   8.042   7.650   6.429 -0.9076 -3.2824  0.7298
  440MOL0     H59359   8.078   7.768   6.565 -0.3709  0.3735 -1.4536
  440MOL0     H59360   7.790   7.472   6.724 -0.7149 -1.5302 -2.8928
  440MOL0     H59361   7.582   7.426   6.808 -0.0758 -0.6199 -2.5165
  440MOL0     H59362   7.487   7.570   6.863 -0.3759  0.9851 -0.4191
  440MOL0     H59363   7.466   7.504   6.702 -0.6279 -0.1815  1.0827
  440MOL0     H59364   7.211   7.823   6.493  3.0515  0.6913 -0.1699
  440MOL0     H59365   6.954   7.919   6.528 -1.2902 -0.4579 -0.2479
  440MOL0     H59366   6.775   8.052   6.553  0.0539 -1.3478  2.1877
  440MOL0     H59367   6.767   8.031   6.729  0.9303  0.8016  1.1581
  440MOL0     H59368   6.717   8.308   6.612 -0.1313 -0.8654 -0.5229
  440MOL0     H59369   6.590   8.191   6.618  1.3346 -0.2197 -1.3810
  440MOL0     H59370   6.632   8.354   6.828  1.7954  0.9638 -0.6564
  440MOL0     H59371   6.775   8.272   6.866 -0.0037 -0.6219  0.1958
  440MOL0     H59372   6.502   8.151   6.868 -0.1279  1.7493  2.0502
  440MOL0     H59373   6.647   8.059   6.910 -0.6386 -1.0217  2.4699
  440MOL0     H59374   6.666   8.296   7.067  1.0769 -1.3902 -1.7171
  440MOL0     H59375   6.582   8.153   7.117  2.1039 -0.2107  0.9803
  440MOL0     H59376   6.459   8.403   6.992 -0.4995 -0.7392 -0.7390
  440MOL0     H59377   6.369   8.256   7.045  0.0860 -0.4733 -0.8295
  440MOL0     H59378   6.503   8.478   7.201 -2.0405  0.4014 -4.4515
  440MOL0     H59379   6.500   8.316   7.271 -3.0750 -2.0884  0.4741
  440MOL0     H59380   6.274   8.295   7.271 -1.1327  0.8242  5.8229
  440MOL0     H59381   6.246   8.451   7.176  0.3934 -1.1781 -2.5283
  440MOL0     H59382   7.144   8.258   6.717 -0.8062  0.1573  1.4753
  440MOL0     H59383   7.366   8.148   6.697  1.0426 -2.0138 -1.5699
  440MOL0     H59384   7.655   7.922   6.575  2.9426  0.4859 -0.8457
  440MOL0     H59385   7.873   7.837   6.520  0.6807 -2.2592 -0.2305
  440MOL0     H59386   9.710   7.720   6.043  1.2280 -2.9352  0.7170
  440MOL0     H59387   9.936   7.585   6.081 -1.4918 -0.9176 -0.9017
  440MOL0     H59388  10.375   7.612   6.254 -1.8979  1.2125 -0.8811
  440MOL0     H59389  10.587   7.495   6.284  1.6591 -2.3817 -1.5927
  440MOL0     H59390  10.760   7.271   5.930  1.0643  0.4392 -0.8615
  440MOL0     H59391  10.853   7.419   5.955 -0.3397 -0.2726 -1.7381
  440MOL0     H59392  10.883   7.167   6.119  1.9291  0.2544  1.8286
  440MOL0     H59393  10.975   7.319   6.131 -0.2298 -0.9566  0.9281
  440MOL0     H59394  11.085   7.299   5.929  2.0163 -1.5799 -0.2914
  440MOL0     H59395  10.985   7.163   5.869  0.1233  0.6048 -0.8819
  440MOL0     H59396  11.184   7.056   5.947 -1.3323 -0.1317 -1.0234
  440MOL0     H59397  11.079   7.042   6.080 -0.2797 -0.8366 -1.9003
  440MOL0     H59398  11.392   7.305   6.234  0.5513  0.8546 -2.3346
  440MOL0     H59399  10.637   7.466   5.862 -1.4920 -0.2398 -1.4943
  440MOL0     H59400  10.409   7.551   5.827 -3.2917  2.3250  0.8558
  441MOL0     O59401   7.705   6.670   9.170  0.6797 -0.4431 -0.6037
  441MOL0     C59402   7.745   6.587   9.096 -0.1515  0.6577  0.1440
  441MOL0     O59403   7.667   6.516   9.000 -0.0445  0.5067  0.0421
  441MOL0     C59404   7.531   6.537   8.989  0.1414  0.2838 -0.3831
  441MOL0     C59405   7.454   6.424   8.947 -0.7063 -0.6022  0.1215
  441MOL0     C59406   7.315   6.427   8.947 -0.0506 -0.2436 -1.0718
  441MOL0     C59407   7.241   6.541   8.986 -0.5510  0.7745 -0.3679
  441MOL0     O59408   7.113   6.548   9.002 -0.0212 -0.0107 -0.0813
  441MOL0     C59409   7.035   6.442   8.951 -0.0640 -0.1110  0.1426
  441MOL0     C59410   6.888   6.472   8.951  0.2703 -0.1889 -0.5448
  441MOL0     C59411   6.866   6.597   8.849  1.1107 -0.0299 -0.8354
  441MOL0     C59412   6.719   6.654   8.870  0.3554 -0.3136  0.0651
  441MOL0     C59413   6.711   6.776   8.777 -0.2967 -1.3733  0.5473
  441MOL0     C59414   6.567   6.833   8.775  0.0507 -0.8656  0.3890
  441MOL0     C59415   6.562   6.984   8.756 -0.1155 -0.7999 -0.7620
  441MOL0     C59416   6.612   7.062   8.878  0.4773 -0.9981  0.2200
  441MOL0     N59417   6.576   6.996   9.005  0.4015 -1.2772 -0.7235
  441MOL0     C59418   6.474   7.042   9.086 -0.0759  0.2991 -0.1830
  441MOL0     C59419   6.480   6.976   9.202  0.4405  0.4216  0.0237
  441MOL0     C59420   6.380   6.973   9.311  0.1045  0.3989  0.5205
  441MOL0     C59421   6.419   6.921   9.453 -0.3073  0.4083  0.6168
  441MOL0     C59422   6.526   7.018   9.506  0.1764 -0.4512 -0.3421
  441MOL0     C59423   6.559   6.958   9.644 -0.2993  0.0762 -0.3997
  441MOL0     O59424   6.621   6.824   9.627 -0.1741 -0.4927 -0.0360
  441MOL0     C59425   6.759   6.819   9.601 -0.2291 -0.4165  0.4871
  441MOL0     C59426   6.793   6.775   9.482  0.0472  0.5805  1.0118
  441MOL0     C59427   6.928   6.750   9.451 -0.0130 -0.2711 -0.5327
  441MOL0     C59428   6.955   6.705   9.307 -0.0478 -0.0841 -0.0551
  441MOL0     C59429   7.024   6.773   9.551 -0.2647 -0.1653  0.7287
  441MOL0     C59430   7.168   6.746   9.525  0.2198 -0.7524 -0.1714
  441MOL0     O59431   7.250   6.820   9.607 -0.1097  0.2669  0.2595
  441MOL0     C59432   7.383   6.783   9.605  0.2194 -0.5840  0.0207
  441MOL0     C59433   7.465   6.795   9.491 -0.5166  0.0769  0.1520
  441MOL0     C59434   7.603   6.760   9.499 -0.4361 -0.7259  0.0216
  441MOL0     C59435   7.658   6.713   9.617 -0.2855 -0.4117 -0.2867
  441MOL0     O59436   7.791   6.687   9.627  0.3647 -0.0650 -0.2527
  441MOL0     C59437   7.829   6.722   9.762  0.0303 -0.4808  0.7079
  441MOL0     C59438   7.982   6.724   9.763 -0.3208  0.0959 -0.0009
  441MOL0     C59439   8.027   6.746   9.909  0.4724  0.5352 -0.8519
  441MOL0     C59440   8.178   6.740   9.931  0.4631  0.2732 -0.0708
  441MOL0     C59441   8.244   6.606   9.891 -0.2579  0.8134 -0.5999
  441MOL0     C59442   8.353   6.579   9.997  0.3852  0.2132 -0.2769
  441MOL0     C59443   8.448   6.460   9.970 -0.1209 -0.3152  0.6171
  441MOL0     C59444   8.598   6.473  10.022  0.1788  0.7821 -0.1963
  441MOL0    Cl59445   8.615   6.512  10.194 -0.4197 -0.4065 -0.2690
  441MOL0     C59446   7.572   6.703   9.730  0.3304  0.0486 -0.1406
  441MOL0     C59447   7.440   6.738   9.722  0.3162 -0.6912  0.6770
  441MOL0     O59448   7.200   6.660   9.444  0.1278 -0.5718  0.6549
  441MOL0     C59449   6.973   6.821   9.681  0.3323  0.3783  0.6631
  441MOL0     C59450   6.842   6.840   9.706 -0.3453 -0.5481 -0.9000
  441MOL0     N59451   6.598   6.901   9.204  0.2046  0.3243  0.1062
  441MOL0     N59452   6.662   6.926   9.092 -0.3786  0.2027  0.6150
  441MOL0     C59453   7.318   6.655   9.009 -1.3066  0.7471 -0.3044
  441MOL0     C59454   7.464   6.653   9.005  0.4514  0.8556 -0.2288
  441MOL0     C59455   7.878   6.542   9.118  0.8375 -0.7415  0.2098
  441MOL0     C59456   7.937   6.417   9.074 -0.0688 -0.1543 -0.3220
  441MOL0     C59457   8.072   6.386   9.107  0.5460 -0.5368  0.7238
  441MOL0     C59458   8.157   6.472   9.164  0.6952  0.1229 -0.3189
  441MOL0     O59459   8.285   6.436   9.168 -0.8516  0.1929 -0.5988
  441MOL0     C59460   8.368   6.505   9.259 -0.5204  0.0775 -0.2247
  441MOL0     C59461   8.506   6.441   9.253 -0.1452 -0.2473  0.5663
  441MOL0     C59462   8.582   6.465   9.120  0.1653 -0.4621  0.6097
  441MOL0     C59463   8.600   6.609   9.093 -0.1194  0.6916  0.4407
  441MOL0     C59464   8.687   6.623   8.984  0.1720  1.3707  1.1452
  441MOL0     C59465   8.765   6.623   8.886 -0.3177  0.7479  0.4022
  441MOL0     C59466   8.108   6.594   9.196 -0.4789 -0.3654 -0.5133
  441MOL0     C59467   7.974   6.632   9.178 -0.2510 -0.2225 -1.2536
  441MOL0     H59468   7.508   6.330   8.935 -0.7748 -0.6266  0.0049
  441MOL0     H59469   7.256   6.336   8.935 -0.3844 -0.3325  0.9073
  441MOL0     H59470   7.071   6.420   8.849  2.3281 -0.5168  1.0089
  441MOL0     H59471   7.060   6.354   9.012  3.3758  0.6197  0.0188
  441MOL0     H59472   6.829   6.393   8.902 -0.2003 -2.0549  2.7415
  441MOL0     H59473   6.847   6.496   9.049 -3.3110  2.1773 -2.3842
  441MOL0     H59474   6.939   6.671   8.881  1.3110 -0.8955  0.8195
  441MOL0     H59475   6.890   6.563   8.748 -0.0029  0.2829 -1.2150
  441MOL0     H59476   6.643   6.580   8.845  0.1800 -0.0414 -0.2153
  441MOL0     H59477   6.706   6.684   8.974  1.8024 -0.5726  0.3475
  441MOL0     H59478   6.774   6.863   8.799 -3.4241  1.9492 -2.2235
  441MOL0     H59479   6.743   6.739   8.679  3.3437  0.8430  0.6884
  441MOL0     H59480   6.525   6.781   8.689  0.6547  0.0558 -0.4941
  441MOL0     H59481   6.504   6.806   8.860  1.4440  1.5001  2.3357
  441MOL0     H59482   6.621   7.021   8.671 -2.1390  1.4381 -1.2945
  441MOL0     H59483   6.464   7.024   8.732  1.0909  2.9515 -0.1106
  441MOL0     H59484   6.569   7.163   8.873 -3.0749 -2.3519  0.0240
  441MOL0     H59485   6.721   7.061   8.872  0.5634 -1.7418  1.6180
  441MOL0     H59486   6.388   7.097   9.049 -2.4270 -2.0286  1.4320
  441MOL0     H59487   6.331   7.070   9.314 -2.6137 -0.8540 -0.1514
  441MOL0     H59488   6.305   6.898   9.283 -0.0319  0.6191  0.2963
  441MOL0     H59489   6.463   6.823   9.432  1.1940  1.1526  0.0646
  441MOL0     H59490   6.332   6.914   9.518 -1.6448  0.0957 -1.1456
  441MOL0     H59491   6.480   7.116   9.523 -1.7660 -1.4961  0.6242
  441MOL0     H59492   6.613   7.028   9.440  1.0119 -2.2684  0.4240
  441MOL0     H59493   6.475   6.958   9.713 -0.4297 -3.3593 -0.3698
  441MOL0     H59494   6.640   7.017   9.688  2.5964 -2.8324 -1.4103
  441MOL0     H59495   6.718   6.750   9.408  1.2796 -0.8954  0.1905
  441MOL0     H59496   6.987   6.601   9.303 -0.0305 -0.0959  0.3051
  441MOL0     H59497   6.869   6.720   9.241 -0.4610 -1.9158  0.0340
  441MOL0     H59498   7.043   6.758   9.270 -0.9849  0.3354 -1.7947
  441MOL0     H59499   7.425   6.840   9.401 -0.5252  0.6865  0.4525
  441MOL0     H59500   7.671   6.787   9.418 -1.7991 -0.9300 -1.2456
  441MOL0     H59501   7.795   6.824   9.781 -1.6096 -1.1460  1.6153
  441MOL0     H59502   7.795   6.651   9.838 -1.5025 -1.7784 -1.0833
  441MOL0     H59503   8.011   6.622   9.736  0.3588  0.2856 -0.0203
  441MOL0     H59504   8.035   6.799   9.703 -0.7723  2.1805  2.0312
  441MOL0     H59505   7.985   6.676   9.982  4.8570 -0.1343  1.3570
  441MOL0     H59506   7.985   6.840   9.945 -0.1039 -1.1655  3.5564
  441MOL0     H59507   8.216   6.826   9.876  1.2625 -0.0208  0.0045
  441MOL0     H59508   8.197   6.771  10.034 -3.6262 -0.3547  1.0312
  441MOL0     H59509   8.286   6.608   9.791  0.9789 -0.4138 -0.1248
  441MOL0     H59510   8.162   6.534   9.896  0.6232 -0.2219 -0.7895
  441MOL0     H59511   8.408   6.673  10.007 -1.5699  1.2937  1.2390
  441MOL0     H59512   8.306   6.555  10.093  2.2341  0.7923  0.8157
  441MOL0     H59513   8.443   6.430   9.865 -1.7883 -2.4323  1.2300
  441MOL0     H59514   8.413   6.375  10.029 -0.9385  1.9965  3.7222
  441MOL0     H59515   8.652   6.539   9.954  0.3669  0.5021 -0.3237
  441MOL0     H59516   8.644   6.374  10.007 -0.1052  1.0493 -3.7297
  441MOL0     H59517   7.599   6.680   9.832  0.2399 -2.3888 -0.5987
  441MOL0     H59518   7.393   6.743   9.819 -1.4173 -3.0755  0.0424
  441MOL0     H59519   7.039   6.839   9.765 -0.4323 -0.2381  1.4187
  441MOL0     H59520   6.803   6.890   9.794 -2.4509  0.7932 -2.4954
  441MOL0     H59521   7.265   6.743   9.045 -2.5984  0.6651 -1.8929
  441MOL0     H59522   7.521   6.744   9.021 -0.8430  1.3427  1.9895
  441MOL0     H59523   7.870   6.341   9.037  0.0975 -1.6514  2.2293
  441MOL0     H59524   8.115   6.296   9.062  1.5174  1.3375 -2.4495
  441MOL0     H59525   8.372   6.610   9.230 -3.4831  0.8514  1.7704
  441MOL0     H59526   8.312   6.502   9.353  0.5994 -0.6967  0.4457
  441MOL0     H59527   8.506   6.333   9.272  3.6609 -0.4089  0.3677
  441MOL0     H59528   8.564   6.488   9.333  1.9152  1.7770 -1.9325
  441MOL0     H59529   8.521   6.415   9.044 -1.3292 -0.2297  1.5974
  441MOL0     H59530   8.679   6.416   9.120 -0.5567 -1.9394  0.5976
  441MOL0     H59531   8.646   6.661   9.177 -0.1626  0.1281  0.8109
  441MOL0     H59532   8.510   6.668   9.071  1.3329  3.6166  1.7443
  441MOL0     H59533   8.839   6.620   8.808  0.2493  0.6964  0.9307
  441MOL0     H59534   8.177   6.665   9.240 -1.0427 -0.7126  0.9776
  441MOL0     H59535   7.955   6.735   9.210  1.1249  0.3274 -2.1223
  442MOL0     O59536   2.201   5.115   6.868 -0.4104  0.2169  0.5412
  442MOL0     C59537   2.302   5.183   6.864 -0.1919  0.2344 -0.0260
  442MOL0     O59538   2.303   5.320   6.869 -0.5646  0.9176 -0.7248
  442MOL0     C59539   2.189   5.398   6.862 -0.5728  0.5197  0.2010
  442MOL0     C59540   2.214   5.535   6.845 -0.4001  1.2758  0.4750
  442MOL0     C59541   2.115   5.628   6.844  0.1065  0.0301  0.8035
  442MOL0     C59542   1.983   5.592   6.850 -0.4549  0.5647 -1.0824
  442MOL0     O59543   1.886   5.694   6.846  0.0788  0.2233  0.2930
  442MOL0     C59544   1.751   5.654   6.861 -0.3177  0.6682 -0.1719
  442MOL0     C59545   1.669   5.777   6.893  0.6601 -0.0328  0.1190
  442MOL0     C59546   1.707   5.824   7.032  0.3539  1.3461  0.6900
  442MOL0     C59547   1.631   5.754   7.143  0.5309  0.8151 -0.1124
  442MOL0     C59548   1.637   5.828   7.276  0.5187 -0.5074 -0.3200
  442MOL0     C59549   1.519   5.919   7.313 -0.1588 -0.2992  0.2344
  442MOL0     C59550   1.525   6.056   7.234  0.2448 -0.4067 -0.2211
  442MOL0     C59551   1.449   6.068   7.100 -0.0654 -0.1734 -0.2800
  442MOL0     N59552   1.303   6.053   7.120  0.0032 -0.1660 -0.4695
  442MOL0     C59553   1.221   5.954   7.082  0.5906 -0.3651 -0.0597
  442MOL0     C59554   1.103   5.969   7.148 -0.8517 -0.2412  0.9416
  442MOL0     C59555   0.980   5.889   7.135  0.0199  0.0062  0.7432
  442MOL0     C59556   0.893   5.950   7.029 -0.0604  0.1046  0.0710
  442MOL0     C59557   0.776   5.860   6.985 -0.1604  0.1948  0.0774
  442MOL0     C59558   0.698   5.922   6.876 -0.7604  0.5210 -0.6634
  442MOL0     O59559   0.565   5.872   6.876 -0.3794  0.1915  0.2266
  442MOL0     C59560   0.503   5.864   6.758 -0.3408  0.0784 -0.0557
  442MOL0     C59561   0.384   5.785   6.759  0.4555  0.1579 -0.0202
  442MOL0     C59562   0.302   5.783   6.648 -1.1106  0.4086  0.3717
  442MOL0     C59563   0.179   5.697   6.657 -0.3181  0.6042 -0.2379
  442MOL0     C59564   0.336   5.853   6.529 -0.4274  0.2307  0.4630
  442MOL0     C59565   0.262   5.841   6.400  0.4104  0.4511  0.4150
  442MOL0     O59566   0.283   5.935   6.299  0.8369  0.7760 -0.6431
  442MOL0     C59567   0.210   5.924   6.182  0.2076 -0.3669 -0.6060
  442MOL0     C59568   0.109   6.004   6.155  0.3975 -0.5629  0.6273
  442MOL0     C59569   0.046   5.999   6.036  0.3287  0.2558  0.4993
  442MOL0     C59570   0.068   5.903   5.939  0.6531  0.0939  0.5792
  442MOL0     O59571  -0.003   5.915   5.825  0.4458  0.4188  0.1514
  442MOL0     C59572   0.072   5.920   5.704  0.0764 -0.0036  0.4747
  442MOL0     C59573  -0.027   5.909   5.587  0.8277  0.0348  0.6043
  442MOL0     C59574  -0.097   6.040   5.534 -1.0390  0.2924 -0.0792
  442MOL0     C59575   0.016   6.137   5.474 -0.0714  0.2494 -0.1864
  442MOL0     C59576  -0.007   6.202   5.340 -0.2302 -0.8804 -0.2502
  442MOL0     C59577  -0.142   6.275   5.322 -0.4671 -0.1967  0.1221
  442MOL0     C59578  -0.136   6.345   5.188 -0.3336 -0.2322  0.0393
  442MOL0     C59579  -0.274   6.386   5.133 -0.7426  0.8370  0.0476
  442MOL0    Cl59580  -0.363   6.479   5.261  0.2397 -0.1452  0.8081
  442MOL0     C59581   0.170   5.810   5.962  0.0120  1.3900 -0.4991
  442MOL0     C59582   0.239   5.819   6.087  0.3671 -0.0732  0.3484
  442MOL0     O59583   0.178   5.752   6.387 -0.8404 -0.5793 -0.2708
  442MOL0     C59584   0.459   5.924   6.524 -0.9341 -0.5448  0.3513
  442MOL0     C59585   0.546   5.928   6.636  0.1729 -0.2546 -1.0240
  442MOL0     N59586   1.110   6.084   7.221  0.0023 -0.2474  0.9867
  442MOL0     N59587   1.232   6.129   7.206  0.0823  0.8554 -1.1896
  442MOL0     C59588   1.956   5.454   6.853  0.8822  0.0034  0.2514
  442MOL0     C59589   2.054   5.355   6.856  0.0140  0.3037  0.6041
  442MOL0     C59590   2.433   5.115   6.858 -0.7256  0.7276 -0.2154
  442MOL0     C59591   2.439   4.966   6.840 -0.3550 -0.0356 -0.6149
  442MOL0     C59592   2.559   4.903   6.807  0.2233 -0.8961  0.0287
  442MOL0     C59593   2.683   4.972   6.815 -0.4633  0.2047 -1.0622
  442MOL0     O59594   2.801   4.904   6.782 -0.1593 -0.4092 -0.1134
  442MOL0     C59595   2.921   4.980   6.778 -0.2748  0.1428 -0.3781
  442MOL0     C59596   3.034   4.877   6.766 -0.9687  0.0113  0.5443
  442MOL0     C59597   3.038   4.792   6.902 -0.1516  0.0017 -0.3056
  442MOL0     C59598   3.145   4.685   6.889  0.4612  0.1695 -0.2713
  442MOL0     C59599   3.270   4.754   6.899 -0.2835 -0.2174 -0.7383
  442MOL0     C59600   3.381   4.807   6.914  0.9477 -0.4564  0.1777
  442MOL0     C59601   2.679   5.114   6.846  0.5120  0.3142  0.6671
  442MOL0     C59602   2.559   5.182   6.853  1.0937 -0.2352  0.0139
  442MOL0     H59603   2.319   5.554   6.829  0.1781 -0.2762  2.0218
  442MOL0     H59604   2.133   5.735   6.831  1.2328 -0.2015  0.3386
  442MOL0     H59605   1.705   5.600   6.777 -0.0980  1.0955 -0.5687
  442MOL0     H59606   1.738   5.590   6.949 -0.8199  0.1830 -0.5913
  442MOL0     H59607   1.705   5.855   6.824 -1.8426  0.4831 -0.6793
  442MOL0     H59608   1.563   5.754   6.884  0.6118  0.9434 -3.7089
  442MOL0     H59609   1.812   5.803   7.055  0.0140 -3.2429 -0.8258
  442MOL0     H59610   1.694   5.932   7.040 -0.4527  1.2325  1.0066
  442MOL0     H59611   1.526   5.738   7.116  0.9470 -1.3339 -0.6014
  442MOL0     H59612   1.664   5.652   7.163 -2.2910 -0.3647 -1.0015
  442MOL0     H59613   1.645   5.755   7.358 -0.4849  2.2650  2.4704
  442MOL0     H59614   1.730   5.884   7.279  1.0767 -1.2523 -2.2984
  442MOL0     H59615   1.427   5.865   7.285 -0.7157  2.1156 -3.2071
  442MOL0     H59616   1.521   5.945   7.419 -0.5489 -0.9318  0.4093
  442MOL0     H59617   1.485   6.133   7.301 -1.7618 -1.1279 -0.5080
  442MOL0     H59618   1.626   6.081   7.202  0.8388  1.6683  2.8942
  442MOL0     H59619   1.485   5.999   7.023  0.9893  1.4804 -1.3245
  442MOL0     H59620   1.478   6.169   7.072 -1.5007  0.8604  1.7644
  442MOL0     H59621   1.235   5.870   7.015 -1.3253 -1.2691  0.5934
  442MOL0     H59622   1.021   5.790   7.114 -0.7119  0.1258 -1.5576
  442MOL0     H59623   0.926   5.886   7.230 -2.9061  0.3752 -0.7936
  442MOL0     H59624   0.957   5.971   6.943 -0.9493  0.8057 -0.4279
  442MOL0     H59625   0.868   6.055   7.044  1.8954  0.8773 -1.5558
  442MOL0     H59626   0.701   5.839   7.063 -1.7633 -0.2990 -1.5136
  442MOL0     H59627   0.816   5.761   6.961  2.0169  0.3644  2.5761
  442MOL0     H59628   0.761   5.890   6.792  1.6064 -0.7241  1.4312
  442MOL0     H59629   0.697   6.030   6.887  2.1997  0.7219 -1.5842
  442MOL0     H59630   0.353   5.747   6.855 -0.3336 -1.4047 -0.8516
  442MOL0     H59631   0.088   5.739   6.613 -2.7022 -1.0852  2.6961
  442MOL0     H59632   0.197   5.595   6.623 -0.3510  0.9792 -1.4156
  442MOL0     H59633   0.149   5.679   6.761  0.8744  1.1380  0.2099
  442MOL0     H59634   0.079   6.070   6.235  3.2223  1.5873  0.0545
  442MOL0     H59635  -0.034   6.072   6.024  1.0779  0.7996 -1.8287
  442MOL0     H59636   0.140   6.006   5.700  1.5541 -1.1012  0.9423
  442MOL0     H59637   0.129   5.826   5.701 -0.1456 -0.1245  0.0524
  442MOL0     H59638   0.020   5.866   5.498 -2.8633 -3.1518 -0.0562
  442MOL0     H59639  -0.108   5.848   5.629 -1.6961  3.3068  0.9046
  442MOL0     H59640  -0.142   6.096   5.616  0.6125 -0.3889  1.3567
  442MOL0     H59641  -0.175   6.011   5.463 -1.3946 -3.5580  1.6066
  442MOL0     H59642   0.016   6.223   5.542 -0.2459 -0.0184  0.1535
  442MOL0     H59643   0.110   6.082   5.471  0.2499  0.5789  2.3357
  442MOL0     H59644   0.013   6.126   5.264  4.3108  0.0816 -0.2956
  442MOL0     H59645   0.069   6.281   5.344  2.3984 -3.1853 -0.9833
  442MOL0     H59646  -0.216   6.196   5.307  2.0316 -2.1727 -2.8380
  442MOL0     H59647  -0.167   6.330   5.413 -0.2907  0.0850 -0.0001
  442MOL0     H59648  -0.082   6.288   5.111  1.7224  0.1947  1.1015
  442MOL0     H59649  -0.083   6.437   5.213 -2.6334  0.9681  0.7573
  442MOL0     H59650  -0.321   6.288   5.121  1.4271 -0.4452  1.2283
  442MOL0     H59651  -0.270   6.445   5.042 -1.2924  1.1137  0.1983
  442MOL0     H59652   0.204   5.738   5.888 -1.5123  1.3127 -1.1540
  442MOL0     H59653   0.319   5.751   6.114  1.6437  1.8143  1.5238
  442MOL0     H59654   0.471   5.989   6.438  0.2088  0.7527  1.4393
  442MOL0     H59655   0.640   5.982   6.625  0.0443  1.1096  2.9384
  442MOL0     H59656   1.856   5.414   6.848  0.3976  1.0884  0.8641
  442MOL0     H59657   2.021   5.252   6.858 -0.2466  0.3840  0.4038
  442MOL0     H59658   2.351   4.905   6.820  0.6846 -2.1372  0.8013
  442MOL0     H59659   2.548   4.806   6.759 -2.3030 -0.4695 -0.3788
  442MOL0     H59660   2.934   5.062   6.707  1.2313 -1.2685 -1.7969
  442MOL0     H59661   2.928   5.031   6.875 -4.9000  2.8271 -1.1621
  442MOL0     H59662   3.126   4.935   6.757 -0.2015 -1.3952 -1.1637
  442MOL0     H59663   3.026   4.813   6.678  3.0207  1.6633 -1.2895
  442MOL0     H59664   2.942   4.741   6.911  0.4864 -1.1269  0.3652
  442MOL0     H59665   3.052   4.851   6.992 -0.8679  1.6924 -1.2594
  442MOL0     H59666   3.132   4.635   6.793 -0.0425 -3.9092  1.7094
  442MOL0     H59667   3.132   4.615   6.972  2.4419 -1.4606 -1.2481
  442MOL0     H59668   3.477   4.853   6.929  1.2425 -1.0076 -0.0067
  442MOL0     H59669   2.777   5.161   6.840  0.8504 -0.4180  0.3220
  442MOL0     H59670   2.557   5.287   6.880  0.7383 -0.8467  2.5688
  443MOL0     O59671  10.831   8.565  10.735 -0.4752 -0.1171  0.2503
  443MOL0     C59672  10.813   8.647  10.646  0.6832 -0.0709  0.2612
  443MOL0     O59673  10.871   8.648  10.524 -0.0970 -0.7395  0.4905
  443MOL0     C59674  10.987   8.574  10.508  0.3401 -0.1396 -0.0766
  443MOL0     C59675  11.000   8.480  10.403  0.0963 -0.9483 -0.3949
  443MOL0     C59676  11.121   8.415  10.380 -0.1281  0.2802 -1.3777
  443MOL0     C59677  11.235   8.448  10.456 -0.3465  0.0941 -0.2734
  443MOL0     O59678  11.360   8.405  10.429  0.5904 -0.5254 -0.1486
  443MOL0     C59679  11.405   8.402  10.293 -0.3501 -0.0613  1.1016
  443MOL0     C59680  11.549   8.440  10.302 -0.3509 -0.6514 -0.2843
  443MOL0     C59681  11.616   8.329  10.382 -0.2201  0.2722 -1.0268
  443MOL0     C59682  11.772   8.337  10.371 -0.3192 -0.5522 -0.0542
  443MOL0     C59683  11.849   8.221  10.430 -0.0594  0.2494  0.1427
  443MOL0     C59684  11.872   8.248  10.579  0.6796 -0.4779 -1.1898
  443MOL0     C59685  11.938   8.124  10.647 -0.3234 -0.2361  1.1015
  443MOL0     C59686  11.989   8.143  10.787  0.3871  0.2883 -0.1074
  443MOL0     N59687  12.060   8.024  10.834  0.1272 -0.0021  0.6189
  443MOL0     C59688  12.196   8.040  10.868  0.2422 -0.5209  0.1822
  443MOL0     C59689  12.238   7.921  10.907 -0.1742  0.2899  0.3932
  443MOL0     C59690  12.377   7.898  10.970 -0.1373  0.1354 -0.8558
  443MOL0     C59691  12.364   7.931  11.119  0.0045 -0.4660 -0.0953
  443MOL0     C59692  12.498   7.924  11.198  0.4344 -0.1614  0.2616
  443MOL0     C59693  12.590   7.803  11.156 -0.2768 -0.3371 -0.3859
  443MOL0     O59694  12.540   7.672  11.155 -0.2895  0.7958 -0.4124
  443MOL0     C59695  12.505   7.625  11.273  0.4439 -0.0663 -0.1317
  443MOL0     C59696  12.605   7.622  11.376 -0.0799  0.5134  0.1830
  443MOL0     C59697  12.573   7.562  11.504 -0.5382  0.1578  1.0734
  443MOL0     C59698  12.696   7.549  11.594  0.1246  0.0211 -0.3582
  443MOL0     C59699  12.448   7.518  11.531 -0.0536 -0.7505 -0.7965
  443MOL0     C59700  12.403   7.473  11.666  0.1872 -0.1516  0.2210
  443MOL0     O59701  12.275   7.428  11.667 -1.0038 -0.3203 -0.4819
  443MOL0     C59702  12.208   7.364  11.774  0.2538 -0.6003  0.0528
  443MOL0     C59703  12.093   7.292  11.737 -0.2125 -0.0860  0.4611
  443MOL0     C59704  12.015   7.227  11.830 -0.1092  0.2024 -0.3222
  443MOL0     C59705  12.053   7.242  11.968 -0.2142  0.6644 -0.6017
  443MOL0     O59706  11.963   7.181  12.053  0.5593 -0.1997 -0.3222
  443MOL0     C59707  11.998   7.165  12.196 -0.3565  0.3946  0.2190
  443MOL0     C59708  11.872   7.210  12.270  0.2949  0.2838  0.8914
  443MOL0     C59709  11.753   7.110  12.272  0.6518  0.7865  0.2413
  443MOL0     C59710  11.644   7.157  12.370 -0.0262  0.7662 -0.3137
  443MOL0     C59711  11.510   7.071  12.368 -0.0710 -0.2731  0.7062
  443MOL0     C59712  11.523   6.930  12.419 -1.0371 -0.1495 -0.8112
  443MOL0     C59713  11.389   6.877  12.456  0.2656 -0.6214 -0.5925
  443MOL0     C59714  11.340   6.891  12.608  0.4051 -0.0862  0.6621
  443MOL0    Cl59715  11.352   7.056  12.665  0.4419 -0.0363 -0.6433
  443MOL0     C59716  12.157   7.336  12.005 -0.0202 -0.1600 -0.9108
  443MOL0     C59717  12.240   7.387  11.908  0.4113 -0.1539  1.0547
  443MOL0     O59718  12.473   7.483  11.764  0.4329 -0.6160 -0.7240
  443MOL0     C59719  12.348   7.540  11.430 -0.1627  0.2618 -0.1672
  443MOL0     C59720  12.379   7.578  11.302  0.8947  0.0201 -0.3518
  443MOL0     N59721  12.125   7.834  10.906  0.6386  0.7528  0.4097
  443MOL0     N59722  12.022   7.905  10.869  0.8684  0.8137 -0.3185
  443MOL0     C59723  11.225   8.545  10.560  0.4038  0.1892  0.1334
  443MOL0     C59724  11.105   8.606  10.584  0.8367  1.0687 -0.1512
  443MOL0     C59725  10.717   8.750  10.669 -0.2515  0.5780 -0.3186
  443MOL0     C59726  10.651   8.812  10.560 -0.1110 -0.6950 -0.0825
  443MOL0     C59727  10.540   8.900  10.576 -0.7966 -0.1271  1.0770
  443MOL0     C59728  10.494   8.918  10.702 -0.7201  0.2184  0.3657
  443MOL0     O59729  10.390   9.001  10.732  0.6685 -0.5426 -0.5257
  443MOL0     C59730  10.328   9.076  10.629  0.1472 -0.1579  1.4320
  443MOL0     C59731  10.233   8.986  10.549 -0.2892  0.3409 -0.2341
  443MOL0     C59732  10.162   9.071  10.439  0.2683  0.0885  0.4011
  443MOL0     C59733  10.041   9.015  10.363  1.1196  0.4756  0.3941
  443MOL0     C59734   9.945   8.944  10.453  1.0958 -0.3484  0.5187
  443MOL0     C59735   9.875   8.881  10.528  0.2768  0.5242  0.0968
  443MOL0     C59736  10.553   8.850  10.810 -0.4846 -0.7337 -0.4670
  443MOL0     C59737  10.659   8.761  10.796  0.2485 -0.4417  0.5105
  443MOL0     H59738  10.911   8.458  10.346  0.2422  0.6458 -1.2748
  443MOL0     H59739  11.144   8.354  10.294  1.9253  0.5992 -1.1095
  443MOL0     H59740  11.385   8.299  10.262 -1.9148 -0.0629  1.9933
  443MOL0     H59741  11.360   8.476  10.226  1.9457  1.1154  0.7864
  443MOL0     H59742  11.599   8.449  10.205  1.2358 -3.7601  0.1424
  443MOL0     H59743  11.552   8.532  10.361 -2.9880 -0.5751 -0.1589
  443MOL0     H59744  11.599   8.337  10.490  0.3875 -1.0901 -0.8036
  443MOL0     H59745  11.580   8.234  10.342  1.3806 -0.5544 -0.5836
  443MOL0     H59746  11.790   8.325  10.264 -1.2402  1.6468 -0.5059
  443MOL0     H59747  11.819   8.425  10.416 -0.1978 -0.9697  0.6603
  443MOL0     H59748  11.799   8.125  10.413  0.0772 -0.0683  1.4449
  443MOL0     H59749  11.947   8.217  10.380 -1.3923  1.8656 -2.9194
  443MOL0     H59750  11.928   8.342  10.588 -1.1169  0.6057 -0.7582
  443MOL0     H59751  11.782   8.268  10.637  1.9179 -1.2995  1.1138
  443MOL0     H59752  11.871   8.040  10.625  0.1314 -0.5310  0.8251
  443MOL0     H59753  12.027   8.091  10.592 -0.8878  0.5499 -0.3094
  443MOL0     H59754  11.908   8.176  10.853 -2.5561 -1.8165 -2.4055
  443MOL0     H59755  12.056   8.228  10.777  0.0323  0.2822 -3.5394
  443MOL0     H59756  12.260   8.127  10.865  0.0221 -0.3182  1.0468
  443MOL0     H59757  12.407   7.794  10.959  1.5600  0.3110  1.4075
  443MOL0     H59758  12.457   7.960  10.928  0.6613  0.1744  0.6607
  443MOL0     H59759  12.293   7.863  11.166 -0.7590 -0.5066 -1.2578
  443MOL0     H59760  12.324   8.032  11.132  1.9529  0.1343  1.7571
  443MOL0     H59761  12.493   7.925  11.307 -1.7900 -1.1577  0.2151
  443MOL0     H59762  12.543   8.017  11.162 -0.3604 -0.8241 -2.7494
  443MOL0     H59763  12.675   7.823  11.222 -2.0606  2.2734  1.3058
  443MOL0     H59764  12.621   7.816  11.052 -1.0484 -0.9534 -0.7015
  443MOL0     H59765  12.704   7.658  11.348 -1.1466  1.8347 -2.2514
  443MOL0     H59766  12.669   7.456  11.646 -1.6170  2.7888  4.2649
  443MOL0     H59767  12.798   7.545  11.555  0.4801 -0.3414  0.5713
  443MOL0     H59768  12.693   7.632  11.664  3.2689 -0.0135 -0.0131
  443MOL0     H59769  12.070   7.285  11.631 -0.0515  2.6565  0.1674
  443MOL0     H59770  11.928   7.176  11.791  0.0346 -0.7344  0.5454
  443MOL0     H59771  12.023   7.060  12.215  3.2532  0.8496 -1.2888
  443MOL0     H59772  12.080   7.230  12.229 -1.0840  0.7427  1.3882
  443MOL0     H59773  11.897   7.227  12.376  0.0480 -0.1540  1.0202
  443MOL0     H59774  11.839   7.299  12.216  3.9081  0.3720 -1.5650
  443MOL0     H59775  11.778   7.007  12.300 -1.8187 -0.2894 -1.2266
  443MOL0     H59776  11.702   7.094  12.177 -1.1666 -3.9795  1.7257
  443MOL0     H59777  11.680   7.137  12.471 -1.2214 -3.0418 -0.4854
  443MOL0     H59778  11.623   7.261  12.343  1.3693  1.4798  1.1483
  443MOL0     H59779  11.478   7.060  12.264  1.0599 -0.0375  0.3088
  443MOL0     H59780  11.442   7.130  12.430  1.9245  0.2660  2.5208
  443MOL0     H59781  11.558   6.870  12.334  0.7265 -1.8796  1.0400
  443MOL0     H59782  11.591   6.925  12.504  0.6040 -1.8968 -2.1320
  443MOL0     H59783  11.385   6.769  12.439 -3.4118 -0.3557 -2.3581
  443MOL0     H59784  11.320   6.926  12.388 -1.9293  1.5286  2.8751
  443MOL0     H59785  11.397   6.825  12.674 -0.2220 -0.3111  0.9818
  443MOL0     H59786  11.233   6.867  12.614  1.3161 -5.7259  0.1245
  443MOL0     H59787  12.182   7.366  12.107  0.2382  0.5898 -1.1814
  443MOL0     H59788  12.332   7.434  11.940  0.0055  0.4496  1.3388
  443MOL0     H59789  12.247   7.520  11.465 -0.7314  2.3311 -0.5019
  443MOL0     H59790  12.296   7.588  11.234 -0.9001 -4.2410  0.8377
  443MOL0     H59791  11.314   8.565  10.619  0.7638 -0.5072 -0.1613
  443MOL0     H59792  11.102   8.694  10.647  2.0675  0.9813  0.0500
  443MOL0     H59793  10.683   8.789  10.459 -0.7910  0.8559 -0.6793
  443MOL0     H59794  10.500   8.935  10.481  4.1048 -0.0636 -1.2425
  443MOL0     H59795  10.264   9.154  10.672  0.1312 -0.2642  1.6023
  443MOL0     H59796  10.391   9.134  10.562 -0.9862  0.3587  0.7860
  443MOL0     H59797  10.173   8.939  10.628 -0.9352 -1.0847 -1.5362
  443MOL0     H59798  10.284   8.901  10.503 -0.5473  0.5116 -0.8397
  443MOL0     H59799  10.242   9.103  10.372  0.9665 -1.3506  0.5085
  443MOL0     H59800  10.129   9.169  10.475  1.1994  0.5185  0.1141
  443MOL0     H59801  10.084   8.941  10.294 -1.9138 -2.1456  1.0862
  443MOL0     H59802   9.984   9.094  10.314  1.0234 -1.6594 -3.3282
  443MOL0     H59803   9.821   8.841  10.611  0.7307 -2.8004 -1.0975
  443MOL0     H59804  10.516   8.878  10.908  3.0838 -0.5842  0.9680
  443MOL0     H59805  10.697   8.702  10.878 -0.3694 -0.0307  1.0970
  444MOL0     O59806   9.634   6.018   0.800 -0.4119  0.1040  0.2302
  444MOL0     C59807   9.743   5.972   0.796  0.0448 -0.2093 -0.2691
  444MOL0     O59808   9.778   5.874   0.720  0.0956 -0.1743 -0.7450
  444MOL0     C59809   9.691   5.807   0.634  0.4441 -0.4811 -0.1257
  444MOL0     C59810   9.738   5.770   0.508  0.1177  0.3815  0.1880
  444MOL0     C59811   9.664   5.688   0.421 -0.4065  0.9287 -0.3647
  444MOL0     C59812   9.523   5.672   0.451 -0.0495 -0.0590 -0.1145
  444MOL0     O59813   9.454   5.587   0.368  0.0131  0.2753  0.2891
  444MOL0     C59814   9.327   5.634   0.337 -0.1469  0.8698 -0.0491
  444MOL0     C59815   9.314   5.655   0.196 -0.9204  0.1255  0.3425
  444MOL0     C59816   9.352   5.527   0.108 -0.3433 -1.0520 -0.2215
  444MOL0     C59817   9.244   5.422   0.107 -0.4632 -0.4700  0.0552
  444MOL0     C59818   9.269   5.311   0.003  0.9517  1.1317 -0.4357
  444MOL0     C59819   9.357   5.196   0.055 -0.8956  0.2217  0.0931
  444MOL0     C59820   9.343   5.076  -0.048 -0.4950  0.5063  0.6647
  444MOL0     C59821   9.420   5.101  -0.177  0.2592  1.1310  0.0837
  444MOL0     N59822   9.425   4.968  -0.241  0.2341 -1.0329  0.5935
  444MOL0     C59823   9.503   4.866  -0.208  0.8508  0.6458 -0.0291
  444MOL0     C59824   9.479   4.776  -0.306 -0.1940  0.3696  0.7501
  444MOL0     C59825   9.532   4.636  -0.306 -0.0946  0.4609 -0.0828
  444MOL0     C59826   9.458   4.543  -0.217 -0.3605 -0.1303 -0.3585
  444MOL0     C59827   9.306   4.553  -0.231 -1.0080  0.3280  0.1578
  444MOL0     C59828   9.264   4.515  -0.372 -1.0096 -0.3725  0.5156
  444MOL0     O59829   9.263   4.372  -0.396 -0.6492  0.6679 -0.6273
  444MOL0     C59830   9.160   4.298  -0.346  0.7624  0.3297  0.0164
  444MOL0     C59831   9.161   4.156  -0.357 -1.2234 -0.3421 -0.8800
  444MOL0     C59832   9.063   4.074  -0.319  0.1901 -0.4435 -0.5426
  444MOL0     C59833   9.078   3.930  -0.332 -1.1116  0.4459  0.8171
  444MOL0     C59834   8.945   4.132  -0.274  0.4625  0.1480  0.3780
  444MOL0     C59835   8.815   4.060  -0.223  0.3108  0.8956  1.2683
  444MOL0     O59836   8.721   4.131  -0.162  0.5283 -0.2615  0.1023
  444MOL0     C59837   8.621   4.064  -0.096 -0.6150 -0.0359 -0.2529
  444MOL0     C59838   8.643   4.012   0.037  0.1852  0.0144  0.8415
  444MOL0     C59839   8.544   3.950   0.101 -0.3118 -0.9290  1.0760
  444MOL0     C59840   8.415   3.932   0.045 -0.4838  0.0508  1.3942
  444MOL0     O59841   8.315   3.861   0.117  0.5371  0.8264  0.5288
  444MOL0     C59842   8.204   3.938   0.145  0.9097  0.0125 -0.0142
  444MOL0     C59843   8.092   3.842   0.170 -0.6941  0.0159 -0.1347
  444MOL0     C59844   7.962   3.918   0.217 -0.6683  0.5129  0.2782
  444MOL0     C59845   7.954   3.958   0.362  0.2068  0.0334 -0.3500
  444MOL0     C59846   7.991   3.854   0.461 -0.3028 -0.2601 -0.6503
  444MOL0     C59847   7.899   3.731   0.472  0.4738  0.4993 -0.9170
  444MOL0     C59848   7.956   3.633   0.579 -0.1283 -0.3939  0.7366
  444MOL0     C59849   7.869   3.521   0.614  0.4258  0.5917  0.6517
  444MOL0    Cl59850   7.817   3.427   0.467  0.5579  0.4972  0.1755
  444MOL0     C59851   8.390   3.989  -0.087  0.0412 -0.0856 -0.0881
  444MOL0     C59852   8.496   4.056  -0.155  0.5017 -0.8517  0.1157
  444MOL0     O59853   8.803   3.939  -0.251 -0.1081  0.1653 -0.1726
  444MOL0     C59854   8.941   4.269  -0.257  0.4662 -1.5331  0.2711
  444MOL0     C59855   9.046   4.354  -0.289  0.4110  0.6905  1.3503
  444MOL0     N59856   9.407   4.829  -0.406 -0.2312  0.4837  0.4188
  444MOL0     N59857   9.377   4.943  -0.371 -0.2223 -0.0225 -0.6904
  444MOL0     C59858   9.469   5.717   0.573 -0.6663 -0.5939  0.2295
  444MOL0     C59859   9.552   5.790   0.663 -0.1111  0.6982  0.4412
  444MOL0     C59860   9.852   6.024   0.885 -0.6037  0.1253 -0.6630
  444MOL0     C59861   9.971   5.953   0.906  0.1528 -0.3822  0.4381
  444MOL0     C59862  10.067   6.008   0.988 -0.6358  0.5731 -0.0825
  444MOL0     C59863  10.057   6.128   1.043  0.1265 -0.2385 -0.2333
  444MOL0     O59864  10.160   6.185   1.117  0.9210  0.1571  0.7302
  444MOL0     C59865  10.169   6.331   1.112 -0.3282  0.2080 -0.2868
  444MOL0     C59866  10.286   6.391   1.177 -0.3150 -0.5041 -1.0012
  444MOL0     C59867  10.421   6.344   1.115  0.1592 -0.6801  0.0538
  444MOL0     C59868  10.532   6.425   1.190 -0.5002  0.7759 -0.1615
  444MOL0     C59869  10.537   6.403   1.337  0.4071  0.2637  0.1377
  444MOL0     C59870  10.544   6.415   1.462 -0.0278 -0.4460 -0.2119
  444MOL0     C59871   9.934   6.195   1.029 -0.4379  0.0529 -0.3182
  444MOL0     C59872   9.833   6.139   0.956  0.0452 -0.1643 -0.1816
  444MOL0     H59873   9.838   5.807   0.484  0.9061 -0.4850  1.9425
  444MOL0     H59874   9.698   5.657   0.323 -1.1484  1.2181 -0.7202
  444MOL0     H59875   9.252   5.563   0.374  1.3142  0.8467  3.1832
  444MOL0     H59876   9.302   5.731   0.381  1.6060  0.9247  0.9216
  444MOL0     H59877   9.210   5.680   0.177 -0.1362  4.2309  0.5282
  444MOL0     H59878   9.368   5.744   0.161 -0.9783 -0.8689 -2.4895
  444MOL0     H59879   9.369   5.557   0.004 -1.2739 -1.6522 -0.5539
  444MOL0     H59880   9.438   5.468   0.140 -2.0971 -3.2963  0.5767
  444MOL0     H59881   9.244   5.383   0.209  0.2477  1.4283  0.8281
  444MOL0     H59882   9.145   5.463   0.083  0.3245  1.2255 -0.4752
  444MOL0     H59883   9.171   5.269  -0.021  1.4495  0.2441 -0.9410
  444MOL0     H59884   9.312   5.350  -0.089  0.2938  1.2570 -0.6938
  444MOL0     H59885   9.457   5.232   0.076 -2.7086  5.1141  1.7493
  444MOL0     H59886   9.318   5.162   0.152  0.5367  1.9212  1.3269
  444MOL0     H59887   9.383   4.984  -0.003 -0.6393  1.0585  1.9744
  444MOL0     H59888   9.239   5.050  -0.070 -0.7928 -0.4702  2.8943
  444MOL0     H59889   9.520   5.143  -0.161 -0.3544  2.5467  0.2815
  444MOL0     H59890   9.364   5.174  -0.235 -0.5541  0.5679  0.1423
  444MOL0     H59891   9.554   4.838  -0.116 -2.9171 -2.4321  1.3723
  444MOL0     H59892   9.543   4.592  -0.406  3.4761 -1.2374  0.8693
  444MOL0     H59893   9.638   4.632  -0.279 -0.4856  0.6312  1.5461
  444MOL0     H59894   9.477   4.568  -0.112  0.2855  0.0576 -0.5118
  444MOL0     H59895   9.505   4.445  -0.230 -1.4144 -0.6992  0.0573
  444MOL0     H59896   9.276   4.647  -0.184  1.8290  0.1777  2.6064
  444MOL0     H59897   9.268   4.476  -0.163  2.3033 -1.6755 -0.0242
  444MOL0     H59898   9.335   4.565  -0.438  0.4160 -0.5574  1.8467
  444MOL0     H59899   9.166   4.552  -0.401 -0.1794  0.6885 -1.1018
  444MOL0     H59900   9.257   4.113  -0.382  0.3216  2.4197 -0.1285
  444MOL0     H59901   9.002   3.876  -0.388  1.8932 -0.9650 -2.2674
  444MOL0     H59902   9.172   3.896  -0.376 -0.7015  0.3336  1.7558
  444MOL0     H59903   9.073   3.878  -0.235  2.8385  0.7308  1.3538
  444MOL0     H59904   8.738   4.034   0.084 -0.4803 -1.8238  3.1937
  444MOL0     H59905   8.572   3.919   0.201  0.9841 -1.4585  0.5659
  444MOL0     H59906   8.216   4.001   0.234 -2.4490  2.6582 -1.2212
  444MOL0     H59907   8.170   4.010   0.070  4.1533  1.7075 -0.0229
  444MOL0     H59908   8.062   3.783   0.083 -1.3795 -0.9577  0.7335
  444MOL0     H59909   8.118   3.767   0.245  2.3998  1.1465  0.0467
  444MOL0     H59910   7.890   3.839   0.191  0.2446 -0.3874  0.4520
  444MOL0     H59911   7.932   4.011   0.167 -1.9874  0.5995  1.1585
  444MOL0     H59912   8.033   4.034   0.372 -0.5374  0.8400 -0.4258
  444MOL0     H59913   7.859   4.009   0.376  1.6573  2.5329  1.2617
  444MOL0     H59914   7.992   3.899   0.561  1.9704  0.7154 -1.0488
  444MOL0     H59915   8.093   3.817   0.444 -0.4631  0.0181 -2.3802
  444MOL0     H59916   7.795   3.764   0.487  1.2205  2.4722  0.4053
  444MOL0     H59917   7.895   3.685   0.373 -1.2645  1.8476 -1.5251
  444MOL0     H59918   7.977   3.694   0.667 -0.4975  1.7146 -0.5573
  444MOL0     H59919   8.059   3.619   0.543  0.0887  1.1949  0.6530
  444MOL0     H59920   7.781   3.572   0.653  0.7758  0.1809  2.0576
  444MOL0     H59921   7.915   3.454   0.688  0.3932 -0.1199  0.0397
  444MOL0     H59922   8.292   3.987  -0.133 -0.2314  0.3651  0.4513
  444MOL0     H59923   8.484   4.108  -0.250  1.7299 -0.3572  0.2042
  444MOL0     H59924   8.848   4.316  -0.226 -0.7657 -4.0130  0.5579
  444MOL0     H59925   9.036   4.462  -0.285 -1.5218  0.5985  0.2599
  444MOL0     H59926   9.366   5.703   0.602 -0.9856  1.1026 -0.0071
  444MOL0     H59927   9.518   5.836   0.756  1.3018  0.9812  0.8335
  444MOL0     H59928   9.979   5.858   0.854 -2.6244 -0.8189  0.6403
  444MOL0     H59929  10.158   5.957   1.019 -0.6947  0.0311 -0.7806
  444MOL0     H59930  10.153   6.374   1.012  0.3705 -1.1912 -1.0269
  444MOL0     H59931  10.092   6.375   1.177 -1.7807 -1.6469 -0.6621
  444MOL0     H59932  10.273   6.381   1.285 -0.5158 -1.1202 -1.0794
  444MOL0     H59933  10.284   6.495   1.142 -0.8282  0.2729  1.1980
  444MOL0     H59934  10.432   6.378   1.012 -1.1843 -0.2770  0.0205
  444MOL0     H59935  10.425   6.236   1.129 -0.7147 -0.8458 -0.8131
  444MOL0     H59936  10.531   6.533   1.169  0.3505  0.5445 -1.5514
  444MOL0     H59937  10.625   6.387   1.146 -0.7447 -0.2705  0.2133
  444MOL0     H59938  10.571   6.419   1.566  2.0151 -0.5268 -0.6866
  444MOL0     H59939   9.905   6.289   1.074 -0.4161  0.3992 -1.0107
  444MOL0     H59940   9.737   6.187   0.943 -1.5262 -3.4806 -2.0265
  445MOL0     O59941   5.541   2.712   8.814  0.0183 -0.3160  0.5327
  445MOL0     C59942   5.537   2.676   8.931 -0.1778  0.1949 -0.4824
  445MOL0     O59943   5.431   2.699   9.013 -0.7663 -1.0389 -0.7394
  445MOL0     C59944   5.329   2.760   8.956  0.4521  1.4127 -0.0909
  445MOL0     C59945   5.313   2.898   8.962 -0.5078 -0.2027  0.0055
  445MOL0     C59946   5.202   2.964   8.899 -0.1372 -0.3499  0.0536
  445MOL0     C59947   5.102   2.885   8.831  1.2436 -0.5758 -0.4762
  445MOL0     O59948   4.997   2.961   8.777 -0.1941  0.0917 -1.1278
  445MOL0     C59949   4.893   2.901   8.699  0.0093 -0.2581 -0.6061
  445MOL0     C59950   4.792   2.826   8.781  0.2827 -0.5886  0.3985
  445MOL0     C59951   4.702   2.746   8.671  0.4406 -0.3612 -0.7223
  445MOL0     C59952   4.589   2.662   8.726  0.1944 -0.2862 -1.3818
  445MOL0     C59953   4.459   2.735   8.768  0.1991  0.6814  0.2260
  445MOL0     C59954   4.366   2.638   8.830 -0.1050 -0.5147 -0.2008
  445MOL0     C59955   4.232   2.702   8.871  0.0748  0.7642  0.5425
  445MOL0     C59956   4.245   2.791   9.000 -0.4401  0.4820 -0.5071
  445MOL0     N59957   4.118   2.800   9.078  1.0019  0.5744  0.0174
  445MOL0     C59958   4.006   2.868   9.034  0.0782 -0.0200 -0.8390
  445MOL0     C59959   3.917   2.859   9.135 -0.2388 -0.5973  0.3778
  445MOL0     C59960   3.779   2.918   9.145 -0.6839 -0.2194 -0.0175
  445MOL0     C59961   3.749   3.054   9.070 -0.0061  0.1846  0.8433
  445MOL0     C59962   3.746   3.181   9.166  0.6936  0.5125 -0.0692
  445MOL0     C59963   3.687   3.298   9.089 -0.2195  0.8838 -0.4611
  445MOL0     O59964   3.550   3.281   9.048 -0.3430 -0.2686  0.1742
  445MOL0     C59965   3.445   3.309   9.125 -0.1916 -0.1415  0.1863
  445MOL0     C59966   3.433   3.338   9.265 -0.6479  0.2717  0.0666
  445MOL0     C59967   3.314   3.344   9.336  0.0672 -0.2526 -0.6072
  445MOL0     C59968   3.312   3.331   9.486  0.3516  0.6905  0.9952
  445MOL0     C59969   3.191   3.340   9.267 -0.0251  0.3057  0.3263
  445MOL0     C59970   3.053   3.345   9.323  0.3271  0.0420 -0.7861
  445MOL0     O59971   2.969   3.267   9.268 -0.1266  0.0474  0.3360
  445MOL0     C59972   2.835   3.240   9.307 -0.4544 -0.1107  1.0273
  445MOL0     C59973   2.755   3.304   9.405 -0.6562 -0.4531 -0.1164
  445MOL0     C59974   2.616   3.270   9.416  0.1781 -0.0824 -0.6707
  445MOL0     C59975   2.559   3.175   9.335 -0.9998 -0.2890  0.3432
  445MOL0     O59976   2.424   3.148   9.360  0.5899 -0.5641 -0.1534
  445MOL0     C59977   2.351   3.094   9.254  0.4349  0.3383  0.6679
  445MOL0     C59978   2.206   3.125   9.285  0.1720  0.7344  1.4488
  445MOL0     C59979   2.107   3.075   9.177 -0.1010 -0.1047  0.6961
  445MOL0     C59980   1.955   3.087   9.217 -0.4020  0.2437 -0.1388
  445MOL0     C59981   1.862   3.032   9.103  0.1395 -0.0999  0.7005
  445MOL0     C59982   1.712   3.035   9.131  0.8120  0.5003 -0.0053
  445MOL0     C59983   1.659   3.177   9.101 -0.4455 -0.5246 -0.4043
  445MOL0     C59984   1.529   3.188   9.175 -0.6868 -0.1322 -0.1942
  445MOL0    Cl59985   1.410   3.061   9.123  0.1332  0.8218  0.4529
  445MOL0     C59986   2.632   3.108   9.235 -0.1870 -1.2441  0.0537
  445MOL0     C59987   2.768   3.136   9.224  0.2864 -0.1298  1.2704
  445MOL0     O59988   3.027   3.418   9.419  0.2316 -0.0600  0.6509
  445MOL0     C59989   3.201   3.326   9.126 -0.0979 -0.4469  0.1807
  445MOL0     C59990   3.323   3.306   9.058  0.5601 -1.1745  0.9050
  445MOL0     N59991   3.971   2.788   9.238  0.0209 -0.4059 -0.8476
  445MOL0     N59992   4.092   2.750   9.204  0.5728 -0.4350  0.2057
  445MOL0     C59993   5.123   2.745   8.833  0.3368 -1.2010  0.3182
  445MOL0     C59994   5.227   2.681   8.891 -0.7216 -0.0801  0.0800
  445MOL0     C59995   5.658   2.624   8.997  0.0877  0.6580  0.0603
  445MOL0     C59996   5.782   2.585   8.932 -0.0120  0.1510  0.6403
  445MOL0     C59997   5.907   2.558   9.000  0.2276 -0.2230  0.1204
  445MOL0     C59998   5.896   2.525   9.136 -0.4939 -0.0524 -0.1830
  445MOL0     O59999   6.007   2.479   9.204 -0.1464 -0.3248 -0.5366
  445MOL0     C60000   6.112   2.573   9.239 -0.5362 -0.7350 -0.1263
  445MOL0     C60001   6.215   2.598   9.119  0.6765  0.8850  0.7685
  445MOL0     C60002   6.351   2.650   9.169 -1.2788  0.1109 -0.3702
  445MOL0     C60003   6.350   2.801   9.212 -0.3840  0.1289 -0.1065
  445MOL0     C60004   6.335   2.807   9.356  0.1734 -0.1175 -0.1841
  445MOL0     C60005   6.317   2.823   9.480 -0.5201  0.3110 -0.1116
  445MOL0     C60006   5.774   2.546   9.210 -1.1745 -1.5840 -0.1696
  445MOL0     C60007   5.659   2.592   9.140  0.0700 -0.4827 -0.3684
  445MOL0     H60008   5.390   2.956   9.011  0.8936  2.1594 -4.4334
  445MOL0     H60009   5.192   3.072   8.902  0.2867 -0.3308  1.6066
  445MOL0     H60010   4.851   2.974   8.629  0.7805  1.3387  0.5352
  445MOL0     H60011   4.939   2.829   8.631  3.2381  0.9069  0.1904
  445MOL0     H60012   4.845   2.758   8.849 -0.2202 -1.3772  0.0089
  445MOL0     H60013   4.720   2.892   8.831 -2.2756 -1.4080 -2.0114
  445MOL0     H60014   4.658   2.818   8.601 -0.1057 -0.9799 -1.0316
  445MOL0     H60015   4.765   2.679   8.611 -0.5501  0.0266 -2.2674
  445MOL0     H60016   4.558   2.590   8.650  0.9580  0.1937 -2.1610
  445MOL0     H60017   4.624   2.610   8.816  1.6294  0.2691 -1.5948
  445MOL0     H60018   4.497   2.804   8.844  2.3478  0.9884 -1.0227
  445MOL0     H60019   4.411   2.778   8.679 -1.0174  1.4088  1.2024
  445MOL0     H60020   4.355   2.554   8.761 -0.3133  0.8019 -1.8192
  445MOL0     H60021   4.417   2.589   8.913 -1.9877 -0.1377  1.2741
  445MOL0     H60022   4.193   2.767   8.792 -0.1319 -0.9757 -0.8704
  445MOL0     H60023   4.162   2.618   8.877  2.5303 -1.4169  0.2395
  445MOL0     H60024   4.282   2.892   8.980  2.7457  0.3627  3.2776
  445MOL0     H60025   4.325   2.752   9.065  0.1969 -0.9672 -2.0940
  445MOL0     H60026   3.977   2.930   8.950 -2.1232 -1.6652 -1.3765
  445MOL0     H60027   3.725   2.830   9.109  2.1361 -2.1251  0.0469
  445MOL0     H60028   3.753   2.936   9.250  1.0595  0.6798  0.2981
  445MOL0     H60029   3.645   3.030   9.046 -0.0584  1.2323 -0.0695
  445MOL0     H60030   3.812   3.064   8.981 -2.0101  0.1876 -0.6648
  445MOL0     H60031   3.844   3.206   9.206  0.2886 -1.2935  2.3002
  445MOL0     H60032   3.675   3.165   9.248 -0.6471  1.0452 -1.0880
  445MOL0     H60033   3.757   3.315   9.007  1.4586  3.0974  1.3004
  445MOL0     H60034   3.691   3.383   9.158  0.0246  0.5970 -0.1202
  445MOL0     H60035   3.525   3.335   9.322 -0.4019 -0.6436 -0.3647
  445MOL0     H60036   3.281   3.227   9.500  1.9758  0.1931  1.1073
  445MOL0     H60037   3.414   3.329   9.525  0.8924 -2.0433 -0.3320
  445MOL0     H60038   3.246   3.399   9.540 -1.0485 -0.0067  0.2053
  445MOL0     H60039   2.800   3.382   9.465  0.8830 -1.1488 -0.3166
  445MOL0     H60040   2.551   3.320   9.486  0.6028  0.1185 -0.4163
  445MOL0     H60041   2.363   3.149   9.160 -1.2015  1.2498  0.9588
  445MOL0     H60042   2.360   2.985   9.245  2.9578  0.4997  0.5846
  445MOL0     H60043   2.191   3.060   9.371 -1.7676  0.5034  0.9849
  445MOL0     H60044   2.179   3.231   9.290 -1.3392  0.3906  0.9176
  445MOL0     H60045   2.131   2.970   9.158  1.2574 -0.4402  3.7838
  445MOL0     H60046   2.114   3.137   9.086 -2.3656  2.2521  2.0022
  445MOL0     H60047   1.942   3.020   9.303  0.8071  1.5839  1.1440
  445MOL0     H60048   1.934   3.191   9.245  0.6646  0.8791 -1.5695
  445MOL0     H60049   1.892   2.928   9.088 -3.6548 -1.2188  0.0609
  445MOL0     H60050   1.887   3.083   9.010 -0.0321 -3.8764 -1.5951
  445MOL0     H60051   1.673   2.960   9.062  1.5662  0.3249 -0.2549
  445MOL0     H60052   1.683   2.988   9.226  3.6296 -3.6828 -0.9044
  445MOL0     H60053   1.644   3.184   8.992 -2.5249 -0.3594 -0.1610
  445MOL0     H60054   1.733   3.256   9.118  0.7417 -1.3642 -1.5382
  445MOL0     H60055   1.493   3.288   9.148 -1.6950  0.3340  2.5413
  445MOL0     H60056   1.546   3.179   9.283 -2.6055  1.0662  0.2672
  445MOL0     H60057   2.590   3.030   9.172  0.5424 -0.8894 -0.9108
  445MOL0     H60058   2.824   3.080   9.150 -2.2299 -1.2958  0.1456
  445MOL0     H60059   3.116   3.315   9.059  0.3709  0.1783 -0.5220
  445MOL0     H60060   3.319   3.286   8.951  1.6655 -1.9275  0.9968
  445MOL0     H60061   5.048   2.681   8.787 -0.2522  0.5636 -1.3278
  445MOL0     H60062   5.236   2.572   8.893  2.7151  0.0506 -1.2689
  445MOL0     H60063   5.786   2.604   8.825 -0.4558 -0.1718  0.5633
  445MOL0     H60064   5.999   2.550   8.943 -0.4089 -3.9273 -0.6553
  445MOL0     H60065   6.073   2.672   9.264  2.1810  0.6971 -1.1162
  445MOL0     H60066   6.174   2.537   9.322  1.5615  0.5998 -1.0222
  445MOL0     H60067   6.178   2.660   9.037  1.0953 -3.1043 -2.7841
  445MOL0     H60068   6.225   2.498   9.077  0.1475  0.7393  0.9819
  445MOL0     H60069   6.418   2.640   9.083 -1.3031  0.3776 -0.4206
  445MOL0     H60070   6.386   2.576   9.241 -3.3654 -2.7352 -2.0338
  445MOL0     H60071   6.280   2.861   9.153  0.4543  0.5611 -0.6839
  445MOL0     H60072   6.449   2.843   9.194 -0.6820  0.7015 -0.4627
  445MOL0     H60073   6.302   2.847   9.583  2.8522  1.7367  0.1913
  445MOL0     H60074   5.786   2.526   9.316  2.3143 -3.5553 -0.7729
  445MOL0     H60075   5.564   2.607   9.190 -0.9158  0.2459 -2.3535
  446MOL0     O60076   9.252   0.562   2.873 -0.4139 -0.4413  0.0051
  446MOL0     C60077   9.228   0.637   2.965  0.0125 -0.7380  0.5475
  446MOL0     O60078   9.312   0.742   3.000  0.3419  0.1008 -0.1294
  446MOL0     C60079   9.409   0.777   2.908  0.3487  0.2190 -0.1893
  446MOL0     C60080   9.380   0.820   2.779  0.6954 -0.4368  0.3611
  446MOL0     C60081   9.490   0.861   2.690  0.8525  0.5023 -0.3647
  446MOL0     C60082   9.626   0.860   2.736 -0.8335 -0.6468 -0.4011
  446MOL0     O60083   9.738   0.891   2.667  0.4492  0.0701  0.0401
  446MOL0     C60084   9.718   0.896   2.526  0.3862  0.1710  0.1790
  446MOL0     C60085   9.839   0.945   2.441 -0.1337 -0.0446 -0.3236
  446MOL0     C60086   9.950   0.833   2.422 -0.4772  0.4414  0.4643
  446MOL0     C60087  10.063   0.889   2.343 -0.4003  0.2270 -0.3001
  446MOL0     C60088  10.188   0.797   2.304  2.0277  0.4931  0.2803
  446MOL0     C60089  10.317   0.889   2.282  1.4709 -0.0195 -0.6402
  446MOL0     C60090  10.439   0.814   2.246  0.1821 -0.0226 -0.7096
  446MOL0     C60091  10.557   0.909   2.250  0.6411 -0.0325 -0.0235
  446MOL0     N60092  10.657   0.843   2.174  0.4539  0.3183  0.6537
  446MOL0     C60093  10.771   0.776   2.225 -0.9453  0.3737  0.0378
  446MOL0     C60094  10.816   0.711   2.113  0.8097 -0.6651 -0.4404
  446MOL0     C60095  10.897   0.588   2.098  0.2410  0.4795  0.2975
  446MOL0     C60096  10.831   0.471   2.172 -0.0786 -0.6803 -0.4322
  446MOL0     C60097  10.906   0.411   2.289 -0.0433 -0.3103 -0.0715
  446MOL0     C60098  10.813   0.330   2.380 -0.0768  0.0939 -0.1868
  446MOL0     O60099  10.716   0.417   2.435 -0.2699 -0.0609 -0.1476
  446MOL0     C60100  10.590   0.374   2.435  0.6970  1.2750 -0.0347
  446MOL0     C60101  10.546   0.258   2.505 -0.7446 -0.2298 -0.2085
  446MOL0     C60102  10.421   0.223   2.498  0.1213 -0.2398 -0.2140
  446MOL0     C60103  10.384   0.100   2.573  0.5384 -0.4295  0.3668
  446MOL0     C60104  10.327   0.296   2.424  0.7138 -0.2161 -0.0340
  446MOL0     C60105  10.175   0.268   2.415 -0.3413  0.5951 -0.0373
  446MOL0     O60106  10.106   0.338   2.323  0.0278 -0.3997  0.4785
  446MOL0     C60107   9.978   0.348   2.351  0.0345  0.6976 -0.0541
  446MOL0     C60108   9.887   0.258   2.286 -1.0677 -0.3476  0.0838
  446MOL0     C60109   9.748   0.270   2.306 -0.1645 -0.2852 -0.1175
  446MOL0     C60110   9.701   0.370   2.383  0.1789 -1.3172  0.0383
  446MOL0     O60111   9.566   0.386   2.396  0.2159  0.2490 -0.0173
  446MOL0     C60112   9.514   0.415   2.526 -0.2364  0.2601 -0.0457
  446MOL0     C60113   9.400   0.316   2.556  0.5040 -0.2243 -0.4894
  446MOL0     C60114   9.282   0.326   2.453  0.5621  0.0016 -0.5457
  446MOL0     C60115   9.147   0.313   2.527  0.8684  0.4760  0.0101
  446MOL0     C60116   9.024   0.341   2.431  0.0564  0.0409 -0.6508
  446MOL0     C60117   8.884   0.340   2.510  0.7825 -0.8162 -0.6311
  446MOL0     C60118   8.768   0.353   2.409 -0.6303  0.2522  0.4514
  446MOL0     C60119   8.634   0.383   2.472  0.1237 -0.6922 -0.6219
  446MOL0    Cl60120   8.500   0.381   2.355 -0.4650  0.0019  0.1360
  446MOL0     C60121   9.784   0.453   2.451 -0.2713 -0.0187 -0.0464
  446MOL0     C60122   9.929   0.445   2.438  0.9577 -0.5407 -0.3103
  446MOL0     O60123  10.128   0.195   2.503  0.2957 -0.7213 -0.4568
  446MOL0     C60124  10.365   0.416   2.357 -0.5445 -0.2413 -0.6015
  446MOL0     C60125  10.496   0.448   2.368  0.7959 -0.3221 -0.4365
  446MOL0     N60126  10.739   0.747   1.999 -0.4348 -0.7980 -0.1258
  446MOL0     N60127  10.643   0.826   2.038 -0.1530  0.1556  0.1328
  446MOL0     C60128   9.651   0.820   2.866  0.2349  0.2509 -0.3593
  446MOL0     C60129   9.544   0.781   2.950  0.5928 -0.0382 -0.2275
  446MOL0     C60130   9.118   0.608   3.047 -0.4354 -0.0744  0.2683
  446MOL0     C60131   9.089   0.684   3.165 -0.1239  0.0587  1.2730
  446MOL0     C60132   8.996   0.642   3.253  0.2195 -0.5073  0.4776
  446MOL0     C60133   8.916   0.531   3.229  0.1266 -0.3337  0.0707
  446MOL0     O60134   8.826   0.475   3.313 -0.4451 -0.0524  0.1640
  446MOL0     C60135   8.814   0.531   3.439  0.3602 -1.0269  0.1578
  446MOL0     C60136   8.677   0.493   3.499 -0.0712 -0.8882 -0.5989
  446MOL0     C60137   8.667   0.366   3.581 -0.4604 -0.4775  0.1667
  446MOL0     C60138   8.537   0.352   3.658  0.0018  0.1848 -0.2057
  446MOL0     C60139   8.422   0.403   3.588  0.6664 -0.2372 -0.4451
  446MOL0     C60140   8.321   0.440   3.528  0.6473 -0.0378 -0.3640
  446MOL0     C60141   8.935   0.461   3.106  0.1649 -1.1732  0.0376
  446MOL0     C60142   9.036   0.499   3.021  0.1965 -0.4972  0.0426
  446MOL0     H60143   9.276   0.817   2.750  0.4818  0.6922  0.9883
  446MOL0     H60144   9.460   0.894   2.591 -1.6932  0.1843  0.2325
  446MOL0     H60145   9.705   0.795   2.485  1.4126  0.9811 -2.3790
  446MOL0     H60146   9.639   0.968   2.502 -0.7152  0.6482  4.4196
  446MOL0     H60147   9.806   0.971   2.340 -1.7067 -2.3584 -0.4827
  446MOL0     H60148   9.879   1.028   2.499 -1.5207  0.5795 -0.2197
  446MOL0     H60149   9.973   0.799   2.523 -1.5720 -4.2236 -0.6241
  446MOL0     H60150   9.921   0.738   2.375  2.6695 -0.6923  0.5600
  446MOL0     H60151  10.019   0.921   2.248  0.3029  2.1117 -0.0283
  446MOL0     H60152  10.104   0.970   2.403 -1.0080 -0.2814  0.8164
  446MOL0     H60153  10.199   0.718   2.379 -0.1141 -0.5049 -0.3744
  446MOL0     H60154  10.163   0.749   2.209  1.9665  1.6376 -0.2968
  446MOL0     H60155  10.306   0.956   2.196  1.6631 -0.1863 -0.7956
  446MOL0     H60156  10.328   0.946   2.375 -1.2630 -0.8611  0.2887
  446MOL0     H60157  10.450   0.729   2.315  0.4379  0.7082  0.1771
  446MOL0     H60158  10.428   0.773   2.146  1.2139 -0.2340 -0.7422
  446MOL0     H60159  10.575   0.928   2.356  0.1038  1.1819 -0.1388
  446MOL0     H60160  10.532   1.003   2.201 -0.0532 -0.4082 -0.4041
  446MOL0     H60161  10.799   0.762   2.329 -0.6588  1.0069  0.0534
  446MOL0     H60162  10.915   0.562   1.993  2.7504  0.8009  0.5988
  446MOL0     H60163  11.000   0.599   2.131  0.1080 -0.1857  0.9549
  446MOL0     H60164  10.819   0.385   2.106  0.9824  0.7895 -2.6905
  446MOL0     H60165  10.733   0.502   2.208 -0.5101 -2.9487  0.5094
  446MOL0     H60166  10.948   0.489   2.354  1.7103  0.2982 -1.8315
  446MOL0     H60167  10.986   0.344   2.255 -0.7092 -1.0786 -0.1483
  446MOL0     H60168  10.874   0.274   2.452 -0.2917 -1.3667 -1.0891
  446MOL0     H60169  10.765   0.255   2.315  1.3400 -0.8596 -0.1950
  446MOL0     H60170  10.615   0.195   2.561 -1.0158 -0.7674 -0.4633
  446MOL0     H60171  10.471   0.045   2.611  3.6313  3.5646 -0.2445
  446MOL0     H60172  10.323   0.115   2.662  1.5732 -3.2972  1.6845
  446MOL0     H60173  10.333   0.041   2.497  0.5158  2.2303 -1.8643
  446MOL0     H60174   9.918   0.189   2.208 -1.7797 -0.0233 -0.5029
  446MOL0     H60175   9.684   0.220   2.233  0.3861  1.5584 -1.9624
  446MOL0     H60176   9.591   0.410   2.604 -0.6495 -1.4334  0.2896
  446MOL0     H60177   9.473   0.515   2.513  1.8687  0.9675 -1.9368
  446MOL0     H60178   9.443   0.217   2.537  2.5199  0.7349 -1.2982
  446MOL0     H60179   9.378   0.336   2.661 -1.7528  1.2092 -1.1582
  446MOL0     H60180   9.306   0.251   2.376 -0.6103 -0.1459 -0.7893
  446MOL0     H60181   9.279   0.428   2.413 -0.5988 -0.2814 -1.2386
  446MOL0     H60182   9.146   0.213   2.572  1.4815  1.6960  3.0243
  446MOL0     H60183   9.152   0.390   2.605 -1.3085  1.2308 -0.5195
  446MOL0     H60184   9.018   0.268   2.350  2.9442 -1.5797  0.4642
  446MOL0     H60185   9.038   0.432   2.371  1.3025  0.7857  0.7172
  446MOL0     H60186   8.876   0.254   2.577  0.9933  0.5105  1.1952
  446MOL0     H60187   8.883   0.426   2.578  0.6298 -2.4671  1.5784
  446MOL0     H60188   8.758   0.264   2.345 -0.3123  0.3969  0.1953
  446MOL0     H60189   8.791   0.431   2.336  1.7087  0.0406  0.8704
  446MOL0     H60190   8.647   0.478   2.525 -1.3794 -2.2408  2.8814
  446MOL0     H60191   8.605   0.308   2.546 -2.8053  0.5666 -0.3447
  446MOL0     H60192   9.734   0.528   2.511 -0.3508  0.7197 -1.0037
  446MOL0     H60193   9.995   0.514   2.490 -0.5575 -0.7112  1.9762
  446MOL0     H60194  10.297   0.485   2.307  1.0416  4.8692  3.3257
  446MOL0     H60195  10.543   0.539   2.331  3.0640 -1.6723 -1.1372
  446MOL0     H60196   9.752   0.817   2.904 -0.6269  0.9120  2.1874
  446MOL0     H60197   9.569   0.748   3.050  3.5930  1.1826 -0.4709
  446MOL0     H60198   9.147   0.769   3.198  0.1490  0.5804 -0.4226
  446MOL0     H60199   9.005   0.688   3.351 -1.4923 -2.9589  1.9165
  446MOL0     H60200   8.900   0.502   3.500  1.8192 -0.5255 -1.5604
  446MOL0     H60201   8.806   0.640   3.435 -0.3212 -0.9897  1.7403
  446MOL0     H60202   8.599   0.495   3.422 -0.0260 -0.8908 -0.6440
  446MOL0     H60203   8.644   0.572   3.568 -0.6286 -1.8514  0.2733
  446MOL0     H60204   8.745   0.357   3.657 -0.4026 -1.4343  0.0125
  446MOL0     H60205   8.666   0.282   3.512  2.0307  0.2239 -0.7905
  446MOL0     H60206   8.548   0.400   3.756  2.3072  1.6906 -1.1251
  446MOL0     H60207   8.517   0.245   3.669 -0.7808  0.5794  3.8979
  446MOL0     H60208   8.242   0.485   3.472 -1.1750 -1.3330  1.0540
  446MOL0     H60209   8.881   0.371   3.080 -2.2913  0.4769 -1.0274
  446MOL0     H60210   9.049   0.433   2.936 -1.5364 -1.5171  0.5088
  447MOL0     O60211   7.979  10.080   7.789  0.4699  0.1838 -0.5668
  447MOL0     C60212   8.077  10.141   7.735 -0.5740  0.0981 -0.8006
  447MOL0     O60213   8.105  10.276   7.739 -0.5730  0.0911 -0.7976
  447MOL0     C60214   8.015  10.344   7.829 -0.1388  0.3323 -0.0698
  447MOL0     C60215   7.883  10.376   7.797  0.0139 -1.1310 -0.1315
  447MOL0     C60216   7.805  10.462   7.881  0.3621 -0.4852 -0.0887
  447MOL0     C60217   7.857  10.499   8.009 -0.1938  1.7900  0.2679
  447MOL0     O60218   7.779  10.570   8.091 -0.5029 -0.1752 -0.2896
  447MOL0     C60219   7.766  10.557   8.230 -0.1935 -0.1486  0.4048
  447MOL0     C60220   7.674  10.671   8.276  0.9502  0.2680 -0.2640
  447MOL0     C60221   7.529  10.655   8.229 -0.1383 -0.0448 -0.3793
  447MOL0     C60222   7.430  10.758   8.290 -0.5099 -0.7414  0.0494
  447MOL0     C60223   7.282  10.722   8.274 -0.1143 -0.1408 -0.8432
  447MOL0     C60224   7.210  10.757   8.138 -0.5112 -0.0594 -0.4472
  447MOL0     C60225   7.194  10.908   8.114 -0.8286  0.6347 -0.4228
  447MOL0     C60226   7.119  10.984   8.220  0.1833 -0.1715 -0.2187
  447MOL0     N60227   6.979  10.947   8.238 -0.0074  0.0709  0.1500
  447MOL0     C60228   6.924  10.839   8.291 -0.5181 -0.1894  0.1480
  447MOL0     C60229   6.793  10.848   8.281 -0.3509 -0.2693  0.5488
  447MOL0     C60230   6.691  10.749   8.326  0.6310 -0.1563 -0.1855
  447MOL0     C60231   6.550  10.760   8.258  0.6328  0.7836  1.0641
  447MOL0     C60232   6.448  10.643   8.295  0.2243 -0.0158 -0.7813
  447MOL0     C60233   6.311  10.700   8.268  0.0473  0.0051 -0.4447
  447MOL0     O60234   6.223  10.613   8.341 -0.0301 -0.2964  0.1869
  447MOL0     C60235   6.142  10.533   8.259  0.8243  0.8581 -0.2825
  447MOL0     C60236   6.013  10.508   8.305  0.7376 -0.0279  0.2301
  447MOL0     C60237   5.928  10.414   8.244  0.8186 -0.7031 -0.6945
  447MOL0     C60238   5.790  10.412   8.306  0.4953 -0.8876 -0.0987
  447MOL0     C60239   5.974  10.349   8.127 -0.5493 -0.0343  0.1038
  447MOL0     C60240   5.884  10.251   8.069  0.1770 -0.0647  1.3627
  447MOL0     O60241   5.943  10.139   8.026  0.2941 -0.0490 -0.1371
  447MOL0     C60242   5.863  10.048   7.963  0.0485  0.4039 -0.4857
  447MOL0     C60243   5.904  10.006   7.836  0.1657 -0.0074 -0.3314
  447MOL0     C60244   5.853   9.885   7.788 -0.6822  0.7795 -0.5664
  447MOL0     C60245   5.754   9.810   7.850 -0.1725  0.6503 -0.8291
  447MOL0     O60246   5.690   9.695   7.798 -0.5402  0.1223 -0.1603
  447MOL0     C60247   5.733   9.645   7.674  1.1576  0.6105 -0.4935
  447MOL0     C60248   5.844   9.535   7.685 -0.2318  0.3004 -0.2950
  447MOL0     C60249   5.783   9.405   7.747  0.3014 -0.2491 -0.0712
  447MOL0     C60250   5.720   9.310   7.652 -0.2332 -0.0549  1.1257
  447MOL0     C60251   5.654   9.194   7.728  0.1612 -0.9317 -0.4793
  447MOL0     C60252   5.617   9.090   7.622 -0.4309  0.3363  1.4293
  447MOL0     C60253   5.530   8.985   7.683 -0.7432  0.7295  0.0523
  447MOL0     C60254   5.462   8.904   7.567 -0.4125 -0.6725 -0.3679
  447MOL0    Cl60255   5.394   8.764   7.640  0.1667  0.3954 -0.0482
  447MOL0     C60256   5.715   9.859   7.972  0.3546  0.0813 -0.6768
  447MOL0     C60257   5.771   9.970   8.031  0.8085 -0.6481  0.2752
  447MOL0     O60258   5.766  10.288   8.048 -0.7646 -0.1925  0.2643
  447MOL0     C60259   6.103  10.370   8.082 -0.2036  0.0435 -0.2304
  447MOL0     C60260   6.190  10.455   8.150  0.7960 -0.3041  0.1746
  447MOL0     N60261   6.764  10.976   8.227  0.3448  0.9893 -0.2257
  447MOL0     N60262   6.877  11.029   8.213 -0.3138  0.9044  0.4581
  447MOL0     C60263   7.991  10.458   8.042  1.0883 -0.0064  0.4146
  447MOL0     C60264   8.064  10.386   7.953 -1.1018 -0.4230  0.2391
  447MOL0     C60265   8.186  10.061   7.673 -0.5741 -0.0046 -0.0895
  447MOL0     C60266   8.166   9.921   7.671  0.2215 -0.2233  0.5919
  447MOL0     C60267   8.254   9.829   7.609 -0.2340  0.3328  0.2254
  447MOL0     C60268   8.378   9.880   7.560 -0.5834  0.4799  0.4297
  447MOL0     O60269   8.487   9.801   7.524 -0.2181  0.3999  0.1911
  447MOL0     C60270   8.480   9.658   7.550  0.2744 -0.0500  0.2805
  447MOL0     C60271   8.509   9.607   7.692 -0.0643  0.1166 -0.6170
  447MOL0     C60272   8.661   9.637   7.722 -0.1489  0.2619  0.2329
  447MOL0     C60273   8.692   9.608   7.862  0.6670  0.1918 -1.1618
  447MOL0     C60274   8.699   9.466   7.914  0.6576 -0.2786 -0.6468
  447MOL0     C60275   8.676   9.357   7.950 -0.3738  0.5662  0.6173
  447MOL0     C60276   8.403  10.016   7.575 -0.7402  0.2943  0.1157
  447MOL0     C60277   8.311  10.108   7.626  0.1706  0.5802 -1.3170
  447MOL0     H60278   7.847  10.350   7.698  1.3447 -0.4055 -0.8241
  447MOL0     H60279   7.709  10.502   7.849  0.3031  1.3047  2.1164
  447MOL0     H60280   7.732  10.458   8.259 -0.0556 -0.2271  0.2987
  447MOL0     H60281   7.870  10.584   8.249  0.0724  0.2196 -1.4051
  447MOL0     H60282   7.675  10.666   8.385 -1.4834  0.4491 -0.1744
  447MOL0     H60283   7.703  10.771   8.245 -0.0571  0.0054 -2.2706
  447MOL0     H60284   7.530  10.670   8.121  1.6579  0.5023 -0.3111
  447MOL0     H60285   7.486  10.557   8.249 -0.5010  0.2524  0.3452
  447MOL0     H60286   7.447  10.769   8.397 -0.4613 -1.5704  0.1289
  447MOL0     H60287   7.455  10.855   8.244 -0.6503 -0.8823 -0.3305
  447MOL0     H60288   7.266  10.614   8.281  0.2512 -0.1475  0.0254
  447MOL0     H60289   7.237  10.766   8.363  0.7561  0.5382 -0.7231
  447MOL0     H60290   7.270  10.725   8.052  2.0383 -0.8867  1.5154
  447MOL0     H60291   7.117  10.698   8.136 -1.6973  1.5913  1.5884
  447MOL0     H60292   7.293  10.950   8.095 -1.5047  2.2642 -0.5947
  447MOL0     H60293   7.146  10.929   8.018  1.3850  0.2756 -1.6750
  447MOL0     H60294   7.120  11.089   8.190 -1.0575  0.3377  1.3695
  447MOL0     H60295   7.176  10.977   8.312 -2.8340 -0.0110  1.8127
  447MOL0     H60296   6.977  10.753   8.332 -1.1629 -0.8592 -0.4087
  447MOL0     H60297   6.740  10.653   8.309  2.1838  0.9024 -2.1423
  447MOL0     H60298   6.675  10.757   8.434 -0.8110  0.9418 -0.4433
  447MOL0     H60299   6.583  10.751   8.155  1.4726 -0.0666  1.3875
  447MOL0     H60300   6.498  10.855   8.271 -0.5824  0.2188  0.5691
  447MOL0     H60301   6.458  10.610   8.399 -0.5803 -0.2724 -0.7778
  447MOL0     H60302   6.463  10.550   8.240  2.5969 -1.5088  2.0645
  447MOL0     H60303   6.291  10.713   8.161  0.5713  1.1262 -0.4239
  447MOL0     H60304   6.290  10.800   8.308 -2.4466  0.7125 -3.1844
  447MOL0     H60305   5.984  10.572   8.389  0.6313 -1.0795  1.0101
  447MOL0     H60306   5.728  10.472   8.240  2.5355 -0.2332 -1.5202
  447MOL0     H60307   5.749  10.310   8.306 -1.4816 -0.1106 -0.7039
  447MOL0     H60308   5.782  10.448   8.409 -0.5241 -1.3746  0.0063
  447MOL0     H60309   5.990  10.064   7.803  0.3267  1.6480  2.6610
  447MOL0     H60310   5.901   9.852   7.696 -1.8679  1.5916 -1.5090
  447MOL0     H60311   5.645   9.592   7.637  1.7056 -1.4200  0.8782
  447MOL0     H60312   5.745   9.726   7.602  1.3861 -0.0211 -1.1736
  447MOL0     H60313   5.881   9.518   7.584 -0.9348 -0.1148 -0.4904
  447MOL0     H60314   5.935   9.562   7.738  0.5123 -3.0821  0.4156
  447MOL0     H60315   5.707   9.420   7.825  2.0562 -1.7748  2.0584
  447MOL0     H60316   5.865   9.359   7.803 -0.4801  1.3446  2.6096
  447MOL0     H60317   5.641   9.351   7.589 -0.0490 -1.2094  0.0959
  447MOL0     H60318   5.796   9.262   7.590 -1.1823 -0.6916  0.4374
  447MOL0     H60319   5.566   9.230   7.781 -0.1549 -1.4655 -0.6323
  447MOL0     H60320   5.718   9.145   7.803 -1.5170 -0.8729  1.0452
  447MOL0     H60321   5.565   9.139   7.540  0.3024 -0.9780  0.1166
  447MOL0     H60322   5.704   9.045   7.573  1.6127  2.4073  2.9178
  447MOL0     H60323   5.460   9.028   7.754 -0.6383 -1.1988  1.4090
  447MOL0     H60324   5.601   8.917   7.733  0.5674  0.0259 -2.5646
  447MOL0     H60325   5.538   8.877   7.493 -0.5379  3.0193 -2.0338
  447MOL0     H60326   5.380   8.961   7.523 -0.1158  0.8898  1.0001
  447MOL0     H60327   5.647   9.797   8.030  4.3366 -3.6587  0.5611
  447MOL0     H60328   5.743   9.982   8.135 -0.5060  0.5199 -0.1812
  447MOL0     H60329   6.143  10.311   8.000  2.6093  2.3866 -0.7105
  447MOL0     H60330   6.295  10.454   8.125  1.6303  1.8504  3.1114
  447MOL0     H60331   8.034  10.479   8.140  0.9585  0.5144  0.3602
  447MOL0     H60332   8.172  10.376   7.962 -0.8838 -0.8513 -2.1545
  447MOL0     H60333   8.067   9.883   7.696  0.9196 -0.8069  2.7029
  447MOL0     H60334   8.222   9.726   7.602 -1.9449  0.6874  1.9746
  447MOL0     H60335   8.381   9.620   7.524  0.1249  1.4453 -1.4772
  447MOL0     H60336   8.553   9.612   7.483  2.5850  0.6033  2.1874
  447MOL0     H60337   8.483   9.501   7.706  0.1243  0.2326  0.8163
  447MOL0     H60338   8.456   9.665   7.768  1.2657 -1.4700  1.6458
  447MOL0     H60339   8.695   9.738   7.696  0.7797  0.6344  2.6611
  447MOL0     H60340   8.718   9.570   7.656  1.8199  3.0649 -1.1384
  447MOL0     H60341   8.617   9.664   7.918  1.7086  1.1062 -0.6311
  447MOL0     H60342   8.794   9.646   7.875  0.5550  0.9764 -2.4173
  447MOL0     H60343   8.646   9.254   7.954 -1.9656  1.0283  0.9246
  447MOL0     H60344   8.503  10.057   7.561  0.5676 -1.5524  3.1282
  447MOL0     H60345   8.348  10.210   7.629  0.0852  0.6027  0.5881
  448MOL0     O60346  11.179   2.829   0.895  0.3793  0.0906 -0.0228
  448MOL0     C60347  11.202   2.729   0.958  0.8619 -0.6839 -0.4648
  448MOL0     O60348  11.101   2.636   1.002  0.7678  0.6616 -0.1774
  448MOL0     C60349  10.972   2.683   1.007  0.1970  0.0787  0.6857
  448MOL0     C60350  10.929   2.813   1.038  0.2039  0.2078  0.2152
  448MOL0     C60351  10.792   2.834   1.051  1.0055 -0.0070 -0.5970
  448MOL0     C60352  10.687   2.736   1.035 -1.2068 -0.0424  0.0347
  448MOL0     O60353  10.544   2.754   1.047  0.3797  0.2886  0.4702
  448MOL0     C60354  10.503   2.876   1.114 -0.1692  0.3068 -0.0479
  448MOL0     C60355  10.347   2.865   1.129 -0.2980 -0.2994  0.1535
  448MOL0     C60356  10.308   2.841   1.275  0.3296  0.0067  1.3285
  448MOL0     C60357  10.158   2.798   1.301 -0.5395 -0.2012  0.6978
  448MOL0     C60358  10.141   2.773   1.452 -0.2736  0.5379 -0.4050
  448MOL0     C60359  10.004   2.710   1.486  0.4712  0.1853 -0.0417
  448MOL0     C60360   9.873   2.781   1.440  0.3787 -0.2065 -0.0102
  448MOL0     C60361   9.850   2.927   1.488  0.7590  0.1509  0.5689
  448MOL0     N60362   9.815   2.930   1.633 -0.8724  0.4493  0.9196
  448MOL0     C60363   9.718   2.853   1.689  0.9830 -0.3717  0.5951
  448MOL0     C60364   9.734   2.864   1.820 -0.7099 -0.3403 -0.2599
  448MOL0     C60365   9.661   2.775   1.924 -0.1622  0.0205  0.3306
  448MOL0     C60366   9.532   2.844   1.952  0.2041  0.9203 -0.7706
  448MOL0     C60367   9.422   2.817   1.845 -0.9612 -0.8711  0.1973
  448MOL0     C60368   9.285   2.879   1.888  0.3117  1.0400  0.8194
  448MOL0     O60369   9.184   2.775   1.900  0.0262 -0.4270 -0.1930
  448MOL0     C60370   9.051   2.810   1.877 -0.4309  0.3266  0.2129
  448MOL0     C60371   9.003   2.934   1.920 -0.6115  0.4024 -1.1262
  448MOL0     C60372   8.873   2.976   1.918 -0.1826 -0.3512  0.0934
  448MOL0     C60373   8.833   3.118   1.954  0.6782  0.1378 -0.3743
  448MOL0     C60374   8.782   2.886   1.860  0.0811 -0.2142 -0.1281
  448MOL0     C60375   8.646   2.918   1.822 -0.0457  0.2229 -0.3925
  448MOL0     O60376   8.595   2.866   1.708 -0.4564  0.1344  0.4646
  448MOL0     C60377   8.459   2.866   1.681  0.2872 -1.1940 -0.0878
  448MOL0     C60378   8.408   2.964   1.607  0.3806 -0.6439  0.0297
  448MOL0     C60379   8.279   2.959   1.551 -0.0832 -0.0703  0.7287
  448MOL0     C60380   8.196   2.854   1.577 -0.3068  0.2041 -0.2306
  448MOL0     O60381   8.076   2.861   1.512 -0.3740  0.2294 -0.4424
  448MOL0     C60382   8.014   2.737   1.489  0.2829  0.7434 -1.3492
  448MOL0     C60383   7.900   2.767   1.393  0.0608  0.2392 -0.6591
  448MOL0     C60384   7.803   2.876   1.448  0.0963  0.7366 -1.2628
  448MOL0     C60385   7.672   2.899   1.379  0.6130 -0.0321  1.0914
  448MOL0     C60386   7.585   2.777   1.346 -0.4346  0.0577 -0.2486
  448MOL0     C60387   7.438   2.806   1.334  0.7135  0.0040  0.7533
  448MOL0     C60388   7.375   2.866   1.464  0.4709 -0.2812  0.2801
  448MOL0     C60389   7.233   2.925   1.444 -0.6045  0.4847 -0.0652
  448MOL0    Cl60390   7.253   3.071   1.334  0.1238 -0.1500  0.1643
  448MOL0     C60391   8.240   2.748   1.663 -0.4552 -0.0918  0.1550
  448MOL0     C60392   8.377   2.755   1.714 -1.1922  0.2409  0.0340
  448MOL0     O60393   8.578   2.987   1.896 -0.5778  0.0650 -0.1701
  448MOL0     C60394   8.823   2.760   1.806  0.3964 -0.4704  0.5071
  448MOL0     C60395   8.957   2.719   1.819 -0.7477 -0.5725 -0.2520
  448MOL0     N60396   9.830   2.968   1.851 -0.5104 -0.5380 -0.1425
  448MOL0     N60397   9.878   2.997   1.733  0.3172 -0.8703 -0.4721
  448MOL0     C60398  10.743   2.603   1.008  0.1497 -0.8566  0.4028
  448MOL0     C60399  10.877   2.588   0.989 -0.1014  0.7477 -0.4497
  448MOL0     C60400  11.339   2.691   0.994  0.0624 -0.2815 -0.4138
  448MOL0     C60401  11.448   2.763   0.933 -0.1806 -0.0544  0.1513
  448MOL0     C60402  11.576   2.723   0.953 -0.4696 -0.4500 -0.2310
  448MOL0     C60403  11.608   2.613   1.029 -0.2421 -0.1874 -0.0573
  448MOL0     O60404  11.741   2.594   1.060 -0.5728 -0.0981  0.9117
  448MOL0     C60405  11.798   2.641   1.178 -0.5379  0.2144  0.2741
  448MOL0     C60406  11.953   2.667   1.160 -0.4308 -0.4098  0.0651
  448MOL0     C60407  11.992   2.793   1.097  0.4878  0.1828  0.9420
  448MOL0     C60408  12.119   2.861   1.163 -0.2192  0.6710 -0.2126
  448MOL0     C60409  12.248   2.788   1.138  0.5757 -0.0611  1.2172
  448MOL0     C60410  12.354   2.733   1.114  0.5087  0.0957  0.2523
  448MOL0     C60411  11.504   2.528   1.072 -0.8811 -0.4188  0.7521
  448MOL0     C60412  11.370   2.570   1.058 -0.8362  0.2752  0.6605
  448MOL0     H60413  10.991   2.900   1.021 -1.4628  1.1599 -1.4151
  448MOL0     H60414  10.768   2.935   1.081  3.7687  0.6403 -0.3113
  448MOL0     H60415  10.548   2.867   1.213  1.3799 -1.0647 -0.8188
  448MOL0     H60416  10.538   2.971   1.074 -0.5724  1.4169  2.1221
  448MOL0     H60417  10.293   2.956   1.100  0.2781 -0.2159 -0.7005
  448MOL0     H60418  10.297   2.791   1.064 -0.2324  0.6088 -0.9746
  448MOL0     H60419  10.369   2.769   1.330  0.6612 -0.7548  0.0090
  448MOL0     H60420  10.331   2.936   1.325  4.6846  0.0634 -0.3037
  448MOL0     H60421  10.090   2.875   1.264 -0.8045 -1.7198 -2.2670
  448MOL0     H60422  10.132   2.706   1.248 -3.2254  0.2352  1.1498
  448MOL0     H60423  10.203   2.688   1.483 -2.6378 -0.8034  0.9666
  448MOL0     H60424  10.158   2.860   1.515  0.7325  0.6458 -0.7981
  448MOL0     H60425  10.008   2.616   1.431 -0.6058  1.1219 -1.7871
  448MOL0     H60426   9.996   2.693   1.594 -1.6547  0.2956 -0.1496
  448MOL0     H60427   9.883   2.778   1.331  1.3376 -0.8230  0.0788
  448MOL0     H60428   9.785   2.721   1.468  0.6625 -1.7035 -2.0678
  448MOL0     H60429   9.763   2.959   1.429  1.4472 -1.3917 -1.3651
  448MOL0     H60430   9.930   2.996   1.461  0.2513 -0.1287 -1.8413
  448MOL0     H60431   9.660   2.778   1.637  1.1473  0.0162 -0.1657
  448MOL0     H60432   9.634   2.670   1.907  0.0973 -0.4918  2.7656
  448MOL0     H60433   9.726   2.770   2.012 -1.2713  1.6979  1.2939
  448MOL0     H60434   9.551   2.952   1.952 -0.7594  1.1507  1.4505
  448MOL0     H60435   9.490   2.810   2.047  0.0267 -3.5712 -2.2694
  448MOL0     H60436   9.417   2.708   1.841  0.4007 -0.9158 -2.0907
  448MOL0     H60437   9.452   2.855   1.747  0.0633  0.8371  1.1279
  448MOL0     H60438   9.241   2.958   1.827 -3.9566  0.7489  3.1042
  448MOL0     H60439   9.292   2.922   1.988 -2.0061 -0.8333  1.9005
  448MOL0     H60440   9.073   3.009   1.953 -0.1449  0.4350 -2.1644
  448MOL0     H60441   8.912   3.187   1.984  0.8620 -0.1596 -0.1663
  448MOL0     H60442   8.792   3.171   1.867  1.3352  0.4123 -0.5254
  448MOL0     H60443   8.757   3.105   2.031 -4.2050 -1.6070 -4.9234
  448MOL0     H60444   8.470   3.051   1.591 -0.3117 -0.3618 -1.2550
  448MOL0     H60445   8.243   3.039   1.488  3.1015 -0.8230 -2.3082
  448MOL0     H60446   8.086   2.665   1.450 -2.5068 -2.4125 -1.1206
  448MOL0     H60447   7.963   2.705   1.580 -2.2533  0.4190 -2.7917
  448MOL0     H60448   7.936   2.795   1.294 -0.4886 -0.2478 -1.0028
  448MOL0     H60449   7.857   2.667   1.387  0.3565  0.1389 -1.1255
  448MOL0     H60450   7.858   2.970   1.439 -1.7939  1.9239 -0.9576
  448MOL0     H60451   7.775   2.858   1.552  1.0689 -0.1867 -1.1391
  448MOL0     H60452   7.625   2.978   1.439  1.7615  1.6421 -0.1075
  448MOL0     H60453   7.698   2.946   1.284  3.1758  2.4893  2.8671
  448MOL0     H60454   7.608   2.707   1.427  1.1119 -0.5224 -1.1453
  448MOL0     H60455   7.629   2.735   1.256 -2.6788  0.5808 -1.6742
  448MOL0     H60456   7.423   2.881   1.256 -1.4247 -0.3110  0.7787
  448MOL0     H60457   7.375   2.721   1.306  3.0759 -1.5422 -0.1085
  448MOL0     H60458   7.438   2.945   1.505 -1.0526  2.0590 -1.5984
  448MOL0     H60459   7.368   2.782   1.534 -4.7707  0.2687  0.8952
  448MOL0     H60460   7.186   2.962   1.536 -1.8000  0.4794 -0.6635
  448MOL0     H60461   7.177   2.843   1.398  2.4149 -2.3085  0.7550
  448MOL0     H60462   8.174   2.662   1.675 -2.8760  1.4906 -1.1357
  448MOL0     H60463   8.411   2.668   1.769 -1.7172 -0.7672 -1.1813
  448MOL0     H60464   8.769   2.678   1.761  2.6741 -2.2896  0.8998
  448MOL0     H60465   8.993   2.622   1.788  1.0923  0.7442 -2.6109
  448MOL0     H60466  10.692   2.507   1.002  0.2967 -0.8470 -1.6185
  448MOL0     H60467  10.905   2.488   0.959  1.3235  1.1844 -0.6744
  448MOL0     H60468  11.423   2.845   0.866 -0.5423  2.2637  2.9395
  448MOL0     H60469  11.663   2.775   0.913  2.3399 -4.6406 -0.2531
  448MOL0     H60470  11.738   2.725   1.215 -0.9817 -0.1528  0.3993
  448MOL0     H60471  11.791   2.559   1.250  1.2966 -1.1318 -0.9905
  448MOL0     H60472  12.003   2.588   1.103 -0.7067 -0.8870  0.4796
  448MOL0     H60473  11.997   2.656   1.260  0.7525  0.5372 -0.3290
  448MOL0     H60474  11.914   2.869   1.101  0.0294 -0.2179 -0.3092
  448MOL0     H60475  11.999   2.780   0.989 -0.0267 -3.4258  1.2280
  448MOL0     H60476  12.117   2.857   1.272  1.4668  4.4585  0.1071
  448MOL0     H60477  12.118   2.965   1.128  0.0321  0.2449 -1.5226
  448MOL0     H60478  12.445   2.682   1.089  1.2864  0.9942  1.1361
  448MOL0     H60479  11.520   2.427   1.106 -0.5942 -0.5831  0.1282
  448MOL0     H60480  11.300   2.499   1.099 -2.0109  2.6062  2.9511
  449MOL0     O60481   6.227   5.924   5.729  0.5146  0.2560 -0.3864
  449MOL0     C60482   6.244   5.992   5.630 -0.0996  0.2545  0.2133
  449MOL0     O60483   6.288   6.120   5.630 -0.0512 -0.2749  0.4516
  449MOL0     C60484   6.281   6.186   5.747 -0.1376  0.3947 -0.6364
  449MOL0     C60485   6.157   6.260   5.767 -0.2137 -0.6549 -0.4683
  449MOL0     C60486   6.139   6.331   5.886 -0.8931 -0.0430 -0.0880
  449MOL0     C60487   6.248   6.337   5.988  0.6718  0.9430  0.3214
  449MOL0     O60488   6.229   6.410   6.100 -0.8808 -0.0453  0.0617
  449MOL0     C60489   6.226   6.549   6.071 -0.6968 -0.8657 -0.6235
  449MOL0     C60490   6.132   6.640   6.165  0.1607  0.6590  0.2473
  449MOL0     C60491   5.975   6.623   6.139 -0.0886 -0.9532 -0.8240
  449MOL0     C60492   5.920   6.733   6.042 -0.6557  0.0948 -0.0976
  449MOL0     C60493   5.767   6.737   6.037 -0.1262 -0.2480  0.2508
  449MOL0     C60494   5.720   6.618   5.953  1.0888  0.9447  0.4901
  449MOL0     C60495   5.570   6.641   5.921 -0.5329  0.4785 -0.4981
  449MOL0     C60496   5.531   6.745   5.820 -0.4475 -0.9663 -0.9813
  449MOL0     N60497   5.566   6.709   5.684 -0.1364  0.0024  1.0955
  449MOL0     C60498   5.635   6.769   5.590 -0.3789 -1.1432  0.4263
  449MOL0     C60499   5.615   6.712   5.474  1.4199 -0.5502  0.5403
  449MOL0     C60500   5.686   6.741   5.349  0.1605  1.0461  0.3612
  449MOL0     C60501   5.703   6.890   5.312  0.3320  1.3891 -0.2406
  449MOL0     C60502   5.799   6.900   5.190 -0.2372 -0.4280 -0.8662
  449MOL0     C60503   5.817   7.058   5.156 -0.0300 -0.1376 -0.0005
  449MOL0     O60504   5.702   7.120   5.094  0.2454  0.0666  0.0196
  449MOL0     C60505   5.664   7.248   5.126 -0.3158  0.4577  1.4852
  449MOL0     C60506   5.752   7.341   5.188  0.2726 -0.9500 -0.5994
  449MOL0     C60507   5.705   7.469   5.230  0.0710  0.1991 -1.2405
  449MOL0     C60508   5.804   7.558   5.300 -0.0366 -0.0160 -0.2998
  449MOL0     C60509   5.571   7.506   5.207 -0.0664  0.6080 -0.8719
  449MOL0     C60510   5.512   7.635   5.237  0.1900  0.3756 -0.4446
  449MOL0     O60511   5.411   7.682   5.155 -0.4308  0.1470 -0.0916
  449MOL0     C60512   5.319   7.759   5.211 -0.2417  0.4770  0.2946
  449MOL0     C60513   5.264   7.871   5.139 -0.0754  0.2540 -0.1839
  449MOL0     C60514   5.156   7.948   5.185  0.5580  0.1574  0.5002
  449MOL0     C60515   5.087   7.907   5.299  0.0717  0.3982 -0.0964
  449MOL0     O60516   4.977   7.974   5.343  0.1775  0.2887 -0.2357
  449MOL0     C60517   4.899   8.036   5.250  0.0973 -0.0217  0.1703
  449MOL0     C60518   4.782   8.092   5.326 -0.1961  1.0955  0.2793
  449MOL0     C60519   4.674   8.122   5.222  0.9432  0.1674 -0.6982
  449MOL0     C60520   4.575   8.208   5.293  0.9516 -0.3000 -0.0691
  449MOL0     C60521   4.443   8.240   5.224 -0.0265  0.2343 -0.4292
  449MOL0     C60522   4.356   8.112   5.212  0.2740 -1.1203 -0.3020
  449MOL0     C60523   4.223   8.139   5.146 -0.1728  0.1379  0.9541
  449MOL0     C60524   4.116   8.198   5.243  0.1551 -0.2124  0.2015
  449MOL0    Cl60525   3.963   8.246   5.167 -0.1449  0.4221  0.2221
  449MOL0     C60526   5.141   7.808   5.380  0.5511  0.2562 -0.1890
  449MOL0     C60527   5.259   7.732   5.339 -0.2003  0.0289  0.5847
  449MOL0     O60528   5.551   7.694   5.341 -0.2925 -0.6655  0.0289
  449MOL0     C60529   5.487   7.414   5.141  0.5208 -0.4971  0.1427
  449MOL0     C60530   5.528   7.287   5.101 -0.6428  0.3517 -0.5633
  449MOL0     N60531   5.526   6.601   5.500 -0.8467 -0.0844 -0.2806
  449MOL0     N60532   5.510   6.604   5.624 -0.7614  0.4111  0.4259
  449MOL0     C60533   6.356   6.250   5.968 -0.4781  0.4972  0.7965
  449MOL0     C60534   6.380   6.180   5.843  0.6013  0.2789  0.2479
  449MOL0     C60535   6.217   5.929   5.493 -0.9505 -0.4312  1.2326
  449MOL0     C60536   6.145   5.812   5.480 -0.8341 -0.1436  0.8920
  449MOL0     C60537   6.117   5.753   5.356 -0.5354  0.5820 -1.0262
  449MOL0     C60538   6.150   5.826   5.243 -0.0917  0.2416 -0.2379
  449MOL0     O60539   6.128   5.772   5.116  0.4386 -0.0086  0.3934
  449MOL0     C60540   6.043   5.852   5.026 -0.3765 -1.3300 -0.7363
  449MOL0     C60541   6.048   5.784   4.882  0.9419 -0.4226 -0.1259
  449MOL0     C60542   5.988   5.871   4.768 -0.8907 -0.1756  0.1302
  449MOL0     C60543   5.936   5.803   4.639  0.0142  0.4435 -1.1192
  449MOL0     C60544   6.042   5.723   4.573  0.2529 -0.3239 -0.2377
  449MOL0     C60545   6.122   5.668   4.503  0.5165 -0.5667 -0.2379
  449MOL0     C60546   6.219   5.934   5.252  0.6581 -0.0642  0.0014
  449MOL0     C60547   6.265   5.989   5.373  0.4951  0.0730  0.4752
  449MOL0     H60548   6.083   6.259   5.687 -0.6455  1.0070 -0.1195
  449MOL0     H60549   6.047   6.385   5.906  0.6446  2.2658  1.3286
  449MOL0     H60550   6.329   6.585   6.086 -1.1047  1.7553 -3.1263
  449MOL0     H60551   6.203   6.567   5.965 -2.5357  0.9132  0.0132
  449MOL0     H60552   6.140   6.621   6.272 -0.8844 -0.5299  0.1354
  449MOL0     H60553   6.157   6.745   6.148 -0.9266  0.8368 -0.3469
  449MOL0     H60554   5.972   6.522   6.096  2.0045 -0.5854 -1.9455
  449MOL0     H60555   5.922   6.635   6.234  1.7109  2.1893 -0.0649
  449MOL0     H60556   5.968   6.827   6.071  4.4200 -2.0914 -0.2324
  449MOL0     H60557   5.958   6.715   5.941 -2.0581 -0.6965 -0.5038
  449MOL0     H60558   5.718   6.748   6.134 -0.9121 -1.1178 -0.0351
  449MOL0     H60559   5.738   6.824   5.977  1.5886  0.3101  0.1768
  449MOL0     H60560   5.778   6.599   5.862 -0.5618  0.4554 -0.4942
  449MOL0     H60561   5.714   6.530   6.018 -2.1487  0.3255 -0.4786
  449MOL0     H60562   5.517   6.548   5.901  0.4019 -0.2270  0.2358
  449MOL0     H60563   5.527   6.672   6.017 -0.7648 -3.6115  0.9336
  449MOL0     H60564   5.572   6.843   5.843 -0.5198 -1.4610  1.5692
  449MOL0     H60565   5.422   6.755   5.807 -0.5007 -1.6893 -1.1267
  449MOL0     H60566   5.707   6.847   5.613  1.5818 -2.4175 -1.0889
  449MOL0     H60567   5.784   6.694   5.358 -1.0780 -1.4534  2.0441
  449MOL0     H60568   5.638   6.695   5.262  0.7169  1.2722 -0.0733
  449MOL0     H60569   5.740   6.942   5.401  0.3742 -2.7736  2.4582
  449MOL0     H60570   5.602   6.925   5.291 -0.4337  0.2146  1.3556
  449MOL0     H60571   5.767   6.838   5.105  3.3030 -1.1171 -1.8951
  449MOL0     H60572   5.897   6.873   5.229  0.0592  1.5834 -0.0949
  449MOL0     H60573   5.886   7.065   5.072  0.0219 -0.8955 -0.0305
  449MOL0     H60574   5.849   7.104   5.249 -1.6907  1.7983 -0.3198
  449MOL0     H60575   5.856   7.314   5.196  1.3990  2.6848 -1.2586
  449MOL0     H60576   5.778   7.561   5.406  1.6419 -0.2571  0.1575
  449MOL0     H60577   5.909   7.529   5.285  0.7459  2.5331 -0.2074
  449MOL0     H60578   5.805   7.662   5.269  0.1014  1.0450  2.8847
  449MOL0     H60579   5.321   7.885   5.048  0.8712 -3.5392 -0.3159
  449MOL0     H60580   5.128   8.029   5.117 -0.8702  2.1717  3.2744
  449MOL0     H60581   4.945   8.123   5.202  1.3940 -1.0960 -0.6195
  449MOL0     H60582   4.861   7.968   5.173 -1.6533 -2.8597  3.2824
  449MOL0     H60583   4.749   8.011   5.392  0.3301 -1.4214 -2.3594
  449MOL0     H60584   4.824   8.177   5.380 -0.5472  2.5369 -1.6390
  449MOL0     H60585   4.626   8.028   5.193  2.6368 -0.2419 -2.3623
  449MOL0     H60586   4.701   8.169   5.127 -1.4408 -1.3530 -2.2489
  449MOL0     H60587   4.543   8.164   5.388  0.3962 -1.4569 -0.7711
  449MOL0     H60588   4.626   8.303   5.311  0.2741  0.0409  0.0553
  449MOL0     H60589   4.457   8.279   5.123 -2.6500  0.8511 -0.6347
  449MOL0     H60590   4.391   8.316   5.284  2.2015  2.7160 -1.4693
  449MOL0     H60591   4.409   8.040   5.148  0.6129  1.0876 -2.6620
  449MOL0     H60592   4.333   8.068   5.310  0.4874 -2.2025 -0.7181
  449MOL0     H60593   4.172   8.051   5.106  0.8910 -0.3575  0.6547
  449MOL0     H60594   4.232   8.197   5.053  1.4135 -2.6717 -0.7982
  449MOL0     H60595   4.155   8.293   5.280  0.9356  0.2064 -1.6021
  449MOL0     H60596   4.098   8.130   5.327  0.4416 -0.9298 -0.3083
  449MOL0     H60597   5.092   7.790   5.476  2.0072 -0.2735  0.4841
  449MOL0     H60598   5.306   7.644   5.384 -1.6452 -2.3539 -2.2037
  449MOL0     H60599   5.388   7.444   5.107  1.6911  0.9655 -2.2573
  449MOL0     H60600   5.455   7.221   5.055  1.1860  0.7161 -4.4344
  449MOL0     H60601   6.431   6.248   6.047 -0.9479  0.0998  1.2409
  449MOL0     H60602   6.466   6.117   5.820  0.8479  0.4610  0.6738
  449MOL0     H60603   6.118   5.761   5.572  1.1301 -2.1296  0.4580
  449MOL0     H60604   6.063   5.659   5.348 -0.2778  0.3578 -0.2744
  449MOL0     H60605   5.942   5.874   5.060  0.6338  1.3422  0.8374
  449MOL0     H60606   6.089   5.951   5.017  2.2102 -2.3058  0.5090
  449MOL0     H60607   5.988   5.694   4.896 -2.5432  1.6202 -0.7534
  449MOL0     H60608   6.152   5.761   4.859  1.1819  0.3931  0.1097
  449MOL0     H60609   6.063   5.946   4.739 -2.9216  1.3009 -1.6789
  449MOL0     H60610   5.915   5.944   4.804  0.4449  2.4301 -2.0597
  449MOL0     H60611   5.887   5.879   4.578 -2.1545  0.1607  0.1830
  449MOL0     H60612   5.864   5.727   4.670  1.0001 -0.0622  0.0349
  449MOL0     H60613   6.202   5.625   4.446  0.4051 -0.4858 -0.4560
  449MOL0     H60614   6.254   5.984   5.162  4.1427  0.3315  1.4352
  449MOL0     H60615   6.328   6.077   5.372  0.5791  0.0103  0.0219
  450MOL0     O60616   6.543   7.409   3.864 -0.5833 -0.3028  0.6077
  450MOL0     C60617   6.622   7.352   3.942 -0.1641  0.7120  0.4391
  450MOL0     O60618   6.592   7.307   4.067 -0.1816 -0.4935 -0.8935
  450MOL0     C60619   6.481   7.370   4.123  0.9844 -0.0662 -1.0607
  450MOL0     C60620   6.364   7.295   4.168 -0.1624  0.2379 -0.2183
  450MOL0     C60621   6.253   7.348   4.232  0.7458  0.9907  0.8902
  450MOL0     C60622   6.238   7.486   4.222  0.9819 -0.1018  0.4741
  450MOL0     O60623   6.119   7.538   4.265 -0.3458  0.3394  0.6365
  450MOL0     C60624   6.065   7.646   4.186  0.2079 -0.3290  0.4500
  450MOL0     C60625   6.052   7.765   4.281  0.2956 -0.6485  0.1081
  450MOL0     C60626   5.939   7.759   4.378  0.0169  1.0721 -0.4155
  450MOL0     C60627   5.914   7.885   4.465 -0.1107 -0.1236  0.7622
  450MOL0     C60628   5.864   7.997   4.378 -0.3544 -0.4369 -0.2894
  450MOL0     C60629   5.715   8.000   4.377 -0.1627 -0.5060  0.4562
  450MOL0     C60630   5.636   8.084   4.274  0.5164  0.7202 -0.6406
  450MOL0     C60631   5.627   8.230   4.316  0.3619 -0.6548  0.6557
  450MOL0     N60632   5.579   8.255   4.451  0.7873 -0.2426 -0.7168
  450MOL0     C60633   5.449   8.263   4.483 -0.0258  0.2511  0.5057
  450MOL0     C60634   5.450   8.345   4.594 -0.4061 -0.4469 -0.2956
  450MOL0     C60635   5.332   8.393   4.670  0.4308  0.4579 -0.0681
  450MOL0     C60636   5.270   8.515   4.607 -0.8292  0.1049 -0.6508
  450MOL0     C60637   5.195   8.490   4.480 -0.2915  0.6739 -0.3645
  450MOL0     C60638   5.103   8.607   4.449  0.1985 -0.4182  0.2792
  450MOL0     O60639   5.046   8.610   4.314 -0.8739 -1.0695 -0.6226
  450MOL0     C60640   4.923   8.670   4.307 -0.8072 -0.5362  0.9088
  450MOL0     C60641   4.840   8.616   4.208 -0.1450 -1.0272 -0.5107
  450MOL0     C60642   4.711   8.670   4.187  0.3752 -0.2897  0.3913
  450MOL0     C60643   4.631   8.606   4.069  0.7674  0.6061 -0.1878
  450MOL0     C60644   4.659   8.764   4.278 -0.6510 -0.0668 -0.2808
  450MOL0     C60645   4.522   8.810   4.271 -0.0289  0.6580  0.2376
  450MOL0     O60646   4.429   8.712   4.294  0.1109  0.7939 -0.1205
  450MOL0     C60647   4.293   8.734   4.272  0.4415 -0.5659 -0.7828
  450MOL0     C60648   4.230   8.849   4.326 -0.2938  0.6458  0.6994
  450MOL0     C60649   4.088   8.860   4.318  0.1477 -0.6899  0.3140
  450MOL0     C60650   4.008   8.758   4.267 -0.2274 -0.2452 -0.5156
  450MOL0     O60651   3.869   8.759   4.270 -0.8134 -0.1577  0.0335
  450MOL0     C60652   3.803   8.864   4.335  0.2559  0.1534 -0.3389
  450MOL0     C60653   3.664   8.869   4.273 -0.0386 -0.3574 -0.1024
  450MOL0     C60654   3.591   8.732   4.289  1.7755 -0.4766  0.0669
  450MOL0     C60655   3.454   8.745   4.233  0.1047 -0.2449  0.4231
  450MOL0     C60656   3.345   8.676   4.316  0.4367 -0.2930  0.5100
  450MOL0     C60657   3.280   8.756   4.431  0.5821  0.1101  0.0522
  450MOL0     C60658   3.162   8.688   4.493 -0.6872  0.7618 -0.4672
  450MOL0     C60659   3.067   8.782   4.565 -0.4447 -0.3043  0.0087
  450MOL0    Cl60660   2.995   8.906   4.458 -0.3502 -0.3515 -0.0697
  450MOL0     C60661   4.077   8.652   4.212 -0.1919 -0.3201  0.2398
  450MOL0     C60662   4.214   8.634   4.216 -0.0459 -1.8554  0.3119
  450MOL0     O60663   4.498   8.920   4.228 -0.1725 -0.2832  0.3562
  450MOL0     C60664   4.742   8.826   4.373 -0.5733 -0.1020  0.3011
  450MOL0     C60665   4.873   8.772   4.387  0.1148 -0.3525 -0.1786
  450MOL0     N60666   5.588   8.379   4.616 -0.9756 -0.1404 -0.0191
  450MOL0     N60667   5.665   8.326   4.535  0.8882  0.0248 -0.8090
  450MOL0     C60668   6.349   7.565   4.179  0.3229  0.2576 -0.4720
  450MOL0     C60669   6.471   7.502   4.131  0.4306 -0.7804 -0.4650
  450MOL0     C60670   6.756   7.309   3.891  1.4669  0.8513  0.9735
  450MOL0     C60671   6.799   7.352   3.764  0.2498  0.6975  0.2097
  450MOL0     C60672   6.924   7.308   3.715 -0.0518 -0.3552  0.0009
  450MOL0     C60673   7.000   7.216   3.787 -0.4388  0.1414  0.0108
  450MOL0     O60674   7.108   7.156   3.725 -0.3552  0.4892 -0.4103
  450MOL0     C60675   7.187   7.050   3.785 -0.4765 -0.1761 -0.2208
  450MOL0     C60676   7.304   7.002   3.690  0.5139  0.6755  0.0878
  450MOL0     C60677   7.353   6.863   3.739  0.2374  0.3961  0.0969
  450MOL0     C60678   7.480   6.817   3.654  0.2409  0.3446  0.5541
  450MOL0     C60679   7.577   6.759   3.750 -0.4129 -0.8129  0.0338
  450MOL0     C60680   7.659   6.700   3.829  0.7034 -0.1754  0.4534
  450MOL0     C60681   6.964   7.185   3.916  0.1789 -0.8542  0.4840
  450MOL0     C60682   6.850   7.237   3.967  0.9515 -0.1577  0.1905
  450MOL0     H60683   6.369   7.186   4.173  0.6392  0.2536 -0.4440
  450MOL0     H60684   6.166   7.294   4.269  0.1827  2.4381  1.7798
  450MOL0     H60685   6.131   7.678   4.104 -0.3344  2.6341  1.0750
  450MOL0     H60686   5.977   7.603   4.139  0.1503  0.6050 -0.3209
  450MOL0     H60687   6.146   7.781   4.334  0.6319 -1.1491 -0.3272
  450MOL0     H60688   6.035   7.853   4.219 -0.6336 -1.4311 -0.7967
  450MOL0     H60689   5.849   7.729   4.324 -1.2295  1.7039  1.1977
  450MOL0     H60690   5.959   7.672   4.442  4.6478  0.9109 -1.7418
  450MOL0     H60691   5.844   7.873   4.549 -2.7395  0.2800 -1.2605
  450MOL0     H60692   6.009   7.924   4.504 -0.3525  1.1714  0.0809
  450MOL0     H60693   5.889   8.093   4.424  0.1562  0.6941 -2.7435
  450MOL0     H60694   5.901   7.999   4.275 -0.3143  2.4099 -0.2991
  450MOL0     H60695   5.697   7.894   4.360  0.5578 -0.6683  0.6829
  450MOL0     H60696   5.691   8.023   4.481  1.0140 -0.4260  0.7202
  450MOL0     H60697   5.677   8.079   4.172 -2.6790  1.4277 -2.0729
  450MOL0     H60698   5.533   8.048   4.270  1.1884 -1.7293  1.7013
  450MOL0     H60699   5.564   8.283   4.245  1.0687  0.6250  0.9604
  450MOL0     H60700   5.726   8.270   4.293 -0.7082  1.4611 -0.6009
  450MOL0     H60701   5.366   8.227   4.424  0.3694  4.0437 -2.8223
  450MOL0     H60702   5.266   8.306   4.674  1.3208 -0.2365 -0.1963
  450MOL0     H60703   5.368   8.431   4.766  2.0409  4.3337 -1.9769
  450MOL0     H60704   5.345   8.591   4.584  0.7069 -1.7141 -1.9632
  450MOL0     H60705   5.200   8.555   4.681 -0.6825  0.1022 -0.5125
  450MOL0     H60706   5.122   8.409   4.493  1.8976 -1.1507  1.4563
  450MOL0     H60707   5.261   8.469   4.395  1.3473 -1.8610  1.3941
  450MOL0     H60708   5.155   8.700   4.473 -0.4972  0.2542 -0.7434
  450MOL0     H60709   5.027   8.601   4.528  0.7592 -0.0114  0.8538
  450MOL0     H60710   4.891   8.542   4.148  0.9125 -0.4059 -0.3967
  450MOL0     H60711   4.575   8.517   4.103 -0.0631 -0.0967 -3.0882
  450MOL0     H60712   4.561   8.676   4.023  0.5481  0.2190 -0.4559
  450MOL0     H60713   4.696   8.562   3.993 -0.7160  0.2911 -1.3368
  450MOL0     H60714   4.284   8.926   4.380 -0.3283  1.4680 -0.4145
  450MOL0     H60715   4.055   8.953   4.361  0.2862 -0.1337 -0.7498
  450MOL0     H60716   3.792   8.855   4.443 -3.4383  1.1855 -0.5009
  450MOL0     H60717   3.852   8.961   4.321  1.3781 -0.7477 -3.6786
  450MOL0     H60718   3.616   8.949   4.329 -1.0453  1.3871 -3.2050
  450MOL0     H60719   3.661   8.895   4.167 -0.7558 -1.6029 -0.4169
  450MOL0     H60720   3.580   8.711   4.395 -0.3222 -0.8944 -0.1874
  450MOL0     H60721   3.651   8.649   4.250  1.5271 -0.6454  0.0411
  450MOL0     H60722   3.427   8.852   4.234  1.8369  0.2172  0.6715
  450MOL0     H60723   3.453   8.698   4.135 -0.1735 -0.5138  0.5510
  450MOL0     H60724   3.375   8.576   4.349  1.3342 -0.9345 -1.9925
  450MOL0     H60725   3.261   8.662   4.247  0.5910  1.4040 -0.0771
  450MOL0     H60726   3.351   8.788   4.508  0.5439  0.7862 -0.1840
  450MOL0     H60727   3.245   8.853   4.394  0.1720 -0.0730 -0.0501
  450MOL0     H60728   3.213   8.625   4.567  0.6072  1.8471 -0.4015
  450MOL0     H60729   3.109   8.626   4.420  0.2713 -1.7208  0.7924
  450MOL0     H60730   3.130   8.829   4.642 -1.7348  0.0679  0.8628
  450MOL0     H60731   2.984   8.735   4.618 -0.3253  2.7270  3.2552
  450MOL0     H60732   4.022   8.579   4.153  2.2322 -2.0754 -0.0012
  450MOL0     H60733   4.268   8.555   4.166  0.6935 -0.7881 -0.6371
  450MOL0     H60734   4.710   8.916   4.424 -0.7695  2.2865 -3.6241
  450MOL0     H60735   4.931   8.811   4.470 -1.0618  0.5293  0.2515
  450MOL0     H60736   6.349   7.673   4.191  4.0212  0.0963  3.2859
  450MOL0     H60737   6.554   7.562   4.097 -2.3257  3.6051 -0.2747
  450MOL0     H60738   6.734   7.422   3.711 -0.5317 -0.5709 -0.5559
  450MOL0     H60739   6.963   7.333   3.617 -0.7035 -1.1561 -0.4845
  450MOL0     H60740   7.243   7.079   3.874  2.8863 -1.4225 -1.7642
  450MOL0     H60741   7.115   6.971   3.808 -1.1221 -0.2280 -2.2195
  450MOL0     H60742   7.383   7.076   3.679  1.3919  0.3009  3.1008
  450MOL0     H60743   7.254   6.996   3.593  1.7161  0.9986 -0.5723
  450MOL0     H60744   7.269   6.794   3.724  0.9660 -0.3703 -0.6030
  450MOL0     H60745   7.374   6.867   3.847 -1.1054  1.2974  0.3430
  450MOL0     H60746   7.531   6.895   3.596  1.6936  1.1882  2.8281
  450MOL0     H60747   7.451   6.735   3.587 -1.0395  0.8599  0.4442
  450MOL0     H60748   7.728   6.649   3.893 -0.7747 -2.0051  0.6803
  450MOL0     H60749   7.027   7.118   3.973  0.1461 -3.6948 -2.4605
  450MOL0     H60750   6.831   7.207   4.070 -0.8508 -0.0254 -0.0798
  451MOL0     O60751   7.731   0.810   5.650  0.0124  0.4056  0.6293
  451MOL0     C60752   7.763   0.885   5.556 -0.6188 -0.6662 -0.1850
  451MOL0     O60753   7.700   1.005   5.525 -0.3551  0.4024 -0.3656
  451MOL0     C60754   7.601   1.062   5.604 -0.2442  0.3868  0.1281
  451MOL0     C60755   7.565   1.032   5.740 -0.3662 -0.0640 -0.2777
  451MOL0     C60756   7.458   1.087   5.800  1.2013 -1.3606 -0.3057
  451MOL0     C60757   7.374   1.180   5.734  0.8659  1.0066 -0.5999
  451MOL0     O60758   7.265   1.224   5.810 -0.2863 -0.4710  0.2788
  451MOL0     C60759   7.156   1.280   5.742  0.1771 -0.8919 -1.0323
  451MOL0     C60760   7.059   1.181   5.669 -0.6240  0.1896  0.1547
  451MOL0     C60761   6.947   1.272   5.591 -0.1940  0.9063  0.8126
  451MOL0     C60762   6.881   1.381   5.678  0.3840  0.4053 -0.2317
  451MOL0     C60763   6.803   1.483   5.596 -0.5334 -0.5272 -1.4370
  451MOL0     C60764   6.671   1.438   5.539  0.3746  0.0760 -0.2058
  451MOL0     C60765   6.573   1.405   5.643  1.0359 -0.6569 -1.2292
  451MOL0     C60766   6.433   1.358   5.597 -0.3529 -0.0201 -0.0705
  451MOL0     N60767   6.352   1.475   5.557 -0.1339  0.4269  0.5916
  451MOL0     C60768   6.273   1.557   5.635  0.4480 -0.4156 -0.3367
  451MOL0     C60769   6.193   1.633   5.552 -0.3227  0.5788  0.1800
  451MOL0     C60770   6.092   1.733   5.601 -0.1303  0.0182 -0.6525
  451MOL0     C60771   5.948   1.680   5.599 -0.0523  0.0198  0.4150
  451MOL0     C60772   5.877   1.708   5.729  0.8095 -0.5357  0.1298
  451MOL0     C60773   5.764   1.611   5.739  1.4106  0.5497 -0.1498
  451MOL0     O60774   5.686   1.610   5.627 -0.2591 -0.3530 -0.0830
  451MOL0     C60775   5.549   1.574   5.617 -0.2651 -0.4336 -0.3171
  451MOL0     C60776   5.469   1.618   5.504 -0.3328 -0.0407  0.6322
  451MOL0     C60777   5.329   1.595   5.498 -0.7677 -1.3115  1.4061
  451MOL0     C60778   5.269   1.620   5.358 -0.8630 -0.8789 -0.2457
  451MOL0     C60779   5.261   1.552   5.613  0.0030 -0.8417  0.9684
  451MOL0     C60780   5.116   1.550   5.620 -0.9077  0.7779 -0.3185
  451MOL0     O60781   5.053   1.620   5.535  0.4475 -0.3809  0.3321
  451MOL0     C60782   4.915   1.591   5.526  1.1211  0.2847  0.8462
  451MOL0     C60783   4.822   1.592   5.633  0.1721 -0.6592 -0.3456
  451MOL0     C60784   4.684   1.573   5.609 -0.0828 -0.2461 -0.6888
  451MOL0     C60785   4.631   1.542   5.477  0.6366  1.1181 -0.3642
  451MOL0     O60786   4.501   1.507   5.458  0.6555  0.5561  0.3509
  451MOL0     C60787   4.430   1.456   5.570  0.3009  0.3017 -0.0293
  451MOL0     C60788   4.281   1.431   5.531 -1.6403  0.3395  0.4848
  451MOL0     C60789   4.199   1.548   5.471  0.6114 -0.0718  0.1909
  451MOL0     C60790   4.055   1.509   5.443  0.0645  0.0311 -0.2469
  451MOL0     C60791   3.985   1.627   5.376 -0.4751  0.1245 -0.2439
  451MOL0     C60792   3.840   1.593   5.386  0.0179  0.9300  0.6943
  451MOL0     C60793   3.748   1.695   5.315 -0.4197 -0.2877 -0.4313
  451MOL0     C60794   3.605   1.643   5.310 -0.0532 -0.1323  0.2434
  451MOL0    Cl60795   3.603   1.512   5.189 -0.1333  0.3565 -0.0697
  451MOL0     C60796   4.729   1.533   5.374 -0.1114  0.1222  0.3809
  451MOL0     C60797   4.862   1.562   5.398 -0.0622 -0.4122  0.6067
  451MOL0     O60798   5.071   1.476   5.712  0.2274  0.4149  0.8077
  451MOL0     C60799   5.336   1.494   5.723  0.7960 -1.0931  0.2784
  451MOL0     C60800   5.472   1.513   5.722 -0.2566 -0.4697 -0.1158
  451MOL0     N60801   6.230   1.592   5.425 -0.5356 -0.5326  0.0744
  451MOL0     N60802   6.311   1.491   5.428  0.1681 -0.2870 -0.3888
  451MOL0     C60803   7.405   1.213   5.609 -0.2069  0.1108  0.4575
  451MOL0     C60804   7.514   1.153   5.538  0.0650 -0.0482  0.6937
  451MOL0     C60805   7.901   0.870   5.500  0.0079 -0.9263  0.4635
  451MOL0     C60806   7.977   0.977   5.443  0.1358 -0.4385 -0.2891
  451MOL0     C60807   8.103   0.954   5.388  0.1317 -0.5403 -0.5902
  451MOL0     C60808   8.155   0.825   5.378  0.2364  0.6764 -0.4373
  451MOL0     O60809   8.276   0.811   5.322 -0.0529 -0.1452 -0.3020
  451MOL0     C60810   8.306   0.695   5.252 -0.2948  0.4139  0.1688
  451MOL0     C60811   8.433   0.701   5.171 -0.3048  0.7228  0.2477
  451MOL0     C60812   8.436   0.592   5.054 -0.4643  0.7579  0.5753
  451MOL0     C60813   8.566   0.605   4.972 -0.2015 -0.2021 -0.8677
  451MOL0     C60814   8.686   0.568   5.047 -0.3732 -0.2924  0.3776
  451MOL0     C60815   8.776   0.508   5.097  0.8059 -0.4833  0.0951
  451MOL0     C60816   8.079   0.718   5.440 -0.0725  0.8154  0.5507
  451MOL0     C60817   7.962   0.741   5.498  0.4393 -0.5133  0.9847
  451MOL0     H60818   7.644   0.984   5.797  0.4763  0.6180 -0.8482
  451MOL0     H60819   7.432   1.056   5.901  1.2476 -1.0998 -0.2101
  451MOL0     H60820   7.097   1.331   5.819  0.8709 -1.2438 -0.2531
  451MOL0     H60821   7.190   1.359   5.675  1.1554 -3.4745 -3.7646
  451MOL0     H60822   7.119   1.121   5.599  0.5629  2.2831 -0.7230
  451MOL0     H60823   7.012   1.107   5.735 -1.8800  0.4231 -0.4565
  451MOL0     H60824   6.988   1.322   5.503 -4.4037  0.7301 -1.5237
  451MOL0     H60825   6.864   1.206   5.563  0.1482  0.8093 -0.0140
  451MOL0     H60826   6.813   1.332   5.747 -1.5578  0.9875 -1.6447
  451MOL0     H60827   6.946   1.438   5.745  0.8152 -0.9777  0.5584
  451MOL0     H60828   6.795   1.573   5.658 -4.7125  0.0675 -2.5051
  451MOL0     H60829   6.869   1.500   5.511  3.2806 -1.4130  1.0813
  451MOL0     H60830   6.635   1.519   5.475  1.1459 -0.3132 -1.1608
  451MOL0     H60831   6.700   1.353   5.477 -0.4897 -0.5081  0.1708
  451MOL0     H60832   6.605   1.338   5.723  1.5342  1.2113  0.1995
  451MOL0     H60833   6.548   1.495   5.699  3.3746 -1.8192  1.9229
  451MOL0     H60834   6.378   1.305   5.675 -0.3087 -2.4673 -1.5903
  451MOL0     H60835   6.446   1.293   5.510  1.2597  1.6154 -1.1279
  451MOL0     H60836   6.257   1.561   5.742 -0.4261 -1.4271 -0.4107
  451MOL0     H60837   6.112   1.755   5.707  3.5449  1.6871 -1.5270
  451MOL0     H60838   6.098   1.824   5.540 -2.5924  0.8826  0.2398
  451MOL0     H60839   5.964   1.573   5.584  0.2090  0.1668 -0.3987
  451MOL0     H60840   5.897   1.719   5.511 -2.3460  0.2608  1.7677
  451MOL0     H60841   5.830   1.806   5.723  2.8909  0.5367  0.2682
  451MOL0     H60842   5.941   1.693   5.817 -0.2406 -0.8943  0.8478
  451MOL0     H60843   5.702   1.647   5.822 -2.5787 -2.2502 -1.6073
  451MOL0     H60844   5.790   1.507   5.759 -1.9566 -0.9954 -2.8038
  451MOL0     H60845   5.519   1.652   5.414 -1.0684  0.1386  0.2820
  451MOL0     H60846   5.354   1.611   5.290 -0.1510 -2.1442  0.7681
  451MOL0     H60847   5.188   1.553   5.329 -2.1678  0.5753 -0.0601
  451MOL0     H60848   5.227   1.720   5.353 -0.0812 -0.5643 -0.7041
  451MOL0     H60849   4.856   1.619   5.732  2.3016 -0.4878 -1.0719
  451MOL0     H60850   4.617   1.585   5.694 -2.1860 -0.2183 -2.2749
  451MOL0     H60851   4.471   1.360   5.603  0.8456  0.2023 -0.9691
  451MOL0     H60852   4.432   1.523   5.656  1.6481 -0.8777  0.9190
  451MOL0     H60853   4.274   1.347   5.462 -0.3532  1.3042 -0.8844
  451MOL0     H60854   4.234   1.396   5.623  0.6125  0.5598  1.7832
  451MOL0     H60855   4.242   1.577   5.374  2.4315 -0.3960  0.8561
  451MOL0     H60856   4.216   1.636   5.534 -0.5840  1.5685 -1.6716
  451MOL0     H60857   4.055   1.420   5.381  1.1535 -1.6866  2.0478
  451MOL0     H60858   4.012   1.478   5.539 -0.5146  0.3389 -0.4017
  451MOL0     H60859   4.021   1.629   5.273  5.0059 -0.2223  1.3603
  451MOL0     H60860   4.012   1.716   5.435  1.5052 -0.2360 -0.5452
  451MOL0     H60861   3.822   1.490   5.356 -3.1551  0.8171  2.5535
  451MOL0     H60862   3.821   1.599   5.493 -0.3030  0.5581  0.6583
  451MOL0     H60863   3.789   1.711   5.215 -0.9786 -0.0697 -0.6332
  451MOL0     H60864   3.755   1.786   5.376  1.0140 -1.3179  1.0213
  451MOL0     H60865   3.542   1.718   5.260 -0.8601 -1.0126 -0.0915
  451MOL0     H60866   3.571   1.612   5.409 -2.4184 -0.4384 -0.5997
  451MOL0     H60867   4.698   1.495   5.277  0.6095  0.1548  0.1308
  451MOL0     H60868   4.933   1.548   5.317  3.0676  0.0367  3.0794
  451MOL0     H60869   5.294   1.447   5.811  1.4806  0.3125  1.3932
  451MOL0     H60870   5.517   1.485   5.817  0.0094 -0.9229 -0.3764
  451MOL0     H60871   7.352   1.298   5.567 -0.5354 -2.1436 -4.2772
  451MOL0     H60872   7.546   1.185   5.439  0.1683 -0.4174  0.6080
  451MOL0     H60873   7.942   1.080   5.446 -1.5056 -0.8216 -2.8901
  451MOL0     H60874   8.174   1.034   5.369 -1.9278  1.2535 -1.1059
  451MOL0     H60875   8.313   0.612   5.324 -1.4391  0.5500  0.4396
  451MOL0     H60876   8.217   0.666   5.196  0.8960 -0.7257 -1.2319
  451MOL0     H60877   8.518   0.697   5.239 -2.2835  0.8959  2.8908
  451MOL0     H60878   8.445   0.799   5.124  0.2102 -0.6695 -2.7946
  451MOL0     H60879   8.350   0.601   4.987  0.3488 -1.0742 -0.8150
  451MOL0     H60880   8.434   0.501   5.115 -1.8576  1.4315  1.5979
  451MOL0     H60881   8.592   0.706   4.939  0.4656 -0.2368 -0.4532
  451MOL0     H60882   8.546   0.544   4.884  0.5841  1.7956 -2.4947
  451MOL0     H60883   8.863   0.455   5.128  0.1116 -1.4606  0.4015
  451MOL0     H60884   8.114   0.615   5.436 -3.8517 -0.5829 -1.3866
  451MOL0     H60885   7.910   0.661   5.549  1.5021  0.2994  3.4716
  452MOL0     O60886   4.625   5.539   6.120 -0.3831 -0.4210  1.8044
  452MOL0     C60887   4.666   5.566   6.000 -0.5703 -0.7085 -0.4867
  452MOL0     O60888   4.624   5.508   5.890  1.2704 -0.5625  0.3442
  452MOL0     C60889   4.529   5.408   5.903  0.7946  0.0721  0.7171
  452MOL0     C60890   4.390   5.435   5.911  0.2021  0.6839  0.1836
  452MOL0     C60891   4.305   5.326   5.926 -0.4100  0.6644 -0.0836
  452MOL0     C60892   4.346   5.197   5.928 -0.6874 -0.0205  0.1170
  452MOL0     O60893   4.270   5.096   5.978  0.8568  0.1995  0.2272
  452MOL0     C60894   4.154   5.067   5.901  0.3392  0.3532  0.2831
  452MOL0     C60895   4.194   4.953   5.810  0.2313 -0.2011 -0.5028
  452MOL0     C60896   4.094   4.911   5.703  0.2741 -0.7796  0.2906
  452MOL0     C60897   4.154   4.825   5.586  0.0550 -1.6042 -0.3457
  452MOL0     C60898   4.043   4.782   5.492 -0.1759 -0.6006 -0.5991
  452MOL0     C60899   4.079   4.677   5.382  0.5187 -0.7605 -0.9020
  452MOL0     C60900   3.966   4.637   5.292  0.4696  0.0473 -0.2321
  452MOL0     C60901   4.031   4.590   5.164  0.1745 -0.2361 -0.2391
  452MOL0     N60902   3.930   4.537   5.080 -0.3387 -0.3765  0.8246
  452MOL0     C60903   3.870   4.623   4.985 -1.3428 -0.1590  0.9419
  452MOL0     C60904   3.767   4.548   4.938 -0.0570  0.0489 -0.0024
  452MOL0     C60905   3.670   4.582   4.831 -0.4815  0.2397 -0.1448
  452MOL0     C60906   3.556   4.657   4.892 -0.0486 -0.4268  0.0422
  452MOL0     C60907   3.439   4.560   4.900 -0.3217  0.5636 -0.2300
  452MOL0     C60908   3.299   4.620   4.901  0.0635  0.0833  0.9903
  452MOL0     O60909   3.281   4.722   4.998  0.5576  0.8198  0.0063
  452MOL0     C60910   3.151   4.773   4.991 -0.0146  0.7897 -0.1546
  452MOL0     C60911   3.119   4.892   4.923 -0.4072  0.6094 -1.1379
  452MOL0     C60912   2.985   4.922   4.916 -0.0323 -0.6508 -0.4469
  452MOL0     C60913   2.955   5.073   4.885  0.5747 -0.0808  0.8391
  452MOL0     C60914   2.883   4.832   4.955  0.5025 -0.8809 -0.0640
  452MOL0     C60915   2.739   4.860   4.936 -0.5480 -0.0268 -0.0028
  452MOL0     O60916   2.698   4.983   4.882 -0.0514  0.4892  0.1254
  452MOL0     C60917   2.565   5.024   4.882  0.2670  0.3110  0.1242
  452MOL0     C60918   2.455   4.952   4.945 -0.1114  0.3617  0.7266
  452MOL0     C60919   2.328   5.007   4.931 -0.7524 -0.9112  0.0211
  452MOL0     C60920   2.301   5.125   4.862 -0.6182 -0.9673 -0.0606
  452MOL0     O60921   2.177   5.179   4.842 -0.1716 -0.5464  0.1781
  452MOL0     C60922   2.065   5.126   4.915 -0.2037  0.1246  0.4091
  452MOL0     C60923   1.942   5.216   4.912 -0.1076 -1.0505  0.1161
  452MOL0     C60924   1.817   5.162   4.981  0.1474 -0.4164 -1.1172
  452MOL0     C60925   1.752   5.038   4.923  0.1064 -0.7331  0.1350
  452MOL0     C60926   1.682   5.060   4.791  0.3384 -0.6727  0.6364
  452MOL0     C60927   1.571   4.955   4.771  0.4041 -0.1351 -1.3202
  452MOL0     C60928   1.505   4.960   4.631  0.5328 -0.2914  0.2331
  452MOL0     C60929   1.425   4.825   4.602  0.0176  0.1670  0.8029
  452MOL0    Cl60930   1.291   4.806   4.707 -0.1088  0.3042  0.0307
  452MOL0     C60931   2.402   5.190   4.797  0.0191 -0.8037  0.5929
  452MOL0     C60932   2.531   5.138   4.807 -0.3158  0.4216  0.4356
  452MOL0     O60933   2.669   4.788   5.007 -0.0615 -0.7380 -0.1374
  452MOL0     C60934   2.917   4.709   4.999 -0.1189  0.6541  0.0323
  452MOL0     C60935   3.049   4.686   5.032  0.1247  0.4324 -0.1168
  452MOL0     N60936   3.785   4.416   4.994  0.7136 -1.1922 -0.1155
  452MOL0     N60937   3.880   4.414   5.073  0.2055  1.0209  0.3999
  452MOL0     C60938   4.479   5.167   5.909  1.1153 -0.7717  0.0535
  452MOL0     C60939   4.567   5.272   5.901 -0.2678 -0.0915 -0.0387
  452MOL0     C60940   4.765   5.678   5.979  0.1367 -0.1070 -0.5572
  452MOL0     C60941   4.814   5.766   6.084 -0.0420  0.0420  0.7800
  452MOL0     C60942   4.914   5.847   6.045  0.0602  0.5717  0.7770
  452MOL0     C60943   4.957   5.875   5.919 -0.6795 -0.5892 -0.5132
  452MOL0     O60944   5.067   5.959   5.919 -0.0500 -0.3294  0.1509
  452MOL0     C60945   5.146   5.969   5.808 -0.6478 -0.3615 -0.2206
  452MOL0     C60946   5.265   6.056   5.814 -0.0224 -0.4335 -0.5621
  452MOL0     C60947   5.233   6.199   5.869 -0.0761  0.1539 -0.7038
  452MOL0     C60948   5.349   6.297   5.849  0.9205 -0.4432 -0.2286
  452MOL0     C60949   5.473   6.248   5.908 -0.2452 -0.7283 -0.6576
  452MOL0     C60950   5.585   6.225   5.949 -0.0790  0.1422 -0.4193
  452MOL0     C60951   4.906   5.801   5.809 -0.3939 -0.7447 -1.1037
  452MOL0     C60952   4.811   5.696   5.854 -0.2299  0.2453  0.8751
  452MOL0     H60953   4.349   5.536   5.910 -1.3499  0.1023  1.1439
  452MOL0     H60954   4.198   5.341   5.932 -1.0767 -1.5620 -3.2849
  452MOL0     H60955   4.076   5.038   5.972  0.6979 -1.3997 -0.0099
  452MOL0     H60956   4.109   5.147   5.841 -2.4770 -0.2504  1.4386
  452MOL0     H60957   4.283   4.992   5.760 -0.2337 -0.7681 -1.8193
  452MOL0     H60958   4.218   4.864   5.870 -1.7467 -0.1963  0.3689
  452MOL0     H60959   4.022   4.854   5.762  0.3586 -0.9351  0.2446
  452MOL0     H60960   4.043   5.002   5.669 -0.6692 -1.4289 -0.0667
  452MOL0     H60961   4.218   4.889   5.525 -1.5427  0.2917 -0.1650
  452MOL0     H60962   4.196   4.740   5.640 -0.0302 -0.4790  1.5890
  452MOL0     H60963   3.966   4.744   5.560  1.1512 -1.3475  0.5375
  452MOL0     H60964   4.015   4.881   5.455 -1.5863  0.7932  3.5837
  452MOL0     H60965   4.164   4.716   5.324  3.7710 -3.9636  1.2496
  452MOL0     H60966   4.123   4.589   5.430  2.3061 -0.1267 -1.2940
  452MOL0     H60967   3.913   4.554   5.340  0.9865  0.2564  0.7346
  452MOL0     H60968   3.890   4.715   5.285  0.2292 -0.0374  1.1385
  452MOL0     H60969   4.108   4.518   5.195  2.1314  0.7898 -2.3591
  452MOL0     H60970   4.092   4.658   5.103  0.4048 -0.0405  0.2058
  452MOL0     H60971   3.903   4.721   4.950 -0.8293 -0.7030 -0.1411
  452MOL0     H60972   3.703   4.640   4.745 -1.9414  2.9123  0.9718
  452MOL0     H60973   3.647   4.487   4.782  0.8891  0.3977 -1.1655
  452MOL0     H60974   3.532   4.747   4.834  1.5413  0.3782  0.5915
  452MOL0     H60975   3.581   4.699   4.990  3.0959 -0.9135 -0.4618
  452MOL0     H60976   3.447   4.489   4.983 -0.3563 -1.0354 -1.5380
  452MOL0     H60977   3.445   4.480   4.826  0.1910 -1.5900  1.9942
  452MOL0     H60978   3.228   4.537   4.903 -0.0592  0.1684  0.4594
  452MOL0     H60979   3.286   4.665   4.802  0.9581  2.2671  1.8008
  452MOL0     H60980   3.194   4.970   4.921 -2.1492  2.6878  2.4875
  452MOL0     H60981   2.911   5.069   4.785  0.4383 -0.3299  0.9083
  452MOL0     H60982   2.887   5.125   4.952 -0.7747 -3.3876  2.2630
  452MOL0     H60983   3.050   5.128   4.888 -0.1289  1.1144  2.3149
  452MOL0     H60984   2.461   4.857   4.996 -0.8380 -0.6559 -0.9895
  452MOL0     H60985   2.252   4.947   4.981 -2.6150  1.8364  0.6819
  452MOL0     H60986   2.042   5.032   4.864  0.4031 -1.0256  2.1535
  452MOL0     H60987   2.080   5.115   5.023  1.0901  0.1894  0.2479
  452MOL0     H60988   1.957   5.320   4.942 -1.5740 -0.3103 -1.5151
  452MOL0     H60989   1.918   5.242   4.808 -0.8887  1.6188  0.9023
  452MOL0     H60990   1.746   5.245   4.973 -0.6058 -0.8123  0.8470
  452MOL0     H60991   1.831   5.147   5.089  1.7528 -0.5874 -1.3291
  452MOL0     H60992   1.824   4.957   4.911  2.8047  1.3648  0.9640
  452MOL0     H60993   1.679   5.003   4.997 -2.0820 -2.7671 -2.7821
  452MOL0     H60994   1.756   5.073   4.712 -0.3303  0.1591  0.1354
  452MOL0     H60995   1.626   5.154   4.801  0.4461 -0.4933 -0.3705
  452MOL0     H60996   1.604   4.855   4.798 -1.7271 -0.6445 -0.3821
  452MOL0     H60997   1.504   4.963   4.857  1.0616  2.9451 -1.0001
  452MOL0     H60998   1.588   4.964   4.560  0.4822 -2.2139  0.0334
  452MOL0     H60999   1.431   5.041   4.627  2.3936  1.4378 -1.1747
  452MOL0     H61000   1.491   4.741   4.577 -0.8483 -0.0691 -0.8374
  452MOL0     H61001   1.380   4.842   4.504  0.9012 -1.1189  0.1352
  452MOL0     H61002   2.387   5.279   4.738  1.3189 -0.4742  0.7321
  452MOL0     H61003   2.604   5.197   4.753 -0.0944  2.6307  2.9891
  452MOL0     H61004   2.849   4.629   5.027  2.1685 -1.7974 -0.9858
  452MOL0     H61005   3.078   4.593   5.080 -0.2118  0.3492 -0.0732
  452MOL0     H61006   4.514   5.064   5.912  1.3192 -0.6939  1.8419
  452MOL0     H61007   4.672   5.248   5.896 -0.3646 -0.6856  0.6609
  452MOL0     H61008   4.773   5.754   6.184  2.0909 -0.5376  1.6415
  452MOL0     H61009   4.961   5.900   6.127  1.1039 -1.9940  1.9211
  452MOL0     H61010   5.185   5.875   5.768 -0.6305 -0.7545  0.7219
  452MOL0     H61011   5.072   6.011   5.738  0.1003  1.6617  0.1355
  452MOL0     H61012   5.314   6.070   5.717  2.0571 -0.1289  0.4747
  452MOL0     H61013   5.336   6.013   5.884  1.9728  0.7622 -1.7674
  452MOL0     H61014   5.221   6.189   5.977  1.6594 -0.3294 -0.5333
  452MOL0     H61015   5.149   6.253   5.824 -0.9964  1.7085  2.6176
  452MOL0     H61016   5.327   6.386   5.910 -1.8120 -1.3997  0.3594
  452MOL0     H61017   5.365   6.321   5.744  0.9952  0.5242 -0.0012
  452MOL0     H61018   5.684   6.206   5.983 -1.6940 -1.2446  4.1660
  452MOL0     H61019   4.948   5.804   5.709 -1.5152  2.8331 -1.5948
  452MOL0     H61020   4.782   5.631   5.771 -1.9538 -0.6903  2.1530
  453MOL0     O61021   3.862   6.428   1.377 -0.4626  0.3624  0.0033
  453MOL0     C61022   3.749   6.463   1.393  0.0375  0.2930  0.0139
  453MOL0     O61023   3.714   6.592   1.415  0.6474 -0.2306 -0.3188
  453MOL0     C61024   3.819   6.691   1.400  0.0179 -0.0435 -0.1929
  453MOL0     C61025   3.877   6.710   1.278 -0.0737  0.6816 -0.3182
  453MOL0     C61026   3.970   6.809   1.255 -0.8777  0.5409  0.9161
  453MOL0     C61027   4.001   6.901   1.356 -0.5493  0.0683 -0.6844
  453MOL0     O61028   4.071   7.012   1.338  0.6354  0.1417 -0.0068
  453MOL0     C61029   4.179   7.014   1.247  0.4945  1.4213  0.8969
  453MOL0     C61030   4.258   7.146   1.258 -0.6434  0.6178 -0.0161
  453MOL0     C61031   4.324   7.172   1.396  0.4189  0.5430 -0.0413
  453MOL0     C61032   4.467   7.124   1.392  0.2702  0.3805  0.2331
  453MOL0     C61033   4.536   7.157   1.534 -0.2227  1.5076  0.7529
  453MOL0     C61034   4.652   7.060   1.564  1.2208  0.0505 -0.9758
  453MOL0     C61035   4.771   7.105   1.656  0.1220 -0.3380 -0.1552
  453MOL0     C61036   4.738   7.136   1.803 -1.3455 -0.1215 -0.5784
  453MOL0     N61037   4.723   7.016   1.875  0.2405 -0.2847  0.3530
  453MOL0     C61038   4.819   6.920   1.888  0.6931  0.5041 -0.0552
  453MOL0     C61039   4.749   6.816   1.957  0.1074  0.2774  0.3702
  453MOL0     C61040   4.806   6.682   2.014  0.2612 -0.2325  0.6508
  453MOL0     C61041   4.807   6.572   1.907 -0.0825 -0.1187  0.2651
  453MOL0     C61042   4.665   6.515   1.897 -0.5738  0.0374 -0.6062
  453MOL0     C61043   4.670   6.396   1.805 -0.3314 -0.3604  0.6673
  453MOL0     O61044   4.638   6.272   1.868 -0.0372 -0.8287  0.2046
  453MOL0     C61045   4.510   6.226   1.871  0.1818  0.1604  0.5732
  453MOL0     C61046   4.396   6.308   1.863 -0.0359  0.2557  0.3869
  453MOL0     C61047   4.266   6.247   1.865 -0.1467  0.2468 -0.8807
  453MOL0     C61048   4.156   6.345   1.837  0.7622  0.6386 -0.2457
  453MOL0     C61049   4.252   6.105   1.890 -0.2205  0.4033  0.1984
  453MOL0     C61050   4.128   6.040   1.895  0.8448 -0.1320 -0.5238
  453MOL0     O61051   4.113   5.947   2.000 -0.5641 -0.4357  0.7210
  453MOL0     C61052   3.990   5.897   2.020 -0.5435  0.8620  0.2899
  453MOL0     C61053   3.878   5.973   2.050  0.6866  0.0333  0.6908
  453MOL0     C61054   3.765   5.895   2.087 -0.4509  0.6720 -0.3126
  453MOL0     C61055   3.752   5.753   2.092 -0.6907  0.2398 -0.1289
  453MOL0     O61056   3.632   5.692   2.112 -0.0149 -0.4012  0.2324
  453MOL0     C61057   3.625   5.555   2.130  1.1449 -0.2079 -0.2887
  453MOL0     C61058   3.483   5.515   2.167  0.8509 -0.5062  0.2967
  453MOL0     C61059   3.469   5.369   2.176  0.6657 -1.1756 -0.9601
  453MOL0     C61060   3.329   5.332   2.229  0.4985 -0.4424  0.0210
  453MOL0     C61061   3.322   5.178   2.207 -1.2330  0.2041 -0.1130
  453MOL0     C61062   3.196   5.128   2.270  0.1158  0.8768 -0.2010
  453MOL0     C61063   3.163   4.982   2.234  0.5321 -0.2992  0.1689
  453MOL0     C61064   3.042   4.934   2.316  0.4822 -0.4622  0.2509
  453MOL0    Cl61065   2.956   4.799   2.232 -0.2512 -0.2406  0.4462
  453MOL0     C61066   3.873   5.688   2.075  0.3170  0.3740 -0.0555
  453MOL0     C61067   3.990   5.758   2.032  0.1182 -0.4907 -0.2016
  453MOL0     O61068   4.046   6.055   1.801 -0.5909  0.6621 -0.3302
  453MOL0     C61069   4.367   6.031   1.918 -0.7544 -0.0091  0.1016
  453MOL0     C61070   4.494   6.090   1.906  0.4435 -0.1058 -0.2393
  453MOL0     N61071   4.612   6.848   1.977 -0.9033 -0.3786  0.1092
  453MOL0     N61072   4.599   6.967   1.922  0.3496  0.3384 -0.6636
  453MOL0     C61073   3.940   6.892   1.484 -0.4737 -0.2937 -0.1965
  453MOL0     C61074   3.853   6.784   1.504 -0.5461 -0.3442  0.0374
  453MOL0     C61075   3.643   6.363   1.395  0.2547  0.4930  0.5677
  453MOL0     C61076   3.673   6.235   1.355  0.9967 -0.4638  0.4641
  453MOL0     C61077   3.569   6.141   1.350 -0.1056 -0.1965  0.5609
  453MOL0     C61078   3.443   6.158   1.403 -0.2776  0.2643 -0.1162
  453MOL0     O61079   3.334   6.078   1.404  0.2755 -0.2526  0.1232
  453MOL0     C61080   3.327   5.955   1.335  0.7851  0.6414 -0.2772
  453MOL0     C61081   3.331   5.830   1.427  0.0591 -0.2378  0.7252
  453MOL0     C61082   3.221   5.827   1.541 -0.7728 -0.8139 -0.7837
  453MOL0     C61083   3.093   5.748   1.506 -0.4251 -0.3668  0.2572
  453MOL0     C61084   3.014   5.815   1.401  0.8241 -0.6868  0.6907
  453MOL0     C61085   2.942   5.859   1.310 -0.0923 -0.2458  0.0155
  453MOL0     C61086   3.422   6.286   1.455 -0.0620  0.0758 -0.4853
  453MOL0     C61087   3.519   6.382   1.449 -0.2323  0.2291 -0.8598
  453MOL0     H61088   3.839   6.648   1.197 -0.1653 -1.4491  1.2671
  453MOL0     H61089   4.009   6.812   1.154 -0.6841 -1.5754  0.8815
  453MOL0     H61090   4.242   6.926   1.266 -0.5446  0.6337  0.8056
  453MOL0     H61091   4.145   6.993   1.145  2.3166  3.1858 -0.1377
  453MOL0     H61092   4.339   7.142   1.185  1.8563 -2.3845  2.6160
  453MOL0     H61093   4.188   7.229   1.245 -1.9219 -0.1219  1.7114
  453MOL0     H61094   4.328   7.280   1.412  4.0319  0.7329 -1.3593
  453MOL0     H61095   4.264   7.122   1.472  1.5361 -2.2271 -0.8770
  453MOL0     H61096   4.457   7.020   1.359 -2.2127  0.8355 -0.6420
  453MOL0     H61097   4.518   7.179   1.312  2.6294 -2.1445 -0.1467
  453MOL0     H61098   4.575   7.259   1.534  0.3203  1.3356 -1.1830
  453MOL0     H61099   4.468   7.137   1.618 -1.7753 -1.0345 -0.9500
  453MOL0     H61100   4.611   6.965   1.599  0.5280 -0.2078 -2.4012
  453MOL0     H61101   4.690   7.052   1.461 -1.8400 -2.1946 -2.0865
  453MOL0     H61102   4.856   7.036   1.654  1.3742  1.1571 -0.5178
  453MOL0     H61103   4.812   7.196   1.612  0.8020 -1.1597 -1.2607
  453MOL0     H61104   4.646   7.194   1.815 -2.6080 -2.4159  1.9179
  453MOL0     H61105   4.815   7.199   1.847  0.8764 -2.8734 -0.2364
  453MOL0     H61106   4.925   6.932   1.867  1.2745 -1.0357  1.7818
  453MOL0     H61107   4.903   6.690   2.065  0.8311 -2.4712  0.0192
  453MOL0     H61108   4.739   6.648   2.093 -0.7706 -2.4129 -1.0515
  453MOL0     H61109   4.868   6.490   1.945 -0.1096  0.1601  0.9268
  453MOL0     H61110   4.864   6.605   1.819 -0.8269  1.9368  0.4969
  453MOL0     H61111   4.597   6.593   1.861 -0.7965  0.5829  0.9277
  453MOL0     H61112   4.636   6.488   1.999  1.1535  0.8840  0.1475
  453MOL0     H61113   4.765   6.384   1.753  0.4927  0.9241  1.8229
  453MOL0     H61114   4.599   6.405   1.722  0.4190 -1.5685 -0.1493
  453MOL0     H61115   4.399   6.414   1.840  1.7232  0.3231  0.7683
  453MOL0     H61116   4.126   6.352   1.732 -1.3114 -0.2183  0.2297
  453MOL0     H61117   4.063   6.325   1.891 -2.1197  1.4847 -4.3922
  453MOL0     H61118   4.171   6.445   1.876  0.5746  0.5471  0.0647
  453MOL0     H61119   3.878   6.081   2.043 -1.7520 -0.0416 -2.3781
  453MOL0     H61120   3.674   5.949   2.113 -1.3638 -1.2039  0.6250
  453MOL0     H61121   3.641   5.500   2.037 -0.1358 -0.8317 -0.1631
  453MOL0     H61122   3.691   5.511   2.205 -2.3155  0.1907  3.2810
  453MOL0     H61123   3.465   5.560   2.265  0.9744 -3.1246  1.6015
  453MOL0     H61124   3.408   5.554   2.097  2.5675 -0.1755 -1.4732
  453MOL0     H61125   3.540   5.337   2.252  1.1411  1.0748 -0.3639
  453MOL0     H61126   3.488   5.330   2.076 -1.0755  0.8274 -2.1770
  453MOL0     H61127   3.305   5.358   2.333  2.6616  1.2719  0.1570
  453MOL0     H61128   3.258   5.381   2.163 -1.5380 -0.8876  1.7718
  453MOL0     H61129   3.399   5.130   2.269 -1.3261 -0.1190 -0.2461
  453MOL0     H61130   3.312   5.144   2.104 -2.1085  1.9317 -0.6367
  453MOL0     H61131   3.212   5.126   2.378  0.1206  2.1950 -0.1601
  453MOL0     H61132   3.108   5.190   2.248  0.1479  0.6260 -1.0815
  453MOL0     H61133   3.245   4.909   2.239  2.0808  0.9016 -3.8422
  453MOL0     H61134   3.118   4.981   2.135 -1.7092 -1.7613  1.1259
  453MOL0     H61135   2.978   5.022   2.317  1.9872  0.6893 -0.1374
  453MOL0     H61136   3.068   4.908   2.419 -0.5116  1.3736  1.0149
  453MOL0     H61137   3.881   5.580   2.071  3.7583  0.4451  1.3625
  453MOL0     H61138   4.072   5.694   2.002  1.5425  1.0479  0.2569
  453MOL0     H61139   4.369   5.925   1.940  1.3582 -0.0942 -0.2781
  453MOL0     H61140   4.583   6.031   1.925 -0.2954 -0.4859  2.5239
  453MOL0     H61141   3.948   6.973   1.555  1.1111  0.4832 -1.2107
  453MOL0     H61142   3.798   6.778   1.598  0.2663  0.4587  0.5831
  453MOL0     H61143   3.760   6.204   1.299  3.2106  3.6591  1.2298
  453MOL0     H61144   3.594   6.045   1.305 -1.8077 -1.1277  1.4954
  453MOL0     H61145   3.236   5.962   1.276  0.9198 -0.1210 -0.5900
  453MOL0     H61146   3.409   5.936   1.264  0.2612 -0.8219 -0.5295
  453MOL0     H61147   3.423   5.815   1.483  0.1837 -2.1672  0.0989
  453MOL0     H61148   3.323   5.747   1.356 -2.8954 -0.7190  1.4910
  453MOL0     H61149   3.192   5.926   1.576  2.5763  0.5427 -1.4809
  453MOL0     H61150   3.276   5.778   1.621  0.3497  1.8877  0.2173
  453MOL0     H61151   3.025   5.734   1.591  1.4384  1.7333  2.2630
  453MOL0     H61152   3.119   5.647   1.474  1.2289  1.3507 -4.6642
  453MOL0     H61153   2.892   5.896   1.223  2.6909  4.6124  0.1438
  453MOL0     H61154   3.321   6.318   1.479 -0.5593 -1.2490 -0.7268
  453MOL0     H61155   3.499   6.481   1.489  0.2950  0.1679 -0.4363
  454MOL0     O61156   9.473   4.524   4.100  0.0447 -0.0963  0.2784
  454MOL0     C61157   9.410   4.608   4.036  0.6732 -0.6463 -0.6011
  454MOL0     O61158   9.278   4.623   4.022  0.2397 -0.2891  0.2174
  454MOL0     C61159   9.187   4.542   4.089 -0.2291 -0.2309 -0.8028
  454MOL0     C61160   9.204   4.463   4.202  0.0073 -0.6098 -0.6573
  454MOL0     C61161   9.091   4.416   4.277 -0.4762  0.0267  0.4285
  454MOL0     C61162   8.964   4.419   4.212 -0.9855  0.4019  0.2238
  454MOL0     O61163   8.855   4.364   4.277  0.5593  0.9860 -0.4433
  454MOL0     C61164   8.730   4.423   4.262  0.8457 -0.5237  0.0567
  454MOL0     C61165   8.618   4.362   4.345  0.2771 -0.1765 -0.7913
  454MOL0     C61166   8.579   4.434   4.477 -0.2051  0.5030  0.9626
  454MOL0     C61167   8.696   4.433   4.573  0.5348 -0.6408 -0.8312
  454MOL0     C61168   8.719   4.287   4.625 -0.5127  0.9441  0.3817
  454MOL0     C61169   8.798   4.287   4.757 -1.1362 -0.0301  0.0310
  454MOL0     C61170   8.946   4.325   4.731  0.1372  0.4224 -0.6651
  454MOL0     C61171   9.016   4.365   4.857  0.0721  0.2700  0.4575
  454MOL0     N61172   9.164   4.370   4.844  0.0072  0.3191 -0.4581
  454MOL0     C61173   9.239   4.316   4.744 -0.2928 -0.1418 -0.0518
  454MOL0     C61174   9.357   4.384   4.760  0.0242 -1.5980  0.0926
  454MOL0     C61175   9.476   4.376   4.670 -0.1078 -0.8502 -0.0823
  454MOL0     C61176   9.606   4.435   4.738 -0.5421  0.0731  0.6696
  454MOL0     C61177   9.723   4.440   4.633 -0.0493  0.2316  0.4466
  454MOL0     C61178   9.863   4.486   4.682 -1.2781 -0.0350  0.0109
  454MOL0     O61179   9.965   4.453   4.576 -0.0185  0.1253  0.2975
  454MOL0     C61180  10.104   4.464   4.592 -0.7308 -0.1423 -0.3300
  454MOL0     C61181  10.155   4.532   4.697 -0.5555 -0.9878 -0.1995
  454MOL0     C61182  10.294   4.563   4.714  0.0410  0.2252  0.0366
  454MOL0     C61183  10.328   4.636   4.845  0.0055  0.4277 -0.0367
  454MOL0     C61184  10.383   4.508   4.613 -0.0578 -0.7246  0.1585
  454MOL0     C61185  10.536   4.526   4.620 -0.1595  0.7958  0.5885
  454MOL0     O61186  10.613   4.516   4.499  0.6883 -0.9948 -0.8576
  454MOL0     C61187  10.749   4.530   4.492  0.2746  1.0994 -0.3789
  454MOL0     C61188  10.819   4.415   4.449 -0.3357  0.5095 -0.1585
  454MOL0     C61189  10.960   4.405   4.437 -0.3654 -0.3033  0.2295
  454MOL0     C61190  11.038   4.523   4.449  0.4226  0.8099 -0.6205
  454MOL0     O61191  11.174   4.531   4.435  0.0567 -0.6772  0.1997
  454MOL0     C61192  11.242   4.428   4.368  0.3823 -0.5898  0.0413
  454MOL0     C61193  11.385   4.479   4.349  0.0504 -0.1655  0.0455
  454MOL0     C61194  11.409   4.623   4.306  0.9266 -0.5180 -0.7112
  454MOL0     C61195  11.565   4.649   4.319 -0.4545  1.0348 -0.0681
  454MOL0     C61196  11.583   4.798   4.270  0.4610  0.3679  0.6071
  454MOL0     C61197  11.628   4.805   4.120  0.2973  0.0570 -0.8348
  454MOL0     C61198  11.522   4.882   4.039 -0.2019 -0.3697 -0.2006
  454MOL0     C61199  11.528   4.864   3.888 -0.2682 -0.3734  0.3224
  454MOL0    Cl61200  11.671   4.920   3.793 -0.0068 -0.0832  0.8147
  454MOL0     C61201  10.967   4.631   4.497 -0.0390 -0.8007 -0.4353
  454MOL0     C61202  10.824   4.638   4.522  0.5166  0.2471 -0.0673
  454MOL0     O61203  10.585   4.571   4.723  0.8921 -0.6186  0.4952
  454MOL0     C61204  10.329   4.438   4.504 -0.4413  0.1452  0.1891
  454MOL0     C61205  10.191   4.412   4.490  0.5557 -0.1965 -0.3758
  454MOL0     N61206   9.352   4.466   4.876 -0.2968 -0.3213  0.6605
  454MOL0     N61207   9.235   4.457   4.922 -0.5251  0.3022  0.3644
  454MOL0     C61208   8.949   4.475   4.091  0.1004 -1.0979  1.0541
  454MOL0     C61209   9.059   4.546   4.040  0.3026  0.1171  0.6666
  454MOL0     C61210   9.485   4.695   3.952 -0.6125 -0.3185  0.2973
  454MOL0     C61211   9.614   4.672   3.936  0.2454 -0.2128  0.7752
  454MOL0     C61212   9.688   4.738   3.834 -0.8832  0.6592 -0.2476
  454MOL0     C61213   9.637   4.849   3.769  0.0003  0.4847 -0.5053
  454MOL0     O61214   9.718   4.901   3.666  0.1724  0.6997  0.0207
  454MOL0     C61215   9.680   5.018   3.606  0.6411 -0.8682  0.3247
  454MOL0     C61216   9.793   5.050   3.511 -0.8539 -0.5230  0.5617
  454MOL0     C61217   9.927   5.082   3.569 -0.8711 -0.0494  0.0382
  454MOL0     C61218   9.928   5.182   3.679 -0.1890  0.4885 -0.0208
  454MOL0     C61219  10.056   5.229   3.721  0.5520 -0.1614 -0.9536
  454MOL0     C61220  10.153   5.284   3.768 -0.1468  0.1465  0.1925
  454MOL0     C61221   9.502   4.873   3.782 -0.8646  0.0445 -1.0992
  454MOL0     C61222   9.427   4.792   3.873 -0.2447  0.2361 -0.3075
  454MOL0     H61223   9.306   4.461   4.237  0.5926 -1.1270 -2.2871
  454MOL0     H61224   9.107   4.360   4.369  2.0199  0.4761  0.3202
  454MOL0     H61225   8.737   4.531   4.276 -4.3853  0.1285 -0.1719
  454MOL0     H61226   8.714   4.393   4.158  0.7892  0.0242 -0.0938
  454MOL0     H61227   8.533   4.375   4.278  0.9880  1.1723 -1.4870
  454MOL0     H61228   8.630   4.254   4.357 -0.1893 -0.4923 -2.7960
  454MOL0     H61229   8.547   4.537   4.459  2.7843  1.2013 -1.2262
  454MOL0     H61230   8.497   4.387   4.532 -2.3616  5.2903  2.4657
  454MOL0     H61231   8.784   4.477   4.525  1.0084  1.5577  1.8719
  454MOL0     H61232   8.681   4.501   4.657  0.0724 -2.1546  0.3621
  454MOL0     H61233   8.626   4.235   4.648  1.2068 -1.4192  2.5668
  454MOL0     H61234   8.767   4.229   4.546 -0.6349  1.8288 -0.3588
  454MOL0     H61235   8.750   4.356   4.826 -2.9219 -1.4514  0.3040
  454MOL0     H61236   8.791   4.183   4.791  0.3862 -0.1376  0.0814
  454MOL0     H61237   8.993   4.243   4.676 -0.5378  1.4994 -2.9386
  454MOL0     H61238   8.948   4.419   4.677 -3.7355 -0.1162 -1.9924
  454MOL0     H61239   8.990   4.287   4.929  1.9648 -1.7899 -0.9236
  454MOL0     H61240   8.982   4.464   4.886 -0.6157  0.0905  0.2873
  454MOL0     H61241   9.211   4.252   4.660  3.1434 -1.7348 -0.1652
  454MOL0     H61242   9.503   4.275   4.636 -0.0928 -0.1000 -2.5277
  454MOL0     H61243   9.456   4.445   4.587 -0.4072 -1.3778 -0.4554
  454MOL0     H61244   9.634   4.376   4.827  0.7248  1.3066  1.1258
  454MOL0     H61245   9.594   4.540   4.764  0.3608 -0.0462  1.6515
  454MOL0     H61246   9.694   4.493   4.542  2.1297  0.3316 -0.2486
  454MOL0     H61247   9.736   4.343   4.585 -0.3891  1.2703 -1.9050
  454MOL0     H61248   9.890   4.426   4.769 -1.3413  1.4374  1.0784
  454MOL0     H61249   9.859   4.591   4.711  2.2252  0.8818 -2.1585
  454MOL0     H61250  10.089   4.581   4.769  0.1710  2.7167 -1.8393
  454MOL0     H61251  10.236   4.661   4.899 -0.3652 -0.3452 -0.3050
  454MOL0     H61252  10.395   4.576   4.908 -0.7505  1.1450  1.5275
  454MOL0     H61253  10.378   4.731   4.825  0.6941 -0.1312 -1.0721
  454MOL0     H61254  10.750   4.332   4.441 -0.7018  0.2927  3.4877
  454MOL0     H61255  10.995   4.306   4.409 -0.1101 -0.4036  0.8978
  454MOL0     H61256  11.258   4.338   4.428  2.3962 -0.1458  0.2433
  454MOL0     H61257  11.192   4.399   4.275  0.5963 -1.4473  0.1909
  454MOL0     H61258  11.431   4.471   4.448  0.6530  2.5731  0.0708
  454MOL0     H61259  11.452   4.421   4.285  0.5833  2.1290 -1.6123
  454MOL0     H61260  11.350   4.690   4.368 -0.1303  0.9967 -3.2278
  454MOL0     H61261  11.375   4.650   4.206 -0.8357  2.3123  0.5422
  454MOL0     H61262  11.607   4.635   4.419 -1.4360  0.1553  0.2441
  454MOL0     H61263  11.624   4.577   4.262  1.3280  0.9984  1.7236
  454MOL0     H61264  11.649   4.856   4.335 -0.0047 -1.1286  2.5175
  454MOL0     H61265  11.485   4.847   4.274 -0.2121 -0.8206 -0.5727
  454MOL0     H61266  11.729   4.845   4.114 -0.5782  2.3283 -1.6155
  454MOL0     H61267  11.638   4.702   4.086  2.3376 -0.4386  1.0672
  454MOL0     H61268  11.529   4.988   4.068  5.3228 -0.7202  0.9212
  454MOL0     H61269  11.422   4.854   4.072  1.0460 -0.3999  4.2383
  454MOL0     H61270  11.445   4.915   3.839 -0.0846 -0.7219 -0.3616
  454MOL0     H61271  11.508   4.759   3.863 -1.6075 -0.5345  1.9236
  454MOL0     H61272  11.024   4.721   4.521 -0.2267 -0.5550 -0.8968
  454MOL0     H61273  10.796   4.727   4.577  3.9293 -0.0605  2.5064
  454MOL0     H61274  10.406   4.421   4.429 -0.1255  2.7430 -0.1585
  454MOL0     H61275  10.145   4.349   4.415 -0.9344  0.4194 -0.0187
  454MOL0     H61276   8.853   4.479   4.039  1.3938 -1.3808 -1.5477
  454MOL0     H61277   9.050   4.608   3.952  2.8004 -2.4074 -1.5505
  454MOL0     H61278   9.668   4.596   3.992  0.2925  0.8622  2.2209
  454MOL0     H61279   9.789   4.713   3.806 -0.2402  3.6863 -0.8851
  454MOL0     H61280   9.585   5.005   3.553 -0.0589 -0.8933  1.5389
  454MOL0     H61281   9.663   5.094   3.683 -0.4867  1.7103 -2.2829
  454MOL0     H61282   9.771   5.143   3.459  2.9586 -0.1429 -0.6836
  454MOL0     H61283   9.816   4.978   3.432 -1.3462  1.1458 -1.1804
  454MOL0     H61284   9.996   5.116   3.492  1.3058 -2.1534  0.9148
  454MOL0     H61285   9.969   4.988   3.607  1.5097 -0.9855 -4.3032
  454MOL0     H61286   9.874   5.143   3.765 -2.4914  2.8454 -0.2650
  454MOL0     H61287   9.872   5.270   3.646  2.4525  2.9580  1.5822
  454MOL0     H61288  10.220   5.347   3.823  2.0669 -3.6733  2.2933
  454MOL0     H61289   9.455   4.949   3.720  0.1550 -0.9671 -3.1774
  454MOL0     H61290   9.320   4.807   3.868 -0.2535  0.7811  1.1378
  455MOL0     O61291   7.189   5.811   2.172  1.0033  0.0551  0.4742
  455MOL0     C61292   7.260   5.725   2.111 -0.0156 -0.6473  0.0803
  455MOL0     O61293   7.229   5.591   2.082  0.3042 -0.3075 -0.0335
  455MOL0     C61294   7.096   5.554   2.114 -0.0722 -0.0482  0.1363
  455MOL0     C61295   6.977   5.625   2.089  0.0705  0.5011  0.3267
  455MOL0     C61296   6.851   5.565   2.113 -0.2459 -0.1682  0.6788
  455MOL0     C61297   6.829   5.435   2.146 -0.6658  0.1182 -0.9332
  455MOL0     O61298   6.695   5.399   2.178 -1.3888 -0.0638 -0.8431
  455MOL0     C61299   6.648   5.265   2.152  0.2055 -0.5111 -0.1243
  455MOL0     C61300   6.555   5.223   2.261  1.2592  0.5069 -0.2003
  455MOL0     C61301   6.465   5.105   2.223  0.1701 -0.7515 -0.8671
  455MOL0     C61302   6.385   5.078   2.350  0.6888  0.2591 -0.3675
  455MOL0     C61303   6.284   4.969   2.347 -0.4865  0.3596 -0.2190
  455MOL0     C61304   6.233   4.924   2.490 -0.3059 -0.3722  0.6275
  455MOL0     C61305   6.154   5.042   2.551 -0.4960  0.2417  0.1524
  455MOL0     C61306   6.070   5.007   2.673  0.6040  0.0891 -0.0144
  455MOL0     N61307   5.954   4.919   2.635  0.3557  0.3334 -0.6071
  455MOL0     C61308   5.828   4.974   2.597 -0.8319 -0.0831  0.2271
  455MOL0     C61309   5.746   4.858   2.609 -0.4180 -0.1392 -0.3095
  455MOL0     C61310   5.598   4.850   2.593  0.3549  0.2143 -0.8108
  455MOL0     C61311   5.539   4.731   2.673  0.9654  0.0411  0.4373
  455MOL0     C61312   5.536   4.753   2.826 -0.6658  0.2623  0.4219
  455MOL0     C61313   5.442   4.659   2.898  0.4006 -0.0644  1.2971
  455MOL0     O61314   5.303   4.685   2.861 -0.7567 -0.7133  0.1967
  455MOL0     C61315   5.202   4.654   2.945  1.3651 -0.5411 -0.3040
  455MOL0     C61316   5.086   4.735   2.930  1.2531  0.3588  0.0566
  455MOL0     C61317   4.965   4.701   2.996 -0.3168  0.5057  0.0342
  455MOL0     C61318   4.839   4.776   2.950  0.7660 -0.0347 -0.4785
  455MOL0     C61319   4.963   4.593   3.090 -0.8448 -0.0200  0.4438
  455MOL0     C61320   4.845   4.541   3.166 -0.4454  0.3690 -0.4327
  455MOL0     O61321   4.865   4.420   3.229 -0.3325 -0.4421 -0.7206
  455MOL0     C61322   4.756   4.349   3.271 -0.7810  0.4418 -0.3610
  455MOL0     C61323   4.729   4.232   3.201 -0.3453  0.2956  0.5588
  455MOL0     C61324   4.621   4.157   3.245  0.5995  0.4526  0.8659
  455MOL0     C61325   4.527   4.202   3.342 -0.3048  0.2531  0.4137
  455MOL0     O61326   4.418   4.128   3.381  0.7916  0.3529  0.1624
  455MOL0     C61327   4.373   4.029   3.286 -0.7259 -0.7566  0.0574
  455MOL0     C61328   4.243   3.972   3.346 -1.3515  0.3113 -0.7108
  455MOL0     C61329   4.173   3.890   3.237  0.6705 -0.4686 -0.8701
  455MOL0     C61330   4.055   3.812   3.297  0.5136 -0.8104  1.2058
  455MOL0     C61331   3.985   3.742   3.179 -0.1046 -0.2838 -0.1395
  455MOL0     C61332   4.076   3.660   3.084 -1.3012  0.6342 -0.2530
  455MOL0     C61333   4.002   3.560   2.993  0.6782  0.1234  0.2404
  455MOL0     C61334   3.940   3.613   2.862  0.4379  0.0703 -0.4088
  455MOL0    Cl61335   3.815   3.735   2.902  0.2055 -0.2939  0.1379
  455MOL0     C61336   4.565   4.314   3.410 -0.0346  0.0346  0.0388
  455MOL0     C61337   4.684   4.388   3.383  0.1065  0.7795 -0.4614
  455MOL0     O61338   4.731   4.600   3.148 -0.9028  0.2084  0.7260
  455MOL0     C61339   5.085   4.519   3.100 -0.0160 -0.2288 -0.6131
  455MOL0     C61340   5.199   4.547   3.027 -0.2432  0.6524 -0.4313
  455MOL0     N61341   5.823   4.757   2.658 -0.6386 -0.0089 -0.1196
  455MOL0     N61342   5.943   4.789   2.674 -0.5367  0.3077 -1.0276
  455MOL0     C61343   6.943   5.356   2.158  0.1239  1.1286  0.5067
  455MOL0     C61344   7.076   5.419   2.150 -0.4683 -0.6340 -0.6724
  455MOL0     C61345   7.387   5.772   2.050  0.0713 -0.0240  0.7021
  455MOL0     C61346   7.431   5.908   2.071 -0.7702  0.3943 -0.2905
  455MOL0     C61347   7.533   5.966   1.989 -0.1747  0.5248  0.4514
  455MOL0     C61348   7.589   5.887   1.893 -0.6099 -0.4518  0.0910
  455MOL0     O61349   7.677   5.938   1.801 -0.7346 -0.7548  0.8614
  455MOL0     C61350   7.808   5.947   1.852  0.2972 -0.3504  0.5943
  455MOL0     C61351   7.897   5.929   1.736 -0.0235  0.1534  0.1905
  455MOL0     C61352   7.910   5.784   1.689  0.5968  0.9412  0.0529
  455MOL0     C61353   7.979   5.768   1.551 -0.1706 -0.3174 -0.4139
  455MOL0     C61354   8.105   5.841   1.531 -0.2075  0.3766 -0.1229
  455MOL0     C61355   8.204   5.904   1.528 -0.6728 -0.2610  0.5037
  455MOL0     C61356   7.547   5.756   1.872 -0.8099 -0.0459  0.3036
  455MOL0     C61357   7.451   5.695   1.955  0.7019 -0.6787  0.5816
  455MOL0     H61358   6.981   5.727   2.051 -1.8346  2.0212  3.6938
  455MOL0     H61359   6.771   5.635   2.096 -2.8393 -2.8670  0.8474
  455MOL0     H61360   6.590   5.272   2.059 -1.4560 -1.8863  0.7381
  455MOL0     H61361   6.722   5.185   2.135  0.7484  0.3033 -1.9164
  455MOL0     H61362   6.603   5.199   2.356 -0.1150  0.5020  0.5196
  455MOL0     H61363   6.487   5.302   2.294  2.7088  0.5508  3.0570
  455MOL0     H61364   6.415   5.125   2.128 -0.0068 -0.5150 -0.7267
  455MOL0     H61365   6.533   5.023   2.201  0.0471 -1.1537  0.1850
  455MOL0     H61366   6.463   5.056   2.424  0.0198  2.3933  1.0549
  455MOL0     H61367   6.335   5.170   2.380  2.3403  0.5803  1.6368
  455MOL0     H61368   6.205   5.002   2.279  0.5678  0.8601 -1.2423
  455MOL0     H61369   6.328   4.885   2.292  1.1379  2.8169 -2.9592
  455MOL0     H61370   6.171   4.835   2.479 -0.0306 -0.5666  0.6121
  455MOL0     H61371   6.315   4.909   2.561  1.8768  0.7396 -1.5042
  455MOL0     H61372   6.225   5.124   2.569  0.7084 -0.8203  0.3455
  455MOL0     H61373   6.084   5.080   2.476  0.2512  0.8315 -0.2603
  455MOL0     H61374   6.018   5.093   2.716 -1.3019 -0.5332 -0.9411
  455MOL0     H61375   6.126   4.944   2.743 -0.5404 -4.5087 -2.7793
  455MOL0     H61376   5.803   5.078   2.576  2.3097  0.7855  0.2342
  455MOL0     H61377   5.549   4.939   2.634  4.5968  3.1224 -1.4456
  455MOL0     H61378   5.575   4.832   2.488 -1.5664 -0.3852 -0.3365
  455MOL0     H61379   5.593   4.638   2.655  0.0130 -0.4250 -0.1074
  455MOL0     H61380   5.441   4.711   2.629  2.2671 -2.8146 -1.4817
  455MOL0     H61381   5.523   4.861   2.845 -2.2212  0.4257 -1.3485
  455MOL0     H61382   5.640   4.725   2.847 -0.4029  0.4898 -0.5341
  455MOL0     H61383   5.450   4.678   3.006  3.4580 -0.6182  1.2377
  455MOL0     H61384   5.468   4.557   2.872 -0.0060  0.3304 -0.8253
  455MOL0     H61385   5.088   4.816   2.857  1.2523  1.8545  1.6656
  455MOL0     H61386   4.865   4.849   2.873  0.3558  2.4304  1.5872
  455MOL0     H61387   4.766   4.702   2.916  1.5140 -1.0328  0.0164
  455MOL0     H61388   4.783   4.829   3.027  1.1154  0.1844 -0.3730
  455MOL0     H61389   4.799   4.199   3.125 -0.9068  0.6755 -0.1343
  455MOL0     H61390   4.593   4.063   3.197  1.1453  0.4431  0.5630
  455MOL0     H61391   4.355   4.088   3.196  1.0810  2.1175  1.4400
  455MOL0     H61392   4.444   3.947   3.273  3.7001  2.9345 -1.7710
  455MOL0     H61393   4.252   3.904   3.431  1.2363  1.0255 -0.3055
  455MOL0     H61394   4.172   4.055   3.358 -1.6627  0.2983 -2.2099
  455MOL0     H61395   4.241   3.811   3.204 -0.7462 -0.9621 -2.7639
  455MOL0     H61396   4.149   3.964   3.160 -1.4781  0.2350  0.3769
  455MOL0     H61397   4.104   3.735   3.357  1.0557 -1.7173 -0.3543
  455MOL0     H61398   3.987   3.875   3.356 -0.7874 -3.3324  2.5450
  455MOL0     H61399   3.921   3.810   3.123 -1.0780  0.9362  2.3000
  455MOL0     H61400   3.915   3.678   3.234  1.4393 -1.1317  0.9491
  455MOL0     H61401   4.130   3.729   3.018 -0.3280  2.2709  2.0943
  455MOL0     H61402   4.137   3.594   3.146  0.3932  0.7287 -1.7349
  455MOL0     H61403   3.932   3.510   3.061 -1.0508  4.3213  1.9363
  455MOL0     H61404   4.077   3.485   2.969 -0.8816 -1.9384  1.4519
  455MOL0     H61405   3.893   3.526   2.816  2.0705 -1.3352  0.4865
  455MOL0     H61406   4.012   3.641   2.785 -1.6283  0.2748 -2.3767
  455MOL0     H61407   4.501   4.356   3.488  0.6904  2.3812 -0.5471
  455MOL0     H61408   4.705   4.482   3.432 -3.0006 -0.2824  3.4329
  455MOL0     H61409   5.091   4.449   3.183 -0.4920  2.8903  2.2824
  455MOL0     H61410   5.290   4.490   3.041 -2.3552 -2.4933  2.0131
  455MOL0     H61411   6.931   5.252   2.187  0.1983  0.0615 -2.8194
  455MOL0     H61412   7.163   5.362   2.179 -0.4597 -0.2008  0.1902
  455MOL0     H61413   7.381   5.970   2.145 -1.3120 -2.5349  1.9827
  455MOL0     H61414   7.548   6.072   1.975 -0.7466  0.4401 -1.0474
  455MOL0     H61415   7.820   6.051   1.884  2.4261 -0.0293 -0.9947
  455MOL0     H61416   7.823   5.878   1.935 -2.2537 -0.6255  0.9156
  455MOL0     H61417   7.998   5.964   1.757 -0.1002  2.0218 -2.0639
  455MOL0     H61418   7.859   5.991   1.654 -1.9471 -1.4001 -0.1494
  455MOL0     H61419   7.812   5.738   1.675 -0.1698  3.1691 -3.0968
  455MOL0     H61420   7.962   5.730   1.768  2.0149  2.4312  0.1951
  455MOL0     H61421   7.912   5.793   1.468 -1.2099 -1.5792  0.0041
  455MOL0     H61422   8.002   5.661   1.544  0.3354 -0.0999 -3.1119
  455MOL0     H61423   8.289   5.966   1.544  0.5103 -1.9396  0.9561
  455MOL0     H61424   7.586   5.695   1.792  2.0616  2.1075 -0.1283
  455MOL0     H61425   7.414   5.595   1.931 -0.4863 -0.1002 -0.1340
  456MOL0     O61426   1.750   3.491   4.104  0.2938 -0.0641 -0.6401
  456MOL0     C61427   1.780   3.477   3.984 -0.0441 -0.4947 -0.0130
  456MOL0     O61428   1.720   3.541   3.874  0.3930  0.0217 -0.7256
  456MOL0     C61429   1.602   3.602   3.895  0.0259  0.4482  0.5684
  456MOL0     C61430   1.574   3.723   3.830  0.1530  0.1063  0.2549
  456MOL0     C61431   1.447   3.782   3.839 -0.0326 -0.0474  1.3122
  456MOL0     C61432   1.344   3.718   3.916 -0.2735 -0.3823 -0.6913
  456MOL0     O61433   1.228   3.791   3.917 -0.0561  0.5156  0.3747
  456MOL0     C61434   1.108   3.725   3.974 -0.2421  0.6029 -0.0427
  456MOL0     C61435   1.007   3.823   3.924 -1.0170  0.0131 -0.9419
  456MOL0     C61436   0.865   3.799   3.966  0.2152  0.0300  0.1511
  456MOL0     C61437   0.778   3.893   3.889  0.4668  0.0955 -0.2604
  456MOL0     C61438   0.630   3.886   3.930  1.1531  0.8287  0.3549
  456MOL0     C61439   0.544   3.981   3.843 -0.2051 -0.0943  0.4413
  456MOL0     C61440   0.398   3.999   3.887  0.2297 -0.0828 -0.2049
  456MOL0     C61441   0.305   3.880   3.855  0.5919  1.1310  0.9318
  456MOL0     N61442   0.163   3.917   3.877  0.4784 -0.1347 -0.2821
  456MOL0     C61443   0.054   3.882   3.807 -0.1859  0.2631  0.3300
  456MOL0     C61444  -0.055   3.934   3.864  0.0218  0.7670  0.3590
  456MOL0     C61445  -0.195   3.941   3.810 -0.1225 -0.0923 -0.5693
  456MOL0     C61446  -0.284   3.814   3.840 -0.2474 -0.6032 -0.7054
  456MOL0     C61447  -0.260   3.693   3.750 -0.1143 -0.0651  0.0610
  456MOL0     C61448  -0.351   3.581   3.788  0.1011  0.0191  0.8331
  456MOL0     O61449  -0.362   3.547   3.933 -0.5337 -0.1759  0.1322
  456MOL0     C61450  -0.426   3.427   3.963 -0.1666  0.7074 -0.4177
  456MOL0     C61451  -0.398   3.368   4.085 -0.5646 -1.0086  0.9373
  456MOL0     C61452  -0.459   3.250   4.123  0.2648 -0.2865 -0.6892
  456MOL0     C61453  -0.426   3.198   4.256  0.1333  0.4588  0.5558
  456MOL0     C61454  -0.546   3.178   4.040 -0.3606  0.5933 -0.0591
  456MOL0     C61455  -0.622   3.062   4.084 -0.3219 -0.0834 -0.8470
  456MOL0     O61456  -0.748   3.074   4.047  0.6427  0.0852 -0.6615
  456MOL0     C61457  -0.844   2.994   4.110 -0.0531  0.7031  0.2162
  456MOL0     C61458  -0.919   3.053   4.212 -0.1704  0.0661  0.5746
  456MOL0     C61459  -1.020   2.979   4.276 -0.5449  0.9177 -0.2170
  456MOL0     C61460  -1.051   2.846   4.246 -0.6597 -0.3654 -0.3868
  456MOL0     O61461  -1.142   2.778   4.319 -0.0933  1.4221 -0.1886
  456MOL0     C61462  -1.251   2.711   4.250 -0.0033 -0.5918 -0.3679
  456MOL0     C61463  -1.333   2.659   4.364 -0.4504 -0.2567 -0.1135
  456MOL0     C61464  -1.415   2.765   4.444 -0.2220  0.1494  0.2436
  456MOL0     C61465  -1.335   2.834   4.548  0.0090 -0.2040 -0.3108
  456MOL0     C61466  -1.407   2.942   4.625  0.3223 -0.3381 -0.9965
  456MOL0     C61467  -1.323   2.992   4.754 -0.6699 -0.5600 -0.5773
  456MOL0     C61468  -1.407   3.094   4.830  0.3525  0.5235 -0.1788
  456MOL0     C61469  -1.364   3.118   4.972 -0.1322 -0.4351 -0.1491
  456MOL0    Cl61470  -1.243   3.248   4.994  0.0536  0.0544  0.6472
  456MOL0     C61471  -0.971   2.789   4.145 -0.3727 -0.0803 -0.9273
  456MOL0     C61472  -0.867   2.858   4.084 -0.6554  0.3979  0.5243
  456MOL0     O61473  -0.574   2.980   4.162  0.2828 -0.1431 -0.3147
  456MOL0     C61474  -0.576   3.238   3.916 -0.5363  0.5434  0.4978
  456MOL0     C61475  -0.521   3.366   3.883  0.1620  0.6564  0.0581
  456MOL0     N61476  -0.003   3.983   3.989 -0.0259 -0.3338  0.6403
  456MOL0     N61477   0.126   3.971   3.998  0.2907 -0.2278  0.3653
  456MOL0     C61478   1.383   3.601   3.978  0.8819 -0.4587  0.4282
  456MOL0     C61479   1.506   3.540   3.960 -0.1249  0.0793 -0.4108
  456MOL0     C61480   1.892   3.379   3.941  0.3357 -0.2221 -0.0280
  456MOL0     C61481   1.897   3.317   3.814  0.4386 -1.0772 -0.6885
  456MOL0     C61482   1.991   3.213   3.798  0.6934  0.2855 -0.4543
  456MOL0     C61483   2.073   3.170   3.901 -0.0442  0.0425  0.1661
  456MOL0     O61484   2.162   3.064   3.883 -0.0235  0.4010 -0.0667
  456MOL0     C61485   2.299   3.096   3.876  0.4201 -0.2281 -0.4464
  456MOL0     C61486   2.361   2.993   3.772  0.0269 -0.3903 -0.3921
  456MOL0     C61487   2.515   3.027   3.759  1.1818  0.5821  0.3273
  456MOL0     C61488   2.587   2.949   3.646 -0.4054 -0.2705 -0.2577
  456MOL0     C61489   2.730   2.947   3.664  1.1167  0.8557  0.4104
  456MOL0     C61490   2.847   2.939   3.683  0.2216  0.4843 -0.3079
  456MOL0     C61491   2.088   3.247   4.014  0.1149 -0.1766 -0.2532
  456MOL0     C61492   1.990   3.353   4.038  0.2784  0.1931  0.3411
  456MOL0     H61493   1.648   3.765   3.763 -0.9627 -0.5283 -1.4328
  456MOL0     H61494   1.436   3.873   3.781  1.9994  0.5108  1.7215
  456MOL0     H61495   1.087   3.626   3.933 -1.3468  0.0342  1.7444
  456MOL0     H61496   1.112   3.714   4.083  1.3130 -0.0884 -0.1491
  456MOL0     H61497   1.029   3.920   3.969 -2.1537 -0.5813  1.0237
  456MOL0     H61498   1.001   3.836   3.816 -1.0458 -1.2910 -1.1202
  456MOL0     H61499   0.844   3.693   3.948  1.4806 -0.5405  1.7713
  456MOL0     H61500   0.865   3.817   4.074  2.0508  0.5822  0.0908
  456MOL0     H61501   0.806   3.996   3.910 -2.4352  0.8780  0.2270
  456MOL0     H61502   0.784   3.880   3.781 -0.5198  1.5267 -0.5177
  456MOL0     H61503   0.583   3.787   3.924  1.4501  0.7846 -2.3017
  456MOL0     H61504   0.632   3.903   4.038  6.2721 -0.8726  0.7989
  456MOL0     H61505   0.590   4.080   3.835  1.6156 -0.9916 -1.1036
  456MOL0     H61506   0.544   3.933   3.745 -0.3670 -3.0231  1.7561
  456MOL0     H61507   0.395   4.020   3.994 -0.4930  0.4116 -0.3156
  456MOL0     H61508   0.364   4.088   3.832  0.7320  1.6176  2.1032
  456MOL0     H61509   0.336   3.783   3.894 -1.1881 -0.4631 -1.3198
  456MOL0     H61510   0.310   3.869   3.746 -1.8964  0.3391  0.8125
  456MOL0     H61511   0.042   3.816   3.721  1.8885  0.0937  0.1188
  456MOL0     H61512  -0.235   4.037   3.841  1.5961  0.4573  0.0351
  456MOL0     H61513  -0.183   3.951   3.701  1.9192 -3.8329 -0.8623
  456MOL0     H61514  -0.391   3.836   3.831  0.1586  1.8090 -0.2493
  456MOL0     H61515  -0.278   3.782   3.945 -0.5426  0.3250 -0.3986
  456MOL0     H61516  -0.158   3.658   3.770 -0.4963  0.0779  2.5971
  456MOL0     H61517  -0.274   3.723   3.646 -0.5984  1.4352  0.5339
  456MOL0     H61518  -0.325   3.487   3.738 -0.9232  1.4029 -2.5297
  456MOL0     H61519  -0.452   3.604   3.754  1.6182  2.9904 -2.1584
  456MOL0     H61520  -0.333   3.417   4.158 -0.6926  2.9271 -1.3266
  456MOL0     H61521  -0.335   3.246   4.292  0.6933 -0.6599  0.6843
  456MOL0     H61522  -0.500   3.229   4.331  0.7217  1.0254  0.9093
  456MOL0     H61523  -0.402   3.092   4.265  2.0944  0.9561  1.6592
  456MOL0     H61524  -0.896   3.156   4.239  0.4237  0.3553 -0.9926
  456MOL0     H61525  -1.083   3.032   4.347 -1.6721 -1.1781  0.4418
  456MOL0     H61526  -1.306   2.790   4.198 -1.0164  3.4238  5.7771
  456MOL0     H61527  -1.201   2.643   4.180  2.7146  2.3454 -1.5242
  456MOL0     H61528  -1.406   2.585   4.332 -1.6660  1.4047 -1.3125
  456MOL0     H61529  -1.271   2.602   4.435  0.8053 -2.0141 -2.4804
  456MOL0     H61530  -1.495   2.711   4.496 -0.8383  1.0106  0.2048
  456MOL0     H61531  -1.456   2.843   4.380 -0.4439  2.8754  3.4237
  456MOL0     H61532  -1.293   2.767   4.623 -3.0080 -3.1444 -1.0140
  456MOL0     H61533  -1.250   2.890   4.507 -2.6327  4.0161 -0.6089
  456MOL0     H61534  -1.501   2.902   4.665 -0.1017  1.5845  0.0444
  456MOL0     H61535  -1.435   3.019   4.553  0.6549  2.8315  2.0277
  456MOL0     H61536  -1.296   2.907   4.819 -1.2012 -0.1865  0.1419
  456MOL0     H61537  -1.232   3.043   4.721  0.3459 -1.4630  0.6981
  456MOL0     H61538  -1.508   3.054   4.842 -0.1395  1.0451 -2.1476
  456MOL0     H61539  -1.405   3.189   4.775  1.5038  1.1486  0.9005
  456MOL0     H61540  -1.338   3.023   5.020  1.7470 -1.4991 -2.9735
  456MOL0     H61541  -1.453   3.144   5.029 -2.2626 -1.5740 -2.7346
  456MOL0     H61542  -0.982   2.684   4.117  1.0965 -0.2995 -0.7761
  456MOL0     H61543  -0.814   2.821   3.996 -1.0801  1.1990 -0.0919
  456MOL0     H61544  -0.634   3.184   3.842  0.8278  0.4346 -0.5344
  456MOL0     H61545  -0.553   3.413   3.790  1.3292  3.4981  0.9977
  456MOL0     H61546   1.317   3.551   4.048  2.0575 -0.2740  1.7054
  456MOL0     H61547   1.518   3.442   4.006  1.3395  0.9174  1.1162
  456MOL0     H61548   1.825   3.338   3.735 -0.8146 -1.3899  0.3508
  456MOL0     H61549   1.987   3.144   3.714  0.3840 -1.3122  0.8346
  456MOL0     H61550   2.317   3.199   3.845 -2.2764  0.0318 -1.3895
  456MOL0     H61551   2.337   3.081   3.977 -0.4349  1.9601  0.2390
  456MOL0     H61552   2.321   2.997   3.671 -1.3315  0.8213  0.1490
  456MOL0     H61553   2.363   2.887   3.801 -0.9079 -1.0684 -2.6218
  456MOL0     H61554   2.546   3.008   3.862  0.1860 -2.0941  0.2039
  456MOL0     H61555   2.527   3.135   3.746 -2.0464  1.0904  0.6375
  456MOL0     H61556   2.575   3.012   3.557  4.0125  0.0359 -0.8590
  456MOL0     H61557   2.549   2.850   3.621  0.4951 -0.9970  1.1522
  456MOL0     H61558   2.954   2.936   3.692  0.3204  0.4376 -1.3274
  456MOL0     H61559   2.152   3.202   4.090 -0.2286  1.8486  1.3332
  456MOL0     H61560   1.989   3.403   4.134 -0.1435 -1.9137  1.4935
  457MOL0     O61561  11.015   3.278   2.884  0.3277  0.1948 -0.3121
  457MOL0     C61562  11.101   3.255   2.965  0.9370 -0.1018 -0.2562
  457MOL0     O61563  11.096   3.170   3.074 -0.1957 -0.7099  0.3679
  457MOL0     C61564  10.977   3.109   3.106 -0.3278  0.3908 -1.0135
  457MOL0     C61565  10.857   3.186   3.130  0.9613 -0.5695  0.6516
  457MOL0     C61566  10.738   3.121   3.163 -0.1533  0.4153  0.0411
  457MOL0     C61567  10.739   2.984   3.189  0.0921  0.4033 -0.3215
  457MOL0     O61568  10.628   2.912   3.212 -0.1747  0.9222  0.4977
  457MOL0     C61569  10.495   2.956   3.180 -0.4810  0.0365  0.7875
  457MOL0     C61570  10.410   2.833   3.178  0.8655 -0.0127 -0.3724
  457MOL0     C61571  10.262   2.857   3.129  0.5643 -0.5823 -0.0773
  457MOL0     C61572  10.184   2.938   3.227 -0.5152  0.2888 -0.9648
  457MOL0     C61573  10.042   2.952   3.177 -0.0906 -0.3619 -1.2014
  457MOL0     C61574   9.960   2.822   3.203  0.1212 -0.3065 -0.0863
  457MOL0     C61575   9.811   2.860   3.218 -0.4687  0.0746 -0.0332
  457MOL0     C61576   9.741   2.788   3.332  0.4632 -0.6187  0.1535
  457MOL0     N61577   9.595   2.818   3.312 -0.2211  0.1017  0.9611
  457MOL0     C61578   9.527   2.937   3.295 -0.5239  1.0829  0.3374
  457MOL0     C61579   9.392   2.906   3.294  0.6092 -0.7884 -0.7618
  457MOL0     C61580   9.277   3.005   3.278  0.6655 -0.1701 -0.6562
  457MOL0     C61581   9.141   2.947   3.243  0.0438  0.4158 -0.4025
  457MOL0     C61582   9.065   2.915   3.365 -0.4889 -0.1679 -0.4720
  457MOL0     C61583   8.910   2.908   3.351 -0.5470 -0.0534  0.5217
  457MOL0     O61584   8.860   2.847   3.231 -0.4107  0.1654  0.6603
  457MOL0     C61585   8.721   2.845   3.200 -0.3356 -1.0382  1.0305
  457MOL0     C61586   8.675   2.738   3.133 -0.5366 -0.1337  0.3784
  457MOL0     C61587   8.544   2.735   3.085  0.2908 -0.1884  0.5441
  457MOL0     C61588   8.500   2.610   3.007 -1.0360 -0.0107 -0.2371
  457MOL0     C61589   8.454   2.837   3.116 -0.0703 -0.4474  0.1000
  457MOL0     C61590   8.306   2.831   3.083 -0.2301 -0.7812 -0.3525
  457MOL0     O61591   8.230   2.935   3.125  0.5240  0.1761 -0.4496
  457MOL0     C61592   8.108   2.957   3.061  0.8230  0.5492 -0.6525
  457MOL0     C61593   8.073   3.094   3.075  0.5237  0.4984 -0.5065
  457MOL0     C61594   7.954   3.139   3.014  0.8828 -0.5128  0.1858
  457MOL0     C61595   7.880   3.052   2.938  0.1087  0.1790 -0.0696
  457MOL0     O61596   7.763   3.094   2.882  0.0898 -0.4548 -0.2697
  457MOL0     C61597   7.749   3.058   2.745  1.5525 -0.2264 -0.2553
  457MOL0     C61598   7.648   3.151   2.666 -0.3509 -0.6233 -0.3596
  457MOL0     C61599   7.508   3.173   2.732 -0.0021 -0.5769 -0.0340
  457MOL0     C61600   7.398   3.223   2.630  0.1698 -0.2939  0.6893
  457MOL0     C61601   7.278   3.256   2.714  0.1408  0.0585 -0.4553
  457MOL0     C61602   7.152   3.278   2.621  0.7773  0.1574  0.5564
  457MOL0     C61603   7.109   3.155   2.529  0.1837 -0.9398 -0.1311
  457MOL0     C61604   6.963   3.168   2.476 -1.0189  1.2940 -0.0976
  457MOL0    Cl61605   6.841   3.190   2.584 -0.0466 -0.1299 -0.1333
  457MOL0     C61606   7.907   2.912   2.944  0.6852 -0.9225 -0.5382
  457MOL0     C61607   8.016   2.859   3.009  0.2250  0.2779 -0.1985
  457MOL0     O61608   8.261   2.724   3.052  0.6971  0.0309 -0.3677
  457MOL0     C61609   8.501   2.943   3.188 -0.0659 -0.4531 -0.4004
  457MOL0     C61610   8.633   2.948   3.226  0.3670  0.3478  0.2236
  457MOL0     N61611   9.387   2.765   3.301 -0.2602 -0.6329  1.0036
  457MOL0     N61612   9.502   2.720   3.306  0.4217  1.1400  0.4306
  457MOL0     C61613  10.859   2.915   3.184  0.0145  0.1725  0.3246
  457MOL0     C61614  10.982   2.970   3.138 -0.5226 -0.1659 -0.6298
  457MOL0     C61615  11.229   3.322   2.933  0.6408 -1.4384 -0.4907
  457MOL0     C61616  11.236   3.423   2.832  0.1653 -0.0394 -1.2590
  457MOL0     C61617  11.358   3.485   2.797 -0.4929 -0.5128 -0.2584
  457MOL0     C61618  11.477   3.464   2.868  0.0127 -0.6230 -0.3017
  457MOL0     O61619  11.597   3.518   2.846 -0.2488 -1.0848 -0.3495
  457MOL0     C61620  11.611   3.639   2.767 -0.1482 -0.3376 -0.0202
  457MOL0     C61621  11.542   3.764   2.818 -0.2782 -0.6568  0.1783
  457MOL0     C61622  11.617   3.803   2.948  0.8034  0.0292  0.4745
  457MOL0     C61623  11.682   3.944   2.933  0.3767 -0.3897 -0.5841
  457MOL0     C61624  11.790   3.948   2.833  0.1527  0.2419 -0.7906
  457MOL0     C61625  11.886   3.963   2.759 -0.4526  0.6010 -0.7038
  457MOL0     C61626  11.473   3.362   2.966  0.7665 -0.7345 -0.4282
  457MOL0     C61627  11.353   3.291   2.997 -0.4044  0.4325 -0.7326
  457MOL0     H61628  10.866   3.292   3.113  0.3233 -0.8333 -1.7282
  457MOL0     H61629  10.659   3.190   3.192  0.0026  0.9196 -0.7070
  457MOL0     H61630  10.463   3.042   3.240  0.1092 -1.0946  2.8119
  457MOL0     H61631  10.501   2.995   3.078  0.0967  0.1552  0.8642
  457MOL0     H61632  10.452   2.757   3.112  0.3586 -1.9204  1.3975
  457MOL0     H61633  10.410   2.787   3.277 -1.4372  0.8901  0.1079
  457MOL0     H61634  10.261   2.900   3.028  0.4223  1.4448  0.7535
  457MOL0     H61635  10.230   2.753   3.121  0.5794 -0.4815 -1.7921
  457MOL0     H61636  10.195   2.887   3.324  2.2351  0.3074 -1.1910
  457MOL0     H61637  10.228   3.038   3.234 -1.8669  0.8932 -0.7467
  457MOL0     H61638  10.008   3.028   3.248  2.2567 -0.6593  0.3834
  457MOL0     H61639  10.044   2.990   3.075  0.7124 -0.6425 -1.3014
  457MOL0     H61640   9.969   2.745   3.126  0.6347 -0.9281  0.5827
  457MOL0     H61641   9.987   2.778   3.300  0.0631  1.2463  0.6665
  457MOL0     H61642   9.792   2.967   3.213 -0.8462 -0.0413 -2.1628
  457MOL0     H61643   9.766   2.826   3.124  1.2988  0.5004 -1.0920
  457MOL0     H61644   9.781   2.831   3.424 -1.3543 -0.9598  1.1431
  457MOL0     H61645   9.775   2.685   3.337 -3.4950 -2.0562  1.4812
  457MOL0     H61646   9.565   3.036   3.274  0.6368  0.5251 -0.3133
  457MOL0     H61647   9.285   3.075   3.362 -1.5402  0.4026 -0.8738
  457MOL0     H61648   9.305   3.074   3.198  0.3458 -1.0278 -1.5234
  457MOL0     H61649   9.152   2.858   3.181 -1.4869 -0.3748  0.3952
  457MOL0     H61650   9.078   3.016   3.188 -3.3833 -1.2533  1.1065
  457MOL0     H61651   9.082   2.988   3.445 -1.0491 -2.7360  2.1732
  457MOL0     H61652   9.110   2.822   3.403  0.1306  0.0309 -0.7183
  457MOL0     H61653   8.875   3.011   3.362 -1.4629 -0.4925  2.1800
  457MOL0     H61654   8.865   2.854   3.435 -0.4454  1.4879  1.6168
  457MOL0     H61655   8.743   2.654   3.119  0.4077  0.7381 -0.4196
  457MOL0     H61656   8.587   2.547   2.986 -1.3384 -0.8073  0.8018
  457MOL0     H61657   8.441   2.543   3.069 -2.1317 -0.7510 -2.0140
  457MOL0     H61658   8.440   2.641   2.921 -0.3261 -1.9719 -1.4900
  457MOL0     H61659   8.131   3.171   3.124 -0.6515 -1.2434  4.1668
  457MOL0     H61660   7.919   3.242   3.012  0.0132 -0.8100 -1.4070
  457MOL0     H61661   7.844   3.063   2.691  1.7415 -1.3607 -0.0593
  457MOL0     H61662   7.721   2.952   2.741  2.9111 -0.6020 -0.4519
  457MOL0     H61663   7.684   3.254   2.659 -2.3597  0.0420 -1.7128
  457MOL0     H61664   7.633   3.105   2.568 -0.0390  1.0914 -1.2693
  457MOL0     H61665   7.525   3.240   2.817  1.4253 -1.8537  0.7355
  457MOL0     H61666   7.461   3.084   2.777  1.4545 -1.1295  0.4450
  457MOL0     H61667   7.421   3.323   2.591 -2.0668 -0.4583 -1.2882
  457MOL0     H61668   7.375   3.144   2.558  0.1052  0.5792 -0.2728
  457MOL0     H61669   7.291   3.336   2.788  1.4440 -0.7730  0.2490
  457MOL0     H61670   7.255   3.172   2.782  0.3503  1.0403  0.8777
  457MOL0     H61671   7.064   3.296   2.684  0.0024  1.6014 -0.8545
  457MOL0     H61672   7.157   3.370   2.562  0.5277  2.2492  3.5835
  457MOL0     H61673   7.111   3.060   2.584 -2.7712 -0.1596  1.5113
  457MOL0     H61674   7.179   3.154   2.445  1.4502  0.5656  0.8632
  457MOL0     H61675   6.942   3.078   2.416 -1.3930  2.6251 -2.0446
  457MOL0     H61676   6.956   3.249   2.403  1.5272  2.2522  0.5936
  457MOL0     H61677   7.840   2.848   2.887 -0.1002  1.7344 -2.8472
  457MOL0     H61678   8.040   2.754   3.015 -2.8514 -0.7214 -2.3938
  457MOL0     H61679   8.434   3.026   3.204 -0.3851 -0.4295 -1.7087
  457MOL0     H61680   8.663   3.037   3.281  0.1051 -0.8948  2.5247
  457MOL0     H61681  10.850   2.808   3.204  1.7854 -0.5936 -2.4556
  457MOL0     H61682  11.076   2.916   3.133 -1.2665 -1.7234  1.0374
  457MOL0     H61683  11.149   3.447   2.772  0.3376  0.8055 -1.1928
  457MOL0     H61684  11.359   3.560   2.719 -0.1676  1.9124  1.9281
  457MOL0     H61685  11.719   3.658   2.758  0.1501 -1.5018  0.8594
  457MOL0     H61686  11.589   3.612   2.663 -1.7820 -0.5561  0.3658
  457MOL0     H61687  11.436   3.742   2.839  0.3615 -3.7424  0.7365
  457MOL0     H61688  11.559   3.836   2.738 -0.3850  0.3791  1.0726
  457MOL0     H61689  11.695   3.731   2.973  0.8119  0.1556  0.8123
  457MOL0     H61690  11.545   3.823   3.029  0.6212 -1.0365  0.5953
  457MOL0     H61691  11.714   3.973   3.034  2.4262 -2.3450 -0.5965
  457MOL0     H61692  11.600   4.007   2.899  0.2455 -1.2168 -1.8485
  457MOL0     H61693  11.950   3.983   2.676 -2.3171  0.7713 -2.1636
  457MOL0     H61694  11.555   3.334   3.031  0.3535  0.3016  0.5747
  457MOL0     H61695  11.350   3.216   3.075 -1.1646  0.7721 -0.4205
  458MOL0     O61696  10.344   0.316   9.767 -0.6038 -0.2415  0.9313
  458MOL0     C61697  10.385   0.322   9.654 -0.5639  0.1191 -0.8983
  458MOL0     O61698  10.318   0.371   9.543  0.0025 -0.1870  0.6939
  458MOL0     C61699  10.187   0.422   9.570 -0.5976  0.3022 -0.0517
  458MOL0     C61700  10.085   0.336   9.585 -0.0614  0.7110  0.0246
  458MOL0     C61701   9.954   0.385   9.608  0.5957 -0.0804  0.3899
  458MOL0     C61702   9.925   0.523   9.608 -0.5768  0.2532 -0.2816
  458MOL0     O61703   9.797   0.566   9.653  0.4400  0.4713 -0.2702
  458MOL0     C61704   9.794   0.686   9.720  0.1061  0.6232  0.3688
  458MOL0     C61705   9.656   0.688   9.785  0.2465  0.2178 -0.8130
  458MOL0     C61706   9.640   0.601   9.917  0.4736 -0.4949  0.2282
  458MOL0     C61707   9.504   0.640   9.972  0.3564  0.6530  0.5050
  458MOL0     C61708   9.491   0.586  10.109 -0.3912  0.8671 -0.5008
  458MOL0     C61709   9.401   0.669  10.198  0.9427 -0.1365  0.5259
  458MOL0     C61710   9.431   0.628  10.348 -0.6882  0.1866 -0.4984
  458MOL0     C61711   9.355   0.716  10.450  0.7849 -0.0409 -0.5112
  458MOL0     N61712   9.211   0.718  10.442 -0.1979  0.6029  0.3084
  458MOL0     C61713   9.141   0.791  10.352  0.3133  0.1610  0.4017
  458MOL0     C61714   9.012   0.756  10.373  0.9867 -0.0364  0.1739
  458MOL0     C61715   8.895   0.809  10.291  0.7357 -1.5396 -0.1980
  458MOL0     C61716   8.825   0.703  10.213  0.3517 -0.9958  0.3963
  458MOL0     C61717   8.716   0.767  10.122 -0.0570 -0.4537 -0.1628
  458MOL0     C61718   8.647   0.660  10.047  0.6420  0.4522 -0.5031
  458MOL0     O61719   8.539   0.596  10.115 -0.0033  0.0907  0.3671
  458MOL0     C61720   8.403   0.638  10.102 -0.1035  0.8913  0.0440
  458MOL0     C61721   8.312   0.563  10.169  0.3606 -0.1421  0.0881
  458MOL0     C61722   8.178   0.583  10.161  0.3002 -0.5494 -0.6189
  458MOL0     C61723   8.095   0.505  10.248 -0.1970 -0.3970  0.6637
  458MOL0     C61724   8.125   0.686  10.069 -0.2198 -0.2967 -0.3559
  458MOL0     C61725   7.983   0.719  10.042 -1.1734 -0.7630 -0.0492
  458MOL0     O61726   7.957   0.849  10.003  0.4210  0.1719  0.7795
  458MOL0     C61727   7.837   0.902   9.969  0.1098  0.0557  0.2139
  458MOL0     C61728   7.844   0.998   9.874  0.1215  0.1679  0.5691
  458MOL0     C61729   7.721   1.062   9.833 -0.5200  0.5427 -0.7952
  458MOL0     C61730   7.598   1.030   9.886  0.8109  0.9994 -1.2896
  458MOL0     O61731   7.480   1.095   9.869  0.6078 -0.0416 -0.6934
  458MOL0     C61732   7.481   1.222   9.805 -0.1596 -0.2171  0.5708
  458MOL0     C61733   7.342   1.278   9.802 -0.5314 -0.5679 -0.1865
  458MOL0     C61734   7.340   1.430   9.767 -0.2983  0.3517  1.1376
  458MOL0     C61735   7.212   1.494   9.815  0.5735  0.0762  0.2090
  458MOL0     C61736   7.192   1.630   9.752 -0.6714 -0.4986  0.2374
  458MOL0     C61737   7.051   1.674   9.756  0.6742 -0.2171 -0.2400
  458MOL0     C61738   6.989   1.689   9.893 -0.6512  0.2106 -0.3966
  458MOL0     C61739   6.844   1.658   9.904  0.1405 -0.0922  0.1015
  458MOL0    Cl61740   6.762   1.720  10.048 -0.4280  0.2782 -0.1627
  458MOL0     C61741   7.599   0.924   9.971 -0.1907 -0.6934  0.7298
  458MOL0     C61742   7.713   0.860  10.014  0.9741 -0.2383  0.8045
  458MOL0     O61743   7.909   0.621  10.040  0.2310  0.5031  0.2860
  458MOL0     C61744   8.225   0.771  10.016  0.4817  0.0209  0.2807
  458MOL0     C61745   8.360   0.745  10.028 -0.1056  0.3374 -0.1629
  458MOL0     N61746   9.006   0.668  10.475  0.5336 -0.7164  0.1323
  458MOL0     N61747   9.129   0.637  10.517 -0.3734  0.2468  0.5876
  458MOL0     C61748  10.033   0.604   9.586  0.2523 -0.3614  0.6180
  458MOL0     C61749  10.162   0.559   9.567  0.3795  0.1463 -0.6126
  458MOL0     C61750  10.532   0.283   9.635 -0.3990 -0.3618 -0.4983
  458MOL0     C61751  10.609   0.323   9.524  0.0966  0.0983 -0.9733
  458MOL0     C61752  10.746   0.287   9.516 -0.7596 -0.6713 -0.1709
  458MOL0     C61753  10.813   0.215   9.618 -0.8181  0.0547  0.4328
  458MOL0     O61754  10.952   0.186   9.609  0.7181 -0.1261  0.3209
  458MOL0     C61755  11.015   0.119   9.723 -0.6421  0.8537 -0.5257
  458MOL0     C61756  11.160   0.074   9.694 -1.0810  0.0024 -0.1807
  458MOL0     C61757  11.251   0.204   9.677  0.1261 -0.4607  0.1859
  458MOL0     C61758  11.407   0.179   9.668  0.2237  0.1108 -0.1277
  458MOL0     C61759  11.433   0.082   9.561  0.2241 -0.7373 -0.4331
  458MOL0     C61760  11.461  -0.005   9.480 -0.1624  0.1543  0.0735
  458MOL0     C61761  10.732   0.174   9.728 -0.2409  0.4135 -0.3403
  458MOL0     C61762  10.593   0.208   9.738  0.5827  0.7683  0.6902
  458MOL0     H61763  10.098   0.228   9.591  1.2927  0.3477 -4.7769
  458MOL0     H61764   9.874   0.318   9.636 -0.2029 -0.4864 -2.5076
  458MOL0     H61765   9.883   0.694   9.783  1.0580 -0.0345 -0.8483
  458MOL0     H61766   9.800   0.768   9.648 -1.6977 -0.9328 -1.6682
  458MOL0     H61767   9.640   0.792   9.813 -0.0251 -0.1493  0.4714
  458MOL0     H61768   9.582   0.657   9.710  1.0578  0.6910 -1.8289
  458MOL0     H61769   9.639   0.494   9.895  3.0532 -0.7112  0.8058
  458MOL0     H61770   9.719   0.627   9.988  0.3412 -1.3458  0.7031
  458MOL0     H61771   9.504   0.749   9.982 -0.7001  0.4855  3.3367
  458MOL0     H61772   9.418   0.614   9.910  1.5289  0.6533 -1.2059
  458MOL0     H61773   9.457   0.483  10.121  0.4302  0.3803 -1.9843
  458MOL0     H61774   9.587   0.578  10.160 -0.2574 -2.2243 -1.0287
  458MOL0     H61775   9.433   0.772  10.178  0.4697 -0.2074 -0.6794
  458MOL0     H61776   9.303   0.646  10.156  1.2500  3.3082 -2.6770
  458MOL0     H61777   9.417   0.520  10.357 -0.4522  0.0403 -1.6905
  458MOL0     H61778   9.535   0.649  10.373  0.4526 -2.8949 -2.1903
  458MOL0     H61779   9.389   0.817  10.425  0.7702 -0.6361 -3.2842
  458MOL0     H61780   9.384   0.688  10.551 -1.7352 -0.1127  0.2636
  458MOL0     H61781   9.189   0.852  10.277  2.3561  1.1715  2.4207
  458MOL0     H61782   8.827   0.851  10.366 -0.1509 -0.8612 -1.3515
  458MOL0     H61783   8.923   0.889  10.223 -1.8200 -0.8746 -0.5617
  458MOL0     H61784   8.785   0.625  10.279  1.0824 -0.9208  0.9415
  458MOL0     H61785   8.902   0.656  10.151  0.9210 -1.6941  1.5938
  458MOL0     H61786   8.764   0.831  10.047  1.9868  1.2881  2.4450
  458MOL0     H61787   8.647   0.832  10.177  0.1362 -1.9941  1.9829
  458MOL0     H61788   8.713   0.587   9.999  2.1794  1.7362 -0.4431
  458MOL0     H61789   8.612   0.710   9.956  0.3081  0.7261 -0.2272
  458MOL0     H61790   8.357   0.490  10.235  0.8430  0.6261  0.6256
  458MOL0     H61791   8.028   0.565  10.310  0.5182 -1.5913  2.7283
  458MOL0     H61792   8.023   0.463  10.177 -1.6403  0.1689  1.7501
  458MOL0     H61793   8.153   0.429  10.302  2.7386  0.3833 -1.1187
  458MOL0     H61794   7.941   1.032   9.839 -0.1717  0.4766  0.0512
  458MOL0     H61795   7.737   1.144   9.762  3.3813 -0.8384 -1.8006
  458MOL0     H61796   7.555   1.287   9.854 -1.2761  0.9393  0.7769
  458MOL0     H61797   7.500   1.226   9.697  0.5687 -0.2113  0.6947
  458MOL0     H61798   7.275   1.222   9.736 -1.0840  0.3536 -0.4322
  458MOL0     H61799   7.294   1.271   9.901 -1.2677  2.0731 -0.2726
  458MOL0     H61800   7.354   1.447   9.659  1.5959 -1.0268  1.1175
  458MOL0     H61801   7.418   1.476   9.829  2.5605 -1.5222 -0.7884
  458MOL0     H61802   7.131   1.431   9.778 -0.6621  0.6223  1.8496
  458MOL0     H61803   7.221   1.502   9.924  2.1798 -0.4177  0.1356
  458MOL0     H61804   7.228   1.634   9.649  1.0128 -1.2795  0.7438
  458MOL0     H61805   7.253   1.703   9.806  0.4808 -2.6161  2.0253
  458MOL0     H61806   7.035   1.770   9.706 -1.0553  0.5077  1.5665
  458MOL0     H61807   6.986   1.605   9.702 -1.6129  1.0084  0.8175
  458MOL0     H61808   7.004   1.796   9.912  0.4108  0.2697 -1.4688
  458MOL0     H61809   7.041   1.632   9.971  0.0752 -0.8933 -1.6283
  458MOL0     H61810   6.830   1.550   9.901  2.4749 -0.5093  1.5916
  458MOL0     H61811   6.791   1.701   9.818 -0.8422 -1.3667  0.0400
  458MOL0     H61812   7.501   0.894  10.009 -1.0032  1.8250  0.7791
  458MOL0     H61813   7.692   0.769  10.069  0.6918  0.1779  1.3952
  458MOL0     H61814   8.201   0.854   9.950 -1.7709 -1.3795 -0.8199
  458MOL0     H61815   8.441   0.799   9.979  1.8117 -1.3617  0.9477
  458MOL0     H61816  10.009   0.710   9.584 -0.6535 -0.5621  0.2107
  458MOL0     H61817  10.247   0.627   9.571  0.4962  0.1790 -2.7219
  458MOL0     H61818  10.567   0.389   9.449 -0.7993  0.8588  0.1663
  458MOL0     H61819  10.799   0.327   9.430 -1.6630 -0.0789 -0.4717
  458MOL0     H61820  11.006   0.183   9.811 -1.0443  0.0313  0.0444
  458MOL0     H61821  10.957   0.029   9.745  0.8877 -0.1366 -0.3562
  458MOL0     H61822  11.161   0.022   9.598 -1.5806  1.1675 -0.8436
  458MOL0     H61823  11.206   0.014   9.773  1.4046 -0.3545 -1.8121
  458MOL0     H61824  11.225   0.265   9.763  1.8502 -2.2448  2.0840
  458MOL0     H61825  11.225   0.260   9.586  0.7835  1.4427  1.1199
  458MOL0     H61826  11.447   0.145   9.764  0.3744  4.6791  1.6558
  458MOL0     H61827  11.459   0.272   9.644 -0.1573 -0.2685 -2.6947
  458MOL0     H61828  11.480  -0.078   9.404 -1.0165  0.5596 -0.5406
  458MOL0     H61829  10.771   0.109   9.807 -2.7247 -1.4275 -0.4820
  458MOL0     H61830  10.531   0.185   9.824 -0.0340  2.5549  0.7821
  459MOL0     O61831   3.233   7.082   2.525  0.0594  0.9271  0.5758
  459MOL0     C61832   3.348   7.118   2.501  0.6849  0.8351  0.5655
  459MOL0     O61833   3.433   7.054   2.417 -0.1104  0.3267  0.4715
  459MOL0     C61834   3.388   6.948   2.349 -0.0995 -0.3723 -0.8621
  459MOL0     C61835   3.437   6.830   2.393  0.0725  0.3640 -0.1384
  459MOL0     C61836   3.384   6.708   2.345  0.3629 -0.8152  0.0452
  459MOL0     C61837   3.272   6.710   2.257  0.0928  0.4103 -0.1713
  459MOL0     O61838   3.191   6.601   2.225  0.3444 -1.0356 -0.4355
  459MOL0     C61839   3.242   6.467   2.247 -0.1506 -0.0370 -0.2158
  459MOL0     C61840   3.141   6.372   2.186  0.3716 -0.5632  0.3267
  459MOL0     C61841   2.999   6.396   2.233  0.0105 -0.0636  0.5899
  459MOL0     C61842   2.901   6.301   2.163 -0.1662  0.2412 -0.2349
  459MOL0     C61843   2.764   6.295   2.244 -0.2851 -0.5926  0.1860
  459MOL0     C61844   2.669   6.200   2.188 -0.2901  0.2400  0.5437
  459MOL0     C61845   2.540   6.199   2.271 -0.2665 -0.5457  0.3128
  459MOL0     C61846   2.467   6.062   2.266  0.5549 -1.1051  0.0762
  459MOL0     N61847   2.354   6.071   2.358 -0.5533 -0.3306  0.0365
  459MOL0     C61848   2.343   6.070   2.498 -0.6878 -0.4444  0.5414
  459MOL0     C61849   2.216   6.095   2.521  0.3157 -0.5354 -0.5206
  459MOL0     C61850   2.153   6.081   2.655 -0.0221  0.3060  0.2292
  459MOL0     C61851   2.173   6.209   2.737  0.3531  0.1709 -0.0718
  459MOL0     C61852   2.288   6.217   2.833  0.5057  0.7792 -0.8562
  459MOL0     C61853   2.295   6.345   2.905  0.5163  0.1625 -0.3246
  459MOL0     O61854   2.170   6.379   2.971 -0.4510 -0.5381 -0.9768
  459MOL0     C61855   2.160   6.347   3.108  0.5108 -0.2912 -0.3777
  459MOL0     C61856   2.230   6.239   3.164  0.3036  0.2444 -0.0846
  459MOL0     C61857   2.199   6.193   3.291  0.2408 -0.0313 -0.0043
  459MOL0     C61858   2.281   6.082   3.342  0.3265 -0.4240 -0.0253
  459MOL0     C61859   2.096   6.252   3.368  0.2092 -0.1054 -0.9765
  459MOL0     C61860   2.031   6.194   3.493  0.2705 -0.4289  0.1951
  459MOL0     O61861   1.926   6.259   3.530  0.5581 -0.2020 -0.1937
  459MOL0     C61862   1.900   6.282   3.668 -0.6156  0.6673  0.2404
  459MOL0     C61863   1.977   6.237   3.783  0.0663  0.5675  0.6947
  459MOL0     C61864   1.940   6.272   3.915  0.4085 -0.1612  0.0398
  459MOL0     C61865   1.821   6.348   3.943  0.1194  0.4850  0.0487
  459MOL0     O61866   1.805   6.388   4.071 -0.3494  0.5285  0.5805
  459MOL0     C61867   1.698   6.473   4.107 -0.0875 -0.0195 -0.9020
  459MOL0     C61868   1.674   6.476   4.259 -0.7762  0.3012 -1.3206
  459MOL0     C61869   1.780   6.577   4.327 -0.0137  0.5138 -0.2782
  459MOL0     C61870   1.727   6.633   4.460 -0.9386 -0.2272 -0.8210
  459MOL0     C61871   1.698   6.531   4.573 -0.3155  0.1394  0.0723
  459MOL0     C61872   1.832   6.495   4.632  0.4952  0.3913 -0.7440
  459MOL0     C61873   1.805   6.390   4.737 -0.5891  0.2956  0.8140
  459MOL0     C61874   1.954   6.354   4.799 -0.2722  0.5533 -0.6628
  459MOL0    Cl61875   2.031   6.247   4.682 -0.0776 -0.3422 -0.2041
  459MOL0     C61876   1.736   6.384   3.830  0.1816  0.4105 -0.2299
  459MOL0     C61877   1.779   6.349   3.695  0.0104  0.5068  0.2407
  459MOL0     O61878   2.083   6.095   3.543 -0.6383 -0.3912  0.4474
  459MOL0     C61879   2.037   6.374   3.320 -0.3067 -0.7757  0.5680
  459MOL0     C61880   2.070   6.418   3.190  0.1163  0.3558 -0.0468
  459MOL0     N61881   2.145   6.114   2.403  0.3294 -0.5252  0.5939
  459MOL0     N61882   2.235   6.105   2.313 -0.5487 -0.0814 -0.6248
  459MOL0     C61883   3.219   6.827   2.210 -0.0896 -0.6873 -0.2516
  459MOL0     C61884   3.288   6.949   2.255  0.5147  0.0865  0.0792
  459MOL0     C61885   3.387   7.230   2.585 -0.0863 -0.0558 -0.0145
  459MOL0     C61886   3.305   7.293   2.683 -0.3347  0.8175  0.5436
  459MOL0     C61887   3.347   7.392   2.771 -0.7188  0.5654 -0.8051
  459MOL0     C61888   3.486   7.435   2.765  0.4758  0.3819 -0.8514
  459MOL0     O61889   3.553   7.530   2.852 -0.0301  0.2122  0.0773
  459MOL0     C61890   3.485   7.578   2.974 -0.2896 -0.3270  0.4490
  459MOL0     C61891   3.498   7.472   3.081  0.9922  0.1177 -0.5458
  459MOL0     C61892   3.633   7.474   3.159 -0.7516 -0.8286 -0.1911
  459MOL0     C61893   3.612   7.457   3.305 -0.3734  0.6745 -0.2630
  459MOL0     C61894   3.537   7.561   3.383  0.5201  0.3820  0.7364
  459MOL0     C61895   3.474   7.648   3.438 -1.0924  0.1584 -0.6562
  459MOL0     C61896   3.561   7.380   2.669 -0.5018 -0.0362  1.5544
  459MOL0     C61897   3.510   7.285   2.577 -0.1585  0.0710  0.2634
  459MOL0     H61898   3.509   6.832   2.474  1.1967  1.7751 -1.1159
  459MOL0     H61899   3.424   6.611   2.372 -0.7670 -1.2677  0.1575
  459MOL0     H61900   3.341   6.466   2.202  0.2225  0.2847  0.5701
  459MOL0     H61901   3.244   6.449   2.355 -2.2400  2.8112  0.4115
  459MOL0     H61902   3.158   6.378   2.078  0.0949  1.2932  0.3484
  459MOL0     H61903   3.176   6.276   2.224  0.7852 -0.9841 -1.0529
  459MOL0     H61904   2.998   6.376   2.341  1.7452  1.3958  0.9134
  459MOL0     H61905   2.963   6.498   2.218 -3.4623 -1.0545  1.1130
  459MOL0     H61906   2.872   6.330   2.061 -3.3379  0.3791  0.6115
  459MOL0     H61907   2.937   6.198   2.160  0.5540  0.2685  3.3551
  459MOL0     H61908   2.780   6.271   2.350 -0.4584  1.0499  0.6137
  459MOL0     H61909   2.723   6.395   2.226  0.9911 -0.3226 -1.4105
  459MOL0     H61910   2.648   6.224   2.083 -0.5846  0.0488  0.5592
  459MOL0     H61911   2.708   6.098   2.197  0.5087  0.4702 -0.1270
  459MOL0     H61912   2.568   6.211   2.376 -0.4818 -1.6269  0.5063
  459MOL0     H61913   2.472   6.279   2.241 -1.6203 -0.5340  3.0576
  459MOL0     H61914   2.532   5.983   2.304  0.7001 -1.1876 -0.3342
  459MOL0     H61915   2.438   6.034   2.164  4.5348 -1.3104 -1.1969
  459MOL0     H61916   2.419   6.037   2.568 -3.1455 -1.1524  3.0642
  459MOL0     H61917   2.044   6.068   2.651  0.0798 -1.3499  1.8005
  459MOL0     H61918   2.199   5.996   2.705 -2.1754  0.4144  2.5850
  459MOL0     H61919   2.082   6.210   2.799  0.5952  0.8906  0.2831
  459MOL0     H61920   2.184   6.297   2.674  3.3950 -0.3024 -0.3344
  459MOL0     H61921   2.386   6.199   2.788 -0.2314 -2.9975 -1.2308
  459MOL0     H61922   2.268   6.138   2.906 -0.7303  3.3358  1.8043
  459MOL0     H61923   2.330   6.417   2.830  3.9552 -0.7037  0.2889
  459MOL0     H61924   2.367   6.344   2.987 -0.4678 -0.8998  0.5529
  459MOL0     H61925   2.297   6.180   3.101  1.7836  0.3426  1.3180
  459MOL0     H61926   2.318   6.108   3.442 -3.5895 -2.2607  2.1197
  459MOL0     H61927   2.219   5.993   3.354  0.9297 -0.6349  1.8357
  459MOL0     H61928   2.361   6.053   3.273  1.0614 -0.7931  0.9679
  459MOL0     H61929   2.069   6.182   3.768 -2.7415 -4.7654  0.7730
  459MOL0     H61930   2.008   6.242   3.994  0.4011 -0.7539 -0.1716
  459MOL0     H61931   1.718   6.576   4.075  1.3156  0.7909  2.2118
  459MOL0     H61932   1.606   6.436   4.061 -1.2974  3.4596 -1.6048
  459MOL0     H61933   1.574   6.512   4.280 -0.5151  0.4903 -0.3800
  459MOL0     H61934   1.678   6.376   4.304  2.5199  0.1013 -1.7835
  459MOL0     H61935   1.805   6.654   4.253  2.3676 -3.9508 -4.7687
  459MOL0     H61936   1.877   6.528   4.342  0.2703  1.4507  1.1173
  459MOL0     H61937   1.788   6.718   4.494 -0.5791 -2.0120  3.6699
  459MOL0     H61938   1.632   6.682   4.436 -1.0058  0.2467  0.3472
  459MOL0     H61939   1.652   6.436   4.543  0.9601 -0.4453 -0.0759
  459MOL0     H61940   1.633   6.557   4.657  1.0355 -2.0020  1.9046
  459MOL0     H61941   1.905   6.461   4.557  2.9970  1.8620  0.9044
  459MOL0     H61942   1.875   6.583   4.679  1.3802 -1.1880  1.6004
  459MOL0     H61943   1.755   6.299   4.702  1.3393 -0.1527 -0.9767
  459MOL0     H61944   1.740   6.437   4.811  1.8667 -0.4992  3.6549
  459MOL0     H61945   1.945   6.295   4.891  4.7722  1.2346  0.5838
  459MOL0     H61946   2.016   6.439   4.829  0.6151 -0.9422  2.0099
  459MOL0     H61947   1.647   6.442   3.849 -0.3822 -0.7825  0.8917
  459MOL0     H61948   1.712   6.384   3.617 -0.7760 -0.6621  0.3665
  459MOL0     H61949   1.978   6.438   3.385 -0.2293 -3.2831  3.2867
  459MOL0     H61950   2.027   6.507   3.146  4.0536  1.2949 -2.5017
  459MOL0     H61951   3.152   6.834   2.124 -0.8126  1.3227  0.4060
  459MOL0     H61952   3.240   7.042   2.227 -0.7415 -0.8328 -0.9973
  459MOL0     H61953   3.205   7.255   2.701  0.7858 -0.8477  4.3025
  459MOL0     H61954   3.288   7.414   2.860 -0.7953 -0.7034 -0.5221
  459MOL0     H61955   3.529   7.676   2.995 -0.5788  0.0234 -0.5277
  459MOL0     H61956   3.382   7.602   2.950  0.5017  2.6936 -0.3583
  459MOL0     H61957   3.493   7.378   3.026 -1.5388  0.0502 -0.3179
  459MOL0     H61958   3.413   7.484   3.148 -0.6597  1.1917 -2.6841
  459MOL0     H61959   3.686   7.567   3.137 -1.5686 -0.9546 -3.0751
  459MOL0     H61960   3.695   7.391   3.124  1.0484 -1.7339  4.4777
  459MOL0     H61961   3.713   7.455   3.347 -0.6642 -2.0137  0.5117
  459MOL0     H61962   3.567   7.358   3.320 -1.4596  1.1824 -0.0612
  459MOL0     H61963   3.423   7.720   3.500  1.1807  2.2017 -0.9892
  459MOL0     H61964   3.661   7.422   2.662 -0.6787  0.2524  0.4808
  459MOL0     H61965   3.576   7.240   2.504 -0.5354 -1.2709  0.7150
  460MOL0     O61966  10.359   7.349   9.335  0.2417  0.2691  0.1748
  460MOL0     C61967  10.329   7.401   9.443  0.2591 -0.5123  0.3801
  460MOL0     O61968  10.199   7.450   9.486 -0.1960 -0.7897  0.0402
  460MOL0     C61969  10.088   7.463   9.400  0.3504  0.1409  0.2651
  460MOL0     C61970   9.962   7.488   9.458  1.0364  0.4507 -0.2276
  460MOL0     C61971   9.843   7.505   9.390 -0.5404  0.5267  0.0993
  460MOL0     C61972   9.846   7.511   9.254  1.1970  0.4098  0.0386
  460MOL0     O61973   9.723   7.520   9.186 -0.4653  0.4407  0.1871
  460MOL0     C61974   9.714   7.444   9.057 -0.0570  1.1891 -0.2164
  460MOL0     C61975   9.580   7.381   9.042  0.7248  0.4549 -0.0224
  460MOL0     C61976   9.467   7.468   9.110 -0.8773  0.4523 -0.4688
  460MOL0     C61977   9.343   7.406   9.060  0.4149  0.0568  0.6543
  460MOL0     C61978   9.215   7.462   9.134 -0.4288  0.6612  0.2266
  460MOL0     C61979   9.095   7.427   9.055 -0.2607 -0.6635  0.7598
  460MOL0     C61980   8.964   7.472   9.124  0.7323  0.0161 -0.2209
  460MOL0     C61981   8.846   7.394   9.058 -1.7014  0.9330  0.4761
  460MOL0     N61982   8.727   7.429   9.127  0.1799  0.3268 -0.3752
  460MOL0     C61983   8.650   7.531   9.082 -1.1291  0.6411 -0.8751
  460MOL0     C61984   8.528   7.507   9.135 -0.2259  0.3916  0.1989
  460MOL0     C61985   8.406   7.597   9.122 -0.0388  0.0310  0.0535
  460MOL0     C61986   8.332   7.559   8.988 -0.2198  0.5826 -0.4627
  460MOL0     C61987   8.195   7.628   8.990 -0.4044 -0.4537  0.0626
  460MOL0     C61988   8.131   7.620   8.851  0.2300  0.3721 -0.5602
  460MOL0     O61989   8.108   7.491   8.819 -0.2389 -0.5965 -1.0388
  460MOL0     C61990   7.990   7.459   8.758 -0.3465 -0.4646  0.0946
  460MOL0     C61991   7.888   7.397   8.829  0.8484  0.0741 -0.8775
  460MOL0     C61992   7.765   7.361   8.774  0.8981 -1.0772 -0.0258
  460MOL0     C61993   7.679   7.274   8.860 -0.1495  0.0447 -0.0090
  460MOL0     C61994   7.727   7.416   8.649 -1.3558 -0.2646 -0.8955
  460MOL0     C61995   7.599   7.400   8.572 -0.6219  0.2643 -0.8459
  460MOL0     O61996   7.503   7.320   8.619  0.5667 -1.2057  0.2701
  460MOL0     C61997   7.388   7.306   8.557  0.4570  0.7093  0.1535
  460MOL0     C61998   7.364   7.201   8.465  0.3609 -0.1453 -0.0759
  460MOL0     C61999   7.233   7.189   8.416  0.0093  0.2119  0.0405
  460MOL0     C62000   7.125   7.269   8.454 -0.6758 -1.3160  0.4016
  460MOL0     O62001   6.998   7.255   8.410  0.0648 -0.3980 -0.2663
  460MOL0     C62002   6.968   7.120   8.373  1.3892 -0.4526  0.2526
  460MOL0     C62003   6.825   7.102   8.378  0.1250 -0.2376  0.0854
  460MOL0     C62004   6.773   6.999   8.285  0.2582  0.9991  0.2116
  460MOL0     C62005   6.623   6.970   8.309  0.4995  0.3702 -0.6478
  460MOL0     C62006   6.573   6.856   8.211  0.1532 -0.8211  0.6119
  460MOL0     C62007   6.613   6.717   8.251 -1.1003  0.2623 -0.0191
  460MOL0     C62008   6.566   6.679   8.397  0.0095 -0.4865  0.3530
  460MOL0     C62009   6.609   6.545   8.446  0.0869  0.5556  0.0048
  460MOL0    Cl62010   6.530   6.415   8.344  0.7858  0.2951 -0.0407
  460MOL0     C62011   7.156   7.375   8.546 -0.6368 -0.0067  0.3735
  460MOL0     C62012   7.287   7.389   8.599  0.5822  1.1078 -0.0889
  460MOL0     O62013   7.585   7.464   8.472  0.2037 -0.0061  0.0674
  460MOL0     C62014   7.829   7.489   8.579  0.0134  0.9098  0.3539
  460MOL0     C62015   7.960   7.509   8.630  0.2817  0.1801  0.1315
  460MOL0     N62016   8.527   7.388   9.202 -0.0355 -0.6012  0.3406
  460MOL0     N62017   8.648   7.340   9.205 -0.2541 -0.3648 -0.0318
  460MOL0     C62018   9.970   7.499   9.186  0.6197 -0.1467  0.0651
  460MOL0     C62019  10.088   7.469   9.260 -0.1172 -0.7800  0.5947
  460MOL0     C62020  10.433   7.411   9.542  0.0725  0.2120  0.7048
  460MOL0     C62021  10.570   7.410   9.489  0.0886 -0.6397 -0.1048
  460MOL0     C62022  10.676   7.424   9.583  0.0821  0.1598 -0.1867
  460MOL0     C62023  10.654   7.427   9.723  0.3262 -0.0025  0.2607
  460MOL0     O62024  10.758   7.447   9.804  0.1385 -0.5984 -0.5525
  460MOL0     C62025  10.854   7.549   9.770 -0.0468  0.7726 -0.1283
  460MOL0     C62026  10.967   7.560   9.876  0.1401  0.2508  0.8348
  460MOL0     C62027  11.068   7.455   9.849  0.1036  0.3642 -0.1371
  460MOL0     C62028  11.165   7.420   9.964  1.2558 -0.4201  0.6708
  460MOL0     C62029  11.264   7.519   9.992 -0.5166 -1.1114 -0.2801
  460MOL0     C62030  11.353   7.604  10.013 -0.1755  0.0797 -0.1883
  460MOL0     C62031  10.526   7.412   9.770 -0.0258 -0.5461 -0.0840
  460MOL0     C62032  10.416   7.409   9.685  1.3185  0.2779 -0.3285
  460MOL0     H62033   9.952   7.469   9.564  0.0715  0.3842 -0.3237
  460MOL0     H62034   9.750   7.526   9.442 -1.6781  0.9714 -2.0095
  460MOL0     H62035   9.733   7.522   8.982 -2.3828  0.0426 -2.1477
  460MOL0     H62036   9.795   7.372   9.040  2.1172  3.1569  1.3017
  460MOL0     H62037   9.555   7.368   8.936  1.4810  2.2889 -0.4714
  460MOL0     H62038   9.583   7.288   9.099  0.0152  1.4565  1.7238
  460MOL0     H62039   9.478   7.460   9.218  1.4027 -1.3910 -0.7564
  460MOL0     H62040   9.474   7.574   9.084  0.8534  0.8469  1.3467
  460MOL0     H62041   9.321   7.429   8.955 -2.7916  1.5854  1.5342
  460MOL0     H62042   9.338   7.297   9.058  0.6425  0.0170  1.7077
  460MOL0     H62043   9.214   7.422   9.235 -1.8209  1.4145  0.5341
  460MOL0     H62044   9.233   7.570   9.143 -1.2188  0.7976  0.2313
  460MOL0     H62045   9.101   7.479   8.958 -0.2727 -0.2379  0.9837
  460MOL0     H62046   9.089   7.321   9.032 -3.5655 -0.7986  1.7393
  460MOL0     H62047   8.970   7.434   9.226  0.1502 -0.5775 -0.3987
  460MOL0     H62048   8.952   7.580   9.122  0.8048  0.0542  0.9642
  460MOL0     H62049   8.855   7.285   9.061 -1.7119  0.8929 -0.5679
  460MOL0     H62050   8.833   7.411   8.950  1.2392  4.1687  0.4120
  460MOL0     H62051   8.690   7.622   9.038  2.4681 -1.8693 -3.3320
  460MOL0     H62052   8.331   7.589   9.202 -1.8724 -1.8173 -1.7404
  460MOL0     H62053   8.436   7.700   9.103 -1.4873  0.0379 -2.6055
  460MOL0     H62054   8.316   7.451   8.987 -1.3225  0.7375 -1.3106
  460MOL0     H62055   8.390   7.580   8.898 -1.4754 -2.3624 -2.1003
  460MOL0     H62056   8.201   7.733   9.020  3.4228 -0.8215  1.0842
  460MOL0     H62057   8.130   7.576   9.061 -1.7156  0.5787 -0.3286
  460MOL0     H62058   8.194   7.663   8.773  0.1781 -0.7666 -1.2426
  460MOL0     H62059   8.041   7.682   8.850  1.3207  2.0152 -0.0986
  460MOL0     H62060   7.915   7.349   8.923  0.6549 -0.9820 -1.3568
  460MOL0     H62061   7.599   7.324   8.916 -1.1423 -0.7901 -0.6401
  460MOL0     H62062   7.629   7.210   8.788  0.9976 -0.8935 -0.0053
  460MOL0     H62063   7.739   7.218   8.933  1.7594  2.1381  0.1347
  460MOL0     H62064   7.442   7.130   8.437 -1.8054 -1.7611 -2.3874
  460MOL0     H62065   7.211   7.116   8.339  0.4300  1.8945 -1.7949
  460MOL0     H62066   7.000   7.096   8.271 -1.2154  1.3082 -1.1065
  460MOL0     H62067   7.023   7.048   8.433  1.1103 -0.5379  0.4098
  460MOL0     H62068   6.795   7.085   8.483  1.3338  2.1140  0.8755
  460MOL0     H62069   6.778   7.193   8.341 -2.6405 -0.5657  2.3319
  460MOL0     H62070   6.828   6.906   8.303  1.6351  1.4591 -1.4654
  460MOL0     H62071   6.785   7.021   8.179  0.0490 -0.5896 -0.1772
  460MOL0     H62072   6.592   6.942   8.410 -0.5362  0.2938 -0.9755
  460MOL0     H62073   6.575   7.066   8.286 -0.3165 -0.0509 -0.7474
  460MOL0     H62074   6.604   6.877   8.108 -0.6679  1.6660  0.8036
  460MOL0     H62075   6.464   6.867   8.199  0.5487  1.7591 -1.6130
  460MOL0     H62076   6.566   6.655   8.174 -0.9119  1.9893 -1.5937
  460MOL0     H62077   6.722   6.707   8.247 -1.1053  0.1884  0.0158
  460MOL0     H62078   6.457   6.675   8.394 -0.0598  0.8505  0.5419
  460MOL0     H62079   6.602   6.751   8.471  0.9265  1.2071 -1.6610
  460MOL0     H62080   6.568   6.543   8.547 -0.2997 -1.5871 -0.1600
  460MOL0     H62081   6.717   6.528   8.457  0.2236  2.0757  1.3506
  460MOL0     H62082   7.063   7.417   8.583 -0.1514  1.1958  0.2678
  460MOL0     H62083   7.289   7.473   8.669 -0.7620  0.6681  0.5183
  460MOL0     H62084   7.800   7.548   8.494  1.1197  1.2900  0.2190
  460MOL0     H62085   8.037   7.557   8.571 -1.6945  1.4621 -1.5137
  460MOL0     H62086   9.964   7.511   9.079  1.0376 -0.8872 -0.0433
  460MOL0     H62087  10.188   7.460   9.219 -0.4269 -0.9615 -0.1246
  460MOL0     H62088  10.607   7.414   9.387  2.0346  0.3569  0.6001
  460MOL0     H62089  10.775   7.438   9.541  0.3524 -1.4068 -0.1153
  460MOL0     H62090  10.889   7.515   9.672 -2.7100 -0.3653 -0.7820
  460MOL0     H62091  10.809   7.647   9.756 -4.1250 -0.7419  0.8860
  460MOL0     H62092  10.915   7.537   9.969  2.5136 -0.4596  2.0509
  460MOL0     H62093  11.009   7.659   9.898 -0.1286  0.1224  1.9930
  460MOL0     H62094  11.130   7.492   9.767 -0.1732  2.5353  0.5906
  460MOL0     H62095  11.017   7.360   9.827 -0.2164  0.0422  1.8370
  460MOL0     H62096  11.222   7.328   9.946 -0.8042 -1.2572 -2.2614
  460MOL0     H62097  11.115   7.403  10.060 -1.3550 -0.0440 -0.5321
  460MOL0     H62098  11.426   7.674  10.045 -2.1379  1.2160  2.1775
  460MOL0     H62099  10.491   7.427   9.872  0.4349  2.7835 -0.2783
  460MOL0     H62100  10.324   7.418   9.742 -0.5081  0.7269 -3.1863
  461MOL0     O62101   2.779   9.326   3.445 -0.3758  0.0214  0.5769
  461MOL0     C62102   2.773   9.423   3.365 -0.6991  0.2244  0.0037
  461MOL0     O62103   2.665   9.461   3.298  0.4833 -0.0690  0.1807
  461MOL0     C62104   2.546   9.392   3.302  0.3311 -0.2350 -0.2769
  461MOL0     C62105   2.471   9.364   3.184  0.3474 -0.1277 -0.0609
  461MOL0     C62106   2.340   9.315   3.194  0.9672 -0.3874  0.2056
  461MOL0     C62107   2.279   9.294   3.320  0.5297  0.1729 -0.1358
  461MOL0     O62108   2.149   9.254   3.329 -0.1341  0.3059 -0.2172
  461MOL0     C62109   2.059   9.266   3.213 -0.5586 -0.0050 -0.1718
  461MOL0     C62110   1.919   9.208   3.248 -0.0034 -0.7275 -0.9885
  461MOL0     C62111   1.828   9.190   3.130  1.2431 -0.0420 -0.2253
  461MOL0     C62112   1.686   9.148   3.168  0.6634 -0.3914  0.2818
  461MOL0     C62113   1.591   9.250   3.088 -0.1643 -0.0756  0.3017
  461MOL0     C62114   1.448   9.237   3.150  0.0169  1.3734 -0.2443
  461MOL0     C62115   1.338   9.313   3.076 -0.0303 -1.2647  1.2908
  461MOL0     C62116   1.208   9.296   3.144 -0.1086  0.1523  0.2136
  461MOL0     N62117   1.109   9.346   3.050  0.4586 -0.6982  0.8133
  461MOL0     C62118   1.056   9.286   2.936  0.6495  0.5050  0.0831
  461MOL0     C62119   0.950   9.365   2.889  0.1037 -0.0779 -0.3775
  461MOL0     C62120   0.862   9.350   2.764  0.2265  0.3568  0.6806
  461MOL0     C62121   0.898   9.459   2.651  0.1644  0.2101 -0.3822
  461MOL0     C62122   0.811   9.458   2.516  0.4677  0.0993  0.6303
  461MOL0     C62123   0.653   9.481   2.531  0.0747 -0.2903 -0.4057
  461MOL0     O62124   0.585   9.357   2.533 -0.8457 -0.6710  0.1957
  461MOL0     C62125   0.447   9.346   2.558 -0.0635 -0.0357 -0.4053
  461MOL0     C62126   0.363   9.458   2.560 -0.2783 -0.3701 -0.0210
  461MOL0     C62127   0.225   9.441   2.575 -0.8722  0.2863  0.3221
  461MOL0     C62128   0.137   9.559   2.579  0.4005 -0.4776 -0.0752
  461MOL0     C62129   0.172   9.307   2.580  0.5820 -0.6350  0.1503
  461MOL0     C62130   0.026   9.280   2.579 -0.4112  0.7395  0.4432
  461MOL0     O62131  -0.004   9.142   2.560  0.4922 -0.3323 -0.0820
  461MOL0     C62132  -0.133   9.099   2.523 -0.6987 -0.2074  0.6519
  461MOL0     C62133  -0.247   9.128   2.596  0.8168 -0.5223 -0.0098
  461MOL0     C62134  -0.369   9.069   2.554  0.8086 -0.4464  0.2357
  461MOL0     C62135  -0.382   8.978   2.449 -0.1811  0.0146 -0.2011
  461MOL0     O62136  -0.499   8.926   2.407  0.0115  0.5693 -0.2634
  461MOL0     C62137  -0.530   8.828   2.506 -0.1237 -0.4639  0.4018
  461MOL0     C62138  -0.681   8.796   2.488 -0.8137  1.1736  0.8464
  461MOL0     C62139  -0.765   8.890   2.564 -0.9018 -0.7481 -0.6577
  461MOL0     C62140  -0.918   8.857   2.553 -0.6627  0.3766  0.1465
  461MOL0     C62141  -1.010   8.972   2.600  0.5751 -0.1274 -0.2332
  461MOL0     C62142  -1.089   9.055   2.495  0.1906  1.3063  0.4395
  461MOL0     C62143  -1.192   9.135   2.553  0.6099 -0.2674 -1.0252
  461MOL0     C62144  -1.277   9.206   2.443 -0.8230  0.3644  0.4383
  461MOL0    Cl62145  -1.444   9.232   2.507 -0.3676 -0.4188 -0.6094
  461MOL0     C62146  -0.263   8.953   2.375  0.6681 -0.3379  0.2464
  461MOL0     C62147  -0.143   9.013   2.415 -0.0721  0.5203  0.2450
  461MOL0     O62148  -0.060   9.367   2.617 -0.0996 -0.1615  0.4809
  461MOL0     C62149   0.258   9.202   2.573 -0.5504  0.0373 -0.2472
  461MOL0     C62150   0.398   9.217   2.561  1.2138 -0.0656  0.7213
  461MOL0     N62151   0.953   9.474   2.978  1.1950 -0.4733  0.8676
  461MOL0     N62152   1.040   9.459   3.071 -0.1447 -0.1131  0.3129
  461MOL0     C62153   2.354   9.308   3.431 -0.0203  0.2167  0.1410
  461MOL0     C62154   2.485   9.365   3.429  0.8187 -0.1419  1.1794
  461MOL0     C62155   2.900   9.475   3.330  0.2465  0.0396  0.4216
  461MOL0     C62156   3.020   9.442   3.398  0.2578  0.2395 -0.3955
  461MOL0     C62157   3.145   9.485   3.354  0.3383  0.4342 -0.2781
  461MOL0     C62158   3.152   9.574   3.242 -0.8036 -0.0110  0.1150
  461MOL0     O62159   3.258   9.633   3.188 -0.4439 -0.3895 -0.9618
  461MOL0     C62160   3.370   9.648   3.276 -0.2977  0.2052 -0.5260
  461MOL0     C62161   3.493   9.732   3.226 -0.1588 -0.5416  0.1586
  461MOL0     C62162   3.466   9.866   3.155  0.8827  0.3281  0.0472
  461MOL0     C62163   3.596   9.914   3.094  0.1366 -0.8847  0.7415
  461MOL0     C62164   3.591  10.050   3.039 -0.3867 -0.1956  0.3468
  461MOL0     C62165   3.584  10.160   2.996 -0.3899  0.9474  0.5860
  461MOL0     C62166   3.036   9.606   3.177 -0.1398 -0.1723 -0.1861
  461MOL0     C62167   2.909   9.567   3.225  0.4503  1.0527 -0.0597
  461MOL0     H62168   2.498   9.396   3.084 -1.1217 -0.3569 -0.5555
  461MOL0     H62169   2.288   9.303   3.100 -1.5494 -0.4742  1.5253
  461MOL0     H62170   2.048   9.371   3.184  0.1908  0.5611  1.4782
  461MOL0     H62171   2.097   9.203   3.132 -1.1221 -2.1162  1.0954
  461MOL0     H62172   1.941   9.108   3.288 -2.9249 -0.9398  0.3066
  461MOL0     H62173   1.872   9.260   3.332 -0.6285 -2.0055 -0.5097
  461MOL0     H62174   1.841   9.287   3.081 -0.7120  0.8314  0.9035
  461MOL0     H62175   1.861   9.108   3.065 -2.3403 -2.1411  0.3647
  461MOL0     H62176   1.671   9.044   3.136  1.7340 -0.8048  1.0676
  461MOL0     H62177   1.683   9.157   3.277  1.2273  0.7285  0.2176
  461MOL0     H62178   1.622   9.355   3.089 -1.0301  0.2019 -0.8782
  461MOL0     H62179   1.602   9.232   2.981  0.9189  1.2057  0.1665
  461MOL0     H62180   1.419   9.132   3.137  0.7715  1.1590 -0.2274
  461MOL0     H62181   1.461   9.266   3.254  1.4496 -0.4936  0.1499
  461MOL0     H62182   1.374   9.417   3.073  2.2599 -1.9888 -1.4980
  461MOL0     H62183   1.338   9.275   2.973  1.7325 -1.1818  1.2276
  461MOL0     H62184   1.197   9.364   3.228 -2.8107  3.1806 -2.3349
  461MOL0     H62185   1.191   9.194   3.182  0.9738 -0.2537 -0.3419
  461MOL0     H62186   1.091   9.197   2.883 -2.5055  0.2810 -1.8811
  461MOL0     H62187   0.875   9.244   2.740 -0.7328  0.5047 -0.5613
  461MOL0     H62188   0.756   9.368   2.785  0.4115  3.3348 -0.5552
  461MOL0     H62189   1.004   9.438   2.632  0.2532 -0.1814  0.5085
  461MOL0     H62190   0.885   9.560   2.690  1.8235  0.1610  0.3928
  461MOL0     H62191   0.847   9.394   2.435 -3.8741 -1.4086 -0.3611
  461MOL0     H62192   0.845   9.557   2.483  2.0096 -0.3209  0.8691
  461MOL0     H62193   0.618   9.542   2.447  0.4342  2.9464  1.6518
  461MOL0     H62194   0.628   9.527   2.627  1.7569  1.0971 -0.5910
  461MOL0     H62195   0.404   9.558   2.563  0.3504 -0.5164 -2.2429
  461MOL0     H62196   0.070   9.553   2.666  1.8338  1.5066  1.2679
  461MOL0     H62197   0.205   9.645   2.591  1.7243 -1.3935 -0.7663
  461MOL0     H62198   0.079   9.573   2.488 -0.3934  1.4327  0.6570
  461MOL0     H62199  -0.253   9.191   2.684  0.7371 -0.5757  0.0226
  461MOL0     H62200  -0.456   9.101   2.611  0.6225  0.3141 -0.4684
  461MOL0     H62201  -0.464   8.743   2.485 -1.5661 -1.3667 -0.6156
  461MOL0     H62202  -0.510   8.862   2.608  0.5507 -2.5682  1.0316
  461MOL0     H62203  -0.700   8.797   2.381  0.1673 -1.3315  0.5879
  461MOL0     H62204  -0.694   8.694   2.525  1.4765  0.6724  0.4416
  461MOL0     H62205  -0.752   8.991   2.525  0.6724 -1.2178 -1.4150
  461MOL0     H62206  -0.736   8.893   2.670 -2.9842 -0.5142 -0.0470
  461MOL0     H62207  -0.946   8.827   2.452  1.4299  2.4220 -1.1276
  461MOL0     H62208  -0.940   8.778   2.625 -1.4100  2.1663  2.0005
  461MOL0     H62209  -0.958   9.036   2.672  0.1198 -0.3573  0.3177
  461MOL0     H62210  -1.094   8.921   2.649 -0.0272  1.8203  0.8636
  461MOL0     H62211  -1.017   9.111   2.435  1.3135 -0.0309  0.4767
  461MOL0     H62212  -1.134   8.987   2.422  0.3960  3.0600 -1.3981
  461MOL0     H62213  -1.142   9.212   2.613 -1.3681  0.7723 -0.6256
  461MOL0     H62214  -1.261   9.073   2.611  1.1591  1.8702  2.1366
  461MOL0     H62215  -1.286   9.136   2.359 -1.0008  0.6744  0.1974
  461MOL0     H62216  -1.239   9.303   2.408  2.8394 -0.8749  0.6387
  461MOL0     H62217  -0.278   8.900   2.281 -0.0452 -0.1390  0.2393
  461MOL0     H62218  -0.052   9.004   2.356 -0.2070 -0.2046  0.1372
  461MOL0     H62219   0.224   9.102   2.598  1.8042 -1.8388 -3.7895
  461MOL0     H62220   0.476   9.142   2.562  4.1987  2.7806 -0.0187
  461MOL0     H62221   2.314   9.283   3.528  3.3371 -1.4299  1.2186
  461MOL0     H62222   2.544   9.391   3.516  3.9847  0.8024 -1.0816
  461MOL0     H62223   3.017   9.369   3.478 -1.3754  0.0411 -0.5881
  461MOL0     H62224   3.236   9.460   3.406  0.5139 -1.2948 -1.3281
  461MOL0     H62225   3.340   9.685   3.374 -0.0709 -2.8973  0.8192
  461MOL0     H62226   3.411   9.553   3.310  0.9174  0.9260  0.0864
  461MOL0     H62227   3.529   9.666   3.147  1.0447 -3.2315  2.7732
  461MOL0     H62228   3.578   9.727   3.295 -0.1871 -0.1072  0.2314
  461MOL0     H62229   3.435   9.944   3.226 -0.1476 -0.1503  0.1453
  461MOL0     H62230   3.393   9.855   3.073  0.6027  1.0912  0.1808
  461MOL0     H62231   3.605   9.849   3.007 -0.3367  0.8549 -0.6761
  461MOL0     H62232   3.679   9.912   3.165 -1.1708 -1.7926  2.3049
  461MOL0     H62233   3.568  10.257   2.953 -0.5493  0.7199  0.1294
  461MOL0     H62234   3.025   9.674   3.093  2.7622 -0.7497 -1.1467
  461MOL0     H62235   2.817   9.587   3.172 -0.2914 -2.2782 -0.2387
  462MOL0     O62236   7.039   9.842   8.419  0.5595  0.7752 -0.7807
  462MOL0     C62237   7.143   9.793   8.464  0.7076  0.0708 -1.3458
  462MOL0     O62238   7.154   9.744   8.587  0.0366 -0.2902  0.1924
  462MOL0     C62239   7.042   9.746   8.677 -0.4380 -0.6024 -0.4169
  462MOL0     C62240   6.957   9.858   8.690 -0.3213  0.5328 -0.2620
  462MOL0     C62241   6.846   9.851   8.779 -0.0044 -0.1801 -0.9049
  462MOL0     C62242   6.833   9.738   8.860 -1.6749  0.3039 -0.3314
  462MOL0     O62243   6.719   9.735   8.932 -0.2973  0.2742  0.1257
  462MOL0     C62244   6.663   9.600   8.955 -0.0773 -0.2257 -0.0224
  462MOL0     C62245   6.511   9.612   8.948  0.1883  0.4426  0.0728
  462MOL0     C62246   6.448   9.471   8.956  0.1774  0.0711 -1.1415
  462MOL0     C62247   6.382   9.457   9.089 -0.0396  0.2023  0.0719
  462MOL0     C62248   6.342   9.312   9.105 -0.0215 -0.2789 -0.0029
  462MOL0     C62249   6.269   9.294   9.240 -0.3341  0.1535  0.1934
  462MOL0     C62250   6.204   9.151   9.241 -0.6455 -0.2496 -0.5471
  462MOL0     C62251   6.140   9.108   9.371 -0.3786 -0.5639 -0.6268
  462MOL0     N62252   6.009   9.166   9.393 -0.7304 -0.6446  0.5039
  462MOL0     C62253   5.917   9.115   9.480  0.1200 -0.5423  0.9209
  462MOL0     C62254   5.810   9.193   9.461  0.2786 -0.9461  0.5825
  462MOL0     C62255   5.683   9.185   9.535  0.7942 -0.3576 -0.0353
  462MOL0     C62256   5.564   9.218   9.440 -0.9318 -0.0251  0.8287
  462MOL0     C62257   5.436   9.189   9.509  0.0660  0.1948 -0.3146
  462MOL0     C62258   5.318   9.209   9.415 -0.0284  0.4474  0.3580
  462MOL0     O62259   5.198   9.177   9.485 -0.1834 -0.3886 -0.3036
  462MOL0     C62260   5.077   9.220   9.450  0.0602 -0.5769 -0.1193
  462MOL0     C62261   5.048   9.276   9.325  0.6253  0.4911 -1.0697
  462MOL0     C62262   4.918   9.292   9.276  0.4094 -0.4108 -0.0849
  462MOL0     C62263   4.910   9.345   9.136 -0.3862 -0.2181 -0.7291
  462MOL0     C62264   4.811   9.244   9.355 -0.3299  0.1453 -0.3807
  462MOL0     C62265   4.674   9.275   9.313  0.0807  0.2358  0.0192
  462MOL0     O62266   4.584   9.242   9.406  0.3070  0.3625  0.0001
  462MOL0     C62267   4.462   9.198   9.360  0.5998  0.9964  0.1329
  462MOL0     C62268   4.431   9.144   9.233  0.0610 -0.0375  1.1572
  462MOL0     C62269   4.299   9.107   9.204 -0.2795 -1.5552 -0.2157
  462MOL0     C62270   4.194   9.125   9.300  0.3437  1.0075  1.0055
  462MOL0     O62271   4.059   9.090   9.282 -0.3710  0.2578 -0.3639
  462MOL0     C62272   4.012   9.033   9.153 -0.1961  0.2346 -0.1326
  462MOL0     C62273   3.859   9.019   9.148  0.3754  0.3156 -0.0481
  462MOL0     C62274   3.781   9.141   9.164  0.8157  0.1439 -0.1328
  462MOL0     C62275   3.633   9.117   9.192  1.0369  0.1921 -0.2679
  462MOL0     C62276   3.559   9.251   9.224  0.3282  0.0357  0.3237
  462MOL0     C62277   3.425   9.215   9.273  0.5136  0.6020 -0.2800
  462MOL0     C62278   3.338   9.338   9.319 -0.4391 -0.1137 -0.7448
  462MOL0     C62279   3.281   9.406   9.193  0.7053 -0.1658 -0.0359
  462MOL0    Cl62280   3.175   9.544   9.239 -0.0700  0.0154 -0.0583
  462MOL0     C62281   4.230   9.179   9.418  1.0185  0.0088 -0.5708
  462MOL0     C62282   4.362   9.215   9.456 -0.6948  0.8783 -0.2623
  462MOL0     O62283   4.648   9.334   9.214  0.6731 -0.0534  0.5758
  462MOL0     C62284   4.834   9.200   9.492  0.5197 -0.2468  0.3812
  462MOL0     C62285   4.968   9.188   9.531 -0.8275  0.1394 -0.2934
  462MOL0     N62286   5.835   9.281   9.362 -0.1007 -0.0093  0.4961
  462MOL0     N62287   5.949   9.259   9.314 -0.4143 -0.2809  0.2006
  462MOL0     C62288   6.931   9.642   8.868  0.0263 -0.2315 -0.3226
  462MOL0     C62289   7.035   9.645   8.774  0.6482  0.2787 -0.0898
  462MOL0     C62290   7.273   9.824   8.399  0.5510  0.3359 -0.1737
  462MOL0     C62291   7.279   9.842   8.261 -0.5557  0.0591 -0.5398
  462MOL0     C62292   7.399   9.854   8.193 -0.2789  0.3225  0.6746
  462MOL0     C62293   7.520   9.843   8.258 -0.4054  0.1083 -0.4456
  462MOL0     O62294   7.650   9.827   8.204  0.6260 -0.3910  0.1653
  462MOL0     C62295   7.662   9.849   8.061 -1.1293  0.5312  0.1157
  462MOL0     C62296   7.810   9.880   8.020  0.3614 -1.0267  0.4661
  462MOL0     C62297   7.915   9.769   8.072 -0.1878 -0.7417  0.0445
  462MOL0     C62298   8.045   9.760   7.990 -0.0959 -0.3389 -0.9547
  462MOL0     C62299   8.131   9.884   8.009  0.6481  1.3806 -0.4276
  462MOL0     C62300   8.198   9.985   8.019  1.2978 -0.2315  0.2431
  462MOL0     C62301   7.518   9.837   8.404  0.0694  0.0653  0.4362
  462MOL0     C62302   7.396   9.826   8.465 -0.1725 -0.0614 -0.0444
  462MOL0     H62303   6.960   9.949   8.632  3.5264  1.0712  0.4878
  462MOL0     H62304   6.778   9.935   8.785 -0.7928 -0.9245  2.5354
  462MOL0     H62305   6.695   9.526   8.882 -2.8132 -0.6934 -0.8570
  462MOL0     H62306   6.694   9.577   9.058 -3.5019  3.3690  2.1047
  462MOL0     H62307   6.475   9.677   9.028 -1.9233  0.5888 -0.9408
  462MOL0     H62308   6.466   9.652   8.856 -1.0725  2.8511  1.6457
  462MOL0     H62309   6.375   9.462   8.875 -0.7456 -0.2576 -0.2973
  462MOL0     H62310   6.520   9.389   8.952  0.4605  0.2439  0.0155
  462MOL0     H62311   6.451   9.495   9.165  1.7177  1.3218 -1.9517
  462MOL0     H62312   6.295   9.523   9.086 -0.4868 -0.3784  0.0663
  462MOL0     H62313   6.272   9.279   9.028  1.1470 -0.8588 -0.8480
  462MOL0     H62314   6.427   9.243   9.095  0.5866  0.6913 -1.9223
  462MOL0     H62315   6.338   9.311   9.324 -1.8379  3.5560  0.9202
  462MOL0     H62316   6.193   9.372   9.239  0.5798  1.2555 -4.2172
  462MOL0     H62317   6.130   9.161   9.161 -2.4660 -0.8522  0.9830
  462MOL0     H62318   6.282   9.078   9.218  1.2049  1.6903 -0.7049
  462MOL0     H62319   6.201   9.139   9.456  2.0376 -1.2906 -1.9783
  462MOL0     H62320   6.126   9.000   9.370 -0.1503 -0.6076 -2.2067
  462MOL0     H62321   5.915   9.026   9.543 -2.6732 -0.8741  0.4739
  462MOL0     H62322   5.672   9.083   9.572  1.0796 -0.2070  0.4737
  462MOL0     H62323   5.681   9.257   9.617 -2.5156 -1.3451  0.8921
  462MOL0     H62324   5.572   9.158   9.349  1.8845  3.6246 -1.6330
  462MOL0     H62325   5.571   9.313   9.387  2.8120 -1.8262 -2.3896
  462MOL0     H62326   5.435   9.250   9.600 -0.0659 -1.6676  0.9763
  462MOL0     H62327   5.421   9.090   9.552 -1.4853  0.6671  0.2883
  462MOL0     H62328   5.334   9.132   9.338  1.0083  0.5022  0.5078
  462MOL0     H62329   5.322   9.309   9.372  0.0363  2.0958  3.8652
  462MOL0     H62330   5.136   9.320   9.278  1.6179 -2.0637 -1.7906
  462MOL0     H62331   5.012   9.330   9.100 -0.4219 -0.8211 -0.5951
  462MOL0     H62332   4.834   9.305   9.069  0.3582 -0.2980 -1.5433
  462MOL0     H62333   4.895   9.453   9.143  1.2464 -0.0212  0.7050
  462MOL0     H62334   4.504   9.118   9.156  0.4959  0.1107  1.5133
  462MOL0     H62335   4.277   9.083   9.101  0.1137  0.9838 -0.9605
  462MOL0     H62336   4.038   9.091   9.065 -1.9395 -0.9841 -1.5232
  462MOL0     H62337   4.052   8.931   9.147  1.9165  1.0340 -0.5266
  462MOL0     H62338   3.825   8.971   9.056  1.7055 -1.8907  0.5511
  462MOL0     H62339   3.830   8.955   9.232 -2.7481  3.9303  1.9574
  462MOL0     H62340   3.792   9.201   9.073 -1.9462  3.7711  1.6729
  462MOL0     H62341   3.828   9.197   9.245  2.8489 -1.2990 -0.2519
  462MOL0     H62342   3.587   9.075   9.103 -1.2177  0.7089  0.5860
  462MOL0     H62343   3.633   9.053   9.281 -0.3038  0.0869 -0.3273
  462MOL0     H62344   3.549   9.320   9.140 -1.7294  1.7072  1.8035
  462MOL0     H62345   3.608   9.303   9.307  0.4342 -2.3492  1.8562
  462MOL0     H62346   3.369   9.146   9.210  0.1138 -1.5992  2.2857
  462MOL0     H62347   3.434   9.150   9.361 -1.3005 -0.7820 -1.0666
  462MOL0     H62348   3.392   9.405   9.387 -0.3240  0.0729 -1.0206
  462MOL0     H62349   3.251   9.299   9.373 -0.3134 -0.8712 -1.0734
  462MOL0     H62350   3.237   9.324   9.135 -1.1047  0.4785  0.3755
  462MOL0     H62351   3.365   9.438   9.131  1.4324 -1.3019  0.3274
  462MOL0     H62352   4.142   9.191   9.482  1.1411  2.1940 -0.7422
  462MOL0     H62353   4.403   9.257   9.547 -1.1572  1.9782 -0.5508
  462MOL0     H62354   4.763   9.160   9.564  0.7923 -1.2512  0.1152
  462MOL0     H62355   5.012   9.151   9.622  1.1892  0.9495 -0.8857
  462MOL0     H62356   6.933   9.556   8.934  0.2482  0.1193  0.1356
  462MOL0     H62357   7.110   9.567   8.768  0.4231  0.0346  0.2118
  462MOL0     H62358   7.185   9.831   8.208 -0.1192  1.8496 -1.7625
  462MOL0     H62359   7.390   9.873   8.087 -0.5980 -0.5651  0.5310
  462MOL0     H62360   7.636   9.746   8.033  0.1983 -0.0243  0.8269
  462MOL0     H62361   7.584   9.911   8.017 -1.5558  0.2674  0.4872
  462MOL0     H62362   7.837   9.977   8.062 -0.0154 -0.5464 -0.3820
  462MOL0     H62363   7.804   9.870   7.912 -1.0358  1.1516  0.2730
  462MOL0     H62364   7.865   9.673   8.056 -3.4843  0.7408  0.4167
  462MOL0     H62365   7.919   9.782   8.181 -2.1122 -2.5151  0.4000
  462MOL0     H62366   8.017   9.755   7.884 -2.1421  0.5623 -0.5106
  462MOL0     H62367   8.095   9.668   8.020  0.2492 -0.6443 -2.3860
  462MOL0     H62368   8.252  10.076   8.037 -0.5666  1.4311 -1.9633
  462MOL0     H62369   7.606   9.849   8.467  0.3163  1.5522 -0.1630
  462MOL0     H62370   7.398   9.820   8.574 -1.0505 -0.2657 -0.0339
  463MOL0     O62371   7.751   5.398  10.223 -0.4352  0.6657  0.5088
  463MOL0     C62372   7.762   5.505  10.170  0.5626  0.1195 -0.7353
  463MOL0     O62373   7.657   5.587  10.152 -0.5511  0.1956  0.2282
  463MOL0     C62374   7.542   5.547  10.207  0.3526 -1.4421  0.5367
  463MOL0     C62375   7.451   5.451  10.154 -0.4422 -0.7339  0.0104
  463MOL0     C62376   7.323   5.434  10.213 -0.2695  0.2890  0.1134
  463MOL0     C62377   7.295   5.493  10.338  0.5641 -1.2709 -0.2412
  463MOL0     O62378   7.186   5.468  10.415 -0.4477 -0.1056 -0.6917
  463MOL0     C62379   7.057   5.436  10.357 -0.7232 -0.6812  0.7705
  463MOL0     C62380   6.998   5.547  10.265 -0.1471 -0.6703  0.1431
  463MOL0     C62381   6.974   5.682  10.331 -0.3137 -0.4998 -1.2964
  463MOL0     C62382   6.883   5.678  10.453 -0.3523 -0.2399  0.2375
  463MOL0     C62383   6.816   5.820  10.459 -0.0560  0.1062  0.2962
  463MOL0     C62384   6.729   5.833  10.584 -0.2498 -0.0959 -0.1927
  463MOL0     C62385   6.628   5.950  10.568  0.0508  0.4800  0.7783
  463MOL0     C62386   6.533   5.977  10.686 -0.0424  0.4464  0.3429
  463MOL0     N62387   6.402   5.901  10.672 -0.2336 -0.4156 -0.3928
  463MOL0     C62388   6.276   5.965  10.668  0.2265  0.3069 -0.0443
  463MOL0     C62389   6.175   5.878  10.681 -0.1709  0.7433  1.1628
  463MOL0     C62390   6.026   5.892  10.688 -0.5677 -0.2924 -0.9600
  463MOL0     C62391   5.979   5.866  10.836 -0.8997  0.8010  0.7047
  463MOL0     C62392   5.836   5.903  10.840  0.0864  0.7843  1.1154
  463MOL0     C62393   5.773   5.879  10.973  0.8604  0.0647 -0.3159
  463MOL0     O62394   5.658   5.952  10.986 -0.2131 -0.8577 -0.0589
  463MOL0     C62395   5.566   5.912  11.082  0.2233 -1.4255  0.4612
  463MOL0     C62396   5.599   5.822  11.181  0.4221  0.3224 -0.0722
  463MOL0     C62397   5.504   5.795  11.287  0.7484  0.6208  0.0289
  463MOL0     C62398   5.548   5.713  11.403  0.3418  0.4601 -0.2170
  463MOL0     C62399   5.370   5.851  11.286 -0.2311 -0.3750  0.2637
  463MOL0     C62400   5.259   5.821  11.384  1.6032 -0.1340  0.6780
  463MOL0     O62401   5.161   5.912  11.384 -0.0248  0.3242  0.6377
  463MOL0     C62402   5.042   5.879  11.429  0.7127  0.6196  0.9586
  463MOL0     C62403   4.929   5.900  11.350  0.9162 -0.4159 -0.1137
  463MOL0     C62404   4.797   5.879  11.395  0.2379 -0.2251  0.6108
  463MOL0     C62405   4.765   5.823  11.515  0.7531 -0.1975 -0.4790
  463MOL0     O62406   4.642   5.799  11.574  0.0034  1.0812 -0.7850
  463MOL0     C62407   4.534   5.785  11.481  0.0353 -1.0222 -0.4392
  463MOL0     C62408   4.409   5.718  11.532 -0.5236  1.3326 -0.3162
  463MOL0     C62409   4.303   5.717  11.407  0.9829  0.4520 -0.2517
  463MOL0     C62410   4.162   5.696  11.460  0.4379  0.2955 -0.3937
  463MOL0     C62411   4.066   5.640  11.344 -0.5713  0.7336 -0.5512
  463MOL0     C62412   4.077   5.499  11.299  0.1424  0.1407  0.8975
  463MOL0     C62413   3.967   5.448  11.203  0.1056 -0.1093  0.0945
  463MOL0     C62414   4.002   5.316  11.129  0.4646  0.5484 -0.0000
  463MOL0    Cl62415   3.869   5.261  11.029  0.1852  0.3305  0.0376
  463MOL0     C62416   4.873   5.790  11.596  0.6733  0.2225  1.0340
  463MOL0     C62417   5.005   5.815  11.551  0.2306 -0.1655  0.7859
  463MOL0     O62418   5.266   5.721  11.459 -1.1324 -0.0518  0.4048
  463MOL0     C62419   5.348   5.944  11.174  0.3701  0.5181  0.2745
  463MOL0     C62420   5.447   5.975  11.081  0.0940  0.8898 -0.1372
  463MOL0     N62421   6.244   5.763  10.708 -0.3338 -0.2145  0.1133
  463MOL0     N62422   6.376   5.778  10.713 -0.1176  1.3269 -0.0723
  463MOL0     C62423   7.383   5.586  10.393  0.1482  0.2902 -0.1191
  463MOL0     C62424   7.501   5.613  10.322 -0.3574  0.1102 -0.2684
  463MOL0     C62425   7.898   5.554  10.139  0.2522  0.4892 -0.7653
  463MOL0     C62426   8.000   5.464  10.164 -0.4995 -0.1322 -0.7595
  463MOL0     C62427   8.129   5.497  10.162  0.5233 -0.6354 -0.0603
  463MOL0     C62428   8.158   5.629  10.109  0.1574  0.5108  0.2667
  463MOL0     O62429   8.288   5.657  10.099  0.7371 -0.0673  0.4291
  463MOL0     C62430   8.316   5.786  10.050 -1.1958 -0.0840  0.2136
  463MOL0     C62431   8.458   5.820  10.077 -0.7363  0.4180 -0.1305
  463MOL0     C62432   8.528   5.940  10.010  0.1040  1.0246 -0.8810
  463MOL0     C62433   8.477   6.081  10.045  0.0815  0.6121 -0.0750
  463MOL0     C62434   8.359   6.118   9.957 -0.3425 -0.3554 -0.0308
  463MOL0     C62435   8.263   6.163   9.896  0.0349  0.7572  0.4965
  463MOL0     C62436   8.052   5.710  10.060  0.1466 -0.6394  0.1791
  463MOL0     C62437   7.920   5.674  10.078 -0.1132  0.0346  0.6732
  463MOL0     H62438   7.481   5.408  10.059  0.1909 -0.5476  0.1264
  463MOL0     H62439   7.260   5.358  10.166  1.1074  0.3374 -1.8982
  463MOL0     H62440   7.066   5.348  10.293  0.1848 -0.7144  0.9251
  463MOL0     H62441   6.985   5.411  10.436 -1.1657 -0.8291  0.3260
  463MOL0     H62442   7.070   5.553  10.183  1.7306  1.0922  1.7941
  463MOL0     H62443   6.901   5.519  10.224  0.1721 -0.0001 -1.1204
  463MOL0     H62444   7.073   5.717  10.361 -0.2860 -2.0051  0.5175
  463MOL0     H62445   6.935   5.739  10.246 -0.2844 -0.4397 -1.2700
  463MOL0     H62446   6.808   5.598  10.442 -2.1666  1.2527  1.0592
  463MOL0     H62447   6.937   5.656  10.546  1.1558 -1.5716 -0.8931
  463MOL0     H62448   6.889   5.902  10.460 -1.0762  1.0648  1.9992
  463MOL0     H62449   6.755   5.836  10.370 -0.0591 -0.3750  0.2128
  463MOL0     H62450   6.679   5.735  10.589  2.3508 -1.4733  0.6385
  463MOL0     H62451   6.778   5.845  10.681  0.5491  3.1339 -0.8999
  463MOL0     H62452   6.689   6.041  10.565  0.4156  0.2771  1.5898
  463MOL0     H62453   6.570   5.935  10.477 -1.4237  0.7433  1.6484
  463MOL0     H62454   6.516   6.085  10.694 -2.3865  0.0862  0.9885
  463MOL0     H62455   6.577   5.937  10.778 -1.3954 -1.8228  0.0786
  463MOL0     H62456   6.259   6.072  10.664 -2.6753 -0.0788 -0.2391
  463MOL0     H62457   6.017   5.994  10.650  3.6941  0.4573 -0.4189
  463MOL0     H62458   5.975   5.826  10.617 -2.8815  0.4003 -0.0255
  463MOL0     H62459   6.034   5.921  10.912 -1.2947  1.0550  0.8129
  463MOL0     H62460   5.995   5.762  10.863 -1.4768  0.6629  0.5317
  463MOL0     H62461   5.780   5.843  10.767 -0.3529  0.9898  1.2801
  463MOL0     H62462   5.823   6.005  10.805 -0.0292 -0.1332 -1.7795
  463MOL0     H62463   5.842   5.903  11.054 -0.8242  0.2127  1.1374
  463MOL0     H62464   5.746   5.773  10.981 -2.0229  0.7405 -0.0339
  463MOL0     H62465   5.701   5.787  11.192 -0.0460 -0.7659  1.0491
  463MOL0     H62466   5.657   5.705  11.407  0.2501 -0.2303  2.7272
  463MOL0     H62467   5.532   5.763  11.499  1.6506  0.6964 -0.1039
  463MOL0     H62468   5.496   5.617  11.395 -1.6463  1.3739  1.0307
  463MOL0     H62469   4.948   5.931  11.247  1.0670  1.6959  0.4900
  463MOL0     H62470   4.721   5.915  11.326  1.3687  0.4175 -0.3416
  463MOL0     H62471   4.504   5.883  11.441  1.6757  0.8584  2.5350
  463MOL0     H62472   4.575   5.720  11.404  0.1227 -2.2544  0.6189
  463MOL0     H62473   4.435   5.618  11.569  0.3172  1.0417 -1.6201
  463MOL0     H62474   4.365   5.774  11.615 -0.0470  0.8116  0.2986
  463MOL0     H62475   4.331   5.640  11.334  0.3437 -0.6402  0.6217
  463MOL0     H62476   4.298   5.814  11.357  3.8130  0.1339 -1.3213
  463MOL0     H62477   4.179   5.633  11.547 -1.3982  4.1033  3.0506
  463MOL0     H62478   4.114   5.785  11.503 -0.0329 -0.2234  0.1644
  463MOL0     H62479   4.071   5.707  11.257  1.5943  0.4767 -0.6762
  463MOL0     H62480   3.962   5.648  11.378 -0.5973  1.7976 -0.8266
  463MOL0     H62481   4.175   5.487  11.252 -0.8701 -1.3762 -0.9843
  463MOL0     H62482   4.080   5.434  11.387 -1.1861 -2.0038 -0.5562
  463MOL0     H62483   3.941   5.526  11.131 -4.3659 -1.6604 -0.2710
  463MOL0     H62484   3.878   5.434  11.265  0.3763 -0.5673  0.3817
  463MOL0     H62485   4.028   5.229  11.190  0.7493  1.5271  1.3275
  463MOL0     H62486   4.093   5.328  11.069  0.6846  0.4080  0.3003
  463MOL0     H62487   4.855   5.737  11.690  0.3356 -4.8968 -1.5479
  463MOL0     H62488   5.093   5.801  11.614  0.0902 -3.5427  0.4623
  463MOL0     H62489   5.255   5.998  11.162  1.0667  1.7437  0.1489
  463MOL0     H62490   5.414   6.030  10.994  2.0051 -1.0897 -2.2616
  463MOL0     H62491   7.360   5.638  10.485  0.6988 -1.1646  0.8699
  463MOL0     H62492   7.561   5.692  10.366 -2.4453  0.7842  1.5705
  463MOL0     H62493   7.974   5.368  10.207 -4.0017  0.2512 -1.7341
  463MOL0     H62494   8.204   5.429  10.199  1.8871  1.3222  0.9962
  463MOL0     H62495   8.303   5.775   9.942  2.0358  1.7849 -0.4896
  463MOL0     H62496   8.260   5.872  10.087  1.2019  0.5694  2.6340
  463MOL0     H62497   8.526   5.742  10.042 -0.7670  0.3646 -0.0727
  463MOL0     H62498   8.469   5.829  10.186 -3.4069  0.4433  0.1991
  463MOL0     H62499   8.525   5.918   9.903  1.6784  1.1854 -0.9811
  463MOL0     H62500   8.630   5.932  10.047 -1.5463 -0.9383  4.0297
  463MOL0     H62501   8.563   6.148  10.029 -0.3507  1.2325  0.1677
  463MOL0     H62502   8.445   6.091  10.149 -0.2104  0.5048 -0.1550
  463MOL0     H62503   8.182   6.202   9.838 -0.4518 -0.2951  0.4379
  463MOL0     H62504   8.078   5.796   9.998  0.6220 -0.0202  1.2028
  463MOL0     H62505   7.843   5.732  10.029 -2.1697 -1.8587  1.4883
  464MOL0     O62506   4.251   3.233   1.278  0.3053 -0.1448  0.7547
  464MOL0     C62507   4.264   3.288   1.389  0.2677 -0.4395  0.2748
  464MOL0     O62508   4.160   3.303   1.486  0.1688 -0.4393  0.3232
  464MOL0     C62509   4.052   3.218   1.481  0.4414 -0.1613  0.1193
  464MOL0     C62510   3.931   3.267   1.537 -0.4211 -0.3115  0.4752
  464MOL0     C62511   3.810   3.198   1.527 -0.6390  0.5360 -0.1845
  464MOL0     C62512   3.813   3.064   1.486 -0.2666 -0.2596  0.1161
  464MOL0     O62513   3.705   2.978   1.476  0.2338 -0.1706  0.1883
  464MOL0     C62514   3.579   3.037   1.426  0.1866 -0.2421 -0.2417
  464MOL0     C62515   3.461   2.979   1.508  0.6522 -0.5272  0.2521
  464MOL0     C62516   3.469   3.013   1.657  0.9729  1.0659  0.0758
  464MOL0     C62517   3.348   2.955   1.731  0.4257 -0.8298 -0.2990
  464MOL0     C62518   3.347   2.995   1.881 -0.1857 -0.4070  0.3221
  464MOL0     C62519   3.281   2.903   1.972 -0.3793 -0.3624 -0.4592
  464MOL0     C62520   3.145   2.854   1.928  0.8688  0.5840 -0.4858
  464MOL0     C62521   3.090   2.730   2.010 -0.6436 -0.2559  0.3992
  464MOL0     N62522   3.107   2.737   2.154 -0.4931  0.6822  0.0660
  464MOL0     C62523   3.042   2.830   2.226  0.1914 -0.6773 -0.2083
  464MOL0     C62524   3.061   2.806   2.354 -0.3885  0.2963 -0.6183
  464MOL0     C62525   3.020   2.897   2.458  0.4953 -0.6141 -0.3653
  464MOL0     C62526   2.872   2.922   2.439 -0.3619 -0.6380  0.0394
  464MOL0     C62527   2.816   2.999   2.561  0.2455  0.1274 -0.4458
  464MOL0     C62528   2.670   3.042   2.550 -0.4469 -0.5589 -0.3502
  464MOL0     O62529   2.583   2.928   2.534 -0.0206 -0.1985 -0.3402
  464MOL0     C62530   2.448   2.950   2.534 -0.2138  0.4707  0.4873
  464MOL0     C62531   2.374   2.849   2.588  0.0386 -0.2489 -0.0304
  464MOL0     C62532   2.234   2.866   2.612 -0.1812  0.5308 -0.1913
  464MOL0     C62533   2.145   2.750   2.641 -0.1972 -0.0809 -0.4314
  464MOL0     C62534   2.178   2.999   2.600 -0.0074  0.2066  0.2221
  464MOL0     C62535   2.044   3.034   2.648 -0.3316  0.4089 -0.6259
  464MOL0     O62536   1.992   3.154   2.603  0.6246  0.3722 -0.0535
  464MOL0     C62537   1.856   3.172   2.641  0.2179 -0.2740 -0.2535
  464MOL0     C62538   1.815   3.287   2.709 -0.5760 -0.1886  0.9372
  464MOL0     C62539   1.686   3.308   2.758  0.2135 -0.6548  0.7492
  464MOL0     C62540   1.587   3.213   2.744  0.2607  0.5054  0.8221
  464MOL0     O62541   1.450   3.246   2.778  0.5725  0.1365 -0.1765
  464MOL0     C62542   1.355   3.139   2.784 -0.4151 -0.5146  0.9126
  464MOL0     C62543   1.217   3.183   2.845 -0.5915 -0.0727 -0.3596
  464MOL0     C62544   1.111   3.083   2.807 -0.3148 -0.1274  0.3344
  464MOL0     C62545   0.973   3.112   2.863  0.3213 -0.2909 -1.2731
  464MOL0     C62546   0.876   3.030   2.776  0.2287  0.1085  0.4645
  464MOL0     C62547   0.893   2.876   2.815  0.4449 -0.2499  0.0301
  464MOL0     C62548   0.768   2.794   2.794  0.3598  0.0303  0.9328
  464MOL0     C62549   0.677   2.805   2.910 -0.4052 -0.2343  0.3532
  464MOL0    Cl62550   0.763   2.721   3.047 -0.0224 -0.2618 -0.4452
  464MOL0     C62551   1.629   3.090   2.688  0.6126 -0.6037  0.2501
  464MOL0     C62552   1.754   3.073   2.638  0.0729  0.4468 -1.2942
  464MOL0     O62553   1.992   2.958   2.729  0.1245 -0.8087  0.1799
  464MOL0     C62554   2.266   3.104   2.572 -0.4533 -0.7098  0.1598
  464MOL0     C62555   2.394   3.084   2.522 -1.0655  0.2302 -1.0992
  464MOL0     N62556   3.126   2.682   2.355  0.1852  0.3860 -0.0637
  464MOL0     N62557   3.160   2.643   2.236  0.3145  0.0761  0.1718
  464MOL0     C62558   3.928   3.012   1.436  0.5436  0.1449  0.3020
  464MOL0     C62559   4.051   3.088   1.430 -0.8927  0.0879  1.3273
  464MOL0     C62560   4.402   3.327   1.430 -0.0544  0.7751 -0.5096
  464MOL0     C62561   4.500   3.368   1.336 -0.4008 -0.6319 -0.0772
  464MOL0     C62562   4.620   3.427   1.378 -0.5501  0.2170  0.4384
  464MOL0     C62563   4.645   3.436   1.516 -0.1652 -0.4666  0.0124
  464MOL0     O62564   4.769   3.481   1.546 -0.3708  0.0538  0.2085
  464MOL0     C62565   4.813   3.485   1.680 -0.0540 -0.2603  0.2866
  464MOL0     C62566   4.975   3.509   1.683 -0.4480 -0.4276 -0.6862
  464MOL0     C62567   5.021   3.630   1.604  0.0434  0.1242  0.5686
  464MOL0     C62568   5.160   3.683   1.640  0.0088  0.7254  0.0270
  464MOL0     C62569   5.215   3.784   1.554  0.1957 -0.8304  0.1929
  464MOL0     C62570   5.269   3.851   1.467  0.2813 -0.6788  0.5143
  464MOL0     C62571   4.555   3.396   1.614 -0.3007 -0.0641 -0.4031
  464MOL0     C62572   4.441   3.339   1.570  0.0917  0.1440  0.4672
  464MOL0     H62573   3.920   3.371   1.566  0.7598 -0.1384  0.3467
  464MOL0     H62574   3.722   3.239   1.574 -1.1491 -0.9120  0.1818
  464MOL0     H62575   3.580   3.147   1.427  0.6953 -0.2142  2.3556
  464MOL0     H62576   3.566   3.022   1.318 -0.6407 -0.0989 -0.1664
  464MOL0     H62577   3.367   3.022   1.472  0.0151  0.2335  2.6603
  464MOL0     H62578   3.471   2.872   1.489  0.7212 -0.4769 -0.0034
  464MOL0     H62579   3.563   2.983   1.705 -0.9583 -2.0220  2.2667
  464MOL0     H62580   3.455   3.121   1.667  2.8111  1.2745  0.8235
  464MOL0     H62581   3.254   2.978   1.679  0.4038  0.3465  0.2112
  464MOL0     H62582   3.362   2.847   1.733 -1.3608 -1.0856  0.4457
  464MOL0     H62583   3.449   3.020   1.913  0.0298 -2.1915  1.1504
  464MOL0     H62584   3.290   3.087   1.892 -0.0843 -0.3553  0.4306
  464MOL0     H62585   3.352   2.823   1.995  0.8733  0.5014 -1.1445
  464MOL0     H62586   3.261   2.949   2.069  0.0495 -0.2580 -0.4163
  464MOL0     H62587   3.075   2.938   1.936  1.7766  1.1857  3.1887
  464MOL0     H62588   3.131   2.836   1.822  2.4101  3.2615 -1.2335
  464MOL0     H62589   3.150   2.644   1.978  0.3949  0.9551 -1.1012
  464MOL0     H62590   2.985   2.708   1.992 -1.3619 -0.5751  4.1894
  464MOL0     H62591   2.984   2.911   2.183 -1.1695 -1.1485  0.6805
  464MOL0     H62592   3.036   2.847   2.555 -0.3546 -1.9044 -0.8552
  464MOL0     H62593   3.074   2.992   2.452  1.5658 -0.9093  2.6806
  464MOL0     H62594   2.817   2.830   2.417 -1.5560  0.4664 -1.9383
  464MOL0     H62595   2.858   2.987   2.352 -0.2653  0.0666  0.5424
  464MOL0     H62596   2.887   3.081   2.576  0.6580 -0.0070 -1.5719
  464MOL0     H62597   2.822   2.926   2.642 -4.1123 -0.3212 -0.3397
  464MOL0     H62598   2.674   3.109   2.464  0.3418 -1.6997 -1.2190
  464MOL0     H62599   2.634   3.100   2.636  0.1426  0.7010 -0.9198
  464MOL0     H62600   2.429   2.759   2.617 -0.5086 -0.3402  0.7677
  464MOL0     H62601   2.196   2.670   2.586  0.8087  2.1039 -2.8752
  464MOL0     H62602   2.137   2.726   2.748  2.1358  0.8532  0.0043
  464MOL0     H62603   2.044   2.764   2.601 -0.3731  0.2141  0.1070
  464MOL0     H62604   1.884   3.370   2.725  0.9507 -1.1608 -0.3946
  464MOL0     H62605   1.650   3.406   2.787 -4.1244 -1.6586 -0.5425
  464MOL0     H62606   1.327   3.096   2.687 -1.3667 -1.3565  1.5433
  464MOL0     H62607   1.397   3.068   2.856  1.6250  1.3545  1.6779
  464MOL0     H62608   1.215   3.212   2.950 -0.7703  0.5288 -0.5241
  464MOL0     H62609   1.197   3.279   2.796  1.0865 -0.0311 -1.0237
  464MOL0     H62610   1.142   2.981   2.830  1.3090  0.6614  1.8804
  464MOL0     H62611   1.101   3.079   2.698  1.4198 -0.8166  0.1691
  464MOL0     H62612   0.953   3.104   2.970 -3.0134 -1.9121 -1.8788
  464MOL0     H62613   0.948   3.218   2.853  0.6290  0.1726  1.8163
  464MOL0     H62614   0.873   3.048   2.669 -0.4828 -1.5440  0.1687
  464MOL0     H62615   0.775   3.057   2.810 -0.4286 -1.4474 -0.1433
  464MOL0     H62616   0.976   2.821   2.769  2.6746  2.3435  0.7524
  464MOL0     H62617   0.931   2.869   2.918  0.0584  0.8510  0.2575
  464MOL0     H62618   0.810   2.694   2.780  1.6021  0.6122  0.3016
  464MOL0     H62619   0.720   2.830   2.703 -0.9565  0.5971  1.8361
  464MOL0     H62620   0.584   2.751   2.890 -0.0232  0.1764 -3.0354
  464MOL0     H62621   0.670   2.911   2.936  0.8503  0.4304 -1.7297
  464MOL0     H62622   1.561   3.007   2.672  0.9485 -0.9622  0.6758
  464MOL0     H62623   1.776   2.978   2.590  1.7865 -1.2245  2.3914
  464MOL0     H62624   2.230   3.206   2.575 -0.5226 -0.7132 -0.3632
  464MOL0     H62625   2.450   3.169   2.485 -1.0552  0.7473  0.0510
  464MOL0     H62626   3.921   2.918   1.382  0.9785 -0.0921  0.6532
  464MOL0     H62627   4.137   3.039   1.386 -2.8532 -2.0357 -0.3661
  464MOL0     H62628   4.481   3.362   1.229 -0.3730  2.0335 -0.2979
  464MOL0     H62629   4.695   3.448   1.302 -2.0369 -1.1278 -1.4931
  464MOL0     H62630   4.766   3.570   1.730  0.5840  0.6710 -0.6368
  464MOL0     H62631   4.793   3.386   1.722  1.4592 -1.3028 -1.2943
  464MOL0     H62632   5.030   3.423   1.643  1.3591 -0.8403  2.3552
  464MOL0     H62633   5.014   3.517   1.785 -3.1955  1.2894  0.3227
  464MOL0     H62634   4.946   3.705   1.630 -0.0326  0.5737 -0.8510
  464MOL0     H62635   5.021   3.609   1.496  2.1206  2.3292  0.0361
  464MOL0     H62636   5.231   3.599   1.638  0.2170  0.8870 -2.5242
  464MOL0     H62637   5.158   3.724   1.742 -2.2081 -0.2257  0.4123
  464MOL0     H62638   5.314   3.913   1.391  1.5248 -1.5607  0.4975
  464MOL0     H62639   4.584   3.406   1.719  0.3290 -1.9501 -0.3612
  464MOL0     H62640   4.379   3.298   1.648  1.8706 -2.3646  0.6483
  465MOL0     O62641   3.292   1.614   7.775  0.3389  0.7464 -0.6244
  465MOL0     C62642   3.326   1.711   7.704  0.5818 -0.2542 -0.0785
  465MOL0     O62643   3.252   1.776   7.613 -0.4195 -0.7626 -0.3305
  465MOL0     C62644   3.135   1.721   7.573 -0.3359 -0.9605 -0.3022
  465MOL0     C62645   3.023   1.808   7.567  0.0686  0.4396 -0.6646
  465MOL0     C62646   2.893   1.747   7.543 -1.2887 -0.6525  0.5431
  465MOL0     C62647   2.881   1.606   7.519 -1.3616  0.0735 -0.4086
  465MOL0     O62648   2.749   1.565   7.506  0.5462 -0.7851  0.0648
  465MOL0     C62649   2.731   1.450   7.425  0.5373 -0.4058  0.7154
  465MOL0     C62650   2.586   1.405   7.405 -0.7289  0.6211  0.2652
  465MOL0     C62651   2.509   1.400   7.536  0.1348  0.0023  0.3957
  465MOL0     C62652   2.370   1.335   7.516 -0.5647 -0.8040 -0.2281
  465MOL0     C62653   2.281   1.334   7.639  0.3079 -0.0405  0.0143
  465MOL0     C62654   2.280   1.214   7.730 -0.5537  0.3999  0.4526
  465MOL0     C62655   2.170   1.207   7.823 -0.0271 -0.0015  0.5106
  465MOL0     C62656   2.162   1.321   7.925  0.4191  0.2572  0.2164
  465MOL0     N62657   2.074   1.282   8.034  0.4550  0.5792  0.4223
  465MOL0     C62658   1.938   1.266   8.016 -0.1226  0.2120 -0.1553
  465MOL0     C62659   1.891   1.212   8.126  0.3648  0.2509  0.1566
  465MOL0     C62660   1.745   1.182   8.155 -0.3211 -0.1750 -0.2221
  465MOL0     C62661   1.726   1.066   8.262 -0.3230 -0.8519  0.3665
  465MOL0     C62662   1.743   0.932   8.188 -0.1165 -1.3696 -0.1599
  465MOL0     C62663   1.779   0.828   8.287  0.1774  0.4865  0.0363
  465MOL0     O62664   1.818   0.708   8.223  0.3304 -0.2069 -0.0709
  465MOL0     C62665   1.950   0.663   8.243  1.0570 -0.8433 -0.0220
  465MOL0     C62666   1.961   0.527   8.260  0.6497  1.5221 -0.9974
  465MOL0     C62667   2.082   0.464   8.283 -0.8162  0.6327 -0.3075
  465MOL0     C62668   2.088   0.314   8.269 -0.9978  0.0508  0.5353
  465MOL0     C62669   2.203   0.542   8.289 -0.0377  0.5786  0.7462
  465MOL0     C62670   2.341   0.480   8.289  0.1835  0.4429  0.8222
  465MOL0     O62671   2.359   0.345   8.313  0.1932  0.1750 -0.0434
  465MOL0     C62672   2.472   0.284   8.260 -0.0427  0.5122  0.2816
  465MOL0     C62673   2.457   0.198   8.155 -0.0627  0.1147 -0.4752
  465MOL0     C62674   2.566   0.122   8.100 -0.4580  0.0077  0.0976
  465MOL0     C62675   2.686   0.124   8.168 -0.6831  0.9225 -0.6136
  465MOL0     O62676   2.803   0.047   8.140  0.0609  0.1630 -0.9313
  465MOL0     C62677   2.783  -0.062   8.043  0.0008  0.5475 -0.1040
  465MOL0     C62678   2.921  -0.102   7.985  0.3677 -0.5246  0.2278
  465MOL0     C62679   2.962  -0.006   7.871 -1.1844 -0.4252  0.9504
  465MOL0     C62680   3.111  -0.023   7.848 -0.3438  0.1616  0.1692
  465MOL0     C62681   3.199   0.078   7.912  0.1520  0.1516 -0.1676
  465MOL0     C62682   3.337   0.065   7.844 -0.0278  0.2790  0.0224
  465MOL0     C62683   3.438   0.168   7.896  0.4704 -0.2858 -1.0410
  465MOL0     C62684   3.389   0.315   7.884  0.3198  0.8253 -0.2367
  465MOL0    Cl62685   3.535   0.428   7.916  0.0507 -0.0857 -0.0700
  465MOL0     C62686   2.696   0.210   8.279 -1.1238  0.8885 -0.1075
  465MOL0     C62687   2.598   0.293   8.323  0.2315  0.3582 -0.1712
  465MOL0     O62688   2.432   0.560   8.258 -0.4090  0.0096 -0.0657
  465MOL0     C62689   2.186   0.677   8.276  0.6476  0.2476  0.0865
  465MOL0     C62690   2.057   0.738   8.241 -0.7398 -0.6370 -0.6131
  465MOL0     N62691   2.001   1.201   8.213 -0.1507 -0.3891 -0.2539
  465MOL0     N62692   2.112   1.236   8.153  0.7925  0.4826  0.0449
  465MOL0     C62693   2.995   1.528   7.517  1.1222  0.9626 -0.7616
  465MOL0     C62694   3.122   1.585   7.545 -0.7225 -0.4069 -0.4281
  465MOL0     C62695   3.467   1.742   7.700 -0.8245  0.1111 -0.3921
  465MOL0     C62696   3.568   1.647   7.730  0.6223  0.1631  0.6726
  465MOL0     C62697   3.702   1.679   7.745 -0.1327  0.3750  0.9815
  465MOL0     C62698   3.748   1.810   7.716  0.3400 -0.1538  0.3064
  465MOL0     O62699   3.876   1.841   7.738 -0.0734  0.6523  0.3982
  465MOL0     C62700   3.921   1.983   7.720  0.0920  1.0607 -0.3239
  465MOL0     C62701   3.954   2.023   7.579 -0.8934 -0.4055  0.1589
  465MOL0     C62702   4.030   2.160   7.572 -0.3497  0.6996  0.5426
  465MOL0     C62703   4.001   2.245   7.445  0.3470 -1.1824 -0.4424
  465MOL0     C62704   4.114   2.336   7.433  0.9353 -0.6143 -0.0579
  465MOL0     C62705   4.210   2.408   7.415  0.8657  0.4901 -1.5619
  465MOL0     C62706   3.646   1.897   7.672  0.1891 -0.3158  0.3644
  465MOL0     C62707   3.515   1.865   7.669  0.4124  0.2955  0.0025
  465MOL0     H62708   3.044   1.911   7.597  3.0213 -0.8856  2.6364
  465MOL0     H62709   2.807   1.811   7.529  0.0134  0.8809 -0.9279
  465MOL0     H62710   2.782   1.461   7.329  0.1376 -2.5297  0.2115
  465MOL0     H62711   2.784   1.374   7.483  2.3616  1.4160  1.5378
  465MOL0     H62712   2.537   1.467   7.330  2.9610  4.1215  0.3975
  465MOL0     H62713   2.603   1.300   7.379  0.4095  0.6120  0.9503
  465MOL0     H62714   2.563   1.334   7.605  0.5545  0.3724  0.4299
  465MOL0     H62715   2.499   1.504   7.570  2.0881  0.8324 -1.3490
  465MOL0     H62716   2.310   1.402   7.453 -0.5669  1.0881  1.6840
  465MOL0     H62717   2.387   1.231   7.486  3.8319 -0.4829  0.4773
  465MOL0     H62718   2.296   1.425   7.698 -0.9211 -2.2142  4.1113
  465MOL0     H62719   2.177   1.339   7.609  0.0663  2.2931  1.0324
  465MOL0     H62720   2.277   1.125   7.666 -0.9585  2.1522 -2.1389
  465MOL0     H62721   2.378   1.210   7.778 -0.6214 -2.8378  0.5250
  465MOL0     H62722   2.074   1.208   7.770  0.2516  0.8537 -0.0156
  465MOL0     H62723   2.176   1.110   7.873 -0.0444 -0.7586 -0.9004
  465MOL0     H62724   2.120   1.412   7.881  1.1522  1.1163  1.2418
  465MOL0     H62725   2.261   1.348   7.962  2.0554 -2.2928 -1.9187
  465MOL0     H62726   1.879   1.293   7.929 -0.8036  0.0075  0.2319
  465MOL0     H62727   1.706   1.271   8.205 -0.4187 -2.0082  3.2650
  465MOL0     H62728   1.691   1.157   8.063 -0.1246 -1.1192 -0.0942
  465MOL0     H62729   1.627   1.070   8.310  0.0799  1.9813  1.1602
  465MOL0     H62730   1.804   1.081   8.337 -0.3715  0.2818  0.2154
  465MOL0     H62731   1.818   0.940   8.109 -2.1079 -2.1490 -2.2617
  465MOL0     H62732   1.649   0.903   8.139  0.0855 -2.2483 -0.0480
  465MOL0     H62733   1.701   0.810   8.362  0.6860  3.1844  1.3722
  465MOL0     H62734   1.853   0.869   8.357 -1.8866  3.4316  0.7214
  465MOL0     H62735   1.871   0.467   8.260  1.9402 -0.5285 -1.7700
  465MOL0     H62736   1.992   0.262   8.279 -0.9303 -0.0057  0.9241
  465MOL0     H62737   2.128   0.283   8.172  1.4268  1.1769  1.0866
  465MOL0     H62738   2.152   0.258   8.338  0.1140 -0.1748 -0.6323
  465MOL0     H62739   2.358   0.206   8.109  0.3579 -0.4747 -1.5262
  465MOL0     H62740   2.539   0.064   8.011 -2.4859  4.0488 -2.2288
  465MOL0     H62741   2.743  -0.150   8.095 -3.2776  0.5942 -2.2253
  465MOL0     H62742   2.707  -0.037   7.968  0.9174 -0.0318 -1.2667
  465MOL0     H62743   2.997  -0.109   8.063  1.2924 -2.8775 -0.7665
  465MOL0     H62744   2.917  -0.202   7.940  0.9778 -0.1145 -0.7508
  465MOL0     H62745   2.933   0.097   7.894  2.3815  0.6894  1.0495
  465MOL0     H62746   2.903  -0.029   7.781 -0.5272 -1.1046  0.6811
  465MOL0     H62747   3.136  -0.127   7.874 -0.0298  0.3229  0.5185
  465MOL0     H62748   3.120  -0.012   7.740 -1.9150 -0.0743 -0.0211
  465MOL0     H62749   3.203   0.064   8.021 -0.4338 -2.7188 -0.4368
  465MOL0     H62750   3.159   0.178   7.893  1.1224  0.4686 -0.5924
  465MOL0     H62751   3.376  -0.036   7.856  1.4771  0.9978  1.6631
  465MOL0     H62752   3.327   0.087   7.737 -0.6926 -0.6928 -0.1304
  465MOL0     H62753   3.534   0.160   7.845  1.6651 -1.9062  1.2667
  465MOL0     H62754   3.463   0.150   8.001 -1.0108  0.1007 -0.5912
  465MOL0     H62755   3.315   0.340   7.960  1.5577  2.4102  0.5086
  465MOL0     H62756   3.345   0.331   7.785  0.3680 -0.6347 -0.5113
  465MOL0     H62757   2.796   0.202   8.322 -0.3301 -0.6864 -2.0807
  465MOL0     H62758   2.607   0.358   8.409 -1.0106  3.0355 -1.9163
  465MOL0     H62759   2.273   0.741   8.273  0.3151  1.0396  3.3158
  465MOL0     H62760   2.040   0.845   8.235  0.5974 -0.4827 -3.1665
  465MOL0     H62761   2.994   1.419   7.515  2.8962  0.8523  1.0247
  465MOL0     H62762   3.210   1.522   7.552  0.0902  0.5981 -1.2990
  465MOL0     H62763   3.544   1.544   7.751  1.6780 -0.1181  0.5466
  465MOL0     H62764   3.769   1.597   7.768 -0.0749 -1.0978 -3.5664
  465MOL0     H62765   3.844   2.054   7.752  0.8928  2.1433 -0.7127
  465MOL0     H62766   4.014   1.997   7.775  0.3756 -0.8586 -0.2607
  465MOL0     H62767   3.860   2.043   7.527 -2.6134 -0.9764  2.8555
  465MOL0     H62768   4.007   1.949   7.516 -0.3633  0.0573  0.0538
  465MOL0     H62769   4.138   2.144   7.579 -0.1495  1.9964  0.6202
  465MOL0     H62770   3.992   2.229   7.647 -1.9429 -0.3476  0.7552
  465MOL0     H62771   3.908   2.302   7.448  1.9548  1.5668  1.2039
  465MOL0     H62772   3.993   2.185   7.354 -2.3984  0.6834 -1.5585
  465MOL0     H62773   4.301   2.454   7.382  2.2517 -2.2249 -1.8538
  465MOL0     H62774   3.671   1.997   7.636 -1.3099  0.7355  2.1098
  465MOL0     H62775   3.447   1.948   7.650 -0.0600 -0.0964 -0.0283
  466MOL0     O62776   4.208   2.876   5.355  0.6008  0.0733 -0.0097
  466MOL0     C62777   4.230   2.758   5.388 -0.1502  0.7604  0.3583
  466MOL0     O62778   4.163   2.683   5.473  0.3199  0.2456  0.0505
  466MOL0     C62779   4.046   2.721   5.533  0.3429  0.2635 -0.3730
  466MOL0     C62780   3.952   2.817   5.498 -0.1104 -0.1666  0.1506
  466MOL0     C62781   3.847   2.854   5.586 -0.0970  0.2128  0.0639
  466MOL0     C62782   3.830   2.780   5.702  0.0805 -1.2258  0.3375
  466MOL0     O62783   3.720   2.796   5.783 -0.3424  0.4652  0.0769
  466MOL0     C62784   3.610   2.881   5.748  0.7380 -0.2209  0.4220
  466MOL0     C62785   3.494   2.863   5.842 -0.2500 -0.3783 -0.0702
  466MOL0     C62786   3.430   2.721   5.842 -1.4212 -0.0924  0.3080
  466MOL0     C62787   3.287   2.732   5.877 -0.4147 -0.1631 -0.4159
  466MOL0     C62788   3.204   2.615   5.828 -0.5450 -0.1860  0.0999
  466MOL0     C62789   3.053   2.651   5.845 -0.4723  0.4227 -0.7865
  466MOL0     C62790   2.952   2.538   5.811  0.2009  0.3061  0.1042
  466MOL0     C62791   2.979   2.413   5.895 -0.0520 -0.5123  0.1266
  466MOL0     N62792   2.865   2.328   5.890  0.5111  0.1060  0.0176
  466MOL0     C62793   2.783   2.292   5.998 -0.1188 -0.7458  0.1251
  466MOL0     C62794   2.703   2.192   5.955 -0.0548  0.5367 -0.4553
  466MOL0     C62795   2.620   2.102   6.043 -0.1432 -0.0086 -0.3997
  466MOL0     C62796   2.467   2.104   6.007 -0.5197  0.1158  0.4918
  466MOL0     C62797   2.391   2.224   6.069 -1.2144  0.2009 -0.7272
  466MOL0     C62798   2.258   2.245   6.006 -0.3767  0.1082 -0.0739
  466MOL0     O62799   2.171   2.152   6.065 -0.1600 -0.5592 -0.1671
  466MOL0     C62800   2.039   2.174   6.047 -0.1641  0.3005 -0.3652
  466MOL0     C62801   1.946   2.093   6.110 -0.2412  0.4868 -0.3091
  466MOL0     C62802   1.811   2.115   6.106  0.9403  0.1731  0.1189
  466MOL0     C62803   1.724   2.009   6.178  0.1838  0.9916  0.0440
  466MOL0     C62804   1.757   2.235   6.038  0.0802  0.4744  0.5258
  466MOL0     C62805   1.614   2.253   6.005  0.3825 -0.3597  0.5954
  466MOL0     O62806   1.582   2.324   5.897  0.0346 -0.7549 -0.2040
  466MOL0     C62807   1.456   2.372   5.881  0.0732  0.3974 -0.0336
  466MOL0     C62808   1.397   2.451   5.976  0.1772 -0.3026  0.1900
  466MOL0     C62809   1.266   2.500   5.954 -0.0118  1.0775  0.1957
  466MOL0     C62810   1.187   2.455   5.844 -0.6026 -0.4474 -0.5799
  466MOL0     O62811   1.061   2.506   5.844  0.1344 -0.7382  0.2912
  466MOL0     C62812   0.969   2.452   5.749  0.2152 -0.4672 -0.5870
  466MOL0     C62813   0.919   2.309   5.796 -1.0675  0.3008  0.7320
  466MOL0     C62814   0.783   2.278   5.726 -0.1815  0.3093 -0.3222
  466MOL0     C62815   0.792   2.273   5.575  0.3453 -0.7824 -0.3170
  466MOL0     C62816   0.656   2.204   5.520  0.0242 -0.0611  0.3136
  466MOL0     C62817   0.528   2.306   5.534  0.2265 -0.7818 -0.6059
  466MOL0     C62818   0.398   2.245   5.486  0.4293  0.6476 -0.3233
  466MOL0     C62819   0.360   2.115   5.564 -0.4382 -0.2197 -0.8350
  466MOL0    Cl62820   0.193   2.103   5.556 -0.5772  0.1648  0.0884
  466MOL0     C62821   1.258   2.372   5.748  0.8577 -0.1775  0.0179
  466MOL0     C62822   1.385   2.331   5.774 -0.1894 -0.3440 -1.0082
  466MOL0     O62823   1.534   2.195   6.083 -0.0572 -0.1835 -0.4257
  466MOL0     C62824   1.852   2.314   5.975  0.2405  0.6224  0.0668
  466MOL0     C62825   1.990   2.290   5.984 -0.2561 -0.0541  0.0731
  466MOL0     N62826   2.731   2.169   5.821  0.1312 -0.1149 -0.3599
  466MOL0     N62827   2.821   2.254   5.779  0.0162 -0.0854 -0.2900
  466MOL0     C62828   3.930   2.686   5.738 -0.0151  0.5857 -0.2026
  466MOL0     C62829   4.037   2.653   5.657  0.0706  0.6734  0.2547
  466MOL0     C62830   4.350   2.694   5.328  0.2326  0.0278 -0.3881
  466MOL0     C62831   4.366   2.552   5.329  0.7914  0.2221 -0.0848
  466MOL0     C62832   4.478   2.489   5.280 -0.0921 -0.1226 -0.6718
  466MOL0     C62833   4.584   2.570   5.220 -0.0978  0.0662 -0.1613
  466MOL0     O62834   4.698   2.520   5.169 -0.7980 -0.4760 -0.5271
  466MOL0     C62835   4.729   2.381   5.188  0.5525  0.5188  0.5359
  466MOL0     C62836   4.680   2.287   5.069 -1.0701 -0.3244 -0.2280
  466MOL0     C62837   4.789   2.183   5.030 -0.3898 -0.9657  0.6410
  466MOL0     C62838   4.780   2.042   5.084  0.3416 -0.2258  0.1354
  466MOL0     C62839   4.878   1.955   5.025  0.5815 -1.0912  0.0643
  466MOL0     C62840   4.953   1.877   4.977 -0.2441 -0.3993  0.3605
  466MOL0     C62841   4.565   2.704   5.209  0.6969 -0.0785 -0.5708
  466MOL0     C62842   4.458   2.768   5.273  0.3440  0.2345 -0.2933
  466MOL0     H62843   3.975   2.868   5.405  1.1092 -0.0226  0.5144
  466MOL0     H62844   3.791   2.939   5.551  1.6634  1.5234  0.2932
  466MOL0     H62845   3.642   2.986   5.747 -0.6359  0.2223  1.1188
  466MOL0     H62846   3.572   2.861   5.647  2.4126  0.1477 -0.3126
  466MOL0     H62847   3.518   2.903   5.941 -0.7654 -0.6142  0.1576
  466MOL0     H62848   3.413   2.924   5.802 -1.7962 -3.0050 -1.2601
  466MOL0     H62849   3.449   2.676   5.744 -0.4828 -0.2111  0.5402
  466MOL0     H62850   3.489   2.663   5.913  3.1215  2.6288 -0.7986
  466MOL0     H62851   3.282   2.740   5.986  1.1824 -1.4388 -0.2195
  466MOL0     H62852   3.247   2.828   5.841  0.8830  0.7632  0.4970
  466MOL0     H62853   3.216   2.596   5.721 -0.9821  2.5118 -0.5105
  466MOL0     H62854   3.224   2.522   5.881 -1.2856  0.9160  2.4502
  466MOL0     H62855   3.041   2.666   5.953  0.4703  1.2686 -0.7847
  466MOL0     H62856   3.043   2.739   5.781  2.0637  2.2587  1.1079
  466MOL0     H62857   2.850   2.559   5.844  0.0097 -1.0341  0.4044
  466MOL0     H62858   2.955   2.519   5.703 -2.5688  0.4679 -0.0739
  466MOL0     H62859   3.000   2.445   5.998 -0.1043 -1.1962  0.3556
  466MOL0     H62860   3.060   2.348   5.861  0.6621 -0.6502  1.9458
  466MOL0     H62861   2.797   2.322   6.101  1.9142 -0.9493 -0.0458
  466MOL0     H62862   2.654   1.998   6.039 -1.6455 -0.5019 -1.4766
  466MOL0     H62863   2.629   2.139   6.145 -1.6085 -0.2471 -0.1665
  466MOL0     H62864   2.429   2.006   6.035  1.3780 -0.0204  2.9684
  466MOL0     H62865   2.469   2.115   5.899  2.9865 -1.8884  0.1984
  466MOL0     H62866   2.452   2.311   6.044 -1.8727  1.1770  0.9481
  466MOL0     H62867   2.381   2.218   6.178 -1.1864  0.3360 -0.7170
  466MOL0     H62868   2.254   2.240   5.896  1.4870 -1.1695 -0.1185
  466MOL0     H62869   2.233   2.349   6.030  1.2467  0.2209  1.2951
  466MOL0     H62870   1.991   2.006   6.156  1.5910  0.7536 -1.4610
  466MOL0     H62871   1.775   1.935   6.240  1.0747 -0.2646 -2.0884
  466MOL0     H62872   1.640   2.042   6.239  1.3372  1.0773  1.6477
  466MOL0     H62873   1.686   1.956   6.090  0.1836  1.4181 -0.2165
  466MOL0     H62874   1.450   2.488   6.063  1.4912  0.2548 -0.8260
  466MOL0     H62875   1.220   2.575   6.018  0.0993  1.6781 -0.4066
  466MOL0     H62876   0.889   2.527   5.743  0.8493  0.1218 -2.4923
  466MOL0     H62877   1.015   2.449   5.650 -4.0585  2.0374 -2.9131
  466MOL0     H62878   0.997   2.233   5.785  0.9994  2.5205 -1.1662
  466MOL0     H62879   0.902   2.307   5.904  1.6594  1.2325  1.2579
  466MOL0     H62880   0.707   2.347   5.765  1.3491  0.8419  1.9276
  466MOL0     H62881   0.751   2.180   5.762  1.3105  0.6549  2.2467
  466MOL0     H62882   0.808   2.365   5.520  1.1171 -2.0838 -2.3962
  466MOL0     H62883   0.876   2.208   5.549 -0.0090 -2.0640  1.5144
  466MOL0     H62884   0.628   2.113   5.574 -1.2947 -0.1105 -0.4109
  466MOL0     H62885   0.662   2.168   5.417 -0.6806  1.0170 -0.1278
  466MOL0     H62886   0.517   2.351   5.633 -1.3537  0.5161 -1.3267
  466MOL0     H62887   0.545   2.392   5.469  2.8004  0.7313  1.8526
  466MOL0     H62888   0.393   2.226   5.378 -0.1373  0.2267 -0.2309
  466MOL0     H62889   0.322   2.321   5.505  3.1708  2.7792  3.4264
  466MOL0     H62890   0.403   2.124   5.664  1.0127 -0.2153 -1.4428
  466MOL0     H62891   0.407   2.032   5.511  1.4438  0.2477  0.0102
  466MOL0     H62892   1.209   2.342   5.656  4.1162  0.4618 -2.0739
  466MOL0     H62893   1.427   2.255   5.709 -0.2617 -0.6417 -0.7079
  466MOL0     H62894   1.814   2.398   5.918 -1.4456  0.0518  0.3035
  466MOL0     H62895   2.056   2.353   5.924 -3.0679  1.6951 -1.3639
  466MOL0     H62896   3.913   2.627   5.828  1.9980 -0.6502 -0.5618
  466MOL0     H62897   4.106   2.573   5.681  1.8285  2.1415  0.2891
  466MOL0     H62898   4.284   2.490   5.365 -1.5680  2.4243 -1.3408
  466MOL0     H62899   4.474   2.385   5.312  0.9239  0.9751  3.6515
  466MOL0     H62900   4.838   2.373   5.183  0.5667 -1.0123  2.3166
  466MOL0     H62901   4.695   2.341   5.284 -0.9604  0.3607 -0.0371
  466MOL0     H62902   4.671   2.344   4.977 -0.4694  0.0200 -0.0777
  466MOL0     H62903   4.585   2.235   5.088 -1.7816  1.2606  0.7820
  466MOL0     H62904   4.885   2.232   5.044 -0.0695 -0.9798 -1.2757
  466MOL0     H62905   4.786   2.173   4.921  0.8126 -1.1280  0.6144
  466MOL0     H62906   4.678   2.002   5.078 -0.3881  1.6245 -0.6334
  466MOL0     H62907   4.800   2.041   5.191  2.4913 -1.9425 -0.2104
  466MOL0     H62908   5.016   1.794   4.951  0.4742 -0.1458  1.2522
  466MOL0     H62909   4.647   2.753   5.157  1.8145 -0.3548  0.8592
  466MOL0     H62910   4.445   2.876   5.271 -0.0285  0.1982  0.1627
  467MOL0     O62911   6.368   9.002   6.287 -0.4005  0.3002  0.6468
  467MOL0     C62912   6.461   9.066   6.232 -0.2695 -0.4722 -0.6786
  467MOL0     O62913   6.485   9.199   6.252  0.1826  0.3572 -0.1128
  467MOL0     C62914   6.382   9.270   6.331 -0.2327  0.1765 -0.6322
  467MOL0     C62915   6.383   9.279   6.479  0.5890 -0.0410  0.3640
  467MOL0     C62916   6.280   9.348   6.548 -0.7450 -0.2618 -0.0582
  467MOL0     C62917   6.177   9.405   6.472  0.0865  0.1001  1.1758
  467MOL0     O62918   6.055   9.451   6.523 -0.3675 -0.4288 -0.3159
  467MOL0     C62919   6.056   9.472   6.664  0.4572  0.0906 -0.0742
  467MOL0     C62920   5.925   9.519   6.723  0.3421  0.2636 -0.3609
  467MOL0     C62921   5.867   9.648   6.663  0.5453 -0.3859  0.1632
  467MOL0     C62922   5.732   9.684   6.714 -0.1283  0.2189 -0.4498
  467MOL0     C62923   5.668   9.799   6.634  0.3306 -0.2491  0.2673
  467MOL0     C62924   5.551   9.857   6.723  0.1263  0.1990 -1.4435
  467MOL0     C62925   5.432   9.766   6.746  0.4058  0.8526  0.2600
  467MOL0     C62926   5.326   9.831   6.843 -0.2106 -0.5026 -0.5760
  467MOL0     N62927   5.211   9.746   6.863  0.3625  0.3496 -0.2390
  467MOL0     C62928   5.101   9.731   6.786  0.6181  0.5117  0.2622
  467MOL0     C62929   5.036   9.621   6.835 -0.7972  0.6880  0.4842
  467MOL0     C62930   4.903   9.571   6.774 -0.3995 -0.1774  0.8721
  467MOL0     C62931   4.860   9.434   6.842  0.3897  0.0770  0.0870
  467MOL0     C62932   4.727   9.370   6.785  0.8179  0.0704  0.1213
  467MOL0     C62933   4.609   9.454   6.826  0.9879 -0.4623  0.2591
  467MOL0     O62934   4.602   9.474   6.971 -0.1366  0.3224  0.2423
  467MOL0     C62935   4.499   9.424   7.052 -0.3728  0.2357  1.1974
  467MOL0     C62936   4.501   9.451   7.189  0.0513  0.4082 -0.1793
  467MOL0     C62937   4.408   9.402   7.289  0.5700 -0.5240  0.4504
  467MOL0     C62938   4.445   9.420   7.431 -0.5682  0.1244  0.2095
  467MOL0     C62939   4.292   9.337   7.234 -0.4740 -0.2845  0.0905
  467MOL0     C62940   4.179   9.299   7.327 -0.1825 -1.3337 -0.0751
  467MOL0     O62941   4.068   9.238   7.271 -0.1647  0.4661  0.2914
  467MOL0     C62942   3.951   9.236   7.342  0.6763  0.1347 -0.3998
  467MOL0     C62943   3.830   9.295   7.294 -1.1704  0.7495  0.3413
  467MOL0     C62944   3.708   9.282   7.351  0.1915 -0.2024 -0.1990
  467MOL0     C62945   3.698   9.213   7.475 -1.0657  0.4164  0.9421
  467MOL0     O62946   3.577   9.205   7.536 -0.6549  0.2191 -0.4873
  467MOL0     C62947   3.569   9.261   7.667 -0.3159  0.3920 -0.0731
  467MOL0     C62948   3.417   9.265   7.703  0.1975 -0.6724  1.3263
  467MOL0     C62949   3.341   9.331   7.590  1.1508 -0.2627  0.5826
  467MOL0     C62950   3.183   9.335   7.620 -0.4702 -0.0289 -0.0338
  467MOL0     C62951   3.125   9.200   7.573  0.2189 -0.5299  0.1417
  467MOL0     C62952   2.982   9.185   7.624 -0.5112  0.5904 -0.6123
  467MOL0     C62953   2.916   9.068   7.558 -0.4094  0.5441  0.4912
  467MOL0     C62954   2.759   9.073   7.557 -0.3354  0.0998 -1.2765
  467MOL0    Cl62955   2.694   9.052   7.719  0.0237  0.3286 -0.3579
  467MOL0     C62956   3.812   9.156   7.535 -0.2807 -0.0550  0.0188
  467MOL0     C62957   3.937   9.164   7.465  0.4063 -0.2036 -0.0921
  467MOL0     O62958   4.178   9.341   7.441  0.3556 -0.0756  0.2798
  467MOL0     C62959   4.286   9.318   7.096  0.1459  0.0801  0.4371
  467MOL0     C62960   4.382   9.359   7.010 -0.6440  0.2607 -0.0107
  467MOL0     N62961   5.109   9.570   6.950  0.4865 -0.2243  0.0431
  467MOL0     N62962   5.217   9.649   6.957 -0.2480  0.5360  0.4322
  467MOL0     C62963   6.185   9.402   6.334 -0.1867 -1.1549 -0.2243
  467MOL0     C62964   6.286   9.337   6.268 -1.1906 -0.0247  0.4943
  467MOL0     C62965   6.568   8.989   6.173 -0.5105 -0.1933 -0.1441
  467MOL0     C62966   6.692   9.050   6.143 -0.1197  0.3175 -0.2400
  467MOL0     C62967   6.789   8.974   6.074 -0.0922 -0.5389 -0.0473
  467MOL0     C62968   6.772   8.841   6.041  0.8893 -0.2221  0.6233
  467MOL0     O62969   6.882   8.782   5.989  0.1521 -0.1666 -0.3871
  467MOL0     C62970   6.858   8.677   5.894 -0.8512 -0.3762 -0.0902
  467MOL0     C62971   6.802   8.738   5.761 -0.9462  0.2583  0.2837
  467MOL0     C62972   6.902   8.834   5.700 -0.4932  0.5689 -0.4370
  467MOL0     C62973   7.035   8.774   5.661  0.6760 -0.3072 -0.9463
  467MOL0     C62974   7.019   8.656   5.575 -0.8325  0.2712 -0.0135
  467MOL0     C62975   7.035   8.551   5.518 -0.2616  0.1435  0.2217
  467MOL0     C62976   6.653   8.782   6.068  0.3930  0.1884  0.5124
  467MOL0     C62977   6.561   8.856   6.145 -0.5278 -0.1202  0.0176
  467MOL0     H62978   6.464   9.230   6.532  2.6323 -1.5437 -3.6981
  467MOL0     H62979   6.289   9.339   6.656  0.4732 -1.5611 -0.2346
  467MOL0     H62980   6.090   9.380   6.711 -0.3144  1.0777  2.6082
  467MOL0     H62981   6.120   9.556   6.693 -0.1722  0.6813 -0.3703
  467MOL0     H62982   5.862   9.432   6.703  2.1509 -0.9485 -1.0784
  467MOL0     H62983   5.940   9.539   6.829  0.7118  1.7974 -0.6819
  467MOL0     H62984   5.936   9.729   6.689  2.0544 -1.2803 -0.9020
  467MOL0     H62985   5.864   9.633   6.555 -0.8742  2.3920 -0.2792
  467MOL0     H62986   5.671   9.594   6.716  2.1706 -1.4235  0.7765
  467MOL0     H62987   5.759   9.715   6.815  1.9819 -5.0178  0.9044
  467MOL0     H62988   5.739   9.879   6.613 -1.2419  1.7783  2.1560
  467MOL0     H62989   5.628   9.749   6.545  1.4930 -0.1570 -0.3312
  467MOL0     H62990   5.586   9.884   6.823 -1.4794  4.0402 -1.7518
  467MOL0     H62991   5.504   9.950   6.689 -0.9377  0.1722 -0.1310
  467MOL0     H62992   5.384   9.744   6.651 -2.1288 -1.5896  1.9440
  467MOL0     H62993   5.466   9.672   6.790  1.8007  0.1815 -2.0577
  467MOL0     H62994   5.296   9.924   6.795 -0.7240 -0.4935 -0.2401
  467MOL0     H62995   5.368   9.858   6.940  1.2637 -2.9159 -0.4274
  467MOL0     H62996   5.083   9.792   6.698  1.3765 -0.0397 -0.2866
  467MOL0     H62997   4.834   9.656   6.787  1.0044  1.6732 -2.3376
  467MOL0     H62998   4.929   9.559   6.668 -2.2918 -2.0740  0.5615
  467MOL0     H62999   4.847   9.455   6.949 -1.9960  2.0680 -0.5148
  467MOL0     H63000   4.945   9.365   6.840 -0.1071 -0.9513  4.2858
  467MOL0     H63001   4.712   9.267   6.817 -2.1493  0.5493  0.5199
  467MOL0     H63002   4.723   9.371   6.676 -0.9033 -3.2335  0.0449
  467MOL0     H63003   4.519   9.407   6.786  1.5343 -2.5624  1.3160
  467MOL0     H63004   4.619   9.551   6.777  1.1358 -1.1107 -1.0273
  467MOL0     H63005   4.590   9.500   7.227 -0.5459 -0.1457  2.1101
  467MOL0     H63006   4.439   9.332   7.496 -1.0682  0.7563  1.0369
  467MOL0     H63007   4.539   9.475   7.446 -0.9009 -0.0623  3.9398
  467MOL0     H63008   4.374   9.483   7.484 -0.1117  2.0889 -1.3933
  467MOL0     H63009   3.831   9.360   7.207 -2.8899  2.0967  1.2714
  467MOL0     H63010   3.635   9.329   7.286  1.7653 -0.0998 -1.9670
  467MOL0     H63011   3.627   9.207   7.742 -0.9937 -0.7707 -0.3570
  467MOL0     H63012   3.621   9.356   7.656 -0.2300  0.6219  1.8770
  467MOL0     H63013   3.383   9.162   7.717 -3.8961  0.0131 -1.7489
  467MOL0     H63014   3.408   9.326   7.794  3.1470 -0.3012  1.4867
  467MOL0     H63015   3.360   9.302   7.486 -2.7263  1.9894 -0.9570
  467MOL0     H63016   3.382   9.431   7.606 -0.0506  0.0537  1.8828
  467MOL0     H63017   3.169   9.344   7.728 -1.8399  0.7028 -0.2415
  467MOL0     H63018   3.129   9.415   7.568 -0.5669 -0.0467  0.0397
  467MOL0     H63019   3.193   9.119   7.601  0.1957 -1.1721 -1.5212
  467MOL0     H63020   3.120   9.195   7.464  0.9446  0.8452  0.0314
  467MOL0     H63021   2.973   9.155   7.729  0.5132  0.0570 -0.6624
  467MOL0     H63022   2.933   9.281   7.605 -0.2992  0.7808 -0.2126
  467MOL0     H63023   2.948   8.975   7.606  0.8001  1.3077  1.2273
  467MOL0     H63024   2.953   9.061   7.455  1.3937  3.7421  0.8074
  467MOL0     H63025   2.730   8.983   7.504 -1.8454  0.2579 -0.7728
  467MOL0     H63026   2.711   9.158   7.508  0.2252  0.6231 -0.9418
  467MOL0     H63027   3.804   9.097   7.626 -1.6835  1.5433  0.9786
  467MOL0     H63028   4.021   9.113   7.510  0.2669 -1.5237 -1.2589
  467MOL0     H63029   4.197   9.269   7.058 -0.3488  0.2326  1.3563
  467MOL0     H63030   4.374   9.335   6.905  3.0808 -3.4254  0.2748
  467MOL0     H63031   6.110   9.452   6.274  2.4532  0.8041 -2.1565
  467MOL0     H63032   6.292   9.328   6.160  1.1263  0.2701  0.5404
  467MOL0     H63033   6.706   9.156   6.166 -0.0524  0.1996  0.2754
  467MOL0     H63034   6.883   9.016   6.039  1.2030 -0.8188  2.8223
  467MOL0     H63035   6.962   8.644   5.884  1.2961  4.9037  1.6795
  467MOL0     H63036   6.811   8.592   5.945  1.1664 -1.6513 -0.1998
  467MOL0     H63037   6.720   8.809   5.778  0.0673  1.2806  1.0421
  467MOL0     H63038   6.766   8.657   5.697 -1.4905  0.3204  0.5016
  467MOL0     H63039   6.915   8.924   5.762  0.2111  2.6456 -3.3718
  467MOL0     H63040   6.867   8.874   5.604  0.4629 -1.0975 -1.5362
  467MOL0     H63041   7.086   8.750   5.755 -1.5248 -2.3955 -0.1511
  467MOL0     H63042   7.076   8.866   5.618 -1.9064  2.2154  1.5254
  467MOL0     H63043   7.044   8.454   5.473 -0.6025  0.4835 -0.6052
  467MOL0     H63044   6.627   8.681   6.039  0.4892 -0.0420  1.2028
  467MOL0     H63045   6.465   8.807   6.158  0.7904 -2.4187  1.8384
  468MOL0     O63046   8.246   4.520  11.110 -0.2274  0.4343 -0.1388
  468MOL0     C63047   8.131   4.513  11.150 -0.3191 -0.6151 -0.0739
  468MOL0     O63048   8.057   4.618  11.195  0.2520 -1.0089 -0.2103
  468MOL0     C63049   8.087   4.751  11.161  0.3408  0.1946  0.9150
  468MOL0     C63050   8.208   4.817  11.203  0.3209 -0.4681 -0.2852
  468MOL0     C63051   8.224   4.945  11.166  0.9976 -0.5110  0.4995
  468MOL0     C63052   8.119   5.016  11.096 -0.3740 -0.5967 -0.8533
  468MOL0     O63053   8.118   5.152  11.076  0.3682 -0.5772  0.3401
  468MOL0     C63054   8.245   5.225  11.087  1.1711  0.4981 -0.4886
  468MOL0     C63055   8.192   5.364  11.042  0.3099 -0.0583 -0.0006
  468MOL0     C63056   8.139   5.448  11.157  0.7596 -0.3369 -0.3973
  468MOL0     C63057   8.058   5.565  11.093 -0.5329 -0.7463  0.4509
  468MOL0     C63058   7.985   5.662  11.191  0.1933 -0.3040 -0.7450
  468MOL0     C63059   8.058   5.706  11.320 -0.0479 -1.0371 -0.0973
  468MOL0     C63060   8.171   5.813  11.286  0.7571 -0.5963 -0.0657
  468MOL0     C63061   8.296   5.783  11.367  0.2943  0.6864 -0.1414
  468MOL0     N63062   8.376   5.670  11.315  0.3463  0.1397 -0.0333
  468MOL0     C63063   8.421   5.652  11.187 -0.0008 -0.2071  0.4519
  468MOL0     C63064   8.509   5.548  11.196  0.8669  1.0389  0.9101
  468MOL0     C63065   8.595   5.487  11.091 -0.1027  1.6828  0.1315
  468MOL0     C63066   8.620   5.340  11.126  0.6679 -1.0456 -0.4783
  468MOL0     C63067   8.651   5.250  11.006 -0.0137  0.0350 -0.7202
  468MOL0     C63068   8.657   5.105  11.041 -0.0033  0.2341  0.1302
  468MOL0     O63069   8.531   5.039  11.008 -0.8793 -1.0145 -0.0239
  468MOL0     C63070   8.536   4.913  10.964  0.0097  0.1261  0.5269
  468MOL0     C63071   8.577   4.810  11.051  0.2801 -0.0048 -0.3911
  468MOL0     C63072   8.545   4.670  11.031 -0.0780  0.2738  0.9048
  468MOL0     C63073   8.575   4.583  11.155  0.3363  0.6413  0.2986
  468MOL0     C63074   8.502   4.631  10.897 -0.9400  0.5248 -0.2914
  468MOL0     C63075   8.496   4.492  10.850  0.0036 -0.3460  0.7113
  468MOL0     O63076   8.553   4.396  10.923  0.2036  0.5974  0.2099
  468MOL0     C63077   8.559   4.270  10.871 -0.5295 -1.1130  0.0744
  468MOL0     C63078   8.442   4.200  10.833 -0.1630  0.4225 -0.6864
  468MOL0     C63079   8.447   4.074  10.785 -1.0964 -0.2918 -0.6735
  468MOL0     C63080   8.578   4.009  10.769 -0.3897  0.2830 -0.4967
  468MOL0     O63081   8.581   3.894  10.702  0.6013 -0.4571  0.1403
  468MOL0     C63082   8.698   3.843  10.655 -0.1757  0.4263  0.8237
  468MOL0     C63083   8.671   3.709  10.574 -0.2068 -0.2341  0.4411
  468MOL0     C63084   8.612   3.592  10.660  0.1771 -0.2438 -0.2210
  468MOL0     C63085   8.580   3.474  10.556  0.0088 -0.0084  0.5236
  468MOL0     C63086   8.470   3.388  10.609  0.2194  0.1054 -0.4408
  468MOL0     C63087   8.526   3.289  10.703  0.1774  0.3283  0.4551
  468MOL0     C63088   8.412   3.215  10.770 -0.0043  0.0498 -0.4422
  468MOL0     C63089   8.470   3.118  10.859 -0.1708 -0.3946 -0.1349
  468MOL0    Cl63090   8.575   3.181  11.000 -0.4405  0.5153 -0.1408
  468MOL0     C63091   8.697   4.090  10.800  0.2072 -0.1354 -0.6808
  468MOL0     C63092   8.688   4.214  10.851  0.3721 -0.2112  0.7094
  468MOL0     O63093   8.462   4.474  10.731  0.0302 -0.6925  0.0180
  468MOL0     C63094   8.464   4.734  10.817 -0.3699 -0.0096 -0.2517
  468MOL0     C63095   8.482   4.870  10.844 -0.4638 -0.2873 -0.6944
  468MOL0     N63096   8.505   5.520  11.333  0.0996  0.8313  0.2431
  468MOL0     N63097   8.430   5.590  11.402 -0.9337  0.0752 -0.1904
  468MOL0     C63098   8.012   4.953  11.044 -0.4962  0.9235  0.2642
  468MOL0     C63099   7.997   4.817  11.081  0.8806  0.5000 -0.1865
  468MOL0     C63100   8.068   4.381  11.181 -1.1093 -0.2113 -0.3864
  468MOL0     C63101   8.117   4.266  11.113  0.1770 -0.1808  0.4607
  468MOL0     C63102   8.069   4.135  11.130 -0.6120 -0.3695 -0.5244
  468MOL0     C63103   7.964   4.119  11.216  0.0390  0.7691 -0.6274
  468MOL0     O63104   7.906   3.999  11.237 -0.0302 -0.4201 -0.5397
  468MOL0     C63105   7.956   3.878  11.176  0.1361 -0.2208  0.2521
  468MOL0     C63106   7.927   3.870  11.029 -1.1212 -0.9036 -0.3382
  468MOL0     C63107   7.779   3.827  10.999  0.1065  0.2954  0.2158
  468MOL0     C63108   7.673   3.922  11.040  0.1906 -0.2157  0.1061
  468MOL0     C63109   7.580   3.939  10.926 -0.4611 -0.2798 -0.6390
  468MOL0     C63110   7.504   3.933  10.836  0.2014 -0.3813 -0.4404
  468MOL0     C63111   7.915   4.226  11.290 -0.7055 -0.2057  0.2271
  468MOL0     C63112   7.962   4.358  11.275 -0.0047 -0.1623 -0.0580
  468MOL0     H63113   8.287   4.784  11.270 -0.3549 -2.1736 -0.2754
  468MOL0     H63114   8.316   4.992  11.200  0.1093  2.2105 -0.5325
  468MOL0     H63115   8.275   5.219  11.192 -0.1444  1.5287 -0.0347
  468MOL0     H63116   8.317   5.183  11.016 -2.3999 -0.0046 -4.1955
  468MOL0     H63117   8.283   5.418  11.015 -0.5163  0.8256 -1.0718
  468MOL0     H63118   8.134   5.357  10.950  3.2743  2.4205 -2.2987
  468MOL0     H63119   8.069   5.386  11.214 -0.2069 -0.7283 -1.9576
  468MOL0     H63120   8.212   5.474  11.235  0.8543 -2.0093  0.1044
  468MOL0     H63121   8.128   5.619  11.029  1.2362 -2.5122  0.7882
  468MOL0     H63122   7.976   5.521  11.036 -2.0126 -1.4262  2.9099
  468MOL0     H63123   7.948   5.738  11.121 -2.5130 -3.4625 -3.0544
  468MOL0     H63124   7.891   5.619  11.225 -0.0086 -1.0467 -2.1827
  468MOL0     H63125   7.995   5.753  11.396  0.9120 -0.4502  0.3627
  468MOL0     H63126   8.090   5.619  11.377 -4.4922 -1.6238  1.9121
  468MOL0     H63127   8.188   5.813  11.178 -1.0463  2.4759 -0.4713
  468MOL0     H63128   8.126   5.910  11.311 -0.1786 -0.7275 -1.1547
  468MOL0     H63129   8.265   5.764  11.470  0.1339  4.6570  0.7022
  468MOL0     H63130   8.366   5.867  11.360 -0.6087  1.9145  3.5348
  468MOL0     H63131   8.408   5.704  11.093  0.9067 -2.1697 -0.8200
  468MOL0     H63132   8.549   5.492  10.992 -1.1508 -3.9093 -0.0244
  468MOL0     H63133   8.689   5.543  11.094 -1.1572  3.8527 -2.6358
  468MOL0     H63134   8.532   5.288  11.163 -0.9673  0.7725 -1.5733
  468MOL0     H63135   8.698   5.323  11.200  1.0903  1.5812 -0.2228
  468MOL0     H63136   8.737   5.296  10.956 -2.9719  3.4260 -3.1649
  468MOL0     H63137   8.577   5.246  10.926  1.5605 -0.2828 -2.2306
  468MOL0     H63138   8.674   5.090  11.148 -4.0067 -1.8178  0.6628
  468MOL0     H63139   8.734   5.053  10.983 -1.0905 -2.2821  0.7960
  468MOL0     H63140   8.615   4.827  11.151 -1.5005 -0.8177  0.4848
  468MOL0     H63141   8.498   4.510  11.179  0.9599 -1.0920 -2.5454
  468MOL0     H63142   8.672   4.533  11.153 -1.1609 -2.7211  2.3592
  468MOL0     H63143   8.581   4.644  11.246  1.1692  0.2074  0.5427
  468MOL0     H63144   8.341   4.239  10.842 -0.7714 -0.9630 -1.1476
  468MOL0     H63145   8.352   4.033  10.750  0.8905 -3.1624 -3.1805
  468MOL0     H63146   8.737   3.914  10.582 -2.7178  0.7697 -0.2993
  468MOL0     H63147   8.779   3.843  10.729 -0.0871 -0.9624  0.7573
  468MOL0     H63148   8.598   3.738  10.498  3.2069  0.9018 -2.7583
  468MOL0     H63149   8.747   3.662  10.510 -0.6357 -3.4826  2.1153
  468MOL0     H63150   8.526   3.629  10.716 -0.5036  1.1150 -2.0709
  468MOL0     H63151   8.687   3.559  10.733  0.8960  1.4126 -0.1612
  468MOL0     H63152   8.547   3.533  10.470  2.0086  2.8542  1.5521
  468MOL0     H63153   8.666   3.410  10.536 -0.8043 -1.7038  2.1302
  468MOL0     H63154   8.441   3.329  10.521  2.8044  0.5556 -1.6810
  468MOL0     H63155   8.393   3.444  10.663 -0.9109 -2.0267  0.3304
  468MOL0     H63156   8.583   3.222  10.637  0.5020  0.0423  1.0150
  468MOL0     H63157   8.599   3.327  10.775  1.6191  2.1824 -1.8360
  468MOL0     H63158   8.359   3.156  10.695  1.6532 -1.7486 -0.2757
  468MOL0     H63159   8.349   3.282  10.829  1.6428 -0.4621  2.0624
  468MOL0     H63160   8.541   3.051  10.809 -0.0644 -1.6155  1.5761
  468MOL0     H63161   8.396   3.045  10.893 -0.2246 -0.8222 -1.1418
  468MOL0     H63162   8.800   4.056  10.796  1.4153  3.0724  0.1335
  468MOL0     H63163   8.780   4.262  10.882  0.8883 -1.5850  1.3945
  468MOL0     H63164   8.438   4.718  10.713 -2.1119 -0.1079  0.1779
  468MOL0     H63165   8.456   4.949  10.774 -2.2276  0.4481  0.7113
  468MOL0     H63166   7.933   5.010  10.995 -0.6312  0.6653  0.1772
  468MOL0     H63167   7.907   4.759  11.065 -0.7828  2.5560  1.1939
  468MOL0     H63168   8.202   4.286  11.049 -1.3321  3.3469 -0.6784
  468MOL0     H63169   8.132   4.057  11.088  0.8626  0.0106  0.9345
  468MOL0     H63170   8.063   3.857  11.189  0.1494  0.7482  2.1659
  468MOL0     H63171   7.898   3.805  11.233  0.0634 -0.8536 -0.6156
  468MOL0     H63172   7.998   3.801  10.984  1.4761 -0.8896  3.2802
  468MOL0     H63173   7.950   3.963  10.976  1.9059 -1.2254  0.2241
  468MOL0     H63174   7.765   3.725  11.037  2.8377 -0.2198  0.0851
  468MOL0     H63175   7.775   3.821  10.890 -1.5549  2.6375  0.0740
  468MOL0     H63176   7.706   4.026  11.050 -0.7272  0.3683 -2.3276
  468MOL0     H63177   7.623   3.882  11.129 -0.4588  0.1480 -0.0873
  468MOL0     H63178   7.430   3.922  10.759 -0.1148  2.3399 -0.6214
  468MOL0     H63179   7.830   4.218  11.357 -0.0006 -2.5984  0.9440
  468MOL0     H63180   7.917   4.435  11.337  0.8547 -1.3176  2.0952
  469MOL0     O63181   6.220   1.614   5.943 -0.0251 -0.9097 -0.2311
  469MOL0     C63182   6.255   1.642   6.060 -1.0727  0.3863 -0.0493
  469MOL0     O63183   6.169   1.655   6.168 -0.1945  0.3850 -0.8047
  469MOL0     C63184   6.049   1.600   6.154 -0.1665  0.1208 -0.3265
  469MOL0     C63185   5.941   1.676   6.150  0.9738 -1.0791 -0.4762
  469MOL0     C63186   5.810   1.626   6.138  0.6594 -0.2569 -0.2740
  469MOL0     C63187   5.784   1.493   6.140  0.2413 -0.5884  0.2836
  469MOL0     O63188   5.649   1.457   6.144 -0.2938  0.0699 -0.0922
  469MOL0     C63189   5.611   1.319   6.175  0.6076 -0.1333 -0.6418
  469MOL0     C63190   5.475   1.290   6.120 -0.3029 -0.4422  0.4448
  469MOL0     C63191   5.447   1.139   6.141 -0.5589  0.4104  0.3682
  469MOL0     C63192   5.302   1.115   6.189 -0.7905 -0.0028  0.0321
  469MOL0     C63193   5.246   0.976   6.162  0.0069  0.9763 -0.3353
  469MOL0     C63194   5.140   0.923   6.265 -0.0587  0.9836  0.0480
  469MOL0     C63195   5.071   0.801   6.204  0.0192  0.1387 -0.6627
  469MOL0     C63196   4.974   0.738   6.312  0.1540 -0.9362  0.3828
  469MOL0     N63197   4.924   0.606   6.276  0.4298  0.0337  0.4060
  469MOL0     C63198   4.979   0.481   6.307  0.4352 -0.5873 -0.1170
  469MOL0     C63199   4.908   0.387   6.233  0.6880 -0.0712  0.0538
  469MOL0     C63200   4.928   0.236   6.232  0.3012 -0.4372  0.8156
  469MOL0     C63201   4.961   0.184   6.087 -0.5496 -0.0501  0.2026
  469MOL0     C63202   4.831   0.156   5.996  0.6053  0.5278  0.3355
  469MOL0     C63203   4.864   0.108   5.856 -0.6878  0.8483  0.0551
  469MOL0     O63204   4.965   0.003   5.868  0.1355 -0.5917  0.4199
  469MOL0     C63205   5.054  -0.007   5.763 -0.1645  0.0280  0.0404
  469MOL0     C63206   5.158  -0.106   5.790 -0.0391 -0.4044 -0.1264
  469MOL0     C63207   5.274  -0.115   5.701 -0.0907  0.7155  0.0625
  469MOL0     C63208   5.385  -0.192   5.762 -0.0930  0.4500  0.5187
  469MOL0     C63209   5.277  -0.042   5.579  0.2717  0.3442 -0.3607
  469MOL0     C63210   5.385  -0.047   5.470 -0.0759 -0.1638 -0.0897
  469MOL0     O63211   5.500  -0.117   5.497  0.2487 -1.0849 -0.0844
  469MOL0     C63212   5.617  -0.081   5.430 -0.0055 -0.5282 -0.9817
  469MOL0     C63213   5.715  -0.013   5.495 -0.2959 -0.5744 -0.0962
  469MOL0     C63214   5.834   0.012   5.428  0.2306 -0.9081 -0.5875
  469MOL0     C63215   5.861  -0.029   5.302  0.2800 -0.0395  0.0135
  469MOL0     O63216   5.975  -0.002   5.223  0.8544  0.3406  0.1068
  469MOL0     C63217   6.091   0.031   5.299 -1.0664 -0.3324 -0.1481
  469MOL0     C63218   6.218   0.034   5.206 -0.3281  0.0115  0.3277
  469MOL0     C63219   6.338   0.095   5.284 -0.0922 -0.9675  0.1702
  469MOL0     C63220   6.462   0.117   5.197 -0.1558 -0.0637  0.3621
  469MOL0     C63221   6.542  -0.010   5.180  0.5545  0.7882 -0.2505
  469MOL0     C63222   6.654   0.000   5.071  0.2739  0.4614  0.4252
  469MOL0     C63223   6.729  -0.133   5.033  0.6041 -0.6042  0.0490
  469MOL0     C63224   6.846  -0.106   4.946  0.6666  0.2287  0.0392
  469MOL0    Cl63225   6.796  -0.046   4.784 -0.6232 -0.0437  0.5353
  469MOL0     C63226   5.759  -0.092   5.227 -0.1810  0.0294 -0.6500
  469MOL0     C63227   5.641  -0.115   5.298 -0.1206 -0.0006  0.6538
  469MOL0     O63228   5.377   0.012   5.365  0.1715 -0.5609  0.4814
  469MOL0     C63229   5.168   0.043   5.556 -0.6674 -0.2583  0.0164
  469MOL0     C63230   5.061   0.063   5.639 -0.7578 -0.4239 -0.0629
  469MOL0     N63231   4.804   0.446   6.165  0.3649 -0.6043 -0.1546
  469MOL0     N63232   4.824   0.578   6.190  0.3329 -0.5630 -0.5813
  469MOL0     C63233   5.888   1.406   6.151  0.1236 -0.5850  0.2666
  469MOL0     C63234   6.018   1.462   6.160  0.3141 -0.5671  0.5635
  469MOL0     C63235   6.408   1.649   6.082 -0.3627 -0.4064 -0.6737
  469MOL0     C63236   6.496   1.620   5.979 -0.8510  0.3847  0.7511
  469MOL0     C63237   6.627   1.655   5.995 -0.7932  0.2561 -0.9085
  469MOL0     C63238   6.673   1.708   6.118 -0.9640  0.2107 -0.1596
  469MOL0     O63239   6.809   1.724   6.141 -0.9516 -1.3004  0.1614
  469MOL0     C63240   6.908   1.736   6.037  0.3505  0.4662 -1.2388
  469MOL0     C63241   6.981   1.863   6.071  0.4491 -0.0748 -0.5700
  469MOL0     C63242   7.060   1.868   6.201  0.4238  0.2850  0.0636
  469MOL0     C63243   7.076   2.010   6.261 -0.3767  0.3503  0.1866
  469MOL0     C63244   6.941   2.061   6.308  0.2034 -1.2060 -0.1550
  469MOL0     C63245   6.831   2.098   6.321  1.3236  0.0030  0.1791
  469MOL0     C63246   6.588   1.733   6.221  0.9995 -0.3361 -0.1601
  469MOL0     C63247   6.448   1.702   6.207 -0.4144  0.0417 -0.0335
  469MOL0     H63248   5.960   1.782   6.150 -0.5294 -0.7525  1.2068
  469MOL0     H63249   5.724   1.693   6.133 -1.9813 -3.3333  0.3273
  469MOL0     H63250   5.676   1.250   6.120 -1.8016 -2.6956 -0.4673
  469MOL0     H63251   5.631   1.287   6.277  1.2855 -1.3838 -1.1447
  469MOL0     H63252   5.397   1.355   6.160  1.4978  0.0793  3.3921
  469MOL0     H63253   5.480   1.305   6.012 -0.4694  0.4579  0.5603
  469MOL0     H63254   5.477   1.077   6.056 -1.5625 -2.0302  1.7219
  469MOL0     H63255   5.505   1.085   6.216 -2.3013 -2.5976 -0.2834
  469MOL0     H63256   5.298   1.138   6.296  3.9641  3.2533 -0.1666
  469MOL0     H63257   5.236   1.182   6.133  0.0640  1.9955  1.2842
  469MOL0     H63258   5.203   0.974   6.062  0.4250  2.3532 -0.5577
  469MOL0     H63259   5.326   0.901   6.159 -1.8516 -1.1443  0.4734
  469MOL0     H63260   5.182   0.893   6.361 -0.8535 -0.3495  0.0004
  469MOL0     H63261   5.059   0.994   6.285  1.1754  3.9913 -4.1372
  469MOL0     H63262   5.007   0.821   6.117 -0.6300 -0.7616 -0.4081
  469MOL0     H63263   5.147   0.726   6.182  1.0153  1.2776 -1.2562
  469MOL0     H63264   4.888   0.805   6.325  1.8795  1.0393  2.3066
  469MOL0     H63265   5.034   0.726   6.402  0.5571 -1.7494  0.0207
  469MOL0     H63266   5.064   0.446   6.364 -1.6426 -0.1808  3.5664
  469MOL0     H63267   5.000   0.215   6.312 -1.2297 -2.6524  1.7223
  469MOL0     H63268   4.840   0.182   6.269  1.5793 -2.2168  1.3855
  469MOL0     H63269   5.017   0.090   6.100 -1.4748 -0.9341 -1.8603
  469MOL0     H63270   5.023   0.253   6.029  1.3789 -0.3389  1.7897
  469MOL0     H63271   4.777   0.248   5.972  0.8122  0.3306 -0.9923
  469MOL0     H63272   4.765   0.086   6.049  0.3692 -0.3875 -1.0824
  469MOL0     H63273   4.897   0.197   5.801 -2.3073 -0.0034 -2.5115
  469MOL0     H63274   4.770   0.075   5.809  0.7530 -3.9502  0.0510
  469MOL0     H63275   5.150  -0.169   5.878 -0.9628 -1.4084 -0.9042
  469MOL0     H63276   5.364  -0.238   5.859  1.2171 -3.0964 -0.7231
  469MOL0     H63277   5.416  -0.269   5.691 -0.5186  1.6523 -1.0347
  469MOL0     H63278   5.465  -0.118   5.775 -0.7789  1.2242  0.3979
  469MOL0     H63279   5.705   0.019   5.598  3.0689  1.3228 -0.2217
  469MOL0     H63280   5.920   0.042   5.487  1.9017 -3.9395 -1.2824
  469MOL0     H63281   6.089   0.133   5.338  1.0852 -0.7267  1.1721
  469MOL0     H63282   6.102  -0.039   5.383  0.3418  0.1687  0.1091
  469MOL0     H63283   6.240  -0.070   5.182 -2.1069  0.1459 -2.2673
  469MOL0     H63284   6.199   0.096   5.118  0.1371  0.6567  0.6764
  469MOL0     H63285   6.361   0.037   5.374  3.4154 -1.7257 -1.0618
  469MOL0     H63286   6.297   0.186   5.328  1.0814 -0.8552  1.0657
  469MOL0     H63287   6.435   0.153   5.097  0.2473 -1.2715 -0.2049
  469MOL0     H63288   6.523   0.200   5.234  0.7611  0.3147 -1.8149
  469MOL0     H63289   6.464  -0.085   5.168  0.9545  0.0275  1.5793
  469MOL0     H63290   6.585  -0.038   5.277  3.8370  1.2403 -1.4217
  469MOL0     H63291   6.616   0.047   4.980  2.2449  2.8179  0.7194
  469MOL0     H63292   6.729   0.076   5.095 -1.3450  3.1257 -2.2124
  469MOL0     H63293   6.658  -0.193   4.975  0.7651 -0.7641  0.0178
  469MOL0     H63294   6.751  -0.194   5.121 -0.2010  1.2300  1.6067
  469MOL0     H63295   6.906  -0.196   4.933 -0.9645 -1.1527  1.6774
  469MOL0     H63296   6.919  -0.035   4.986  0.1935 -0.7673  2.8324
  469MOL0     H63297   5.780  -0.119   5.124  2.6064  2.1184 -0.7784
  469MOL0     H63298   5.560  -0.173   5.254 -3.0696  2.7616  2.0038
  469MOL0     H63299   5.172   0.088   5.457  0.0745 -0.9310 -0.2749
  469MOL0     H63300   4.988   0.139   5.612  1.2825  1.8139  0.3335
  469MOL0     H63301   5.886   1.297   6.150 -0.4937 -0.5760  0.2082
  469MOL0     H63302   6.096   1.387   6.155  2.1893  1.3539 -1.1721
  469MOL0     H63303   6.465   1.583   5.882 -1.6354  0.6512  0.8874
  469MOL0     H63304   6.690   1.628   5.910  0.2519  0.6300 -0.2713
  469MOL0     H63305   6.975   1.650   6.045  2.4431  2.1023 -0.0478
  469MOL0     H63306   6.852   1.747   5.944 -1.2552  0.4644 -0.3055
  469MOL0     H63307   6.909   1.946   6.064 -1.2241 -1.3053  1.1925
  469MOL0     H63308   7.049   1.881   5.987  1.5486 -2.5958 -0.3056
  469MOL0     H63309   7.158   1.820   6.200  0.5216  0.4892 -0.5631
  469MOL0     H63310   7.003   1.815   6.279 -0.2592  0.3682 -0.3678
  469MOL0     H63311   7.117   2.086   6.194  0.0611  1.8270  2.0419
  469MOL0     H63312   7.141   2.014   6.349 -1.2731  0.8604  0.8560
  469MOL0     H63313   6.734   2.144   6.330  0.8593 -0.9490  0.1928
  469MOL0     H63314   6.632   1.772   6.313  1.5825  1.2313 -1.0680
  469MOL0     H63315   6.374   1.734   6.280  1.8695  0.4160  2.2803
  470MOL0     O63316   6.800   4.593   2.843  0.2704 -0.9113 -0.8650
  470MOL0     C63317   6.891   4.665   2.803 -0.8518 -1.2534  0.2090
  470MOL0     O63318   6.898   4.716   2.671 -0.7565  0.0924  0.0193
  470MOL0     C63319   6.789   4.692   2.585 -0.6389 -0.0771 -0.1882
  470MOL0     C63320   6.782   4.568   2.524  0.4065 -0.2848 -0.2993
  470MOL0     C63321   6.671   4.531   2.458  0.2269 -0.0175  0.4991
  470MOL0     C63322   6.574   4.630   2.426  0.8017 -0.2071 -0.7806
  470MOL0     O63323   6.462   4.600   2.359 -0.5121  0.8250  0.1131
  470MOL0     C63324   6.425   4.457   2.337  0.1732 -0.9351  0.5242
  470MOL0     C63325   6.293   4.441   2.289  0.6197  0.3609 -1.0291
  470MOL0     C63326   6.187   4.517   2.375 -0.1899 -0.7681  0.8531
  470MOL0     C63327   6.053   4.510   2.298  0.1914  2.0278  0.3887
  470MOL0     C63328   5.935   4.582   2.357  0.4312 -0.9599 -0.9259
  470MOL0     C63329   5.819   4.585   2.256  0.1631  0.7693  0.1370
  470MOL0     C63330   5.677   4.559   2.323 -0.0676  0.3927  0.0226
  470MOL0     C63331   5.573   4.607   2.229 -0.3138 -0.0504  0.3350
  470MOL0     N63332   5.452   4.644   2.288 -0.1214  0.1657  0.4858
  470MOL0     C63333   5.377   4.550   2.352  1.1398 -0.6359 -0.6032
  470MOL0     C63334   5.285   4.626   2.415 -0.3426 -0.1550 -0.2747
  470MOL0     C63335   5.184   4.578   2.512 -0.1375 -0.0098 -0.0004
  470MOL0     C63336   5.089   4.685   2.568  1.0931 -0.6197 -0.1231
  470MOL0     C63337   4.998   4.747   2.466  0.0238 -0.7424 -0.2463
  470MOL0     C63338   4.866   4.800   2.529 -0.5432 -0.3098  0.6455
  470MOL0     O63339   4.790   4.704   2.596  0.0449  0.4975 -0.9585
  470MOL0     C63340   4.657   4.718   2.625  0.1432 -0.5596 -0.1610
  470MOL0     C63341   4.600   4.819   2.700 -0.0217  0.4060  0.4254
  470MOL0     C63342   4.464   4.822   2.744  0.0033 -0.6764  0.1231
  470MOL0     C63343   4.427   4.941   2.833 -0.4411  0.5326 -0.3777
  470MOL0     C63344   4.384   4.704   2.707 -0.5423 -0.4631 -0.6541
  470MOL0     C63345   4.234   4.686   2.742  0.6783 -1.0971 -0.7056
  470MOL0     O63346   4.168   4.575   2.683 -0.5737  0.1006  0.2203
  470MOL0     C63347   4.032   4.563   2.705  0.1793  0.0124 -0.5313
  470MOL0     C63348   3.950   4.529   2.599  0.0586 -0.0369 -0.5787
  470MOL0     C63349   3.818   4.510   2.624  0.0970 -0.0184 -0.1093
  470MOL0     C63350   3.768   4.505   2.758 -0.2780 -0.5897  0.0641
  470MOL0     O63351   3.631   4.491   2.768  0.6554  0.2583  0.4655
  470MOL0     C63352   3.562   4.552   2.882  0.2645  0.1781  0.2201
  470MOL0     C63353   3.415   4.497   2.884 -0.0190  0.4234  0.4741
  470MOL0     C63354   3.322   4.566   2.791  0.3823 -0.6444  0.6304
  470MOL0     C63355   3.181   4.519   2.800  0.4051 -0.3977  0.1387
  470MOL0     C63356   3.113   4.535   2.660  0.3455 -0.1839 -0.2550
  470MOL0     C63357   3.148   4.430   2.552  0.2237  0.0534  0.4479
  470MOL0     C63358   3.044   4.441   2.436 -0.2023  0.3500 -0.0552
  470MOL0     C63359   2.927   4.341   2.453  0.8017 -0.4343 -1.3015
  470MOL0    Cl63360   2.995   4.175   2.396  0.1588 -0.0593 -0.4174
  470MOL0     C63361   3.853   4.535   2.861 -0.2121 -0.2287  0.1732
  470MOL0     C63362   3.980   4.563   2.835  0.2864 -0.0055  0.4478
  470MOL0     O63363   4.183   4.772   2.818  0.0931  0.0936  0.0419
  470MOL0     C63364   4.439   4.604   2.617 -0.0957  0.6465 -0.5641
  470MOL0     C63365   4.573   4.615   2.585  0.2710 -0.2211  0.4769
  470MOL0     N63366   5.292   4.757   2.369  0.1514  0.6968 -0.5845
  470MOL0     N63367   5.398   4.766   2.298 -0.2248 -0.0662  0.4822
  470MOL0     C63368   6.596   4.758   2.468  0.4096  0.1287  0.4968
  470MOL0     C63369   6.699   4.789   2.562  0.8998 -0.2849 -0.6087
  470MOL0     C63370   7.010   4.680   2.888  0.0129  0.3441  1.4302
  470MOL0     C63371   7.128   4.744   2.837  0.7160  0.1337 -0.2440
  470MOL0     C63372   7.234   4.748   2.915  0.2844  0.4287 -0.1530
  470MOL0     C63373   7.245   4.715   3.050 -0.0419  0.2207 -0.0515
  470MOL0     O63374   7.356   4.723   3.125  0.3243  0.3011  0.1247
  470MOL0     C63375   7.476   4.778   3.073  0.6544  0.1297 -0.3643
  470MOL0     C63376   7.462   4.934   3.083  0.5746 -0.2738  0.8217
  470MOL0     C63377   7.508   4.985   2.943 -0.4471 -0.6040  0.0315
  470MOL0     C63378   7.530   5.140   2.962  0.6054  0.0157 -0.4997
  470MOL0     C63379   7.567   5.194   2.833  0.1073  0.9965 -0.4351
  470MOL0     C63380   7.605   5.213   2.725 -0.5638  0.0026 -0.5678
  470MOL0     C63381   7.128   4.654   3.101  0.1716 -0.6777 -0.5985
  470MOL0     C63382   7.014   4.632   3.023  0.4228  0.5372  0.0305
  470MOL0     H63383   6.862   4.495   2.532  0.3178 -0.6450 -2.1520
  470MOL0     H63384   6.654   4.427   2.433  0.7607  0.0855 -0.3029
  470MOL0     H63385   6.490   4.410   2.262  1.5853  2.0321 -0.2953
  470MOL0     H63386   6.436   4.408   2.434  3.6697 -0.4826  0.5059
  470MOL0     H63387   6.286   4.464   2.183  0.7833 -0.7816 -1.3061
  470MOL0     H63388   6.270   4.334   2.298  0.5636  0.2812 -2.0246
  470MOL0     H63389   6.190   4.459   2.468  0.9342 -0.0492  1.2794
  470MOL0     H63390   6.219   4.621   2.389 -1.8531  0.5511 -3.5645
  470MOL0     H63391   6.062   4.539   2.193  2.5114  0.5308  0.1020
  470MOL0     H63392   6.026   4.404   2.298  0.7351  1.8873  0.1072
  470MOL0     H63393   5.893   4.536   2.447  0.3927  0.0663 -0.3943
  470MOL0     H63394   5.960   4.686   2.381  0.5122 -1.1562 -0.1486
  470MOL0     H63395   5.812   4.683   2.209  0.5862  1.1805  0.9076
  470MOL0     H63396   5.833   4.511   2.177 -1.0797  2.5842 -1.8713
  470MOL0     H63397   5.662   4.454   2.348 -3.0935  0.5866 -0.5810
  470MOL0     H63398   5.681   4.611   2.419 -1.1052 -2.1681  1.5579
  470MOL0     H63399   5.552   4.528   2.156  0.7807  1.6301 -1.9011
  470MOL0     H63400   5.607   4.700   2.182  0.1839  0.0703  0.9298
  470MOL0     H63401   5.418   4.450   2.363 -0.1291 -1.1960 -0.8122
  470MOL0     H63402   5.123   4.491   2.482 -3.0747  1.5265  1.1057
  470MOL0     H63403   5.228   4.539   2.605  1.0969  3.2018  0.8944
  470MOL0     H63404   5.154   4.758   2.618 -2.9918  0.0362  5.2165
  470MOL0     H63405   5.037   4.630   2.647  0.2207  0.1503 -0.1388
  470MOL0     H63406   4.990   4.688   2.374 -2.2037  2.1356 -2.0565
  470MOL0     H63407   5.042   4.835   2.417 -1.0968  0.3406  0.6224
  470MOL0     H63408   4.800   4.858   2.465 -2.1358 -2.3846  0.2946
  470MOL0     H63409   4.892   4.878   2.602 -2.3618  0.6724  0.2881
  470MOL0     H63410   4.670   4.893   2.736 -0.2356  1.3371 -0.9862
  470MOL0     H63411   4.413   4.892   2.930 -0.9564 -0.3892 -0.9053
  470MOL0     H63412   4.509   5.014   2.835 -1.2395  1.4349  0.5893
  470MOL0     H63413   4.335   4.994   2.808  0.0885  0.9891 -1.4230
  470MOL0     H63414   3.990   4.512   2.500  1.4728 -1.9937  0.2754
  470MOL0     H63415   3.743   4.480   2.552 -0.6283 -1.2362  1.0915
  470MOL0     H63416   3.606   4.539   2.981  1.3693 -1.0936 -0.4089
  470MOL0     H63417   3.555   4.659   2.862 -0.8953 -0.4750 -3.6765
  470MOL0     H63418   3.415   4.389   2.865 -0.2826  0.1333  1.9536
  470MOL0     H63419   3.384   4.512   2.988 -2.4690  1.0783 -0.2684
  470MOL0     H63420   3.366   4.540   2.694 -2.1371 -1.9583 -0.2431
  470MOL0     H63421   3.331   4.674   2.805  2.8978 -0.5594 -1.0167
  470MOL0     H63422   3.189   4.412   2.822 -0.3185  0.1214  3.5071
  470MOL0     H63423   3.124   4.564   2.881 -0.0725 -2.7782  1.2248
  470MOL0     H63424   3.143   4.628   2.610 -2.9320  0.4808 -1.2326
  470MOL0     H63425   3.004   4.534   2.667  0.2691  2.2647 -0.2838
  470MOL0     H63426   3.246   4.444   2.506  0.3206 -3.2004 -0.5855
  470MOL0     H63427   3.142   4.328   2.591  1.1484 -0.1969 -0.0249
  470MOL0     H63428   3.095   4.415   2.343  0.1649 -1.2785  0.5722
  470MOL0     H63429   2.994   4.537   2.423 -1.9337 -0.5487 -0.2397
  470MOL0     H63430   2.840   4.373   2.395 -0.4728 -2.6043 -0.6868
  470MOL0     H63431   2.882   4.340   2.553  2.5672  1.0437 -0.4349
  470MOL0     H63432   3.816   4.521   2.962  1.3629  0.8623  0.9353
  470MOL0     H63433   4.049   4.588   2.915  1.3634 -0.8692 -0.1804
  470MOL0     H63434   4.396   4.520   2.563  0.8505 -0.4157  0.2918
  470MOL0     H63435   4.618   4.542   2.518  0.8594 -0.0985  0.7417
  470MOL0     H63436   6.526   4.831   2.429  0.8201  0.1709 -0.1712
  470MOL0     H63437   6.711   4.892   2.595  1.5346 -0.9982  1.5569
  470MOL0     H63438   7.125   4.774   2.732 -1.5963 -1.0397 -0.5915
  470MOL0     H63439   7.326   4.791   2.875 -0.0982  1.0654 -0.3648
  470MOL0     H63440   7.562   4.752   3.135 -0.2232 -1.0353  0.4099
  470MOL0     H63441   7.500   4.748   2.970  0.8260  1.1419 -0.6327
  470MOL0     H63442   7.529   4.965   3.164  0.9093 -2.6765  1.5586
  470MOL0     H63443   7.360   4.964   3.108 -0.3911 -2.6174  0.0305
  470MOL0     H63444   7.430   4.972   2.868  0.3878  2.3078 -1.4510
  470MOL0     H63445   7.597   4.939   2.899 -0.2330  1.2012 -1.5316
  470MOL0     H63446   7.603   5.163   3.040  0.4473  0.3526 -0.4493
  470MOL0     H63447   7.430   5.178   2.987  0.6401  0.5621 -1.1422
  470MOL0     H63448   7.638   5.254   2.631 -0.9564  3.1475  0.5668
  470MOL0     H63449   7.120   4.616   3.202  0.7216 -0.3043 -0.4110
  470MOL0     H63450   6.924   4.596   3.073  0.6139  3.6378  3.0092
  471MOL0     O63451   4.985   5.590   9.951  0.0695 -0.1658  0.0891
  471MOL0     C63452   5.013   5.493  10.019 -0.4040 -0.4025 -0.4981
  471MOL0     O63453   4.927   5.414  10.090  0.2045 -0.3292 -0.2894
  471MOL0     C63454   4.794   5.447  10.078 -0.0306 -0.3236  0.4721
  471MOL0     C63455   4.723   5.398   9.967 -0.5698 -0.3099  0.2599
  471MOL0     C63456   4.583   5.413   9.960 -0.6109 -0.0073  0.3621
  471MOL0     C63457   4.520   5.480  10.064  0.4182  1.2546 -0.2884
  471MOL0     O63458   4.384   5.488  10.044 -0.0320  0.4667 -0.7761
  471MOL0     C63459   4.299   5.556  10.137  0.4688 -1.3767 -0.1889
  471MOL0     C63460   4.150   5.508  10.131 -0.2905  0.0516 -0.4875
  471MOL0     C63461   4.109   5.373  10.196  0.2678 -0.1689 -0.7622
  471MOL0     C63462   4.124   5.368  10.351  0.0723  0.3882 -0.4866
  471MOL0     C63463   4.110   5.225  10.411  0.4405 -0.3946  0.4261
  471MOL0     C63464   3.982   5.160  10.369 -0.0211  0.6758  0.1350
  471MOL0     C63465   3.979   5.018  10.419  0.3846 -0.9522 -0.1600
  471MOL0     C63466   3.842   4.952  10.389  0.0354 -0.6767 -0.7830
  471MOL0     N63467   3.853   4.814  10.443  0.3247 -0.0819  0.7461
  471MOL0     C63468   3.826   4.779  10.570 -0.0657 -0.4276 -0.7280
  471MOL0     C63469   3.831   4.642  10.568 -0.0790  0.1000  0.5501
  471MOL0     C63470   3.797   4.536  10.680 -0.4163  0.3171 -0.5371
  471MOL0     C63471   3.651   4.536  10.728 -0.5187 -0.3398 -0.1696
  471MOL0     C63472   3.558   4.492  10.608  0.2731  0.3584 -0.2705
  471MOL0     C63473   3.416   4.475  10.655  0.9932  0.4098 -0.4189
  471MOL0     O63474   3.320   4.539  10.567  0.6708 -0.0418  0.4565
  471MOL0     C63475   3.329   4.674  10.528 -0.6658  0.2820  0.0674
  471MOL0     C63476   3.263   4.716  10.419  0.2082  0.9320 -0.1375
  471MOL0     C63477   3.263   4.840  10.368  0.8677  0.0967 -0.4482
  471MOL0     C63478   3.177   4.861  10.250 -0.2799  0.7987  0.2845
  471MOL0     C63479   3.355   4.933  10.424  0.6115 -0.4673 -0.5039
  471MOL0     C63480   3.390   5.071  10.371 -0.8525  0.2639 -0.0351
  471MOL0     O63481   3.501   5.141  10.428 -0.4372 -0.1994 -0.0974
  471MOL0     C63482   3.556   5.241  10.348  0.2630 -0.5862  0.2722
  471MOL0     C63483   3.663   5.221  10.252  0.2014  0.1202  0.3237
  471MOL0     C63484   3.708   5.329  10.177 -0.6455 -0.2267 -0.2989
  471MOL0     C63485   3.665   5.461  10.211  0.0609 -0.1714  0.0372
  471MOL0     O63486   3.733   5.554  10.142 -0.0339 -0.6228 -0.7456
  471MOL0     C63487   3.753   5.685  10.209  0.6480 -0.2946  0.1186
  471MOL0     C63488   3.874   5.696  10.292  0.6934  0.9744 -0.0846
  471MOL0     C63489   3.829   5.709  10.439 -0.2555  0.1471  0.4850
  471MOL0     C63490   3.943   5.671  10.535 -0.7491 -0.1136 -0.5070
  471MOL0     C63491   4.077   5.750  10.524 -0.0094  0.3966 -0.4458
  471MOL0     C63492   4.176   5.688  10.626  0.2698 -0.2924  0.2698
  471MOL0     C63493   4.158   5.747  10.768 -0.4476  0.3740 -0.1379
  471MOL0     C63494   4.204   5.646  10.872  0.0488 -0.2338  0.2648
  471MOL0    Cl63495   4.189   5.696  11.038 -0.0190  0.1125  0.0680
  471MOL0     C63496   3.566   5.479  10.306 -0.0085  0.7244  0.2812
  471MOL0     C63497   3.502   5.367  10.363  0.2519  0.2326  1.2415
  471MOL0     O63498   3.323   5.118  10.279 -0.2522 -0.6220 -0.7726
  471MOL0     C63499   3.412   4.898  10.543 -1.2906 -0.3270  0.3407
  471MOL0     C63500   3.406   4.768  10.595 -1.2886 -0.4254 -0.2098
  471MOL0     N63501   3.879   4.597  10.450 -0.4705  0.0631  0.2552
  471MOL0     N63502   3.888   4.701  10.372 -0.2074  1.5682 -0.3271
  471MOL0     C63503   4.591   5.524  10.177  0.4200  0.4225 -0.6511
  471MOL0     C63504   4.723   5.508  10.186 -0.8803  0.3560  0.3164
  471MOL0     C63505   5.162   5.464  10.039 -0.8308 -0.7916 -0.4056
  471MOL0     C63506   5.253   5.551   9.973  0.6755  0.0542 -0.5082
  471MOL0     C63507   5.388   5.520   9.979 -0.3901 -0.1116  1.0586
  471MOL0     C63508   5.432   5.423  10.067 -0.9432  0.0444 -0.3658
  471MOL0     O63509   5.570   5.410  10.087 -0.1892  0.1609  0.5039
  471MOL0     C63510   5.631   5.317  10.187 -0.2960 -1.0167 -0.2976
  471MOL0     C63511   5.766   5.386  10.231  0.5628  0.1842 -0.1072
  471MOL0     C63512   5.753   5.493  10.336 -0.1188 -0.0745 -0.2757
  471MOL0     C63513   5.733   5.637  10.268  0.2771 -0.3659  0.0860
  471MOL0     C63514   5.845   5.686  10.187  0.1191  0.3150 -0.0998
  471MOL0     C63515   5.921   5.721  10.102  0.2756 -0.1335 -0.8470
  471MOL0     C63516   5.341   5.339  10.137 -0.1047 -0.8818  0.2289
  471MOL0     C63517   5.209   5.357  10.117  0.6021 -0.2191  0.0384
  471MOL0     H63518   4.780   5.352   9.886  0.4930  2.9375 -1.0537
  471MOL0     H63519   4.536   5.377   9.869 -0.1510  0.5254 -0.0890
  471MOL0     H63520   4.336   5.537  10.238 -2.7536 -0.6082  1.2427
  471MOL0     H63521   4.306   5.663  10.115  3.1746 -1.6602 -1.1733
  471MOL0     H63522   4.088   5.593  10.161 -2.5198 -0.9065 -2.0822
  471MOL0     H63523   4.122   5.501  10.025 -2.9001  1.2381  0.0349
  471MOL0     H63524   4.014   5.337  10.155 -0.0357  0.0296 -0.2421
  471MOL0     H63525   4.190   5.306  10.164  0.3145 -1.0133  1.0388
  471MOL0     H63526   4.225   5.400  10.376  0.4840 -1.7253  0.8966
  471MOL0     H63527   4.041   5.418  10.402  0.1883  0.1308 -0.0351
  471MOL0     H63528   4.195   5.173  10.365  0.7709  3.3642 -3.9326
  471MOL0     H63529   4.124   5.225  10.519  0.3903 -0.2822  0.4326
  471MOL0     H63530   3.892   5.214  10.403 -0.0472 -0.1092  1.3575
  471MOL0     H63531   3.964   5.157  10.261  2.3331 -0.9718 -0.2747
  471MOL0     H63532   4.049   4.956  10.362  3.4571  2.8553 -0.9214
  471MOL0     H63533   4.005   5.019  10.525  2.4334  3.3577 -0.5152
  471MOL0     H63534   3.827   4.952  10.281  3.0859 -2.1094 -1.3162
  471MOL0     H63535   3.783   5.012  10.459  4.1834 -0.3866  2.8896
  471MOL0     H63536   3.801   4.853  10.646  3.6463  0.5425 -0.2578
  471MOL0     H63537   3.817   4.432  10.653 -1.1693 -0.3216  1.2056
  471MOL0     H63538   3.868   4.570  10.755  1.4700 -2.4693 -0.9286
  471MOL0     H63539   3.634   4.641  10.753 -1.9308  0.0708 -2.5549
  471MOL0     H63540   3.634   4.481  10.821 -1.0184  0.6698  0.3574
  471MOL0     H63541   3.585   4.392  10.575 -0.5562 -0.0074  0.1297
  471MOL0     H63542   3.572   4.561  10.525  0.9446 -0.9099 -1.2369
  471MOL0     H63543   3.411   4.528  10.751  1.2631 -0.2927 -0.0088
  471MOL0     H63544   3.383   4.374  10.681 -0.9515  1.8312  3.3363
  471MOL0     H63545   3.187   4.651  10.376  2.6614 -1.3257 -1.4449
  471MOL0     H63546   3.138   4.768  10.208  0.0824 -0.3639  2.3477
  471MOL0     H63547   3.092   4.923  10.280 -0.0505  1.4377 -0.3701
  471MOL0     H63548   3.215   4.929  10.173 -3.9405  3.8550  0.8775
  471MOL0     H63549   3.687   5.118  10.227 -2.1619  0.1088 -2.4152
  471MOL0     H63550   3.787   5.326  10.102  0.4898  0.0019  0.8601
  471MOL0     H63551   3.764   5.752  10.123  0.2809 -1.3491 -0.7766
  471MOL0     H63552   3.671   5.729  10.266  2.2099  2.8943  0.1481
  471MOL0     H63553   3.922   5.598  10.281  0.1066  0.7369 -0.6362
  471MOL0     H63554   3.918   5.792  10.266 -2.4415  1.9790 -2.4181
  471MOL0     H63555   3.752   5.635  10.463  0.0575  0.1522  1.5422
  471MOL0     H63556   3.791   5.810  10.454 -1.4413  0.0424 -1.4589
  471MOL0     H63557   3.903   5.689  10.635  0.2224 -1.2859  0.1110
  471MOL0     H63558   3.966   5.565  10.522  0.7419  0.2820 -1.3576
  471MOL0     H63559   4.054   5.852  10.558  1.2994  0.9928 -1.2611
  471MOL0     H63560   4.116   5.737  10.423  3.7426  0.4849  0.8350
  471MOL0     H63561   4.170   5.578  10.629  1.3430 -0.3923 -0.6264
  471MOL0     H63562   4.277   5.700  10.586 -0.8339  2.7066 -1.9937
  471MOL0     H63563   4.052   5.766  10.786 -0.8774  2.2036 -3.6824
  471MOL0     H63564   4.220   5.834  10.789  1.1949 -0.3592 -1.6710
  471MOL0     H63565   4.309   5.630  10.844  0.5475  3.8069 -0.8384
  471MOL0     H63566   4.157   5.549  10.855  0.7348 -0.5816  0.3043
  471MOL0     H63567   3.525   5.575  10.336 -0.4340  0.7710 -0.4401
  471MOL0     H63568   3.419   5.379  10.432 -1.9152 -0.4589 -1.1099
  471MOL0     H63569   3.472   4.968  10.600  0.6724 -1.7833  0.1619
  471MOL0     H63570   3.442   4.730  10.690  2.7774 -0.2245 -1.4687
  471MOL0     H63571   4.545   5.567  10.265 -0.1933 -0.3857 -0.5712
  471MOL0     H63572   4.774   5.561  10.266  2.1335  1.2235 -1.9927
  471MOL0     H63573   5.224   5.623   9.897  3.0515  0.2658 -1.2967
  471MOL0     H63574   5.455   5.578   9.917  1.4121 -3.9227 -0.8983
  471MOL0     H63575   5.567   5.299  10.274 -0.0832 -0.2311  0.0270
  471MOL0     H63576   5.659   5.219  10.145 -0.5955 -2.0041  1.6931
  471MOL0     H63577   5.820   5.422  10.142 -1.3991  0.2949 -1.3113
  471MOL0     H63578   5.826   5.302  10.266 -0.5216 -0.3110  0.5775
  471MOL0     H63579   5.838   5.495  10.405  0.0418 -2.4011 -0.3332
  471MOL0     H63580   5.666   5.466  10.398 -0.3211 -0.6971 -0.8312
  471MOL0     H63581   5.708   5.717  10.339  1.3343  0.2826 -0.2477
  471MOL0     H63582   5.647   5.625  10.202 -2.1301  4.1765  1.9615
  471MOL0     H63583   5.992   5.759  10.031  2.1394  1.9981  1.9334
  471MOL0     H63584   5.366   5.259  10.206 -0.3404 -0.9982  0.1777
  471MOL0     H63585   5.155   5.289  10.181  2.0533 -0.0776  1.4851
  472MOL0     O63586   1.402   2.595   2.627  0.3954 -0.0855 -0.1227
  472MOL0     C63587   1.359   2.660   2.729 -0.0334 -0.3889  0.2034
  472MOL0     O63588   1.233   2.652   2.786  0.2064  0.0977 -0.1348
  472MOL0     C63589   1.134   2.586   2.716 -0.5794  0.5211  0.2007
  472MOL0     C63590   1.051   2.499   2.799  0.2298 -0.7054  0.1479
  472MOL0     C63591   0.931   2.458   2.749  0.2269 -0.0514  0.3189
  472MOL0     C63592   0.901   2.485   2.615 -0.4432 -0.1649  0.4098
  472MOL0     O63593   0.790   2.452   2.540  0.4579  0.2896 -0.7110
  472MOL0     C63594   0.675   2.435   2.625 -0.1094  0.2953  0.4526
  472MOL0     C63595   0.550   2.404   2.552 -0.7670  0.0791  0.5762
  472MOL0     C63596   0.431   2.410   2.639  0.5676  0.3171 -0.0731
  472MOL0     C63597   0.291   2.393   2.569 -0.6243 -0.0677 -0.2229
  472MOL0     C63598   0.180   2.411   2.665  0.4302 -0.8231 -0.3264
  472MOL0     C63599   0.054   2.355   2.608 -0.7938 -0.0017  0.5068
  472MOL0     C63600  -0.072   2.417   2.681 -0.2561 -0.6054  0.2287
  472MOL0     C63601  -0.077   2.379   2.828 -1.0389  0.0026 -0.4908
  472MOL0     N63602  -0.218   2.388   2.870 -0.2701  0.9624 -0.0667
  472MOL0     C63603  -0.262   2.469   2.970  0.0865 -0.2229  0.5207
  472MOL0     C63604  -0.396   2.440   2.977 -0.6266  0.3228  0.2766
  472MOL0     C63605  -0.501   2.494   3.067 -0.1305  0.3168 -0.4495
  472MOL0     C63606  -0.522   2.388   3.181 -0.2951 -0.9454 -0.3865
  472MOL0     C63607  -0.619   2.451   3.279 -0.5561  0.1981  0.5420
  472MOL0     C63608  -0.764   2.463   3.226  0.8251  0.6320 -0.4829
  472MOL0     O63609  -0.858   2.419   3.323 -0.7651 -0.2394 -0.0499
  472MOL0     C63610  -0.996   2.434   3.287 -0.4679 -0.4031 -0.2770
  472MOL0     C63611  -1.044   2.464   3.160  0.5022 -1.0152  0.6405
  472MOL0     C63612  -1.178   2.486   3.127  0.4120 -0.6105 -0.0782
  472MOL0     C63613  -1.225   2.529   2.986  0.2797  0.3094 -1.2627
  472MOL0     C63614  -1.276   2.447   3.231 -0.0327  0.5252 -0.5288
  472MOL0     C63615  -1.427   2.441   3.220 -0.8286 -0.1777  0.4663
  472MOL0     O63616  -1.497   2.421   3.335 -0.2147 -0.2499 -0.4455
  472MOL0     C63617  -1.613   2.352   3.322 -0.3006  0.6091  0.3497
  472MOL0     C63618  -1.731   2.423   3.290 -0.1372  0.1793 -1.4285
  472MOL0     C63619  -1.851   2.355   3.277 -0.2457 -0.1186  0.5139
  472MOL0     C63620  -1.860   2.226   3.305 -0.0706  0.2999  0.5965
  472MOL0     O63621  -1.989   2.169   3.312  0.0787 -0.1294 -0.6394
  472MOL0     C63622  -2.012   2.056   3.395 -0.6567 -0.7612 -0.0671
  472MOL0     C63623  -2.158   2.034   3.416 -0.1745  0.4141 -0.8429
  472MOL0     C63624  -2.234   1.988   3.290 -0.6631 -0.3874 -0.2396
  472MOL0     C63625  -2.197   1.843   3.244  0.2702 -0.6523  0.5339
  472MOL0     C63626  -2.285   1.737   3.311  0.4611  0.0617 -0.2721
  472MOL0     C63627  -2.239   1.595   3.278 -0.0181  0.5117  0.5141
  472MOL0     C63628  -2.332   1.482   3.329 -0.2745  0.5621  1.0523
  472MOL0     C63629  -2.479   1.486   3.298  0.0835  0.6381 -0.1703
  472MOL0    Cl63630  -2.544   1.331   3.348  0.1744 -0.6485 -0.0804
  472MOL0     C63631  -1.749   2.150   3.335 -0.0201 -0.7313 -0.6135
  472MOL0     C63632  -1.629   2.215   3.337 -0.2667 -0.1343 -0.2485
  472MOL0     O63633  -1.481   2.445   3.109 -0.0962  0.0501 -0.2911
  472MOL0     C63634  -1.227   2.420   3.360  0.1193  0.2210 -0.1041
  472MOL0     C63635  -1.088   2.416   3.381 -1.0478 -0.5688 -0.5300
  472MOL0     N63636  -0.414   2.324   2.900 -0.4306 -0.1100 -0.5113
  472MOL0     N63637  -0.320   2.309   2.824 -0.0111  0.1593 -1.5571
  472MOL0     C63638   0.990   2.556   2.530  0.0141  0.4876  0.2870
  472MOL0     C63639   1.099   2.615   2.581  0.4094 -0.0001 -0.7860
  472MOL0     C63640   1.457   2.737   2.806  0.8560 -0.9429 -0.4525
  472MOL0     C63641   1.410   2.813   2.927  0.9371 -0.4398 -0.1808
  472MOL0     C63642   1.506   2.884   3.000 -0.0668  0.2796  0.0651
  472MOL0     C63643   1.640   2.885   2.964  0.4571 -0.2717 -0.0686
  472MOL0     O63644   1.734   2.922   3.054 -0.3370 -0.2061  0.5061
  472MOL0     C63645   1.824   3.026   3.011 -0.2245  0.3592 -0.0632
  472MOL0     C63646   1.904   3.094   3.117  0.5580 -0.0473  0.7048
  472MOL0     C63647   1.973   3.216   3.053  1.2777 -0.2651 -0.7843
  472MOL0     C63648   2.103   3.173   2.973  0.2163 -0.3958  0.5456
  472MOL0     C63649   2.178   3.292   2.938  0.4180 -0.3077 -0.1609
  472MOL0     C63650   2.247   3.389   2.928  0.1751  0.2083  0.6044
  472MOL0     C63651   1.679   2.806   2.854  0.1186  0.2830  0.7969
  472MOL0     C63652   1.592   2.729   2.778 -0.4049 -0.1671  0.2283
  472MOL0     H63653   1.077   2.477   2.902  0.5537  1.6951  0.6435
  472MOL0     H63654   0.868   2.395   2.812 -1.2347  1.7460  0.7432
  472MOL0     H63655   0.694   2.359   2.702  2.3087  0.8513  0.4913
  472MOL0     H63656   0.675   2.530   2.678  1.1718 -0.1468  1.2955
  472MOL0     H63657   0.522   2.460   2.462  0.3490 -1.6994 -0.9659
  472MOL0     H63658   0.570   2.301   2.519 -3.4696 -0.1991 -0.5442
  472MOL0     H63659   0.449   2.325   2.706  0.3204 -0.2292 -0.7029
  472MOL0     H63660   0.432   2.512   2.681 -0.0044  0.7700 -1.1444
  472MOL0     H63661   0.279   2.447   2.475 -3.4497 -4.1218 -2.5408
  472MOL0     H63662   0.302   2.287   2.541  0.6403 -0.3762  1.2830
  472MOL0     H63663   0.216   2.368   2.759 -4.3084 -0.5235  1.9162
  472MOL0     H63664   0.173   2.520   2.671  1.7277 -0.7398 -0.0808
  472MOL0     H63665   0.045   2.375   2.501 -3.0923  1.8321  0.9456
  472MOL0     H63666   0.059   2.246   2.616  0.9096  0.1891  4.2870
  472MOL0     H63667  -0.066   2.526   2.683 -1.5679 -0.5071 -0.2470
  472MOL0     H63668  -0.157   2.374   2.627 -1.4654 -0.7203  2.1305
  472MOL0     H63669  -0.004   2.446   2.874  1.7833 -1.1298 -2.9774
  472MOL0     H63670  -0.035   2.279   2.842 -1.8520 -0.7737 -3.0418
  472MOL0     H63671  -0.198   2.549   3.007  0.2770  3.0282 -5.6401
  472MOL0     H63672  -0.480   2.596   3.100 -3.3830  1.7950 -2.4727
  472MOL0     H63673  -0.594   2.504   3.010  0.5790 -0.1850 -1.7509
  472MOL0     H63674  -0.438   2.360   3.244  0.7650  2.2448 -0.1889
  472MOL0     H63675  -0.575   2.298   3.149 -0.4579 -0.4750 -1.4833
  472MOL0     H63676  -0.594   2.556   3.301  1.5273  0.2968 -1.9212
  472MOL0     H63677  -0.620   2.388   3.369  0.9303 -4.2000 -2.2306
  472MOL0     H63678  -0.775   2.396   3.140 -5.0119  0.9185 -0.4213
  472MOL0     H63679  -0.774   2.568   3.197  2.3614  0.3021 -2.3644
  472MOL0     H63680  -0.977   2.466   3.075 -0.0394 -1.1098  0.2082
  472MOL0     H63681  -1.139   2.534   2.918  0.0707 -1.1664 -1.6895
  472MOL0     H63682  -1.295   2.458   2.939 -2.1281  0.4552  1.7719
  472MOL0     H63683  -1.274   2.626   2.990  0.4065  0.3266  0.0364
  472MOL0     H63684  -1.731   2.531   3.286 -0.3963  0.4416  2.2484
  472MOL0     H63685  -1.939   2.417   3.260  0.0757  0.7368  1.8007
  472MOL0     H63686  -1.960   1.971   3.349 -0.8877 -0.3801 -1.0694
  472MOL0     H63687  -1.969   2.078   3.493 -0.7332  2.1194 -0.5746
  472MOL0     H63688  -2.163   1.953   3.489  3.5208  1.1772  0.4465
  472MOL0     H63689  -2.193   2.126   3.464 -2.0878  0.7701 -2.7309
  472MOL0     H63690  -2.222   2.068   3.216  1.0038 -2.5567 -2.5033
  472MOL0     H63691  -2.339   1.992   3.320 -1.2152  1.0966 -2.1821
  472MOL0     H63692  -2.205   1.839   3.135  0.2071  1.6832  0.3957
  472MOL0     H63693  -2.090   1.827   3.264  1.0992 -1.8154 -3.8809
  472MOL0     H63694  -2.388   1.736   3.274  0.1587 -3.7396  0.2326
  472MOL0     H63695  -2.289   1.751   3.419 -0.0649  1.3913 -0.4418
  472MOL0     H63696  -2.219   1.575   3.172  0.8804 -0.6460  0.8803
  472MOL0     H63697  -2.146   1.577   3.334 -1.6378 -1.8153  2.6778
  472MOL0     H63698  -2.314   1.488   3.437 -1.0357  2.6822  1.1209
  472MOL0     H63699  -2.298   1.382   3.302  1.9310  1.4520  0.2419
  472MOL0     H63700  -2.502   1.501   3.192  2.2046 -0.5257 -0.8687
  472MOL0     H63701  -2.510   1.573   3.357  4.8250  4.4038 -2.5689
  472MOL0     H63702  -1.752   2.046   3.365 -2.2470 -0.1287  1.5123
  472MOL0     H63703  -1.543   2.150   3.351 -0.5788 -1.6219 -4.1217
  472MOL0     H63704  -1.293   2.377   3.435 -0.3996  1.9899  0.4944
  472MOL0     H63705  -1.065   2.387   3.483 -1.7281  0.4195 -0.0841
  472MOL0     H63706   0.968   2.559   2.424  2.2129 -2.0223 -0.3576
  472MOL0     H63707   1.163   2.676   2.519 -0.4627  2.4065  0.5267
  472MOL0     H63708   1.305   2.803   2.951  1.3985 -1.7801  1.4889
  472MOL0     H63709   1.471   2.945   3.083 -1.3555 -0.5222  0.1426
  472MOL0     H63710   1.899   2.976   2.949  0.6229 -0.8013  1.7793
  472MOL0     H63711   1.764   3.095   2.950 -0.3588 -0.8631 -1.3464
  472MOL0     H63712   1.979   3.033   3.167  0.5953  0.8362  1.7559
  472MOL0     H63713   1.836   3.133   3.193  2.4426 -1.2746  3.1493
  472MOL0     H63714   2.000   3.279   3.139  1.1057 -1.1879 -0.0369
  472MOL0     H63715   1.894   3.271   3.002  1.3949  1.3959  0.7148
  472MOL0     H63716   2.076   3.126   2.879  1.3467 -0.0982  0.0662
  472MOL0     H63717   2.161   3.100   3.029  2.2462 -0.9753 -2.1224
  472MOL0     H63718   2.313   3.471   2.906  1.3233 -0.1829  2.3778
  472MOL0     H63719   1.784   2.815   2.828 -0.3284  2.2345 -0.5477
  472MOL0     H63720   1.647   2.664   2.710  2.2455  2.0209  0.1411
  473MOL0     O63721  10.970   4.389   5.278 -0.2403 -0.5474  0.4548
  473MOL0     C63722  10.992   4.494   5.339  0.1709  0.3726 -0.2520
  473MOL0     O63723  10.901   4.587   5.365  0.1124 -0.0781  0.0148
  473MOL0     C63724  10.768   4.577   5.337 -0.0089 -0.0788 -1.0684
  473MOL0     C63725  10.677   4.484   5.387 -0.1221  0.6975  0.1267
  473MOL0     C63726  10.538   4.498   5.371 -0.7287 -1.2523  0.2949
  473MOL0     C63727  10.495   4.603   5.286  0.6379  0.2025  0.1020
  473MOL0     O63728  10.366   4.611   5.235 -0.0448 -0.3094  0.3354
  473MOL0     C63729  10.263   4.561   5.316  0.5852  0.3967  0.1036
  473MOL0     C63730  10.132   4.547   5.241 -0.5766  0.1576  0.2853
  473MOL0     C63731  10.033   4.500   5.348  0.1741  1.1125 -0.1460
  473MOL0     C63732   9.899   4.460   5.279 -0.2036  0.0956 -0.1343
  473MOL0     C63733   9.908   4.323   5.205  0.6711 -0.2010  0.0269
  473MOL0     C63734   9.794   4.300   5.108  0.0360 -0.4312  0.6497
  473MOL0     C63735   9.661   4.317   5.184 -0.0645  0.9546  0.4787
  473MOL0     C63736   9.634   4.218   5.301  0.7110 -0.4150 -0.1749
  473MOL0     N63737   9.490   4.173   5.308 -0.1400 -0.2747 -0.5718
  473MOL0     C63738   9.380   4.238   5.356 -0.0507  1.1666  0.0645
  473MOL0     C63739   9.277   4.147   5.351 -0.3707 -1.0171  0.5315
  473MOL0     C63740   9.132   4.156   5.394  0.5128  0.3638  0.2758
  473MOL0     C63741   9.026   4.196   5.288  0.1626 -0.4750 -0.1760
  473MOL0     C63742   9.054   4.331   5.225 -1.0115  0.0685 -0.1498
  473MOL0     C63743   8.921   4.401   5.190 -0.2892  0.4350  0.1644
  473MOL0     O63744   8.853   4.453   5.310  0.4082 -0.1094 -0.3379
  473MOL0     C63745   8.722   4.496   5.314 -0.6333 -0.3526  0.1736
  473MOL0     C63746   8.667   4.522   5.432  0.3613 -0.3759  0.5399
  473MOL0     C63747   8.540   4.585   5.445 -0.2373 -0.1003  0.5241
  473MOL0     C63748   8.507   4.635   5.581 -0.0296 -0.3618  0.2772
  473MOL0     C63749   8.466   4.611   5.330  0.0758  0.0828 -0.2027
  473MOL0     C63750   8.334   4.688   5.334 -0.1704  0.1416  0.2522
  473MOL0     O63751   8.221   4.616   5.343 -0.0827 -0.6835 -0.4702
  473MOL0     C63752   8.104   4.688   5.335 -0.1793  0.4035  0.1077
  473MOL0     C63753   8.064   4.717   5.198 -0.4256 -0.6415 -0.5313
  473MOL0     C63754   7.955   4.804   5.178  0.5717  0.0691 -0.1148
  473MOL0     C63755   7.883   4.864   5.284  0.5524 -0.4321  0.6347
  473MOL0     O63756   7.777   4.948   5.261 -0.1847  0.5975  0.2011
  473MOL0     C63757   7.644   4.890   5.287  0.3248 -0.0938 -1.2206
  473MOL0     C63758   7.524   4.975   5.246  1.2050 -0.4504 -0.3103
  473MOL0     C63759   7.524   5.118   5.305 -0.2918  0.0890  0.0211
  473MOL0     C63760   7.399   5.197   5.258  0.1744 -0.4360 -0.8829
  473MOL0     C63761   7.394   5.332   5.330 -0.1699  0.5324 -0.2560
  473MOL0     C63762   7.278   5.426   5.280  0.0949 -0.3782 -1.2050
  473MOL0     C63763   7.136   5.356   5.279  0.4290 -0.1116 -0.2086
  473MOL0     C63764   7.018   5.452   5.248  0.0061 -0.1194  0.0326
  473MOL0    Cl63765   6.859   5.375   5.213 -0.5213  0.0301 -0.1249
  473MOL0     C63766   7.919   4.824   5.411 -0.8139  0.1674 -0.2222
  473MOL0     C63767   8.024   4.744   5.446  0.0284  0.2855  0.1826
  473MOL0     O63768   8.339   4.816   5.335  1.3205  0.5099 -0.3024
  473MOL0     C63769   8.514   4.562   5.213  0.1882  0.2918  0.6712
  473MOL0     C63770   8.648   4.510   5.201  0.4229 -0.0011 -1.0012
  473MOL0     N63771   9.324   4.040   5.288  0.0927 -0.1537  0.0281
  473MOL0     N63772   9.449   4.048   5.267 -0.1986 -0.5823 -0.3372
  473MOL0     C63773  10.575   4.688   5.220 -0.6926  0.6991 -0.2275
  473MOL0     C63774  10.715   4.675   5.249 -0.3568  0.4651 -0.3403
  473MOL0     C63775  11.127   4.530   5.377 -0.6581 -0.4539 -0.6335
  473MOL0     C63776  11.235   4.479   5.311 -0.9360 -0.4839  1.0132
  473MOL0     C63777  11.367   4.508   5.356  0.4356 -1.7385  0.4708
  473MOL0     C63778  11.395   4.581   5.481 -0.7470  0.2036 -0.4960
  473MOL0     O63779  11.516   4.597   5.542  0.3453  0.0798 -0.7701
  473MOL0     C63780  11.612   4.497   5.530  0.0227 -0.0855  0.0069
  473MOL0     C63781  11.688   4.461   5.656 -0.6526 -0.4917  0.5753
  473MOL0     C63782  11.795   4.356   5.619 -0.2622  0.8019 -0.3406
  473MOL0     C63783  11.863   4.289   5.738  0.1663  0.4380  0.5305
  473MOL0     C63784  11.996   4.241   5.725  0.6278 -0.0411  0.6909
  473MOL0     C63785  12.113   4.217   5.704  0.1324 -0.2359 -0.5412
  473MOL0     C63786  11.285   4.642   5.535 -0.3588  0.3665 -0.4555
  473MOL0     C63787  11.151   4.614   5.485 -0.4629  0.6729 -0.0600
  473MOL0     H63788  10.713   4.399   5.444 -2.1649  0.1924  0.7443
  473MOL0     H63789  10.469   4.426   5.414 -0.5250 -0.9861  1.0925
  473MOL0     H63790  10.276   4.462   5.361  1.8686  1.1268  1.4218
  473MOL0     H63791  10.238   4.630   5.397 -1.8960 -0.9992  0.6415
  473MOL0     H63792  10.099   4.644   5.202  0.1919 -0.3283 -1.7097
  473MOL0     H63793  10.140   4.475   5.159  0.4908 -0.0127  0.5262
  473MOL0     H63794  10.081   4.414   5.395  0.5514  0.4810 -1.6259
  473MOL0     H63795  10.020   4.582   5.420 -0.5429 -1.3565  2.7621
  473MOL0     H63796   9.821   4.462   5.357  0.2320  1.4010  0.2941
  473MOL0     H63797   9.879   4.532   5.199  2.3147  0.1648 -0.7576
  473MOL0     H63798  10.001   4.317   5.146  0.9292  2.8661 -0.0664
  473MOL0     H63799   9.899   4.244   5.280 -4.1032 -1.0857 -1.1754
  473MOL0     H63800   9.815   4.368   5.026  3.7611 -1.0766  0.9212
  473MOL0     H63801   9.799   4.201   5.062 -0.1818 -0.3803  0.5118
  473MOL0     H63802   9.636   4.418   5.220 -0.5537  1.2625 -0.6854
  473MOL0     H63803   9.589   4.285   5.109  0.5143  0.2749  0.2014
  473MOL0     H63804   9.668   4.258   5.397 -0.6244 -0.4841  0.3462
  473MOL0     H63805   9.691   4.126   5.286 -0.3944 -0.7103 -3.3519
  473MOL0     H63806   9.377   4.336   5.404 -2.6479  2.4937 -2.5003
  473MOL0     H63807   9.103   4.060   5.438  0.9772  0.7581  1.4768
  473MOL0     H63808   9.131   4.225   5.479  0.2420  1.3219 -0.4807
  473MOL0     H63809   8.933   4.207   5.345 -0.9550  2.3009 -2.3052
  473MOL0     H63810   9.017   4.125   5.205 -1.8989  1.3678 -1.6800
  473MOL0     H63811   9.115   4.303   5.139 -2.7340 -1.7738 -0.8295
  473MOL0     H63812   9.113   4.396   5.291  2.2251  0.2895 -2.9522
  473MOL0     H63813   8.863   4.331   5.129 -0.0820 -0.3376  0.8320
  473MOL0     H63814   8.953   4.482   5.123  3.0838 -1.1507 -0.3803
  473MOL0     H63815   8.726   4.498   5.520  0.9569  1.7656  0.7641
  473MOL0     H63816   8.532   4.549   5.644  0.2307 -0.1345  0.4829
  473MOL0     H63817   8.560   4.725   5.614 -0.6605 -0.3801  1.3913
  473MOL0     H63818   8.403   4.667   5.593  0.7088  1.5928  2.1036
  473MOL0     H63819   8.121   4.678   5.114 -2.3082 -0.6158 -1.9101
  473MOL0     H63820   7.927   4.841   5.080 -1.7329  3.7990  1.6946
  473MOL0     H63821   7.642   4.797   5.230 -0.5353  0.7521 -2.6302
  473MOL0     H63822   7.630   4.869   5.393 -1.2238 -0.4525 -1.4747
  473MOL0     H63823   7.513   4.980   5.137  3.1379  2.1177 -0.4947
  473MOL0     H63824   7.442   4.910   5.277 -0.7700  0.0463 -3.9763
  473MOL0     H63825   7.612   5.169   5.265 -0.2549 -1.6324 -2.3027
  473MOL0     H63826   7.534   5.123   5.414  0.7701  1.4514 -0.1162
  473MOL0     H63827   7.414   5.217   5.151  1.8925  0.5066 -0.5120
  473MOL0     H63828   7.304   5.147   5.274  1.1632 -1.8819  0.8066
  473MOL0     H63829   7.484   5.395   5.324  1.8687 -2.2251 -0.6280
  473MOL0     H63830   7.380   5.321   5.438 -0.9063 -1.5349 -0.5267
  473MOL0     H63831   7.281   5.504   5.356  1.7842 -2.8451  1.5283
  473MOL0     H63832   7.288   5.461   5.177 -2.0379  1.2625 -0.9155
  473MOL0     H63833   7.111   5.301   5.370 -1.4969  0.7508 -0.1746
  473MOL0     H63834   7.126   5.285   5.197 -2.5187  0.1890 -0.2244
  473MOL0     H63835   7.049   5.515   5.164  1.1378 -1.1383 -0.3399
  473MOL0     H63836   7.013   5.515   5.337  0.8353 -0.3245  0.2413
  473MOL0     H63837   7.875   4.883   5.491  0.4368  1.3003 -0.3397
  473MOL0     H63838   8.050   4.718   5.548 -4.1754 -2.0539  0.8763
  473MOL0     H63839   8.447   4.574   5.129  0.7646  1.5695  0.3753
  473MOL0     H63840   8.683   4.491   5.100 -1.3081 -3.8364 -1.0869
  473MOL0     H63841  10.526   4.758   5.154 -0.3213  0.2264 -1.0259
  473MOL0     H63842  10.789   4.735   5.198  0.8459 -1.4058 -0.9030
  473MOL0     H63843  11.230   4.433   5.212  2.7536 -0.2227  0.5646
  473MOL0     H63844  11.453   4.463   5.307  2.3116  1.5873  0.4171
  473MOL0     H63845  11.563   4.404   5.498  2.6684 -1.2129 -1.0235
  473MOL0     H63846  11.677   4.524   5.447  1.6752  0.7896  1.4973
  473MOL0     H63847  11.610   4.418   5.718 -2.4934 -2.0180 -2.5454
  473MOL0     H63848  11.739   4.553   5.686 -0.7850  0.9364 -3.1017
  473MOL0     H63849  11.868   4.409   5.557 -1.3525  0.9970 -1.5170
  473MOL0     H63850  11.740   4.288   5.554 -1.5702  2.0603 -0.6063
  473MOL0     H63851  11.799   4.204   5.765 -0.0597 -0.5726 -2.7820
  473MOL0     H63852  11.864   4.362   5.820  0.7541  0.3873  0.5727
  473MOL0     H63853  12.217   4.197   5.686  0.5077 -3.4182  3.7067
  473MOL0     H63854  11.320   4.696   5.622 -2.0113 -0.4901  0.7856
  473MOL0     H63855  11.063   4.661   5.528 -1.4296 -0.4950 -0.7224
  474MOL0     O63856   7.070  10.742  10.630  0.3203  0.2212 -0.3801
  474MOL0     C63857   7.141  10.795  10.545  1.0177  1.0290 -0.5235
  474MOL0     O63858   7.115  10.817  10.412  0.5072 -0.3851  0.3709
  474MOL0     C63859   6.990  10.785  10.353 -0.3409  0.4256  0.4987
  474MOL0     C63860   6.877  10.705  10.409 -0.2986 -1.2932  0.5876
  474MOL0     C63861   6.755  10.709  10.332 -0.1577 -0.8065 -0.5937
  474MOL0     C63862   6.745  10.776  10.210  0.6089  0.1583 -0.4278
  474MOL0     O63863   6.624  10.772  10.146  0.4485 -0.5124 -0.1401
  474MOL0     C63864   6.590  10.882  10.061  0.8406 -0.2020 -0.5797
  474MOL0     C63865   6.467  10.853   9.987 -0.5804 -1.3744 -0.1596
  474MOL0     C63866   6.423  10.984   9.911 -0.5658 -0.0026 -0.1772
  474MOL0     C63867   6.280  10.946   9.858  0.6846 -0.1113  0.2021
  474MOL0     C63868   6.221  11.059   9.767  0.3568 -0.1677 -0.6679
  474MOL0     C63869   6.074  11.034   9.721  0.1884  0.1893 -0.2613
  474MOL0     C63870   6.051  10.909   9.628 -0.7389 -0.0443 -0.8108
  474MOL0     C63871   6.105  10.945   9.491  0.7699  0.7060  0.5405
  474MOL0     N63872   6.070  10.846   9.386  0.1939  0.1576 -0.4613
  474MOL0     C63873   5.942  10.800   9.362  0.5281  0.6698  0.6241
  474MOL0     C63874   5.956  10.704   9.265  0.4986 -0.2800 -0.6368
  474MOL0     C63875   5.847  10.617   9.215  0.2745 -0.0325  0.0958
  474MOL0     C63876   5.895  10.468   9.196  0.7102 -0.2374 -0.0043
  474MOL0     C63877   5.869  10.389   9.320 -0.1314 -0.6193 -0.2836
  474MOL0     C63878   5.737  10.322   9.337  0.0169  0.9291 -0.0671
  474MOL0     O63879   5.632  10.423   9.334 -0.5248  0.7545  0.5092
  474MOL0     C63880   5.506  10.394   9.300  0.7793  0.1349 -0.1361
  474MOL0     C63881   5.424  10.508   9.296  0.3622  0.0183  0.1556
  474MOL0     C63882   5.288  10.506   9.260  0.0093  1.2127  0.2392
  474MOL0     C63883   5.225  10.637   9.263  2.1697 -0.2866  0.1880
  474MOL0     C63884   5.229  10.379   9.239  0.6569 -0.1425  0.4402
  474MOL0     C63885   5.087  10.363   9.212  0.4016  0.0320 -0.2032
  474MOL0     O63886   5.060  10.251   9.137 -0.3950  0.1817  0.3898
  474MOL0     C63887   4.932  10.214   9.136  0.1680  1.2610  0.5812
  474MOL0     C63888   4.835  10.273   9.047  0.5385 -0.3540  0.0455
  474MOL0     C63889   4.699  10.225   9.040 -0.4322 -0.4936  0.4883
  474MOL0     C63890   4.655  10.140   9.134  0.0363 -0.0516  0.8448
  474MOL0     O63891   4.538  10.089   9.089 -0.3433 -0.8450  0.7948
  474MOL0     C63892   4.447  10.053   9.202  0.6774  0.7721 -0.2250
  474MOL0     C63893   4.315  10.023   9.142 -0.5246  0.8527 -0.6852
  474MOL0     C63894   4.222   9.992   9.257 -0.4030 -0.1617  0.4612
  474MOL0     C63895   4.080   9.946   9.213  0.2414  0.9631 -0.3826
  474MOL0     C63896   3.986   9.885   9.333 -0.1709  0.1791 -0.3023
  474MOL0     C63897   3.859   9.822   9.273 -0.4284  0.2889 -0.3080
  474MOL0     C63898   3.790   9.748   9.387  0.2373  0.0508  0.3167
  474MOL0     C63899   3.745   9.834   9.508 -0.7413 -0.2365 -0.5989
  474MOL0    Cl63900   3.624   9.761   9.613  0.7012 -0.0183  0.3635
  474MOL0     C63901   4.742  10.084   9.227 -1.1528 -0.8552 -0.8105
  474MOL0     C63902   4.876  10.116   9.230  0.5330 -0.1909  0.4457
  474MOL0     O63903   4.997  10.445   9.246 -0.1447 -0.8557  0.5384
  474MOL0     C63904   5.309  10.264   9.230 -0.3923  0.2487 -1.0702
  474MOL0     C63905   5.447  10.274   9.267 -0.2114 -0.9381 -0.4316
  474MOL0     N63906   6.091  10.704   9.223 -0.4265 -0.4706  0.1115
  474MOL0     N63907   6.151  10.790   9.288 -0.6590 -0.6068 -0.4358
  474MOL0     C63908   6.859  10.822  10.151  0.1137 -0.0254 -0.3575
  474MOL0     C63909   6.977  10.837  10.225  0.0413  0.6524 -0.7950
  474MOL0     C63910   7.275  10.818  10.584 -0.6238  0.1453  0.1359
  474MOL0     C63911   7.381  10.809  10.490  1.1200  0.0846 -0.0780
  474MOL0     C63912   7.518  10.823  10.528 -0.0007 -0.6304  0.5474
  474MOL0     C63913   7.556  10.857  10.662  0.8836 -0.1327  0.1575
  474MOL0     O63914   7.689  10.880  10.698  0.2498  0.1214 -0.1645
  474MOL0     C63915   7.795  10.891  10.599  0.8251  0.3041 -0.1601
  474MOL0     C63916   7.845  10.745  10.565 -0.6086  0.1967 -0.0132
  474MOL0     C63917   7.963  10.738  10.467  0.8757 -0.2756  0.0313
  474MOL0     C63918   8.088  10.798  10.537  0.3676  0.1518 -0.3308
  474MOL0     C63919   8.206  10.757  10.476 -0.5391 -1.0599 -0.2211
  474MOL0     C63920   8.322  10.739  10.440  0.1380 -0.0541  0.2833
  474MOL0     C63921   7.449  10.877  10.750  0.0309  0.6565  0.3529
  474MOL0     C63922   7.316  10.852  10.715 -0.2733 -0.8406  0.9845
  474MOL0     H63923   6.890  10.652  10.503 -1.7576 -1.5611  0.6628
  474MOL0     H63924   6.676  10.656  10.384  0.7192 -0.7008  0.9055
  474MOL0     H63925   6.595  10.968  10.128  0.5057  0.5180 -1.4677
  474MOL0     H63926   6.660  10.911   9.982 -0.8331  3.2638 -1.0010
  474MOL0     H63927   6.493  10.780   9.910  4.3819  0.3875 -0.5105
  474MOL0     H63928   6.391  10.814  10.055 -1.8953 -0.0953 -0.8441
  474MOL0     H63929   6.429  11.072   9.976  1.4925 -1.0480  1.1622
  474MOL0     H63930   6.488  11.009   9.827 -2.1743 -1.4294 -1.9278
  474MOL0     H63931   6.290  10.857   9.795  0.5250 -2.3246  3.0936
  474MOL0     H63932   6.217  10.916   9.943 -0.2733 -2.3427 -1.2090
  474MOL0     H63933   6.225  11.153   9.824  0.4932 -0.8582  0.5082
  474MOL0     H63934   6.284  11.064   9.679  1.1672 -1.8798 -0.2089
  474MOL0     H63935   6.004  11.034   9.805 -0.6667 -0.4496 -0.9663
  474MOL0     H63936   6.044  11.122   9.664 -2.0914  1.8820  3.2409
  474MOL0     H63937   6.090  10.821   9.682  1.0626  0.2202 -1.6101
  474MOL0     H63938   5.944  10.885   9.624 -0.9557  0.9894 -1.4292
  474MOL0     H63939   6.211  10.975   9.491  1.3468 -0.9450 -2.2100
  474MOL0     H63940   6.056  11.036   9.455  1.4046  0.3860 -1.2107
  474MOL0     H63941   5.845  10.819   9.407 -2.3123 -3.7483 -2.7701
  474MOL0     H63942   5.763  10.636   9.283  1.8527  0.4178  2.0133
  474MOL0     H63943   5.834  10.665   9.118  0.8064 -1.6462 -0.8008
  474MOL0     H63944   6.000  10.453   9.168  0.9873 -0.4085  1.0777
  474MOL0     H63945   5.832  10.434   9.114  2.0510 -1.0653 -0.7152
  474MOL0     H63946   5.902  10.443   9.410  1.5331  1.4589 -2.0076
  474MOL0     H63947   5.933  10.300   9.318 -0.1293 -0.6125 -0.5812
  474MOL0     H63948   5.736  10.263   9.429  2.4196  0.9135  0.0052
  474MOL0     H63949   5.727  10.258   9.249  1.1486 -1.3474  1.3575
  474MOL0     H63950   5.475  10.601   9.320 -0.0953 -0.0373  1.4552
  474MOL0     H63951   5.289  10.724   9.279 -0.8493  2.0386  0.5346
  474MOL0     H63952   5.192  10.656   9.160  2.0833  0.1984  0.3032
  474MOL0     H63953   5.138  10.660   9.326 -0.6503 -0.3129 -3.3434
  474MOL0     H63954   4.872  10.344   8.975 -0.8532  0.1795 -0.1633
  474MOL0     H63955   4.630  10.268   8.968 -0.4000  0.4738  1.0171
  474MOL0     H63956   4.480   9.962   9.252  0.6727  2.1984  2.5422
  474MOL0     H63957   4.428  10.132   9.275 -1.9757  3.4061 -3.4279
  474MOL0     H63958   4.278  10.111   9.088 -0.0066  1.6905  0.2924
  474MOL0     H63959   4.324   9.942   9.070 -2.1204 -0.3838  0.4018
  474MOL0     H63960   4.211  10.090   9.305  3.1817  2.5116 -3.4705
  474MOL0     H63961   4.253   9.916   9.330  1.0099  1.4706  1.6465
  474MOL0     H63962   4.034  10.034   9.169 -1.4192  0.0884 -0.4754
  474MOL0     H63963   4.093   9.871   9.134  0.5442  0.6043  0.0012
  474MOL0     H63964   3.971   9.960   9.411 -1.9903  2.4163 -2.6203
  474MOL0     H63965   4.038   9.805   9.386  0.6789 -0.2503 -1.7243
  474MOL0     H63966   3.793   9.897   9.229 -1.3097 -1.1861 -1.6283
  474MOL0     H63967   3.886   9.745   9.200  1.3483  0.5436  0.0322
  474MOL0     H63968   3.857   9.671   9.427  1.0264  1.4426  1.7730
  474MOL0     H63969   3.697   9.709   9.345  1.0693 -1.9876  0.2714
  474MOL0     H63970   3.702   9.931   9.481 -1.8138 -0.2955  0.7762
  474MOL0     H63971   3.826   9.850   9.580 -4.4957  1.6185  3.7028
  474MOL0     H63972   4.716  10.004   9.296  1.2522 -0.4223  0.7218
  474MOL0     H63973   4.942  10.064   9.298 -0.7280  0.1583  2.0067
  474MOL0     H63974   5.278  10.161   9.212 -2.2252  0.6130 -0.2406
  474MOL0     H63975   5.502  10.181   9.272 -1.3832 -1.8297 -2.6731
  474MOL0     H63976   6.863  10.873  10.055 -0.3566 -0.4843 -0.6227
  474MOL0     H63977   7.072  10.879  10.192  1.6272 -1.6758  0.4494
  474MOL0     H63978   7.355  10.773  10.391  1.2314  0.3378 -0.2005
  474MOL0     H63979   7.591  10.812  10.448  1.6204  1.2248  1.6738
  474MOL0     H63980   7.766  10.953  10.514  1.5846 -0.9718 -1.3871
  474MOL0     H63981   7.883  10.939  10.643  0.7158 -2.5947  3.7544
  474MOL0     H63982   7.764  10.691  10.516  1.1318 -1.1766 -1.4951
  474MOL0     H63983   7.865  10.700  10.663 -0.1562  1.1842  0.3689
  474MOL0     H63984   7.927  10.778  10.372 -3.1587 -1.0287  1.0227
  474MOL0     H63985   7.984  10.631  10.455  0.7543 -0.2070 -0.8253
  474MOL0     H63986   8.084  10.777  10.644 -4.3874  4.0571  0.6361
  474MOL0     H63987   8.085  10.908  10.540 -1.9261  0.1131  0.7534
  474MOL0     H63988   8.423  10.729  10.405  0.0311  2.0241 -0.7581
  474MOL0     H63989   7.462  10.910  10.853 -2.3956 -1.6578  1.5447
  474MOL0     H63990   7.247  10.876  10.795 -2.6675  1.5178 -1.5391
  475MOL0     O63991   0.741   5.683   2.569 -0.8822  0.0515 -0.1046
  475MOL0     C63992   0.711   5.791   2.513  0.3882  0.1069 -0.1085
  475MOL0     O63993   0.587   5.860   2.523 -0.4657 -0.0783 -0.3858
  475MOL0     C63994   0.472   5.816   2.586  0.2724  0.6594  0.9319
  475MOL0     C63995   0.460   5.714   2.682 -0.3670  0.3386  0.1908
  475MOL0     C63996   0.338   5.670   2.724  0.1871  0.0683 -0.0751
  475MOL0     C63997   0.220   5.729   2.673 -0.2763  0.4386 -0.4665
  475MOL0     O63998   0.101   5.694   2.725 -0.2241  0.0325  0.2532
  475MOL0     C63999  -0.020   5.711   2.644  0.5684 -0.7943 -0.3874
  475MOL0     C64000  -0.134   5.615   2.689  1.0041 -0.1926 -0.7799
  475MOL0     C64001  -0.098   5.467   2.702  0.0514 -0.1313 -0.1866
  475MOL0     C64002  -0.215   5.383   2.762  0.3003  0.9516  0.6596
  475MOL0     C64003  -0.176   5.236   2.767 -0.3377 -0.0837 -0.3970
  475MOL0     C64004  -0.287   5.137   2.813  0.7586  0.0531  0.8495
  475MOL0     C64005  -0.374   5.190   2.935 -1.0932  0.1578  0.0066
  475MOL0     C64006  -0.500   5.117   2.949  0.7632  0.2134 -0.3351
  475MOL0     N64007  -0.598   5.187   3.040 -0.1667  0.0995 -0.2359
  475MOL0     C64008  -0.584   5.195   3.173  0.8679  0.1044 -0.3362
  475MOL0     C64009  -0.665   5.288   3.224  1.1250  0.5293 -0.4808
  475MOL0     C64010  -0.688   5.314   3.371  0.4617 -0.6030 -0.1828
  475MOL0     C64011  -0.739   5.201   3.461  0.0934 -0.3211 -0.2334
  475MOL0     C64012  -0.869   5.124   3.420  0.3648 -0.3176  0.0071
  475MOL0     C64013  -0.988   5.216   3.450 -0.3448  0.8175  0.3168
  475MOL0     O64014  -1.112   5.142   3.423  0.3242 -0.1604 -0.0223
  475MOL0     C64015  -1.149   5.127   3.295  0.5253 -0.2026 -0.3049
  475MOL0     C64016  -1.079   5.193   3.190  0.4583 -0.1515  0.8063
  475MOL0     C64017  -1.120   5.172   3.056  0.7135  0.8264  0.0200
  475MOL0     C64018  -1.048   5.245   2.951 -0.3135 -0.7535  0.0880
  475MOL0     C64019  -1.241   5.106   3.020  0.0381  0.6210  0.7900
  475MOL0     C64020  -1.304   5.095   2.880  0.5780 -0.0648 -0.1805
  475MOL0     O64021  -1.441   5.073   2.888  0.9450  0.4414  0.8318
  475MOL0     C64022  -1.512   5.103   2.770  0.3847  0.8513 -1.0442
  475MOL0     C64023  -1.561   5.228   2.754  0.1232 -0.1913 -0.3830
  475MOL0     C64024  -1.625   5.258   2.638  0.4531  0.4429 -0.7216
  475MOL0     C64025  -1.651   5.165   2.537 -0.1951 -0.0127  0.4039
  475MOL0     O64026  -1.735   5.201   2.438  0.5943 -0.2012  0.6710
  475MOL0     C64027  -1.795   5.330   2.424  0.0700 -0.3459 -0.6426
  475MOL0     C64028  -1.922   5.358   2.503 -0.1726  0.3162  0.0657
  475MOL0     C64029  -2.018   5.243   2.485 -0.7791  1.1637 -0.7136
  475MOL0     C64030  -2.160   5.271   2.539  0.1462 -1.1187  0.9900
  475MOL0     C64031  -2.230   5.144   2.569  0.4326 -1.5857  0.2567
  475MOL0     C64032  -2.368   5.186   2.630  0.2083 -0.0388  0.1790
  475MOL0     C64033  -2.483   5.199   2.540 -0.6182 -0.2897  0.0634
  475MOL0     C64034  -2.512   5.085   2.448  0.8722  0.3219  0.3999
  475MOL0    Cl64035  -2.541   4.934   2.531  0.0911  0.7236 -0.1203
  475MOL0     C64036  -1.618   5.035   2.550 -0.0327 -0.2916 -0.2693
  475MOL0     C64037  -1.538   5.003   2.667  1.0021  0.4219 -0.5138
  475MOL0     O64038  -1.233   5.104   2.779 -0.6184  0.1958 -0.0001
  475MOL0     C64039  -1.293   5.034   3.126  1.4799  0.3212  1.0712
  475MOL0     C64040  -1.251   5.043   3.261  1.1433  1.5135 -0.0100
  475MOL0     N64041  -0.722   5.342   3.113 -0.5112 -0.0892 -0.5727
  475MOL0     N64042  -0.683   5.281   3.003  0.2236 -0.1575 -0.0374
  475MOL0     C64043   0.228   5.842   2.583 -0.1281  1.1825  0.4609
  475MOL0     C64044   0.356   5.876   2.538  0.0965  0.4065  0.6415
  475MOL0     C64045   0.804   5.840   2.402 -0.6105 -0.6996  0.1476
  475MOL0     C64046   0.760   5.944   2.308 -0.1468  0.4140  0.2574
  475MOL0     C64047   0.848   5.987   2.209 -0.4905  0.0135  0.7877
  475MOL0     C64048   0.987   5.951   2.213 -0.3473 -0.0073  0.1180
  475MOL0     O64049   1.089   6.003   2.136 -0.5907 -0.0259  0.1956
  475MOL0     C64050   1.046   6.053   2.013  0.4860  0.1733  0.8454
  475MOL0     C64051   1.171   6.046   1.914  0.4168 -0.3103  0.0124
  475MOL0     C64052   1.299   6.108   1.967 -0.5667  0.9562  0.5216
  475MOL0     C64053   1.394   6.016   2.038  0.0841 -0.8088 -0.8231
  475MOL0     C64054   1.454   5.913   1.948  0.2427  0.1919 -0.1675
  475MOL0     C64055   1.507   5.844   1.862 -0.3981 -0.2931  0.1646
  475MOL0     C64056   1.022   5.858   2.311  0.0391  0.4284  0.6778
  475MOL0     C64057   0.933   5.799   2.400  0.7688  0.7522  1.0782
  475MOL0     H64058   0.552   5.662   2.709 -0.3640 -0.3296 -1.0583
  475MOL0     H64059   0.346   5.597   2.804 -2.2501 -1.4368 -1.0950
  475MOL0     H64060  -0.065   5.811   2.645  0.6352 -0.7633 -0.6128
  475MOL0     H64061   0.009   5.684   2.543  2.2474  0.7349 -0.3616
  475MOL0     H64062  -0.177   5.637   2.787 -0.7525  1.6557 -1.8881
  475MOL0     H64063  -0.221   5.624   2.623 -1.0911 -0.2128  1.8060
  475MOL0     H64064  -0.080   5.426   2.602 -2.1766 -0.7504 -0.3910
  475MOL0     H64065  -0.006   5.457   2.760  0.0637  0.4519 -0.1009
  475MOL0     H64066  -0.235   5.425   2.861 -3.6385 -1.3074  0.9995
  475MOL0     H64067  -0.307   5.390   2.705 -0.3949 -3.9195  0.7024
  475MOL0     H64068  -0.152   5.217   2.662 -1.4503 -1.9801 -0.3458
  475MOL0     H64069  -0.085   5.220   2.825 -0.7702 -0.2402  0.2523
  475MOL0     H64070  -0.355   5.139   2.727 -1.0111 -2.1318  2.0835
  475MOL0     H64071  -0.247   5.036   2.819 -3.0216 -1.9074 -2.1083
  475MOL0     H64072  -0.317   5.163   3.024 -1.5035 -1.0562 -0.0804
  475MOL0     H64073  -0.393   5.298   2.938  4.1637  1.3149  1.6980
  475MOL0     H64074  -0.479   5.017   2.989 -4.8855 -1.9051 -1.8080
  475MOL0     H64075  -0.535   5.097   2.848  0.0349  1.0873 -0.2664
  475MOL0     H64076  -0.511   5.151   3.241  2.3914  3.3352  0.2997
  475MOL0     H64077  -0.605   5.370   3.414  0.7028 -0.8558 -0.3161
  475MOL0     H64078  -0.774   5.382   3.378  0.7575 -0.4378  3.8836
  475MOL0     H64079  -0.737   5.241   3.563 -0.5337  0.2804 -0.4533
  475MOL0     H64080  -0.669   5.117   3.472 -3.2452 -3.4183 -0.5537
  475MOL0     H64081  -0.887   5.036   3.483 -0.5474 -0.8257 -0.9186
  475MOL0     H64082  -0.864   5.117   3.311  2.2110  2.4278 -0.1830
  475MOL0     H64083  -0.974   5.311   3.397  1.0600 -0.9996 -2.8591
  475MOL0     H64084  -0.994   5.239   3.557 -1.2006 -0.7250  0.6334
  475MOL0     H64085  -0.992   5.257   3.198  1.8590 -1.3305 -2.8609
  475MOL0     H64086  -0.993   5.194   2.872  3.3930  3.2965 -0.3433
  475MOL0     H64087  -1.115   5.308   2.893 -0.9200  1.3882  2.8713
  475MOL0     H64088  -0.964   5.296   2.998 -0.6993  0.5098 -0.5410
  475MOL0     H64089  -1.545   5.308   2.825 -0.2415  0.7418 -1.3208
  475MOL0     H64090  -1.654   5.362   2.630 -1.0747 -0.0620 -2.2964
  475MOL0     H64091  -1.727   5.407   2.462  0.9689 -0.6665 -1.5468
  475MOL0     H64092  -1.805   5.347   2.316  3.1284 -0.2612 -1.0198
  475MOL0     H64093  -1.890   5.362   2.608 -1.1591  1.4539  0.3451
  475MOL0     H64094  -1.955   5.458   2.474 -2.3737 -0.4880 -0.3799
  475MOL0     H64095  -1.978   5.162   2.546 -0.0770  3.0059  1.4164
  475MOL0     H64096  -2.015   5.216   2.379 -0.8398  4.2629 -1.6201
  475MOL0     H64097  -2.160   5.326   2.633 -0.2812  1.7222 -0.5815
  475MOL0     H64098  -2.218   5.329   2.467  3.4846 -0.7698 -1.6731
  475MOL0     H64099  -2.178   5.090   2.649  0.0047 -1.2998  0.7336
  475MOL0     H64100  -2.238   5.084   2.478 -0.1175 -2.4792  0.8756
  475MOL0     H64101  -2.396   5.106   2.699  0.7272 -1.6981 -1.4507
  475MOL0     H64102  -2.363   5.282   2.683 -2.3366  0.1161  0.2340
  475MOL0     H64103  -2.471   5.287   2.476 -1.8517 -0.8740 -1.0075
  475MOL0     H64104  -2.571   5.224   2.601  0.3842  3.1486  0.3182
  475MOL0     H64105  -2.431   5.075   2.375  0.5795 -0.7776  0.2062
  475MOL0     H64106  -2.602   5.101   2.389  2.2032  1.6698 -1.3697
  475MOL0     H64107  -1.656   4.978   2.465 -3.4684  2.8312 -1.0681
  475MOL0     H64108  -1.506   4.900   2.683 -0.6439 -0.1958 -0.9863
  475MOL0     H64109  -1.383   4.980   3.097  1.7261  0.2681  0.3686
  475MOL0     H64110  -1.308   4.984   3.332  0.8568  0.3784 -1.1505
  475MOL0     H64111   0.142   5.903   2.560 -0.5941  0.9061  1.4265
  475MOL0     H64112   0.356   5.939   2.450 -0.6412 -1.5361 -0.8149
  475MOL0     H64113   0.666   5.998   2.313  0.0579  0.7109  1.2065
  475MOL0     H64114   0.803   6.058   2.141 -2.8895 -0.1047  2.1329
  475MOL0     H64115   0.971   5.985   1.972  1.6498 -1.8390  1.8646
  475MOL0     H64116   0.997   6.150   2.028 -0.1581 -0.1353  0.7549
  475MOL0     H64117   1.142   6.105   1.826 -2.0792 -1.5393 -0.0637
  475MOL0     H64118   1.179   5.939   1.894  1.9645 -0.1379 -0.4157
  475MOL0     H64119   1.268   6.193   2.029 -0.7937 -0.7461  2.8877
  475MOL0     H64120   1.357   6.147   1.883 -2.1170 -2.3682 -2.3420
  475MOL0     H64121   1.338   5.970   2.120 -0.5771  1.4053  0.0422
  475MOL0     H64122   1.472   6.077   2.083 -0.7208 -1.3935  1.5387
  475MOL0     H64123   1.532   5.778   1.781 -1.3089 -0.9906  0.4378
  475MOL0     H64124   1.130   5.844   2.308  0.3973  2.5582  1.5766
  475MOL0     H64125   0.971   5.735   2.479  0.5177  0.3718  0.8948
  476MOL0     O64126   5.541   4.671   9.084 -0.2591 -0.9917 -0.9093
  476MOL0     C64127   5.528   4.551   9.089  0.8740  0.0430 -0.1893
  476MOL0     O64128   5.407   4.489   9.120 -0.1971 -0.3345 -0.1742
  476MOL0     C64129   5.285   4.563   9.119  0.4337  0.4588  0.4914
  476MOL0     C64130   5.192   4.550   9.221 -0.3719  0.7437  0.4926
  476MOL0     C64131   5.072   4.612   9.208 -0.2212  0.4990 -0.9263
  476MOL0     C64132   5.039   4.686   9.101  0.0405  0.5684  0.4278
  476MOL0     O64133   4.911   4.726   9.105  0.4582  0.1354  0.2280
  476MOL0     C64134   4.885   4.843   9.030 -0.2033 -0.3089 -0.4709
  476MOL0     C64135   4.737   4.876   9.066 -0.3119  0.6419 -0.4054
  476MOL0     C64136   4.654   4.923   8.944  0.7733 -0.0743  0.1631
  476MOL0     C64137   4.506   4.898   8.971  0.3109 -0.5807 -0.3471
  476MOL0     C64138   4.451   5.008   9.055 -0.0441  0.4012  0.6570
  476MOL0     C64139   4.308   4.949   9.092  0.1757 -0.3652 -0.4615
  476MOL0     C64140   4.222   5.044   9.181  0.2595 -0.1469  0.0807
  476MOL0     C64141   4.090   4.966   9.198 -0.2480 -0.1127  0.4297
  476MOL0     N64142   4.003   5.059   9.260  0.4703  0.3457 -0.5103
  476MOL0     C64143   3.902   5.133   9.194 -0.2751  0.0854 -0.0776
  476MOL0     C64144   3.825   5.185   9.290  0.4505 -0.6923  0.3919
  476MOL0     C64145   3.701   5.276   9.267 -0.9736 -0.6274 -0.0051
  476MOL0     C64146   3.564   5.213   9.293 -0.3734  0.1724  0.6811
  476MOL0     C64147   3.511   5.139   9.166 -1.0119 -0.0876  0.4710
  476MOL0     C64148   3.387   5.064   9.197 -0.7357 -0.7190 -0.5471
  476MOL0     O64149   3.280   5.148   9.252 -0.2121 -0.1066  0.6371
  476MOL0     C64150   3.181   5.080   9.334  0.0685 -0.0982  1.0787
  476MOL0     C64151   3.154   4.945   9.312  0.4617  0.0452 -1.2354
  476MOL0     C64152   3.065   4.873   9.397 -1.1868 -0.0138 -0.0834
  476MOL0     C64153   3.068   4.725   9.389 -0.1877  0.9658 -0.4953
  476MOL0     C64154   2.996   4.939   9.502  0.0909 -0.2147  0.3472
  476MOL0     C64155   2.897   4.870   9.601 -0.4928  1.1027 -0.6295
  476MOL0     O64156   2.872   4.939   9.720 -0.2609  0.0729  0.0614
  476MOL0     C64157   2.804   4.877   9.825 -0.5854  0.0330  0.1182
  476MOL0     C64158   2.870   4.878   9.946  0.2453  0.2830 -0.6963
  476MOL0     C64159   2.799   4.828  10.060 -0.2140  0.6977  0.7854
  476MOL0     C64160   2.662   4.793  10.052 -0.1705  0.8900  0.3705
  476MOL0     O64161   2.591   4.761  10.165 -0.3062 -0.3625 -0.2694
  476MOL0     C64162   2.590   4.868  10.263  0.7262 -0.5642 -0.1265
  476MOL0     C64163   2.448   4.875  10.316  1.1254  0.2581 -0.8597
  476MOL0     C64164   2.339   4.940  10.236  0.2089 -0.6497  1.0693
  476MOL0     C64165   2.204   4.964  10.311 -0.2870  0.8273 -0.6058
  476MOL0     C64166   2.094   5.043  10.239 -0.5028  0.6833  0.0568
  476MOL0     C64167   1.981   5.065  10.341  0.0578 -0.4207 -0.1050
  476MOL0     C64168   1.855   5.114  10.267  0.0180  0.9517 -0.2258
  476MOL0     C64169   1.869   5.259  10.220 -0.1689 -0.1771  0.1298
  476MOL0    Cl64170   1.945   5.259  10.053  0.2273  0.0127  0.2014
  476MOL0     C64171   2.605   4.801   9.931  0.2669  0.3142  0.0169
  476MOL0     C64172   2.677   4.837   9.817  0.4729  0.2858 -0.8365
  476MOL0     O64173   2.859   4.755   9.585  0.3294 -0.4470 -0.0615
  476MOL0     C64174   3.019   5.077   9.507 -0.3645 -0.0340 -0.3247
  476MOL0     C64175   3.101   5.148   9.429 -0.2962 -0.0563  0.1569
  476MOL0     N64176   3.886   5.145   9.415  0.2892 -0.2384  0.4594
  476MOL0     N64177   3.983   5.061   9.393 -0.6882 -0.2104  0.3503
  476MOL0     C64178   5.124   4.701   8.992 -0.5523 -0.1151  0.9418
  476MOL0     C64179   5.250   4.639   9.004 -0.2216  0.3135 -0.0767
  476MOL0     C64180   5.648   4.467   9.064 -0.3588  0.3843  0.1916
  476MOL0     C64181   5.637   4.326   9.074  0.0506  0.4446  0.4012
  476MOL0     C64182   5.738   4.246   9.029 -0.5241 -0.6450  0.0420
  476MOL0     C64183   5.862   4.299   8.988 -0.6032  0.1003  0.4986
  476MOL0     O64184   5.970   4.216   8.964  0.7172  0.4754  0.3210
  476MOL0     C64185   6.033   4.149   9.078  0.6114 -0.3148 -0.3356
  476MOL0     C64186   6.142   4.233   9.150  0.2758  0.1023 -0.1476
  476MOL0     C64187   6.250   4.268   9.046 -0.1135 -0.4214  0.7641
  476MOL0     C64188   6.336   4.148   9.029 -0.8923 -0.3655 -0.2428
  476MOL0     C64189   6.464   4.160   9.100  0.0863  0.5983  0.1483
  476MOL0     C64190   6.574   4.188   9.136  0.1574  0.5914  0.8534
  476MOL0     C64191   5.881   4.438   8.983  0.0102  0.5187  0.2296
  476MOL0     C64192   5.775   4.519   9.029 -0.9065  0.7713  0.3403
  476MOL0     H64193   5.222   4.488   9.305  0.8629 -0.0007 -0.4498
  476MOL0     H64194   5.004   4.587   9.289  2.2935  1.1974  1.5703
  476MOL0     H64195   4.951   4.922   9.066  0.3142 -1.2888  0.8245
  476MOL0     H64196   4.902   4.841   8.922 -0.8277  0.7534 -0.6011
  476MOL0     H64197   4.689   4.784   9.102 -0.3431  0.8959  0.2092
  476MOL0     H64198   4.734   4.954   9.142 -1.9231  0.6961 -0.5027
  476MOL0     H64199   4.669   5.029   8.922 -0.3537 -0.0607 -0.6355
  476MOL0     H64200   4.681   4.876   8.849 -0.7383  1.7181 -1.2403
  476MOL0     H64201   4.454   4.901   8.875 -0.6048  0.9626  0.1460
  476MOL0     H64202   4.487   4.800   9.015 -0.0324  0.1624  1.2701
  476MOL0     H64203   4.499   5.011   9.154 -2.0867  1.1216  1.6745
  476MOL0     H64204   4.464   5.108   9.012  1.3719 -0.6302 -1.4754
  476MOL0     H64205   4.241   4.939   9.007 -1.0575  0.5104  0.3824
  476MOL0     H64206   4.312   4.853   9.145 -2.4272 -0.5617 -0.4912
  476MOL0     H64207   4.275   5.068   9.274 -1.2253  1.0158  0.6652
  476MOL0     H64208   4.200   5.139   9.133 -0.1531 -0.1551  0.2488
  476MOL0     H64209   4.102   4.884   9.270 -2.6519 -0.9175 -0.0032
  476MOL0     H64210   4.056   4.925   9.102  1.0169 -3.2926  1.2026
  476MOL0     H64211   3.886   5.140   9.087  2.9817 -3.8588 -1.0886
  476MOL0     H64212   3.703   5.359   9.338 -0.2872 -1.2398  0.7226
  476MOL0     H64213   3.703   5.310   9.164  1.5694  0.2786  0.2612
  476MOL0     H64214   3.494   5.286   9.335 -2.4770 -0.7707 -0.9821
  476MOL0     H64215   3.583   5.151   9.381  1.5936 -1.4998 -0.8202
  476MOL0     H64216   3.592   5.067   9.147  0.3169  1.9430 -2.3117
  476MOL0     H64217   3.486   5.193   9.074 -2.1975 -0.9006  0.2961
  476MOL0     H64218   3.408   4.986   9.271 -1.5263 -0.3551  0.0869
  476MOL0     H64219   3.354   5.016   9.105 -0.4148 -0.4929 -0.7792
  476MOL0     H64220   3.205   4.894   9.230 -0.8888  0.3439 -2.2903
  476MOL0     H64221   3.109   4.691   9.294 -1.3634  1.7972 -1.3351
  476MOL0     H64222   3.123   4.684   9.474  0.4016 -0.2028 -1.4182
  476MOL0     H64223   2.966   4.686   9.376  1.1558 -2.5281 -1.6134
  476MOL0     H64224   2.970   4.921   9.949 -0.1183  1.2267 -1.5651
  476MOL0     H64225   2.857   4.823  10.152  0.5436  0.8467  0.3327
  476MOL0     H64226   2.663   4.840  10.340  0.2617  0.7331  0.8102
  476MOL0     H64227   2.622   4.963  10.220  2.3623 -0.9306  0.1831
  476MOL0     H64228   2.416   4.777  10.353  1.1229  0.3345 -0.6547
  476MOL0     H64229   2.455   4.941  10.403  0.3683 -0.3964 -0.2839
  476MOL0     H64230   2.309   4.884  10.148  0.0259  1.5910 -0.3776
  476MOL0     H64231   2.375   5.037  10.199 -3.1940 -0.6210 -2.8648
  476MOL0     H64232   2.154   4.872  10.341  1.2093 -0.2133 -1.1787
  476MOL0     H64233   2.230   5.010  10.407 -1.3620  2.1208 -0.8942
  476MOL0     H64234   2.061   4.983  10.154  2.6765  0.9194 -1.4634
  476MOL0     H64235   2.138   5.135  10.201 -1.5769  1.4017  0.5076
  476MOL0     H64236   1.969   4.966  10.385 -1.0108  1.3492  4.1281
  476MOL0     H64237   2.005   5.123  10.431  3.9442 -1.5541 -0.2742
  476MOL0     H64238   1.787   5.106  10.352  0.2620 -3.8191 -0.2159
  476MOL0     H64239   1.833   5.039  10.190  0.8189 -1.5200  1.7975
  476MOL0     H64240   1.926   5.310  10.298 -2.5806 -0.3039  2.0981
  476MOL0     H64241   1.768   5.301  10.214  0.6254  1.6281 -2.5087
  476MOL0     H64242   2.499   4.775   9.931  0.7214 -1.7587 -0.6157
  476MOL0     H64243   2.638   4.843   9.716  1.4571  0.4305 -1.2164
  476MOL0     H64244   2.969   5.137   9.582 -0.4382 -1.2652  0.6321
  476MOL0     H64245   3.103   5.256   9.422 -0.3720 -0.1574 -3.3343
  476MOL0     H64246   5.096   4.762   8.907 -3.3535  1.3317  2.7473
  476MOL0     H64247   5.323   4.644   8.924 -0.9044 -0.6214 -0.7746
  476MOL0     H64248   5.547   4.274   9.107  1.0089 -1.9855 -0.5976
  476MOL0     H64249   5.707   4.142   9.017 -0.2155 -0.6000 -1.2825
  476MOL0     H64250   5.950   4.121   9.144 -2.8556  2.6057 -3.0052
  476MOL0     H64251   6.065   4.051   9.044  0.3897 -1.1361  1.6920
  476MOL0     H64252   6.185   4.184   9.237  1.4186  1.7313  0.2588
  476MOL0     H64253   6.089   4.323   9.183 -0.0578  0.3885 -1.4027
  476MOL0     H64254   6.311   4.353   9.078  2.1290 -1.3722 -0.7056
  476MOL0     H64255   6.197   4.300   8.956 -0.7461 -0.9488  0.9472
  476MOL0     H64256   6.356   4.141   8.921 -2.6033 -2.3798 -0.4941
  476MOL0     H64257   6.277   4.062   9.062 -0.6754  0.1269  1.5284
  476MOL0     H64258   6.661   4.220   9.189  0.2163  1.5298  0.2235
  476MOL0     H64259   5.976   4.475   8.945  0.5638 -0.3568  0.7010
  476MOL0     H64260   5.796   4.626   9.019  2.5112  0.1871 -0.0836
  477MOL0     O64261   4.254   8.793   7.529  0.1037  0.4169 -0.2683
  477MOL0     C64262   4.231   8.867   7.624  0.4873  0.0987  0.0924
  477MOL0     O64263   4.109   8.903   7.688 -0.0007 -0.3042  0.3589
  477MOL0     C64264   3.987   8.855   7.637  0.3883  0.2101 -0.2446
  477MOL0     C64265   3.960   8.815   7.506  0.4722 -0.4265  0.4557
  477MOL0     C64266   3.830   8.778   7.473  0.6875  0.3726 -0.1521
  477MOL0     C64267   3.727   8.776   7.579 -0.2305  0.4352  1.0328
  477MOL0     O64268   3.598   8.758   7.553 -0.5323 -0.1424  0.0591
  477MOL0     C64269   3.555   8.846   7.441  0.4642  0.1134 -0.2607
  477MOL0     C64270   3.401   8.872   7.445  1.2008  0.1375 -0.3808
  477MOL0     C64271   3.312   8.735   7.441 -0.4175 -0.2380 -0.3542
  477MOL0     C64272   3.172   8.751   7.505  0.0670 -0.9374  0.4752
  477MOL0     C64273   3.102   8.616   7.554 -0.6625  0.8756  0.2367
  477MOL0     C64274   2.949   8.629   7.547 -0.1913 -0.3418 -0.1689
  477MOL0     C64275   2.877   8.502   7.558  0.3047  0.6052  0.8550
  477MOL0     C64276   2.736   8.522   7.615 -0.1914 -0.0020  0.4313
  477MOL0     N64277   2.656   8.594   7.513  1.0618 -0.5416  0.0143
  477MOL0     C64278   2.543   8.553   7.443 -0.3845 -0.0462  0.3118
  477MOL0     C64279   2.477   8.657   7.389 -0.0266 -0.9309  0.2596
  477MOL0     C64280   2.357   8.658   7.292  0.8772  0.0873 -0.7420
  477MOL0     C64281   2.250   8.532   7.327 -0.4784 -0.0808 -0.9761
  477MOL0     C64282   2.291   8.406   7.251  0.3175 -1.3206 -0.1802
  477MOL0     C64283   2.237   8.279   7.322  0.3493 -0.8191  0.0029
  477MOL0     O64284   2.096   8.300   7.360 -0.4814 -0.7178 -0.7525
  477MOL0     C64285   1.988   8.256   7.289 -0.0539  0.0345  0.4422
  477MOL0     C64286   1.868   8.245   7.352  0.2357 -1.5021 -0.5963
  477MOL0     C64287   1.763   8.172   7.295 -0.4730  0.1274 -0.7933
  477MOL0     C64288   1.639   8.157   7.387  0.1402 -0.9612 -0.4087
  477MOL0     C64289   1.766   8.126   7.159  0.1887  0.5084 -0.1883
  477MOL0     C64290   1.650   8.056   7.088 -0.7346 -0.3407  0.0401
  477MOL0     O64291   1.696   7.990   6.969 -0.6607  0.7129  0.2041
  477MOL0     C64292   1.604   7.937   6.879 -0.0559 -0.3982  0.1639
  477MOL0     C64293   1.589   7.981   6.738 -0.5186  0.0390 -1.0875
  477MOL0     C64294   1.493   7.917   6.661  0.5864  0.1727  0.8140
  477MOL0     C64295   1.397   7.826   6.714  0.3558  0.4865  0.1264
  477MOL0     O64296   1.290   7.772   6.647  0.2254  0.5041  0.5545
  477MOL0     C64297   1.291   7.766   6.508  0.8324 -0.8256  0.5147
  477MOL0     C64298   1.242   7.905   6.447 -0.2026 -0.1762  0.6063
  477MOL0     C64299   1.226   7.888   6.285  0.1158 -0.6796  0.2848
  477MOL0     C64300   1.089   7.843   6.244  0.1913  0.0746 -0.2377
  477MOL0     C64301   0.984   7.952   6.254 -0.8125  0.2388 -0.2693
  477MOL0     C64302   0.849   7.890   6.203 -0.5906  0.3594 -0.4649
  477MOL0     C64303   0.713   7.951   6.244 -0.2819 -0.0907 -0.2242
  477MOL0     C64304   0.594   7.856   6.229 -0.8307 -0.6758  1.4110
  477MOL0    Cl64305   0.590   7.739   6.366  0.0774  0.3341 -0.7027
  477MOL0     C64306   1.409   7.783   6.851  0.3302  0.7592 -0.1477
  477MOL0     C64307   1.516   7.836   6.930 -0.2818  0.2021 -0.0259
  477MOL0     O64308   1.533   8.059   7.129 -0.7559 -0.5956 -0.1117
  477MOL0     C64309   1.897   8.137   7.092 -0.7054 -0.6302  0.8807
  477MOL0     C64310   2.001   8.199   7.158 -0.8593 -0.5363 -1.0570
  477MOL0     N64311   2.556   8.766   7.428  0.1286  0.0657 -0.5474
  477MOL0     N64312   2.657   8.730   7.499  1.1882  0.4161  0.7978
  477MOL0     C64313   3.765   8.798   7.707 -0.2450  0.7735 -0.1126
  477MOL0     C64314   3.884   8.846   7.736  0.2319 -0.2258  0.0386
  477MOL0     C64315   4.342   8.941   7.670 -0.2215  0.2316 -0.0994
  477MOL0     C64316   4.479   8.905   7.636  0.0114  0.1326 -0.0488
  477MOL0     C64317   4.581   8.981   7.679 -0.0531  0.7801 -1.1083
  477MOL0     C64318   4.567   9.076   7.771 -0.7101 -0.0723 -0.5771
  477MOL0     O64319   4.661   9.162   7.815 -0.2505  1.0620 -0.4220
  477MOL0     C64320   4.787   9.161   7.745 -0.3316 -0.3966  0.2441
  477MOL0     C64321   4.865   9.287   7.803 -0.5006 -0.3105 -0.0719
  477MOL0     C64322   4.956   9.265   7.929  0.2737 -0.3672 -0.9064
  477MOL0     C64323   4.974   9.391   8.016  0.9183 -0.3788  0.1628
  477MOL0     C64324   5.032   9.500   7.942  0.3578  0.2068  0.9232
  477MOL0     C64325   5.043   9.602   7.877 -0.1727 -0.2055  0.1990
  477MOL0     C64326   4.434   9.122   7.802  0.2171  0.2776  0.1561
  477MOL0     C64327   4.326   9.045   7.762  0.4099  0.3139 -0.7356
  477MOL0     H64328   4.035   8.813   7.427 -0.1786 -2.0257 -0.1666
  477MOL0     H64329   3.800   8.763   7.369 -0.8175  0.9261  0.1698
  477MOL0     H64330   3.612   8.939   7.438 -0.6389  0.7733 -1.4171
  477MOL0     H64331   3.573   8.804   7.341 -0.7458 -0.6902 -0.1628
  477MOL0     H64332   3.375   8.923   7.538  1.0681  0.9559 -0.8597
  477MOL0     H64333   3.378   8.938   7.361  3.9400  1.1228 -0.4204
  477MOL0     H64334   3.310   8.708   7.335  2.9237 -2.1496 -0.0684
  477MOL0     H64335   3.366   8.655   7.492 -1.2063  1.1472  2.8620
  477MOL0     H64336   3.190   8.821   7.587  0.1285  0.4947 -0.7053
  477MOL0     H64337   3.109   8.805   7.434  0.3989 -0.3472  0.6223
  477MOL0     H64338   3.130   8.530   7.492 -1.4317 -1.8149  3.3590
  477MOL0     H64339   3.133   8.596   7.657 -2.6820 -1.3787  0.4970
  477MOL0     H64340   2.913   8.706   7.616 -0.0548 -0.4063 -0.0243
  477MOL0     H64341   2.924   8.677   7.452 -0.0280  2.6853  1.2197
  477MOL0     H64342   2.876   8.458   7.458 -1.5712  1.7989  0.2784
  477MOL0     H64343   2.936   8.432   7.617 -0.9557  1.1580  2.8697
  477MOL0     H64344   2.745   8.584   7.705  0.9898  2.5668 -1.3239
  477MOL0     H64345   2.696   8.424   7.641  1.8536 -0.5787  1.7132
  477MOL0     H64346   2.521   8.446   7.440  1.7688 -0.5632  0.9012
  477MOL0     H64347   2.307   8.754   7.311 -1.9883 -1.7566  1.8318
  477MOL0     H64348   2.394   8.665   7.189  0.6734 -0.8913 -0.8891
  477MOL0     H64349   2.148   8.564   7.305 -0.5089 -1.4641 -3.0522
  477MOL0     H64350   2.251   8.518   7.436 -2.2833  2.2675 -0.5572
  477MOL0     H64351   2.400   8.419   7.254  0.3383 -1.2947 -0.8733
  477MOL0     H64352   2.260   8.404   7.146  2.0211 -0.7107 -0.7229
  477MOL0     H64353   2.300   8.266   7.410  0.5545 -3.1995 -0.4319
  477MOL0     H64354   2.259   8.193   7.258  0.5254 -1.5273  0.9896
  477MOL0     H64355   1.875   8.278   7.455 -0.7759 -2.0343 -0.3519
  477MOL0     H64356   1.588   8.061   7.372  0.5641 -1.1966 -0.3652
  477MOL0     H64357   1.667   8.135   7.491  1.2148  0.2445 -0.4171
  477MOL0     H64358   1.568   8.237   7.366 -0.0445 -1.2233 -0.7834
  477MOL0     H64359   1.659   8.054   6.699 -0.8004  0.8051 -0.1978
  477MOL0     H64360   1.482   7.951   6.558  3.0569  0.8361  0.7082
  477MOL0     H64361   1.384   7.734   6.460  1.4983  2.7911 -0.9093
  477MOL0     H64362   1.215   7.690   6.485 -0.6700  0.1606  1.9675
  477MOL0     H64363   1.147   7.928   6.495 -0.5828 -3.9442  2.0333
  477MOL0     H64364   1.304   7.992   6.469 -1.9256  0.3689  3.7909
  477MOL0     H64365   1.303   7.818   6.252  0.1894 -1.1754  1.4441
  477MOL0     H64366   1.246   7.987   6.243  0.6194 -1.7601 -2.1861
  477MOL0     H64367   1.093   7.822   6.136  2.5849  1.2706 -0.4641
  477MOL0     H64368   1.058   7.768   6.316  2.1870  1.7657  2.5724
  477MOL0     H64369   1.000   8.046   6.200 -4.4895  0.2790 -1.5830
  477MOL0     H64370   0.972   7.974   6.361  0.4737 -2.6797  0.5813
  477MOL0     H64371   0.854   7.890   6.094 -0.7650  0.1360 -0.4755
  477MOL0     H64372   0.837   7.794   6.253  0.3410 -0.2413 -1.3636
  477MOL0     H64373   0.690   8.048   6.200 -0.3011  1.0428  2.1868
  477MOL0     H64374   0.714   7.968   6.352  0.4847 -1.3497 -0.0126
  477MOL0     H64375   0.605   7.814   6.129 -1.2425  0.1431  1.0141
  477MOL0     H64376   0.495   7.902   6.234 -0.1370  1.0646  0.2308
  477MOL0     H64377   1.333   7.712   6.885 -1.6040  2.5827 -0.4281
  477MOL0     H64378   1.539   7.799   7.030 -2.7311  2.0298  1.3241
  477MOL0     H64379   1.914   8.112   6.988  1.9064  2.8631  0.2899
  477MOL0     H64380   2.099   8.214   7.114 -1.8129 -2.4059 -4.1107
  477MOL0     H64381   3.687   8.786   7.781  0.6938 -0.6262  0.6865
  477MOL0     H64382   3.916   8.868   7.837 -0.4891 -0.2123  0.2704
  477MOL0     H64383   4.499   8.829   7.561 -2.8713 -0.6163 -0.1866
  477MOL0     H64384   4.685   8.968   7.650  0.6337  3.2779  0.0011
  477MOL0     H64385   4.847   9.072   7.764  0.9619  0.7813  2.0316
  477MOL0     H64386   4.759   9.174   7.640 -3.5731  0.5016  1.0829
  477MOL0     H64387   4.791   9.365   7.822  0.1560  1.0442 -2.6550
  477MOL0     H64388   4.926   9.323   7.720 -0.9210  1.8255  0.4917
  477MOL0     H64389   5.056   9.235   7.897  0.7540 -0.4476  0.5931
  477MOL0     H64390   4.921   9.193   8.004 -0.2238  2.6302  1.9543
  477MOL0     H64391   5.025   9.376   8.112  1.5086  0.3288 -0.0308
  477MOL0     H64392   4.874   9.427   8.039  0.1062 -0.6735 -2.5842
  477MOL0     H64393   5.077   9.695   7.835  0.8979  0.3651  2.2226
  477MOL0     H64394   4.407   9.206   7.865  0.2460 -1.0859  2.0883
  477MOL0     H64395   4.229   9.076   7.799  0.5396 -0.9928  0.8024
  478MOL0     O64396   9.466   5.577   5.953  0.5089  0.1406 -0.3947
  478MOL0     C64397   9.470   5.538   6.063 -0.2010 -0.3279 -0.2947
  478MOL0     O64398   9.363   5.484   6.136 -0.4290  0.0874 -0.2199
  478MOL0     C64399   9.245   5.452   6.078 -0.5690  0.3923  0.4997
  478MOL0     C64400   9.203   5.320   6.104 -0.1459  1.1925  1.5485
  478MOL0     C64401   9.076   5.277   6.067  0.3079 -0.8923  0.1704
  478MOL0     C64402   8.983   5.375   6.027  0.1390  0.1287  0.0658
  478MOL0     O64403   8.855   5.333   6.012 -0.3361  0.3026 -0.0721
  478MOL0     C64404   8.759   5.427   5.964 -1.4604 -0.7674  0.3944
  478MOL0     C64405   8.619   5.374   5.990  1.1819  0.1133  0.8065
  478MOL0     C64406   8.506   5.479   5.964 -0.2371  0.0748 -0.4040
  478MOL0     C64407   8.373   5.431   6.017  0.5880 -0.2814  0.8431
  478MOL0     C64408   8.270   5.537   6.001 -0.4584  0.3963 -0.0414
  478MOL0     C64409   8.137   5.467   6.025 -0.1608 -0.2943  0.0377
  478MOL0     C64410   8.026   5.539   5.957 -0.1058  0.0139  0.1064
  478MOL0     C64411   7.897   5.486   6.024  0.1264 -0.1688  0.4631
  478MOL0     N64412   7.773   5.530   5.963 -0.1509 -0.9543 -0.2127
  478MOL0     C64413   7.737   5.525   5.830  0.2936  0.7074  0.0806
  478MOL0     C64414   7.614   5.584   5.817  0.5002 -0.2377 -0.0410
  478MOL0     C64415   7.535   5.600   5.688  0.1823  0.1864 -0.6715
  478MOL0     C64416   7.392   5.538   5.682  0.1047  0.1116 -0.0460
  478MOL0     C64417   7.391   5.383   5.699 -0.4282  0.0704  0.2236
  478MOL0     C64418   7.250   5.323   5.697 -0.5779  0.1355 -2.2371
  478MOL0     O64419   7.150   5.412   5.672  0.2251  1.3432  0.0394
  478MOL0     C64420   7.017   5.375   5.676  0.2196  0.1874 -0.1643
  478MOL0     C64421   6.971   5.245   5.687  0.0078  0.7877 -0.8533
  478MOL0     C64422   6.834   5.222   5.683 -0.2057  0.6739  0.8506
  478MOL0     C64423   6.792   5.077   5.706 -0.1047  0.0935  0.0527
  478MOL0     C64424   6.742   5.332   5.669 -0.4984 -0.1062  0.5227
  478MOL0     C64425   6.597   5.314   5.635  0.0368  1.1865 -0.2295
  478MOL0     O64426   6.522   5.425   5.636  0.6071 -0.2003 -0.6181
  478MOL0     C64427   6.382   5.415   5.618 -0.2543  0.1374 -0.1011
  478MOL0     C64428   6.323   5.333   5.518  0.4853  0.1586 -0.0821
  478MOL0     C64429   6.186   5.326   5.512  0.2055  0.5812  0.5462
  478MOL0     C64430   6.108   5.407   5.590  0.2544 -0.4192 -0.3432
  478MOL0     O64431   5.974   5.395   5.569  0.2494  0.1910 -0.4453
  478MOL0     C64432   5.880   5.454   5.674 -0.1632  0.2474  0.4980
  478MOL0     C64433   5.730   5.428   5.623 -0.3863 -0.6245 -0.2445
  478MOL0     C64434   5.696   5.508   5.501  0.3080  1.2762 -0.1474
  478MOL0     C64435   5.770   5.491   5.372  0.0122 -0.0566  0.7226
  478MOL0     C64436   5.701   5.554   5.253  0.6958 -0.0010 -0.0369
  478MOL0     C64437   5.792   5.551   5.127 -0.8438  0.4111 -0.0116
  478MOL0     C64438   5.717   5.565   4.999 -0.0849  0.4055 -0.5616
  478MOL0     C64439   5.645   5.697   4.970  0.2803 -0.4986  0.0674
  478MOL0    Cl64440   5.572   5.695   4.805 -0.3923  0.4433 -0.4300
  478MOL0     C64441   6.163   5.485   5.694 -1.1610 -0.8579  0.3183
  478MOL0     C64442   6.302   5.495   5.695  0.3442  0.5908  0.3300
  478MOL0     O64443   6.548   5.202   5.624  0.0959 -0.3279 -0.2492
  478MOL0     C64444   6.789   5.457   5.645 -0.1713 -0.9553 -0.4427
  478MOL0     C64445   6.927   5.485   5.663  0.8014 -0.2574  0.5262
  478MOL0     N64446   7.570   5.595   5.944  0.3447  0.2511 -0.1375
  478MOL0     N64447   7.658   5.572   6.033 -0.7273 -0.2187 -0.2747
  478MOL0     C64448   9.030   5.506   5.989 -0.3395  0.0642 -0.3171
  478MOL0     C64449   9.164   5.551   6.018  0.8835  0.0912  0.2167
  478MOL0     C64450   9.598   5.556   6.136 -0.0028 -0.0862 -0.0976
  478MOL0     C64451   9.717   5.605   6.078 -0.6893 -0.5576 -0.2330
  478MOL0     C64452   9.836   5.625   6.160  0.2328  0.1635  0.0970
  478MOL0     C64453   9.836   5.588   6.291 -0.1698  0.7415  0.3362
  478MOL0     O64454   9.945   5.600   6.381 -0.1524 -1.1577 -0.3971
  478MOL0     C64455  10.062   5.667   6.328 -1.0075 -0.0062 -0.4346
  478MOL0     C64456  10.168   5.647   6.435 -0.1202  0.0674 -0.4114
  478MOL0     C64457  10.286   5.748   6.412  0.6068  0.7136  0.9192
  478MOL0     C64458  10.407   5.713   6.499  0.4698 -0.7153  0.5363
  478MOL0     C64459  10.393   5.776   6.640  1.2998  0.2228 -0.3750
  478MOL0     C64460  10.394   5.833   6.748 -0.8928 -1.1048  1.1174
  478MOL0     C64461   9.715   5.536   6.348  0.3049  0.1731  0.2397
  478MOL0     C64462   9.601   5.518   6.273  0.4486 -0.2413  0.4424
  478MOL0     H64463   9.276   5.260   6.157 -0.3977  1.0503  1.7384
  478MOL0     H64464   9.067   5.169   6.081  1.3476 -1.0547 -0.3086
  478MOL0     H64465   8.778   5.526   6.008  3.4205 -0.7602 -1.1569
  478MOL0     H64466   8.772   5.449   5.858  3.0312 -0.8138  0.7416
  478MOL0     H64467   8.603   5.283   5.930  0.3557 -0.3409  1.7053
  478MOL0     H64468   8.618   5.343   6.095 -0.6447  0.0649  0.8067
  478MOL0     H64469   8.535   5.573   6.013 -1.9991  0.6872 -0.4627
  478MOL0     H64470   8.486   5.481   5.857  2.5659  0.1420 -0.9970
  478MOL0     H64471   8.344   5.348   5.952 -1.8604  0.2062  1.2026
  478MOL0     H64472   8.368   5.409   6.124 -0.9345  1.1163  1.0908
  478MOL0     H64473   8.279   5.625   6.065 -1.1350 -0.0714  0.7147
  478MOL0     H64474   8.279   5.563   5.895  1.3275  0.5084  0.0986
  478MOL0     H64475   8.135   5.365   5.988  0.3503  0.2967 -1.7076
  478MOL0     H64476   8.114   5.458   6.132 -2.3098 -1.5373 -0.4784
  478MOL0     H64477   8.033   5.648   5.960 -0.0283  0.0536 -1.1668
  478MOL0     H64478   8.024   5.509   5.852 -2.7669 -2.3038  0.7166
  478MOL0     H64479   7.904   5.506   6.131  0.6881  0.8074  0.2515
  478MOL0     H64480   7.898   5.376   6.016 -0.5675 -0.0684 -1.6184
  478MOL0     H64481   7.793   5.473   5.754  0.5992  0.0332  0.7629
  478MOL0     H64482   7.536   5.703   5.650  0.6897  0.4147 -0.0584
  478MOL0     H64483   7.597   5.549   5.614  2.9937  0.9779  0.9830
  478MOL0     H64484   7.334   5.570   5.595 -1.6066 -1.5004  0.4239
  478MOL0     H64485   7.338   5.582   5.766  1.9129  0.2694  1.0857
  478MOL0     H64486   7.448   5.363   5.790  0.8556 -0.5773 -0.6802
  478MOL0     H64487   7.452   5.345   5.617  0.4718  0.0690  0.8791
  478MOL0     H64488   7.238   5.277   5.795  1.2482  0.3664 -1.8746
  478MOL0     H64489   7.247   5.242   5.623 -0.0805  0.9923 -3.2162
  478MOL0     H64490   7.041   5.163   5.698  3.0328  3.4190  1.1523
  478MOL0     H64491   6.873   5.017   5.749 -0.0878  0.6699  0.8490
  478MOL0     H64492   6.705   5.070   5.771 -0.2955 -1.4279 -0.3368
  478MOL0     H64493   6.770   5.030   5.609  0.8119 -1.1627  0.4330
  478MOL0     H64494   6.382   5.281   5.443  0.8698 -0.7386  0.8237
  478MOL0     H64495   6.137   5.270   5.433 -2.2291 -0.6632  2.8211
  478MOL0     H64496   5.881   5.405   5.772 -1.0398 -0.0412  0.3692
  478MOL0     H64497   5.892   5.562   5.679 -2.1201  0.6685 -2.1217
  478MOL0     H64498   5.713   5.323   5.598 -1.4741 -0.3187 -0.9014
  478MOL0     H64499   5.661   5.467   5.699 -2.0432 -0.8301 -1.5711
  478MOL0     H64500   5.692   5.615   5.522 -0.1157  1.1289  0.5456
  478MOL0     H64501   5.595   5.471   5.480 -0.1029  2.1753  0.1904
  478MOL0     H64502   5.865   5.545   5.379  1.0566 -1.4878 -1.2109
  478MOL0     H64503   5.803   5.390   5.344  0.9845  0.5992 -0.6058
  478MOL0     H64504   5.679   5.658   5.277  1.5808  0.2980 -0.4905
  478MOL0     H64505   5.603   5.504   5.248  0.7664 -1.2352  5.4209
  478MOL0     H64506   5.869   5.626   5.147  1.0306 -1.5883  0.6340
  478MOL0     H64507   5.845   5.456   5.122 -1.6256 -0.0058 -0.7104
  478MOL0     H64508   5.644   5.483   5.004  2.6343 -2.1449  2.9573
  478MOL0     H64509   5.787   5.541   4.919 -2.4964 -1.9113 -2.1346
  478MOL0     H64510   5.712   5.783   4.977 -0.3741  0.0527 -0.3374
  478MOL0     H64511   5.559   5.714   5.036  0.4269  0.9594 -0.0862
  478MOL0     H64512   6.095   5.545   5.754 -2.0010 -2.1369  0.6940
  478MOL0     H64513   6.355   5.568   5.755  0.2118  1.6080 -0.7645
  478MOL0     H64514   6.717   5.536   5.627  1.4523  0.2367 -2.0610
  478MOL0     H64515   6.960   5.588   5.661 -0.8012  0.3155  1.4017
  478MOL0     H64516   8.963   5.585   5.956 -0.4067 -0.1993 -0.8171
  478MOL0     H64517   9.212   5.647   6.005  0.4586  0.1605 -0.9222
  478MOL0     H64518   9.729   5.631   5.974  1.7570 -0.8714 -0.0834
  478MOL0     H64519   9.926   5.661   6.110  0.7253 -2.8181 -1.3882
  478MOL0     H64520  10.103   5.625   6.236  1.1806  3.6623 -1.3334
  478MOL0     H64521  10.050   5.775   6.314  1.3934  0.3572 -0.1447
  478MOL0     H64522  10.209   5.547   6.420 -0.0312  0.4470 -3.3706
  478MOL0     H64523  10.125   5.653   6.535 -2.1364 -0.9370 -1.1644
  478MOL0     H64524  10.251   5.846   6.445  1.0083  0.9205  0.7439
  478MOL0     H64525  10.319   5.752   6.308 -1.3092  2.6073  0.3084
  478MOL0     H64526  10.496   5.758   6.455  1.6869 -2.8993  0.6455
  478MOL0     H64527  10.425   5.606   6.487 -1.1492 -0.7446 -2.7670
  478MOL0     H64528  10.408   5.889   6.839  4.6973 -0.3351  0.1142
  478MOL0     H64529   9.715   5.511   6.453 -1.6981 -1.2352 -0.0421
  478MOL0     H64530   9.514   5.476   6.322 -1.7221  1.4347 -1.7077
  479MOL0     O64531   8.813   4.748   3.781 -0.6656 -0.3625  0.1254
  479MOL0     C64532   8.769   4.634   3.767  0.2032  0.3329  0.3889
  479MOL0     O64533   8.679   4.567   3.848 -0.5393 -0.3365 -0.0475
  479MOL0     C64534   8.617   4.611   3.961 -0.5114  1.0586 -0.6218
  479MOL0     C64535   8.677   4.701   4.045 -0.0736  0.1760 -0.6121
  479MOL0     C64536   8.605   4.757   4.162 -0.4906  0.2999  1.2398
  479MOL0     C64537   8.468   4.724   4.174  0.4819 -0.1610 -0.3182
  479MOL0     O64538   8.397   4.773   4.272  0.3190  0.3365 -0.7996
  479MOL0     C64539   8.392   4.912   4.283 -0.5135 -0.1306  0.2517
  479MOL0     C64540   8.301   4.985   4.177 -0.2294 -0.1691  0.2356
  479MOL0     C64541   8.162   4.936   4.182  1.3077 -0.0504 -0.2131
  479MOL0     C64542   8.094   4.977   4.053  0.1243 -0.0561  0.4450
  479MOL0     C64543   8.130   4.879   3.940 -0.2653  0.0549  0.4450
  479MOL0     C64544   8.025   4.868   3.831  0.4130  0.0643  0.3439
  479MOL0     C64545   8.018   4.997   3.750 -0.9153  0.5850  0.3884
  479MOL0     C64546   7.948   4.976   3.624  0.5373  0.6360 -0.2655
  479MOL0     N64547   7.804   4.935   3.646 -0.6350 -0.1945 -0.7086
  479MOL0     C64548   7.711   4.993   3.730 -0.4799 -0.4249  0.5365
  479MOL0     C64549   7.597   4.930   3.700 -0.5217 -0.0264  0.5953
  479MOL0     C64550   7.458   4.965   3.750 -0.5145  0.6239  0.3056
  479MOL0     C64551   7.368   4.984   3.625  0.1054  0.8157  0.4776
  479MOL0     C64552   7.237   5.040   3.654  0.4710 -0.4404  0.1933
  479MOL0     C64553   7.140   4.982   3.550  0.4371  0.2401  0.6801
  479MOL0     O64554   7.093   4.852   3.580  0.3540  0.1297 -0.2917
  479MOL0     C64555   6.958   4.844   3.602  0.2627 -0.5307 -0.2084
  479MOL0     C64556   6.882   4.821   3.485  0.7550 -0.3136  0.3687
  479MOL0     C64557   6.735   4.810   3.487 -0.3917  0.3528 -0.1138
  479MOL0     C64558   6.670   4.786   3.354 -0.1443 -1.3290 -0.3931
  479MOL0     C64559   6.668   4.827   3.615 -0.0837  0.3354 -0.4154
  479MOL0     C64560   6.521   4.832   3.636  0.4181  0.8579  0.5376
  479MOL0     O64561   6.444   4.744   3.564 -0.6010  0.2670 -0.7813
  479MOL0     C64562   6.307   4.748   3.567  0.6332 -0.2015 -0.2896
  479MOL0     C64563   6.230   4.734   3.684 -0.5728 -0.5476 -0.6907
  479MOL0     C64564   6.089   4.718   3.663 -0.4531  0.1048 -0.7276
  479MOL0     C64565   6.022   4.700   3.544 -0.1693 -1.0708 -0.0249
  479MOL0     O64566   5.886   4.664   3.544  1.6211 -0.1115 -0.2150
  479MOL0     C64567   5.810   4.707   3.426 -0.2305 -1.0508 -1.1603
  479MOL0     C64568   5.656   4.696   3.452  0.6435  0.2391 -0.3681
  479MOL0     C64569   5.573   4.755   3.332 -0.3246 -0.0506 -0.1232
  479MOL0     C64570   5.591   4.911   3.326  0.0659 -0.4653 -0.1249
  479MOL0     C64571   5.543   4.973   3.194 -0.5243  0.3601  0.7631
  479MOL0     C64572   5.406   4.955   3.152  0.6396  0.1063 -0.2064
  479MOL0     C64573   5.297   5.009   3.257  1.2234  0.2133  0.2853
  479MOL0     C64574   5.154   4.990   3.199 -0.2798  0.2672 -0.6962
  479MOL0    Cl64575   5.039   5.107   3.267  0.0629  0.2967  0.0648
  479MOL0     C64576   6.104   4.709   3.429 -0.7714 -0.1162 -0.3854
  479MOL0     C64577   6.245   4.740   3.436  0.3684  0.4219  0.3040
  479MOL0     O64578   6.480   4.914   3.719  0.5708  0.5759 -0.5094
  479MOL0     C64579   6.749   4.855   3.726 -0.1241  0.4470  0.1335
  479MOL0     C64580   6.891   4.853   3.724  0.6823  0.0252 -0.3979
  479MOL0     N64581   7.617   4.837   3.597  0.2122  0.1147  0.0783
  479MOL0     N64582   7.742   4.846   3.562  0.1947  0.6659 -0.1380
  479MOL0     C64583   8.417   4.628   4.091 -0.7011 -0.2251 -0.5754
  479MOL0     C64584   8.487   4.568   3.988  0.8508  0.0096  0.0108
  479MOL0     C64585   8.827   4.553   3.650 -0.6535  0.1405  0.2542
  479MOL0     C64586   8.794   4.419   3.626  0.8582  0.9143  0.7795
  479MOL0     C64587   8.834   4.353   3.509  0.4657 -0.5192 -0.4366
  479MOL0     C64588   8.914   4.419   3.412  0.8565 -0.6753 -0.2093
  479MOL0     O64589   8.944   4.365   3.294 -0.1230  0.1265 -0.1250
  479MOL0     C64590   9.002   4.234   3.316  0.8967 -0.0259 -0.7920
  479MOL0     C64591   9.114   4.174   3.226 -0.0008  0.1647 -0.0477
  479MOL0     C64592   9.068   4.123   3.089  0.8935 -0.2939 -0.8150
  479MOL0     C64593   9.030   3.975   3.100 -0.9991 -0.0225 -0.3123
  479MOL0     C64594   9.005   3.939   2.957  0.3618  0.5342 -1.0008
  479MOL0     C64595   8.968   3.909   2.840  0.4770 -0.5820 -0.2064
  479MOL0     C64596   8.943   4.552   3.436  0.2829  0.2135 -0.1717
  479MOL0     C64597   8.904   4.621   3.553 -0.0637  0.3451  0.2758
  479MOL0     H64598   8.775   4.739   4.020  1.0251  0.0433  2.9196
  479MOL0     H64599   8.654   4.826   4.231 -1.5893  1.4597  0.9070
  479MOL0     H64600   8.348   4.930   4.382  2.4790  2.8706  1.2100
  479MOL0     H64601   8.494   4.951   4.281 -0.5351 -0.1085 -0.5714
  479MOL0     H64602   8.301   5.094   4.189 -1.3582 -0.2380  1.0499
  479MOL0     H64603   8.348   4.976   4.079 -0.7907  3.2813 -0.4933
  479MOL0     H64604   8.156   4.831   4.211  1.2641  0.3722  1.3968
  479MOL0     H64605   8.111   4.983   4.267  1.5193  2.4183 -1.3708
  479MOL0     H64606   7.987   4.958   4.066 -0.0279  0.5587  0.1322
  479MOL0     H64607   8.106   5.083   4.033 -0.8050  0.2379  1.3690
  479MOL0     H64608   8.224   4.919   3.902 -0.2639 -0.0866  0.2978
  479MOL0     H64609   8.152   4.777   3.975  1.3012  0.9524  2.2726
  479MOL0     H64610   8.066   4.789   3.768  2.1403  0.8692  0.4099
  479MOL0     H64611   7.925   4.847   3.870 -0.9097  1.8967 -1.7748
  479MOL0     H64612   7.977   5.069   3.822 -1.5565 -1.2913  1.9720
  479MOL0     H64613   8.118   5.028   3.717 -0.5182 -3.6038 -3.1827
  479MOL0     H64614   7.998   4.896   3.568  0.5128 -1.1125  2.0428
  479MOL0     H64615   7.958   5.062   3.556  0.3059  0.0035 -1.1167
  479MOL0     H64616   7.727   5.069   3.806  0.0385 -0.5675  0.5722
  479MOL0     H64617   7.430   4.877   3.807  0.5084 -1.3962 -2.1416
  479MOL0     H64618   7.457   5.052   3.817 -1.1391 -0.8378  2.2789
  479MOL0     H64619   7.364   4.881   3.590  1.1436  0.5818  1.0118
  479MOL0     H64620   7.433   5.039   3.557  0.6520 -0.1753  0.1803
  479MOL0     H64621   7.247   5.149   3.653  0.5415 -0.4485 -0.2102
  479MOL0     H64622   7.190   5.017   3.750 -0.3778 -1.8216 -0.5092
  479MOL0     H64623   7.188   4.982   3.451 -0.1658 -2.9703  0.2868
  479MOL0     H64624   7.059   5.055   3.551 -1.2964 -1.5946  1.3536
  479MOL0     H64625   6.947   4.809   3.398  2.1421 -1.2355  1.4827
  479MOL0     H64626   6.576   4.841   3.356  0.4086 -0.3638  0.0600
  479MOL0     H64627   6.735   4.829   3.277 -0.8119  0.4971 -0.0091
  479MOL0     H64628   6.653   4.679   3.345 -3.0145 -1.1971  2.0781
  479MOL0     H64629   6.277   4.743   3.781 -3.4815 -0.7832  0.8395
  479MOL0     H64630   6.030   4.703   3.753  0.6538 -0.2949 -0.0508
  479MOL0     H64631   5.836   4.809   3.395 -0.6083  0.2316  2.2502
  479MOL0     H64632   5.824   4.643   3.338  2.2468 -3.5281  0.8714
  479MOL0     H64633   5.632   4.590   3.463 -1.2292  0.4542 -1.9879
  479MOL0     H64634   5.627   4.735   3.550  2.5786 -0.1942  0.4245
  479MOL0     H64635   5.467   4.732   3.345 -0.5006  0.6996 -0.1557
  479MOL0     H64636   5.606   4.715   3.236  1.7743 -2.2857  1.4032
  479MOL0     H64637   5.528   4.952   3.405  3.4378  1.8148  1.6386
  479MOL0     H64638   5.693   4.946   3.346 -1.0354  2.6480  0.5796
  479MOL0     H64639   5.617   4.939   3.121 -1.9599 -1.4823  0.1015
  479MOL0     H64640   5.560   5.081   3.190 -0.5526  0.3281 -1.6747
  479MOL0     H64641   5.392   5.000   3.053  1.2160 -0.1437 -0.4062
  479MOL0     H64642   5.379   4.849   3.140 -0.3070  0.4033 -0.9054
  479MOL0     H64643   5.315   5.113   3.288  1.6271 -0.4635  2.4821
  479MOL0     H64644   5.304   4.945   3.346  1.6047  0.1712  0.2262
  479MOL0     H64645   5.134   4.885   3.223  1.6797  0.4274  2.0099
  479MOL0     H64646   5.152   5.001   3.090 -0.0335 -3.1835 -1.1512
  479MOL0     H64647   6.046   4.684   3.341 -1.1600 -2.7528  0.5341
  479MOL0     H64648   6.310   4.740   3.349  0.2343  2.4137  0.1565
  479MOL0     H64649   6.693   4.869   3.818 -1.5340 -1.5793 -0.3596
  479MOL0     H64650   6.949   4.871   3.814 -2.1628 -1.3396  1.8613
  479MOL0     H64651   8.315   4.595   4.107 -0.0455 -2.0811  0.0247
  479MOL0     H64652   8.443   4.494   3.922 -2.2085  0.5652  1.2614
  479MOL0     H64653   8.740   4.363   3.702 -2.0499  2.0244 -0.3470
  479MOL0     H64654   8.804   4.251   3.488 -1.1187  0.6185 -4.7781
  479MOL0     H64655   9.043   4.222   3.417  1.6824 -3.5100 -1.3791
  479MOL0     H64656   8.916   4.167   3.319 -0.4604  1.6703  0.2883
  479MOL0     H64657   9.158   4.085   3.272 -0.7546 -0.8228 -1.1624
  479MOL0     H64658   9.193   4.250   3.218  0.1282  0.1714  1.1613
  479MOL0     H64659   9.149   4.138   3.017 -1.0148 -0.0357 -3.0590
  479MOL0     H64660   8.981   4.180   3.054  1.0670  0.2422 -0.3736
  479MOL0     H64661   8.959   3.938   3.174  1.9500 -0.3683  2.5645
  479MOL0     H64662   9.118   3.915   3.128  1.4534  3.5729  0.3966
  479MOL0     H64663   8.923   3.880   2.748  0.2055 -0.1834 -0.2017
  479MOL0     H64664   8.993   4.619   3.367  0.0425  1.0107  0.3958
  479MOL0     H64665   8.919   4.727   3.567  2.6724 -0.0715  1.0468
  480MOL0     O64666   8.868   2.637  10.640  0.1209  0.6516  0.8691
  480MOL0     C64667   8.872   2.710  10.542  1.1333 -0.3392  0.7000
  480MOL0     O64668   8.759   2.747  10.464 -0.0897 -0.6489  0.8042
  480MOL0     C64669   8.642   2.715  10.521 -1.2353 -0.1773 -1.0201
  480MOL0     C64670   8.563   2.798  10.601  0.0118  0.2987 -0.3188
  480MOL0     C64671   8.459   2.745  10.674  0.5453 -0.1947  0.1345
  480MOL0     C64672   8.412   2.617  10.640  0.3623 -0.0781 -1.0014
  480MOL0     O64673   8.280   2.584  10.683 -0.6315 -0.9581  0.2230
  480MOL0     C64674   8.221   2.469  10.626  0.6461 -0.0656  0.1245
  480MOL0     C64675   8.072   2.459  10.652 -0.1490  0.1251  0.0472
  480MOL0     C64676   7.992   2.579  10.598  0.5818 -0.1868  0.4501
  480MOL0     C64677   7.879   2.637  10.687  0.0690  1.2812 -0.0074
  480MOL0     C64678   7.764   2.539  10.707  0.0346 -0.0705 -0.3836
  480MOL0     C64679   7.708   2.458  10.597  0.3291 -0.7676 -0.0777
  480MOL0     C64680   7.577   2.392  10.629 -0.2008 -0.0811 -0.1264
  480MOL0     C64681   7.592   2.280  10.740 -0.1509  1.1921  0.3706
  480MOL0     N64682   7.503   2.295  10.850  0.4907 -0.6509  0.8316
  480MOL0     C64683   7.527   2.373  10.965 -0.1237  0.3483  0.9400
  480MOL0     C64684   7.461   2.313  11.064  0.5175 -0.8138 -0.4715
  480MOL0     C64685   7.457   2.346  11.211 -0.5038 -0.0280  0.1013
  480MOL0     C64686   7.366   2.459  11.252  0.1606 -0.4991 -0.8806
  480MOL0     C64687   7.226   2.433  11.204  0.3848 -0.0989 -0.0882
  480MOL0     C64688   7.122   2.535  11.252 -0.4291 -0.1171  0.5865
  480MOL0     O64689   7.129   2.547  11.399 -0.6586  0.2238  0.2129
  480MOL0     C64690   7.118   2.676  11.442  0.1357  0.0592  0.2825
  480MOL0     C64691   7.037   2.698  11.549  0.4495 -0.3388  0.6671
  480MOL0     C64692   7.033   2.827  11.599  0.6435  0.2914 -0.1122
  480MOL0     C64693   6.928   2.857  11.690 -0.9570 -0.7237  0.1437
  480MOL0     C64694   7.117   2.928  11.554 -0.1820  0.9349 -0.3578
  480MOL0     C64695   7.128   3.066  11.602  0.7374 -0.3658 -0.6541
  480MOL0     O64696   7.100   3.154  11.498 -0.2740 -0.5508  0.6286
  480MOL0     C64697   7.102   3.287  11.495 -0.3353 -0.2934 -1.0533
  480MOL0     C64698   7.087   3.352  11.368 -0.1531 -0.6173 -0.8376
  480MOL0     C64699   7.094   3.488  11.354 -0.0085 -0.2148 -0.8458
  480MOL0     C64700   7.128   3.578  11.453 -0.5554 -0.5767 -0.2487
  480MOL0     O64701   7.134   3.717  11.442 -0.5000  0.2279 -0.1800
  480MOL0     C64702   7.205   3.772  11.330  0.3057 -0.0691 -0.8494
  480MOL0     C64703   7.108   3.829  11.225  0.3998 -0.0157 -0.5091
  480MOL0     C64704   7.173   3.860  11.088 -0.1491  0.5890 -0.4449
  480MOL0     C64705   7.223   3.733  11.023  0.3736  0.3332 -1.1646
  480MOL0     C64706   7.195   3.738  10.874 -0.1346 -0.5767 -0.3756
  480MOL0     C64707   7.256   3.616  10.818 -0.6838 -0.0413  0.1885
  480MOL0     C64708   7.245   3.610  10.668  0.6456 -0.0452  0.0850
  480MOL0     C64709   7.243   3.465  10.624 -0.4177  0.6949  0.0845
  480MOL0    Cl64710   7.260   3.441  10.447  0.0621 -0.3314 -0.6386
  480MOL0     C64711   7.142   3.516  11.577  0.8457  0.2310 -0.2784
  480MOL0     C64712   7.130   3.376  11.603  1.4337 -0.3640  0.0377
  480MOL0     O64713   7.135   3.094  11.722 -0.3416  0.3448  0.4008
  480MOL0     C64714   7.204   2.892  11.459  0.6478 -0.0610  0.7970
  480MOL0     C64715   7.210   2.770  11.406  0.3734  0.6226  0.3768
  480MOL0     N64716   7.391   2.210  11.011  0.3823  0.2697 -0.2359
  480MOL0     N64717   7.413   2.200  10.884 -0.3798 -1.0118 -0.3550
  480MOL0     C64718   8.486   2.535  10.556 -0.5393 -0.1198  0.0115
  480MOL0     C64719   8.608   2.581  10.511  0.1628  0.2120  0.4957
  480MOL0     C64720   8.999   2.776  10.506 -0.9599  0.4138  0.5178
  480MOL0     C64721   9.110   2.757  10.585 -0.8203 -0.1445 -0.4766
  480MOL0     C64722   9.239   2.817  10.547  0.0624 -0.3645  0.3486
  480MOL0     C64723   9.244   2.912  10.445 -0.9053 -0.1060 -0.0841
  480MOL0     O64724   9.364   2.961  10.401  0.5120 -0.2538 -0.0408
  480MOL0     C64725   9.377   3.100  10.387  0.7895 -0.1871  0.1941
  480MOL0     C64726   9.411   3.171  10.520  0.5550 -0.0901 -0.0409
  480MOL0     C64727   9.403   3.324  10.512 -0.4243 -0.2628  0.1735
  480MOL0     C64728   9.508   3.392  10.421  0.1779 -0.6041  0.2355
  480MOL0     C64729   9.479   3.534  10.384 -0.1340  0.2975  0.0798
  480MOL0     C64730   9.457   3.644  10.354 -0.2866 -0.8551  1.0751
  480MOL0     C64731   9.129   2.932  10.366 -0.7445  0.4116 -0.1467
  480MOL0     C64732   9.016   2.848  10.386 -0.6237  0.1590  1.0488
  480MOL0     H64733   8.595   2.901  10.613  4.9497 -1.0179 -0.0534
  480MOL0     H64734   8.395   2.804  10.739 -1.5066  0.1418 -2.0711
  480MOL0     H64735   8.223   2.461  10.517  0.3881 -0.1441  0.1243
  480MOL0     H64736   8.264   2.379  10.672  2.6918  1.3663  1.1422
  480MOL0     H64737   8.046   2.363  10.605  3.1703 -0.4114 -0.9643
  480MOL0     H64738   8.063   2.448  10.760 -0.6662 -1.2325 -0.1161
  480MOL0     H64739   8.062   2.662  10.584 -0.0935  1.0959  3.7437
  480MOL0     H64740   7.943   2.545  10.507 -0.5575 -0.0513  1.0005
  480MOL0     H64741   7.917   2.668  10.785 -1.1722 -0.0871  0.9594
  480MOL0     H64742   7.844   2.726  10.634 -1.1827  1.0046  0.3241
  480MOL0     H64743   7.790   2.464  10.783  0.4391 -0.1423 -0.5934
  480MOL0     H64744   7.674   2.584  10.751 -1.2030 -2.6976 -0.0127
  480MOL0     H64745   7.695   2.535  10.520 -0.4819 -0.3163  0.4977
  480MOL0     H64746   7.767   2.378  10.553 -0.9696 -1.3971 -0.7185
  480MOL0     H64747   7.508   2.465  10.672 -0.6118 -0.5534  0.0334
  480MOL0     H64748   7.525   2.344  10.545  0.6154 -0.8507 -0.2081
  480MOL0     H64749   7.694   2.288  10.780  0.6932  4.2073 -1.9216
  480MOL0     H64750   7.595   2.178  10.701 -1.8352  2.0508 -2.2517
  480MOL0     H64751   7.602   2.449  10.985  1.7929 -0.8974 -1.0376
  480MOL0     H64752   7.437   2.264  11.281  0.1282 -0.7459 -0.5319
  480MOL0     H64753   7.558   2.379  11.239 -0.9197  2.8550 -1.3787
  480MOL0     H64754   7.385   2.561  11.218  0.1631  0.0190  0.5673
  480MOL0     H64755   7.370   2.457  11.362  2.0749  1.2143 -0.8600
  480MOL0     H64756   7.188   2.346  11.259 -0.4063 -0.4893 -1.2233
  480MOL0     H64757   7.209   2.432  11.096 -0.8842  2.3969  0.0256
  480MOL0     H64758   7.023   2.517  11.208 -0.0894 -0.7790  0.0863
  480MOL0     H64759   7.159   2.623  11.199  1.3680 -1.7342 -0.9878
  480MOL0     H64760   6.968   2.618  11.577  0.9025 -0.9077  0.1886
  480MOL0     H64761   6.897   2.770  11.747  1.0841 -0.9008  1.0553
  480MOL0     H64762   6.966   2.917  11.774 -2.9373  1.6068 -0.5021
  480MOL0     H64763   6.847   2.913  11.642 -1.3192 -2.0933 -0.8820
  480MOL0     H64764   7.069   3.296  11.277 -0.1406 -2.9915  0.5296
  480MOL0     H64765   7.078   3.512  11.249  1.0296 -1.3147 -1.2810
  480MOL0     H64766   7.264   3.856  11.366 -1.7012  0.3670  1.7367
  480MOL0     H64767   7.284   3.708  11.289  0.4310  0.0694 -0.8212
  480MOL0     H64768   7.033   3.751  11.209 -1.2726  1.0486  1.6809
  480MOL0     H64769   7.055   3.917  11.262 -1.4768 -1.0554 -0.6284
  480MOL0     H64770   7.260   3.924  11.102  0.4412 -0.4849  1.0089
  480MOL0     H64771   7.106   3.920  11.026 -1.2715  0.6351  0.7676
  480MOL0     H64772   7.324   3.698  11.047 -0.2310 -2.2002 -2.0177
  480MOL0     H64773   7.159   3.656  11.066 -0.1071  1.2612 -0.1893
  480MOL0     H64774   7.248   3.826  10.837  0.4881  0.6554  3.1373
  480MOL0     H64775   7.087   3.740  10.861 -0.2116 -3.0341 -0.6048
  480MOL0     H64776   7.360   3.615  10.851 -0.8950  0.6713  0.9243
  480MOL0     H64777   7.201   3.531  10.861  0.7944 -1.4748 -0.6469
  480MOL0     H64778   7.337   3.633  10.615  0.6852 -2.3138 -0.9520
  480MOL0     H64779   7.151   3.648  10.627  0.0704 -1.3887  0.0848
  480MOL0     H64780   7.151   3.416  10.657  1.1003 -2.9777 -0.7115
  480MOL0     H64781   7.322   3.412  10.676 -0.1675  0.3749 -0.6147
  480MOL0     H64782   7.163   3.565  11.672  0.0130  1.4737 -0.7145
  480MOL0     H64783   7.142   3.340  11.705  0.4995 -1.8916 -0.3568
  480MOL0     H64784   7.288   2.956  11.433  1.2856 -0.4387  1.8513
  480MOL0     H64785   7.296   2.741  11.347  3.0617  0.4293  4.0412
  480MOL0     H64786   8.442   2.446  10.513  0.4372 -0.3336 -0.5646
  480MOL0     H64787   8.665   2.506  10.457  1.3107 -1.4572  3.7172
  480MOL0     H64788   9.120   2.683  10.663 -0.6370  0.7423  0.3538
  480MOL0     H64789   9.329   2.793  10.601  0.1797  0.3124  0.4602
  480MOL0     H64790   9.461   3.115  10.318  1.0730  0.2762  0.6275
  480MOL0     H64791   9.293   3.133  10.325 -0.8793 -2.9828  0.8182
  480MOL0     H64792   9.510   3.142  10.556  2.0151  1.1550 -2.7151
  480MOL0     H64793   9.333   3.141  10.590 -0.9477  0.8657 -1.2184
  480MOL0     H64794   9.416   3.371  10.610 -1.0982  4.4211 -1.6967
  480MOL0     H64795   9.302   3.345  10.476 -0.6131  0.3051  1.0094
  480MOL0     H64796   9.516   3.338  10.326 -0.0532  2.2160 -1.4971
  480MOL0     H64797   9.601   3.388  10.479 -0.1174  1.8234  0.9713
  480MOL0     H64798   9.429   3.746  10.334 -1.7286 -1.4347 -0.0909
  480MOL0     H64799   9.134   2.999  10.281 -3.5717  0.6030 -0.2753
  480MOL0     H64800   8.945   2.858  10.305  1.8697  1.8504 -1.0892
  481MOL0     O64801   2.834   9.824   1.209 -0.1898 -0.2701  0.2641
  481MOL0     C64802   2.839   9.948   1.207 -0.4982 -0.3437 -0.6851
  481MOL0     O64803   2.727  10.034   1.206  0.0257  0.1956 -0.0593
  481MOL0     C64804   2.602   9.996   1.169  0.1790  0.3205  0.2609
  481MOL0     C64805   2.540   9.870   1.176 -0.4263  1.5352  0.1592
  481MOL0     C64806   2.405   9.840   1.140 -0.1172  0.2676 -0.0292
  481MOL0     C64807   2.335   9.946   1.083  0.1499  0.1629  0.1105
  481MOL0     O64808   2.210   9.929   1.023  0.1889 -0.8929  0.4735
  481MOL0     C64809   2.144   9.803   1.028 -0.0630  0.0992 -0.5287
  481MOL0     C64810   2.017   9.799   0.930 -0.1025 -0.2958 -0.3712
  481MOL0     C64811   1.884   9.799   1.012  0.5484 -0.6608  0.2191
  481MOL0     C64812   1.845   9.679   1.109  0.4262 -0.5252  0.0540
  481MOL0     C64813   1.711   9.699   1.169 -0.7597  0.0974  0.3428
  481MOL0     C64814   1.608   9.701   1.066  0.4161 -1.0039  0.1814
  481MOL0     C64815   1.477   9.674   1.129 -0.4690 -0.5554 -0.1459
  481MOL0     C64816   1.367   9.719   1.028  0.4905  0.4309  0.2880
  481MOL0     N64817   1.239   9.658   1.068  0.6172  0.2337 -1.0358
  481MOL0     C64818   1.215   9.524   1.066 -0.5245 -0.2955 -0.5885
  481MOL0     C64819   1.080   9.515   1.085 -0.2260  0.4610 -0.0198
  481MOL0     C64820   0.988   9.392   1.095 -0.1669 -0.4545 -0.2053
  481MOL0     C64821   0.977   9.319   0.956  0.3941  0.3819 -0.5212
  481MOL0     C64822   0.906   9.186   0.958  0.1831  0.1180 -0.5150
  481MOL0     C64823   0.761   9.223   0.984 -0.6573 -0.6090 -0.2587
  481MOL0     O64824   0.680   9.116   0.946 -0.4145  0.4991  0.6134
  481MOL0     C64825   0.555   9.104   1.011  0.0103  0.8529 -1.1037
  481MOL0     C64826   0.480   9.208   1.063 -0.1340  0.4576  0.5878
  481MOL0     C64827   0.363   9.179   1.144  0.2374 -0.1526  0.1289
  481MOL0     C64828   0.293   9.301   1.216 -0.1394 -0.5049  0.6051
  481MOL0     C64829   0.314   9.045   1.163 -0.1452 -0.0589 -0.8153
  481MOL0     C64830   0.189   9.006   1.228 -0.3276 -0.2790 -0.6356
  481MOL0     O64831   0.088   9.104   1.220 -0.4732  0.6206  0.1547
  481MOL0     C64832  -0.041   9.073   1.270 -0.2904 -0.0562  0.6180
  481MOL0     C64833  -0.103   8.949   1.238  0.6156  0.9899 -0.4972
  481MOL0     C64834  -0.217   8.910   1.305  0.9728  0.0791 -0.7971
  481MOL0     C64835  -0.283   9.006   1.381 -0.0510  0.5009 -0.6967
  481MOL0     O64836  -0.408   8.994   1.438 -0.9718  0.8552 -0.6412
  481MOL0     C64837  -0.471   8.865   1.457  0.4630 -0.2029  0.4761
  481MOL0     C64838  -0.405   8.801   1.582 -0.3553  0.2645 -0.0087
  481MOL0     C64839  -0.474   8.670   1.628  0.2986 -0.8171 -0.2219
  481MOL0     C64840  -0.480   8.660   1.777  0.3139  0.5642  0.4054
  481MOL0     C64841  -0.571   8.543   1.825  0.3699  1.1614 -0.7475
  481MOL0     C64842  -0.509   8.400   1.802  0.3767 -0.3135 -0.0293
  481MOL0     C64843  -0.615   8.288   1.796 -0.6920 -0.7845 -0.6793
  481MOL0     C64844  -0.700   8.287   1.922 -0.2677  0.3343  0.4528
  481MOL0    Cl64845  -0.783   8.134   1.931  0.0788 -0.1581  0.3038
  481MOL0     C64846  -0.213   9.124   1.416  1.0341  0.8238 -0.2033
  481MOL0     C64847  -0.103   9.165   1.357 -0.6992  0.0517 -0.2488
  481MOL0     O64848   0.187   8.906   1.293 -0.3263  0.2998 -0.2794
  481MOL0     C64849   0.389   8.947   1.107  0.1103  0.3743  1.0574
  481MOL0     C64850   0.505   8.972   1.028 -0.6807  0.3253  0.6472
  481MOL0     N64851   1.023   9.644   1.079  0.3302 -0.9968 -0.4293
  481MOL0     N64852   1.122   9.729   1.092 -0.1184  0.2994 -0.9409
  481MOL0     C64853   2.386  10.071   1.077  0.0937  0.5224 -0.0352
  481MOL0     C64854   2.516  10.097   1.130  0.8198 -0.1021 -0.5751
  481MOL0     C64855   2.966  10.010   1.248 -0.6304 -0.2099 -0.5091
  481MOL0     C64856   3.089   9.952   1.216 -0.2247 -0.7341  0.2418
  481MOL0     C64857   3.209  10.013   1.245  0.6291 -0.1496 -0.1461
  481MOL0     C64858   3.198  10.141   1.315  0.3478  0.3820  0.2122
  481MOL0     O64859   3.316  10.202   1.337 -0.0783  0.7095 -0.1499
  481MOL0     C64860   3.309  10.343   1.345 -1.1451  0.0784 -0.2105
  481MOL0     C64861   3.451  10.399   1.329  0.1827  0.5088 -1.3575
  481MOL0     C64862   3.540  10.362   1.449  0.1830 -0.0466 -0.2243
  481MOL0     C64863   3.686  10.353   1.411  0.4199 -0.7440  0.4432
  481MOL0     C64864   3.756  10.265   1.508 -0.1548 -0.5319 -0.4977
  481MOL0     C64865   3.834  10.214   1.584 -0.3736  0.6288  0.5672
  481MOL0     C64866   3.075  10.194   1.365 -0.8352  0.1866  0.7094
  481MOL0     C64867   2.958  10.131   1.325  0.0895 -0.4906  1.3341
  481MOL0     H64868   2.601   9.791   1.217 -0.5197  0.5345 -1.5339
  481MOL0     H64869   2.355   9.745   1.154  1.1908 -0.3844  0.4068
  481MOL0     H64870   2.217   9.726   0.999  2.4572  1.7051  1.1061
  481MOL0     H64871   2.112   9.784   1.131  0.4684 -0.1216 -0.3990
  481MOL0     H64872   2.021   9.888   0.868  1.7813  0.4553  0.7320
  481MOL0     H64873   2.010   9.707   0.871 -3.7283 -0.2173 -0.3068
  481MOL0     H64874   1.877   9.896   1.062  0.9607 -0.7476  0.4473
  481MOL0     H64875   1.813   9.807   0.929  1.3912  1.1576 -0.3820
  481MOL0     H64876   1.854   9.581   1.062  1.8304 -0.7276  0.6881
  481MOL0     H64877   1.918   9.683   1.190  3.9376  3.9478 -2.8350
  481MOL0     H64878   1.701   9.611   1.232 -0.3754 -0.5146 -0.4369
  481MOL0     H64879   1.695   9.795   1.219 -0.9607  0.6730 -0.7733
  481MOL0     H64880   1.599   9.800   1.020  0.3824 -0.8400  0.5286
  481MOL0     H64881   1.635   9.636   0.984  1.7060  3.2231 -3.0994
  481MOL0     H64882   1.476   9.567   1.153 -0.4140 -0.6716 -0.6399
  481MOL0     H64883   1.466   9.744   1.211  2.1733  0.6144 -0.6806
  481MOL0     H64884   1.386   9.684   0.926 -0.2372 -2.0354  0.9314
  481MOL0     H64885   1.362   9.829   1.026  1.8362  0.5123 -0.0068
  481MOL0     H64886   1.274   9.433   1.062 -0.7536 -0.5528  0.9448
  481MOL0     H64887   1.042   9.319   1.157  1.3688  0.8783  0.1087
  481MOL0     H64888   0.890   9.424   1.133 -0.7079  0.9973 -2.6477
  481MOL0     H64889   1.079   9.296   0.925 -0.1182 -3.9647  0.3121
  481MOL0     H64890   0.929   9.381   0.879 -0.7802  0.7067  0.4233
  481MOL0     H64891   0.936   9.113   1.034  1.2167  0.5652 -0.4663
  481MOL0     H64892   0.920   9.141   0.860  0.0134 -1.2441  0.0677
  481MOL0     H64893   0.731   9.312   0.929 -1.1962 -1.1233 -0.8209
  481MOL0     H64894   0.750   9.247   1.090  0.5818 -1.4949  0.0952
  481MOL0     H64895   0.521   9.309   1.056  1.4067  0.2235  4.2431
  481MOL0     H64896   0.201   9.320   1.160 -1.9103 -0.1304  3.4560
  481MOL0     H64897   0.266   9.278   1.319  0.3287 -0.8932  0.6429
  481MOL0     H64898   0.360   9.388   1.219  0.1770 -0.7397  0.4029
  481MOL0     H64899  -0.053   8.882   1.168 -1.3778 -0.2235 -0.8433
  481MOL0     H64900  -0.268   8.818   1.276 -0.1369  0.8335 -1.3195
  481MOL0     H64901  -0.573   8.891   1.487  0.1256  2.8093 -2.6341
  481MOL0     H64902  -0.478   8.796   1.372 -4.6025 -0.2789  0.6688
  481MOL0     H64903  -0.299   8.784   1.563 -0.1073  0.5983  1.0088
  481MOL0     H64904  -0.419   8.875   1.661 -1.4174 -0.0127  0.0701
  481MOL0     H64905  -0.412   8.592   1.584  1.1661 -0.8970  1.0992
  481MOL0     H64906  -0.578   8.665   1.595 -0.5909 -1.0042  2.3801
  481MOL0     H64907  -0.375   8.642   1.802  0.6997  0.2856 -1.2690
  481MOL0     H64908  -0.519   8.751   1.822  0.1950  0.9333 -0.4141
  481MOL0     H64909  -0.668   8.553   1.776 -1.2882 -0.2563  1.9735
  481MOL0     H64910  -0.594   8.546   1.932 -0.9197  0.4460 -0.9804
  481MOL0     H64911  -0.445   8.387   1.714 -1.4735  0.7912 -1.6302
  481MOL0     H64912  -0.435   8.379   1.880 -0.0776 -1.8807  0.0154
  481MOL0     H64913  -0.558   8.194   1.804  1.7357  0.5909 -0.9306
  481MOL0     H64914  -0.683   8.304   1.712  0.3990 -1.3709 -1.7185
  481MOL0     H64915  -0.763   8.376   1.908 -1.1037 -0.0358  1.6849
  481MOL0     H64916  -0.638   8.315   2.008  0.5718  2.2557 -0.7030
  481MOL0     H64917  -0.252   9.193   1.490 -0.9062 -0.8679  0.4530
  481MOL0     H64918  -0.048   9.250   1.396 -0.2899 -0.7128  0.9032
  481MOL0     H64919   0.338   8.851   1.104  1.7325 -0.4994 -0.6757
  481MOL0     H64920   0.550   8.895   0.966 -0.4452  2.0236 -1.4121
  481MOL0     H64921   2.333  10.143   1.015 -0.0089 -1.0683 -1.8930
  481MOL0     H64922   2.551  10.199   1.123 -0.6380  0.4035 -0.9084
  481MOL0     H64923   3.099   9.861   1.157  1.4290  1.4573 -3.2196
  481MOL0     H64924   3.309   9.978   1.222  1.2615  2.0882 -1.1175
  481MOL0     H64925   3.240  10.394   1.277 -0.5595  2.9019  1.1445
  481MOL0     H64926   3.268  10.373   1.442  1.0716  0.4619  0.6590
  481MOL0     H64927   3.437  10.508   1.325 -0.8752  0.4771  0.3889
  481MOL0     H64928   3.499  10.374   1.234  1.5632  0.7027 -0.7303
  481MOL0     H64929   3.501  10.265   1.480 -1.3432 -0.2108 -2.3824
  481MOL0     H64930   3.537  10.432   1.533  1.0271  0.8651 -0.9264
  481MOL0     H64931   3.729  10.453   1.421 -2.5893  0.5360  1.7461
  481MOL0     H64932   3.691  10.307   1.312 -1.7219 -0.4993  0.1840
  481MOL0     H64933   3.889  10.152   1.651  0.9035  3.0736  1.8874
  481MOL0     H64934   3.074  10.288   1.419  2.2496  0.2547  0.8660
  481MOL0     H64935   2.865  10.183   1.345 -0.1576 -0.9546  1.3986
  482MOL0     O64936   9.958   2.225   0.356  0.4911 -0.8759  0.0896
  482MOL0     C64937   9.966   2.132   0.283  0.5557  0.5248  0.4912
  482MOL0     O64938   9.851   2.073   0.222 -0.0562 -0.0495 -0.4375
  482MOL0     C64939   9.721   2.076   0.270  1.4922 -0.6673  0.9943
  482MOL0     C64940   9.704   2.093   0.413 -0.0214  0.3489  0.3653
  482MOL0     C64941   9.573   2.102   0.456 -0.8258 -0.0555 -0.0709
  482MOL0     C64942   9.463   2.099   0.374  0.6155  1.0599 -1.0475
  482MOL0     O64943   9.336   2.087   0.414  0.2742  0.9637  0.1085
  482MOL0     C64944   9.278   2.108   0.542 -0.3498 -0.4566 -0.0695
  482MOL0     C64945   9.203   1.978   0.580  0.3121  1.2244 -0.9600
  482MOL0     C64946   9.128   1.983   0.721 -0.0492  0.2391 -0.5417
  482MOL0     C64947   9.076   1.844   0.781  0.3471  1.0117  0.0206
  482MOL0     C64948   8.995   1.862   0.912  0.4012 -0.3640  0.1564
  482MOL0     C64949   9.063   1.848   1.047 -0.3192 -0.7754  0.4460
  482MOL0     C64950   9.135   1.718   1.082  0.5554  0.1311  0.8021
  482MOL0     C64951   9.045   1.620   1.152  0.1722  0.2877 -0.2153
  482MOL0     N64952   9.038   1.631   1.299 -0.6456 -0.3041 -0.0545
  482MOL0     C64953   9.006   1.522   1.383 -0.3263 -0.0732  0.0567
  482MOL0     C64954   8.981   1.587   1.499  0.7341  0.3254 -0.3910
  482MOL0     C64955   8.957   1.521   1.632 -0.6060 -0.7625 -0.6688
  482MOL0     C64956   8.809   1.473   1.642  1.3750 -0.5391 -0.4835
  482MOL0     C64957   8.701   1.573   1.582 -0.1888 -0.4284 -0.1578
  482MOL0     C64958   8.557   1.549   1.628  1.4002 -0.0392  0.5077
  482MOL0     O64959   8.544   1.573   1.773  0.2484 -0.3505  0.0211
  482MOL0     C64960   8.438   1.511   1.835  0.5335  0.2629 -0.0430
  482MOL0     C64961   8.458   1.432   1.945 -0.3254  0.7363 -0.3357
  482MOL0     C64962   8.350   1.370   2.005  0.6606 -0.1659 -0.7327
  482MOL0     C64963   8.376   1.270   2.113 -0.2975  0.6772 -0.5292
  482MOL0     C64964   8.215   1.404   1.966 -0.8877 -0.0219 -0.4716
  482MOL0     C64965   8.089   1.350   2.034 -0.8797  0.0431  0.6681
  482MOL0     O64966   7.977   1.374   1.963 -0.3291 -0.2457 -0.3744
  482MOL0     C64967   7.856   1.359   2.020  0.8246 -0.1246 -0.3381
  482MOL0     C64968   7.819   1.398   2.147  0.2510 -0.3481 -0.2522
  482MOL0     C64969   7.693   1.390   2.189 -0.0818 -0.5297 -0.3488
  482MOL0     C64970   7.598   1.323   2.113  0.8174  0.2275 -0.1555
  482MOL0     O64971   7.467   1.304   2.160  0.9995 -0.0776  0.2933
  482MOL0     C64972   7.453   1.258   2.292 -0.9308  0.6323 -0.8507
  482MOL0     C64973   7.314   1.288   2.341  0.7949  0.4426 -0.1186
  482MOL0     C64974   7.305   1.428   2.410 -0.0509  0.7826  0.4160
  482MOL0     C64975   7.164   1.493   2.407  0.5798  0.6258 -0.6678
  482MOL0     C64976   7.055   1.418   2.497 -0.2741 -0.2719 -0.1526
  482MOL0     C64977   7.073   1.417   2.656 -0.0331 -0.0912  0.9293
  482MOL0     C64978   6.968   1.329   2.728  0.8664 -0.6460  0.0702
  482MOL0     C64979   6.991   1.365   2.873 -0.5240  0.4114  0.1378
  482MOL0    Cl64980   6.867   1.277   2.971  0.3963  0.2561  0.1348
  482MOL0     C64981   7.634   1.283   1.987  0.1352 -0.0118 -0.0866
  482MOL0     C64982   7.760   1.304   1.940 -0.5711  0.1610  0.2917
  482MOL0     O64983   8.094   1.298   2.145  0.1084 -0.3040 -0.8848
  482MOL0     C64984   8.200   1.501   1.864 -0.3324 -0.8875 -0.1487
  482MOL0     C64985   8.312   1.548   1.792  0.5859 -0.1025  0.5251
  482MOL0     N64986   8.985   1.720   1.496 -0.4675 -0.7275  0.4279
  482MOL0     N64987   9.018   1.745   1.372 -0.3567 -0.1947 -0.4090
  482MOL0     C64988   9.485   2.081   0.236  0.2646  0.8727  0.5672
  482MOL0     C64989   9.616   2.076   0.183 -0.6143  0.4633  0.0740
  482MOL0     C64990  10.098   2.075   0.257 -0.1935  0.4565 -0.0840
  482MOL0     C64991  10.108   1.948   0.197 -1.2792  0.3569  0.0337
  482MOL0     C64992  10.239   1.901   0.173 -0.3939  0.0709  0.3387
  482MOL0     C64993  10.359   1.980   0.201  0.3959 -0.1989  0.0709
  482MOL0     O64994  10.484   1.954   0.159 -0.0362  0.3617  0.7279
  482MOL0     C64995  10.497   1.828   0.091 -0.0801  0.1079  0.2575
  482MOL0     C64996  10.645   1.828   0.039 -0.2514  0.0261  0.9990
  482MOL0     C64997  10.693   1.909  -0.090  0.2688 -0.3975 -0.4355
  482MOL0     C64998  10.837   1.901  -0.110 -0.1835  0.3409  0.5653
  482MOL0     C64999  10.877   1.994  -0.210 -0.3262  0.3952  0.2671
  482MOL0     C65000  10.910   2.073  -0.302 -0.0201  0.8051 -0.9643
  482MOL0     C65001  10.334   2.102   0.270 -1.0475 -1.1901 -0.4680
  482MOL0     C65002  10.208   2.148   0.297  0.2019 -0.4883  0.2399
  482MOL0     H65003   9.794   2.085   0.474  1.2534  2.4752 -1.0763
  482MOL0     H65004   9.561   2.107   0.564 -1.3393 -2.3506  0.0206
  482MOL0     H65005   9.338   2.137   0.629  0.8415  0.3783 -1.1295
  482MOL0     H65006   9.200   2.180   0.518  2.8110  2.3893 -2.8664
  482MOL0     H65007   9.127   1.969   0.502 -2.1066  1.1431  1.2567
  482MOL0     H65008   9.259   1.885   0.563 -2.4382 -1.2461  2.1348
  482MOL0     H65009   9.183   2.027   0.804  0.3507 -0.5830 -0.3555
  482MOL0     H65010   9.043   2.046   0.695  0.8246  1.6106 -0.1584
  482MOL0     H65011   9.014   1.810   0.697  2.0291 -0.0110 -0.8691
  482MOL0     H65012   9.156   1.771   0.795  0.7237  1.2909 -0.6272
  482MOL0     H65013   8.948   1.961   0.903  3.7875  1.4858  1.0586
  482MOL0     H65014   8.920   1.782   0.912  2.3963 -2.3511 -1.9774
  482MOL0     H65015   9.141   1.924   1.056 -0.3265 -0.5920 -0.8699
  482MOL0     H65016   8.996   1.890   1.123  0.2846  1.8886 -0.3697
  482MOL0     H65017   9.167   1.664   0.993  0.2359 -2.4143  2.1537
  482MOL0     H65018   9.226   1.745   1.137  1.8259  1.4212 -1.7406
  482MOL0     H65019   9.092   1.524   1.131 -0.7151 -0.7948  2.4039
  482MOL0     H65020   8.939   1.628   1.129  0.0188 -1.4824 -0.2185
  482MOL0     H65021   9.021   1.418   1.357  3.7268  0.5193 -0.6886
  482MOL0     H65022   9.019   1.431   1.629  0.4487 -0.0819  0.3212
  482MOL0     H65023   8.989   1.584   1.715 -1.3367 -1.7880  0.4098
  482MOL0     H65024   8.785   1.451   1.747  1.1100 -1.8478 -0.8025
  482MOL0     H65025   8.799   1.380   1.585  1.6919  0.1436 -1.6742
  482MOL0     H65026   8.692   1.574   1.473 -1.8868  4.4171 -0.1952
  482MOL0     H65027   8.719   1.673   1.621 -2.0204 -1.0302  2.4551
  482MOL0     H65028   8.520   1.450   1.599  1.7235 -0.3906  1.2646
  482MOL0     H65029   8.497   1.622   1.573  0.1302  0.0426  1.9599
  482MOL0     H65030   8.561   1.407   1.969  0.0470  1.6644 -0.9291
  482MOL0     H65031   8.477   1.229   2.110 -1.0587 -1.3992  0.0458
  482MOL0     H65032   8.349   1.311   2.210  0.5990  1.0095 -0.4130
  482MOL0     H65033   8.312   1.182   2.100  0.0634  0.4826 -1.0284
  482MOL0     H65034   7.898   1.445   2.204  0.5186  0.5308 -1.3085
  482MOL0     H65035   7.674   1.428   2.289  0.9446 -0.6373 -0.1062
  482MOL0     H65036   7.459   1.150   2.276 -0.9332  0.6929 -1.2585
  482MOL0     H65037   7.523   1.291   2.370 -1.4828 -1.1219  0.4565
  482MOL0     H65038   7.253   1.296   2.251  0.4706 -0.8869 -0.0354
  482MOL0     H65039   7.273   1.205   2.399  4.4973 -0.3601  1.6508
  482MOL0     H65040   7.379   1.487   2.356 -0.3302  0.8797  0.1393
  482MOL0     H65041   7.341   1.414   2.513  3.4833  2.6250 -0.4253
  482MOL0     H65042   7.176   1.594   2.447  0.0187  0.3725  0.1854
  482MOL0     H65043   7.135   1.514   2.304  2.5702  2.6989 -0.9027
  482MOL0     H65044   7.057   1.314   2.462 -1.6837 -0.5427  0.4974
  482MOL0     H65045   6.957   1.459   2.470  0.0342 -0.0737 -0.9921
  482MOL0     H65046   7.171   1.374   2.673  0.3785  0.7005  0.6378
  482MOL0     H65047   7.075   1.522   2.689 -1.2118  0.4786 -0.6288
  482MOL0     H65048   6.980   1.223   2.705 -1.2127 -1.3803  1.9492
  482MOL0     H65049   6.868   1.365   2.701  0.1247  0.4669  3.7211
  482MOL0     H65050   6.987   1.473   2.887 -0.3754  0.6835 -1.6340
  482MOL0     H65051   7.086   1.323   2.907 -0.7309 -0.7216 -0.6019
  482MOL0     H65052   7.567   1.227   1.923  0.8232 -0.4179 -0.4579
  482MOL0     H65053   7.792   1.275   1.841 -1.0794  0.2069  0.1115
  482MOL0     H65054   8.107   1.543   1.828  0.6585 -1.0709 -3.2470
  482MOL0     H65055   8.286   1.610   1.707 -1.1073 -2.2315 -0.6242
  482MOL0     H65056   9.406   2.082   0.161 -1.2102  2.0699  2.0449
  482MOL0     H65057   9.636   2.071   0.077 -0.3603  2.6692 -0.0216
  482MOL0     H65058  10.015   1.896   0.176 -1.1830 -1.7887  4.0465
  482MOL0     H65059  10.239   1.803   0.127 -0.2772 -0.8402  2.1940
  482MOL0     H65060  10.464   1.747   0.157 -0.5981  0.5287  0.5223
  482MOL0     H65061  10.431   1.828   0.004 -0.7217  2.9190  0.6571
  482MOL0     H65062  10.663   1.728  -0.001  1.6039  0.9139 -0.5409
  482MOL0     H65063  10.715   1.857   0.119 -0.8779  2.7634  0.6385
  482MOL0     H65064  10.656   2.011  -0.076 -2.4362 -1.3954  0.3262
  482MOL0     H65065  10.653   1.876  -0.187  3.1012  1.5729 -2.4177
  482MOL0     H65066  10.864   1.798  -0.138 -1.6145  0.6307 -2.1883
  482MOL0     H65067  10.891   1.941  -0.024  0.5588 -0.8219  0.6741
  482MOL0     H65068  10.935   2.128  -0.390 -0.0128  0.3867 -1.2261
  482MOL0     H65069  10.426   2.150   0.303 -0.8507 -0.3432 -2.1633
  482MOL0     H65070  10.198   2.246   0.343  1.7524  0.3296 -1.0400
  483MOL0     O65071   1.030   4.531  11.298  0.1016  0.3025 -0.0212
  483MOL0     C65072   1.150   4.511  11.303 -0.6516  0.3491 -0.3876
  483MOL0     O65073   1.222   4.433  11.216 -0.0623 -0.0066 -0.0252
  483MOL0     C65074   1.150   4.393  11.103  0.0470  0.2248 -0.0875
  483MOL0     C65075   1.122   4.254  11.091 -0.1396 -0.7380  0.3395
  483MOL0     C65076   1.054   4.202  10.979  0.2132 -0.1965  0.0016
  483MOL0     C65077   1.026   4.286  10.871 -0.1280  0.0492  1.0820
  483MOL0     O65078   0.989   4.249  10.741  1.0949  0.4841 -0.9284
  483MOL0     C65079   0.999   4.115  10.695 -0.8326  0.4349  0.5894
  483MOL0     C65080   1.137   4.043  10.677  0.4580 -0.9338  0.1515
  483MOL0     C65081   1.257   4.123  10.637 -0.3141 -0.0287 -0.3094
  483MOL0     C65082   1.380   4.049  10.683 -0.1215 -0.2407  0.2341
  483MOL0     C65083   1.505   4.150  10.693 -0.1776 -0.9546 -0.3186
  483MOL0     C65084   1.510   4.250  10.805 -0.6870  0.8387 -0.3241
  483MOL0     C65085   1.539   4.185  10.942  0.3004 -0.0703 -0.1801
  483MOL0     C65086   1.544   4.291  11.058  0.0950  0.1983 -0.7803
  483MOL0     N65087   1.567   4.237  11.195 -0.7813 -0.1050 -0.0352
  483MOL0     C65088   1.513   4.124  11.250  0.1384  0.2044 -0.6250
  483MOL0     C65089   1.569   4.115  11.375 -0.0178 -0.1302  0.6388
  483MOL0     C65090   1.571   3.991  11.462  1.0864 -0.2279  0.1880
  483MOL0     C65091   1.435   3.915  11.456  0.5740  0.2200  0.9698
  483MOL0     C65092   1.317   4.005  11.501 -1.4432 -0.3970  1.5335
  483MOL0     C65093   1.175   3.953  11.465  0.1157  0.0898  0.9107
  483MOL0     O65094   1.181   3.808  11.470 -0.4631 -0.4995  0.0110
  483MOL0     C65095   1.060   3.738  11.464  0.1866  0.2026 -0.1939
  483MOL0     C65096   1.079   3.607  11.458 -0.4057  0.9551 -1.0408
  483MOL0     C65097   0.968   3.519  11.458 -0.1773  0.3035  0.0043
  483MOL0     C65098   1.003   3.368  11.447 -0.1396  0.4920 -0.3089
  483MOL0     C65099   0.838   3.573  11.444 -0.0979  0.0635  0.6629
  483MOL0     C65100   0.713   3.503  11.420 -0.1879  0.2334 -0.1344
  483MOL0     O65101   0.602   3.577  11.376  0.7905  0.0498 -0.6021
  483MOL0     C65102   0.484   3.511  11.357  0.6066  0.1853 -0.9606
  483MOL0     C65103   0.461   3.374  11.319 -0.7713 -0.4383 -0.1044
  483MOL0     C65104   0.332   3.327  11.307 -0.0741  0.1955 -0.4041
  483MOL0     C65105   0.218   3.407  11.336 -0.2167 -0.7152 -0.8215
  483MOL0     O65106   0.090   3.370  11.333  0.4194  0.0749  0.3907
  483MOL0     C65107   0.064   3.237  11.300 -0.1907 -0.0648  0.3189
  483MOL0     C65108  -0.094   3.220  11.286 -0.0247  0.2643 -0.2282
  483MOL0     C65109  -0.138   3.290  11.160  0.3795 -0.0083  0.0095
  483MOL0     C65110  -0.264   3.378  11.182 -0.2432 -0.7763  0.5116
  483MOL0     C65111  -0.383   3.288  11.211  0.4826 -0.7051 -0.6277
  483MOL0     C65112  -0.486   3.364  11.288 -0.4905  0.6282 -0.0313
  483MOL0     C65113  -0.575   3.453  11.193 -0.1101 -0.0058 -0.5125
  483MOL0     C65114  -0.653   3.568  11.269 -0.1417  0.4993 -0.9781
  483MOL0    Cl65115  -0.772   3.495  11.398 -0.1169  0.0098 -0.1708
  483MOL0     C65116   0.245   3.543  11.378 -0.4994 -0.3994  0.2272
  483MOL0     C65117   0.379   3.596  11.382  0.0839  0.9201 -0.0448
  483MOL0     O65118   0.716   3.380  11.445  1.4249  0.4043  0.0828
  483MOL0     C65119   0.823   3.707  11.457  0.3170 -0.0191 -0.0200
  483MOL0     C65120   0.933   3.794  11.466  0.3083  0.6208  0.0055
  483MOL0     N65121   1.649   4.223  11.398 -0.1548  0.5148  0.6111
  483MOL0     N65122   1.647   4.293  11.293 -0.3600  0.1684  0.6752
  483MOL0     C65123   1.055   4.424  10.887  0.9733 -1.0282  0.1196
  483MOL0     C65124   1.102   4.476  11.005 -0.6492  0.3175  0.0904
  483MOL0     C65125   1.218   4.558  11.426  1.0140 -0.2772  0.1550
  483MOL0     C65126   1.344   4.510  11.460 -0.7532  0.2502  0.8293
  483MOL0     C65127   1.406   4.532  11.588 -0.1807  0.3083 -0.6646
  483MOL0     C65128   1.336   4.612  11.685 -0.1858  0.2616  0.2233
  483MOL0     O65129   1.378   4.646  11.805  0.4265 -0.2629  0.1441
  483MOL0     C65130   1.522   4.662  11.833 -0.4479 -0.0851 -0.8679
  483MOL0     C65131   1.560   4.700  11.978 -0.2275 -0.4743 -0.8426
  483MOL0     C65132   1.507   4.830  12.019  0.6301  0.1645  0.2826
  483MOL0     C65133   1.525   4.884  12.159  0.3323 -0.6641  0.0177
  483MOL0     C65134   1.665   4.893  12.188  0.1558  0.7628 -0.2567
  483MOL0     C65135   1.781   4.892  12.226 -0.0121  0.6157  0.9207
  483MOL0     C65136   1.209   4.657  11.649  0.2834 -0.4977 -0.8061
  483MOL0     C65137   1.151   4.630  11.523  0.1246  0.1424  0.3278
  483MOL0     H65138   1.153   4.196  11.177 -0.1444  0.2834  1.0614
  483MOL0     H65139   1.037   4.097  10.954  1.2440 -0.4562  0.3338
  483MOL0     H65140   0.942   4.044  10.755  1.1809 -1.5108  0.3581
  483MOL0     H65141   0.957   4.120  10.594  0.3043 -0.3858  0.0449
  483MOL0     H65142   1.164   3.994  10.771  0.4656 -3.4570 -1.0614
  483MOL0     H65143   1.121   3.955  10.614  1.2789 -0.0334 -1.3669
  483MOL0     H65144   1.246   4.133  10.528  0.8626 -0.4204 -0.4813
  483MOL0     H65145   1.250   4.222  10.682 -1.7769 -0.8367  1.3652
  483MOL0     H65146   1.371   4.009  10.785  0.6882  1.6157  1.0749
  483MOL0     H65147   1.412   3.974  10.611 -1.3886  0.6788 -1.3618
  483MOL0     H65148   1.592   4.084  10.703 -0.5031 -1.2782  0.4089
  483MOL0     H65149   1.515   4.213  10.604  1.8698  0.7894  1.0515
  483MOL0     H65150   1.596   4.315  10.791 -2.1119  2.4821 -1.9678
  483MOL0     H65151   1.417   4.307  10.811 -1.1757  0.0496 -0.1235
  483MOL0     H65152   1.461   4.114  10.972  2.0483 -3.0862 -2.1723
  483MOL0     H65153   1.620   4.111  10.940 -2.3876 -3.3325  1.2150
  483MOL0     H65154   1.442   4.329  11.053 -0.1180 -0.3480 -0.6278
  483MOL0     H65155   1.626   4.358  11.030  0.3758  0.9986  1.7963
  483MOL0     H65156   1.449   4.048  11.206 -1.1184  0.8718 -0.0105
  483MOL0     H65157   1.649   3.921  11.431 -0.1092 -0.7060 -1.9110
  483MOL0     H65158   1.597   4.028  11.562 -1.4059  0.3256  0.6960
  483MOL0     H65159   1.441   3.820  11.509  2.4524 -1.1605 -1.5021
  483MOL0     H65160   1.417   3.885  11.352  4.4361  2.8665 -0.7126
  483MOL0     H65161   1.331   4.106  11.461 -0.0268 -0.6222  1.3911
  483MOL0     H65162   1.323   4.001  11.610 -0.6042 -3.1366  1.4724
  483MOL0     H65163   1.151   3.981  11.362  5.0717 -0.7433 -0.7440
  483MOL0     H65164   1.103   3.990  11.538 -0.5949  3.7353 -1.3965
  483MOL0     H65165   1.173   3.554  11.466 -1.0173  0.0839  1.3378
  483MOL0     H65166   0.933   3.316  11.381  0.5775  0.1546 -0.8311
  483MOL0     H65167   1.103   3.357  11.404  0.7540  1.7193  1.3424
  483MOL0     H65168   1.004   3.304  11.535  1.8213 -2.7955 -2.4609
  483MOL0     H65169   0.550   3.317  11.293  1.1643  2.3395  0.0242
  483MOL0     H65170   0.319   3.220  11.295 -2.0623  0.1246  1.5099
  483MOL0     H65171   0.108   3.212  11.204 -2.1129  0.7573 -0.8349
  483MOL0     H65172   0.100   3.165  11.375 -3.5773  0.5597  2.8054
  483MOL0     H65173  -0.117   3.114  11.268  0.8664 -0.0599  0.4960
  483MOL0     H65174  -0.132   3.246  11.385  3.1143  0.6441  0.9775
  483MOL0     H65175  -0.162   3.213  11.085 -0.8116  0.2461  0.1126
  483MOL0     H65176  -0.063   3.351  11.108 -1.4606  0.0446 -2.8279
  483MOL0     H65177  -0.246   3.452  11.260  1.9290  1.2935 -1.7554
  483MOL0     H65178  -0.275   3.428  11.085  3.2638  0.8870  0.8086
  483MOL0     H65179  -0.359   3.210  11.284 -1.4931 -1.6836 -0.9839
  483MOL0     H65180  -0.419   3.231  11.126 -1.1928 -0.4492 -0.1265
  483MOL0     H65181  -0.547   3.285  11.332 -0.8953  0.2794 -1.1761
  483MOL0     H65182  -0.441   3.421  11.370  1.0895 -0.8812  0.2039
  483MOL0     H65183  -0.646   3.386  11.145 -0.2987  1.2264 -2.0523
  483MOL0     H65184  -0.514   3.504  11.118 -0.8005 -0.1361 -1.1761
  483MOL0     H65185  -0.709   3.627  11.195 -0.4870 -0.8318 -1.8133
  483MOL0     H65186  -0.580   3.641  11.305  1.0329 -1.3094  0.4763
  483MOL0     H65187   0.168   3.616  11.403  1.7480  2.1802  0.0201
  483MOL0     H65188   0.393   3.697  11.420  2.8007  0.0815  1.4797
  483MOL0     H65189   0.732   3.764  11.440 -0.7517 -1.4566  0.7331
  483MOL0     H65190   0.907   3.899  11.469 -1.2255  0.3318 -1.5968
  483MOL0     H65191   1.032   4.483  10.799  0.7571 -1.5937 -0.2142
  483MOL0     H65192   1.105   4.584  11.010 -4.6413  0.5355  2.8674
  483MOL0     H65193   1.390   4.442  11.389 -1.2696  0.4509  0.2936
  483MOL0     H65194   1.496   4.486  11.628  0.1203  2.0874  0.8263
  483MOL0     H65195   1.570   4.569  11.801 -0.7899 -1.1151  1.3987
  483MOL0     H65196   1.562   4.743  11.772 -0.4768 -0.4047 -1.3150
  483MOL0     H65197   1.669   4.695  11.990 -0.0860 -0.5846 -2.0329
  483MOL0     H65198   1.520   4.625  12.048 -0.8892 -0.2624 -0.9879
  483MOL0     H65199   1.398   4.818  12.011  0.8511 -0.8059 -1.7642
  483MOL0     H65200   1.546   4.902  11.948 -0.1976  0.1875 -0.1646
  483MOL0     H65201   1.467   4.815  12.221 -0.8962 -0.8121 -1.2384
  483MOL0     H65202   1.479   4.983  12.172 -1.0938 -1.2639 -0.2569
  483MOL0     H65203   1.883   4.907  12.254 -0.0920  0.9261  1.0594
  483MOL0     H65204   1.159   4.716  11.725  1.2891 -0.1560 -0.4077
  483MOL0     H65205   1.051   4.668  11.505 -0.0401  0.1813  1.2601
  484MOL0     O65206   9.666   1.868   2.434  0.4687  0.0940  0.0750
  484MOL0     C65207   9.664   1.870   2.561 -0.7780  0.3677  0.3936
  484MOL0     O65208   9.576   1.935   2.638 -0.1164  0.7508  0.3072
  484MOL0     C65209   9.477   1.988   2.560 -1.0585 -0.6110  0.7131
  484MOL0     C65210   9.472   2.127   2.551  1.0507 -0.2619  0.0032
  484MOL0     C65211   9.355   2.187   2.507  0.5483 -0.1362 -1.0946
  484MOL0     C65212   9.259   2.112   2.439  0.2373  0.2460 -0.3803
  484MOL0     O65213   9.157   2.178   2.377  0.4191 -1.2812  0.1171
  484MOL0     C65214   9.078   2.261   2.469  0.2152  0.2782  0.3643
  484MOL0     C65215   8.950   2.314   2.410 -0.9059 -0.0683 -0.9055
  484MOL0     C65216   8.880   2.426   2.478  0.2869  0.5280 -0.1450
  484MOL0     C65217   8.731   2.429   2.448  0.2406 -0.2012  0.6965
  484MOL0     C65218   8.652   2.560   2.504  0.0018 -0.0368  0.4124
  484MOL0     C65219   8.601   2.546   2.650  0.0350 -0.2305 -0.6818
  484MOL0     C65220   8.495   2.442   2.684  0.2478  0.1763  0.2544
  484MOL0     C65221   8.365   2.501   2.610 -0.2121  0.0957  0.4873
  484MOL0     N65222   8.249   2.443   2.677 -0.3280 -0.1277  0.0186
  484MOL0     C65223   8.183   2.509   2.782  0.7031  0.7641  0.8009
  484MOL0     C65224   8.077   2.432   2.807  0.2845  0.5188 -0.1558
  484MOL0     C65225   7.974   2.468   2.905  0.1947  0.2453  0.4723
  484MOL0     C65226   7.831   2.438   2.856 -0.0219  1.0339  0.4715
  484MOL0     C65227   7.753   2.551   2.798 -0.1300  0.1414  0.2042
  484MOL0     C65228   7.809   2.611   2.671 -0.5052  0.6029 -0.2185
  484MOL0     O65229   7.723   2.712   2.624  0.4620 -0.0435  0.1036
  484MOL0     C65230   7.610   2.693   2.555 -0.2627 -0.1697 -0.3350
  484MOL0     C65231   7.584   2.591   2.474  0.3475  0.5356  0.7442
  484MOL0     C65232   7.462   2.581   2.397 -0.6891  0.4375 -0.3503
  484MOL0     C65233   7.450   2.463   2.302 -0.4911  0.0985  0.0472
  484MOL0     C65234   7.361   2.676   2.420  0.1644  0.4313  0.0928
  484MOL0     C65235   7.221   2.658   2.370  0.3899 -0.1917 -0.2397
  484MOL0     O65236   7.161   2.772   2.325  0.1373  0.4370  0.0890
  484MOL0     C65237   7.031   2.760   2.287  0.4642 -0.3162 -0.2467
  484MOL0     C65238   6.942   2.807   2.382 -0.3524  0.1022 -0.1762
  484MOL0     C65239   6.809   2.792   2.356  0.2286 -0.2243 -0.3216
  484MOL0     C65240   6.765   2.752   2.232 -0.1611  0.0538  0.6229
  484MOL0     O65241   6.627   2.766   2.189  0.1597  0.2653  0.1510
  484MOL0     C65242   6.515   2.787   2.282  0.2427 -0.3742 -0.6581
  484MOL0     C65243   6.399   2.685   2.254  0.0753  0.1162 -0.0339
  484MOL0     C65244   6.278   2.714   2.346  1.2697 -0.6578  0.1085
  484MOL0     C65245   6.174   2.610   2.301 -0.1838  0.6241 -0.6901
  484MOL0     C65246   6.031   2.613   2.351  0.7820  0.1948 -1.3652
  484MOL0     C65247   5.950   2.503   2.287 -0.5752  0.0293 -0.0424
  484MOL0     C65248   5.801   2.506   2.313  0.1324 -0.2416 -0.2292
  484MOL0     C65249   5.734   2.377   2.301 -0.4511 -0.1835 -0.1659
  484MOL0    Cl65250   5.557   2.384   2.362  0.0787 -0.6198 -0.2786
  484MOL0     C65251   6.857   2.704   2.134 -0.5607  0.1157 -0.0253
  484MOL0     C65252   6.993   2.711   2.157  0.8945  0.7592 -0.9424
  484MOL0     O65253   7.175   2.543   2.371  0.4426  0.4760 -0.4664
  484MOL0     C65254   7.389   2.787   2.498  0.2508  0.1154 -0.5366
  484MOL0     C65255   7.513   2.799   2.562  0.1999  0.1415 -0.9206
  484MOL0     N65256   8.074   2.326   2.723 -0.2048  0.0836 -0.1420
  484MOL0     N65257   8.179   2.327   2.649 -0.7137  0.4150 -0.0348
  484MOL0     C65258   9.270   1.972   2.452  0.0011  0.1486  0.0662
  484MOL0     C65259   9.379   1.911   2.512  0.4693 -0.8503 -0.4748
  484MOL0     C65260   9.768   1.795   2.640  0.3615  0.0738  0.3185
  484MOL0     C65261   9.735   1.755   2.771  0.3594  0.6944  0.2870
  484MOL0     C65262   9.825   1.678   2.842  0.2258 -0.7418 -0.3139
  484MOL0     C65263   9.945   1.646   2.781 -1.1400 -0.1292  0.0065
  484MOL0     O65264  10.042   1.565   2.829  0.3352  0.1035 -0.7262
  484MOL0     C65265  10.027   1.520   2.971 -0.6602  0.7323  0.2120
  484MOL0     C65266   9.941   1.400   2.992  0.5055  0.6129 -0.3145
  484MOL0     C65267   9.994   1.266   2.933  0.4320 -0.7671 -0.8595
  484MOL0     C65268   9.909   1.141   2.943  0.2741 -0.0148 -0.3155
  484MOL0     C65269   9.842   1.112   3.072  0.5261 -0.7350  0.0541
  484MOL0     C65270   9.823   1.094   3.188 -0.3907 -0.1444 -0.2222
  484MOL0     C65271   9.984   1.691   2.658  0.4154  1.4746 -1.1389
  484MOL0     C65272   9.893   1.764   2.581  0.2591  0.3868 -0.2144
  484MOL0     H65273   9.550   2.188   2.598  1.4806 -2.4610  2.3808
  484MOL0     H65274   9.357   2.295   2.507  2.5029 -0.1357 -1.5579
  484MOL0     H65275   9.053   2.208   2.561 -0.6741  0.4233  0.2187
  484MOL0     H65276   9.134   2.345   2.511  0.6304 -0.2363  0.8533
  484MOL0     H65277   8.958   2.345   2.305 -1.8158  1.5482 -0.5315
  484MOL0     H65278   8.893   2.222   2.397 -2.1976  0.6521 -0.5026
  484MOL0     H65279   8.894   2.411   2.586  0.2029 -2.1644 -0.4253
  484MOL0     H65280   8.920   2.524   2.451 -0.7715  0.9660 -0.1468
  484MOL0     H65281   8.722   2.427   2.339  1.4338 -0.9182  0.5948
  484MOL0     H65282   8.677   2.339   2.477  2.2562 -1.6256  0.2825
  484MOL0     H65283   8.715   2.650   2.502 -0.6218  0.5971  3.5611
  484MOL0     H65284   8.563   2.571   2.441  0.5507  1.3718 -0.1690
  484MOL0     H65285   8.682   2.534   2.722 -0.3348  0.5159 -0.1304
  484MOL0     H65286   8.564   2.645   2.679  1.5676  0.0229  0.5257
  484MOL0     H65287   8.529   2.344   2.651 -0.1872  0.6999 -1.8830
  484MOL0     H65288   8.480   2.429   2.792  1.6108  0.4490  0.5070
  484MOL0     H65289   8.361   2.471   2.505 -0.0774 -0.4813  0.6473
  484MOL0     H65290   8.359   2.610   2.617  2.7745  0.2818  1.2437
  484MOL0     H65291   8.212   2.601   2.831  0.8878  1.7749 -1.1066
  484MOL0     H65292   7.977   2.409   2.997 -0.8749 -1.0815 -0.2947
  484MOL0     H65293   7.989   2.575   2.924  1.2407  0.2239 -0.1349
  484MOL0     H65294   7.769   2.408   2.941 -1.6464  0.5234 -0.8303
  484MOL0     H65295   7.828   2.348   2.794 -0.6410  1.8929 -0.7971
  484MOL0     H65296   7.732   2.629   2.873 -3.0300 -0.2122 -0.0987
  484MOL0     H65297   7.658   2.511   2.763  1.3395 -1.4954 -2.1592
  484MOL0     H65298   7.818   2.527   2.602  0.1258  1.0800 -0.7419
  484MOL0     H65299   7.904   2.656   2.700  0.5640 -1.6138 -0.0801
  484MOL0     H65300   7.669   2.525   2.463 -0.0357 -0.0014  0.9345
  484MOL0     H65301   7.551   2.423   2.293 -1.2108 -1.3235 -2.8266
  484MOL0     H65302   7.380   2.385   2.333 -1.7855  0.4408 -1.8666
  484MOL0     H65303   7.423   2.485   2.198 -0.2492 -1.4762 -0.3730
  484MOL0     H65304   6.973   2.847   2.478  1.6841 -2.3951  0.3319
  484MOL0     H65305   6.755   2.840   2.436  1.1087 -0.3880  0.3864
  484MOL0     H65306   6.540   2.774   2.387 -2.8553  0.1520  0.2353
  484MOL0     H65307   6.477   2.890   2.274  0.0084 -0.5652 -2.5993
  484MOL0     H65308   6.364   2.718   2.155  0.4117  2.4137  0.5663
  484MOL0     H65309   6.433   2.581   2.258  1.3461  0.4473 -1.2072
  484MOL0     H65310   6.245   2.815   2.318  0.6791 -1.1489 -1.0635
  484MOL0     H65311   6.301   2.705   2.452 -0.8075  0.5676  0.7130
  484MOL0     H65312   6.162   2.618   2.192  0.3325  0.2247 -0.7851
  484MOL0     H65313   6.211   2.510   2.325 -1.2357  0.4451  0.2588
  484MOL0     H65314   5.984   2.708   2.325  1.4075  0.6425 -0.9107
  484MOL0     H65315   6.029   2.591   2.458 -1.2501  1.5009 -1.0950
  484MOL0     H65316   5.967   2.494   2.179 -2.3136 -1.2520 -0.2624
  484MOL0     H65317   6.000   2.410   2.315  2.3404  0.7868 -2.1822
  484MOL0     H65318   5.763   2.578   2.240  0.4767  0.9850  0.7531
  484MOL0     H65319   5.781   2.547   2.413  2.4102  1.1807 -0.2797
  484MOL0     H65320   5.792   2.308   2.363  1.5051  1.6889  0.1801
  484MOL0     H65321   5.734   2.354   2.194 -2.1199 -0.3529 -0.1642
  484MOL0     H65322   6.814   2.676   2.039 -0.6218 -3.5494  0.9237
  484MOL0     H65323   7.059   2.665   2.084  0.1013 -3.0646  0.5120
  484MOL0     H65324   7.318   2.868   2.504 -2.8441 -2.4370 -0.3741
  484MOL0     H65325   7.533   2.897   2.606  1.9958 -1.0765  1.1782
  484MOL0     H65326   9.190   1.912   2.410  2.1545 -1.3525 -2.2339
  484MOL0     H65327   9.385   1.805   2.535  0.7497 -1.0718 -1.5291
  484MOL0     H65328   9.634   1.785   2.800  0.0782  0.3275 -0.2865
  484MOL0     H65329   9.813   1.639   2.943  1.5398 -0.3836 -0.0041
  484MOL0     H65330  10.130   1.493   2.996 -0.0322  0.9547 -1.9234
  484MOL0     H65331  10.016   1.605   3.039  1.9223  2.9787 -1.9414
  484MOL0     H65332   9.841   1.421   2.955 -0.3714 -4.6211 -1.7540
  484MOL0     H65333   9.931   1.386   3.100  0.5869  0.4398 -0.3285
  484MOL0     H65334  10.085   1.237   2.985  1.0703  0.9007 -0.9637
  484MOL0     H65335  10.034   1.300   2.836 -0.3099  0.1033 -0.8785
  484MOL0     H65336   9.986   1.065   2.927  3.1346  2.7365 -0.5672
  484MOL0     H65337   9.839   1.139   2.859  1.7530  0.2652 -1.5835
  484MOL0     H65338   9.825   1.072   3.293 -0.3824  0.3091 -0.1251
  484MOL0     H65339  10.079   1.666   2.611 -0.1821 -0.9119 -1.1846
  484MOL0     H65340   9.930   1.796   2.484  2.4165 -1.4424 -0.0617
  485MOL0     O65341   2.016   6.440   0.170 -0.9565  0.1031  0.3254
  485MOL0     C65342   1.995   6.323   0.185 -0.2602  1.0673 -1.4521
  485MOL0     O65343   1.874   6.264   0.208 -0.4387  0.5234 -0.4637
  485MOL0     C65344   1.761   6.331   0.186  0.4025  0.4628  0.7685
  485MOL0     C65345   1.739   6.412   0.074 -0.3208 -0.3487  0.5910
  485MOL0     C65346   1.611   6.457   0.042  0.3063  1.0046 -0.0596
  485MOL0     C65347   1.508   6.430   0.126 -0.6714 -0.8745  0.0036
  485MOL0     O65348   1.381   6.472   0.102  0.5661  0.8421  0.0047
  485MOL0     C65349   1.357   6.605   0.109 -0.0479 -0.2301 -0.4800
  485MOL0     C65350   1.211   6.624   0.154 -0.1917 -0.3036 -0.0366
  485MOL0     C65351   1.183   6.555   0.289  0.6359 -0.1535  0.3563
  485MOL0     C65352   1.061   6.612   0.350  0.6158 -0.4598  0.0595
  485MOL0     C65353   1.029   6.506   0.461  0.4351 -0.6795 -0.4031
  485MOL0     C65354   0.892   6.552   0.522  0.6393  0.1105 -0.6010
  485MOL0     C65355   0.838   6.432   0.611 -0.0707  0.3939 -0.2909
  485MOL0     C65356   0.705   6.465   0.675  0.2917 -0.2296  0.1536
  485MOL0     N65357   0.636   6.360   0.740  0.3677  0.2651  0.0276
  485MOL0     C65358   0.506   6.309   0.704  0.5101 -0.3502 -0.4313
  485MOL0     C65359   0.507   6.185   0.761  0.1368 -0.5470  1.3389
  485MOL0     C65360   0.393   6.079   0.762 -0.4711  0.7581  0.3637
  485MOL0     C65361   0.316   6.077   0.892  0.3206 -0.4662 -0.0120
  485MOL0     C65362   0.207   5.973   0.883  0.3317 -0.7474 -0.3114
  485MOL0     C65363   0.081   6.048   0.826 -0.5909  0.2651  0.2822
  485MOL0     O65364  -0.029   6.015   0.910 -0.3627 -0.5505 -0.4202
  485MOL0     C65365  -0.085   6.126   0.970 -0.2101 -0.2849 -1.4051
  485MOL0     C65366  -0.213   6.171   0.942 -1.3290 -0.3240  0.2222
  485MOL0     C65367  -0.271   6.279   1.007  0.0642 -0.1455 -0.3424
  485MOL0     C65368  -0.408   6.307   0.951  1.5835  0.7077  0.2613
  485MOL0     C65369  -0.209   6.332   1.126 -0.0293 -0.6679 -0.3196
  485MOL0     C65370  -0.261   6.452   1.201  0.5666 -0.3858 -0.0632
  485MOL0     O65371  -0.360   6.538   1.148  0.1737 -0.5706  0.6451
  485MOL0     C65372  -0.415   6.629   1.242 -0.5495 -0.9460  0.1789
  485MOL0     C65373  -0.391   6.766   1.235  0.6589  0.2163  0.0007
  485MOL0     C65374  -0.456   6.851   1.330 -0.4691 -0.2048  1.1466
  485MOL0     C65375  -0.530   6.796   1.430 -0.2328 -0.1528 -0.2450
  485MOL0     O65376  -0.581   6.880   1.532  1.2303  0.5638  0.0435
  485MOL0     C65377  -0.706   6.844   1.605  0.1071  0.1656 -0.4333
  485MOL0     C65378  -0.787   6.966   1.653 -0.1293  0.1424  0.2028
  485MOL0     C65379  -0.930   6.929   1.707 -0.1857  0.4136  0.8608
  485MOL0     C65380  -0.966   6.996   1.835 -0.2024 -0.5925  0.6861
  485MOL0     C65381  -0.897   6.931   1.953  0.0802  0.4548  0.6332
  485MOL0     C65382  -0.942   7.006   2.073  0.6409 -0.2557  0.5500
  485MOL0     C65383  -0.848   7.130   2.103 -0.8659 -0.5883  0.2751
  485MOL0     C65384  -0.849   7.152   2.256  0.0601  0.0650  0.7359
  485MOL0    Cl65385  -0.718   7.274   2.291 -0.4236 -0.4514 -0.1743
  485MOL0     C65386  -0.552   6.659   1.443  0.1198 -0.6750  0.3202
  485MOL0     C65387  -0.498   6.579   1.346  0.1714 -0.4000 -0.1392
  485MOL0     O65388  -0.200   6.477   1.303  0.3970 -0.1945 -0.3308
  485MOL0     C65389  -0.082   6.284   1.160  0.1535 -0.2161 -0.9930
  485MOL0     C65390  -0.019   6.184   1.085  0.6719 -0.2174 -0.4903
  485MOL0     N65391   0.620   6.159   0.826  0.3417 -0.4796 -0.4420
  485MOL0     N65392   0.695   6.262   0.816 -0.3985  0.2783  0.1200
  485MOL0     C65393   1.530   6.353   0.248  0.2164 -1.0526 -1.0804
  485MOL0     C65394   1.660   6.306   0.273  0.8759  0.0568  1.0566
  485MOL0     C65395   2.122   6.243   0.213 -1.3266 -0.5859 -0.8353
  485MOL0     C65396   2.108   6.105   0.235 -0.3635 -0.2496 -0.7165
  485MOL0     C65397   2.216   6.022   0.258 -0.2809  1.4998  0.3799
  485MOL0     C65398   2.346   6.072   0.253  0.7966  0.0869  0.2051
  485MOL0     O65399   2.445   5.977   0.239 -0.3786 -0.3713 -0.2800
  485MOL0     C65400   2.578   6.015   0.240 -0.1401  1.0412 -0.4951
  485MOL0     C65401   2.648   5.879   0.242 -0.0195  0.4559  0.7892
  485MOL0     C65402   2.799   5.905   0.246 -0.0009  1.0641  0.1786
  485MOL0     C65403   2.858   5.957   0.115  0.6023  0.2918 -0.7012
  485MOL0     C65404   2.989   5.901   0.097 -0.4471 -0.3659 -0.7823
  485MOL0     C65405   3.107   5.865   0.077 -0.3000  0.2116  0.1172
  485MOL0     C65406   2.365   6.210   0.252 -0.4789 -0.0190 -0.0849
  485MOL0     C65407   2.256   6.295   0.228  0.6385  0.1083  0.8888
  485MOL0     H65408   1.830   6.431   0.018 -2.4804 -1.0820 -3.5117
  485MOL0     H65409   1.593   6.512  -0.050  0.9443  1.0462 -0.1666
  485MOL0     H65410   1.425   6.658   0.176 -2.0567 -2.9842  4.1669
  485MOL0     H65411   1.352   6.641   0.005 -0.5243 -3.2274 -1.5839
  485MOL0     H65412   1.218   6.731   0.172  2.1915  0.0307 -2.3091
  485MOL0     H65413   1.144   6.597   0.073  0.0066  0.1513 -0.3515
  485MOL0     H65414   1.174   6.447   0.278  1.9981 -0.1551 -1.1400
  485MOL0     H65415   1.264   6.566   0.361 -0.0170  3.5289  0.7102
  485MOL0     H65416   1.090   6.710   0.389  0.9295 -0.3939 -0.3313
  485MOL0     H65417   0.982   6.630   0.277  1.3925  1.4988 -0.3636
  485MOL0     H65418   1.011   6.405   0.423 -1.5297 -1.2724  1.8980
  485MOL0     H65419   1.111   6.511   0.533  0.1755 -1.4936 -0.0440
  485MOL0     H65420   0.897   6.637   0.592 -0.5067 -2.4690  2.9003
  485MOL0     H65421   0.820   6.581   0.446  0.3017  2.1553  0.4070
  485MOL0     H65422   0.824   6.346   0.545 -1.4922  0.0234  0.4506
  485MOL0     H65423   0.905   6.407   0.694 -1.4515  1.1566  1.1013
  485MOL0     H65424   0.643   6.514   0.600 -0.8271 -0.5435  0.8471
  485MOL0     H65425   0.719   6.539   0.754  0.9273 -0.4979  0.3080
  485MOL0     H65426   0.433   6.364   0.647  0.7522  1.5620  0.9895
  485MOL0     H65427   0.319   6.107   0.687  0.8734 -0.7781 -1.6387
  485MOL0     H65428   0.427   5.977   0.743 -1.0811  0.8107 -1.0675
  485MOL0     H65429   0.275   6.172   0.926  2.6223  0.4709  0.3246
  485MOL0     H65430   0.387   6.043   0.968  1.9532  0.2064 -1.1880
  485MOL0     H65431   0.187   5.952   0.988  3.4980 -1.4514  0.2519
  485MOL0     H65432   0.237   5.876   0.843  1.3785 -0.2016 -0.8882
  485MOL0     H65433   0.054   6.014   0.726  1.5548  1.2922 -0.7004
  485MOL0     H65434   0.097   6.156   0.825 -2.9505  0.6607  0.0672
  485MOL0     H65435  -0.245   6.125   0.849 -1.7658 -0.5098  0.4631
  485MOL0     H65436  -0.401   6.367   0.860  1.9468  0.2850  0.0022
  485MOL0     H65437  -0.461   6.217   0.918  0.7093  2.5622 -3.9598
  485MOL0     H65438  -0.461   6.356   1.033  0.7021  2.3377 -1.2353
  485MOL0     H65439  -0.331   6.799   1.151 -1.5278  0.1330 -1.6874
  485MOL0     H65440  -0.458   6.957   1.307 -1.0333 -1.1118 -4.1241
  485MOL0     H65441  -0.768   6.802   1.525  0.0259 -3.5185  1.3898
  485MOL0     H65442  -0.694   6.775   1.689  0.8195  1.2310  0.3619
  485MOL0     H65443  -0.728   7.012   1.732  0.2992  1.4055 -0.8083
  485MOL0     H65444  -0.801   7.039   1.572  0.9806 -1.4171 -1.4836
  485MOL0     H65445  -0.950   6.822   1.717  1.0557 -0.3291 -3.1003
  485MOL0     H65446  -1.002   6.965   1.634  0.1723  0.6197  0.6075
  485MOL0     H65447  -0.932   7.099   1.825  1.5642 -1.2755 -1.1693
  485MOL0     H65448  -1.075   6.996   1.849 -0.5853  3.1176 -0.9856
  485MOL0     H65449  -0.788   6.924   1.946 -0.0075 -3.6381  0.9998
  485MOL0     H65450  -0.935   6.829   1.966 -0.1927  0.2803 -1.2394
  485MOL0     H65451  -1.045   7.034   2.048  0.6676 -2.6326 -2.8644
  485MOL0     H65452  -0.948   6.932   2.152 -2.4225  1.0713  1.7023
  485MOL0     H65453  -0.862   7.225   2.051  0.4635 -0.3681  0.2756
  485MOL0     H65454  -0.744   7.097   2.087 -1.3103 -2.7761  1.5617
  485MOL0     H65455  -0.818   7.058   2.303  0.4323  0.1738  0.7146
  485MOL0     H65456  -0.948   7.172   2.298  0.9214 -1.5597  3.8235
  485MOL0     H65457  -0.605   6.605   1.522  0.8240 -0.9227  0.6316
  485MOL0     H65458  -0.515   6.472   1.353 -1.5552 -0.1625 -0.2296
  485MOL0     H65459  -0.020   6.337   1.232  0.1955  0.2929 -1.3965
  485MOL0     H65460   0.075   6.147   1.123 -0.4486  0.8487  3.9185
  485MOL0     H65461   1.448   6.350   0.319  1.1736  2.9756  0.4985
  485MOL0     H65462   1.678   6.243   0.359 -1.1673 -2.7845 -0.4272
  485MOL0     H65463   2.011   6.057   0.236  1.4751 -4.5204  0.6264
  485MOL0     H65464   2.177   5.921   0.256 -3.5275  2.6012  1.1655
  485MOL0     H65465   2.597   6.078   0.153 -1.7004 -1.3468 -2.7366
  485MOL0     H65466   2.605   6.076   0.326  1.2933  1.5125 -1.2576
  485MOL0     H65467   2.618   5.814   0.160  0.8658  0.4489  0.4672
  485MOL0     H65468   2.617   5.833   0.337  0.7773 -0.9259  0.4048
  485MOL0     H65469   2.859   5.819   0.279 -0.6141  0.1276 -1.0906
  485MOL0     H65470   2.833   5.972   0.326 -1.3676  0.2322  1.5199
  485MOL0     H65471   2.864   6.066   0.122  3.3603  0.1101  0.7936
  485MOL0     H65472   2.790   5.920   0.038  0.1688  0.4000 -0.3777
  485MOL0     H65473   3.199   5.812   0.064  0.2165  0.5899  1.9124
  485MOL0     H65474   2.468   6.243   0.262 -0.0844 -1.6084  2.0655
  485MOL0     H65475   2.282   6.399   0.217  3.2724 -0.4355  1.4132
  486MOL0     O65476   9.702   3.769   4.359  0.4203  0.1361  0.4151
  486MOL0     C65477   9.659   3.830   4.458 -0.4178 -0.1917  0.2316
  486MOL0     O65478   9.530   3.847   4.490  0.1836 -0.0183  0.2013
  486MOL0     C65479   9.434   3.773   4.425 -0.0638 -0.4641 -0.1664
  486MOL0     C65480   9.430   3.628   4.433 -0.1998  0.0974 -0.7558
  486MOL0     C65481   9.326   3.554   4.374  0.4937 -0.5301  0.0130
  486MOL0     C65482   9.235   3.616   4.289  1.0555  0.2091  0.3628
  486MOL0     O65483   9.160   3.538   4.203  0.3576  0.0097 -0.7779
  486MOL0     C65484   9.052   3.594   4.129  0.4054 -0.3709 -0.4871
  486MOL0     C65485   8.973   3.475   4.087 -0.3236  0.3222  0.4133
  486MOL0     C65486   8.834   3.518   4.085  0.5689 -0.4425  0.6559
  486MOL0     C65487   8.736   3.411   4.022  0.2712  0.1775 -0.1393
  486MOL0     C65488   8.606   3.464   3.961  0.5195 -0.1327  0.0726
  486MOL0     C65489   8.522   3.348   3.916 -0.3825  0.0891 -0.5804
  486MOL0     C65490   8.381   3.394   3.868  0.1680 -0.7653 -0.3143
  486MOL0     C65491   8.288   3.280   3.851  0.3387 -0.5670 -0.4041
  486MOL0     N65492   8.151   3.309   3.805 -0.3203  0.2873  0.4908
  486MOL0     C65493   8.115   3.366   3.687 -0.4681 -0.3161 -0.5244
  486MOL0     C65494   7.985   3.408   3.699 -0.9523  1.2313  0.1018
  486MOL0     C65495   7.917   3.480   3.589 -0.3264 -0.4000 -0.0997
  486MOL0     C65496   7.771   3.510   3.629 -0.0790 -0.1940 -0.4618
  486MOL0     C65497   7.708   3.587   3.507  0.1049  0.1744 -0.3375
  486MOL0     C65498   7.559   3.597   3.506 -0.2642 -0.6947 -0.4712
  486MOL0     O65499   7.525   3.674   3.391  0.6511 -0.2213  0.6711
  486MOL0     C65500   7.388   3.675   3.358 -0.5125 -0.0920  0.0986
  486MOL0     C65501   7.351   3.715   3.230  0.0477 -0.1897  0.5246
  486MOL0     C65502   7.209   3.725   3.197 -0.5537  0.1538 -0.1136
  486MOL0     C65503   7.176   3.797   3.071 -0.1486  0.8285 -0.0352
  486MOL0     C65504   7.109   3.689   3.300 -0.2056  0.7646  0.9263
  486MOL0     C65505   6.954   3.684   3.279 -0.7978 -0.9776 -0.2415
  486MOL0     O65506   6.878   3.634   3.378 -0.0387  0.0165  0.0353
  486MOL0     C65507   6.744   3.632   3.374  0.2998  0.5325 -0.2809
  486MOL0     C65508   6.676   3.705   3.478 -1.0064  0.1897  0.7964
  486MOL0     C65509   6.531   3.696   3.476  0.0363 -0.2977 -0.6617
  486MOL0     C65510   6.461   3.635   3.370 -0.6262 -0.1448  0.5016
  486MOL0     O65511   6.322   3.644   3.375  0.0873 -0.9840 -0.4040
  486MOL0     C65512   6.240   3.597   3.271 -0.1516  0.8634 -0.1632
  486MOL0     C65513   6.099   3.629   3.300 -0.0762  0.0222 -0.5900
  486MOL0     C65514   6.021   3.527   3.380  0.0690 -0.7999  0.5062
  486MOL0     C65515   5.951   3.414   3.304  0.0498 -0.3218  0.2615
  486MOL0     C65516   5.853   3.328   3.392  0.5955  0.0133 -0.3390
  486MOL0     C65517   5.725   3.410   3.438  0.3945  0.8266 -0.0159
  486MOL0     C65518   5.628   3.298   3.477  0.1840  0.3028  0.3773
  486MOL0     C65519   5.505   3.364   3.533 -0.2699 -0.3528  0.0981
  486MOL0    Cl65520   5.404   3.243   3.592 -0.1431 -0.1649  0.0653
  486MOL0     C65521   6.528   3.572   3.266  0.1720 -0.3011 -0.3826
  486MOL0     C65522   6.669   3.564   3.271 -0.3769 -0.2699 -0.9006
  486MOL0     O65523   6.905   3.735   3.176 -0.7907 -0.3329  0.5004
  486MOL0     C65524   7.160   3.641   3.424  1.1767 -1.3281 -0.1356
  486MOL0     C65525   7.292   3.637   3.450  0.1535  1.0098  0.2255
  486MOL0     N65526   7.940   3.368   3.822  0.2498  0.7608  0.5534
  486MOL0     N65527   8.038   3.303   3.881 -0.2420 -0.0607 -0.2352
  486MOL0     C65528   9.228   3.759   4.277 -1.1192  0.4389  0.3141
  486MOL0     C65529   9.336   3.831   4.343  0.7981  0.7420  0.1455
  486MOL0     C65530   9.768   3.889   4.549 -0.1450 -0.1691 -0.3846
  486MOL0     C65531   9.907   3.864   4.536 -0.0399 -0.2769 -1.0532
  486MOL0     C65532  10.004   3.923   4.610 -0.0466  0.1514 -0.1666
  486MOL0     C65533   9.973   4.028   4.685  0.0792  0.4149  0.7040
  486MOL0     O65534  10.060   4.107   4.749  0.2203 -0.0315 -0.1986
  486MOL0     C65535  10.202   4.105   4.726  0.0108 -0.1025 -1.1433
  486MOL0     C65536  10.254   4.120   4.870  0.3766 -0.4707  0.0651
  486MOL0     C65537  10.269   4.268   4.912  0.3741  0.5277 -0.3687
  486MOL0     C65538  10.348   4.295   5.044 -0.1443 -0.6123  0.4882
  486MOL0     C65539  10.311   4.213   5.162  0.4431  1.3106  0.3671
  486MOL0     C65540  10.282   4.139   5.247 -0.7279  0.4153 -0.6844
  486MOL0     C65541   9.833   4.058   4.707 -0.1521  0.3264  1.1171
  486MOL0     C65542   9.728   3.993   4.637 -0.1715 -0.0510 -0.3261
  486MOL0     H65543   9.505   3.585   4.498 -0.6368  0.6503  0.1318
  486MOL0     H65544   9.345   3.447   4.376 -0.6945 -0.7470  0.5355
  486MOL0     H65545   8.992   3.661   4.191  1.2277 -0.1367  0.0836
  486MOL0     H65546   9.090   3.652   4.045  0.1826  2.9043  1.5064
  486MOL0     H65547   8.995   3.445   3.985 -1.6480  0.3538  0.1074
  486MOL0     H65548   8.978   3.391   4.157 -3.0567  0.2267  0.5806
  486MOL0     H65549   8.803   3.527   4.189 -1.4766 -2.4901  0.3002
  486MOL0     H65550   8.822   3.617   4.040  0.5203 -1.8459 -2.7568
  486MOL0     H65551   8.786   3.363   3.938  0.7839 -1.8616  1.2370
  486MOL0     H65552   8.716   3.334   4.098 -1.0459 -1.6529 -2.1988
  486MOL0     H65553   8.546   3.528   4.027 -0.6716 -1.0003 -0.1526
  486MOL0     H65554   8.628   3.522   3.871 -1.0906 -0.8736 -0.8261
  486MOL0     H65555   8.581   3.282   3.852 -0.2056  1.1775 -1.5748
  486MOL0     H65556   8.505   3.287   4.005 -1.1642 -0.2094 -0.9230
  486MOL0     H65557   8.349   3.454   3.953  2.3059  1.0959 -0.7157
  486MOL0     H65558   8.396   3.441   3.770  0.4318 -2.3974 -1.0920
  486MOL0     H65559   8.281   3.212   3.936 -0.8630 -0.8364 -0.7035
  486MOL0     H65560   8.329   3.217   3.772  1.6425  0.9219 -0.9859
  486MOL0     H65561   8.174   3.385   3.597 -0.8805  4.2499 -0.0386
  486MOL0     H65562   7.968   3.576   3.575  0.8761 -0.4129  3.2543
  486MOL0     H65563   7.912   3.404   3.510  0.7172 -0.8819  0.2716
  486MOL0     H65564   7.758   3.570   3.720 -1.5917  0.6372 -1.1810
  486MOL0     H65565   7.717   3.416   3.643  2.2256 -1.2961  1.8371
  486MOL0     H65566   7.741   3.525   3.424 -1.5038 -1.6375  0.3072
  486MOL0     H65567   7.761   3.682   3.496  0.6071 -0.1480 -0.7710
  486MOL0     H65568   7.521   3.639   3.599  0.5317 -1.3955  0.1819
  486MOL0     H65569   7.518   3.496   3.499  1.0231 -1.2556 -0.2634
  486MOL0     H65570   7.428   3.742   3.160  1.0626  0.6097  1.8975
  486MOL0     H65571   7.267   3.822   3.014  0.4052  0.3816  0.6373
  486MOL0     H65572   7.103   3.756   3.000  0.9552  1.1668 -1.4115
  486MOL0     H65573   7.131   3.895   3.090 -0.0162  1.2030 -1.5315
  486MOL0     H65574   6.730   3.773   3.543 -2.5433  0.9332  1.3670
  486MOL0     H65575   6.472   3.744   3.553 -0.3921 -3.0242  0.8692
  486MOL0     H65576   6.267   3.656   3.183  0.7969  1.8179  0.7356
  486MOL0     H65577   6.271   3.493   3.257  2.0563  1.4054  0.2649
  486MOL0     H65578   6.103   3.719   3.361  3.8035 -0.3983  0.0117
  486MOL0     H65579   6.053   3.636   3.201 -1.5695  0.5137  0.0998
  486MOL0     H65580   5.942   3.586   3.428  0.6828  1.5129 -1.1247
  486MOL0     H65581   6.083   3.493   3.464  1.6159  3.9600  1.6495
  486MOL0     H65582   5.894   3.461   3.223  1.6357  0.4563 -0.4473
  486MOL0     H65583   6.032   3.357   3.257  0.8854  1.2541 -0.2724
  486MOL0     H65584   5.907   3.296   3.481 -0.0002  2.9146  1.1955
  486MOL0     H65585   5.826   3.241   3.331 -1.3174 -0.7642  1.4922
  486MOL0     H65586   5.750   3.473   3.524  3.2052 -0.6662  0.3838
  486MOL0     H65587   5.684   3.474   3.359  2.9454  4.2076  1.1979
  486MOL0     H65588   5.676   3.246   3.561  1.1191  3.8510  2.2398
  486MOL0     H65589   5.614   3.234   3.389 -3.2296  0.6994  0.5130
  486MOL0     H65590   5.455   3.416   3.450 -1.1786  2.5012  2.2976
  486MOL0     H65591   5.529   3.432   3.614  1.3642  1.8722 -2.1146
  486MOL0     H65592   6.471   3.524   3.186  0.4700 -1.3031 -0.0070
  486MOL0     H65593   6.721   3.514   3.190  2.7827 -0.2249  0.9304
  486MOL0     H65594   7.086   3.607   3.496 -2.3192  3.8121 -0.7103
  486MOL0     H65595   7.321   3.585   3.540  0.4601 -1.6100 -1.2880
  486MOL0     H65596   9.167   3.815   4.207 -2.8647  1.5022  2.5691
  486MOL0     H65597   9.331   3.940   4.339 -2.7593  1.0914  5.0429
  486MOL0     H65598   9.939   3.777   4.479  2.9839 -1.5748  2.2096
  486MOL0     H65599  10.104   3.889   4.584 -0.0812  1.1836 -1.7756
  486MOL0     H65600  10.242   4.013   4.683 -0.9013 -1.7671  1.3174
  486MOL0     H65601  10.223   4.193   4.664 -0.8141  0.9144 -0.0459
  486MOL0     H65602  10.357   4.086   4.888  0.3011 -0.0405  1.3701
  486MOL0     H65603  10.188   4.064   4.937 -1.3116  0.5938 -0.6287
  486MOL0     H65604  10.166   4.295   4.937 -0.4502 -0.6136 -2.2815
  486MOL0     H65605  10.305   4.325   4.826 -0.6619  1.6907 -0.0585
  486MOL0     H65606  10.331   4.398   5.074  0.7733 -0.0116 -0.9550
  486MOL0     H65607  10.456   4.292   5.024 -0.2690 -0.2361 -0.2866
  486MOL0     H65608  10.258   4.067   5.322 -0.1183 -0.6903 -1.5084
  486MOL0     H65609   9.797   4.142   4.766 -1.7267  0.2223  0.3505
  486MOL0     H65610   9.622   4.014   4.645 -0.0835  0.6899 -0.9952
  487MOL0     O65611   8.141   0.232   3.073  0.5484  0.4990 -0.4508
  487MOL0     C65612   8.103   0.157   3.162  0.8485  0.9568 -0.0456
  487MOL0     O65613   7.971   0.102   3.176  0.4153  0.5878  0.0690
  487MOL0     C65614   7.867   0.174   3.123 -0.0372  0.1336 -0.1053
  487MOL0     C65615   7.861   0.308   3.086  0.2701 -0.5764 -0.1483
  487MOL0     C65616   7.737   0.367   3.042  0.1993 -0.0712 -0.6195
  487MOL0     C65617   7.610   0.299   3.051  1.3126  0.1336 -0.8433
  487MOL0     O65618   7.485   0.345   3.003  0.0168 -0.0413 -0.3245
  487MOL0     C65619   7.427   0.432   3.092  0.5279 -0.2260 -0.2633
  487MOL0     C65620   7.291   0.468   3.053  0.0393  1.2520 -0.2611
  487MOL0     C65621   7.202   0.348   3.045  0.0301 -0.4650 -0.2210
  487MOL0     C65622   7.063   0.374   2.990 -0.9101 -0.4064  0.7624
  487MOL0     C65623   6.972   0.253   3.014 -0.1591 -0.2573 -0.1423
  487MOL0     C65624   6.831   0.272   2.963  0.2011  0.7111  0.5741
  487MOL0     C65625   6.818   0.305   2.807 -0.1823  0.9482 -0.6909
  487MOL0     C65626   6.686   0.370   2.767 -0.4242 -0.2135 -0.4983
  487MOL0     N65627   6.573   0.289   2.815  0.1076  0.3582 -0.3150
  487MOL0     C65628   6.464   0.252   2.731 -0.8374  1.0273 -0.8036
  487MOL0     C65629   6.360   0.213   2.811 -0.5129  0.0656 -0.7343
  487MOL0     C65630   6.215   0.182   2.777  0.3805 -0.3557 -0.0473
  487MOL0     C65631   6.175   0.032   2.778 -0.1846 -0.1344 -0.1606
  487MOL0     C65632   6.028   0.010   2.809  0.4296  0.1191 -0.1957
  487MOL0     C65633   5.988  -0.135   2.811  0.4243  0.5191  0.0720
  487MOL0     O65634   6.028  -0.195   2.684 -0.6438 -0.3734  0.2385
  487MOL0     C65635   5.923  -0.245   2.619 -0.1773 -0.2773  0.9728
  487MOL0     C65636   5.887  -0.377   2.648  0.0569  0.6705 -0.1755
  487MOL0     C65637   5.783  -0.449   2.583  0.6485 -0.4578  0.2445
  487MOL0     C65638   5.772  -0.593   2.621  0.7410 -0.0045 -0.6329
  487MOL0     C65639   5.702  -0.385   2.481  0.9205 -0.8558 -0.2127
  487MOL0     C65640   5.591  -0.446   2.406  0.2250 -0.1398  0.0774
  487MOL0     O65641   5.568  -0.577   2.438  0.4292  0.5203 -0.1948
  487MOL0     C65642   5.510  -0.663   2.345  0.6917 -0.3576 -0.5586
  487MOL0     C65643   5.390  -0.628   2.270 -0.2016  0.2324 -0.3034
  487MOL0     C65644   5.343  -0.706   2.164  0.4180 -0.9642 -0.6137
  487MOL0     C65645   5.409  -0.821   2.141  0.3021  0.1110  1.1397
  487MOL0     O65646   5.378  -0.904   2.035 -0.6342 -0.2721  0.2223
  487MOL0     C65647   5.250  -0.900   1.970 -0.8971  0.6985  0.0538
  487MOL0     C65648   5.275  -0.846   1.830 -0.1741 -0.8679  0.0775
  487MOL0     C65649   5.352  -0.943   1.739 -0.1443 -0.5517  0.3665
  487MOL0     C65650   5.332  -0.892   1.593 -0.2827  0.1256  0.0183
  487MOL0     C65651   5.410  -0.982   1.493  0.6756  0.5563 -0.0155
  487MOL0     C65652   5.558  -0.965   1.496 -0.3210  0.5400 -0.5648
  487MOL0     C65653   5.632  -1.104   1.471 -0.2490  0.2500 -0.5872
  487MOL0     C65654   5.792  -1.077   1.469  0.0035  0.0665 -0.2492
  487MOL0    Cl65655   5.876  -1.232   1.483 -0.5749 -0.3486  0.2130
  487MOL0     C65656   5.527  -0.860   2.207  0.4943  0.2684  0.0415
  487MOL0     C65657   5.581  -0.773   2.307  0.4937  0.4119 -0.0263
  487MOL0     O65658   5.530  -0.388   2.313 -0.1619 -0.6026 -0.7290
  487MOL0     C65659   5.744  -0.245   2.455  0.2450  0.1557 -0.1656
  487MOL0     C65660   5.847  -0.181   2.523 -0.2313 -0.4176  0.6163
  487MOL0     N65661   6.407   0.217   2.944  0.9113 -0.1449  0.3445
  487MOL0     N65662   6.527   0.263   2.950  0.1253  0.2738  0.2813
  487MOL0     C65663   7.626   0.161   3.077 -0.0304 -0.0726 -0.1709
  487MOL0     C65664   7.749   0.105   3.112  0.2270 -0.2326 -0.1269
  487MOL0     C65665   8.215   0.097   3.242  0.0580 -0.0966  0.1449
  487MOL0     C65666   8.334   0.165   3.284  0.1627 -0.1985 -0.2088
  487MOL0     C65667   8.428   0.094   3.360  0.3507  0.3651 -0.7089
  487MOL0     C65668   8.407  -0.035   3.405  0.5627  0.3412  0.2663
  487MOL0     O65669   8.501  -0.093   3.479 -0.8988  0.8223 -0.0836
  487MOL0     C65670   8.452  -0.197   3.568  0.8024  0.0070 -0.9198
  487MOL0     C65671   8.534  -0.226   3.689  0.0610  0.5628 -0.1562
  487MOL0     C65672   8.650  -0.325   3.643  0.1994 -0.4658 -0.2779
  487MOL0     C65673   8.751  -0.358   3.756  0.0958 -0.0150  0.4241
  487MOL0     C65674   8.837  -0.243   3.775  0.0883 -0.0098  0.1874
  487MOL0     C65675   8.918  -0.147   3.769  0.8607 -0.8692  0.3561
  487MOL0     C65676   8.287  -0.103   3.365  0.3232 -0.4007  0.5863
  487MOL0     C65677   8.196  -0.035   3.283  1.2557 -0.2530  0.4006
  487MOL0     H65678   7.942   0.379   3.095 -1.4349  1.3480  0.7801
  487MOL0     H65679   7.717   0.471   3.021  0.3092 -0.1511 -1.1417
  487MOL0     H65680   7.413   0.382   3.188 -2.2817  0.8749 -0.0095
  487MOL0     H65681   7.488   0.522   3.097  0.7664 -0.4292  0.7543
  487MOL0     H65682   7.256   0.537   3.130  2.4179  2.1695  0.1043
  487MOL0     H65683   7.296   0.515   2.954 -0.0078  0.1319 -0.8034
  487MOL0     H65684   7.244   0.267   2.983 -2.3145 -1.2964 -0.8211
  487MOL0     H65685   7.180   0.313   3.146  1.6300  2.0457  1.0934
  487MOL0     H65686   7.026   0.466   3.037 -0.7577 -0.0593  0.2107
  487MOL0     H65687   7.078   0.384   2.882  1.6735  0.0634  1.1018
  487MOL0     H65688   7.017   0.171   2.957 -1.0383 -0.2027 -0.9377
  487MOL0     H65689   6.968   0.224   3.120  2.4221  1.4178  0.5090
  487MOL0     H65690   6.766   0.188   2.991 -0.5536  0.2244 -2.3002
  487MOL0     H65691   6.795   0.361   3.016  1.8065  2.9182 -1.8792
  487MOL0     H65692   6.903   0.366   2.778  0.6819 -0.5595 -1.4643
  487MOL0     H65693   6.831   0.209   2.756  2.5147  0.4520  0.7433
  487MOL0     H65694   6.680   0.382   2.658  0.9343 -0.2491 -0.5981
  487MOL0     H65695   6.681   0.469   2.815 -1.1498 -0.4918  0.0101
  487MOL0     H65696   6.464   0.265   2.623  0.6583 -0.4323 -1.0268
  487MOL0     H65697   6.158   0.233   2.855 -2.1363 -1.8409 -0.8076
  487MOL0     H65698   6.194   0.210   2.673  1.6695 -5.8923 -2.1780
  487MOL0     H65699   6.235  -0.012   2.858  1.1323 -1.9154 -2.0396
  487MOL0     H65700   6.190   0.001   2.675 -0.6544  1.9043 -0.8797
  487MOL0     H65701   5.971   0.058   2.728  0.8090  0.3852 -0.3074
  487MOL0     H65702   5.995   0.059   2.901  1.6362  1.9965 -0.7164
  487MOL0     H65703   5.879  -0.134   2.826  0.5410  3.4642  1.3836
  487MOL0     H65704   6.039  -0.180   2.897 -0.6654  1.1878  1.0998
  487MOL0     H65705   5.944  -0.427   2.726  1.1016 -3.5381 -3.2840
  487MOL0     H65706   5.672  -0.607   2.663  2.1827 -1.2211  2.8120
  487MOL0     H65707   5.799  -0.659   2.538  1.6724  0.5067 -0.7546
  487MOL0     H65708   5.844  -0.616   2.701 -0.4382  1.6084  0.9576
  487MOL0     H65709   5.332  -0.537   2.276 -2.6751 -1.0305 -2.8401
  487MOL0     H65710   5.256  -0.677   2.105 -0.8779  0.8617  1.9825
  487MOL0     H65711   5.220  -1.005   1.961 -0.6622  0.7316 -1.2922
  487MOL0     H65712   5.177  -0.844   2.028 -1.7501  0.9219 -1.1935
  487MOL0     H65713   5.178  -0.822   1.786 -0.6304  0.0108  1.4682
  487MOL0     H65714   5.321  -0.748   1.844 -1.5394 -0.5216  2.7166
  487MOL0     H65715   5.313  -1.044   1.755  3.1065 -2.2369 -1.3560
  487MOL0     H65716   5.460  -0.939   1.756  0.6407  2.9184 -3.6523
  487MOL0     H65717   5.225  -0.908   1.579 -1.1577  2.1745  3.2076
  487MOL0     H65718   5.349  -0.784   1.581  1.1409 -0.2464 -1.7378
  487MOL0     H65719   5.389  -0.955   1.389  0.4752  1.7831  0.3296
  487MOL0     H65720   5.381  -1.087   1.508 -0.2493  0.6175 -1.2253
  487MOL0     H65721   5.596  -0.895   1.421 -0.1461  2.1867  0.9838
  487MOL0     H65722   5.588  -0.919   1.591 -3.1445  3.3486 -0.8817
  487MOL0     H65723   5.606  -1.155   1.378  1.1906  3.8718 -3.2218
  487MOL0     H65724   5.605  -1.171   1.553  0.1658  1.1068  0.2827
  487MOL0     H65725   5.807  -1.004   1.548  1.0560  1.1477 -1.3986
  487MOL0     H65726   5.825  -1.028   1.377  1.9500 -2.0061 -0.7563
  487MOL0     H65727   5.581  -0.946   2.171  4.9072  2.5705  0.4859
  487MOL0     H65728   5.682  -0.781   2.348  0.5535  2.1517  0.2431
  487MOL0     H65729   5.698  -0.206   2.365  0.2561 -1.6879 -0.9984
  487MOL0     H65730   5.875  -0.078   2.501 -0.6049  0.4960  3.9460
  487MOL0     H65731   7.542   0.094   3.070  0.4588 -0.8397  1.0667
  487MOL0     H65732   7.753  -0.003   3.119  0.1632 -0.4417 -2.4977
  487MOL0     H65733   8.347   0.271   3.266  5.1590 -0.4081  0.7535
  487MOL0     H65734   8.523   0.137   3.392  0.5529 -0.6841  0.1360
  487MOL0     H65735   8.364  -0.156   3.617  1.9864 -3.2711  4.8006
  487MOL0     H65736   8.428  -0.292   3.519  4.6017 -1.6141  0.0129
  487MOL0     H65737   8.478  -0.294   3.755 -0.1133  1.3173  0.4786
  487MOL0     H65738   8.563  -0.134   3.739 -2.6121 -0.1911  3.1351
  487MOL0     H65739   8.712  -0.273   3.569 -1.9721  0.2673 -1.6636
  487MOL0     H65740   8.605  -0.416   3.602 -3.9352  1.2484  0.0100
  487MOL0     H65741   8.817  -0.437   3.718  0.8221  0.4996  0.5892
  487MOL0     H65742   8.696  -0.383   3.847  2.9494  1.6920  2.8112
  487MOL0     H65743   8.990  -0.072   3.743 -0.2588 -1.0428 -3.9396
  487MOL0     H65744   8.265  -0.203   3.400  1.1695 -0.6727  0.3682
  487MOL0     H65745   8.105  -0.089   3.260  0.8850 -0.2825  1.8465
  488MOL0     O65746   8.618   1.867   1.339 -0.4413 -0.3178 -0.2457
  488MOL0     C65747   8.564   1.971   1.297  0.2912 -0.5729  0.4530
  488MOL0     O65748   8.632   2.082   1.253 -0.6331  0.7749  0.2260
  488MOL0     C65749   8.771   2.088   1.269 -0.7565  0.0029  0.2510
  488MOL0     C65750   8.832   2.040   1.380 -0.5404 -0.2697 -1.0558
  488MOL0     C65751   8.971   2.053   1.398  0.2121  0.6972 -0.4493
  488MOL0     C65752   9.047   2.132   1.312 -0.1668 -0.4833 -0.1119
  488MOL0     O65753   9.174   2.163   1.344  0.1177  0.1371  0.0221
  488MOL0     C65754   9.259   2.061   1.383  0.3555  0.1408 -0.4939
  488MOL0     C65755   9.395   2.124   1.386  0.0391 -0.2729 -0.5453
  488MOL0     C65756   9.448   2.150   1.242  0.2423  0.0864 -0.1624
  488MOL0     C65757   9.497   2.024   1.173  0.4739 -0.0268  0.0551
  488MOL0     C65758   9.528   2.042   1.025  0.3894 -0.1701  0.0137
  488MOL0     C65759   9.584   1.906   0.964 -0.0061  0.6109  0.5056
  488MOL0     C65760   9.476   1.803   0.931  0.7184  0.1460  0.2756
  488MOL0     C65761   9.532   1.671   0.895 -0.0494  0.1197  1.1149
  488MOL0     N65762   9.439   1.597   0.817  0.1722  0.2473  0.4668
  488MOL0     C65763   9.343   1.497   0.856  0.0641 -0.4534  0.0930
  488MOL0     C65764   9.291   1.461   0.738 -0.1018 -0.0672 -0.1813
  488MOL0     C65765   9.183   1.355   0.718  1.0091  0.4388 -0.0312
  488MOL0     C65766   9.038   1.389   0.770 -0.7015 -0.4475  0.7214
  488MOL0     C65767   8.980   1.492   0.667 -0.1017 -0.6679  0.6154
  488MOL0     C65768   8.837   1.540   0.680  0.4081  0.0543 -0.4807
  488MOL0     O65769   8.743   1.428   0.683 -0.1411 -0.1669  0.4636
  488MOL0     C65770   8.613   1.456   0.712  0.7293  0.5588  0.0383
  488MOL0     C65771   8.561   1.393   0.828  0.1507  0.2893 -0.5168
  488MOL0     C65772   8.426   1.412   0.868 -0.0177  0.7383 -0.9418
  488MOL0     C65773   8.378   1.314   0.975  0.1464 -0.9008 -0.6386
  488MOL0     C65774   8.337   1.494   0.790 -0.1307 -0.0833 -0.0717
  488MOL0     C65775   8.199   1.534   0.831  0.0480 -0.2526 -0.5838
  488MOL0     O65776   8.177   1.559   0.963  0.2117  0.1032 -0.6604
  488MOL0     C65777   8.041   1.576   0.992 -0.7046 -0.2119 -0.7098
  488MOL0     C65778   7.958   1.465   0.982  0.4429  0.6617 -0.0927
  488MOL0     C65779   7.825   1.465   1.023  0.1653 -0.1952 -0.3771
  488MOL0     C65780   7.763   1.575   1.073  0.0378  0.4672  0.1464
  488MOL0     O65781   7.632   1.574   1.107  0.1730  0.2953 -0.3561
  488MOL0     C65782   7.554   1.700   1.129 -0.5638 -0.1981  0.6877
  488MOL0     C65783   7.549   1.735   1.274  0.1538  0.7875  0.3645
  488MOL0     C65784   7.460   1.854   1.291  0.1055  0.6439 -0.3832
  488MOL0     C65785   7.441   1.902   1.431  0.4750  0.0504 -0.0048
  488MOL0     C65786   7.290   1.894   1.459  0.3371 -0.7930 -0.0089
  488MOL0     C65787   7.191   1.971   1.376  0.4892 -0.3397  0.3918
  488MOL0     C65788   7.046   1.937   1.423 -0.3340  0.3243  0.1482
  488MOL0     C65789   6.933   2.014   1.355 -0.0433  0.9757 -0.1468
  488MOL0    Cl65790   6.887   2.158   1.442  0.4138 -0.1894  0.1165
  488MOL0     C65791   7.848   1.687   1.075  0.4479  0.5702  0.1617
  488MOL0     C65792   7.980   1.696   1.032  0.4375  1.0006  0.3570
  488MOL0     O65793   8.116   1.561   0.749 -0.2519  0.3692  0.3624
  488MOL0     C65794   8.390   1.560   0.683 -0.4098  0.3790  0.4139
  488MOL0     C65795   8.524   1.537   0.644  0.1013 -0.2665  0.1585
  488MOL0     N65796   9.348   1.531   0.633  0.7673 -0.1801  0.1416
  488MOL0     N65797   9.426   1.615   0.678  0.3356  0.0752  0.3898
  488MOL0     C65798   8.980   2.180   1.198  0.4907  0.7028  0.6664
  488MOL0     C65799   8.848   2.160   1.181 -0.2533 -1.2593 -0.1940
  488MOL0     C65800   8.420   1.965   1.305  0.0544  0.5703  0.2356
  488MOL0     C65801   8.363   1.837   1.322  0.0286  0.0475  0.3970
  488MOL0     C65802   8.225   1.825   1.313 -0.1198 -0.1092 -0.4378
  488MOL0     C65803   8.142   1.937   1.289  0.8138  0.2859  0.6187
  488MOL0     O65804   8.008   1.908   1.282  1.3392 -0.2678 -0.6985
  488MOL0     C65805   7.907   2.012   1.293  0.5177 -0.4677 -0.4247
  488MOL0     C65806   7.891   2.106   1.173 -0.0523  0.2906  0.3885
  488MOL0     C65807   7.748   2.164   1.166  0.2968 -0.6739 -0.6827
  488MOL0     C65808   7.746   2.282   1.068  0.4429 -0.5388  0.3266
  488MOL0     C65809   7.778   2.239   0.926  0.1042  0.5551 -0.2946
  488MOL0     C65810   7.831   2.210   0.824  0.7155  0.0065 -0.2612
  488MOL0     C65811   8.203   2.061   1.271  0.2725  0.2072  0.5068
  488MOL0     C65812   8.334   2.075   1.275  0.0044 -0.5065 -0.0094
  488MOL0     H65813   8.792   1.985   1.465 -0.7533  1.6589  0.1422
  488MOL0     H65814   9.001   2.000   1.488 -3.3015 -0.3583  0.2537
  488MOL0     H65815   9.225   2.019   1.479  1.2764 -4.5161 -1.9687
  488MOL0     H65816   9.260   1.979   1.312  1.4642  2.3481 -3.2110
  488MOL0     H65817   9.398   2.220   1.437 -1.0371 -0.7044  0.3664
  488MOL0     H65818   9.465   2.059   1.440  1.8082  0.4314 -1.8725
  488MOL0     H65819   9.368   2.191   1.179 -0.2710  1.9580  1.5828
  488MOL0     H65820   9.531   2.221   1.239 -2.3865  3.4330 -1.3102
  488MOL0     H65821   9.587   1.987   1.223  0.4234 -1.0617 -0.5811
  488MOL0     H65822   9.416   1.950   1.169  0.6620 -0.2190 -0.2674
  488MOL0     H65823   9.437   2.073   0.973 -1.3524 -5.0589 -0.3941
  488MOL0     H65824   9.606   2.115   1.003  1.1381 -1.5608 -2.2323
  488MOL0     H65825   9.648   1.918   0.876 -0.9533  1.3833 -0.0883
  488MOL0     H65826   9.650   1.866   1.042  0.1241  1.4811  0.8525
  488MOL0     H65827   9.416   1.793   1.022 -1.1145 -2.6677 -1.1008
  488MOL0     H65828   9.413   1.844   0.851 -1.7163 -0.3073  1.8434
  488MOL0     H65829   9.555   1.611   0.984  2.6672 -2.2854 -0.9884
  488MOL0     H65830   9.621   1.690   0.834 -1.3770 -0.4070 -1.0794
  488MOL0     H65831   9.328   1.468   0.960  1.3796  1.0489  0.7569
  488MOL0     H65832   9.182   1.328   0.611  0.7983  0.6985 -0.0941
  488MOL0     H65833   9.224   1.277   0.783  0.0206  1.0631  1.3762
  488MOL0     H65834   9.051   1.430   0.870  0.4488 -0.8563  0.7595
  488MOL0     H65835   8.979   1.297   0.767 -0.7458 -0.4018 -0.8949
  488MOL0     H65836   8.989   1.444   0.569  0.5901  0.2626  0.2013
  488MOL0     H65837   9.061   1.566   0.672 -0.3789 -0.3936  1.0954
  488MOL0     H65838   8.802   1.608   0.601 -2.8571 -0.3147  0.5122
  488MOL0     H65839   8.826   1.598   0.772  4.0107  0.8909 -0.4142
  488MOL0     H65840   8.617   1.322   0.886  0.5684  0.3407 -0.8570
  488MOL0     H65841   8.334   1.371   1.057  0.4850 -2.5773  0.7714
  488MOL0     H65842   8.305   1.244   0.933 -0.5688 -2.1185  2.3703
  488MOL0     H65843   8.450   1.242   1.015 -0.5678 -1.1510  0.2317
  488MOL0     H65844   8.004   1.377   0.940 -0.5827 -0.7829  1.6871
  488MOL0     H65845   7.769   1.374   1.004 -3.6531  1.6871  0.9540
  488MOL0     H65846   7.597   1.783   1.072 -2.3136 -0.0914 -0.5730
  488MOL0     H65847   7.451   1.684   1.096 -0.5160  0.9399 -0.1106
  488MOL0     H65848   7.493   1.664   1.336 -0.6197  2.0780  1.2125
  488MOL0     H65849   7.650   1.741   1.316  0.4040 -0.9460  0.0885
  488MOL0     H65850   7.366   1.824   1.244  0.4669  1.2124 -1.4894
  488MOL0     H65851   7.499   1.935   1.229 -0.2279  1.5914  0.6030
  488MOL0     H65852   7.497   1.847   1.507  1.1973  2.4890  1.3318
  488MOL0     H65853   7.482   2.003   1.442  1.9234 -0.3419 -1.3762
  488MOL0     H65854   7.277   1.921   1.564  1.1408 -0.7385  0.0803
  488MOL0     H65855   7.262   1.789   1.458  0.9669 -0.9992  1.6834
  488MOL0     H65856   7.213   2.078   1.388 -2.4170  0.8247 -2.8816
  488MOL0     H65857   7.208   1.957   1.269 -0.6620 -0.3109  0.1865
  488MOL0     H65858   7.036   1.962   1.529 -2.3918  0.8873 -0.1448
  488MOL0     H65859   7.027   1.829   1.425 -1.7876  0.5577  1.8901
  488MOL0     H65860   6.838   1.961   1.367  1.3553 -1.4595  0.8130
  488MOL0     H65861   6.951   2.028   1.249  1.3376  0.0010 -0.0590
  488MOL0     H65862   7.814   1.781   1.117 -0.3769  0.8547 -1.0802
  488MOL0     H65863   8.046   1.781   1.047  2.6084 -0.3824 -1.0261
  488MOL0     H65864   8.335   1.627   0.618  0.7318 -1.0095 -2.1233
  488MOL0     H65865   8.559   1.588   0.554  0.1354 -0.7140 -0.0816
  488MOL0     H65866   9.025   2.238   1.118 -2.1539  1.7048 -0.1969
  488MOL0     H65867   8.796   2.198   1.094  2.0917 -0.9639 -1.5456
  488MOL0     H65868   8.415   1.743   1.336  2.6300  1.1582 -1.2205
  488MOL0     H65869   8.186   1.724   1.321  2.2810 -1.3478 -2.7690
  488MOL0     H65870   7.812   1.959   1.305  0.6687 -0.4429  1.0572
  488MOL0     H65871   7.918   2.070   1.386  0.4810 -2.1218  0.6491
  488MOL0     H65872   7.900   2.044   1.083 -2.1497 -0.2570  0.5167
  488MOL0     H65873   7.968   2.184   1.169  0.7548 -0.4447  1.1582
  488MOL0     H65874   7.719   2.184   1.270 -1.8595 -0.2975 -1.3059
  488MOL0     H65875   7.675   2.089   1.136  0.0404 -0.2642 -1.0881
  488MOL0     H65876   7.823   2.353   1.098 -1.4564  1.2523  1.2300
  488MOL0     H65877   7.656   2.344   1.067 -0.8175 -2.2674  1.1963
  488MOL0     H65878   7.877   2.186   0.730 -0.8535 -1.3273 -0.7271
  488MOL0     H65879   8.145   2.151   1.258  0.6982  0.6057  1.3241
  488MOL0     H65880   8.386   2.168   1.258  1.2404 -1.0928  0.4513
  489MOL0     O65881   8.715   8.998   9.789  0.8930  0.8893  0.6629
  489MOL0     C65882   8.738   9.115   9.786  1.0422 -0.4385 -0.0557
  489MOL0     O65883   8.645   9.214   9.786  0.1357  0.5995 -0.5755
  489MOL0     C65884   8.525   9.194   9.857 -0.1706  0.2559 -0.7341
  489MOL0     C65885   8.511   9.098   9.966 -0.2634 -0.6864 -0.1677
  489MOL0     C65886   8.397   9.106  10.034  0.6381 -0.4422 -0.0682
  489MOL0     C65887   8.298   9.200  10.013  0.2653  0.9382 -0.2008
  489MOL0     O65888   8.183   9.185  10.095  0.1024  0.0696 -0.7103
  489MOL0     C65889   8.065   9.259  10.066 -0.5484  0.1255  0.3436
  489MOL0     C65890   7.950   9.220  10.157 -0.5852  0.0317  0.4381
  489MOL0     C65891   7.834   9.311  10.157  0.0020 -0.9693 -0.4956
  489MOL0     C65892   7.753   9.292  10.288 -0.2554 -0.3096 -0.3035
  489MOL0     C65893   7.635   9.393  10.310 -0.0881  0.4758 -0.6654
  489MOL0     C65894   7.654   9.540  10.293  0.3357 -0.4773  1.4950
  489MOL0     C65895   7.736   9.607  10.399  0.3453 -1.0656  1.2503
  489MOL0     C65896   7.675   9.592  10.540 -1.1290 -0.3335 -0.5629
  489MOL0     N65897   7.575   9.697  10.556  0.1415 -0.1263 -0.0182
  489MOL0     C65898   7.603   9.829  10.600  0.3081 -0.1620  0.2465
  489MOL0     C65899   7.477   9.883  10.606  0.3373  0.6510  0.6726
  489MOL0     C65900   7.448  10.023  10.669 -0.4249  0.5654 -0.7089
  489MOL0     C65901   7.401  10.008  10.819  0.3496 -0.5207 -0.5041
  489MOL0     C65902   7.365  10.143  10.880  0.9639 -0.1160 -0.1529
  489MOL0     C65903   7.345  10.131  11.035  0.2282  0.1175  0.1894
  489MOL0     O65904   7.233  10.044  11.066  0.1615 -0.2233  0.4757
  489MOL0     C65905   7.102  10.095  11.051 -0.2489 -0.0927 -0.0772
  489MOL0     C65906   7.011   9.994  11.081  0.1505 -1.1979  0.2986
  489MOL0     C65907   6.872  10.024  11.087 -0.5621  0.2609 -0.7437
  489MOL0     C65908   6.792   9.898  11.119 -0.0415  0.2008 -0.0144
  489MOL0     C65909   6.821  10.156  11.052  0.0254 -0.1077 -0.5518
  489MOL0     C65910   6.672  10.183  11.035  0.1284 -0.6745 -0.1693
  489MOL0     O65911   6.643  10.301  10.963  0.6802 -0.6678 -0.1820
  489MOL0     C65912   6.512  10.338  10.961  0.2068 -0.0575 -0.2353
  489MOL0     C65913   6.440  10.346  10.838 -0.6239  0.3275 -1.4428
  489MOL0     C65914   6.309  10.386  10.824 -0.1375  0.0618 -1.0406
  489MOL0     C65915   6.245  10.436  10.937  0.5844 -0.2471 -1.2059
  489MOL0     O65916   6.115  10.475  10.954 -0.3411 -0.4695  0.0075
  489MOL0     C65917   6.028  10.504  10.839 -0.7551  0.1940  0.7489
  489MOL0     C65918   5.880  10.513  10.882 -0.0985 -1.1135  0.3800
  489MOL0     C65919   5.796  10.587  10.784  0.8180 -0.1565 -0.0732
  489MOL0     C65920   5.726  10.718  10.833 -0.2713  0.0432 -0.6115
  489MOL0     C65921   5.666  10.794  10.712  0.3962 -0.0040  0.7634
  489MOL0     C65922   5.565  10.902  10.744 -0.0441 -0.1737 -0.0504
  489MOL0     C65923   5.518  10.979  10.609 -1.0451  0.3185 -0.3955
  489MOL0     C65924   5.440  11.102  10.641  0.5436  0.1175  0.1924
  489MOL0    Cl65925   5.275  11.047  10.697  0.0439 -0.2734 -0.3889
  489MOL0     C65926   6.308  10.429  11.057  0.4121  0.0930 -0.0067
  489MOL0     C65927   6.439  10.378  11.075 -0.1022 -0.4883 -0.4136
  489MOL0     O65928   6.593  10.095  11.066 -0.2796  0.1819  1.0922
  489MOL0     C65929   6.922  10.247  11.007 -0.8103  0.2729 -0.4232
  489MOL0     C65930   7.063  10.222  11.016  0.3143 -0.3980  0.1572
  489MOL0     N65931   7.385   9.790  10.555 -0.2627 -0.3436  0.1589
  489MOL0     N65932   7.442   9.683  10.517 -0.8068 -0.5025  0.1568
  489MOL0     C65933   8.308   9.292   9.905 -0.3749 -0.2821 -0.4848
  489MOL0     C65934   8.425   9.295   9.833 -0.6881 -0.3235 -0.9023
  489MOL0     C65935   8.874   9.152   9.747  0.1640  0.1955 -1.2569
  489MOL0     C65936   8.963   9.083   9.671  0.0877 -0.2593  0.2341
  489MOL0     C65937   9.090   9.130   9.648  0.1017  0.1314  0.3846
  489MOL0     C65938   9.129   9.256   9.691 -0.2448 -0.2042  0.8134
  489MOL0     O65939   9.258   9.289   9.653  0.6233  1.0321  0.8187
  489MOL0     C65940   9.335   9.359   9.755  0.1712  0.2028 -0.0028
  489MOL0     C65941   9.480   9.366   9.698  0.5163 -0.2547 -0.0594
  489MOL0     C65942   9.551   9.226   9.716  0.0854  0.0739  0.2647
  489MOL0     C65943   9.659   9.199   9.614 -0.4820  0.0458  0.5798
  489MOL0     C65944   9.754   9.091   9.652 -0.2080  0.0989 -0.5890
  489MOL0     C65945   9.842   9.019   9.695  0.5882  0.3953  0.1585
  489MOL0     C65946   9.034   9.334   9.754 -0.3074 -0.0516 -0.2900
  489MOL0     C65947   8.915   9.273   9.806 -0.1552  0.0499 -0.1443
  489MOL0     H65948   8.581   9.022   9.998 -2.4966 -2.5754  0.5625
  489MOL0     H65949   8.376   9.024  10.102  3.1783  0.4246  1.8957
  489MOL0     H65950   8.091   9.365  10.075  0.4925 -0.1763  0.9805
  489MOL0     H65951   8.031   9.235   9.965  1.4143  1.0705 -0.5987
  489MOL0     H65952   7.917   9.119  10.133  0.3020 -0.9161  2.9511
  489MOL0     H65953   7.984   9.218  10.260  0.2937 -0.6854  0.1445
  489MOL0     H65954   7.870   9.415  10.163  0.9152 -1.1877 -1.8610
  489MOL0     H65955   7.785   9.306  10.059 -0.1416 -1.1173 -0.4167
  489MOL0     H65956   7.715   9.190  10.285  3.2025 -1.8146  1.5285
  489MOL0     H65957   7.827   9.295  10.368 -1.1154  0.7367  0.4890
  489MOL0     H65958   7.565   9.362  10.232 -1.2816 -0.5520  0.7397
  489MOL0     H65959   7.580   9.357  10.398  1.2241 -1.6450 -0.6424
  489MOL0     H65960   7.701   9.559  10.197 -0.9747 -1.7214  0.5541
  489MOL0     H65961   7.554   9.586  10.297  1.3581  1.9582  0.4168
  489MOL0     H65962   7.838   9.570  10.386  0.5320  0.1563 -1.4497
  489MOL0     H65963   7.744   9.713  10.374 -1.3012 -0.5981  2.5580
  489MOL0     H65964   7.763   9.602  10.605 -0.6805 -2.7887 -0.6807
  489MOL0     H65965   7.633   9.494  10.566 -0.8500  0.0463  1.5028
  489MOL0     H65966   7.695   9.872  10.638 -0.3301  1.3539  0.1578
  489MOL0     H65967   7.532  10.092  10.656  0.5072 -0.4878 -0.4152
  489MOL0     H65968   7.364  10.069  10.616  0.6127  1.2416 -1.8075
  489MOL0     H65969   7.477   9.954  10.876 -0.3425 -0.2781  0.6828
  489MOL0     H65970   7.312   9.945  10.825  0.0667 -0.0352  0.6363
  489MOL0     H65971   7.275  10.179  10.829  1.6391 -1.5934 -2.5597
  489MOL0     H65972   7.442  10.220  10.870  0.0183  0.9349  0.4108
  489MOL0     H65973   7.326  10.229  11.082 -2.2524 -0.2234  0.0409
  489MOL0     H65974   7.434  10.082  11.074 -2.3102 -2.6309  3.1536
  489MOL0     H65975   7.053   9.900  11.115  1.9023 -0.0300  1.5362
  489MOL0     H65976   6.711   9.925  11.187 -1.0205  0.5528 -1.2686
  489MOL0     H65977   6.736   9.864  11.031 -0.2236 -1.8050  0.8246
  489MOL0     H65978   6.862   9.822  11.155 -0.2304 -0.4927 -1.0478
  489MOL0     H65979   6.490  10.316  10.746 -0.3933  1.5396 -1.7253
  489MOL0     H65980   6.270  10.376  10.723  0.6240  2.7072 -1.6694
  489MOL0     H65981   6.036  10.607  10.803 -0.5126 -0.9175 -2.7795
  489MOL0     H65982   6.034  10.435  10.754  0.6415  2.3052 -0.9818
  489MOL0     H65983   5.838  10.412  10.889  2.4939 -2.3090  0.1636
  489MOL0     H65984   5.868  10.559  10.980 -0.7174 -1.5808  0.5301
  489MOL0     H65985   5.732  10.508  10.742  0.0734  0.2980  0.1912
  489MOL0     H65986   5.857  10.620  10.699 -1.1040 -0.1304 -1.5173
  489MOL0     H65987   5.660  10.708  10.920  1.5908  0.3601  0.8863
  489MOL0     H65988   5.813  10.769  10.873  0.0733 -2.0447  1.5375
  489MOL0     H65989   5.618  10.721  10.647  4.5133 -0.0902 -2.6491
  489MOL0     H65990   5.752  10.837  10.659 -0.6291  0.3681 -0.6639
  489MOL0     H65991   5.478  10.847  10.782  0.7720 -2.6761 -1.5294
  489MOL0     H65992   5.610  10.970  10.816  0.0170 -0.0006 -0.2488
  489MOL0     H65993   5.450  10.921  10.545 -3.1838  0.9278  1.2002
  489MOL0     H65994   5.608  11.018  10.559 -0.9165  1.4183  0.6461
  489MOL0     H65995   5.431  11.153  10.544 -1.0816 -0.6774 -0.1116
  489MOL0     H65996   5.490  11.164  10.716 -0.5884 -1.8389  2.7025
  489MOL0     H65997   6.247  10.447  11.145  0.2609 -0.2590 -0.0349
  489MOL0     H65998   6.486  10.390  11.173  0.4759  0.8851 -0.8330
  489MOL0     H65999   6.908  10.348  10.970  1.5239  2.0358  3.0196
  489MOL0     H66000   7.130  10.304  10.991  0.5172 -1.0884 -1.7721
  489MOL0     H66001   8.232   9.367   9.886 -1.0843 -0.7351  0.4370
  489MOL0     H66002   8.441   9.369   9.755  0.3249 -1.2878 -1.6399
  489MOL0     H66003   8.940   8.987   9.626  0.8526 -0.4696  0.2691
  489MOL0     H66004   9.156   9.057   9.604 -1.9394 -0.8788 -1.1595
  489MOL0     H66005   9.285   9.456   9.762  0.9983  1.0237 -3.4485
  489MOL0     H66006   9.332   9.310   9.852 -0.4121  2.4224  1.1721
  489MOL0     H66007   9.533   9.440   9.759  0.5342 -0.5035  0.2284
  489MOL0     H66008   9.486   9.408   9.597  0.5422 -0.6174 -0.2100
  489MOL0     H66009   9.478   9.147   9.697 -3.4363  3.4870 -1.8555
  489MOL0     H66010   9.587   9.214   9.818 -0.7984  1.5178  0.7728
  489MOL0     H66011   9.711   9.294   9.599  0.8344 -0.6222  0.7050
  489MOL0     H66012   9.626   9.176   9.512 -0.1616  0.0079  0.4820
  489MOL0     H66013   9.909   8.953   9.746  1.4594  0.2978 -1.0824
  489MOL0     H66014   9.057   9.436   9.783  0.8070  0.2765 -2.1527
  489MOL0     H66015   8.865   9.314   9.893 -2.6160 -2.1428 -0.4147
  490MOL0     O66016   4.932   3.395  10.848  0.6224 -0.5907 -0.3073
  490MOL0     C66017   4.949   3.277  10.821  0.0918  0.1559  0.5231
  490MOL0     O66018   4.865   3.195  10.754 -0.2293  0.4779 -0.4050
  490MOL0     C66019   4.753   3.246  10.698  0.0683  0.1889 -0.5528
  490MOL0     C66020   4.749   3.349  10.600 -0.7248 -0.3805 -0.2766
  490MOL0     C66021   4.631   3.398  10.539 -0.6262  0.8186  0.2353
  490MOL0     C66022   4.513   3.346  10.591 -0.1987  0.0429 -0.4696
  490MOL0     O66023   4.386   3.374  10.544 -0.2453 -0.5028 -0.0612
  490MOL0     C66024   4.274   3.280  10.531  0.4817 -0.5095  0.1800
  490MOL0     C66025   4.163   3.360  10.461  0.4641 -0.0348 -0.3389
  490MOL0     C66026   4.032   3.268  10.465  0.3054  0.5844  0.0396
  490MOL0     C66027   3.912   3.331  10.392  0.8047  0.5572 -0.8021
  490MOL0     C66028   3.779   3.239  10.391 -0.7343  0.2864 -0.1956
  490MOL0     C66029   3.649   3.315  10.374  0.1820  0.1328 -0.2766
  490MOL0     C66030   3.535   3.226  10.314  0.1797 -0.3414 -0.1604
  490MOL0     C66031   3.397   3.298  10.343 -0.3676  0.4216  0.4872
  490MOL0     N66032   3.284   3.213  10.310 -0.2453  0.0279  0.4211
  490MOL0     C66033   3.230   3.136  10.404 -0.6885  0.2765 -0.2393
  490MOL0     C66034   3.138   3.063  10.335  0.1740 -0.4238  0.0684
  490MOL0     C66035   3.034   2.960  10.374 -0.3505 -1.4941 -0.9687
  490MOL0     C66036   2.900   3.028  10.396 -0.0902  0.5389  0.1182
  490MOL0     C66037   2.817   2.926  10.476 -0.9617 -0.3455  0.8170
  490MOL0     C66038   2.664   2.952  10.464  0.0941  0.3859 -0.1032
  490MOL0     O66039   2.636   3.051  10.565  0.2195 -0.5459 -0.1469
  490MOL0     C66040   2.509   3.090  10.601 -0.9838  0.6527 -0.0732
  490MOL0     C66041   2.390   3.043  10.544 -0.6202 -0.9027 -0.1158
  490MOL0     C66042   2.263   3.071  10.589 -0.2775 -0.2596  0.3217
  490MOL0     C66043   2.146   3.002  10.528  0.3728 -0.2384  0.0580
  490MOL0     C66044   2.253   3.171  10.686 -0.4627 -0.5651 -0.4668
  490MOL0     C66045   2.119   3.223  10.718  0.7336  0.3281  0.5524
  490MOL0     O66046   2.029   3.131  10.757 -0.6407  0.5096 -0.3063
  490MOL0     C66047   1.920   3.175  10.837  0.3962  0.0221  0.3009
  490MOL0     C66048   1.928   3.258  10.944  0.0186  0.5582 -0.4559
  490MOL0     C66049   1.808   3.304  11.007  0.2395  0.1016 -0.0345
  490MOL0     C66050   1.682   3.266  10.958 -1.0041 -0.7768 -0.5127
  490MOL0     O66051   1.577   3.317  11.022  0.6473 -0.1947  0.1913
  490MOL0     C66052   1.439   3.269  10.997 -0.0487 -0.2282  0.2305
  490MOL0     C66053   1.344   3.366  11.070 -0.3064  0.5749  0.3511
  490MOL0     C66054   1.202   3.307  11.109 -0.9281 -0.6783  0.6356
  490MOL0     C66055   1.112   3.276  10.987  0.3821  0.2417 -0.5388
  490MOL0     C66056   0.976   3.353  10.980 -0.3646 -1.1862 -0.0416
  490MOL0     C66057   0.869   3.289  10.883  0.3427  0.3754  0.3734
  490MOL0     C66058   0.907   3.328  10.743 -0.4136 -0.4709 -0.7395
  490MOL0     C66059   0.813   3.268  10.646  0.5553 -0.3397 -0.0482
  490MOL0    Cl66060   0.832   3.089  10.641 -0.3692  0.0367 -0.1819
  490MOL0     C66061   1.679   3.173  10.851  0.3102  0.3582 -0.0357
  490MOL0     C66062   1.796   3.124  10.793  0.2997 -0.3176  0.1377
  490MOL0     O66063   2.098   3.347  10.709  0.4697  0.2527 -0.5787
  490MOL0     C66064   2.363   3.226  10.750 -0.1135  0.2022  0.2476
  490MOL0     C66065   2.492   3.188  10.710  0.6128 -0.4052 -0.3325
  490MOL0     N66066   3.134   3.104  10.200  0.4083 -0.5631 -0.0344
  490MOL0     N66067   3.228   3.194  10.187  0.0751 -0.3807  0.2307
  490MOL0     C66068   4.515   3.255  10.700  0.4155 -0.2354  0.9921
  490MOL0     C66069   4.630   3.194  10.735  0.5746 -0.9246  0.0948
  490MOL0     C66070   5.076   3.222  10.866 -0.5574 -0.0315 -0.1285
  490MOL0     C66071   5.147   3.299  10.954  0.0745  0.3387  0.0060
  490MOL0     C66072   5.277   3.260  10.990 -1.2609 -0.5155 -0.5397
  490MOL0     C66073   5.334   3.143  10.944 -0.5265  0.0348 -0.0284
  490MOL0     O66074   5.468   3.118  10.953  0.3906 -0.2497  0.2593
  490MOL0     C66075   5.551   3.202  11.025 -1.1644  0.1611  0.1446
  490MOL0     C66076   5.706   3.179  11.000  0.3878 -0.8644 -0.0075
  490MOL0     C66077   5.753   3.039  11.025  0.4405  0.2951  0.3829
  490MOL0     C66078   5.902   3.008  11.001  0.2193 -0.5930  0.7505
  490MOL0     C66079   5.925   2.870  10.967  0.0000 -0.4597 -0.5615
  490MOL0     C66080   5.964   2.759  10.939 -1.2881 -0.8069 -0.5063
  490MOL0     C66081   5.251   3.055  10.862 -0.2773 -0.3108  0.5466
  490MOL0     C66082   5.129   3.098  10.824  0.3930 -0.0631  0.6609
  490MOL0     H66083   4.842   3.401  10.581 -0.5779 -1.0002 -1.3292
  490MOL0     H66084   4.626   3.470  10.458 -0.0032  1.4034  0.7018
  490MOL0     H66085   4.294   3.195  10.465 -1.3713  0.7336 -2.1445
  490MOL0     H66086   4.245   3.242  10.629 -0.7456  0.0165  0.0274
  490MOL0     H66087   4.148   3.457  10.509  0.2998  0.5507 -1.5426
  490MOL0     H66088   4.179   3.374  10.354  0.1266 -0.9075 -0.5129
  490MOL0     H66089   4.047   3.173  10.414 -1.4107 -0.1832  0.8620
  490MOL0     H66090   4.011   3.245  10.569 -1.7685  2.3710  0.0964
  490MOL0     H66091   3.882   3.422  10.445 -1.5724  0.0375 -1.1317
  490MOL0     H66092   3.928   3.367  10.289  0.8894  0.7717 -0.7144
  490MOL0     H66093   3.796   3.182  10.299 -0.1315  1.0952 -0.5956
  490MOL0     H66094   3.781   3.177  10.481  3.1235  0.2047 -0.1778
  490MOL0     H66095   3.617   3.359  10.469 -1.5048 -0.2163 -0.6546
  490MOL0     H66096   3.677   3.399  10.311 -0.3048  1.7932  1.6133
  490MOL0     H66097   3.542   3.203  10.207 -1.5270  0.1591 -0.4028
  490MOL0     H66098   3.533   3.128  10.361  0.4985 -0.6632 -0.8127
  490MOL0     H66099   3.390   3.390  10.284 -1.2339 -0.2073 -0.4186
  490MOL0     H66100   3.383   3.327  10.447 -1.2648 -0.5572  0.6574
  490MOL0     H66101   3.251   3.131  10.511 -0.5995 -0.8737 -0.2993
  490MOL0     H66102   3.022   2.878  10.303 -2.2662 -2.2331  0.1479
  490MOL0     H66103   3.062   2.915  10.469  2.1248  1.9604  0.1836
  490MOL0     H66104   2.858   3.047  10.297 -2.0854 -1.2042  0.5656
  490MOL0     H66105   2.914   3.117  10.457  0.6817  1.2995 -1.1178
  490MOL0     H66106   2.851   2.933  10.580 -0.4791  2.5331  0.5390
  490MOL0     H66107   2.835   2.825  10.439  3.2703  0.3351  0.6108
  490MOL0     H66108   2.612   2.856  10.476  1.6466 -0.9782 -3.0476
  490MOL0     H66109   2.645   2.986  10.362  3.2495 -1.1092 -1.3228
  490MOL0     H66110   2.402   2.967  10.467  3.0394 -2.9313  2.1878
  490MOL0     H66111   2.102   2.936  10.603 -0.2784 -0.8850 -0.8741
  490MOL0     H66112   2.073   3.078  10.497  0.2203 -0.9568 -1.4441
  490MOL0     H66113   2.166   2.934  10.445 -2.6085 -2.6794  1.1153
  490MOL0     H66114   2.025   3.291  10.980 -0.3304  0.3859  0.6818
  490MOL0     H66115   1.804   3.386  11.078 -0.1721  0.6415 -0.6766
  490MOL0     H66116   1.417   3.264  10.890 -1.2092  0.2728  0.4282
  490MOL0     H66117   1.425   3.168  11.037 -3.9957  0.7003  1.6776
  490MOL0     H66118   1.394   3.384  11.165  1.0379 -1.1638  0.0355
  490MOL0     H66119   1.315   3.450  11.007 -0.8674  0.3534  0.3098
  490MOL0     H66120   1.142   3.378  11.168  0.0102  1.7756 -1.1613
  490MOL0     H66121   1.210   3.213  11.163 -2.9366 -1.7922 -0.8328
  490MOL0     H66122   1.172   3.299  10.899  2.5725  1.3115  1.1213
  490MOL0     H66123   1.085   3.170  10.979 -1.6768  0.7994 -1.8441
  490MOL0     H66124   1.008   3.453  10.948  1.9560 -1.4537  1.1812
  490MOL0     H66125   0.924   3.364  11.075 -0.7136 -2.5046 -0.0634
  490MOL0     H66126   0.880   3.180  10.880  1.3278  0.4397  1.0803
  490MOL0     H66127   0.766   3.319  10.901 -0.0627  0.3542 -1.6274
  490MOL0     H66128   1.011   3.298  10.725  0.8125  2.4597  0.7263
  490MOL0     H66129   0.914   3.437  10.734  1.4093 -0.6426 -1.9214
  490MOL0     H66130   0.829   3.313  10.548 -3.8631  0.9035 -0.4012
  490MOL0     H66131   0.711   3.302  10.662  0.3555 -1.1135  0.3769
  490MOL0     H66132   1.589   3.140  10.798  0.1281  0.5930  0.1284
  490MOL0     H66133   1.804   3.053  10.711 -0.7182  2.5233 -2.6257
  490MOL0     H66134   2.363   3.302  10.827  2.0052  1.2677 -0.7168
  490MOL0     H66135   2.576   3.239  10.755  0.6380 -1.6979  1.1453
  490MOL0     H66136   4.423   3.218  10.745  1.6505 -2.1950  2.0402
  490MOL0     H66137   4.624   3.111  10.805  0.3108 -1.0759 -0.1042
  490MOL0     H66138   5.102   3.389  10.995 -1.2928 -0.4129  0.1844
  490MOL0     H66139   5.323   3.326  11.063 -4.6893 -0.4850  1.8293
  490MOL0     H66140   5.545   3.311  11.015  4.3035  0.9811  2.1103
  490MOL0     H66141   5.543   3.193  11.134  0.0024  0.5385  0.2739
  490MOL0     H66142   5.767   3.259  11.044  0.4718 -0.1912 -1.3155
  490MOL0     H66143   5.724   3.184  10.892  3.3374  1.6657  0.4599
  490MOL0     H66144   5.706   2.975  10.950  0.8385  1.9925 -1.3812
  490MOL0     H66145   5.729   3.004  11.126  4.4316 -0.5689  1.2257
  490MOL0     H66146   5.965   3.041  11.084 -0.0633 -0.5843  0.9587
  490MOL0     H66147   5.922   3.076  10.917 -2.4926  0.4919  0.8935
  490MOL0     H66148   6.009   2.668  10.907  0.5930 -0.6487  1.4726
  490MOL0     H66149   5.301   2.971  10.815 -1.6675 -0.3102 -1.0313
  490MOL0     H66150   5.076   3.053  10.740  0.0090  2.7541 -0.7447
  491MOL0     O66151   5.860   1.093   7.203  0.1714 -0.3863 -0.2509
  491MOL0     C66152   5.831   1.210   7.180 -0.1250  0.2732  0.3314
  491MOL0     O66153   5.706   1.259   7.149 -0.1979 -0.0755 -0.4203
  491MOL0     C66154   5.596   1.181   7.139  0.7171  0.3764  0.0470
  491MOL0     C66155   5.557   1.067   7.217  0.2269  0.4394  0.6995
  491MOL0     C66156   5.431   1.007   7.205  0.1655 -0.0835 -0.2256
  491MOL0     C66157   5.345   1.046   7.101 -0.3697 -0.1968 -0.3760
  491MOL0     O66158   5.217   1.002   7.073 -0.4509 -0.0969 -0.0520
  491MOL0     C66159   5.147   0.926   7.176 -0.1840 -0.3086 -0.2997
  491MOL0     C66160   5.006   0.884   7.129 -0.0590  0.0342  0.2331
  491MOL0     C66161   4.924   0.858   7.251  0.4434  0.2390 -1.0149
  491MOL0     C66162   4.801   0.777   7.213 -0.0256  0.4743  0.3616
  491MOL0     C66163   4.709   0.756   7.326  0.0819  0.8330  0.4264
  491MOL0     C66164   4.593   0.668   7.277  0.2259  0.2330  0.5730
  491MOL0     C66165   4.517   0.631   7.405 -0.7994  0.5848 -0.6716
  491MOL0     C66166   4.563   0.497   7.465 -0.1921  0.9419  0.7996
  491MOL0     N66167   4.466   0.476   7.579 -0.0506 -0.3331 -0.7560
  491MOL0     C66168   4.330   0.464   7.571 -1.0848  1.0409 -0.9227
  491MOL0     C66169   4.298   0.426   7.700  0.1426  0.1668  0.4479
  491MOL0     C66170   4.159   0.385   7.744  0.6039 -0.4753  1.1344
  491MOL0     C66171   4.043   0.464   7.690 -0.1674  0.5062  0.6107
  491MOL0     C66172   4.010   0.440   7.534 -0.0303  0.3558  0.2674
  491MOL0     C66173   3.880   0.489   7.509  0.5449  0.1496  0.0814
  491MOL0     O66174   3.786   0.389   7.552 -0.9972  0.1407 -0.3384
  491MOL0     C66175   3.654   0.386   7.510 -0.0977  0.2996 -0.4392
  491MOL0     C66176   3.596   0.265   7.503  0.1457 -0.2224 -0.1384
  491MOL0     C66177   3.466   0.252   7.457  0.3594  0.4545 -0.0832
  491MOL0     C66178   3.426   0.110   7.440  0.1912 -0.0520  0.4544
  491MOL0     C66179   3.373   0.357   7.451  0.1553  0.7376  0.6712
  491MOL0     C66180   3.227   0.338   7.429 -0.4081 -0.3985  0.1227
  491MOL0     O66181   3.143   0.405   7.517 -0.5043 -0.2937  0.2909
  491MOL0     C66182   3.004   0.414   7.494 -0.6046  0.4926 -0.4264
  491MOL0     C66183   2.920   0.372   7.599  0.9116  0.1877 -0.1852
  491MOL0     C66184   2.780   0.388   7.578 -0.7873  0.4595  1.0971
  491MOL0     C66185   2.725   0.427   7.460  0.3324  0.0374 -0.9735
  491MOL0     O66186   2.587   0.400   7.456  0.2309  0.1771  0.3741
  491MOL0     C66187   2.526   0.415   7.322 -0.3068  0.5894 -0.0919
  491MOL0     C66188   2.392   0.344   7.312  0.5024 -0.5239 -0.5730
  491MOL0     C66189   2.284   0.438   7.378  0.0374  0.4167  0.6512
  491MOL0     C66190   2.139   0.398   7.346 -0.2497  0.6226  0.4957
  491MOL0     C66191   2.028   0.470   7.431 -0.6897  0.3095  0.0309
  491MOL0     C66192   1.884   0.435   7.388  0.7058 -0.1880 -0.3715
  491MOL0     C66193   1.849   0.496   7.257 -1.2224  0.0224  0.5634
  491MOL0     C66194   1.706   0.459   7.220 -0.1400  0.1241  0.2526
  491MOL0    Cl66195   1.664   0.554   7.070  0.1559 -0.6332 -0.4359
  491MOL0     C66196   2.816   0.465   7.355 -0.2392 -0.0487  0.8320
  491MOL0     C66197   2.955   0.449   7.366 -0.0878  0.4891 -0.4174
  491MOL0     O66198   3.195   0.277   7.326 -0.3482  0.1884  0.1440
  491MOL0     C66199   3.436   0.488   7.456  0.5720  0.8295  0.4561
  491MOL0     C66200   3.575   0.499   7.483 -0.4549  0.1135  0.5646
  491MOL0     N66201   4.404   0.433   7.785 -0.7040  0.3582  1.2405
  491MOL0     N66202   4.504   0.449   7.710  0.6809 -0.2646 -0.1179
  491MOL0     C66203   5.379   1.154   7.018 -0.0159  0.3194 -0.3872
  491MOL0     C66204   5.501   1.216   7.030 -0.9800 -0.2326 -0.6398
  491MOL0     C66205   5.930   1.307   7.212  1.4342 -0.2646  0.1231
  491MOL0     C66206   6.063   1.280   7.213 -0.2886  0.5604  0.3491
  491MOL0     C66207   6.151   1.383   7.238  0.0688  0.1823  0.0994
  491MOL0     C66208   6.107   1.521   7.232  0.3268 -1.0871 -1.0123
  491MOL0     O66209   6.197   1.630   7.242  0.2665 -0.0944  0.3001
  491MOL0     C66210   6.336   1.604   7.250 -0.6130  0.3033 -0.0963
  491MOL0     C66211   6.413   1.737   7.256 -0.5304 -0.0425 -0.1864
  491MOL0     C66212   6.460   1.784   7.396 -0.4796 -1.2644  0.6006
  491MOL0     C66213   6.543   1.922   7.371 -0.3614  0.0164  0.2121
  491MOL0     C66214   6.470   2.044   7.325 -0.8323 -0.0241  0.3810
  491MOL0     C66215   6.443   2.157   7.284 -0.8942 -0.6423 -0.1064
  491MOL0     C66216   5.972   1.553   7.237  0.1260  0.1646 -1.0632
  491MOL0     C66217   5.888   1.443   7.230 -0.4733  0.0410 -0.3862
  491MOL0     H66218   5.625   1.030   7.293  1.2649  0.6450 -0.1145
  491MOL0     H66219   5.396   0.930   7.273  0.0180  2.4003  2.7249
  491MOL0     H66220   5.197   0.833   7.202  0.2341 -2.2975 -6.5639
  491MOL0     H66221   5.130   0.993   7.262  0.0407 -2.0181  1.1357
  491MOL0     H66222   4.972   0.962   7.061  3.6991  1.8158  0.1234
  491MOL0     H66223   5.013   0.781   7.095  0.9749 -0.1562  0.9620
  491MOL0     H66224   4.982   0.791   7.314  0.5975 -0.5201 -1.9362
  491MOL0     H66225   4.893   0.948   7.305 -0.8889 -0.8832  0.1827
  491MOL0     H66226   4.745   0.835   7.139  1.5060  1.0455 -0.3964
  491MOL0     H66227   4.834   0.678   7.181 -1.2093 -1.0501  3.4456
  491MOL0     H66228   4.763   0.695   7.399  0.3381  0.1663 -0.2970
  491MOL0     H66229   4.670   0.846   7.372 -1.3803  1.3054 -1.6083
  491MOL0     H66230   4.533   0.732   7.212 -1.2622 -2.2719 -0.6306
  491MOL0     H66231   4.637   0.585   7.222 -2.6235 -2.9654  2.7266
  491MOL0     H66232   4.547   0.701   7.484 -0.9588 -0.5367  0.4147
  491MOL0     H66233   4.409   0.631   7.387 -1.2534 -0.4192  1.6808
  491MOL0     H66234   4.668   0.505   7.492  0.7709 -0.4972 -2.1885
  491MOL0     H66235   4.565   0.414   7.394  1.0253  1.0943  0.6385
  491MOL0     H66236   4.268   0.483   7.484 -0.7826  3.3634 -0.6818
  491MOL0     H66237   4.152   0.281   7.712 -3.8358 -0.3071  1.0482
  491MOL0     H66238   4.162   0.381   7.853  0.6792  1.1428  1.2250
  491MOL0     H66239   4.067   0.568   7.711  0.9985  0.1054  1.4181
  491MOL0     H66240   3.954   0.436   7.748  1.7974 -0.6337  3.3020
  491MOL0     H66241   4.015   0.336   7.499 -0.1696  0.8404 -1.2992
  491MOL0     H66242   4.076   0.509   7.481  1.6899 -1.2012  0.2749
  491MOL0     H66243   3.862   0.507   7.403  0.6495 -0.3277 -0.0201
  491MOL0     H66244   3.858   0.577   7.570 -0.2456 -2.3937  3.7774
  491MOL0     H66245   3.657   0.179   7.529  0.6660 -0.1580 -1.0996
  491MOL0     H66246   3.318   0.102   7.452 -0.2416 -0.8457 -2.8153
  491MOL0     H66247   3.450   0.083   7.336  1.9706 -0.6673  0.9958
  491MOL0     H66248   3.488   0.052   7.509  2.7250  0.2940 -1.3807
  491MOL0     H66249   2.952   0.337   7.696 -0.8009 -0.0375  0.3324
  491MOL0     H66250   2.726   0.381   7.671 -0.0093  0.2785  1.5495
  491MOL0     H66251   2.525   0.518   7.286 -0.9953  0.4460 -0.4916
  491MOL0     H66252   2.588   0.363   7.249 -1.0035 -0.3287 -0.0483
  491MOL0     H66253   2.360   0.326   7.209 -1.0677 -1.7781  0.0889
  491MOL0     H66254   2.396   0.245   7.357 -1.2092  0.2755  1.5198
  491MOL0     H66255   2.305   0.544   7.363  2.8347 -0.0663  0.6124
  491MOL0     H66256   2.296   0.418   7.485  1.1983  0.3576  0.5238
  491MOL0     H66257   2.128   0.422   7.240 -1.6503  0.7598  0.6631
  491MOL0     H66258   2.141   0.291   7.368 -4.1494  0.8182  2.5893
  491MOL0     H66259   2.039   0.579   7.437 -0.5505  0.2645  0.7288
  491MOL0     H66260   2.051   0.442   7.534  1.2607 -2.9994 -1.1552
  491MOL0     H66261   1.876   0.326   7.381 -0.2720 -0.3544  2.3595
  491MOL0     H66262   1.807   0.472   7.456  1.0705 -2.5718  1.4460
  491MOL0     H66263   1.920   0.459   7.183  1.4660 -0.9777  3.4225
  491MOL0     H66264   1.856   0.605   7.264 -0.4359 -0.1250  2.6073
  491MOL0     H66265   1.642   0.500   7.298  2.0391  0.9310  1.7240
  491MOL0     H66266   1.701   0.350   7.217  0.3189  0.0493  1.5563
  491MOL0     H66267   2.773   0.502   7.262  2.9273  1.3862 -0.1897
  491MOL0     H66268   3.023   0.463   7.283  0.3310  0.6738 -0.0535
  491MOL0     H66269   3.380   0.582   7.454 -2.3267 -0.7097  1.8724
  491MOL0     H66270   3.615   0.600   7.485 -0.3011  0.0527  2.0239
  491MOL0     H66271   5.316   1.198   6.941 -0.0068  3.5415  1.2843
  491MOL0     H66272   5.536   1.291   6.960  2.6324  1.4787  2.6256
  491MOL0     H66273   6.096   1.177   7.212  0.1328  0.6882  0.7014
  491MOL0     H66274   6.254   1.356   7.258  0.0199 -0.1404 -0.0754
  491MOL0     H66275   6.347   1.538   7.336 -0.8965 -0.7235 -0.8259
  491MOL0     H66276   6.383   1.547   7.169  1.2582  0.3116  0.9278
  491MOL0     H66277   6.350   1.811   7.207 -0.2009  0.7308  0.5471
  491MOL0     H66278   6.502   1.734   7.193  1.5209  0.8009  2.4809
  491MOL0     H66279   6.522   1.712   7.451 -0.6092  0.3234  2.9728
  491MOL0     H66280   6.376   1.805   7.463 -0.6874 -1.5584  0.4312
  491MOL0     H66281   6.609   1.914   7.283  1.5600  3.0764  1.2101
  491MOL0     H66282   6.605   1.950   7.456 -0.7477  3.0430 -0.3756
  491MOL0     H66283   6.420   2.257   7.255  1.0360  0.5500  2.1775
  491MOL0     H66284   5.948   1.658   7.226  0.5247 -0.0252 -6.0903
  491MOL0     H66285   5.781   1.454   7.244 -0.3451  1.0403 -0.1526
  492MOL0     O66286   2.699   0.439   2.895 -0.1853  0.3750 -0.0485
  492MOL0     C66287   2.784   0.450   2.978 -0.8449  0.1065 -0.2766
  492MOL0     O66288   2.770   0.498   3.111 -0.1959 -0.5367 -1.4351
  492MOL0     C66289   2.646   0.556   3.150 -0.8634 -0.8902 -0.6209
  492MOL0     C66290   2.519   0.543   3.096  0.2769 -0.2166  0.2328
  492MOL0     C66291   2.408   0.610   3.147 -0.8101  0.9106  0.1910
  492MOL0     C66292   2.425   0.697   3.255  1.0712  0.3251  0.4677
  492MOL0     O66293   2.339   0.781   3.308 -0.2418  0.0233  0.0925
  492MOL0     C66294   2.193   0.774   3.278 -0.6721 -0.3554 -0.0299
  492MOL0     C66295   2.124   0.871   3.371  0.8070  0.8394  0.7860
  492MOL0     C66296   1.972   0.842   3.367 -0.3852  0.0455 -0.5865
  492MOL0     C66297   1.891   0.955   3.428 -0.2077 -0.6206  0.5075
  492MOL0     C66298   1.752   0.908   3.433  0.4989 -0.5875 -1.0137
  492MOL0     C66299   1.656   1.020   3.485  0.9364 -0.5753  0.2433
  492MOL0     C66300   1.520   0.957   3.503  1.0399  0.3206  0.0402
  492MOL0     C66301   1.403   1.057   3.536  0.1017  0.7072  0.1843
  492MOL0     N66302   1.293   1.005   3.608 -0.2212 -0.0747 -0.1404
  492MOL0     C66303   1.199   0.907   3.575  0.0757 -0.8131  0.4554
  492MOL0     C66304   1.120   0.909   3.686  0.3156  0.8153  0.9147
  492MOL0     C66305   0.998   0.820   3.702  1.1595  0.8353  0.2516
  492MOL0     C66306   0.890   0.847   3.599  0.3988  0.1279 -0.1559
  492MOL0     C66307   0.832   0.988   3.627 -0.2507 -0.7548  0.0810
  492MOL0     C66308   0.724   1.043   3.524 -0.1553 -0.0563 -0.3304
  492MOL0     O66309   0.604   0.969   3.549 -0.2315 -0.3812  0.6224
  492MOL0     C66310   0.479   1.007   3.500  0.8476  0.3138 -0.2631
  492MOL0     C66311   0.369   0.924   3.528 -0.2466 -0.5169 -0.6518
  492MOL0     C66312   0.236   0.948   3.479  0.2139  0.1106 -0.6672
  492MOL0     C66313   0.132   0.845   3.525 -0.2097 -0.7552  0.8463
  492MOL0     C66314   0.212   1.062   3.400  0.4932 -0.1397  0.9824
  492MOL0     C66315   0.084   1.111   3.342  0.6380 -0.3345 -0.2314
  492MOL0     O66316   0.084   1.227   3.267  0.3744 -0.1076 -0.5558
  492MOL0     C66317  -0.034   1.268   3.211 -0.0080 -0.3821  1.0704
  492MOL0     C66318  -0.063   1.211   3.088 -0.7616 -0.0779  0.1692
  492MOL0     C66319  -0.179   1.245   3.023  0.8132 -0.4727 -0.9569
  492MOL0     C66320  -0.259   1.346   3.075  0.6643 -0.4919  0.0968
  492MOL0     O66321  -0.370   1.371   3.000 -0.5848 -0.2136 -0.6026
  492MOL0     C66322  -0.452   1.481   3.038 -0.6054 -0.1607 -0.2788
  492MOL0     C66323  -0.570   1.470   2.937 -0.1162  0.3136  0.9373
  492MOL0     C66324  -0.689   1.556   2.942  0.0239  0.1399  0.2931
  492MOL0     C66325  -0.781   1.502   2.832 -0.0022  0.0998  0.9024
  492MOL0     C66326  -0.905   1.583   2.802  0.2860  0.2039  0.8426
  492MOL0     C66327  -0.875   1.722   2.745  0.6810 -0.1737  0.0174
  492MOL0     C66328  -0.970   1.754   2.631  0.7921  1.0159 -0.5976
  492MOL0     C66329  -0.952   1.678   2.499  0.3273  0.5494 -0.9517
  492MOL0    Cl66330  -0.823   1.733   2.400  0.2855  0.2662 -0.2243
  492MOL0     C66331  -0.224   1.411   3.198  0.2300 -0.0911  0.4077
  492MOL0     C66332  -0.112   1.371   3.263 -0.0957  0.0362  0.4797
  492MOL0     O66333  -0.018   1.047   3.373  0.5562 -0.7886  0.0074
  492MOL0     C66334   0.332   1.136   3.356  1.0335 -0.2201 -0.0885
  492MOL0     C66335   0.457   1.111   3.409 -0.6712  0.5564  0.1753
  492MOL0     N66336   1.169   1.000   3.779 -0.6504  0.7154 -0.3619
  492MOL0     N66337   1.268   1.055   3.734 -0.0714 -0.5488 -0.0078
  492MOL0     C66338   2.546   0.707   3.308 -0.2895 -0.5074 -0.7385
  492MOL0     C66339   2.658   0.644   3.260  0.3266 -0.4293  0.1308
  492MOL0     C66340   2.918   0.388   2.952 -0.4495 -0.9741  1.4230
  492MOL0     C66341   2.952   0.351   2.821 -0.5492 -0.7020  0.3056
  492MOL0     C66342   3.073   0.296   2.793 -0.5038  1.3877  0.7517
  492MOL0     C66343   3.168   0.262   2.898  0.7566  0.1193 -0.1613
  492MOL0     O66344   3.288   0.206   2.857 -0.3602  0.3634 -0.1730
  492MOL0     C66345   3.386   0.194   2.965 -0.3078  0.4259 -0.1551
  492MOL0     C66346   3.525   0.147   2.910  0.7592  0.3023 -0.0686
  492MOL0     C66347   3.592   0.239   2.810 -0.3558  0.5363  0.8950
  492MOL0     C66348   3.737   0.210   2.788 -0.7016  0.0819 -0.0025
  492MOL0     C66349   3.783   0.263   2.652  0.2087 -0.0952 -0.3286
  492MOL0     C66350   3.832   0.311   2.553  0.7485  0.4265  0.3442
  492MOL0     C66351   3.134   0.307   3.028  0.2082  0.1782  0.0824
  492MOL0     C66352   3.011   0.379   3.051 -0.3324  0.0670 -0.5377
  492MOL0     H66353   2.491   0.483   3.010  1.0836 -0.0481 -0.1501
  492MOL0     H66354   2.314   0.618   3.093 -0.4644  1.5630 -0.3337
  492MOL0     H66355   2.170   0.816   3.179 -0.1353 -0.0709 -0.0355
  492MOL0     H66356   2.150   0.674   3.283 -1.9332  0.0592 -1.5930
  492MOL0     H66357   2.168   0.866   3.471  1.4722  0.4969  0.4818
  492MOL0     H66358   2.149   0.961   3.313  2.6056 -0.3752 -0.4192
  492MOL0     H66359   1.938   0.837   3.263 -1.6580 -0.4802 -0.1695
  492MOL0     H66360   1.946   0.744   3.407  0.4236  0.3551  0.7411
  492MOL0     H66361   1.918   0.980   3.531  0.6287  2.4750 -0.3497
  492MOL0     H66362   1.896   1.044   3.364  0.9745 -0.3607  0.9252
  492MOL0     H66363   1.735   0.884   3.328  1.3825 -1.5417 -0.9506
  492MOL0     H66364   1.732   0.817   3.489  3.7147 -0.7162  0.1410
  492MOL0     H66365   1.694   1.066   3.577  1.3764  3.5540 -1.7662
  492MOL0     H66366   1.655   1.094   3.405  0.8282  0.3721  1.0931
  492MOL0     H66367   1.503   0.904   3.409  0.7188 -0.9270  0.7812
  492MOL0     H66368   1.533   0.883   3.583  4.1661  1.3774  0.6231
  492MOL0     H66369   1.353   1.088   3.444  0.0553 -3.3148 -1.3227
  492MOL0     H66370   1.446   1.141   3.592 -1.6065  2.6858 -1.3070
  492MOL0     H66371   1.190   0.847   3.485 -0.4615 -0.8663  0.5458
  492MOL0     H66372   1.038   0.718   3.688 -1.9534 -0.6992  1.6356
  492MOL0     H66373   0.953   0.825   3.801 -1.4702 -0.9081 -0.7548
  492MOL0     H66374   0.814   0.769   3.596  0.2433  0.2467 -3.5908
  492MOL0     H66375   0.937   0.837   3.501  2.3143  0.5840  0.6664
  492MOL0     H66376   0.909   1.066   3.621 -0.0145 -1.0764 -1.2419
  492MOL0     H66377   0.796   0.992   3.731  2.0149 -1.7251  0.9671
  492MOL0     H66378   0.761   1.030   3.421  1.5296  1.4399  0.0433
  492MOL0     H66379   0.710   1.149   3.544  2.7580  0.1005  1.4218
  492MOL0     H66380   0.385   0.828   3.577 -0.3308  1.1074  2.8174
  492MOL0     H66381   0.153   0.793   3.619  0.4712  3.2617  3.1593
  492MOL0     H66382   0.035   0.894   3.537 -0.8132 -1.7103  0.0461
  492MOL0     H66383   0.130   0.763   3.452  1.8493  0.8015 -1.1354
  492MOL0     H66384  -0.005   1.130   3.046 -1.4554  0.4184 -1.8271
  492MOL0     H66385  -0.190   1.201   2.925  0.2313 -1.0562 -0.6384
  492MOL0     H66386  -0.480   1.473   3.143 -0.1265 -1.5307 -0.2296
  492MOL0     H66387  -0.399   1.574   3.017 -0.8421  0.2332  0.8157
  492MOL0     H66388  -0.532   1.491   2.837  0.1839 -0.7192  0.8204
  492MOL0     H66389  -0.601   1.366   2.923  1.2231  0.2040 -1.7923
  492MOL0     H66390  -0.648   1.657   2.926  0.2187 -0.1492 -1.1481
  492MOL0     H66391  -0.730   1.554   3.043  0.9860  0.0128  0.6980
  492MOL0     H66392  -0.728   1.507   2.736 -0.5594  0.2511  0.5981
  492MOL0     H66393  -0.812   1.400   2.856 -0.9110 -0.4422 -2.1262
  492MOL0     H66394  -0.954   1.580   2.900  2.2123 -0.3420  1.8402
  492MOL0     H66395  -0.975   1.534   2.734 -2.1510 -0.8276  3.8372
  492MOL0     H66396  -0.894   1.799   2.820  0.4908  0.8736 -1.0780
  492MOL0     H66397  -0.771   1.736   2.713  0.3955 -0.3784 -1.0434
  492MOL0     H66398  -0.978   1.862   2.614 -2.8697  1.6720  3.6030
  492MOL0     H66399  -1.069   1.728   2.668  0.5417  1.0589 -1.2214
  492MOL0     H66400  -1.046   1.688   2.445  0.0652 -1.5867 -0.9730
  492MOL0     H66401  -0.935   1.574   2.528 -0.7710 -0.2231 -2.8946
  492MOL0     H66402  -0.277   1.493   3.245  2.4394  0.6963  1.6908
  492MOL0     H66403  -0.071   1.435   3.341 -0.0173 -2.1324  2.3077
  492MOL0     H66404   0.318   1.221   3.291 -1.6243 -0.4807  0.0244
  492MOL0     H66405   0.545   1.159   3.368 -0.3124 -0.4213 -0.2163
  492MOL0     H66406   2.551   0.776   3.392 -1.3951  1.8981 -2.5197
  492MOL0     H66407   2.753   0.660   3.310 -0.2561  2.3584  0.5415
  492MOL0     H66408   2.883   0.361   2.738 -2.3060  3.5698  1.9715
  492MOL0     H66409   3.071   0.266   2.689  0.2792 -1.8477  1.5654
  492MOL0     H66410   3.413   0.295   2.998  1.6560  0.4697 -1.6510
  492MOL0     H66411   3.344   0.140   3.049 -0.1157  0.4897 -0.0168
  492MOL0     H66412   3.505   0.053   2.858 -0.0213  0.1831  0.4310
  492MOL0     H66413   3.594   0.125   2.992 -1.5644 -0.2682  1.8424
  492MOL0     H66414   3.599   0.341   2.849  0.0982  0.2191  1.6655
  492MOL0     H66415   3.531   0.234   2.720 -0.8017 -1.1526  1.2487
  492MOL0     H66416   3.745   0.101   2.794 -5.8458 -0.5841 -1.1157
  492MOL0     H66417   3.802   0.250   2.867 -1.5888 -1.8011  1.7728
  492MOL0     H66418   3.865   0.353   2.460  0.2725  0.2017  0.0679
  492MOL0     H66419   3.192   0.286   3.117  0.9664 -0.7332 -0.6219
  492MOL0     H66420   2.985   0.415   3.149  0.8217 -4.3891  1.6784
  493MOL0     O66421   0.308   8.232   9.434 -0.0038  0.4838 -0.4530
  493MOL0     C66422   0.304   8.148   9.522  0.2985  1.0663 -0.2205
  493MOL0     O66423   0.189   8.112   9.590  0.3319  0.0373  0.4997
  493MOL0     C66424   0.070   8.182   9.564  0.1440 -0.5780  0.3267
  493MOL0     C66425  -0.053   8.120   9.532 -0.8600  0.3233 -0.1927
  493MOL0     C66426  -0.164   8.184   9.504 -0.0340  0.5750 -0.8629
  493MOL0     C66427  -0.171   8.322   9.517  0.3199 -0.4412  0.4434
  493MOL0     O66428  -0.282   8.400   9.501  0.0740 -0.0335 -0.0012
  493MOL0     C66429  -0.372   8.358   9.397 -0.2396  0.7849  0.0164
  493MOL0     C66430  -0.485   8.459   9.396 -0.5841 -0.6481  0.8119
  493MOL0     C66431  -0.581   8.419   9.509  0.0616 -0.9190  0.6823
  493MOL0     C66432  -0.686   8.526   9.527  0.2329  0.6951 -0.7315
  493MOL0     C66433  -0.756   8.478   9.659 -0.5064  0.0086 -0.3098
  493MOL0     C66434  -0.883   8.562   9.677 -0.5026  0.1214  0.2819
  493MOL0     C66435  -0.861   8.708   9.713  0.2307 -0.7147  0.0176
  493MOL0     C66436  -0.984   8.800   9.695 -0.0435 -0.2705  0.7065
  493MOL0     N66437  -1.097   8.761   9.777 -0.3452 -0.2351 -0.3939
  493MOL0     C66438  -1.104   8.773   9.915  0.3070 -0.4071 -0.2671
  493MOL0     C66439  -1.213   8.700   9.947  0.3453 -0.6752 -0.4410
  493MOL0     C66440  -1.271   8.666  10.077 -0.8625  0.5365 -0.2654
  493MOL0     C66441  -1.399   8.740  10.103  0.1374  1.8179  0.6567
  493MOL0     C66442  -1.512   8.649  10.039  0.5546  0.0759  0.5655
  493MOL0     C66443  -1.651   8.713  10.057 -0.4934  0.5045 -0.5306
  493MOL0     O66444  -1.682   8.694  10.194 -0.1215  0.0562  0.3398
  493MOL0     C66445  -1.811   8.734  10.238 -1.2325 -0.4860 -0.2792
  493MOL0     C66446  -1.820   8.764  10.374 -0.2694 -0.9564 -0.2160
  493MOL0     C66447  -1.944   8.807  10.434  0.5352  0.2510  0.5994
  493MOL0     C66448  -1.948   8.831  10.587 -0.5988 -0.1588  1.0859
  493MOL0     C66449  -2.057   8.820  10.346  1.0622  0.0750  0.5533
  493MOL0     C66450  -2.195   8.850  10.389  0.3820  0.0761 -0.1526
  493MOL0     O66451  -2.278   8.914  10.303 -0.4914  0.3861 -0.4403
  493MOL0     C66452  -2.398   8.963  10.345  0.2612 -0.6170 -0.0331
  493MOL0     C66453  -2.417   9.029  10.472  0.3407  0.4064  1.5210
  493MOL0     C66454  -2.535   9.085  10.510 -0.1356  0.1151 -0.2155
  493MOL0     C66455  -2.647   9.077  10.418 -0.0066 -0.0318 -0.2937
  493MOL0     O66456  -2.766   9.129  10.469 -0.1150 -0.4445  0.8364
  493MOL0     C66457  -2.893   9.067  10.439  0.2308 -0.0314 -0.0305
  493MOL0     C66458  -3.008   9.171  10.479  0.2852  0.5149  0.2540
  493MOL0     C66459  -3.150   9.115  10.478  0.2404 -0.3119 -0.6941
  493MOL0     C66460  -3.252   9.227  10.520  0.5373  0.7699 -0.2553
  493MOL0     C66461  -3.383   9.168  10.578  0.0493 -0.9655 -1.3406
  493MOL0     C66462  -3.377   9.095  10.720  1.2201 -0.1374  0.6601
  493MOL0     C66463  -3.471   9.166  10.822  0.5382 -0.3986  0.9988
  493MOL0     C66464  -3.491   9.099  10.959  0.3626  0.1846  0.0726
  493MOL0    Cl66465  -3.539   9.225  11.077  0.4224  0.4393  0.1587
  493MOL0     C66466  -2.625   9.021  10.295 -0.3560 -0.6008  0.3576
  493MOL0     C66467  -2.500   8.975  10.255 -0.1648  0.6020 -0.7115
  493MOL0     O66468  -2.222   8.819  10.506 -0.2447  0.2428  0.4005
  493MOL0     C66469  -2.040   8.790  10.210  0.2737 -0.0267 -0.0223
  493MOL0     C66470  -1.920   8.755  10.152 -0.3006 -0.2839  0.5340
  493MOL0     N66471  -1.275   8.666   9.825 -0.1367 -0.0551 -0.0759
  493MOL0     N66472  -1.202   8.693   9.720  0.2200  0.3985  0.3545
  493MOL0     C66473  -0.054   8.387   9.562 -0.0704  0.1381 -0.6077
  493MOL0     C66474   0.067   8.319   9.581 -0.1550  0.4499  0.0401
  493MOL0     C66475   0.431   8.067   9.549  0.1150 -0.1815  0.3848
  493MOL0     C66476   0.544   8.065   9.470  0.1720  0.2041 -0.0209
  493MOL0     C66477   0.655   7.977   9.496  0.4541  0.4106  0.1077
  493MOL0     C66478   0.660   7.907   9.624  0.2214 -0.3604 -0.2423
  493MOL0     O66479   0.755   7.816   9.657 -0.6376 -0.2381 -0.4924
  493MOL0     C66480   0.849   7.781   9.554  0.8480  0.6855  0.1215
  493MOL0     C66481   0.909   7.647   9.585 -0.2736  0.1604  0.6801
  493MOL0     C66482   1.037   7.638   9.493 -0.1888 -0.5312 -0.1096
  493MOL0     C66483   1.027   7.528   9.385  0.5562  0.3511  0.3341
  493MOL0     C66484   1.161   7.492   9.338  1.1627 -0.6294  0.5375
  493MOL0     C66485   1.271   7.451   9.303 -0.3092 -0.4163 -0.0024
  493MOL0     C66486   0.551   7.914   9.709 -0.0752  0.2913 -0.1130
  493MOL0     C66487   0.436   7.983   9.667 -0.4629 -0.0954 -0.9809
  493MOL0     H66488  -0.051   8.011   9.537  0.5935  0.2824 -1.3781
  493MOL0     H66489  -0.254   8.139   9.462  0.3966  1.5372 -2.9630
  493MOL0     H66490  -0.325   8.355   9.298 -0.2683  0.8787 -0.0002
  493MOL0     H66491  -0.406   8.255   9.416 -2.8842  1.6281  0.2699
  493MOL0     H66492  -0.450   8.562   9.386 -0.3343 -0.7894  0.1417
  493MOL0     H66493  -0.532   8.446   9.298 -3.7132  2.6921  1.6669
  493MOL0     H66494  -0.633   8.325   9.491 -1.6447 -0.1712  1.4014
  493MOL0     H66495  -0.525   8.411   9.602  0.3274 -1.5637  0.4653
  493MOL0     H66496  -0.639   8.619   9.559  2.1706 -0.8850  1.3436
  493MOL0     H66497  -0.749   8.531   9.438  0.7473 -0.9330 -1.2268
  493MOL0     H66498  -0.777   8.370   9.661  1.7837 -0.5007 -0.6553
  493MOL0     H66499  -0.698   8.504   9.747 -0.1724 -1.8035  0.0395
  493MOL0     H66500  -0.938   8.555   9.582 -2.6858  0.0294  1.5028
  493MOL0     H66501  -0.948   8.514   9.750  0.5079 -2.2463 -0.2760
  493MOL0     H66502  -0.828   8.712   9.817  0.3496  1.9361 -0.0483
  493MOL0     H66503  -0.783   8.751   9.649  1.0314 -0.1384  1.3398
  493MOL0     H66504  -1.017   8.795   9.591  3.5462  1.0874 -0.6110
  493MOL0     H66505  -0.961   8.903   9.721 -0.1356  0.4552 -1.8788
  493MOL0     H66506  -1.031   8.824   9.978  1.5583 -0.4332 -1.6404
  493MOL0     H66507  -1.278   8.558  10.096 -0.8723  0.3084 -1.5005
  493MOL0     H66508  -1.196   8.707  10.146 -0.3068 -0.5612 -0.2020
  493MOL0     H66509  -1.396   8.837  10.051 -1.3407  2.3559  1.5146
  493MOL0     H66510  -1.411   8.755  10.210 -0.2628  2.5029  0.5207
  493MOL0     H66511  -1.521   8.546  10.076  0.3300 -1.0191 -2.3041
  493MOL0     H66512  -1.498   8.650   9.931 -0.9689 -2.2168  0.2670
  493MOL0     H66513  -1.721   8.653   9.997  0.5292  0.5760 -1.8274
  493MOL0     H66514  -1.655   8.811  10.010  0.0533  1.0373  0.5001
  493MOL0     H66515  -1.727   8.747  10.428 -1.1607 -0.6832  1.4508
  493MOL0     H66516  -1.998   8.925  10.612 -1.5901 -0.5175  0.5168
  493MOL0     H66517  -1.999   8.755  10.646  1.9059 -1.4394  1.7216
  493MOL0     H66518  -1.845   8.837  10.622 -0.9169  1.4465  1.8550
  493MOL0     H66519  -2.337   9.045  10.543  2.4275  1.2182 -0.8730
  493MOL0     H66520  -2.547   9.154  10.592 -0.8125 -0.8014  0.4813
  493MOL0     H66521  -2.912   9.042  10.335 -2.0584  1.4351 -0.0533
  493MOL0     H66522  -2.906   8.978  10.502 -2.1662  0.8703  0.8710
  493MOL0     H66523  -2.975   9.207  10.577  1.6012  0.6119 -0.2006
  493MOL0     H66524  -3.000   9.256  10.410  0.5201 -0.3407 -0.7963
  493MOL0     H66525  -3.158   9.025  10.539  1.3942 -0.1995 -0.3525
  493MOL0     H66526  -3.167   9.078  10.377 -0.9883 -0.2884 -0.5191
  493MOL0     H66527  -3.214   9.274  10.611 -3.9104 -0.3848  2.5114
  493MOL0     H66528  -3.276   9.303  10.445 -2.0915  0.1418 -0.1771
  493MOL0     H66529  -3.427   9.103  10.501 -3.0135 -0.7609  0.0774
  493MOL0     H66530  -3.448   9.255  10.588 -0.7191 -1.4500 -1.9494
  493MOL0     H66531  -3.404   8.994  10.688 -2.2751  1.2443 -1.3243
  493MOL0     H66532  -3.275   9.080  10.757  1.4409 -3.6362 -0.9445
  493MOL0     H66533  -3.571   9.188  10.784  0.8766 -1.6580 -0.7243
  493MOL0     H66534  -3.427   9.266  10.824 -2.4258  1.1449 -1.4515
  493MOL0     H66535  -3.396   9.059  10.993  0.3347 -2.2567 -2.4047
  493MOL0     H66536  -3.573   9.028  10.947  0.2041  0.8573 -4.8758
  493MOL0     H66537  -2.705   9.013  10.222 -0.3788 -0.8676  0.4120
  493MOL0     H66538  -2.491   8.927  10.158 -1.2503 -1.2063  0.0476
  493MOL0     H66539  -2.122   8.815  10.143  0.2514  0.3611  0.1472
  493MOL0     H66540  -1.914   8.754  10.043  0.0619 -0.2041  0.5527
  493MOL0     H66541  -0.069   8.493   9.580 -5.3496 -0.5085  0.4635
  493MOL0     H66542   0.163   8.362   9.610  1.1371 -2.1567 -0.0389
  493MOL0     H66543   0.549   8.120   9.376 -0.7336  3.5151  1.7104
  493MOL0     H66544   0.733   7.972   9.421  0.7450  1.8303  0.2910
  493MOL0     H66545   0.811   7.773   9.451  4.3685 -0.9227 -1.2030
  493MOL0     H66546   0.925   7.860   9.551  1.4663  0.0748 -1.3966
  493MOL0     H66547   0.837   7.571   9.554 -1.4733  1.3928  0.3606
  493MOL0     H66548   0.932   7.642   9.692  1.1448  1.4633  0.4661
  493MOL0     H66549   1.124   7.609   9.552 -1.6336 -4.1985  0.4596
  493MOL0     H66550   1.063   7.737   9.452 -0.0289  0.1267  1.5092
  493MOL0     H66551   0.973   7.555   9.294  2.0872 -2.8033 -1.6775
  493MOL0     H66552   0.985   7.441   9.436 -0.1185 -0.0800 -0.9152
  493MOL0     H66553   1.375   7.435   9.281 -0.5476 -3.4776  0.6046
  493MOL0     H66554   0.548   7.865   9.805 -0.3293  1.7789  0.6633
  493MOL0     H66555   0.355   7.985   9.739  0.0401  1.3644 -0.4215
  494MOL0     O66556   4.395   1.628   6.156 -0.3473  0.8397 -0.3766
  494MOL0     C66557   4.480   1.609   6.065  0.0817  0.0204 -0.2873
  494MOL0     O66558   4.451   1.613   5.929  0.1030  0.4287 -0.1764
  494MOL0     C66559   4.317   1.635   5.905 -0.1623  0.0197  0.3290
  494MOL0     C66560   4.271   1.766   5.879 -1.0172  0.1562 -0.0483
  494MOL0     C66561   4.142   1.784   5.842 -0.0182 -0.7242  0.1051
  494MOL0     C66562   4.058   1.677   5.824 -0.1699  1.2062  0.6183
  494MOL0     O66563   3.928   1.678   5.771 -0.4306  0.3150 -0.0213
  494MOL0     C66564   3.866   1.806   5.729  0.1192 -0.1678 -0.4113
  494MOL0     C66565   3.721   1.800   5.674 -0.5660 -0.8553 -0.0016
  494MOL0     C66566   3.638   1.752   5.793  0.3112  0.2911 -0.0895
  494MOL0     C66567   3.498   1.729   5.752  0.4370 -0.1512  1.0707
  494MOL0     C66568   3.405   1.733   5.869  0.5845  0.7237 -0.1902
  494MOL0     C66569   3.444   1.621   5.969 -0.5107  0.1459  0.2217
  494MOL0     C66570   3.332   1.614   6.075 -0.4130 -0.6494 -0.9825
  494MOL0     C66571   3.308   1.466   6.130  0.5881 -0.6515 -0.5429
  494MOL0     N66572   3.269   1.371   6.022 -0.3216 -0.0429 -0.7226
  494MOL0     C66573   3.154   1.371   5.952 -0.6606 -0.3219 -0.9032
  494MOL0     C66574   3.153   1.264   5.859 -0.0729 -0.0771 -0.7269
  494MOL0     C66575   3.031   1.251   5.764  0.0746  0.7601  0.9341
  494MOL0     C66576   3.018   1.388   5.689 -0.2227 -0.5784 -0.9843
  494MOL0     C66577   3.106   1.382   5.562  0.2313 -0.0170 -0.5769
  494MOL0     C66578   3.253   1.358   5.585  0.3665 -0.4307 -0.0191
  494MOL0     O66579   3.319   1.343   5.458 -0.3643 -0.8407  0.5074
  494MOL0     C66580   3.449   1.303   5.447  0.0105  0.1007  0.6963
  494MOL0     C66581   3.541   1.318   5.548  0.2827  0.7023 -0.7344
  494MOL0     C66582   3.677   1.272   5.549  0.0705 -0.4790  0.3947
  494MOL0     C66583   3.758   1.305   5.674 -0.5782 -0.0046 -0.2907
  494MOL0     C66584   3.723   1.218   5.433 -0.4043  0.0915  0.0500
  494MOL0     C66585   3.866   1.174   5.404  0.7119 -0.8768  0.4806
  494MOL0     O66586   3.908   1.167   5.277 -0.3635 -0.1888 -0.8763
  494MOL0     C66587   4.013   1.086   5.234  0.2258  0.0259 -0.2706
  494MOL0     C66588   4.048   0.965   5.298 -0.2822  0.1112  0.0447
  494MOL0     C66589   4.157   0.887   5.257  0.6524  0.2363  0.1758
  494MOL0     C66590   4.230   0.928   5.142  0.3296  0.6650  0.3496
  494MOL0     O66591   4.339   0.858   5.099  0.0584 -0.6363  0.2858
  494MOL0     C66592   4.400   0.769   5.190  0.1327  0.1610 -0.2917
  494MOL0     C66593   4.341   0.632   5.172 -0.1539 -0.0445  0.0432
  494MOL0     C66594   4.413   0.520   5.258 -0.5730  0.8775 -0.0815
  494MOL0     C66595   4.407   0.380   5.188  0.2910  0.1904 -1.0986
  494MOL0     C66596   4.477   0.273   5.265  0.1568  0.4994  0.0397
  494MOL0     C66597   4.626   0.293   5.287  0.2765 -0.2565  1.2249
  494MOL0     C66598   4.685   0.181   5.372 -0.2903  0.2994  0.4646
  494MOL0     C66599   4.810   0.109   5.319 -0.7816 -0.7154 -0.3233
  494MOL0    Cl66600   4.944   0.214   5.275 -0.2419  0.2470  0.5422
  494MOL0     C66601   4.190   1.047   5.074 -0.1860 -0.2264 -0.9547
  494MOL0     C66602   4.083   1.125   5.121 -0.9082  0.3146  0.1569
  494MOL0     O66603   3.937   1.157   5.508  0.3716  0.3025 -0.1348
  494MOL0     C66604   3.629   1.202   5.321  0.2536 -0.7679 -0.7167
  494MOL0     C66605   3.492   1.233   5.330  0.4836 -0.6167  0.1530
  494MOL0     N66606   3.264   1.184   5.891 -0.0056  0.1807 -0.5694
  494MOL0     N66607   3.323   1.244   5.987 -0.3759 -0.1307  0.5010
  494MOL0     C66608   4.099   1.547   5.853 -0.5684 -0.7434  0.4788
  494MOL0     C66609   4.235   1.526   5.889  0.7288  0.2515  0.3528
  494MOL0     C66610   4.620   1.593   6.101  0.0587 -0.6141 -0.2152
  494MOL0     C66611   4.672   1.661   6.210  0.3465  0.2619 -0.4085
  494MOL0     C66612   4.805   1.659   6.240 -0.1244  0.0533  0.2868
  494MOL0     C66613   4.886   1.571   6.165  0.4805  0.1585  0.5653
  494MOL0     O66614   5.018   1.560   6.196 -0.2334 -0.0701 -0.7809
  494MOL0     C66615   5.095   1.677   6.223 -0.3975  0.0300  0.4491
  494MOL0     C66616   5.236   1.651   6.170 -0.1449 -0.4330 -0.1711
  494MOL0     C66617   5.349   1.726   6.245  0.5092 -0.2690  0.4643
  494MOL0     C66618   5.368   1.871   6.192  0.0950  0.4322  0.6212
  494MOL0     C66619   5.506   1.911   6.222  0.3275 -0.4893  0.7527
  494MOL0     C66620   5.613   1.951   6.252  0.4583  0.1414  0.2663
  494MOL0     C66621   4.834   1.511   6.044  0.2230 -1.0662  0.4448
  494MOL0     C66622   4.700   1.515   6.012 -0.3551 -0.0182  0.0651
  494MOL0     H66623   4.331   1.856   5.876  3.0279 -2.1413  2.5681
  494MOL0     H66624   4.093   1.880   5.833 -0.4050 -1.0737 -2.4553
  494MOL0     H66625   3.873   1.882   5.807  3.2923  0.1884 -0.9405
  494MOL0     H66626   3.931   1.827   5.644 -2.8922  0.8954 -2.6410
  494MOL0     H66627   3.687   1.896   5.634  1.2067  0.1233  0.7189
  494MOL0     H66628   3.728   1.730   5.590  2.0552 -0.7332  0.0334
  494MOL0     H66629   3.681   1.655   5.820 -0.2717  0.0119 -0.1460
  494MOL0     H66630   3.667   1.820   5.874  1.7343  1.3722 -1.4446
  494MOL0     H66631   3.462   1.805   5.682 -0.0112 -4.2019 -3.6466
  494MOL0     H66632   3.492   1.638   5.692 -1.2237  1.7154 -1.8204
  494MOL0     H66633   3.418   1.825   5.926 -1.2948 -0.0649  1.6192
  494MOL0     H66634   3.307   1.719   5.823 -0.4628  1.3192  1.7680
  494MOL0     H66635   3.469   1.524   5.924  1.2047  1.4125 -1.8051
  494MOL0     H66636   3.533   1.649   6.026  0.8876  0.1471 -1.8278
  494MOL0     H66637   3.351   1.685   6.156 -1.6774  2.6300 -3.3264
  494MOL0     H66638   3.239   1.649   6.029  0.0152  2.1699  0.1143
  494MOL0     H66639   3.232   1.465   6.209  0.5885 -1.3413 -0.5500
  494MOL0     H66640   3.396   1.431   6.185 -0.8688 -1.7523  1.2425
  494MOL0     H66641   3.084   1.453   5.964  1.3791  1.1672  1.9420
  494MOL0     H66642   3.061   1.176   5.690  0.0579  0.4433  1.2485
  494MOL0     H66643   2.938   1.232   5.819  0.8561  0.8670  2.3527
  494MOL0     H66644   3.054   1.470   5.751  0.8318 -1.2178 -0.7177
  494MOL0     H66645   2.916   1.412   5.657 -0.1187  2.0257  0.4264
  494MOL0     H66646   3.115   1.476   5.508  0.8769  1.2425  1.5982
  494MOL0     H66647   3.056   1.314   5.493 -0.5069  1.0858 -1.1529
  494MOL0     H66648   3.269   1.268   5.646 -0.3025 -0.7577 -0.3110
  494MOL0     H66649   3.297   1.438   5.644  0.8757 -1.2577  0.7480
  494MOL0     H66650   3.507   1.374   5.635  1.7825 -2.5812  2.2440
  494MOL0     H66651   3.689   1.335   5.753 -0.7767  0.5521 -0.6693
  494MOL0     H66652   3.828   1.229   5.709  1.7133  1.6123 -1.1620
  494MOL0     H66653   3.812   1.397   5.653 -0.2666 -0.1440 -0.1090
  494MOL0     H66654   3.994   0.932   5.386  0.5697 -3.8262 -0.7491
  494MOL0     H66655   4.172   0.793   5.308  0.8555 -0.2481 -0.7679
  494MOL0     H66656   4.502   0.763   5.152  0.0419 -1.9723 -0.3123
  494MOL0     H66657   4.379   0.801   5.293 -2.8882  2.4555 -1.4655
  494MOL0     H66658   4.235   0.627   5.197  0.0476  0.5023  1.0431
  494MOL0     H66659   4.351   0.611   5.065  2.0353 -0.9069  0.3494
  494MOL0     H66660   4.341   0.519   5.340 -1.1143  2.0105 -0.5198
  494MOL0     H66661   4.513   0.543   5.296  0.5902  0.8352 -2.8565
  494MOL0     H66662   4.304   0.346   5.175 -0.2396  2.7618 -5.6648
  494MOL0     H66663   4.459   0.394   5.093  0.9492 -0.5227 -0.8511
  494MOL0     H66664   4.464   0.175   5.218  1.1095  0.6386 -0.5596
  494MOL0     H66665   4.425   0.278   5.361  1.0740 -1.4542  0.6827
  494MOL0     H66666   4.671   0.304   5.188  1.0844  2.9631  1.8439
  494MOL0     H66667   4.644   0.387   5.339 -0.3900  1.4924 -1.4843
  494MOL0     H66668   4.611   0.102   5.385 -2.5594  2.0935 -0.8104
  494MOL0     H66669   4.719   0.217   5.469  1.6743  1.5395 -0.6058
  494MOL0     H66670   4.788   0.051   5.229  1.3564 -1.9881 -0.0965
  494MOL0     H66671   4.846   0.045   5.400  0.0866 -0.4822 -0.5108
  494MOL0     H66672   4.237   1.080   4.982 -0.3892  2.2514 -0.2514
  494MOL0     H66673   4.040   1.209   5.068 -1.4761 -0.2305 -0.2527
  494MOL0     H66674   3.663   1.150   5.232 -0.6522 -0.8843 -1.0035
  494MOL0     H66675   3.415   1.210   5.257 -1.6045 -1.1020  2.3454
  494MOL0     H66676   4.034   1.461   5.843  1.3997 -2.0335 -3.2506
  494MOL0     H66677   4.252   1.420   5.907  1.6055  0.4370  0.6462
  494MOL0     H66678   4.599   1.713   6.272  1.2612 -0.1245  1.0443
  494MOL0     H66679   4.843   1.710   6.328  1.8948 -0.7980 -0.0311
  494MOL0     H66680   5.065   1.774   6.182  1.5921 -0.1974 -1.8145
  494MOL0     H66681   5.105   1.696   6.331 -0.0690  1.0035  0.2658
  494MOL0     H66682   5.233   1.674   6.063 -1.5909  0.7877  0.1085
  494MOL0     H66683   5.239   1.542   6.180 -2.8518 -1.1377 -4.3369
  494MOL0     H66684   5.446   1.679   6.225  2.3707  2.4928  2.2710
  494MOL0     H66685   5.335   1.726   6.353  3.1764 -3.3016  0.9417
  494MOL0     H66686   5.297   1.944   6.233  1.6666  2.1536  0.4178
  494MOL0     H66687   5.368   1.861   6.083 -0.2762 -1.2611  0.7442
  494MOL0     H66688   5.710   1.979   6.289 -0.2937 -0.6421  3.1230
  494MOL0     H66689   4.901   1.448   5.986  2.2672  0.1909  1.3306
  494MOL0     H66690   4.665   1.468   5.920 -2.1595  1.0986  0.1346
  495MOL0     O66691   9.978   5.492   2.730  0.6817 -0.1702  0.0822
  495MOL0     C66692  10.020   5.604   2.745  0.1903  0.0506  0.5536
  495MOL0     O66693   9.947   5.713   2.770  0.9370  0.4363  0.0612
  495MOL0     C66694   9.808   5.705   2.738  1.0561 -0.2582  0.3069
  495MOL0     C66695   9.772   5.695   2.603  0.4010  0.4572 -0.0387
  495MOL0     C66696   9.638   5.690   2.562  0.1322 -0.0039 -0.4138
  495MOL0     C66697   9.540   5.702   2.662  0.4626  0.3153  0.7256
  495MOL0     O66698   9.410   5.709   2.614 -0.2389 -1.1021 -0.1748
  495MOL0     C66699   9.306   5.696   2.719 -0.8985 -0.0583  0.3670
  495MOL0     C66700   9.166   5.673   2.660  0.0170  0.5382  0.5365
  495MOL0     C66701   9.060   5.656   2.772  1.0141  0.7919 -0.1079
  495MOL0     C66702   8.928   5.593   2.726 -0.0879 -0.0515  0.6256
  495MOL0     C66703   8.830   5.697   2.674  0.3435 -0.4371 -0.0583
  495MOL0     C66704   8.700   5.632   2.630  0.5555  0.0365  0.0270
  495MOL0     C66705   8.611   5.580   2.746  0.4290  0.5749 -0.3471
  495MOL0     C66706   8.465   5.541   2.700 -0.6484 -0.1502  0.2691
  495MOL0     N66707   8.402   5.444   2.791  0.7045 -0.4006 -0.2642
  495MOL0     C66708   8.349   5.316   2.768 -0.1457  0.0455 -0.5046
  495MOL0     C66709   8.328   5.259   2.889 -1.0423  0.3852  0.1660
  495MOL0     C66710   8.285   5.115   2.909 -0.9022  0.3505  0.1063
  495MOL0     C66711   8.388   5.009   2.874 -0.9117 -0.2773  0.0402
  495MOL0     C66712   8.510   5.020   2.976 -0.1095 -0.6653 -0.1810
  495MOL0     C66713   8.606   4.919   2.927 -0.2510 -0.0844 -0.7470
  495MOL0     O66714   8.727   4.920   3.000  0.0988 -0.1905  0.1150
  495MOL0     C66715   8.824   4.826   2.969  1.1957 -0.3672 -0.2602
  495MOL0     C66716   8.897   4.824   2.855  0.7929 -1.6802 -0.1328
  495MOL0     C66717   8.998   4.738   2.836 -0.5804 -0.6950  0.4678
  495MOL0     C66718   9.082   4.756   2.712  0.0384  0.9306 -1.1017
  495MOL0     C66719   9.026   4.640   2.939 -0.6728 -0.6041  0.5360
  495MOL0     C66720   9.144   4.549   2.938  0.5860 -0.8085  0.1277
  495MOL0     O66721   9.183   4.500   2.813  0.5201  0.0098 -0.2614
  495MOL0     C66722   9.309   4.453   2.782  0.1813 -0.4207  0.1906
  495MOL0     C66723   9.359   4.485   2.655  0.4373  0.2573  0.6422
  495MOL0     C66724   9.472   4.410   2.611 -0.3302  0.6577  0.0006
  495MOL0     C66725   9.545   4.320   2.700 -0.0387 -0.3515 -0.2847
  495MOL0     O66726   9.669   4.283   2.655 -0.4025 -0.6220  0.2301
  495MOL0     C66727   9.776   4.223   2.732 -0.0517  0.7499 -0.6712
  495MOL0     C66728   9.905   4.258   2.660  0.5230  0.0346 -0.2446
  495MOL0     C66729   9.910   4.186   2.522 -0.3099  0.8229  0.3151
  495MOL0     C66730  10.040   4.227   2.452  0.3393  0.1707 -0.4881
  495MOL0     C66731  10.062   4.160   2.306 -0.2127  0.4049 -0.1815
  495MOL0     C66732  10.207   4.175   2.267 -0.3765  0.5981 -0.3532
  495MOL0     C66733  10.208   4.167   2.115 -0.0145  0.2842  0.2813
  495MOL0     C66734  10.170   4.029   2.056 -0.7390 -1.0774 -0.3388
  495MOL0    Cl66735  10.312   3.920   2.071  0.4014 -0.0581  0.1824
  495MOL0     C66736   9.505   4.304   2.832  0.4188  0.0527 -1.2922
  495MOL0     C66737   9.379   4.357   2.871 -0.5438 -0.3666  1.5546
  495MOL0     O66738   9.199   4.535   3.045 -0.3665 -0.6074  0.1692
  495MOL0     C66739   8.942   4.633   3.052  0.1680  0.0705  0.6879
  495MOL0     C66740   8.833   4.724   3.064 -0.4712 -0.1555  0.6437
  495MOL0     N66741   8.358   5.350   2.985 -0.3011 -0.4747 -1.1306
  495MOL0     N66742   8.403   5.457   2.930 -0.2157  0.2363  0.5432
  495MOL0     C66743   9.565   5.718   2.801  0.0165 -0.3749 -0.0171
  495MOL0     C66744   9.703   5.715   2.831 -0.0966  0.2775 -0.9588
  495MOL0     C66745  10.164   5.623   2.738 -0.2861 -0.1970  0.8559
  495MOL0     C66746  10.235   5.738   2.772 -0.2241  0.0033 -0.5164
  495MOL0     C66747  10.370   5.752   2.781 -1.7406 -0.4034 -0.4844
  495MOL0     C66748  10.450   5.641   2.747 -0.9418 -0.5060 -0.6224
  495MOL0     O66749  10.585   5.645   2.761 -0.0265  0.3839 -1.0338
  495MOL0     C66750  10.658   5.760   2.812  0.0846  0.1973  0.2703
  495MOL0     C66751  10.807   5.732   2.796  1.4568  0.3365 -0.4964
  495MOL0     C66752  10.857   5.612   2.882 -0.1084  0.1640  0.0918
  495MOL0     C66753  10.815   5.600   3.030 -0.7533 -0.4494 -0.0539
  495MOL0     C66754  10.877   5.709   3.117 -0.0877 -1.0140  0.3125
  495MOL0     C66755  10.934   5.795   3.187 -0.5021 -0.0449  0.6612
  495MOL0     C66756  10.383   5.524   2.712  0.9266  0.6582 -1.0428
  495MOL0     C66757  10.249   5.513   2.716  0.8175  0.3877  0.2229
  495MOL0     H66758   9.854   5.694   2.532  1.0220  0.1249  0.6717
  495MOL0     H66759   9.622   5.668   2.457  1.4000  1.1334 -0.8724
  495MOL0     H66760   9.335   5.609   2.778  2.2162  1.3665  1.1652
  495MOL0     H66761   9.290   5.779   2.789  0.4312 -0.3506  1.0479
  495MOL0     H66762   9.141   5.748   2.585  1.4656 -1.2062 -1.8541
  495MOL0     H66763   9.169   5.577   2.607  3.3517  0.0905  1.2898
  495MOL0     H66764   9.089   5.586   2.851 -1.6992  0.4058  0.6488
  495MOL0     H66765   9.034   5.752   2.818  1.6595  0.0316  1.9548
  495MOL0     H66766   8.944   5.508   2.659  1.7987  1.6412 -1.1998
  495MOL0     H66767   8.884   5.562   2.822 -3.2181 -0.3962 -0.8013
  495MOL0     H66768   8.793   5.767   2.749 -0.2624 -0.8803  0.0690
  495MOL0     H66769   8.872   5.745   2.585 -3.1223 -0.3790 -1.8438
  495MOL0     H66770   8.657   5.717   2.577  1.7670  1.7542  1.6951
  495MOL0     H66771   8.717   5.557   2.551 -2.5538  0.9802 -1.7042
  495MOL0     H66772   8.656   5.486   2.780 -1.6191 -0.4155 -0.2487
  495MOL0     H66773   8.590   5.654   2.823 -0.5836  0.5324 -0.5639
  495MOL0     H66774   8.486   5.498   2.601  3.8070 -0.3767  1.1333
  495MOL0     H66775   8.399   5.628   2.696  0.5786  0.7808 -0.4677
  495MOL0     H66776   8.336   5.272   2.670  0.8154  1.1813 -1.1649
  495MOL0     H66777   8.265   5.100   3.016  2.3408 -0.1168  0.7684
  495MOL0     H66778   8.194   5.088   2.856  1.3669 -4.1021 -2.1080
  495MOL0     H66779   8.420   5.021   2.770  0.4297 -0.0160  0.4621
  495MOL0     H66780   8.342   4.910   2.885  0.6001 -1.2394 -1.6646
  495MOL0     H66781   8.478   4.992   3.077 -1.3184 -3.2522 -1.1934
  495MOL0     H66782   8.546   5.122   2.959  1.3660 -1.1419 -0.0428
  495MOL0     H66783   8.630   4.953   2.826 -0.5452  3.8034  0.3195
  495MOL0     H66784   8.549   4.826   2.924 -1.4352  0.5565  0.7703
  495MOL0     H66785   8.860   4.901   2.787 -2.4040 -0.8686  2.2478
  495MOL0     H66786   9.189   4.745   2.731 -0.8466 -0.8925  4.7269
  495MOL0     H66787   9.057   4.673   2.646 -2.7427 -0.0478  1.0087
  495MOL0     H66788   9.077   4.854   2.662  0.5163  0.8567 -1.3075
  495MOL0     H66789   9.316   4.555   2.584  2.8132 -0.1951 -1.3840
  495MOL0     H66790   9.494   4.418   2.505 -2.8361 -0.4507 -0.6969
  495MOL0     H66791   9.781   4.259   2.835 -2.5265 -1.3006  0.2659
  495MOL0     H66792   9.757   4.115   2.733  1.8714  0.3802 -0.6981
  495MOL0     H66793   9.918   4.365   2.644  1.7137  0.1089  1.0429
  495MOL0     H66794   9.988   4.227   2.724  0.0854  0.1521  0.3911
  495MOL0     H66795   9.824   4.220   2.463  1.3800  2.7710 -1.1993
  495MOL0     H66796   9.911   4.079   2.544 -0.2139  1.0471  1.4694
  495MOL0     H66797  10.037   4.336   2.457 -1.4245  0.1349  4.2692
  495MOL0     H66798  10.126   4.202   2.513  0.1174 -0.4240 -0.4161
  495MOL0     H66799  10.016   4.211   2.221  1.0222 -1.6929 -2.2289
  495MOL0     H66800  10.025   4.058   2.314 -2.7715  1.2230 -0.7049
  495MOL0     H66801  10.249   4.275   2.282  1.5532 -0.0054 -1.4656
  495MOL0     H66802  10.270   4.104   2.321  0.3364  2.0393  0.8097
  495MOL0     H66803  10.305   4.185   2.068 -0.3149 -0.0646 -0.5012
  495MOL0     H66804  10.138   4.244   2.079 -2.6108 -0.5209  3.1274
  495MOL0     H66805  10.154   4.037   1.948  1.0822 -2.7627 -0.7893
  495MOL0     H66806  10.089   3.990   2.118 -0.1661 -2.2827 -0.3157
  495MOL0     H66807   9.579   4.252   2.892  2.3087  2.4709 -1.3634
  495MOL0     H66808   9.326   4.321   2.959 -2.2322 -1.7247  0.0757
  495MOL0     H66809   8.966   4.550   3.116 -0.2872 -0.7447 -0.1768
  495MOL0     H66810   8.765   4.712   3.148 -2.4757  1.3141 -0.6919
  495MOL0     H66811   9.495   5.726   2.884  1.2509 -0.8789  1.1031
  495MOL0     H66812   9.732   5.734   2.934 -0.7073 -3.5364  0.0771
  495MOL0     H66813  10.179   5.825   2.806 -0.9378 -0.0340 -1.5392
  495MOL0     H66814  10.416   5.843   2.817 -1.6873 -0.8146  0.5445
  495MOL0     H66815  10.626   5.846   2.753  0.4133  0.2650  0.1930
  495MOL0     H66816  10.627   5.788   2.913 -0.6644  0.5409 -0.0442
  495MOL0     H66817  10.857   5.824   2.828 -0.4427  1.6154 -1.0342
  495MOL0     H66818  10.826   5.707   2.692  0.5530 -2.6043 -0.0618
  495MOL0     H66819  10.965   5.610   2.872 -0.3240 -0.4861 -3.1931
  495MOL0     H66820  10.826   5.518   2.836 -1.8992  2.9542 -5.2906
  495MOL0     H66821  10.855   5.509   3.076  2.2259  1.3533  1.1806
  495MOL0     H66822  10.707   5.611   3.043 -1.3419  0.8593 -4.3383
  495MOL0     H66823  10.989   5.865   3.247 -1.4873 -0.0187  1.5754
  495MOL0     H66824  10.440   5.437   2.682 -1.1082 -1.7603  1.4756
  495MOL0     H66825  10.206   5.416   2.692 -0.1527  0.5349  1.2883
  496MOL0     O66826   4.645   4.351   0.628  0.2314  0.0595  0.1840
  496MOL0     C66827   4.734   4.302   0.558 -0.6049 -0.4993 -0.4094
  496MOL0     O66828   4.721   4.244   0.429  0.4686  0.0851  0.1078
  496MOL0     C66829   4.598   4.232   0.375 -0.0195  1.0667 -0.4914
  496MOL0     C66830   4.497   4.165   0.448 -0.1148 -0.4102  0.5154
  496MOL0     C66831   4.366   4.145   0.394 -0.6860 -0.2113 -0.0048
  496MOL0     C66832   4.331   4.188   0.261  0.0142  0.0216  0.1044
  496MOL0     O66833   4.198   4.165   0.216 -0.7321  0.6804 -0.0301
  496MOL0     C66834   4.127   4.277   0.151  0.0700 -0.0068 -0.3509
  496MOL0     C66835   3.981   4.292   0.195  0.4762 -0.4898 -0.3380
  496MOL0     C66836   3.965   4.312   0.351  0.7317 -0.3676  0.2499
  496MOL0     C66837   3.810   4.303   0.387 -0.6725  0.5639 -0.2792
  496MOL0     C66838   3.793   4.341   0.538  0.5694 -0.1129  0.4316
  496MOL0     C66839   3.652   4.304   0.575 -0.2101  0.2486  0.0946
  496MOL0     C66840   3.603   4.374   0.704 -0.1538  0.2824 -0.4723
  496MOL0     C66841   3.569   4.524   0.681 -0.1349  0.0398  0.9009
  496MOL0     N66842   3.445   4.531   0.601 -1.0029  0.1572 -0.9639
  496MOL0     C66843   3.316   4.506   0.646  0.5245 -0.6614  0.7819
  496MOL0     C66844   3.235   4.538   0.542  1.1682 -0.0615  0.6631
  496MOL0     C66845   3.084   4.528   0.546 -0.8863 -0.0299  0.0556
  496MOL0     C66846   3.050   4.391   0.486 -0.1348 -0.7623 -0.4612
  496MOL0     C66847   2.899   4.364   0.488  0.1383  0.0518 -0.8791
  496MOL0     C66848   2.836   4.328   0.619  0.2241  0.0344 -0.6413
  496MOL0     O66849   2.692   4.323   0.613 -0.1683  0.4331 -0.1546
  496MOL0     C66850   2.615   4.436   0.600 -0.4436 -0.2330 -0.6079
  496MOL0     C66851   2.657   4.565   0.603 -0.2794  0.4850  0.1731
  496MOL0     C66852   2.577   4.674   0.557 -0.7106  0.5540  0.6380
  496MOL0     C66853   2.652   4.806   0.530 -0.6924  0.0426 -0.6574
  496MOL0     C66854   2.441   4.653   0.531 -0.0120  0.8484 -0.1554
  496MOL0     C66855   2.345   4.762   0.496  0.0431 -0.2533 -1.8991
  496MOL0     O66856   2.224   4.724   0.463 -0.1804 -0.4087  0.1252
  496MOL0     C66857   2.127   4.809   0.427  0.5998 -0.9328 -0.0871
  496MOL0     C66858   2.119   4.887   0.307  0.5250  0.7260 -0.4329
  496MOL0     C66859   2.003   4.965   0.278  0.2494 -0.3674 -0.1732
  496MOL0     C66860   1.889   4.962   0.359 -0.5254  0.5343 -0.5734
  496MOL0     O66861   1.769   5.022   0.333  0.2842 -0.5757 -0.1247
  496MOL0     C66862   1.737   5.095   0.215  0.6738 -0.5773 -0.0314
  496MOL0     C66863   1.735   5.000   0.091 -0.7814  0.1396  0.1562
  496MOL0     C66864   1.628   4.892   0.093 -0.2315  0.2143  0.4150
  496MOL0     C66865   1.620   4.831  -0.052  0.5578 -0.0764 -0.1429
  496MOL0     C66866   1.528   4.713  -0.071 -0.7655 -0.0928 -0.2329
  496MOL0     C66867   1.544   4.655  -0.208  0.4148 -0.5160  0.0069
  496MOL0     C66868   1.485   4.733  -0.324 -0.1742 -0.0409 -0.6165
  496MOL0     C66869   1.446   4.655  -0.450  0.0211  0.4956 -0.3109
  496MOL0    Cl66870   1.574   4.550  -0.510 -0.2655  0.2188 -0.1586
  496MOL0     C66871   1.899   4.882   0.476 -0.5561 -0.0392  0.2815
  496MOL0     C66872   2.011   4.807   0.500  0.3186 -0.5843 -0.1998
  496MOL0     O66873   2.381   4.880   0.504  0.5098  0.3550 -0.3572
  496MOL0     C66874   2.392   4.517   0.531  0.4919  0.0216  0.2489
  496MOL0     C66875   2.481   4.413   0.573 -0.0299 -1.0458  1.7054
  496MOL0     N66876   3.322   4.570   0.429 -0.0906 -0.4768 -0.7830
  496MOL0     N66877   3.443   4.566   0.469 -0.1638  0.7801 -0.3531
  496MOL0     C66878   4.435   4.252   0.186 -0.3389  0.2424 -0.3619
  496MOL0     C66879   4.569   4.265   0.239 -0.5162  0.1085  0.4002
  496MOL0     C66880   4.872   4.301   0.613 -0.2942 -0.4166  0.7921
  496MOL0     C66881   4.979   4.290   0.520 -0.6147  0.4876 -0.8451
  496MOL0     C66882   5.107   4.300   0.566  0.0037  0.4871 -0.0184
  496MOL0     C66883   5.139   4.335   0.706  0.2357  0.1889 -0.0494
  496MOL0     O66884   5.256   4.381   0.758  0.2617 -0.5619 -0.1887
  496MOL0     C66885   5.365   4.415   0.665  0.2817 -0.3308 -0.0060
  496MOL0     C66886   5.490   4.478   0.731 -0.1308 -0.2383  0.0589
  496MOL0     C66887   5.594   4.525   0.632 -0.0669 -0.4108 -0.5697
  496MOL0     C66888   5.707   4.606   0.704 -0.5310  0.1229  0.2435
  496MOL0     C66889   5.809   4.627   0.591  0.3786  0.1191 -0.6283
  496MOL0     C66890   5.893   4.642   0.502 -0.1389  0.2715 -0.0134
  496MOL0     C66891   5.028   4.331   0.795  1.0054 -1.0595  1.0010
  496MOL0     C66892   4.900   4.313   0.750 -0.6381  0.1039  0.7295
  496MOL0     H66893   4.518   4.139   0.552 -0.3997 -1.8828  0.2374
  496MOL0     H66894   4.285   4.095   0.446 -0.9067 -0.2141 -0.3491
  496MOL0     H66895   4.186   4.369   0.153  0.3288 -0.1822  0.7447
  496MOL0     H66896   4.119   4.246   0.046 -1.3361 -2.0648  0.2991
  496MOL0     H66897   3.928   4.376   0.148  0.1607  0.2351  1.2675
  496MOL0     H66898   3.936   4.196   0.170 -1.3031 -0.0745  1.0961
  496MOL0     H66899   4.025   4.229   0.391  0.5354 -1.5175 -1.7241
  496MOL0     H66900   3.999   4.412   0.379 -1.8567  1.2091 -1.8328
  496MOL0     H66901   3.756   4.380   0.330 -1.3674  1.9483  2.1154
  496MOL0     H66902   3.775   4.203   0.361  2.6445 -1.1534  1.3435
  496MOL0     H66903   3.866   4.289   0.601  0.0884 -0.9135  0.3491
  496MOL0     H66904   3.812   4.448   0.549  1.9245 -0.0154 -2.0932
  496MOL0     H66905   3.583   4.335   0.495  1.0987 -0.9995 -1.5917
  496MOL0     H66906   3.647   4.196   0.588  0.5948  0.0756 -0.8974
  496MOL0     H66907   3.520   4.329   0.760  0.6723  2.1590  2.4779
  496MOL0     H66908   3.679   4.360   0.782  0.8027 -0.1991 -1.4632
  496MOL0     H66909   3.655   4.573   0.634  0.3029 -1.5341 -0.0399
  496MOL0     H66910   3.548   4.578   0.774 -2.3087  0.7247  0.0728
  496MOL0     H66911   3.295   4.465   0.744  1.8452  0.4109  1.5492
  496MOL0     H66912   3.046   4.548   0.647  1.2724 -1.1425  1.1594
  496MOL0     H66913   3.039   4.602   0.479  0.8555 -0.3391 -1.5559
  496MOL0     H66914   3.098   4.310   0.543  1.7862 -0.3367 -1.3877
  496MOL0     H66915   3.084   4.393   0.382  0.7913 -2.3165 -0.2294
  496MOL0     H66916   2.880   4.277   0.425  0.2627 -0.3488 -0.3681
  496MOL0     H66917   2.841   4.446   0.444 -3.5564 -1.1776  1.2613
  496MOL0     H66918   2.868   4.401   0.694 -0.1449 -0.8439  0.3854
  496MOL0     H66919   2.874   4.231   0.652  1.3313 -0.3509 -2.8301
  496MOL0     H66920   2.761   4.587   0.622  1.8608 -4.2761 -3.8472
  496MOL0     H66921   2.754   4.797   0.569 -2.2143 -3.4813  3.1250
  496MOL0     H66922   2.646   4.839   0.425 -1.4804 -1.0762 -0.9828
  496MOL0     H66923   2.598   4.883   0.586 -0.7135 -0.3864 -0.0921
  496MOL0     H66924   2.209   4.898   0.248  0.2912  1.0774 -0.7232
  496MOL0     H66925   2.007   5.024   0.187 -1.1357  2.3791  1.4314
  496MOL0     H66926   1.642   5.148   0.229  2.6113  2.5678  2.6342
  496MOL0     H66927   1.804   5.178   0.190 -1.0154  1.1138  0.8118
  496MOL0     H66928   1.710   5.062   0.005 -0.3909 -2.4617 -1.9659
  496MOL0     H66929   1.834   4.958   0.074 -0.8189  0.7930 -1.8736
  496MOL0     H66930   1.528   4.931   0.117 -0.3882 -1.1002  2.0747
  496MOL0     H66931   1.658   4.815   0.163  0.8155 -0.6671 -0.9419
  496MOL0     H66932   1.593   4.914  -0.118  1.3265 -0.8468 -1.4788
  496MOL0     H66933   1.723   4.796  -0.065 -0.2673 -3.0528  0.5707
  496MOL0     H66934   1.427   4.746  -0.042 -1.2094 -1.3556 -0.2606
  496MOL0     H66935   1.558   4.636   0.000 -2.2840 -0.4156  0.1058
  496MOL0     H66936   1.651   4.647  -0.231  0.0936  0.4475 -2.0522
  496MOL0     H66937   1.496   4.558  -0.203  0.8686 -0.6891  1.7614
  496MOL0     H66938   1.552   4.816  -0.351  0.7558 -0.3598  0.6217
  496MOL0     H66939   1.393   4.780  -0.287  2.0640  1.6733  3.4312
  496MOL0     H66940   1.406   4.718  -0.530 -2.5038 -1.5849 -0.8107
  496MOL0     H66941   1.362   4.588  -0.428 -0.7086  0.3938 -3.1192
  496MOL0     H66942   1.808   4.883   0.535 -2.3412 -0.2236 -2.2968
  496MOL0     H66943   1.992   4.733   0.578 -1.4137 -1.3271 -1.2695
  496MOL0     H66944   2.290   4.488   0.506  0.3619  0.2054  0.5626
  496MOL0     H66945   2.443   4.311   0.580 -1.7526 -0.3721  2.8370
  496MOL0     H66946   4.413   4.295   0.089  2.0556 -3.9148 -3.0560
  496MOL0     H66947   4.647   4.315   0.182 -2.4141 -1.8449 -4.5123
  496MOL0     H66948   4.955   4.276   0.415  0.4268  2.4020 -1.3828
  496MOL0     H66949   5.192   4.273   0.505 -0.4143 -0.2611 -0.2899
  496MOL0     H66950   5.401   4.328   0.610 -1.0002  1.1919 -3.6146
  496MOL0     H66951   5.324   4.493   0.599  1.0374  0.6884  0.6896
  496MOL0     H66952   5.536   4.405   0.798  0.5635 -1.7491 -1.9468
  496MOL0     H66953   5.449   4.565   0.782  3.1774  1.3431  0.2714
  496MOL0     H66954   5.547   4.584   0.553  0.1188  2.0945  1.0995
  496MOL0     H66955   5.640   4.434   0.591  1.0560  0.1191 -0.5036
  496MOL0     H66956   5.749   4.543   0.783  0.5700  1.8755  1.1150
  496MOL0     H66957   5.680   4.701   0.750  2.4884  2.3438 -2.2080
  496MOL0     H66958   5.963   4.653   0.422  1.0130  0.1684  0.9502
  496MOL0     H66959   5.030   4.334   0.904 -0.2451 -0.9090  1.0334
  496MOL0     H66960   4.813   4.314   0.815 -0.2852  1.3139  1.2284
  497MOL0     O66961   3.817   8.497   3.339  0.8487  0.0558  0.3034
  497MOL0     C66962   3.703   8.455   3.325 -0.2216 -0.1230  0.0357
  497MOL0     O66963   3.640   8.381   3.420  0.0356 -0.0287  0.5736
  497MOL0     C66964   3.701   8.357   3.540 -0.6714 -0.1075  0.1781
  497MOL0     C66965   3.626   8.363   3.666 -0.3823  0.9809  0.4243
  497MOL0     C66966   3.694   8.351   3.784 -0.4209 -0.7290  0.1958
  497MOL0     C66967   3.826   8.301   3.789  0.4481 -0.0772 -0.4872
  497MOL0     O66968   3.874   8.269   3.918 -1.2781  0.6650  0.0301
  497MOL0     C66969   4.019   8.251   3.945 -0.3013 -0.1360  0.3383
  497MOL0     C66970   4.063   8.107   3.924 -0.8101 -0.0905  0.7067
  497MOL0     C66971   4.209   8.082   3.972  0.9336 -0.4584 -0.1308
  497MOL0     C66972   4.255   7.945   3.923 -0.6420 -0.4477 -0.2770
  497MOL0     C66973   4.401   7.914   3.959  0.3371 -0.2458 -0.0772
  497MOL0     C66974   4.453   7.773   3.920  0.8498  0.9474 -0.5773
  497MOL0     C66975   4.595   7.749   3.982  0.1397 -0.4858  0.8436
  497MOL0     C66976   4.657   7.619   3.931 -0.2991 -0.2118 -0.4669
  497MOL0     N66977   4.799   7.614   3.936  0.3387  0.2734  0.6795
  497MOL0     C66978   4.870   7.501   3.902  1.2777  0.0058  0.6590
  497MOL0     C66979   5.000   7.522   3.945 -0.2894  0.9326  0.5763
  497MOL0     C66980   5.133   7.448   3.925  0.0834 -0.1058 -0.4770
  497MOL0     C66981   5.163   7.336   4.036  1.0395 -1.1086  0.7001
  497MOL0     C66982   5.208   7.373   4.179  0.6083 -0.0681 -0.0886
  497MOL0     C66983   5.095   7.387   4.282  0.0421 -0.9658  0.3206
  497MOL0     O66984   4.979   7.304   4.274 -1.0339 -0.3739 -0.9376
  497MOL0     C66985   4.851   7.359   4.287  0.7360 -0.3113 -0.1295
  497MOL0     C66986   4.740   7.274   4.289  0.5797 -0.0581  0.6286
  497MOL0     C66987   4.606   7.314   4.291 -0.6526  0.2746 -0.5499
  497MOL0     C66988   4.501   7.208   4.288  0.7988 -1.0824 -0.2560
  497MOL0     C66989   4.575   7.453   4.296 -0.0500  0.1894 -0.4600
  497MOL0     C66990   4.431   7.504   4.304 -0.6631  1.0554  0.5489
  497MOL0     O66991   4.401   7.615   4.249  0.2072  0.4407  0.4735
  497MOL0     C66992   4.278   7.669   4.275 -0.2780 -0.6738  0.2256
  497MOL0     C66993   4.174   7.645   4.189 -0.8919  0.1838  0.4671
  497MOL0     C66994   4.045   7.680   4.208  0.1643 -0.5801  0.2336
  497MOL0     C66995   4.021   7.758   4.323  0.3968 -0.4456  0.0467
  497MOL0     O66996   3.879   7.781   4.333  0.1625 -0.3728  0.1774
  497MOL0     C66997   3.837   7.791   4.466  0.4457 -1.1850 -0.0513
  497MOL0     C66998   3.686   7.772   4.457  0.4903  0.1550 -0.1238
  497MOL0     C66999   3.646   7.621   4.482  0.4222  0.0705 -0.1194
  497MOL0     C67000   3.494   7.612   4.480 -0.6567 -0.3745  0.2811
  497MOL0     C67001   3.452   7.470   4.451  0.7662 -0.3782  0.5808
  497MOL0     C67002   3.493   7.375   4.563 -0.1387  0.5441  0.9324
  497MOL0     C67003   3.408   7.380   4.692 -0.0874 -0.1001 -0.1170
  497MOL0     C67004   3.484   7.341   4.819 -0.9538 -0.2704  0.0269
  497MOL0    Cl67005   3.583   7.487   4.867 -0.1750  0.0960 -0.1950
  497MOL0     C67006   4.131   7.790   4.412  0.0068  0.3951 -0.1310
  497MOL0     C67007   4.258   7.741   4.395 -0.3253 -0.0667  0.4964
  497MOL0     O67008   4.360   7.433   4.377 -0.5996 -0.3609  0.5103
  497MOL0     C67009   4.684   7.543   4.298  1.2122 -0.0834 -0.8499
  497MOL0     C67010   4.819   7.501   4.292  0.3997  0.5409  0.4678
  497MOL0     N67011   5.002   7.643   4.012 -0.7187 -0.4824 -0.4772
  497MOL0     N67012   4.888   7.696   4.006  0.2154  0.3964 -0.0124
  497MOL0     C67013   3.903   8.295   3.673 -0.7109  0.1689  0.2901
  497MOL0     C67014   3.838   8.316   3.548 -0.5009 -0.1951 -0.1124
  497MOL0     C67015   3.620   8.486   3.199 -0.5387  0.4701  0.1579
  497MOL0     C67016   3.495   8.420   3.173 -0.1748 -0.2548 -0.7589
  497MOL0     C67017   3.424   8.433   3.051 -0.8339  0.3057 -0.1238
  497MOL0     C67018   3.470   8.514   2.951 -0.5984 -0.1179 -0.4452
  497MOL0     O67019   3.401   8.524   2.833 -0.2074  0.2621  0.9830
  497MOL0     C67020   3.471   8.593   2.718 -0.4387  0.2770  0.3538
  497MOL0     C67021   3.388   8.575   2.588  0.1820 -0.2827  0.9012
  497MOL0     C67022   3.374   8.433   2.546  0.1746  0.2498 -0.2241
  497MOL0     C67023   3.504   8.358   2.532 -0.2650 -0.2983  0.2814
  497MOL0     C67024   3.464   8.220   2.491  0.4860 -0.5627 -0.6381
  497MOL0     C67025   3.413   8.120   2.445 -0.2307  0.0681  0.6229
  497MOL0     C67026   3.585   8.592   2.975 -0.4149  0.7671 -0.7836
  497MOL0     C67027   3.659   8.571   3.101 -0.1874 -0.4121 -0.2535
  497MOL0     H67028   3.523   8.394   3.673 -0.2400  1.0591  2.6815
  497MOL0     H67029   3.649   8.372   3.881  1.5246  0.0121  0.9747
  497MOL0     H67030   4.076   8.313   3.876 -0.2285  0.3223  0.8073
  497MOL0     H67031   4.051   8.286   4.044  0.4984  1.9527 -0.5997
  497MOL0     H67032   3.982   8.052   3.973 -1.7614 -0.7800 -1.5132
  497MOL0     H67033   4.044   8.091   3.817 -0.5026  1.9856  0.2922
  497MOL0     H67034   4.271   8.166   3.940  0.6480 -1.1383 -2.6551
  497MOL0     H67035   4.217   8.082   4.081 -0.7378  1.3773  0.0483
  497MOL0     H67036   4.185   7.869   3.960 -0.8595  1.5321  3.9597
  497MOL0     H67037   4.266   7.957   3.815  2.6908  0.1066  0.0147
  497MOL0     H67038   4.466   7.986   3.909 -0.1622 -0.2137 -0.7053
  497MOL0     H67039   4.404   7.933   4.066  0.3184 -0.6475 -0.0026
  497MOL0     H67040   4.388   7.703   3.974  0.2401  2.4581  0.7002
  497MOL0     H67041   4.439   7.763   3.811  1.1752  1.2529 -0.6463
  497MOL0     H67042   4.647   7.840   3.950 -1.3336 -0.4659 -1.7746
  497MOL0     H67043   4.582   7.736   4.090 -1.0649 -0.2200  0.7446
  497MOL0     H67044   4.631   7.615   3.825  1.8673 -0.5948 -1.0426
  497MOL0     H67045   4.619   7.534   3.988 -1.6922  1.8793  1.9438
  497MOL0     H67046   4.853   7.412   3.843 -1.9957  1.4953 -0.8742
  497MOL0     H67047   5.142   7.423   3.819 -0.0513 -0.3573 -0.4298
  497MOL0     H67048   5.212   7.524   3.935  2.0347 -2.0451 -0.5879
  497MOL0     H67049   5.251   7.295   3.986  0.1745  1.3469 -3.3334
  497MOL0     H67050   5.077   7.268   4.040 -0.5558  0.7834  0.3277
  497MOL0     H67051   5.246   7.475   4.184 -0.3645  0.3551 -0.9868
  497MOL0     H67052   5.290   7.307   4.209 -1.8315 -2.3704  1.9642
  497MOL0     H67053   5.069   7.492   4.266  2.5281  0.1312  2.6818
  497MOL0     H67054   5.134   7.379   4.384 -0.5323 -1.9072  0.4814
  497MOL0     H67055   4.775   7.171   4.285  1.2901  0.1721  0.6620
  497MOL0     H67056   4.421   7.251   4.227  1.9117  0.5007 -0.6584
  497MOL0     H67057   4.528   7.112   4.244  0.5030 -0.4178 -1.9341
  497MOL0     H67058   4.464   7.201   4.391  0.3444  1.1453 -0.2047
  497MOL0     H67059   4.194   7.590   4.098  2.2651  2.5268 -0.4431
  497MOL0     H67060   3.955   7.672   4.149 -1.7500  5.1061  1.6515
  497MOL0     H67061   3.885   7.717   4.531 -1.1525 -1.4609  0.8773
  497MOL0     H67062   3.863   7.889   4.505  0.9868 -1.4176  0.1842
  497MOL0     H67063   3.624   7.833   4.523 -1.1685 -1.3676 -0.2043
  497MOL0     H67064   3.648   7.812   4.363 -1.2216  0.6644  0.7479
  497MOL0     H67065   3.680   7.578   4.577  0.4624 -1.9453 -0.9906
  497MOL0     H67066   3.674   7.555   4.399 -0.4735 -1.2652  0.6088
  497MOL0     H67067   3.442   7.652   4.568 -1.7283  1.4820 -1.1158
  497MOL0     H67068   3.457   7.673   4.397 -1.8553 -0.8537  0.4321
  497MOL0     H67069   3.496   7.431   4.359 -2.4689  1.8741 -2.1558
  497MOL0     H67070   3.343   7.465   4.451  0.7315 -1.3267  3.1450
  497MOL0     H67071   3.476   7.277   4.516 -1.3823  1.7802 -1.3695
  497MOL0     H67072   3.597   7.379   4.595 -0.7268  0.3802  2.9971
  497MOL0     H67073   3.320   7.317   4.673  0.7354 -1.1221 -0.6014
  497MOL0     H67074   3.365   7.480   4.683 -1.9078 -0.9742 -1.9115
  497MOL0     H67075   3.546   7.253   4.798  1.4068  1.5169 -0.8675
  497MOL0     H67076   3.416   7.306   4.897  0.3034 -1.4861  0.6215
  497MOL0     H67077   4.124   7.845   4.506  0.6534 -2.1255  1.4763
  497MOL0     H67078   4.339   7.766   4.464 -1.3072 -2.5750  2.6919
  497MOL0     H67079   4.678   7.650   4.312  1.9026 -0.3703  2.1840
  497MOL0     H67080   4.897   7.574   4.315  1.3738 -0.3643  0.1386
  497MOL0     H67081   4.006   8.261   3.676 -0.0721  1.9200 -0.2482
  497MOL0     H67082   3.899   8.311   3.458 -2.9425 -0.7503 -1.8630
  497MOL0     H67083   3.457   8.343   3.239 -0.2500 -0.1901 -0.7275
  497MOL0     H67084   3.337   8.371   3.034 -0.6281  0.4050 -1.7545
  497MOL0     H67085   3.477   8.700   2.739  1.2102  0.7318 -2.0493
  497MOL0     H67086   3.572   8.554   2.707 -0.2856  0.8182 -0.2054
  497MOL0     H67087   3.435   8.631   2.507 -1.2174 -1.1327 -0.5440
  497MOL0     H67088   3.294   8.624   2.614  0.1928 -0.2875  0.9502
  497MOL0     H67089   3.320   8.429   2.451  0.2968  0.5196 -0.3060
  497MOL0     H67090   3.312   8.380   2.619  1.5248  0.3824  1.0662
  497MOL0     H67091   3.541   8.352   2.635  0.1357 -0.9267  0.1072
  497MOL0     H67092   3.571   8.404   2.459 -0.5595  0.5257  0.5217
  497MOL0     H67093   3.374   8.033   2.395  1.8828 -0.7252  0.2369
  497MOL0     H67094   3.633   8.649   2.897  0.5851 -1.7658 -2.1438
  497MOL0     H67095   3.747   8.633   3.114  1.0140 -2.3043  1.3292
  498MOL0     O67096   3.690   0.965  10.804 -0.4145  0.3271 -0.4269
  498MOL0     C67097   3.741   1.068  10.767  1.0096 -0.8422  0.2119
  498MOL0     O67098   3.676   1.158  10.682  0.0479 -0.5366  0.1077
  498MOL0     C67099   3.552   1.138  10.640  0.1002 -0.0017  0.3204
  498MOL0     C67100   3.511   1.200  10.518 -0.3127 -0.3830 -0.1662
  498MOL0     C67101   3.376   1.201  10.485  0.2418 -0.3660  0.2686
  498MOL0     C67102   3.282   1.132  10.559  0.3044  0.5601  0.5350
  498MOL0     O67103   3.161   1.146  10.518  0.2474  0.4394 -0.7578
  498MOL0     C67104   3.131   1.050  10.420  0.4728  0.6949 -0.0875
  498MOL0     C67105   3.018   0.958  10.464  0.1123  0.5068  0.8519
  498MOL0     C67106   2.869   1.008  10.462 -0.4565  0.2091 -0.6553
  498MOL0     C67107   2.779   0.910  10.533 -0.7818  0.0487 -0.6396
  498MOL0     C67108   2.632   0.919  10.488  0.0376 -0.1488 -0.7020
  498MOL0     C67109   2.532   0.895  10.601  0.6310  0.1735 -0.2040
  498MOL0     C67110   2.401   0.964  10.569  0.6081 -0.9815  0.0388
  498MOL0     C67111   2.355   0.931  10.428 -0.4342 -1.1940 -0.8907
  498MOL0     N67112   2.213   0.949  10.427  0.4859 -0.3530  0.0446
  498MOL0     C67113   2.145   1.067  10.394 -0.7399  0.8478 -0.8893
  498MOL0     C67114   2.010   1.045  10.402 -0.0776 -0.3659  0.0373
  498MOL0     C67115   1.888   1.132  10.386  0.8639  0.6993  0.4810
  498MOL0     C67116   1.849   1.136  10.236  0.0888  0.6873 -0.1413
  498MOL0     C67117   1.770   1.258  10.184  0.1965  1.2121 -0.0734
  498MOL0     C67118   1.654   1.294  10.278 -0.2453  0.3267 -0.4264
  498MOL0     O67119   1.529   1.351  10.235  0.5495  0.4917  0.4456
  498MOL0     C67120   1.510   1.485  10.245 -0.2147  0.3318  1.0034
  498MOL0     C67121   1.610   1.586  10.217  0.5835 -0.9715 -0.2502
  498MOL0     C67122   1.583   1.717  10.204 -0.0955  0.8749 -0.0117
  498MOL0     C67123   1.686   1.810  10.171  0.0497  0.7403 -0.1618
  498MOL0     C67124   1.449   1.766  10.225 -0.4449  0.2566  0.1395
  498MOL0     C67125   1.396   1.904  10.223  0.5339 -0.0744  0.4933
  498MOL0     O67126   1.276   1.927  10.292  0.4000 -0.0460  0.5114
  498MOL0     C67127   1.225   2.051  10.275  0.0795 -1.3316  0.9886
  498MOL0     C67128   1.239   2.156  10.363  0.3867 -0.7132  0.2532
  498MOL0     C67129   1.199   2.291  10.342 -0.3240 -0.1834  0.6514
  498MOL0     C67130   1.122   2.311  10.225 -0.6609 -0.1088  0.6219
  498MOL0     O67131   1.079   2.437  10.227  0.4190 -0.7000 -0.3783
  498MOL0     C67132   1.010   2.494  10.110 -0.3163  0.4816 -0.2756
  498MOL0     C67133   0.861   2.444  10.091  0.8573 -0.2122 -0.2147
  498MOL0     C67134   0.771   2.489  10.207  0.7043 -1.2334 -0.2496
  498MOL0     C67135   0.746   2.647  10.216  0.3873 -0.8785  0.2783
  498MOL0     C67136   0.635   2.673  10.328 -0.0013 -0.1914  1.5763
  498MOL0     C67137   0.684   2.635  10.471 -0.4309  0.7747 -0.2790
  498MOL0     C67138   0.664   2.760  10.548  0.6373 -0.3491 -0.1960
  498MOL0     C67139   0.718   2.738  10.692 -0.4319 -0.5766  0.2240
  498MOL0    Cl67140   0.604   2.655  10.785  0.1073  0.4744 -0.1096
  498MOL0     C67141   1.100   2.213  10.129  0.1827  0.8906  0.0149
  498MOL0     C67142   1.150   2.078  10.157 -0.3976 -0.0566 -0.6589
  498MOL0     O67143   1.448   1.988  10.142  0.4941  0.0936 -0.2741
  498MOL0     C67144   1.357   1.664  10.256 -0.1993 -0.2310  0.4425
  498MOL0     C67145   1.385   1.531  10.251  0.3456  0.0279  0.0676
  498MOL0     N67146   2.001   0.919  10.448 -0.5182  0.0688  0.2384
  498MOL0     N67147   2.120   0.859  10.452  0.2835  0.6290  0.4373
  498MOL0     C67148   3.321   1.064  10.672  0.4236 -0.0783 -0.5793
  498MOL0     C67149   3.449   1.077  10.717 -0.2554 -1.2037 -0.2738
  498MOL0     C67150   3.872   1.099  10.810 -0.1958 -0.0132 -0.9761
  498MOL0     C67151   3.955   1.183  10.745 -0.4517  0.5447  0.3813
  498MOL0     C67152   4.083   1.194  10.786  0.0883  0.0975  0.0482
  498MOL0     C67153   4.134   1.130  10.900  0.1972  0.4607  0.7255
  498MOL0     O67154   4.270   1.144  10.940 -0.0610  0.7097 -0.6123
  498MOL0     C67155   4.295   1.146  11.085  0.3008 -0.4903  0.2907
  498MOL0     C67156   4.437   1.154  11.132 -0.4891 -0.7575  0.3696
  498MOL0     C67157   4.516   1.031  11.080  0.1045  0.2887  0.7006
  498MOL0     C67158   4.535   1.017  10.927 -0.3066  0.2390 -0.0189
  498MOL0     C67159   4.578   1.144  10.859 -0.6820 -0.5815 -0.8156
  498MOL0     C67160   4.617   1.252  10.819 -0.1103 -0.6593 -0.1997
  498MOL0     C67161   4.040   1.054  10.969  0.0092  0.0620  0.6137
  498MOL0     C67162   3.913   1.040  10.925 -0.0522 -0.0197  0.0638
  498MOL0     H67163   3.583   1.258  10.461  0.0783 -0.3423  0.3600
  498MOL0     H67164   3.350   1.267  10.403  0.8623 -0.4559 -0.0053
  498MOL0     H67165   3.097   1.109  10.334 -0.7009  0.3804  0.1407
  498MOL0     H67166   3.218   0.987  10.399  0.2846 -0.1941  1.6614
  498MOL0     H67167   3.029   0.865  10.406 -0.6522  0.5545  0.6259
  498MOL0     H67168   3.032   0.919  10.565 -1.4816  0.5238  1.1078
  498MOL0     H67169   2.857   1.102  10.516 -1.2752  0.8678 -1.9375
  498MOL0     H67170   2.842   1.024  10.357 -0.6649 -2.1786 -1.0127
  498MOL0     H67171   2.808   0.804  10.531 -1.9819 -0.2905 -1.4897
  498MOL0     H67172   2.777   0.944  10.637 -0.8408 -1.2505 -0.1931
  498MOL0     H67173   2.625   1.026  10.464 -1.8607 -0.2501 -0.7891
  498MOL0     H67174   2.622   0.851  10.403  3.8412 -0.2466 -1.2342
  498MOL0     H67175   2.517   0.787  10.605  0.7765  0.1566 -0.0636
  498MOL0     H67176   2.570   0.924  10.700  0.1477 -0.6244  0.2229
  498MOL0     H67177   2.332   0.928  10.646 -0.8678  0.5770 -0.4748
  498MOL0     H67178   2.402   1.072  10.586  0.3888 -1.0441  0.4707
  498MOL0     H67179   2.386   0.828  10.404  1.3595 -1.0335  0.5357
  498MOL0     H67180   2.406   1.009  10.371  0.6118  1.3436  3.1213
  498MOL0     H67181   2.192   1.160  10.364 -1.4950  1.6253  0.2380
  498MOL0     H67182   1.804   1.099  10.449  3.2339 -1.4892  2.7086
  498MOL0     H67183   1.919   1.231  10.418  2.3488  1.2743 -2.3871
  498MOL0     H67184   1.783   1.051  10.214 -2.4722  2.6470 -0.5718
  498MOL0     H67185   1.937   1.120  10.174 -0.8443 -1.1663 -1.0984
  498MOL0     H67186   1.741   1.243  10.080 -0.7606  0.3927  0.3029
  498MOL0     H67187   1.841   1.342  10.179  3.5440 -1.2963  1.4882
  498MOL0     H67188   1.693   1.341  10.368 -0.2701 -0.8881  0.2495
  498MOL0     H67189   1.631   1.191  10.308 -0.5239 -0.2685 -2.5376
  498MOL0     H67190   1.707   1.541  10.201  1.6083  1.0272 -0.0404
  498MOL0     H67191   1.776   1.774  10.220 -0.6489 -0.1217  0.5087
  498MOL0     H67192   1.684   1.813  10.061  1.5191  0.5912 -0.2111
  498MOL0     H67193   1.659   1.909  10.208 -0.9279  0.8170 -1.0275
  498MOL0     H67194   1.292   2.127  10.453  1.2542  2.2148  0.7824
  498MOL0     H67195   1.213   2.365  10.420 -0.8461  1.7443 -1.0115
  498MOL0     H67196   1.010   2.601  10.136  2.0323  0.6021 -0.5865
  498MOL0     H67197   1.071   2.481  10.020 -1.0985 -1.9774 -0.5045
  498MOL0     H67198   0.816   2.465   9.994  2.6692 -1.8757 -1.4934
  498MOL0     H67199   0.860   2.335  10.096  0.5852 -0.1657  1.1753
  498MOL0     H67200   0.809   2.463  10.306 -1.7563 -1.4075  0.7196
  498MOL0     H67201   0.674   2.442  10.186  0.7361 -0.9571 -1.0482
  498MOL0     H67202   0.846   2.688  10.231 -0.3382  1.0041  0.2439
  498MOL0     H67203   0.709   2.689  10.122  1.7616 -0.1171  0.0556
  498MOL0     H67204   0.556   2.602  10.305  1.2016 -1.2176  0.4452
  498MOL0     H67205   0.603   2.778  10.324 -2.5768 -0.9630 -1.5140
  498MOL0     H67206   0.623   2.556  10.517 -0.5915  0.9060 -0.2700
  498MOL0     H67207   0.787   2.600  10.461 -0.3613  1.7095 -3.9261
  498MOL0     H67208   0.560   2.793  10.555  0.9667  0.4682  1.2818
  498MOL0     H67209   0.725   2.835  10.497 -1.7348  0.7875 -1.5461
  498MOL0     H67210   0.737   2.838  10.732 -0.4719  0.3049 -1.8364
  498MOL0     H67211   0.816   2.691  10.702  0.7883  1.7101 -0.3493
  498MOL0     H67212   1.049   2.226  10.034 -0.0856 -3.5302 -0.6660
  498MOL0     H67213   1.152   2.014  10.069  2.9391 -0.3458 -0.5127
  498MOL0     H67214   1.254   1.694  10.270 -0.9281 -2.6327  0.6420
  498MOL0     H67215   1.305   1.463  10.278 -1.4863  0.2610 -4.0386
  498MOL0     H67216   3.240   1.018  10.726  0.4502 -0.3765 -0.7875
  498MOL0     H67217   3.463   1.048  10.821  1.3903 -1.5219 -0.5591
  498MOL0     H67218   3.928   1.223  10.647  1.1815 -2.5064 -1.4851
  498MOL0     H67219   4.155   1.268  10.753  1.4444 -1.5276 -0.7646
  498MOL0     H67220   4.247   1.237  11.122 -0.4326 -0.7545  0.0072
  498MOL0     H67221   4.241   1.063  11.133 -2.3705  0.7625 -0.3587
  498MOL0     H67222   4.439   1.160  11.241 -1.3134  1.3676  0.3232
  498MOL0     H67223   4.492   1.240  11.093  1.0089 -1.7752  0.1835
  498MOL0     H67224   4.462   0.943  11.117 -0.2472 -0.4001 -1.3523
  498MOL0     H67225   4.618   1.035  11.121  0.9784  1.2208 -1.4121
  498MOL0     H67226   4.437   0.987  10.887 -0.5904  1.0250  0.0606
  498MOL0     H67227   4.612   0.947  10.895  0.0797  0.3671  0.6314
  498MOL0     H67228   4.651   1.350  10.796 -0.1718 -0.3016  1.1316
  498MOL0     H67229   4.076   0.994  11.052  1.6811 -0.6163 -0.5489
  498MOL0     H67230   3.850   0.970  10.978  0.2013  0.0303  0.4334
  499MOL0     O67231   0.001   2.367   0.810 -0.1026 -0.2953  0.5618
  499MOL0     C67232   0.008   2.443   0.714  0.5355  0.1535 -0.0142
  499MOL0     O67233  -0.080   2.465   0.617  0.4116  0.3685 -0.7670
  499MOL0     C67234  -0.207   2.418   0.649  0.0596 -0.5068 -0.2954
  499MOL0     C67235  -0.313   2.514   0.673 -0.3440  0.0832  0.7093
  499MOL0     C67236  -0.437   2.480   0.679 -0.2924 -0.2266  0.8445
  499MOL0     C67237  -0.475   2.345   0.677 -0.1263 -0.3357  0.3774
  499MOL0     O67238  -0.605   2.294   0.685  0.2646  0.2165 -0.8198
  499MOL0     C67239  -0.703   2.383   0.684  0.1919 -0.7847  0.4541
  499MOL0     C67240  -0.829   2.305   0.696 -0.5965  0.0257  0.3458
  499MOL0     C67241  -0.946   2.400   0.711  0.0500  0.1634 -0.4251
  499MOL0     C67242  -1.080   2.325   0.747 -0.6402 -0.5036 -0.4720
  499MOL0     C67243  -1.188   2.426   0.778 -0.1974  0.7086 -0.7812
  499MOL0     C67244  -1.322   2.361   0.774 -0.2249 -0.5943 -0.1821
  499MOL0     C67245  -1.431   2.470   0.804  0.1478 -1.0544 -0.0579
  499MOL0     C67246  -1.425   2.508   0.953 -0.7250  0.2462  0.8800
  499MOL0     N67247  -1.534   2.595   0.990  0.9153  0.1149 -0.8173
  499MOL0     C67248  -1.664   2.559   1.002  0.6523  0.2189  0.0894
  499MOL0     C67249  -1.725   2.647   1.075 -0.3172 -1.2234 -1.2850
  499MOL0     C67250  -1.865   2.641   1.126  0.7555  0.7420 -0.4703
  499MOL0     C67251  -1.870   2.634   1.283  0.7084  0.8639 -1.1336
  499MOL0     C67252  -2.015   2.616   1.325  0.6418 -0.0258 -0.1219
  499MOL0     C67253  -2.044   2.674   1.470 -0.0921  0.1169  0.0493
  499MOL0     O67254  -2.159   2.602   1.511 -0.2871  0.8095 -0.1034
  499MOL0     C67255  -2.278   2.639   1.453 -0.1109  0.2929 -0.7026
  499MOL0     C67256  -2.343   2.757   1.487 -0.3641 -0.3378  0.4235
  499MOL0     C67257  -2.471   2.787   1.432 -0.0236 -0.0939  0.5910
  499MOL0     C67258  -2.535   2.912   1.495  0.1894 -0.7177  0.2907
  499MOL0     C67259  -2.532   2.704   1.332 -0.7792  0.7868 -1.0118
  499MOL0     C67260  -2.653   2.741   1.265  0.0769 -0.4438  0.2273
  499MOL0     O67261  -2.740   2.635   1.233  0.3603 -0.2496  0.1136
  499MOL0     C67262  -2.870   2.664   1.214  0.8088  0.5940  0.5739
  499MOL0     C67263  -2.943   2.775   1.256 -0.0816  0.4137  0.5281
  499MOL0     C67264  -3.077   2.788   1.223 -0.1267  0.6731 -0.3530
  499MOL0     C67265  -3.142   2.684   1.156 -0.4989 -0.7464 -0.5682
  499MOL0     O67266  -3.275   2.701   1.141 -0.1084  0.2164 -0.4004
  499MOL0     C67267  -3.342   2.635   1.025 -1.0081 -0.0107 -0.3288
  499MOL0     C67268  -3.464   2.720   0.985 -0.2011  0.2558  0.3849
  499MOL0     C67269  -3.546   2.638   0.890 -0.4260 -0.4141 -0.4234
  499MOL0     C67270  -3.672   2.703   0.836  0.5911  0.2757  0.3790
  499MOL0     C67271  -3.782   2.732   0.933 -0.1002  0.2652  0.3437
  499MOL0     C67272  -3.916   2.767   0.863  0.1981  0.7801 -0.8507
  499MOL0     C67273  -4.014   2.792   0.975  0.8068 -0.4113 -0.6716
  499MOL0     C67274  -4.132   2.853   0.913 -0.3203  0.3846 -0.1820
  499MOL0    Cl67275  -4.270   2.844   1.026 -0.4538  0.3384 -0.1791
  499MOL0     C67276  -3.071   2.563   1.129 -0.2631 -0.0202 -0.2087
  499MOL0     C67277  -2.936   2.559   1.150 -0.4267  0.4032 -0.2360
  499MOL0     O67278  -2.661   2.861   1.238 -0.5479  0.3641  0.0165
  499MOL0     C67279  -2.469   2.575   1.327 -0.2576  0.0781  0.6384
  499MOL0     C67280  -2.343   2.543   1.381 -0.8371 -0.6040  0.7919
  499MOL0     N67281  -1.630   2.740   1.126 -0.0410  0.5157 -0.4387
  499MOL0     N67282  -1.516   2.698   1.077  0.4383  0.6892 -0.3662
  499MOL0     C67283  -0.375   2.248   0.653 -0.0116  0.3312  0.8143
  499MOL0     C67284  -0.237   2.286   0.639 -0.0551 -0.1902 -0.0370
  499MOL0     C67285   0.138   2.516   0.691  0.2645 -0.5036  0.3126
  499MOL0     C67286   0.149   2.625   0.596 -0.5555 -0.1471  0.1489
  499MOL0     C67287   0.275   2.692   0.587 -0.4127  0.8262  0.3793
  499MOL0     C67288   0.384   2.649   0.661 -0.2445  0.1726 -0.0108
  499MOL0     O67289   0.501   2.718   0.647 -0.5559  0.0642  0.1495
  499MOL0     C67290   0.620   2.652   0.696 -0.4888  0.2940 -0.2066
  499MOL0     C67291   0.745   2.734   0.667 -0.7008 -0.6630  0.1414
  499MOL0     C67292   0.868   2.664   0.734 -0.6505  0.1610 -0.3233
  499MOL0     C67293   1.001   2.729   0.703  0.0843 -1.1355 -0.2684
  499MOL0     C67294   1.015   2.854   0.772 -0.3348 -0.9956 -0.0057
  499MOL0     C67295   1.042   2.967   0.815  0.7332 -0.4819 -1.3392
  499MOL0     C67296   0.376   2.534   0.734  0.7752  0.0098 -0.1729
  499MOL0     C67297   0.259   2.470   0.756  0.0105  0.0395 -0.1880
  499MOL0     H67298  -0.286   2.618   0.690  0.4150  0.0657 -0.2798
  499MOL0     H67299  -0.500   2.563   0.709 -0.7574  0.6723 -2.1933
  499MOL0     H67300  -0.699   2.448   0.771 -0.6017  0.7568 -0.6118
  499MOL0     H67301  -0.692   2.441   0.592  0.8070  0.7557  1.4673
  499MOL0     H67302  -0.846   2.234   0.615 -2.7321  1.8032 -0.8607
  499MOL0     H67303  -0.834   2.248   0.790 -0.1163  4.3594  3.2656
  499MOL0     H67304  -0.931   2.470   0.793 -1.5375  1.5438 -1.2570
  499MOL0     H67305  -0.967   2.447   0.615  1.3122  1.5640 -0.0504
  499MOL0     H67306  -1.105   2.272   0.654 -0.8593 -0.8715 -0.2073
  499MOL0     H67307  -1.066   2.259   0.833 -2.8915  0.4875  0.7102
  499MOL0     H67308  -1.165   2.472   0.874  0.9047 -3.9791  1.5058
  499MOL0     H67309  -1.186   2.510   0.707 -1.4094  1.9273  0.5650
  499MOL0     H67310  -1.351   2.317   0.678  0.7329  0.7751 -1.1341
  499MOL0     H67311  -1.318   2.275   0.842  1.9645 -0.7321 -0.4263
  499MOL0     H67312  -1.424   2.558   0.739 -1.6394  0.4586  1.6763
  499MOL0     H67313  -1.528   2.424   0.782  0.5532 -2.9858  1.8998
  499MOL0     H67314  -1.336   2.567   0.976 -1.4501  1.8636 -0.2802
  499MOL0     H67315  -1.423   2.417   1.013 -2.6061  0.2671  1.0349
  499MOL0     H67316  -1.718   2.477   0.954  1.0942 -0.2194  0.3390
  499MOL0     H67317  -1.906   2.736   1.090 -0.2399  0.1207 -1.0303
  499MOL0     H67318  -1.904   2.545   1.090  1.5467  0.3942 -0.4135
  499MOL0     H67319  -1.825   2.723   1.328 -0.5302  0.3313  1.3429
  499MOL0     H67320  -1.823   2.542   1.319 -0.6821  0.3185 -0.6245
  499MOL0     H67321  -2.035   2.510   1.311  2.0730 -0.0757 -2.3578
  499MOL0     H67322  -2.072   2.669   1.248  0.7276  0.6474  0.2711
  499MOL0     H67323  -2.068   2.780   1.458  0.7790  0.4430  1.0089
  499MOL0     H67324  -1.960   2.655   1.537  1.8607  0.7792 -2.0425
  499MOL0     H67325  -2.295   2.822   1.559  0.0675 -3.1330  2.8155
  499MOL0     H67326  -2.642   2.923   1.478  0.2671 -0.1349  0.1241
  499MOL0     H67327  -2.515   2.908   1.602  0.2964 -0.7471  0.2706
  499MOL0     H67328  -2.476   2.998   1.460 -1.0398 -0.0159 -0.1023
  499MOL0     H67329  -2.900   2.842   1.331  1.8194 -0.1302 -0.0196
  499MOL0     H67330  -3.128   2.870   1.272  1.2075  0.2994  1.7776
  499MOL0     H67331  -3.283   2.634   0.932 -1.5531 -0.5030 -0.6740
  499MOL0     H67332  -3.361   2.529   1.046  0.3990 -0.4521 -1.1301
  499MOL0     H67333  -3.518   2.759   1.071 -0.5091 -0.9675  0.7696
  499MOL0     H67334  -3.420   2.802   0.926 -1.2773  0.2155 -0.5041
  499MOL0     H67335  -3.572   2.547   0.945  1.7667 -1.0194 -0.3073
  499MOL0     H67336  -3.477   2.615   0.809  1.4773  2.7627  0.1506
  499MOL0     H67337  -3.663   2.801   0.788 -2.0134  1.6789  2.5139
  499MOL0     H67338  -3.717   2.632   0.766 -3.2529  1.3103  1.5609
  499MOL0     H67339  -3.764   2.827   0.985  0.2562  0.0348  0.6469
  499MOL0     H67340  -3.786   2.649   1.004  1.7283 -0.4871 -0.3974
  499MOL0     H67341  -3.907   2.847   0.788 -2.8987  1.7440 -0.3283
  499MOL0     H67342  -3.952   2.683   0.803  3.6716 -0.8768 -0.8656
  499MOL0     H67343  -3.976   2.865   1.048  1.1077  0.8492 -2.0367
  499MOL0     H67344  -4.028   2.702   1.035  1.5133  1.4314  2.5058
  499MOL0     H67345  -4.156   2.809   0.815 -0.9064  4.2160 -1.9168
  499MOL0     H67346  -4.105   2.958   0.899  1.8841  0.0091  0.8355
  499MOL0     H67347  -3.120   2.481   1.077  0.2308  0.2173 -1.0638
  499MOL0     H67348  -2.878   2.468   1.136  0.9888  0.7945  2.4522
  499MOL0     H67349  -2.511   2.500   1.260  0.4643  0.7805 -0.6284
  499MOL0     H67350  -2.291   2.448   1.366  2.8872  1.4221 -0.4135
  499MOL0     H67351  -0.394   2.142   0.654  1.6141 -0.0099 -0.3340
  499MOL0     H67352  -0.154   2.220   0.619  2.1687  3.0050 -2.2748
  499MOL0     H67353   0.066   2.672   0.543 -2.1985 -1.9979  0.9525
  499MOL0     H67354   0.278   2.774   0.517 -4.1414  0.8097 -0.0131
  499MOL0     H67355   0.604   2.631   0.802 -3.9051  0.9651 -0.4822
  499MOL0     H67356   0.629   2.555   0.646  1.1052 -0.3394  1.1782
  499MOL0     H67357   0.745   2.837   0.703 -0.0400 -1.2115  1.8510
  499MOL0     H67358   0.773   2.733   0.562  3.9977  0.8231  1.1397
  499MOL0     H67359   0.863   2.559   0.704 -2.1914  0.0637  0.2065
  499MOL0     H67360   0.865   2.657   0.843 -0.1174  1.7487 -0.1772
  499MOL0     H67361   1.012   2.746   0.596  1.0390 -0.8111 -0.1263
  499MOL0     H67362   1.080   2.666   0.745  1.1823  0.4412  0.1082
  499MOL0     H67363   1.052   3.064   0.859 -2.9448 -0.9381  0.9079
  499MOL0     H67364   0.457   2.475   0.776  0.6379 -0.8534 -1.0885
  499MOL0     H67365   0.258   2.381   0.818 -0.2434  1.1271  1.4536
  500MOL0     O67366   5.843   6.564   7.397 -0.2442 -0.4730  1.3502
  500MOL0     C67367   5.848   6.686   7.377  0.2930  0.0953  0.4517
  500MOL0     O67368   5.750   6.761   7.308  0.2931 -0.0995 -0.5984
  500MOL0     C67369   5.633   6.692   7.298  0.4872  0.7706  0.3303
  500MOL0     C67370   5.583   6.667   7.165 -0.5222 -0.8392 -0.1689
  500MOL0     C67371   5.462   6.602   7.136  0.5856  0.2894 -0.1957
  500MOL0     C67372   5.382   6.572   7.251  0.5136  0.5541  0.2203
  500MOL0     O67373   5.255   6.516   7.245  1.1205  0.7082 -0.5362
  500MOL0     C67374   5.262   6.380   7.205  0.3201  0.2754 -0.4939
  500MOL0     C67375   5.149   6.297   7.287  0.0873  0.5980  0.0535
  500MOL0     C67376   5.004   6.348   7.246 -0.3797  0.5252 -0.6740
  500MOL0     C67377   4.880   6.244   7.275 -0.0050 -0.5796  0.2240
  500MOL0     C67378   4.743   6.293   7.240  0.0378  0.4505 -0.5357
  500MOL0     C67379   4.704   6.429   7.273 -0.0562 -0.2846 -0.5773
  500MOL0     C67380   4.726   6.533   7.156  0.0167  0.4143  0.5776
  500MOL0     C67381   4.688   6.676   7.205  0.0992  0.6108  0.4244
  500MOL0     N67382   4.788   6.745   7.286 -0.4862 -0.8305  0.0962
  500MOL0     C67383   4.926   6.732   7.268 -1.0057 -0.1830  0.0499
  500MOL0     C67384   4.981   6.807   7.368 -0.3018 -1.2781  0.2519
  500MOL0     C67385   5.129   6.838   7.377 -0.7463 -0.2031 -0.8396
  500MOL0     C67386   5.173   6.984   7.329  0.0665  0.0216 -0.9360
  500MOL0     C67387   5.133   7.021   7.184  0.1143  0.4918 -0.5596
  500MOL0     C67388   5.205   7.136   7.129 -0.0849  0.5897  0.2445
  500MOL0     O67389   5.110   7.236   7.091 -0.6470  0.3659  0.1611
  500MOL0     C67390   5.047   7.225   6.969  0.3542  0.4797 -0.3443
  500MOL0     C67391   5.107   7.191   6.844  0.3296  0.5448 -0.6005
  500MOL0     C67392   5.035   7.176   6.722 -0.0568  0.4944  0.1343
  500MOL0     C67393   5.108   7.132   6.600 -0.2885 -0.5894 -0.0751
  500MOL0     C67394   4.891   7.186   6.734  0.1759  0.0868  0.8625
  500MOL0     C67395   4.801   7.143   6.625  1.0040 -0.1026  0.5557
  500MOL0     O67396   4.668   7.187   6.651  0.6086  0.2090  0.4864
  500MOL0     C67397   4.567   7.162   6.566  0.6346 -0.0161 -0.0492
  500MOL0     C67398   4.481   7.266   6.539  0.3558 -0.7473  0.2496
  500MOL0     C67399   4.377   7.266   6.445  0.4593 -0.1078  0.5681
  500MOL0     C67400   4.349   7.142   6.387 -0.6797 -0.4614 -0.0863
  500MOL0     O67401   4.252   7.118   6.298 -0.1107  0.1111 -0.5294
  500MOL0     C67402   4.159   7.222   6.268  0.6804 -0.1305 -0.4573
  500MOL0     C67403   4.034   7.185   6.189 -0.4290  0.6393  0.2947
  500MOL0     C67404   3.992   7.038   6.219  0.7366 -0.1850  0.6232
  500MOL0     C67405   3.836   7.016   6.191 -0.1532 -0.8235 -0.4861
  500MOL0     C67406   3.791   6.868   6.190  0.1203  0.1339  0.1962
  500MOL0     C67407   3.864   6.758   6.101  0.9735  0.2592  0.3111
  500MOL0     C67408   3.836   6.765   5.942 -0.6199 -0.4407  0.1640
  500MOL0     C67409   3.687   6.765   5.906  0.7370  0.0111 -0.6257
  500MOL0    Cl67410   3.651   6.707   5.742 -0.0055  0.1304 -0.1022
  500MOL0     C67411   4.429   7.033   6.413 -0.0929  1.1819 -0.2844
  500MOL0     C67412   4.541   7.035   6.506  0.8040  0.1456  0.2166
  500MOL0     O67413   4.831   7.080   6.521  0.6072  0.1651  0.0885
  500MOL0     C67414   4.832   7.227   6.859 -0.1200  0.1940 -0.7270
  500MOL0     C67415   4.913   7.233   6.976 -0.1590 -0.6426 -0.0389
  500MOL0     N67416   4.871   6.861   7.444 -0.1809 -0.6739  0.2391
  500MOL0     N67417   4.762   6.825   7.393  0.0431  0.6542 -0.1969
  500MOL0     C67418   5.420   6.603   7.378  0.2804 -0.3225 -0.5564
  500MOL0     C67419   5.544   6.655   7.400 -0.3108 -0.9167  0.9868
  500MOL0     C67420   5.968   6.754   7.433  0.5390 -0.0371 -0.3199
  500MOL0     C67421   6.038   6.707   7.550  0.0957 -0.7825  0.3106
  500MOL0     C67422   6.149   6.771   7.596  0.2770  0.0502 -0.2730
  500MOL0     C67423   6.199   6.900   7.547  0.6930  0.3294 -0.7593
  500MOL0     O67424   6.299   6.986   7.591  0.2331  0.4839  0.2228
  500MOL0     C67425   6.352   6.958   7.718  0.5806  0.1852  0.8393
  500MOL0     C67426   6.478   6.867   7.719 -0.4440 -0.1024  0.5077
  500MOL0     C67427   6.591   6.932   7.640 -1.3587 -0.6807 -0.3680
  500MOL0     C67428   6.738   6.904   7.698 -0.7891 -0.1232  0.6400
  500MOL0     C67429   6.815   7.007   7.634 -1.2470  0.8599 -0.1954
  500MOL0     C67430   6.880   7.099   7.585  0.3045 -0.2244 -0.4474
  500MOL0     C67431   6.119   6.957   7.441 -0.0648  0.2248 -0.6039
  500MOL0     C67432   6.007   6.885   7.390 -0.3829  0.4269  0.4627
  500MOL0     H67433   5.652   6.694   7.086  0.9373  0.3967  1.4403
  500MOL0     H67434   5.427   6.575   7.037 -0.6764  0.8699  0.0768
  500MOL0     H67435   5.247   6.401   7.098  1.9595 -0.0355 -0.8283
  500MOL0     H67436   5.353   6.320   7.218 -1.6856 -2.9188 -0.2416
  500MOL0     H67437   5.159   6.190   7.269 -0.3184  0.0386  2.7389
  500MOL0     H67438   5.159   6.301   7.396 -0.0553  1.0424  0.0551
  500MOL0     H67439   4.980   6.440   7.300 -2.8236  0.4770 -1.5842
  500MOL0     H67440   5.004   6.381   7.142  3.0096 -2.1333 -1.7282
  500MOL0     H67441   4.907   6.152   7.224  0.0842 -1.1798  1.3112
  500MOL0     H67442   4.889   6.226   7.383  0.7590  0.5783  0.3803
  500MOL0     H67443   4.736   6.284   7.131 -0.7139 -2.3888 -0.3297
  500MOL0     H67444   4.684   6.209   7.278  1.0412 -0.4514 -0.9172
  500MOL0     H67445   4.596   6.425   7.290 -0.3759  0.3949 -2.2505
  500MOL0     H67446   4.749   6.464   7.367 -2.6989  3.2420 -0.4229
  500MOL0     H67447   4.822   6.534   7.104 -1.4796  2.6806 -2.4336
  500MOL0     H67448   4.652   6.508   7.080 -1.6696 -1.9571  2.8255
  500MOL0     H67449   4.594   6.674   7.261 -0.1450 -3.6261  0.2176
  500MOL0     H67450   4.680   6.736   7.114  2.0978  1.7686  0.9441
  500MOL0     H67451   4.984   6.684   7.190 -0.4201 -0.5393  0.6973
  500MOL0     H67452   5.155   6.818   7.481 -1.7091 -3.9530 -1.1709
  500MOL0     H67453   5.179   6.763   7.315  1.6685  0.2156  0.4964
  500MOL0     H67454   5.281   6.996   7.332  0.0496  0.2202 -1.0990
  500MOL0     H67455   5.129   7.051   7.403 -0.0449 -0.1331 -0.8605
  500MOL0     H67456   5.025   7.036   7.195 -0.3309 -3.0736  1.5076
  500MOL0     H67457   5.137   6.934   7.117 -1.2340  0.4821 -0.6686
  500MOL0     H67458   5.273   7.115   7.047  1.3153  0.0538  1.4940
  500MOL0     H67459   5.262   7.178   7.213 -0.1094 -0.6048  0.8830
  500MOL0     H67460   5.212   7.172   6.827  0.2905  1.2936 -1.8054
  500MOL0     H67461   5.212   7.158   6.617 -0.6785 -0.4098  2.3825
  500MOL0     H67462   5.109   7.023   6.586 -1.6092 -0.3193 -3.3240
  500MOL0     H67463   5.070   7.176   6.507  0.2386 -0.3891 -0.1958
  500MOL0     H67464   4.499   7.366   6.579  0.6833  0.2398 -2.2003
  500MOL0     H67465   4.329   7.361   6.427 -2.7669 -1.5109  1.0720
  500MOL0     H67466   4.130   7.265   6.364 -1.1462 -1.3283 -0.4163
  500MOL0     H67467   4.202   7.299   6.204 -2.5744 -0.0838 -2.8229
  500MOL0     H67468   3.958   7.263   6.201 -0.4899  0.7729 -0.7936
  500MOL0     H67469   4.074   7.194   6.087  0.5672  4.2914  0.8793
  500MOL0     H67470   4.015   7.007   6.322 -3.6833 -2.1405  1.2477
  500MOL0     H67471   4.045   6.979   6.144 -0.7017 -0.8939  0.1342
  500MOL0     H67472   3.784   7.079   6.264  0.7002 -0.7278  0.0534
  500MOL0     H67473   3.804   7.057   6.095 -0.4092  0.7855  0.2337
  500MOL0     H67474   3.684   6.873   6.167 -0.5154 -4.7710  1.0795
  500MOL0     H67475   3.799   6.828   6.292  1.2519  1.4187  0.6502
  500MOL0     H67476   3.973   6.759   6.108  1.0597  1.7783 -0.6935
  500MOL0     H67477   3.832   6.663   6.144  3.4909  0.1358  2.1366
  500MOL0     H67478   3.873   6.673   5.897  0.6333  1.0022 -1.8670
  500MOL0     H67479   3.883   6.855   5.901  0.2550 -0.4993  0.9983
  500MOL0     H67480   3.646   6.866   5.917 -0.6766 -0.6139  0.2184
  500MOL0     H67481   3.629   6.705   5.977  0.3592 -1.3348 -2.0004
  500MOL0     H67482   4.399   6.949   6.351 -2.3826  2.0594 -0.4766
  500MOL0     H67483   4.587   6.938   6.518  0.4204 -0.0227  0.3643
  500MOL0     H67484   4.727   7.240   6.882  0.5055 -0.7964  3.7197
  500MOL0     H67485   4.870   7.277   7.066  2.4157 -0.3435  1.1589
  500MOL0     H67486   5.354   6.583   7.462 -3.4218  1.2776 -2.8647
  500MOL0     H67487   5.567   6.679   7.503  0.7464  0.4528  0.4642
  500MOL0     H67488   6.014   6.610   7.591 -1.2543  0.2412  2.0594
  500MOL0     H67489   6.209   6.720   7.671 -0.1481  0.5071  0.3824
  500MOL0     H67490   6.363   7.058   7.761 -0.8126  1.1047 -0.8405
  500MOL0     H67491   6.272   6.911   7.776  1.6499 -0.5828  1.7311
  500MOL0     H67492   6.447   6.780   7.662 -1.4864  0.4108  0.2768
  500MOL0     H67493   6.511   6.852   7.823 -0.1120  3.8972  1.1396
  500MOL0     H67494   6.583   7.041   7.648 -1.5868 -0.7333  0.1406
  500MOL0     H67495   6.591   6.911   7.533  1.4134 -0.9766 -0.3804
  500MOL0     H67496   6.774   6.806   7.666 -2.4991 -0.6722  0.2754
  500MOL0     H67497   6.742   6.916   7.807  3.5018 -4.0906  1.2299
  500MOL0     H67498   6.928   7.186   7.545  2.4071 -2.6804 -3.7728
  500MOL0     H67499   6.140   7.060   7.413 -0.3460  1.7474  3.9084
  500MOL0     H67500   5.942   6.930   7.316  0.4684 -1.9826 -1.9351
  501MOL0     O67501   6.690   9.449   3.637  0.9113 -0.0377  0.6290
  501MOL0     C67502   6.665   9.465   3.512 -0.5803 -0.1735 -1.0390
  501MOL0     O67503   6.561   9.417   3.429  0.2403 -0.3564  0.3693
  501MOL0     C67504   6.477   9.325   3.488 -0.0372 -0.4454 -0.7220
  501MOL0     C67505   6.514   9.196   3.522 -0.2242  0.9043  0.2933
  501MOL0     C67506   6.418   9.102   3.567 -0.5360  0.2342 -0.5249
  501MOL0     C67507   6.285   9.128   3.563  0.2030 -0.1542  0.3445
  501MOL0     O67508   6.206   9.022   3.597 -0.4116 -0.4934 -0.0329
  501MOL0     C67509   6.075   9.042   3.653  0.2830  0.1921  0.8789
  501MOL0     C67510   6.002   8.915   3.661  0.2393 -1.3304  0.2601
  501MOL0     C67511   5.849   8.943   3.686 -0.2514  0.3835 -0.0529
  501MOL0     C67512   5.757   8.898   3.572  0.1193 -0.0456 -0.7893
  501MOL0     C67513   5.616   8.877   3.615 -0.0668 -0.1891  0.0736
  501MOL0     C67514   5.591   8.739   3.669 -0.4841 -0.3984 -0.2704
  501MOL0     C67515   5.445   8.714   3.695  0.9895 -0.3336 -0.0934
  501MOL0     C67516   5.382   8.614   3.598  0.9091  0.1918 -0.2970
  501MOL0     N67517   5.317   8.686   3.483  0.0176 -0.7518  0.7498
  501MOL0     C67518   5.182   8.717   3.484 -0.4167  0.6897  1.0351
  501MOL0     C67519   5.164   8.807   3.383 -0.0582  0.3232  0.3269
  501MOL0     C67520   5.043   8.891   3.369  0.3519  0.0540 -0.5198
  501MOL0     C67521   4.984   8.952   3.505  0.3412  0.8625 -0.1882
  501MOL0     C67522   5.081   9.057   3.559 -0.0311 -0.4210 -0.8119
  501MOL0     C67523   5.058   9.197   3.489 -0.3587  0.0541 -0.3014
  501MOL0     O67524   5.157   9.281   3.550 -0.2998  0.6903 -0.3549
  501MOL0     C67525   5.285   9.282   3.512 -0.7453 -0.7274  0.9485
  501MOL0     C67526   5.347   9.214   3.410 -0.3737 -0.0871 -0.0841
  501MOL0     C67527   5.487   9.218   3.383  0.9645  0.5610 -0.4332
  501MOL0     C67528   5.545   9.135   3.272  0.4014 -0.1289  0.1333
  501MOL0     C67529   5.568   9.292   3.476 -0.6391  0.1783 -0.5786
  501MOL0     C67530   5.714   9.312   3.453  1.2073  0.4411  0.2388
  501MOL0     O67531   5.758   9.338   3.321 -1.2246 -0.3765 -0.0893
  501MOL0     C67532   5.897   9.323   3.290  0.7570 -0.3845  0.6615
  501MOL0     C67533   5.983   9.429   3.270  0.4462  0.4625  0.6054
  501MOL0     C67534   6.113   9.421   3.228 -1.6912  0.5965  0.0268
  501MOL0     C67535   6.165   9.291   3.201 -0.0126  0.6100 -0.6719
  501MOL0     O67536   6.286   9.290   3.139 -0.8336 -0.1716  0.0002
  501MOL0     C67537   6.354   9.165   3.098 -0.4732  0.6122 -0.9162
  501MOL0     C67538   6.481   9.203   3.021 -0.1833  0.2294 -0.3930
  501MOL0     C67539   6.587   9.270   3.101 -0.7001 -0.3271 -0.1251
  501MOL0     C67540   6.724   9.270   3.014 -0.1155  0.0896 -0.0846
  501MOL0     C67541   6.846   9.340   3.071 -0.4147 -0.0933 -0.1347
  501MOL0     C67542   6.883   9.281   3.209  0.1161 -1.1804 -0.3798
  501MOL0     C67543   7.022   9.317   3.244 -0.7482 -0.8349 -0.2383
  501MOL0     C67544   7.064   9.266   3.381 -0.0033 -0.7954  0.3814
  501MOL0    Cl67545   7.233   9.301   3.420  0.2323  0.1396  0.2830
  501MOL0     C67546   6.086   9.180   3.215 -0.4743  1.1991  0.0559
  501MOL0     C67547   5.951   9.192   3.255 -0.0005  0.3106 -0.4178
  501MOL0     O67548   5.789   9.293   3.546  0.8087  0.5273 -0.9076
  501MOL0     C67549   5.506   9.348   3.586 -0.5354  0.4642  0.8815
  501MOL0     C67550   5.364   9.348   3.599  0.4981 -0.0377 -0.2466
  501MOL0     N67551   5.291   8.823   3.318  0.4940  0.5480  0.1380
  501MOL0     N67552   5.380   8.750   3.378 -0.3306 -0.0167  0.4915
  501MOL0     C67553   6.244   9.262   3.527  0.1872 -0.0766 -0.3635
  501MOL0     C67554   6.340   9.357   3.491 -0.0576 -0.5299  0.6393
  501MOL0     C67555   6.759   9.559   3.450  0.1083 -0.5385  0.6622
  501MOL0     C67556   6.858   9.628   3.527 -1.5294  0.1111 -0.0033
  501MOL0     C67557   6.956   9.700   3.456  0.5870 -0.7986  0.4667
  501MOL0     C67558   6.937   9.718   3.321 -0.1566 -0.3764 -0.2895
  501MOL0     O67559   7.018   9.813   3.265 -0.3854 -0.0840  0.4634
  501MOL0     C67560   7.149   9.763   3.230  0.5218  0.5376  0.1047
  501MOL0     C67561   7.253   9.882   3.219 -0.0002 -0.7797  0.2955
  501MOL0     C67562   7.213   9.993   3.127  0.4435 -0.0693  0.6840
  501MOL0     C67563   7.320  10.098   3.111 -0.2224  0.1622  0.4901
  501MOL0     C67564   7.281  10.219   3.037 -0.2676 -0.5373  0.6962
  501MOL0     C67565   7.246  10.320   2.979  1.0088 -0.3675 -0.7980
  501MOL0     C67566   6.838   9.658   3.247 -0.2065  0.0587 -0.2290
  501MOL0     C67567   6.748   9.575   3.309  0.3152 -0.7576 -0.6942
  501MOL0     H67568   6.619   9.168   3.528 -0.2416  0.3347 -1.4104
  501MOL0     H67569   6.447   9.010   3.617 -1.3749  1.2594  1.9776
  501MOL0     H67570   6.081   9.089   3.751  2.6470  0.0914  0.8389
  501MOL0     H67571   6.025   9.120   3.595 -1.6480  0.5480  2.9255
  501MOL0     H67572   6.024   8.868   3.564  2.4957  1.9393 -0.9904
  501MOL0     H67573   6.043   8.864   3.749 -0.9389  2.1516  3.0425
  501MOL0     H67574   5.820   8.886   3.775 -0.1875  1.1262  0.4559
  501MOL0     H67575   5.830   9.047   3.716  1.4281  0.4664  0.8205
  501MOL0     H67576   5.764   8.979   3.499 -0.3183 -0.1514 -0.9480
  501MOL0     H67577   5.796   8.802   3.537  0.5968  0.0203 -0.4510
  501MOL0     H67578   5.584   8.965   3.673  2.0735 -0.4033  1.6724
  501MOL0     H67579   5.553   8.896   3.527  0.9141 -2.4468 -1.1730
  501MOL0     H67580   5.624   8.664   3.596 -0.8793 -0.4287 -0.4224
  501MOL0     H67581   5.650   8.720   3.759 -1.5345 -2.7034  0.0136
  501MOL0     H67582   5.440   8.659   3.790 -1.8282 -0.4718 -0.2385
  501MOL0     H67583   5.382   8.803   3.699 -0.3706 -1.2607 -0.3824
  501MOL0     H67584   5.305   8.552   3.644 -0.7993  2.1021 -0.4486
  501MOL0     H67585   5.456   8.547   3.553  0.3370 -0.6070 -0.0691
  501MOL0     H67586   5.112   8.676   3.556  0.7309  1.4291  2.6388
  501MOL0     H67587   5.071   8.979   3.309  0.3945  1.5570  1.5942
  501MOL0     H67588   4.968   8.827   3.321 -0.4691  1.2575 -0.9023
  501MOL0     H67589   4.963   8.875   3.579  1.4420  1.6270  0.9671
  501MOL0     H67590   4.890   9.006   3.490  0.3310  0.4230 -1.8593
  501MOL0     H67591   5.182   9.016   3.548  0.1674 -2.5015  5.1757
  501MOL0     H67592   5.074   9.068   3.668  2.2666  2.8984 -0.8517
  501MOL0     H67593   4.957   9.237   3.502 -0.5747 -0.3859 -0.6235
  501MOL0     H67594   5.067   9.193   3.380  1.5703 -3.5218 -0.1673
  501MOL0     H67595   5.278   9.143   3.365 -2.4872 -0.1030  2.8590
  501MOL0     H67596   5.601   9.048   3.307  3.0698  1.4431  0.0752
  501MOL0     H67597   5.465   9.092   3.212  2.8177 -2.3310 -1.7866
  501MOL0     H67598   5.609   9.193   3.204  0.4024  0.5875  0.7340
  501MOL0     H67599   5.944   9.530   3.273  0.4355  0.5024 -0.4776
  501MOL0     H67600   6.167   9.509   3.195 -1.7043  0.4141 -0.4781
  501MOL0     H67601   6.387   9.111   3.187 -2.9999  1.3260  0.5714
  501MOL0     H67602   6.295   9.108   3.026  0.0621 -1.1856  0.0115
  501MOL0     H67603   6.513   9.105   2.984 -1.2317 -0.6043  0.8343
  501MOL0     H67604   6.460   9.271   2.938 -2.5122  0.3126  0.2036
  501MOL0     H67605   6.604   9.218   3.195  0.7136  0.8695  0.3241
  501MOL0     H67606   6.560   9.374   3.122  3.1242  0.7962 -0.0188
  501MOL0     H67607   6.764   9.171   2.990 -0.4748  0.0608 -0.5617
  501MOL0     H67608   6.703   9.314   2.916  2.6764 -0.1983 -0.9021
  501MOL0     H67609   6.839   9.448   3.083 -1.0220  0.0766 -1.7988
  501MOL0     H67610   6.924   9.315   2.999 -0.8784  0.2389 -0.7659
  501MOL0     H67611   6.810   9.312   3.284  2.8399  1.0234  1.6240
  501MOL0     H67612   6.875   9.173   3.199 -2.3481 -0.8748 -3.8632
  501MOL0     H67613   7.021   9.426   3.252 -0.6377 -0.9430  1.4796
  501MOL0     H67614   7.085   9.269   3.169 -0.6083  0.3990 -0.9377
  501MOL0     H67615   7.030   9.162   3.383 -1.2543 -0.4226 -0.0767
  501MOL0     H67616   7.004   9.301   3.465  2.1981 -3.6272  3.4022
  501MOL0     H67617   6.136   9.084   3.202 -0.2507  1.4179 -0.7438
  501MOL0     H67618   5.887   9.106   3.265 -0.4206  0.5555 -0.9798
  501MOL0     H67619   5.561   9.403   3.662 -1.0389  0.3587  1.3336
  501MOL0     H67620   5.319   9.402   3.683  1.6942  1.4382 -0.5016
  501MOL0     H67621   6.139   9.290   3.525  0.2319  0.1426  0.4000
  501MOL0     H67622   6.308   9.455   3.456 -0.6224 -0.4934  1.2451
  501MOL0     H67623   6.857   9.623   3.635  0.1143 -1.2206  0.0013
  501MOL0     H67624   7.039   9.757   3.495 -1.0185  1.4320  0.8278
  501MOL0     H67625   7.180   9.685   3.301  2.8345 -1.3891 -2.7707
  501MOL0     H67626   7.143   9.706   3.137 -0.3839  1.9315 -0.7166
  501MOL0     H67627   7.338   9.824   3.181 -0.7105 -1.6936  0.0709
  501MOL0     H67628   7.289   9.919   3.315  2.8400  4.0863 -2.2654
  501MOL0     H67629   7.122  10.037   3.170  1.2587  2.4399 -0.0117
  501MOL0     H67630   7.189   9.955   3.027  0.7559  1.9299 -0.1956
  501MOL0     H67631   7.412  10.060   3.066  2.1010  2.3908  2.9108
  501MOL0     H67632   7.354  10.133   3.210 -0.1288  1.4932  0.0155
  501MOL0     H67633   7.213  10.414   2.938  0.5738  0.1837  0.7538
  501MOL0     H67634   6.824   9.688   3.144 -0.3214 -1.0553 -0.5499
  501MOL0     H67635   6.656   9.542   3.262  0.2340 -2.3819  0.5519
  502MOL0     O67636  10.104   1.509  10.580 -0.1502 -0.3371 -0.5058
  502MOL0     C67637  10.183   1.473  10.670  0.8012  0.3121  0.8453
  502MOL0     O67638  10.145   1.412  10.790  0.5906 -0.4631 -0.1535
  502MOL0     C67639  10.007   1.397  10.815  0.8732  0.1367 -1.2342
  502MOL0     C67640   9.912   1.361  10.725  0.3666  0.1966  0.2181
  502MOL0     C67641   9.774   1.357  10.751 -0.1954 -0.5159  0.3871
  502MOL0     C67642   9.726   1.375  10.884  0.9249 -0.3764  0.0033
  502MOL0     O67643   9.591   1.355  10.919 -0.6227  0.5825  0.3696
  502MOL0     C67644   9.545   1.222  10.895 -0.4389  0.4730  0.2022
  502MOL0     C67645   9.392   1.215  10.919  0.2507  0.4607  0.9613
  502MOL0     C67646   9.340   1.301  11.029 -0.0021 -0.7690  0.6832
  502MOL0     C67647   9.191   1.260  11.080 -0.3329  0.6956  0.7020
  502MOL0     C67648   9.139   1.360  11.179 -0.6952  0.2920 -0.1806
  502MOL0     C67649   9.009   1.302  11.233  1.1405 -0.5334  0.1923
  502MOL0     C67650   8.968   1.400  11.345  0.4232 -0.3065 -0.4408
  502MOL0     C67651   8.826   1.433  11.336  0.9558  0.0147  0.4869
  502MOL0     N67652   8.730   1.328  11.309 -0.7545 -0.2007  0.1600
  502MOL0     C67653   8.693   1.240  11.405  0.4510  1.1462 -0.6545
  502MOL0     C67654   8.605   1.156  11.349 -0.1940  0.6853  0.2649
  502MOL0     C67655   8.504   1.059  11.404 -0.7713  0.2917 -0.2442
  502MOL0     C67656   8.376   1.125  11.418 -0.5624  0.4900  0.7952
  502MOL0     C67657   8.278   1.009  11.444 -0.1798  0.5226 -0.0613
  502MOL0     C67658   8.158   1.064  11.514  0.1667 -0.0497 -0.2709
  502MOL0     O67659   8.067   1.142  11.427  0.4908  0.0075  0.3541
  502MOL0     C67660   7.934   1.152  11.447 -0.5424 -0.2401  0.8273
  502MOL0     C67661   7.851   1.187  11.340  0.6009 -0.0160 -0.1505
  502MOL0     C67662   7.714   1.192  11.355  0.5616  0.5335 -1.3669
  502MOL0     C67663   7.634   1.220  11.235  0.1485 -0.2105 -0.1185
  502MOL0     C67664   7.659   1.155  11.484 -0.2734  0.7109  1.2786
  502MOL0     C67665   7.511   1.143  11.519 -0.3608 -0.4010 -0.3038
  502MOL0     O67666   7.471   1.085  11.636 -0.1853 -0.4940 -0.4322
  502MOL0     C67667   7.356   1.143  11.698 -0.3004 -0.2502  0.1542
  502MOL0     C67668   7.376   1.206  11.823 -0.0799  0.0719  0.4289
  502MOL0     C67669   7.266   1.251  11.900  0.2095  0.6389  0.6068
  502MOL0     C67670   7.138   1.240  11.838 -0.5539 -0.8085  0.3082
  502MOL0     O67671   7.023   1.285  11.898 -0.5109  0.0401 -0.2472
  502MOL0     C67672   7.027   1.431  11.940  1.1002  0.8766  0.1241
  502MOL0     C67673   6.885   1.456  11.999 -1.3853  0.6512 -0.3999
  502MOL0     C67674   6.850   1.357  12.118  0.1292 -0.5723 -0.2095
  502MOL0     C67675   6.937   1.387  12.241 -0.7339 -0.2978  1.0339
  502MOL0     C67676   6.909   1.288  12.348 -0.7146  0.3042  0.1177
  502MOL0     C67677   6.984   1.319  12.478 -0.2255  0.6752 -1.2072
  502MOL0     C67678   6.986   1.212  12.590 -0.2408  0.0334  0.5492
  502MOL0     C67679   7.055   1.254  12.716 -0.6822 -0.7508  0.0196
  502MOL0    Cl67680   7.215   1.337  12.684  0.0126 -0.3293 -0.0332
  502MOL0     C67681   7.130   1.184  11.712 -0.2391  0.5089  0.9223
  502MOL0     C67682   7.236   1.128  11.638 -0.3979 -0.5192 -0.1106
  502MOL0     O67683   7.436   1.199  11.444  0.1517 -0.6430  0.6432
  502MOL0     C67684   7.747   1.130  11.592  0.6527  0.0659 -0.3022
  502MOL0     C67685   7.884   1.124  11.568  0.6782  0.5950  0.5215
  502MOL0     N67686   8.603   1.188  11.207  0.7287 -0.2345  0.2637
  502MOL0     N67687   8.670   1.296  11.195 -0.7864 -0.1487 -0.3141
  502MOL0     C67688   9.823   1.405  10.980  0.4520 -0.1594 -0.9984
  502MOL0     C67689   9.964   1.412  10.952  0.2709  0.3847  0.8444
  502MOL0     C67690  10.330   1.481  10.651 -0.2108  0.6188 -0.7146
  502MOL0     C67691  10.419   1.436  10.747 -0.8183 -0.7897 -0.8027
  502MOL0     C67692  10.553   1.441  10.727 -0.2273  0.0289  0.3285
  502MOL0     C67693  10.606   1.477  10.605 -0.6531  0.0949  0.6495
  502MOL0     O67694  10.741   1.486  10.598 -0.0309  0.6019 -0.8017
  502MOL0     C67695  10.809   1.537  10.482  0.4896 -0.0059  0.6185
  502MOL0     C67696  10.957   1.548  10.500  0.1057  0.4631 -0.3387
  502MOL0     C67697  11.033   1.412  10.511 -0.8043  0.3582  0.9553
  502MOL0     C67698  11.052   1.365  10.660  0.6108 -0.5568 -0.0055
  502MOL0     C67699  11.103   1.225  10.668  1.3679  0.1527  0.5675
  502MOL0     C67700  11.133   1.109  10.694 -0.1766 -0.0755 -0.8586
  502MOL0     C67701  10.520   1.515  10.500 -0.1126 -0.5177 -0.0323
  502MOL0     C67702  10.386   1.531  10.526 -0.5717 -0.2803  0.2158
  502MOL0     H67703   9.949   1.324  10.630  2.3323 -0.5598  1.2261
  502MOL0     H67704   9.699   1.324  10.680 -0.4585 -3.2881  1.8291
  502MOL0     H67705   9.573   1.203  10.791  1.8918  1.0600  0.6759
  502MOL0     H67706   9.593   1.146  10.959  0.1139 -0.3632 -1.1676
  502MOL0     H67707   9.343   1.251  10.828  2.8029  0.7368 -0.4230
  502MOL0     H67708   9.364   1.111  10.938  0.3971  0.5612  1.7476
  502MOL0     H67709   9.402   1.311  11.119  1.7400  3.7705 -0.6925
  502MOL0     H67710   9.336   1.405  10.995  1.8672 -0.5603  0.9640
  502MOL0     H67711   9.120   1.246  10.998 -1.4129  1.1913  1.5264
  502MOL0     H67712   9.196   1.165  11.134  1.5795  0.6820  0.5604
  502MOL0     H67713   9.218   1.369  11.254 -0.4526  0.9036 -0.5084
  502MOL0     H67714   9.129   1.457  11.131  1.0533 -0.1244 -1.4809
  502MOL0     H67715   8.949   1.302  11.141 -0.5028  1.6626  1.1653
  502MOL0     H67716   9.019   1.199  11.268 -1.6108 -0.4486  1.5228
  502MOL0     H67717   8.971   1.362  11.447 -2.5456 -1.6639 -0.7642
  502MOL0     H67718   9.019   1.496  11.347 -1.7027  0.8582  0.4557
  502MOL0     H67719   8.794   1.494  11.251 -2.3405 -3.5467 -1.1064
  502MOL0     H67720   8.784   1.491  11.419 -5.2398 -1.9838 -0.7407
  502MOL0     H67721   8.712   1.242  11.511  0.4879  1.9448 -0.6645
  502MOL0     H67722   8.505   0.973  11.336  1.1989  1.6550 -2.0639
  502MOL0     H67723   8.546   1.031  11.501 -0.7986  3.4205  0.7642
  502MOL0     H67724   8.345   1.175  11.326  0.5174 -3.3140 -1.8945
  502MOL0     H67725   8.378   1.196  11.501 -1.3898  1.9941 -0.4186
  502MOL0     H67726   8.322   0.935  11.512 -2.6736 -0.7385  0.3276
  502MOL0     H67727   8.247   0.959  11.352  0.8049 -0.8901  0.3457
  502MOL0     H67728   8.184   1.129  11.598  1.9440 -0.1347 -0.7186
  502MOL0     H67729   8.103   0.984  11.563  0.1816  1.0633  1.6670
  502MOL0     H67730   7.897   1.194  11.241  0.7310 -0.3937 -0.1173
  502MOL0     H67731   7.703   1.259  11.160  0.5266  1.2160  0.9270
  502MOL0     H67732   7.593   1.125  11.199 -0.0954 -0.6367  1.2252
  502MOL0     H67733   7.556   1.294  11.254  0.8798  1.6360 -3.4915
  502MOL0     H67734   7.474   1.222  11.867 -0.1535 -1.9649  1.4430
  502MOL0     H67735   7.271   1.294  11.999 -0.6210 -0.3912  1.1246
  502MOL0     H67736   7.103   1.437  12.019  2.0442  1.0532 -0.7791
  502MOL0     H67737   7.042   1.497  11.854 -0.0328  2.7922  1.3110
  502MOL0     H67738   6.885   1.561  12.032  0.5195  0.6499 -0.2399
  502MOL0     H67739   6.811   1.438  11.921 -0.1597 -0.9168 -1.2501
  502MOL0     H67740   6.858   1.258  12.071 -0.5011 -0.4876 -0.4946
  502MOL0     H67741   6.748   1.371  12.154 -0.1489 -4.9100  1.3541
  502MOL0     H67742   7.038   1.377  12.202  0.3786  3.0038  2.6486
  502MOL0     H67743   6.922   1.486  12.285  0.0106 -0.1341  0.9312
  502MOL0     H67744   6.927   1.182  12.330 -0.3776  0.1193  1.4151
  502MOL0     H67745   6.802   1.297  12.370 -0.1458  0.5805  3.2870
  502MOL0     H67746   7.089   1.332  12.452  0.3639 -0.2286  0.5480
  502MOL0     H67747   6.952   1.415  12.520  0.9296 -0.1318  1.8506
  502MOL0     H67748   7.027   1.122  12.543  1.8041  1.0651  0.2304
  502MOL0     H67749   6.884   1.194  12.623  0.3205  1.2005  3.1495
  502MOL0     H67750   7.069   1.171  12.786 -4.4805 -1.7003 -0.1063
  502MOL0     H67751   6.995   1.326  12.772  1.8876  0.4920  1.3125
  502MOL0     H67752   7.030   1.188  11.670  0.5665 -0.8925 -1.2949
  502MOL0     H67753   7.216   1.095  11.537  0.0962  3.0235 -1.5011
  502MOL0     H67754   7.717   1.101  11.692 -0.9782  2.3932 -0.0512
  502MOL0     H67755   7.944   1.111  11.658  0.7188  1.5827  0.6468
  502MOL0     H67756   9.791   1.412  11.083  1.9587 -1.1715 -0.4175
  502MOL0     H67757  10.030   1.440  11.033  0.1132  0.1550  1.0574
  502MOL0     H67758  10.376   1.390  10.835 -1.5170 -1.3228 -1.4114
  502MOL0     H67759  10.620   1.411  10.808 -2.1334  1.4275  2.5760
  502MOL0     H67760  10.782   1.481  10.392  0.2386  3.0983 -1.3906
  502MOL0     H67761  10.774   1.637  10.453  2.4467  0.2401 -1.1726
  502MOL0     H67762  10.997   1.610  10.581 -0.2548 -0.8938  0.9148
  502MOL0     H67763  10.996   1.595  10.409 -0.4158 -0.5388 -1.0972
  502MOL0     H67764  11.128   1.419  10.457 -1.7656  1.1299 -0.6839
  502MOL0     H67765  10.977   1.339  10.452  1.0267 -0.7321  0.5031
  502MOL0     H67766  10.960   1.379  10.718  0.1275  0.1831 -0.9254
  502MOL0     H67767  11.133   1.421  10.710  2.7235 -2.9494 -0.5507
  502MOL0     H67768  11.166   1.009  10.715  0.9767  0.0172 -2.0638
  502MOL0     H67769  10.551   1.542  10.399 -2.3853 -1.1518 -0.9699
  502MOL0     H67770  10.310   1.557  10.453  0.6497  0.8431 -0.7079
  503MOL0     O67771   8.473   3.591   3.614 -0.2707  0.3256  0.6803
  503MOL0     C67772   8.530   3.648   3.521  0.6022  0.0783 -0.2477
  503MOL0     O67773   8.461   3.706   3.420  0.2501 -0.3983 -0.0641
  503MOL0     C67774   8.342   3.656   3.377  0.2429  0.2805 -0.1667
  503MOL0     C67775   8.334   3.520   3.352  0.1583 -0.5292 -0.7295
  503MOL0     C67776   8.211   3.469   3.298 -0.2551  0.5213  0.4993
  503MOL0     C67777   8.096   3.553   3.271  0.0696  0.0506 -0.6445
  503MOL0     O67778   7.973   3.501   3.229 -0.8282  0.2331 -0.1840
  503MOL0     C67779   7.893   3.593   3.155 -0.0187 -0.2824  0.3596
  503MOL0     C67780   7.784   3.512   3.086 -0.4606 -0.4148 -0.2841
  503MOL0     C67781   7.681   3.607   3.010 -0.1841  0.1021 -0.6512
  503MOL0     C67782   7.723   3.612   2.855 -0.6609  0.2830  0.2660
  503MOL0     C67783   7.617   3.686   2.779 -0.1835 -0.1396 -0.0889
  503MOL0     C67784   7.634   3.656   2.621  0.1872 -0.3360 -0.0758
  503MOL0     C67785   7.764   3.735   2.573  0.8511  0.2338 -1.0326
  503MOL0     C67786   7.780   3.741   2.418 -0.5579 -0.6124  0.4637
  503MOL0     N67787   7.910   3.805   2.387  0.3888 -0.2336  0.1610
  503MOL0     C67788   8.029   3.762   2.446 -0.6366  0.6491 -0.5889
  503MOL0     C67789   8.110   3.871   2.443  0.1863 -0.1993  0.3653
  503MOL0     C67790   8.262   3.875   2.470  0.3405  1.0601 -0.6482
  503MOL0     C67791   8.330   3.768   2.395  0.2465 -0.2832  0.4824
  503MOL0     C67792   8.330   3.793   2.240  0.3928  0.3562 -0.0091
  503MOL0     C67793   8.420   3.716   2.145  0.0508 -0.3105 -1.6138
  503MOL0     O67794   8.394   3.752   2.003 -1.0151  0.0104 -0.5112
  503MOL0     C67795   8.295   3.701   1.927 -0.0463 -0.0403  0.3481
  503MOL0     C67796   8.274   3.768   1.812 -0.7198 -0.2644 -0.3646
  503MOL0     C67797   8.169   3.744   1.728  0.1462 -0.6620  0.4982
  503MOL0     C67798   8.131   3.841   1.618 -0.6395 -0.2685  1.2850
  503MOL0     C67799   8.082   3.625   1.756 -0.2248  0.5638  0.1870
  503MOL0     C67800   7.966   3.587   1.674  1.3743  0.1960 -1.1879
  503MOL0     O67801   7.959   3.635   1.550 -0.6365 -0.9617  0.3183
  503MOL0     C67802   7.857   3.602   1.472  0.0451 -0.5362  1.2062
  503MOL0     C67803   7.765   3.700   1.443  0.2511 -0.1783  0.4381
  503MOL0     C67804   7.651   3.669   1.363  0.8718 -0.1847  0.1003
  503MOL0     C67805   7.624   3.533   1.333 -0.3359 -0.3671 -0.6646
  503MOL0     O67806   7.512   3.517   1.257 -0.5067 -0.5347  0.0634
  503MOL0     C67807   7.420   3.409   1.277 -0.0543 -0.4789 -0.6906
  503MOL0     C67808   7.277   3.439   1.219 -0.4487 -0.8825  0.0920
  503MOL0     C67809   7.214   3.549   1.302  0.4045 -0.1610 -0.6114
  503MOL0     C67810   7.067   3.560   1.261 -0.4773 -0.9808  0.3253
  503MOL0     C67811   7.006   3.691   1.312  0.3070  0.3616  1.2579
  503MOL0     C67812   6.862   3.700   1.263 -0.1504 -0.2089  0.0933
  503MOL0     C67813   6.792   3.823   1.337 -0.2196  0.3371 -0.5590
  503MOL0     C67814   6.659   3.852   1.274 -0.6295  0.6672 -0.5088
  503MOL0    Cl67815   6.534   3.729   1.344  0.2327  0.0173  0.0702
  503MOL0     C67816   7.715   3.434   1.369 -1.3542 -0.5400 -0.1011
  503MOL0     C67817   7.840   3.471   1.426 -0.2268  0.8457 -0.0236
  503MOL0     O67818   7.882   3.513   1.730  0.6444 -0.6631  0.2552
  503MOL0     C67819   8.110   3.551   1.872 -0.8022 -0.5000  0.5010
  503MOL0     C67820   8.215   3.598   1.959  0.4077 -0.0886  0.3296
  503MOL0     N67821   8.042   3.973   2.377  0.2402 -0.7533 -0.8120
  503MOL0     N67822   7.924   3.937   2.347 -0.2891 -0.4579 -0.2699
  503MOL0     C67823   8.121   3.690   3.294 -1.3957  0.5304  0.4863
  503MOL0     C67824   8.233   3.743   3.344 -0.3435  0.3515  0.4520
  503MOL0     C67825   8.674   3.648   3.507  0.6168  0.0429  1.1157
  503MOL0     C67826   8.736   3.729   3.409 -0.1493 -0.1379  0.0909
  503MOL0     C67827   8.873   3.750   3.400 -0.0597  0.3934  0.0041
  503MOL0     C67828   8.956   3.679   3.500  0.1825  0.1028  0.2241
  503MOL0     O67829   9.095   3.685   3.503  0.3387  0.6776  0.1463
  503MOL0     C67830   9.175   3.734   3.394 -0.2822 -0.3292 -0.6204
  503MOL0     C67831   9.300   3.655   3.392 -0.3069  0.6630  0.3581
  503MOL0     C67832   9.400   3.675   3.513  0.5138 -0.0137  0.1156
  503MOL0     C67833   9.549   3.645   3.491  0.2828  0.0173 -0.1677
  503MOL0     C67834   9.560   3.528   3.418 -0.3064  0.3132 -0.7438
  503MOL0     C67835   9.563   3.419   3.365 -1.0230  0.1776 -0.4254
  503MOL0     C67836   8.895   3.601   3.600 -0.1229  0.1513 -0.4544
  503MOL0     C67837   8.757   3.580   3.607  0.6884  0.0262  0.0201
  503MOL0     H67838   8.417   3.455   3.374  0.4128  0.3177  0.9822
  503MOL0     H67839   8.202   3.364   3.274  1.6596  0.6467 -0.9309
  503MOL0     H67840   7.843   3.668   3.217  0.4681 -0.0256  0.4489
  503MOL0     H67841   7.958   3.640   3.081 -0.6272  1.0176  0.6006
  503MOL0     H67842   7.829   3.438   3.020  2.7051 -0.6706  1.9845
  503MOL0     H67843   7.714   3.461   3.153 -2.1667  2.2342  0.1399
  503MOL0     H67844   7.581   3.565   3.023  0.2580 -0.0503  3.6996
  503MOL0     H67845   7.685   3.712   3.043  0.9852 -0.7785  2.2577
  503MOL0     H67846   7.824   3.649   2.833  2.2413 -5.4969  1.7712
  503MOL0     H67847   7.726   3.512   2.812 -0.3657  1.7426 -3.5246
  503MOL0     H67848   7.517   3.648   2.802 -0.6555  1.1393  0.0693
  503MOL0     H67849   7.626   3.793   2.801  1.3060 -0.1715 -0.4252
  503MOL0     H67850   7.649   3.550   2.601 -0.2406 -0.3310 -0.4560
  503MOL0     H67851   7.540   3.675   2.568 -1.4017 -0.1815  2.6316
  503MOL0     H67852   7.751   3.834   2.619  0.9692  0.5309 -1.6283
  503MOL0     H67853   7.852   3.694   2.623  0.5206 -2.2302 -2.3101
  503MOL0     H67854   7.695   3.797   2.377  2.9290  3.0583 -2.5694
  503MOL0     H67855   7.785   3.639   2.379 -0.0489 -1.2597  2.1288
  503MOL0     H67856   8.059   3.669   2.492 -1.8926  0.3504 -0.3269
  503MOL0     H67857   8.302   3.975   2.452  1.0823  1.2807  1.8525
  503MOL0     H67858   8.277   3.860   2.577  0.8289 -0.2086 -0.8736
  503MOL0     H67859   8.287   3.668   2.404 -0.0604 -0.5095 -2.4505
  503MOL0     H67860   8.433   3.772   2.430  0.1905  0.3744  0.5809
  503MOL0     H67861   8.348   3.899   2.221  0.3880 -0.0103 -2.3902
  503MOL0     H67862   8.226   3.774   2.212  1.3222 -0.4721 -3.3729
  503MOL0     H67863   8.412   3.609   2.163 -0.3529 -0.0893 -0.4079
  503MOL0     H67864   8.523   3.747   2.167 -0.4420  0.4370 -0.2660
  503MOL0     H67865   8.346   3.848   1.798 -0.8711  0.1511  1.0567
  503MOL0     H67866   8.195   3.930   1.620 -1.3870  0.4162 -1.2120
  503MOL0     H67867   8.143   3.802   1.516  3.1147 -0.1584  1.5637
  503MOL0     H67868   8.030   3.881   1.631 -1.3166 -1.7394  0.7531
  503MOL0     H67869   7.782   3.799   1.483 -0.7592  0.6768 -1.1717
  503MOL0     H67870   7.578   3.745   1.338 -0.3619 -0.9311  1.3058
  503MOL0     H67871   7.460   3.323   1.222  3.3344  1.1235 -0.9921
  503MOL0     H67872   7.416   3.377   1.382 -0.1144  4.4114  1.0675
  503MOL0     H67873   7.281   3.472   1.114  2.5085 -0.9049  0.1201
  503MOL0     H67874   7.204   3.359   1.209 -1.8732  0.4592 -0.8583
  503MOL0     H67875   7.262   3.647   1.298  0.4132 -0.1871 -1.2004
  503MOL0     H67876   7.215   3.514   1.406  0.5326  1.0152 -0.2084
  503MOL0     H67877   7.071   3.558   1.152 -0.7563  2.1232  0.1576
  503MOL0     H67878   7.011   3.474   1.298  3.4369 -3.3225  1.5203
  503MOL0     H67879   7.073   3.765   1.267  3.2455 -2.0041  1.3724
  503MOL0     H67880   7.009   3.706   1.421 -3.4717  0.2575  1.5049
  503MOL0     H67881   6.863   3.728   1.157 -1.5381  0.4200  0.2332
  503MOL0     H67882   6.805   3.613   1.294  0.6379 -0.6325  0.3883
  503MOL0     H67883   6.857   3.907   1.314 -0.8604  0.8637 -0.4594
  503MOL0     H67884   6.791   3.801   1.444 -0.2176 -1.9001 -0.9677
  503MOL0     H67885   6.665   3.835   1.167  0.1794 -1.3876 -0.1895
  503MOL0     H67886   6.625   3.954   1.294  0.2563  0.9815 -0.5669
  503MOL0     H67887   7.683   3.332   1.351 -1.8944 -0.4656  0.4015
  503MOL0     H67888   7.916   3.394   1.440  0.4975  1.8696  1.9928
  503MOL0     H67889   8.057   3.461   1.901  0.1445 -1.0890  0.4715
  503MOL0     H67890   8.236   3.551   2.055  1.7600 -2.3435 -1.0016
  503MOL0     H67891   8.041   3.760   3.275 -3.9550 -2.4387 -0.5476
  503MOL0     H67892   8.232   3.849   3.363 -2.9737  1.0346 -2.6044
  503MOL0     H67893   8.676   3.788   3.340 -0.9417 -2.1418 -0.9979
  503MOL0     H67894   8.901   3.823   3.324 -4.1708 -0.2422 -2.4170
  503MOL0     H67895   9.131   3.709   3.297  1.9645 -0.2663 -1.7471
  503MOL0     H67896   9.193   3.841   3.399 -2.7668  0.0791  0.7059
  503MOL0     H67897   9.344   3.686   3.297 -0.5725  1.0064  0.3449
  503MOL0     H67898   9.291   3.547   3.380  0.6686  0.5464  0.5332
  503MOL0     H67899   9.369   3.598   3.584  1.7349 -0.3159  0.3564
  503MOL0     H67900   9.378   3.776   3.548 -2.4835 -0.3867 -0.4186
  503MOL0     H67901   9.597   3.625   3.587  1.5968 -1.9070 -1.1521
  503MOL0     H67902   9.616   3.719   3.447 -0.5262 -0.6845 -2.7343
  503MOL0     H67903   9.584   3.320   3.328 -0.4283  0.0312  0.2698
  503MOL0     H67904   8.953   3.552   3.677  0.2244  0.9879 -0.1698
  503MOL0     H67905   8.720   3.506   3.678  1.1778 -0.2997 -0.0650
  504MOL0     O67906   2.937   8.453   8.020  0.0896 -0.0970 -0.4436
  504MOL0     C67907   3.019   8.540   7.987  0.0731  0.0574  0.8665
  504MOL0     O67908   2.996   8.673   7.973  0.2900  0.3372  0.4783
  504MOL0     C67909   2.883   8.727   8.034 -0.2421 -0.8033  0.4970
  504MOL0     C67910   2.796   8.800   7.963 -0.3424 -0.2698  0.5074
  504MOL0     C67911   2.676   8.846   8.015 -0.0618  0.0304  0.5302
  504MOL0     C67912   2.637   8.822   8.148 -0.8124  0.0464  0.0921
  504MOL0     O67913   2.518   8.852   8.194  0.0266  0.9084 -0.4554
  504MOL0     C67914   2.416   8.863   8.089  0.0571  0.1540 -0.6493
  504MOL0     C67915   2.288   8.845   8.163  0.2349  0.4683 -0.1969
  504MOL0     C67916   2.169   8.901   8.087  0.7451  0.0363 -1.1021
  504MOL0     C67917   2.040   8.924   8.169 -0.1349 -0.6688  0.2510
  504MOL0     C67918   1.930   8.980   8.076  0.8655 -1.0342  0.8643
  504MOL0     C67919   1.809   9.019   8.157 -0.7697  0.2012  0.3723
  504MOL0     C67920   1.694   9.062   8.052  0.5529  0.6835  0.0555
  504MOL0     C67921   1.571   8.979   8.078 -0.9423  0.3559  0.7070
  504MOL0     N67922   1.470   9.005   7.966 -0.2710 -0.1742  0.3271
  504MOL0     C67923   1.406   9.121   7.932 -0.4337  1.5596 -1.0404
  504MOL0     C67924   1.317   9.085   7.834 -0.2556 -0.0251 -0.3839
  504MOL0     C67925   1.205   9.180   7.789 -0.4190  0.1162 -0.2074
  504MOL0     C67926   1.102   9.106   7.691 -1.1571  0.2256  0.2955
  504MOL0     C67927   0.975   9.186   7.684  0.4623 -0.5752 -0.4966
  504MOL0     C67928   0.863   9.103   7.622  0.6138  0.3532 -0.4720
  504MOL0     O67929   0.747   9.185   7.606  0.3679  0.1475 -0.1064
  504MOL0     C67930   0.632   9.116   7.579 -0.4847 -1.2044 -0.5408
  504MOL0     C67931   0.522   9.189   7.596  1.1822  0.5761 -0.2593
  504MOL0     C67932   0.395   9.142   7.563  0.2041  0.0825 -0.0891
  504MOL0     C67933   0.287   9.232   7.613 -0.3062  1.1201 -0.1357
  504MOL0     C67934   0.383   9.013   7.494  0.1670  0.4697  0.5093
  504MOL0     C67935   0.266   8.954   7.436  0.8548  0.4089  0.5007
  504MOL0     O67936   0.151   9.012   7.470 -0.3623  0.4778 -0.2748
  504MOL0     C67937   0.048   9.000   7.384  0.3699  0.7728  0.1616
  504MOL0     C67938  -0.063   8.916   7.417 -0.3402  0.2111  0.6939
  504MOL0     C67939  -0.177   8.912   7.331  0.1042 -0.4064 -0.3619
  504MOL0     C67940  -0.177   8.976   7.212 -0.3666  0.6086  0.0284
  504MOL0     O67941  -0.288   8.947   7.143  0.0812  0.0518  0.3201
  504MOL0     C67942  -0.274   8.926   7.002 -0.0328  0.8124 -0.0588
  504MOL0     C67943  -0.404   8.877   6.941  0.1157  0.1274  0.5107
  504MOL0     C67944  -0.528   8.961   6.979 -0.5510  0.5851 -0.1077
  504MOL0     C67945  -0.663   8.912   6.924 -1.1703  0.2299 -0.1726
  504MOL0     C67946  -0.784   9.003   6.982 -0.2053  0.5238  0.4169
  504MOL0     C67947  -0.910   8.960   6.915  0.2696  0.5164  0.6202
  504MOL0     C67948  -1.043   9.008   6.983  0.1313  0.6776 -0.1301
  504MOL0     C67949  -1.143   8.897   7.020  0.7835  0.0407  0.3670
  504MOL0    Cl67950  -1.294   8.962   7.073  0.4646 -0.2644 -0.3534
  504MOL0     C67951  -0.066   9.063   7.178  0.9208 -0.7630 -0.0036
  504MOL0     C67952   0.041   9.069   7.268 -0.3560  0.2522 -0.0511
  504MOL0     O67953   0.277   8.852   7.370  0.4151 -0.4174 -0.1675
  504MOL0     C67954   0.506   8.957   7.464 -0.4020  0.3020  0.2783
  504MOL0     C67955   0.631   9.002   7.505 -0.1719 -0.3644  0.4990
  504MOL0     N67956   1.337   8.948   7.809 -0.6291 -0.5024  0.7071
  504MOL0     N67957   1.433   8.906   7.893  0.6206 -0.7065  0.1740
  504MOL0     C67958   2.736   8.759   8.226  0.5091  0.7068  0.3498
  504MOL0     C67959   2.854   8.709   8.170  0.5055 -0.0867  0.1160
  504MOL0     C67960   3.159   8.496   7.950 -0.0662 -1.4654 -0.7333
  504MOL0     C67961   3.187   8.366   7.907 -1.1778  0.2396  0.4400
  504MOL0     C67962   3.318   8.340   7.877 -0.8435  0.2954  0.3274
  504MOL0     C67963   3.422   8.429   7.877  0.6322 -1.0458 -0.9517
  504MOL0     O67964   3.548   8.387   7.825  0.4143  0.3193 -0.2837
  504MOL0     C67965   3.647   8.484   7.825 -0.8597  0.2187  0.4987
  504MOL0     C67966   3.734   8.483   7.945 -0.5487  0.0422 -0.3700
  504MOL0     C67967   3.833   8.369   7.951  0.8485 -1.0109  0.0658
  504MOL0     C67968   3.934   8.357   7.833  0.2156  1.1074 -0.2334
  504MOL0     C67969   4.019   8.472   7.801 -0.9560  0.5326 -0.3394
  504MOL0     C67970   4.088   8.569   7.761  0.7158  0.9923 -0.1001
  504MOL0     C67971   3.390   8.564   7.925 -0.7366  0.5237 -0.2039
  504MOL0     C67972   3.257   8.595   7.959  0.1595  0.9766  0.4063
  504MOL0     H67973   2.820   8.807   7.857  1.7703 -2.4795  0.7492
  504MOL0     H67974   2.620   8.910   7.948  0.6542 -0.0262 -0.1324
  504MOL0     H67975   2.423   8.957   8.034  3.4749 -0.0527 -0.7823
  504MOL0     H67976   2.427   8.786   8.012  0.0352 -1.1358  0.5855
  504MOL0     H67977   2.276   8.736   8.172  3.1043 -0.1071 -2.0383
  504MOL0     H67978   2.280   8.878   8.267 -0.4984  1.1175 -0.4557
  504MOL0     H67979   2.197   8.998   8.045 -1.6744  0.6720 -1.4168
  504MOL0     H67980   2.155   8.839   7.997  2.6528 -0.5276 -1.0529
  504MOL0     H67981   2.005   8.830   8.210 -1.1700  1.0317  3.6354
  504MOL0     H67982   2.062   8.987   8.256  1.8964 -3.6324  2.0532
  504MOL0     H67983   1.961   9.074   8.030  2.2774 -1.9485 -0.1342
  504MOL0     H67984   1.915   8.912   7.992 -0.9226  1.4239 -0.9266
  504MOL0     H67985   1.788   8.941   8.231 -1.6513  0.2394  0.1744
  504MOL0     H67986   1.826   9.110   8.216  1.2413 -0.1538  0.4177
  504MOL0     H67987   1.674   9.168   8.072  0.5804  1.0906 -1.8808
  504MOL0     H67988   1.727   9.057   7.948  0.0639 -2.1792 -0.0432
  504MOL0     H67989   1.520   8.994   8.173  0.0346  1.9388  1.0223
  504MOL0     H67990   1.603   8.875   8.063  2.3737  1.6232 -2.5189
  504MOL0     H67991   1.412   9.222   7.971 -1.6968  1.2294  0.0721
  504MOL0     H67992   1.159   9.216   7.882 -0.9091 -0.2992 -0.2819
  504MOL0     H67993   1.243   9.268   7.737  0.6707  0.7754  1.6106
  504MOL0     H67994   1.080   9.006   7.731  1.5195 -0.1667  0.9471
  504MOL0     H67995   1.141   9.090   7.590 -3.1555  2.3045 -0.8873
  504MOL0     H67996   0.993   9.274   7.622  1.5936 -0.9158 -0.6830
  504MOL0     H67997   0.941   9.220   7.782 -0.7532  1.5111 -1.5839
  504MOL0     H67998   0.830   9.034   7.700  1.0632  0.5080 -0.1408
  504MOL0     H67999   0.895   9.044   7.537  3.1672  0.8501  0.0531
  504MOL0     H68000   0.535   9.281   7.652 -1.0164 -0.0124  1.3527
  504MOL0     H68001   0.332   9.285   7.697  0.5277 -0.1606  0.2525
  504MOL0     H68002   0.246   9.300   7.537 -1.6764  1.1476  0.5973
  504MOL0     H68003   0.199   9.181   7.653  0.3788  0.2511  0.2872
  504MOL0     H68004  -0.055   8.849   7.503 -3.5128  1.6310  2.2763
  504MOL0     H68005  -0.265   8.860   7.367 -0.5728  0.6535 -0.4347
  504MOL0     H68006  -0.240   9.019   6.955  2.3786  0.0384 -0.0232
  504MOL0     H68007  -0.198   8.849   6.983 -1.8222 -1.6973  2.2163
  504MOL0     H68008  -0.390   8.896   6.835  0.6563  2.7236  0.9656
  504MOL0     H68009  -0.416   8.770   6.961  0.3269 -0.0418 -0.2594
  504MOL0     H68010  -0.511   9.065   6.950 -2.5289  0.3951 -2.1754
  504MOL0     H68011  -0.530   8.958   7.088 -1.9173  0.7179 -0.1136
  504MOL0     H68012  -0.660   8.926   6.816  2.3947 -1.4755 -0.4132
  504MOL0     H68013  -0.680   8.805   6.944 -1.6788  0.4345  0.5547
  504MOL0     H68014  -0.767   9.110   6.965  1.9930  0.1104 -0.3369
  504MOL0     H68015  -0.804   8.991   7.088 -0.7905 -0.5511  0.1998
  504MOL0     H68016  -0.919   8.998   6.813 -0.0376  0.0121  0.4523
  504MOL0     H68017  -0.917   8.852   6.899  0.8360  0.7037 -1.0765
  504MOL0     H68018  -1.077   9.087   6.915  0.6786  0.7349 -0.3450
  504MOL0     H68019  -1.012   9.059   7.074  1.9627  2.9871 -1.9164
  504MOL0     H68020  -1.084   8.839   7.091  1.0699  0.8113  0.7809
  504MOL0     H68021  -1.166   8.820   6.945 -0.4674 -0.4750  1.2476
  504MOL0     H68022  -0.062   9.117   7.084  2.7130 -0.9566 -0.0708
  504MOL0     H68023   0.123   9.138   7.250 -0.3752 -0.0192 -1.2167
  504MOL0     H68024   0.495   8.860   7.416 -4.8053 -0.6277  2.6488
  504MOL0     H68025   0.721   8.953   7.470 -1.2743  0.0195 -3.2666
  504MOL0     H68026   2.703   8.739   8.327  1.3686  2.3096  0.9951
  504MOL0     H68027   2.920   8.653   8.236  1.9908  0.2430 -1.0436
  504MOL0     H68028   3.108   8.292   7.913  0.6601 -1.7964  0.4964
  504MOL0     H68029   3.347   8.243   7.840  0.1453  1.2161 -1.4523
  504MOL0     H68030   3.706   8.465   7.734  0.8146  1.3294  1.2962
  504MOL0     H68031   3.605   8.584   7.808  1.6383  1.3453  0.4644
  504MOL0     H68032   3.673   8.473   8.035  0.3381 -1.2987  0.0988
  504MOL0     H68033   3.773   8.585   7.939 -1.2213  0.2633 -1.1492
  504MOL0     H68034   3.785   8.270   7.950  1.4827 -1.3418 -1.9644
  504MOL0     H68035   3.897   8.392   8.037 -0.7818  1.9092  0.6244
  504MOL0     H68036   3.879   8.326   7.743 -0.7174  1.0431  0.3398
  504MOL0     H68037   4.008   8.280   7.856  0.6712  1.8328  0.8019
  504MOL0     H68038   4.146   8.648   7.716 -0.2992  2.1320  0.5461
  504MOL0     H68039   3.470   8.636   7.946  0.4595 -0.9236  0.3589
  504MOL0     H68040   3.236   8.693   8.001 -1.0792  0.1125  1.9595
  505MOL0     O68041   3.647   5.220   8.010 -0.0759  0.3006  0.0230
  505MOL0     C68042   3.662   5.105   7.972 -0.1410  0.0408  0.4235
  505MOL0     O68043   3.569   5.005   7.974 -0.8265  0.1471  0.4888
  505MOL0     C68044   3.438   5.026   8.018 -0.3493  0.9129 -0.0453
  505MOL0     C68045   3.373   4.912   8.058  0.2013  0.6934 -0.4285
  505MOL0     C68046   3.239   4.919   8.091 -0.6909  0.5829 -0.1088
  505MOL0     C68047   3.164   5.035   8.095  0.3363  0.4190 -0.3816
  505MOL0     O68048   3.039   5.027   8.159 -0.0437 -0.2968 -0.8161
  505MOL0     C68049   2.941   5.137   8.133  0.0684  0.2692  0.3897
  505MOL0     C68050   2.808   5.108   8.195 -0.0571 -0.5402 -0.7106
  505MOL0     C68051   2.724   5.243   8.189  0.4337  0.4705 -0.3611
  505MOL0     C68052   2.581   5.191   8.202 -0.2219  0.9006 -0.3239
  505MOL0     C68053   2.476   5.299   8.238 -0.8999  0.8644  0.9284
  505MOL0     C68054   2.336   5.245   8.268 -0.5185  0.2585 -0.2191
  505MOL0     C68055   2.329   5.174   8.406  0.9866 -0.1475  0.4562
  505MOL0     C68056   2.192   5.186   8.472  0.0758  0.7130 -0.1919
  505MOL0     N68057   2.097   5.094   8.405  0.0384 -0.7019  0.3688
  505MOL0     C68058   1.971   5.069   8.461 -0.2259 -0.0196  0.8559
  505MOL0     C68059   1.927   4.964   8.385  0.0908 -0.7201 -0.0533
  505MOL0     C68060   1.797   4.881   8.404 -1.7610 -0.5451 -0.3384
  505MOL0     C68061   1.674   4.961   8.350  0.6870  0.4265 -0.1151
  505MOL0     C68062   1.660   4.969   8.198  0.3413 -0.1642 -0.2849
  505MOL0     C68063   1.593   4.838   8.133 -0.3203  0.0561 -0.9021
  505MOL0     O68064   1.460   4.823   8.184 -0.6199  0.3250  0.2258
  505MOL0     C68065   1.369   4.900   8.124  0.4637 -0.2274  0.1269
  505MOL0     C68066   1.240   4.875   8.174  0.2610 -0.4390  0.1594
  505MOL0     C68067   1.130   4.950   8.128 -0.3434 -0.6126  0.5846
  505MOL0     C68068   0.986   4.918   8.172 -0.3325  0.8775  0.1000
  505MOL0     C68069   1.147   5.061   8.033  0.0689  0.1734 -0.2681
  505MOL0     C68070   1.038   5.157   8.001 -0.6544 -0.0339  0.3985
  505MOL0     O68071   1.030   5.192   7.863  0.6810 -1.2612  0.5536
  505MOL0     C68072   0.911   5.261   7.835 -0.3939 -0.5281  1.2012
  505MOL0     C68073   0.787   5.202   7.818  0.9875 -0.3644 -0.4856
  505MOL0     C68074   0.668   5.285   7.811 -0.0321 -0.7049  0.1053
  505MOL0     C68075   0.686   5.423   7.778  0.3288  0.1397 -0.3258
  505MOL0     O68076   0.567   5.484   7.759 -0.7445 -0.0285 -0.3415
  505MOL0     C68077   0.557   5.627   7.741 -0.3554 -0.3228 -0.5225
  505MOL0     C68078   0.527   5.678   7.886 -0.9839  0.3682  0.7977
  505MOL0     C68079   0.478   5.817   7.875  0.1427 -0.0112 -1.0421
  505MOL0     C68080   0.528   5.914   7.994  0.3117  0.2679  0.1972
  505MOL0     C68081   0.539   6.063   7.934  0.0400  0.4566 -0.0973
  505MOL0     C68082   0.423   6.150   7.971  0.3302  0.1807  0.2088
  505MOL0     C68083   0.300   6.144   7.887  0.3868 -0.1503  0.8196
  505MOL0     C68084   0.186   6.228   7.953 -0.3121 -0.4576 -0.7857
  505MOL0    Cl68085   0.023   6.173   7.869  0.3782 -0.0231 -0.0175
  505MOL0     C68086   0.811   5.486   7.790  0.5582  0.0041 -0.5081
  505MOL0     C68087   0.916   5.401   7.828  0.4592  0.0754 -0.5202
  505MOL0     O68088   0.958   5.181   8.093 -0.6422 -0.0932 -0.0738
  505MOL0     C68089   1.277   5.077   7.987  0.3049 -0.5076  0.1657
  505MOL0     C68090   1.389   5.001   8.030 -0.5226 -0.1081  0.1391
  505MOL0     N68091   2.029   4.933   8.299  0.1524  0.2205 -0.2671
  505MOL0     N68092   2.132   4.996   8.316 -0.7460  0.1262 -0.4571
  505MOL0     C68093   3.229   5.153   8.066 -0.8452  0.1496 -1.2737
  505MOL0     C68094   3.366   5.145   8.031  0.3071 -0.1306 -0.0725
  505MOL0     C68095   3.802   5.067   7.938  0.2412  0.3656  0.9669
  505MOL0     C68096   3.897   5.171   7.898  0.9297 -0.1063 -0.0456
  505MOL0     C68097   4.028   5.142   7.870  0.0833  0.1480  0.6212
  505MOL0     C68098   4.072   5.012   7.865  0.8758 -0.4499  0.1344
  505MOL0     O68099   4.205   4.997   7.848  0.5541 -0.1982 -0.4163
  505MOL0     C68100   4.256   4.866   7.813  0.3699  0.4419 -0.1281
  505MOL0     C68101   4.396   4.874   7.765  0.7129  0.6533 -0.5844
  505MOL0     C68102   4.493   4.871   7.885  0.0096  0.0252 -0.3388
  505MOL0     C68103   4.519   5.007   7.948  0.4013  0.7796 -0.1684
  505MOL0     C68104   4.615   4.997   8.055 -0.5189 -0.0053 -0.3713
  505MOL0     C68105   4.701   4.976   8.141  0.2588 -0.4214  1.5522
  505MOL0     C68106   3.974   4.910   7.876 -0.1514 -0.1854 -0.3279
  505MOL0     C68107   3.844   4.939   7.918  0.0208 -0.2611  1.0624
  505MOL0     H68108   3.431   4.820   8.056 -0.0938  0.3112  2.6846
  505MOL0     H68109   3.206   4.825   8.134 -0.1847  1.3302  2.0395
  505MOL0     H68110   2.992   5.230   8.159  2.6354 -0.8046 -0.4169
  505MOL0     H68111   2.920   5.130   8.026 -1.8205  1.9454  0.6035
  505MOL0     H68112   2.755   5.029   8.142 -3.0366 -1.6971  3.3869
  505MOL0     H68113   2.825   5.080   8.300 -0.5884  1.3344 -0.0709
  505MOL0     H68114   2.756   5.309   8.270 -0.1081  0.3915 -0.0830
  505MOL0     H68115   2.742   5.298   8.096 -0.9131 -0.0756 -0.9668
  505MOL0     H68116   2.544   5.142   8.111  0.6301 -0.8763  0.2533
  505MOL0     H68117   2.578   5.114   8.280 -1.3023 -0.6684 -1.8207
  505MOL0     H68118   2.517   5.362   8.318  3.0299  1.9042 -1.5917
  505MOL0     H68119   2.469   5.366   8.151  0.6700  0.1956  0.2464
  505MOL0     H68120   2.270   5.332   8.281 -2.0739 -0.9854  0.6605
  505MOL0     H68121   2.289   5.194   8.184 -0.2465  0.9966 -0.8292
  505MOL0     H68122   2.365   5.073   8.385  2.0623  0.1096  0.9455
  505MOL0     H68123   2.398   5.219   8.479  3.1967 -2.6638  0.0757
  505MOL0     H68124   2.157   5.289   8.479 -0.0965  0.5886  0.9976
  505MOL0     H68125   2.189   5.142   8.572 -1.9022  0.2983 -0.3998
  505MOL0     H68126   1.928   5.107   8.553 -0.8924  0.9851  0.1533
  505MOL0     H68127   1.796   4.790   8.343  2.2352 -1.2256  0.3015
  505MOL0     H68128   1.786   4.856   8.510 -0.1073 -2.6873 -0.5946
  505MOL0     H68129   1.685   5.064   8.384  1.7112  0.4351 -0.4057
  505MOL0     H68130   1.581   4.925   8.394 -0.7975  1.8595 -1.9277
  505MOL0     H68131   1.762   4.971   8.160  1.7644  0.0919  3.1510
  505MOL0     H68132   1.605   5.060   8.172  0.5317  0.2022  0.5467
  505MOL0     H68133   1.660   4.759   8.170  0.3994  0.8455 -0.4870
  505MOL0     H68134   1.589   4.833   8.024 -1.8605  0.9204 -0.9083
  505MOL0     H68135   1.215   4.793   8.241 -1.1967  0.1533  0.3652
  505MOL0     H68136   0.925   4.887   8.086 -2.1194  1.0795  1.2401
  505MOL0     H68137   0.986   4.829   8.234 -0.0711  1.0000  0.2743
  505MOL0     H68138   0.936   4.997   8.229 -1.3099  1.3554 -1.3314
  505MOL0     H68139   0.770   5.095   7.826  0.2559 -0.4286 -2.2968
  505MOL0     H68140   0.570   5.239   7.809 -0.2656 -0.2287 -2.1754
  505MOL0     H68141   0.648   5.665   7.692 -0.2454 -2.5704 -2.2040
  505MOL0     H68142   0.465   5.650   7.686 -1.5376  0.8565  1.8247
  505MOL0     H68143   0.454   5.610   7.931 -3.1498  2.9355  1.4080
  505MOL0     H68144   0.612   5.676   7.955  0.4102  0.2645 -0.8612
  505MOL0     H68145   0.372   5.795   7.893  0.3568 -4.2891 -3.6154
  505MOL0     H68146   0.486   5.855   7.772 -0.8748 -0.4396 -1.2976
  505MOL0     H68147   0.458   5.899   8.077  0.3933  0.0256  0.2224
  505MOL0     H68148   0.624   5.878   8.031 -0.3295  1.7995  3.8354
  505MOL0     H68149   0.540   6.062   7.825  2.5506 -1.3808 -0.1438
  505MOL0     H68150   0.628   6.109   7.978  1.0669 -0.3486 -1.2780
  505MOL0     H68151   0.398   6.127   8.075 -0.2745 -0.3348 -0.0435
  505MOL0     H68152   0.444   6.257   7.969 -1.3470  0.5523 -2.6321
  505MOL0     H68153   0.262   6.042   7.882 -0.6715  0.2020  1.2977
  505MOL0     H68154   0.321   6.176   7.784 -0.5259  1.5102  1.1083
  505MOL0     H68155   0.217   6.331   7.935 -0.7109 -0.5448 -2.0599
  505MOL0     H68156   0.172   6.217   8.061  1.6762 -2.8794 -0.6786
  505MOL0     H68157   0.822   5.593   7.777  0.7396  0.5441  2.9209
  505MOL0     H68158   1.014   5.446   7.839 -0.6006  2.6352 -0.7837
  505MOL0     H68159   1.279   5.164   7.923 -1.3026 -2.0408 -2.1682
  505MOL0     H68160   1.490   5.019   7.994 -0.9986  1.3767 -0.5818
  505MOL0     H68161   3.177   5.248   8.073 -2.5889 -0.7796 -0.8998
  505MOL0     H68162   3.417   5.239   8.013 -0.5572  0.4207  0.3231
  505MOL0     H68163   3.869   5.275   7.910  0.0471 -0.2636 -0.6391
  505MOL0     H68164   4.099   5.223   7.859 -0.8801  1.3269  2.6288
  505MOL0     H68165   4.239   4.792   7.892  0.1782  1.0126  0.3816
  505MOL0     H68166   4.207   4.832   7.721  2.4714 -0.8964 -0.8115
  505MOL0     H68167   4.404   4.971   7.714  1.0224  0.6563 -0.5340
  505MOL0     H68168   4.428   4.789   7.704 -0.4560  2.0381 -3.2942
  505MOL0     H68169   4.579   4.818   7.845 -0.9991 -0.2983 -2.1984
  505MOL0     H68170   4.454   4.804   7.963 -0.5400  0.3132 -0.3633
  505MOL0     H68171   4.427   5.050   7.988 -0.8469 -1.7173 -0.1700
  505MOL0     H68172   4.562   5.064   7.865  1.7370 -0.0124 -0.0539
  505MOL0     H68173   4.775   4.958   8.217 -0.5181 -2.3765  1.8967
  505MOL0     H68174   4.001   4.805   7.876 -4.2800 -1.4381 -1.4306
  505MOL0     H68175   3.774   4.857   7.933 -1.5999  0.5067 -1.5953
  506MOL0     O68176   0.403   8.001   5.927 -0.3111 -0.0241  0.4734
  506MOL0     C68177   0.433   8.119   5.934 -0.3181 -0.0944 -0.5410
  506MOL0     O68178   0.405   8.205   6.041  0.4575  0.2944  0.0620
  506MOL0     C68179   0.347   8.145   6.149 -0.7550 -0.8317 -0.4235
  506MOL0     C68180   0.419   8.144   6.272  0.0169  0.6852 -0.2127
  506MOL0     C68181   0.365   8.085   6.384  0.5619  0.4417 -0.2767
  506MOL0     C68182   0.232   8.041   6.381 -0.3141 -0.2253  0.3188
  506MOL0     O68183   0.169   8.007   6.497 -0.1175 -0.5336  0.5126
  506MOL0     C68184   0.231   8.029   6.620 -0.7626  0.7901 -0.7275
  506MOL0     C68185   0.122   8.007   6.727 -0.1305  0.5674 -0.0559
  506MOL0     C68186   0.090   7.858   6.734 -0.6599  0.3521 -0.1193
  506MOL0     C68187   0.008   7.830   6.860  0.8416  0.4978 -0.2208
  506MOL0     C68188   0.000   7.678   6.875 -0.7192 -0.6486  0.8109
  506MOL0     C68189  -0.075   7.648   7.007 -0.2136  0.2801 -0.8140
  506MOL0     C68190  -0.076   7.496   7.025 -0.9507  0.0375 -0.6325
  506MOL0     C68191  -0.158   7.457   7.148 -0.0839  0.4302  0.0582
  506MOL0     N68192  -0.305   7.475   7.126 -0.4188 -0.4176  0.3619
  506MOL0     C68193  -0.376   7.416   7.022 -0.1751  0.0493  0.0498
  506MOL0     C68194  -0.501   7.462   7.036 -0.1156 -0.2977  0.1630
  506MOL0     C68195  -0.617   7.414   6.962  0.2591  0.0640 -0.0817
  506MOL0     C68196  -0.724   7.339   7.043 -0.0013 -0.0374  0.5126
  506MOL0     C68197  -0.836   7.288   6.956 -0.2871  0.3921  0.6894
  506MOL0     C68198  -0.944   7.201   7.031 -0.0763 -0.3668 -0.1491
  506MOL0     O68199  -1.053   7.287   7.061  0.0035 -0.2820 -0.2597
  506MOL0     C68200  -1.174   7.234   7.102 -0.8987  0.3139  0.3588
  506MOL0     C68201  -1.180   7.102   7.154 -0.1893  0.3567 -0.6040
  506MOL0     C68202  -1.300   7.055   7.201  0.1407 -0.0424  0.1968
  506MOL0     C68203  -1.307   6.912   7.263 -0.3812 -0.0121 -0.3027
  506MOL0     C68204  -1.415   7.131   7.194  0.6316  0.1260  0.2418
  506MOL0     C68205  -1.552   7.101   7.240 -0.5726 -0.1977 -0.1597
  506MOL0     O68206  -1.639   7.204   7.231 -0.3908 -0.2337 -0.1304
  506MOL0     C68207  -1.771   7.192   7.259 -0.2670  1.0141  0.4688
  506MOL0     C68208  -1.850   7.093   7.205 -0.2147  0.1934 -0.5131
  506MOL0     C68209  -1.989   7.073   7.239 -0.0054 -0.3154 -0.3516
  506MOL0     C68210  -2.047   7.160   7.331 -0.1712  0.4268  0.5922
  506MOL0     O68211  -2.177   7.121   7.372 -0.2160 -0.9692 -0.4609
  506MOL0     C68212  -2.242   7.210   7.465 -0.5532  0.3699  0.4334
  506MOL0     C68213  -2.391   7.214   7.428  0.3417 -0.5683  1.0310
  506MOL0     C68214  -2.457   7.077   7.434  0.3518  0.2756  0.4415
  506MOL0     C68215  -2.604   7.098   7.413  0.3121  0.2390  0.7624
  506MOL0     C68216  -2.676   6.966   7.386  0.8582  0.0899 -0.2975
  506MOL0     C68217  -2.824   6.975   7.421 -0.1684  0.7616  0.8452
  506MOL0     C68218  -2.881   6.838   7.374  0.3212 -0.4339 -0.0449
  506MOL0     C68219  -3.029   6.838   7.393  1.3998 -0.5145 -0.0961
  506MOL0    Cl68220  -3.097   6.685   7.342  0.5788  0.4379  0.2804
  506MOL0     C68221  -1.974   7.265   7.388  0.0594  0.0156  0.8504
  506MOL0     C68222  -1.841   7.275   7.348 -0.6842 -0.2590 -0.1647
  506MOL0     O68223  -1.569   6.998   7.307 -0.2433 -0.7714  0.0565
  506MOL0     C68224  -1.402   7.259   7.133  0.5032 -0.2224  0.5835
  506MOL0     C68225  -1.286   7.309   7.088 -0.2539  0.3835 -0.1875
  506MOL0     N68226  -0.499   7.549   7.147 -0.1250  0.6044  0.2752
  506MOL0     N68227  -0.383   7.549   7.206  0.6744 -0.1627  0.8850
  506MOL0     C68228   0.159   8.045   6.265 -0.0548 -0.4696  1.3621
  506MOL0     C68229   0.217   8.091   6.146 -0.5069 -0.8155 -0.0563
  506MOL0     C68230   0.478   8.193   5.813  1.3155  0.3567  0.5848
  506MOL0     C68231   0.541   8.121   5.720 -0.4165 -0.4817  1.0439
  506MOL0     C68232   0.595   8.185   5.603 -0.1077 -0.0253 -0.0137
  506MOL0     C68233   0.545   8.315   5.571 -0.8602  0.4430  0.6560
  506MOL0     O68234   0.582   8.377   5.450  0.2617  0.3836  0.3364
  506MOL0     C68235   0.591   8.300   5.323  0.3197  0.4128  0.0680
  506MOL0     C68236   0.468   8.218   5.283 -1.1090  0.5627  0.2612
  506MOL0     C68237   0.344   8.298   5.285 -0.1505  0.5361 -0.6286
  506MOL0     C68238   0.240   8.254   5.181 -0.3195 -0.0774  0.1915
  506MOL0     C68239   0.219   8.109   5.184 -0.1307  0.3046  0.1650
  506MOL0     C68240   0.199   7.988   5.164 -0.2840  0.3587  0.1678
  506MOL0     C68241   0.480   8.381   5.667  0.1724  0.5518 -0.0456
  506MOL0     C68242   0.447   8.328   5.790 -0.3752 -0.2266 -0.3138
  506MOL0     H68243   0.513   8.198   6.275 -0.2817  1.2219  2.5216
  506MOL0     H68244   0.430   8.091   6.470  0.0894  1.0257  0.0435
  506MOL0     H68245   0.312   7.958   6.636 -2.2059 -1.4966 -2.9027
  506MOL0     H68246   0.268   8.132   6.630 -5.0751  2.5964 -0.9613
  506MOL0     H68247   0.167   8.029   6.824  0.3383 -0.4162 -0.0328
  506MOL0     H68248   0.033   8.070   6.720 -0.9573 -0.5846 -0.3926
  506MOL0     H68249   0.033   7.826   6.646 -2.4789  0.5036  0.9585
  506MOL0     H68250   0.176   7.792   6.746 -1.2031 -0.6146 -1.3432
  506MOL0     H68251   0.071   7.860   6.944 -1.3666  0.3005  1.6161
  506MOL0     H68252  -0.089   7.880   6.867 -0.8578 -2.1199 -2.7303
  506MOL0     H68253  -0.042   7.638   6.783  0.8081 -0.0375 -0.1955
  506MOL0     H68254   0.099   7.632   6.883  1.1552  3.0112  1.1061
  506MOL0     H68255  -0.029   7.697   7.093 -2.2728 -1.5706  1.4863
  506MOL0     H68256  -0.179   7.680   7.002  0.0730  1.4434  0.1902
  506MOL0     H68257  -0.117   7.445   6.937 -4.1829  2.4054 -0.7097
  506MOL0     H68258   0.028   7.471   7.049 -1.6900  0.4776  3.8093
  506MOL0     H68259  -0.129   7.515   7.236  3.1605 -2.1558  0.9081
  506MOL0     H68260  -0.146   7.349   7.163 -3.4685 -0.2914 -1.3916
  506MOL0     H68261  -0.342   7.335   6.958  0.3555  0.6317 -0.4095
  506MOL0     H68262  -0.655   7.506   6.915  0.7984  1.0183  1.2904
  506MOL0     H68263  -0.582   7.360   6.873  0.0953  0.0962 -0.1676
  506MOL0     H68264  -0.772   7.402   7.117  0.6137 -1.7921  2.4947
  506MOL0     H68265  -0.678   7.257   7.100  0.1145 -1.9602 -2.0960
  506MOL0     H68266  -0.791   7.226   6.878  0.5287  1.6648  0.1138
  506MOL0     H68267  -0.888   7.374   6.912  1.2234  0.6951 -0.6045
  506MOL0     H68268  -0.910   7.171   7.131 -1.1247  2.7914  1.2986
  506MOL0     H68269  -0.971   7.113   6.972 -1.1947 -1.0571  1.3395
  506MOL0     H68270  -1.085   7.051   7.165 -0.3031  0.3683  0.4567
  506MOL0     H68271  -1.209   6.863   7.263 -0.7984 -0.8965  0.5777
  506MOL0     H68272  -1.329   6.925   7.370 -2.0495 -2.2009 -0.3016
  506MOL0     H68273  -1.387   6.852   7.217  0.3453  1.0615 -3.1687
  506MOL0     H68274  -1.793   7.022   7.146  2.0398  2.1872 -0.8645
  506MOL0     H68275  -2.047   6.990   7.201  0.7152 -1.8912  1.7771
  506MOL0     H68276  -2.240   7.168   7.566 -1.3637 -0.8264 -0.0289
  506MOL0     H68277  -2.211   7.315   7.462  1.0041 -0.0644  0.1481
  506MOL0     H68278  -2.447   7.286   7.488 -1.7996  1.2194 -2.7845
  506MOL0     H68279  -2.405   7.246   7.324 -1.7477  1.0345  1.7403
  506MOL0     H68280  -2.444   7.041   7.536 -0.2464 -1.3384 -0.0171
  506MOL0     H68281  -2.417   7.009   7.358 -0.0399 -0.9647  1.3279
  506MOL0     H68282  -2.640   7.126   7.512 -2.3860 -1.8204  0.4829
  506MOL0     H68283  -2.611   7.178   7.339  2.7147 -0.1033  0.0823
  506MOL0     H68284  -2.636   6.891   7.454  0.6263  0.8867  0.7456
  506MOL0     H68285  -2.659   6.930   7.284 -3.8439  0.7477 -1.5407
  506MOL0     H68286  -2.833   6.989   7.529  2.0067 -0.6646  1.2688
  506MOL0     H68287  -2.874   7.048   7.356  0.1282 -0.5744 -0.9764
  506MOL0     H68288  -2.831   6.769   7.442 -4.0137 -0.6801  3.3738
  506MOL0     H68289  -2.859   6.811   7.270  0.9706  0.2466 -0.0893
  506MOL0     H68290  -3.081   6.923   7.348 -0.8895 -0.6909  1.9843
  506MOL0     H68291  -3.054   6.853   7.498 -0.2822  2.1198 -0.7788
  506MOL0     H68292  -2.016   7.327   7.465 -0.9593 -1.5674  1.6279
  506MOL0     H68293  -1.792   7.355   7.403 -0.4704 -1.5911  1.6486
  506MOL0     H68294  -1.489   7.321   7.113  1.7959  1.9230  1.2970
  506MOL0     H68295  -1.279   7.411   7.051  1.3306  0.3920  0.0622
  506MOL0     H68296   0.060   8.003   6.264 -0.5257  0.5984  0.6079
  506MOL0     H68297   0.157   8.085   6.055 -0.0166 -2.7829 -0.3066
  506MOL0     H68298   0.561   8.016   5.740 -0.4293 -1.5952 -3.7380
  506MOL0     H68299   0.654   8.124   5.536 -0.5035 -0.6554  0.1994
  506MOL0     H68300   0.604   8.369   5.239 -0.4302 -0.0823 -0.4661
  506MOL0     H68301   0.681   8.238   5.327  0.2187  0.0562 -1.9189
  506MOL0     H68302   0.453   8.143   5.361 -3.4432  1.4164  0.7404
  506MOL0     H68303   0.478   8.162   5.190  1.0759 -2.0892  1.9253
  506MOL0     H68304   0.365   8.405   5.281 -0.5709  0.7656  1.7798
  506MOL0     H68305   0.307   8.287   5.387  2.8918 -0.0692  0.5125
  506MOL0     H68306   0.285   8.284   5.086 -2.6790  1.6482 -0.4632
  506MOL0     H68307   0.149   8.313   5.185  0.2360  0.7810  0.3334
  506MOL0     H68308   0.197   7.883   5.145  4.0317  0.1693 -0.1679
  506MOL0     H68309   0.463   8.486   5.646  1.5224  0.8118  0.0506
  506MOL0     H68310   0.405   8.387   5.870  2.5217 -0.7786  1.7624
  507MOL0     O68311   1.849  11.140   5.457  1.0214  0.3701 -0.8425
  507MOL0     C68312   1.780  11.125   5.562  0.3269 -0.0561  0.7110
  507MOL0     O68313   1.795  11.189   5.685 -0.2615  0.1749  0.0823
  507MOL0     C68314   1.891  11.290   5.699  0.8449  0.1463 -0.3133
  507MOL0     C68315   1.921  11.322   5.844 -0.4750 -0.4354  0.4345
  507MOL0     C68316   1.998  11.427   5.885 -0.4443  0.7400  0.2066
  507MOL0     C68317   2.052  11.515   5.787  0.4521 -0.5746 -0.2430
  507MOL0     O68318   2.129  11.620   5.840  0.6692 -0.0233 -0.4204
  507MOL0     C68319   2.103  11.755   5.788 -0.4200 -0.6458  0.4775
  507MOL0     C68320   1.983  11.832   5.850  0.2674 -0.2436 -0.8743
  507MOL0     C68321   1.977  11.969   5.789  0.5050  0.2107  0.9989
  507MOL0     C68322   1.855  12.048   5.835 -0.6050  0.2897 -0.2402
  507MOL0     C68323   1.809  12.147   5.728  0.3888  1.6103  1.2399
  507MOL0     C68324   1.692  12.241   5.762 -0.1278 -0.4882  0.5388
  507MOL0     C68325   1.720  12.318   5.883 -0.3938  0.5882 -0.4193
  507MOL0     C68326   1.609  12.419   5.914 -0.0852  0.7052 -0.0975
  507MOL0     N68327   1.522  12.357   6.008 -0.4456 -1.0262 -0.0832
  507MOL0     C68328   1.411  12.277   5.986  0.1075  0.1544 -0.3475
  507MOL0     C68329   1.355  12.248   6.103 -0.4943  0.1115 -0.0383
  507MOL0     C68330   1.228  12.173   6.128 -0.4805 -1.3585 -0.2005
  507MOL0     C68331   1.144  12.219   6.245 -0.3613  0.1923  0.4595
  507MOL0     C68332   1.083  12.358   6.223  0.1404 -0.4187 -0.2315
  507MOL0     C68333   0.992  12.407   6.344 -1.2796  0.3184  0.1500
  507MOL0     O68334   0.884  12.314   6.372 -0.1782 -0.6596 -0.4095
  507MOL0     C68335   0.798  12.353   6.472 -0.8496  0.0339 -0.1586
  507MOL0     C68336   0.800  12.470   6.555 -0.3457  0.2056  1.0999
  507MOL0     C68337   0.709  12.495   6.659 -0.4540  0.5999 -1.1283
  507MOL0     C68338   0.719  12.621   6.732 -0.0409  0.0358  0.1552
  507MOL0     C68339   0.604  12.401   6.680 -0.1278 -0.2133 -0.6498
  507MOL0     C68340   0.484  12.420   6.767 -0.1158 -0.1318  0.6234
  507MOL0     O68341   0.398  12.324   6.769  0.5048  0.5474  0.7203
  507MOL0     C68342   0.305  12.320   6.874  1.2317  0.1292  1.1169
  507MOL0     C68343   0.345  12.290   7.002  0.3568 -0.4900  0.3848
  507MOL0     C68344   0.253  12.288   7.110 -0.3243  0.6685  0.1091
  507MOL0     C68345   0.120  12.331   7.093 -0.0121 -0.7589  0.1765
  507MOL0     O68346   0.034  12.339   7.201  0.0642  0.1358  0.2097
  507MOL0     C68347  -0.063  12.445   7.209 -0.2513 -0.4133  1.0166
  507MOL0     C68348  -0.191  12.375   7.183  0.1008  0.5048 -0.4429
  507MOL0     C68349  -0.311  12.470   7.196  0.0504  0.3935 -0.7338
  507MOL0     C68350  -0.439  12.395   7.153 -0.2803  0.0979  0.1082
  507MOL0     C68351  -0.570  12.458   7.200  0.1647  0.2999  0.3735
  507MOL0     C68352  -0.691  12.368   7.166  0.2529  0.6715 -0.6428
  507MOL0     C68353  -0.833  12.404   7.235 -0.0849  0.3856  0.4146
  507MOL0     C68354  -0.867  12.550   7.212 -0.2611  0.4608 -0.4151
  507MOL0    Cl68355  -1.030  12.540   7.254 -0.1807 -0.1122  0.0504
  507MOL0     C68356   0.084  12.368   6.960 -0.2502  0.5197  0.4241
  507MOL0     C68357   0.169  12.355   6.850 -0.2442  0.0745  0.0972
  507MOL0     O68358   0.485  12.508   6.842 -0.4134 -0.4601  0.5259
  507MOL0     C68359   0.604  12.281   6.605 -0.4691  0.1598  0.2187
  507MOL0     C68360   0.698  12.257   6.500  0.7574 -0.4879 -0.0590
  507MOL0     N68361   1.425  12.305   6.200  0.5273 -0.6426 -0.2525
  507MOL0     N68362   1.522  12.370   6.140 -0.3533 -0.0576 -0.9723
  507MOL0     C68363   2.035  11.490   5.654 -0.0896  0.4027  0.3178
  507MOL0     C68364   1.949  11.382   5.605 -0.0977  0.0152  0.3722
  507MOL0     C68365   1.659  11.040   5.545  0.0389 -0.3542  0.3021
  507MOL0     C68366   1.635  10.983   5.424  0.6432 -0.5201 -0.0511
  507MOL0     C68367   1.529  10.888   5.399 -0.0450  1.2993  0.3302
  507MOL0     C68368   1.451  10.845   5.511 -0.2452 -0.1204 -0.0568
  507MOL0     O68369   1.351  10.754   5.509  0.0585  0.4263  0.7661
  507MOL0     C68370   1.343  10.671   5.397  1.3073 -0.1773 -0.4241
  507MOL0     C68371   1.219  10.587   5.395  0.8690  0.0573 -0.5486
  507MOL0     C68372   1.096  10.679   5.364 -0.0033  1.2637  0.3500
  507MOL0     C68373   0.967  10.599   5.393 -0.2367  0.7853 -0.6123
  507MOL0     C68374   0.851  10.674   5.352  0.9087  0.0824 -0.4555
  507MOL0     C68375   0.762  10.747   5.316 -0.0342 -0.8965  0.0178
  507MOL0     C68376   1.479  10.907   5.636  0.0902 -0.2582 -0.3554
  507MOL0     C68377   1.571  11.003   5.655 -0.6094  0.3258 -0.4637
  507MOL0     H68378   1.883  11.260   5.925  0.2448 -0.6674  0.6028
  507MOL0     H68379   2.016  11.455   5.988  1.6765 -2.2557  0.7825
  507MOL0     H68380   2.194  11.816   5.794 -1.0003  0.6189 -2.2281
  507MOL0     H68381   2.075  11.750   5.682 -0.9959  1.8426  0.4374
  507MOL0     H68382   1.888  11.786   5.819 -2.2301  4.4033 -1.0885
  507MOL0     H68383   1.984  11.835   5.960 -1.7094 -0.8128 -0.7901
  507MOL0     H68384   2.053  12.042   5.819 -2.0542  2.3118  2.8213
  507MOL0     H68385   1.968  11.959   5.680  5.1962  0.2032  0.4010
  507MOL0     H68386   1.767  11.985   5.849 -1.0233  0.4239 -2.0105
  507MOL0     H68387   1.877  12.110   5.923  0.4644  1.3440 -1.2172
  507MOL0     H68388   1.902  12.203   5.712  4.6354 -5.0141 -1.4722
  507MOL0     H68389   1.773  12.101   5.635 -0.5388  3.3604  0.6878
  507MOL0     H68390   1.690  12.312   5.678  4.1089  1.4674  1.8353
  507MOL0     H68391   1.599  12.184   5.766  0.1894 -0.9517  1.7174
  507MOL0     H68392   1.726  12.247   5.965 -1.0172  0.3102 -0.6124
  507MOL0     H68393   1.817  12.369   5.883 -0.8711  1.8674  3.8405
  507MOL0     H68394   1.561  12.445   5.819  0.1627  1.0822 -0.1236
  507MOL0     H68395   1.648  12.516   5.947  1.3535  0.0248  0.2223
  507MOL0     H68396   1.369  12.249   5.890  0.3327  1.8337 -0.9675
  507MOL0     H68397   1.165  12.180   6.038 -3.0358  2.3583  1.5986
  507MOL0     H68398   1.259  12.069   6.137  1.4052 -1.1660 -3.2189
  507MOL0     H68399   1.206  12.225   6.335  1.8253  0.0447 -0.9806
  507MOL0     H68400   1.068  12.142   6.264  1.0441 -0.8464  2.1785
  507MOL0     H68401   1.021  12.348   6.133 -2.5234 -1.9545  1.6355
  507MOL0     H68402   1.163  12.429   6.202 -0.3742  0.4086  0.5191
  507MOL0     H68403   0.950  12.502   6.310  0.9304  2.7396  3.5017
  507MOL0     H68404   1.062  12.426   6.426  0.1304  1.2509 -1.1954
  507MOL0     H68405   0.862  12.551   6.518 -1.7011  1.6008  1.7714
  507MOL0     H68406   0.749  12.605   6.836  2.4939  3.4059  0.1154
  507MOL0     H68407   0.790  12.692   6.688  0.2159 -0.0931  0.3614
  507MOL0     H68408   0.621  12.671   6.733 -1.1154 -1.7433 -3.2124
  507MOL0     H68409   0.447  12.271   7.033 -0.5959 -3.0615  2.2733
  507MOL0     H68410   0.285  12.256   7.208  0.0606  1.2312  0.1777
  507MOL0     H68411  -0.053  12.480   7.312 -1.6247 -1.6751  1.6149
  507MOL0     H68412  -0.046  12.526   7.137 -0.0301 -0.6249  0.8305
  507MOL0     H68413  -0.201  12.342   7.079  0.8215 -0.2425 -0.2789
  507MOL0     H68414  -0.199  12.283   7.242 -2.2551 -1.9905 -4.2209
  507MOL0     H68415  -0.307  12.548   7.119  2.2050 -0.8082 -1.9421
  507MOL0     H68416  -0.322  12.520   7.292 -1.2395  1.6696 -1.5057
  507MOL0     H68417  -0.451  12.382   7.045 -1.4940  1.4333  0.0532
  507MOL0     H68418  -0.433  12.294   7.193 -0.5244  0.1161  0.1927
  507MOL0     H68419  -0.575  12.555   7.151  2.0585 -0.1452 -0.8476
  507MOL0     H68420  -0.564  12.479   7.307  0.2087 -0.9553  0.6406
  507MOL0     H68421  -0.698  12.361   7.057  1.0487 -0.2117 -0.6536
  507MOL0     H68422  -0.649  12.270   7.192  2.6160  1.5155 -1.0058
  507MOL0     H68423  -0.836  12.383   7.342 -1.8109  0.0704  0.3445
  507MOL0     H68424  -0.906  12.344   7.179 -0.6681  1.1963  0.2917
  507MOL0     H68425  -0.853  12.577   7.107 -0.8875 -1.2517 -0.9681
  507MOL0     H68426  -0.807  12.619   7.272 -0.9065  0.5136  0.1866
  507MOL0     H68427  -0.013  12.412   6.937  0.6415  1.7835 -1.1818
  507MOL0     H68428   0.142  12.365   6.746 -0.9929  1.7761  0.4227
  507MOL0     H68429   0.530  12.204   6.623  1.3028 -1.1005  2.5757
  507MOL0     H68430   0.669  12.169   6.444 -2.1356 -0.2075  0.8274
  507MOL0     H68431   2.088  11.545   5.577  0.3211  1.4507  1.3334
  507MOL0     H68432   1.948  11.350   5.501  3.2858 -0.9967  0.5392
  507MOL0     H68433   1.689  11.005   5.332 -1.1614  1.1124 -0.7910
  507MOL0     H68434   1.500  10.850   5.302 -1.1777 -1.1778  1.5450
  507MOL0     H68435   1.336  10.731   5.306 -1.8160 -0.4631 -0.5026
  507MOL0     H68436   1.431  10.608   5.388  0.1757 -1.5295 -3.1722
  507MOL0     H68437   1.202  10.537   5.490 -0.3668  0.8646 -0.3165
  507MOL0     H68438   1.240  10.503   5.327  2.3804  0.7447 -0.9615
  507MOL0     H68439   1.088  10.719   5.263  0.2858 -0.1214 -0.2527
  507MOL0     H68440   1.106  10.768   5.426 -0.4851  0.8122  1.0977
  507MOL0     H68441   0.985  10.574   5.498  2.0185 -1.2648 -1.3822
  507MOL0     H68442   0.970  10.505   5.337 -0.1417 -0.4647  1.3921
  507MOL0     H68443   0.683  10.812   5.284  2.1105  1.8336 -0.1475
  507MOL0     H68444   1.415  10.877   5.718 -2.9043 -4.1628 -3.7114
  507MOL0     H68445   1.577  11.042   5.756  2.2757 -3.5027  1.1101
  508MOL0     O68446   8.888   0.518   5.516 -0.1863 -1.1574 -0.4037
  508MOL0     C68447   8.924   0.631   5.568  0.2305  0.2929  0.0758
  508MOL0     O68448   9.039   0.643   5.639  0.1906 -1.1432 -0.7754
  508MOL0     C68449   9.147   0.556   5.641 -0.1220 -0.0020  0.3172
  508MOL0     C68450   9.171   0.455   5.547 -0.1550  0.0130 -0.2814
  508MOL0     C68451   9.279   0.369   5.555 -0.6461 -0.7976  0.6524
  508MOL0     C68452   9.388   0.404   5.640 -0.8290  0.1317  0.8129
  508MOL0     O68453   9.495   0.329   5.627 -0.7526 -0.5993 -0.4611
  508MOL0     C68454   9.619   0.390   5.606 -0.2757 -0.7252  0.5052
  508MOL0     C68455   9.729   0.285   5.614 -0.1161  1.3180 -0.4633
  508MOL0     C68456   9.875   0.343   5.607  0.1139 -0.1245 -0.4435
  508MOL0     C68457   9.892   0.385   5.459 -0.0865 -0.4296  0.0708
  508MOL0     C68458  10.045   0.402   5.421 -0.5954  0.3756 -1.2453
  508MOL0     C68459  10.063   0.428   5.276  0.7422  1.2218  0.1101
  508MOL0     C68460  10.210   0.421   5.253 -0.4463 -0.1692  0.0754
  508MOL0     C68461  10.248   0.470   5.115 -0.0265  0.4646  0.0957
  508MOL0     N68462  10.266   0.615   5.117  0.5763 -0.4178 -0.0253
  508MOL0     C68463  10.171   0.710   5.098 -0.4370  0.2779 -0.6101
  508MOL0     C68464  10.227   0.829   5.127 -0.6032  1.5068  0.2221
  508MOL0     C68465  10.168   0.964   5.118  0.1862 -0.1181  0.1253
  508MOL0     C68466  10.052   1.013   5.208 -0.4249  0.1165 -0.9381
  508MOL0     C68467  10.083   0.995   5.354  0.6487 -0.3241 -0.3626
  508MOL0     C68468   9.963   1.033   5.453 -0.4657 -0.0361 -0.6102
  508MOL0     O68469   9.857   0.944   5.436  0.4836 -0.0276 -0.1304
  508MOL0     C68470   9.729   0.961   5.488  1.2432  0.3997 -0.2902
  508MOL0     C68471   9.619   0.876   5.447  0.4759  0.5120 -0.6746
  508MOL0     C68472   9.481   0.892   5.474  0.0479 -0.3101 -0.7402
  508MOL0     C68473   9.403   0.774   5.439  0.2388  0.2332 -0.3308
  508MOL0     C68474   9.450   0.998   5.563 -1.1474  0.6200 -0.6848
  508MOL0     C68475   9.316   1.024   5.609  0.0736  0.0922 -0.7904
  508MOL0     O68476   9.301   1.046   5.749 -0.6446  1.4537 -0.4719
  508MOL0     C68477   9.180   1.102   5.792  0.3059  0.3306  0.1767
  508MOL0     C68478   9.114   1.034   5.900 -0.7450  0.2447  1.1194
  508MOL0     C68479   8.993   1.072   5.948  0.1604  0.0409 -0.1022
  508MOL0     C68480   8.923   1.178   5.897  0.1538  0.6287  0.6176
  508MOL0     O68481   8.796   1.185   5.958 -0.4349 -0.5144  0.5459
  508MOL0     C68482   8.699   1.258   5.889  0.5698 -0.3093  0.1164
  508MOL0     C68483   8.571   1.242   5.956  0.2468 -0.4813 -0.1254
  508MOL0     C68484   8.519   1.102   5.965  0.5600 -0.0012 -0.2728
  508MOL0     C68485   8.392   1.084   6.054 -1.0901  0.8214 -0.4605
  508MOL0     C68486   8.416   1.112   6.210 -0.1987  0.4878  0.3334
  508MOL0     C68487   8.291   1.093   6.281 -0.0128 -0.1339 -0.9712
  508MOL0     C68488   8.293   1.139   6.427  0.5552  0.5543 -0.8436
  508MOL0     C68489   8.162   1.151   6.498  1.2468  1.0309  0.2327
  508MOL0    Cl68490   8.072   1.289   6.452 -0.1836 -0.2139  0.4155
  508MOL0     C68491   8.980   1.257   5.790 -0.3991 -0.1311  0.2152
  508MOL0     C68492   9.110   1.214   5.737 -0.1415  0.6219 -0.4974
  508MOL0     O68493   9.228   1.019   5.528 -0.5286  0.4155  0.7151
  508MOL0     C68494   9.559   1.089   5.602  0.6856  0.4336  0.1913
  508MOL0     C68495   9.690   1.069   5.568  0.6218  0.5525  0.5577
  508MOL0     N68496  10.363   0.807   5.171 -0.0651  0.0015  0.0652
  508MOL0     N68497  10.380   0.678   5.164  0.0807  0.1799 -0.2254
  508MOL0     C68498   9.371   0.505   5.733  0.7817 -0.0213 -0.5925
  508MOL0     C68499   9.254   0.581   5.731  0.6014  0.5224  0.3066
  508MOL0     C68500   8.845   0.749   5.567  0.7074 -0.8949  0.2266
  508MOL0     C68501   8.724   0.733   5.498  0.4580  0.1876 -0.5632
  508MOL0     C68502   8.634   0.837   5.504 -0.0010  0.5178  0.1601
  508MOL0     C68503   8.657   0.960   5.562  0.2872 -0.2092  1.0342
  508MOL0     O68504   8.559   1.049   5.586  0.6625 -0.0627 -0.7381
  508MOL0     C68505   8.446   1.043   5.505  0.3867 -0.7551 -0.1609
  508MOL0     C68506   8.402   1.186   5.506  0.3704 -0.1562  0.3844
  508MOL0     C68507   8.311   1.217   5.617  0.5741  0.2185 -1.1252
  508MOL0     C68508   8.267   1.363   5.623 -0.4513  0.5319  0.4359
  508MOL0     C68509   8.357   1.452   5.683 -0.3076  0.1016  0.5311
  508MOL0     C68510   8.428   1.538   5.728 -0.2566 -0.0719  0.9454
  508MOL0     C68511   8.781   0.973   5.625  0.1117 -0.5165 -0.7512
  508MOL0     C68512   8.876   0.864   5.624 -0.6592 -0.9802 -0.2569
  508MOL0     H68513   9.087   0.443   5.479 -0.1063  3.0260 -1.0176
  508MOL0     H68514   9.288   0.282   5.491 -3.1332  0.0299 -0.9498
  508MOL0     H68515   9.619   0.444   5.511 -0.6318  2.3857  2.1234
  508MOL0     H68516   9.630   0.466   5.684  0.7381 -1.4962  1.1490
  508MOL0     H68517   9.709   0.235   5.710 -3.5538  0.3849 -1.5001
  508MOL0     H68518   9.715   0.211   5.535 -1.3101  0.7821  0.2264
  508MOL0     H68519   9.876   0.421   5.684 -0.2907 -2.5914  2.2668
  508MOL0     H68520   9.949   0.265   5.625 -0.6177 -1.9335 -4.2391
  508MOL0     H68521   9.859   0.303   5.394  2.0425  1.0667 -3.2125
  508MOL0     H68522   9.842   0.481   5.438 -1.3426 -0.6189  1.9466
  508MOL0     H68523  10.095   0.483   5.474  0.6644  1.5785 -4.0851
  508MOL0     H68524  10.089   0.310   5.462 -0.8847  1.5190  1.9033
  508MOL0     H68525  10.004   0.356   5.218  1.3327  0.8048  0.0259
  508MOL0     H68526  10.025   0.526   5.246 -1.2034 -0.0041 -1.7479
  508MOL0     H68527  10.265   0.471   5.333  1.9268  0.7977 -2.0314
  508MOL0     H68528  10.240   0.316   5.250 -2.4446 -0.7673  0.0293
  508MOL0     H68529  10.172   0.442   5.042  1.1648 -1.1658 -0.5871
  508MOL0     H68530  10.346   0.429   5.090 -0.2631 -1.9044  2.5447
  508MOL0     H68531  10.067   0.689   5.072 -0.3338  0.0034 -0.8132
  508MOL0     H68532  10.244   1.043   5.128  0.0503  0.1329 -0.6998
  508MOL0     H68533  10.122   0.973   5.019 -1.3975  1.6973  0.9497
  508MOL0     H68534   9.964   0.952   5.188 -0.8562  0.4470 -0.0696
  508MOL0     H68535  10.037   1.121   5.195  1.5437  0.5828  0.1399
  508MOL0     H68536  10.161   1.068   5.376  0.1602  0.9765 -2.6272
  508MOL0     H68537  10.115   0.893   5.376  1.2972  0.3331  2.1955
  508MOL0     H68538   9.912   1.124   5.420 -0.0228  0.4589  0.0537
  508MOL0     H68539   9.987   1.043   5.559 -2.9868 -0.3708  0.0629
  508MOL0     H68540   9.649   0.801   5.375 -3.3921 -2.7465  0.7581
  508MOL0     H68541   9.400   0.770   5.330 -1.5573  2.7007 -0.4546
  508MOL0     H68542   9.452   0.683   5.475  0.0143  0.7871  1.5037
  508MOL0     H68543   9.302   0.776   5.481  0.4738 -0.2515  0.2681
  508MOL0     H68544   9.171   0.949   5.937  1.2346  0.2719 -1.5612
  508MOL0     H68545   8.943   1.008   6.020 -1.5670  0.6655 -0.7146
  508MOL0     H68546   8.731   1.361   5.871 -1.2847  0.3174  0.2265
  508MOL0     H68547   8.681   1.220   5.789 -3.9681  0.4434  0.4598
  508MOL0     H68548   8.578   1.278   6.059  0.4396  2.8040 -1.1651
  508MOL0     H68549   8.496   1.305   5.906  0.3864 -0.8483 -0.8133
  508MOL0     H68550   8.597   1.040   6.012  0.1911 -2.5811 -2.7913
  508MOL0     H68551   8.499   1.063   5.865  2.6592 -2.4064  0.1239
  508MOL0     H68552   8.317   1.157   6.021  0.4559  4.1114  2.5907
  508MOL0     H68553   8.361   0.982   6.033 -1.3612  1.1852 -1.9595
  508MOL0     H68554   8.453   1.213   6.233 -1.0418  0.8803 -0.0111
  508MOL0     H68555   8.500   1.054   6.250  1.0645  1.3285 -0.9963
  508MOL0     H68556   8.206   1.136   6.227 -1.2206 -0.2769  0.7124
  508MOL0     H68557   8.266   0.986   6.282 -3.3801  0.5139  1.2758
  508MOL0     H68558   8.349   1.232   6.420  0.2801  0.7588 -0.3962
  508MOL0     H68559   8.353   1.060   6.475 -0.9241  0.4933  1.0265
  508MOL0     H68560   8.171   1.144   6.607 -3.1624  0.9792  0.7647
  508MOL0     H68561   8.102   1.060   6.485  0.9278  1.0575  1.3817
  508MOL0     H68562   8.919   1.330   5.738  0.5644  1.5387  1.3094
  508MOL0     H68563   9.143   1.265   5.647 -1.7798 -1.8553 -2.6489
  508MOL0     H68564   9.532   1.179   5.656  0.8615  1.4957 -1.4231
  508MOL0     H68565   9.763   1.144   5.597 -0.6394  1.1165  2.4687
  508MOL0     H68566   9.446   0.543   5.802 -0.3861  0.8891  0.2151
  508MOL0     H68567   9.219   0.658   5.799  0.8752  2.2075 -1.3849
  508MOL0     H68568   8.708   0.645   5.437  0.2306  1.1241 -1.8881
  508MOL0     H68569   8.539   0.807   5.459 -1.4916  4.7887 -0.0443
  508MOL0     H68570   8.465   1.016   5.401  2.8397  2.0591 -0.5659
  508MOL0     H68571   8.372   0.970   5.540 -0.5629 -1.5375 -3.4309
  508MOL0     H68572   8.344   1.210   5.416  1.7784  1.9205 -0.0574
  508MOL0     H68573   8.495   1.243   5.514  0.9986 -1.1700  0.4744
  508MOL0     H68574   8.353   1.188   5.713 -3.0796 -0.4820  0.4045
  508MOL0     H68575   8.222   1.156   5.599  1.1834 -0.9368 -0.3081
  508MOL0     H68576   8.169   1.378   5.670 -0.9949 -4.0323  1.2246
  508MOL0     H68577   8.260   1.403   5.522 -0.5325 -1.4448 -0.3829
  508MOL0     H68578   8.490   1.616   5.767  1.0947 -1.7319  2.2793
  508MOL0     H68579   8.797   1.065   5.680 -1.1294 -0.0209 -1.1811
  508MOL0     H68580   8.973   0.887   5.668 -1.2019 -0.7230  0.8438
  509MOL0     O68581  10.620   5.334   1.152 -0.3737  0.0265 -0.6470
  509MOL0     C68582  10.676   5.412   1.072  0.4401 -0.5791  0.0083
  509MOL0     O68583  10.641   5.429   0.949  0.1271 -0.6192  0.6531
  509MOL0     C68584  10.529   5.368   0.900  1.0491  0.5340  0.4722
  509MOL0     C68585  10.534   5.302   0.777 -0.1353  0.2605 -1.1404
  509MOL0     C68586  10.427   5.226   0.718 -0.5790 -0.4472 -0.5131
  509MOL0     C68587  10.309   5.212   0.786  0.1324 -0.8222  0.1894
  509MOL0     O68588  10.201   5.134   0.752  0.2853  0.7464 -0.3912
  509MOL0     C68589  10.214   5.017   0.672  0.1348  0.3323 -1.8425
  509MOL0     C68590  10.107   4.917   0.727  0.0187 -0.3828 -1.2081
  509MOL0     C68591   9.976   4.948   0.656  0.0595 -0.2462  0.2934
  509MOL0     C68592   9.859   4.874   0.720  0.1166  0.0022  0.0153
  509MOL0     C68593   9.730   4.923   0.647  0.4130 -0.3180  0.0223
  509MOL0     C68594   9.607   4.869   0.719 -0.1478 -0.2014  0.5159
  509MOL0     C68595   9.489   4.959   0.697  1.4809  0.5348 -0.0325
  509MOL0     C68596   9.483   5.090   0.754 -0.5962 -0.0329 -1.0914
  509MOL0     N68597   9.351   5.153   0.731  0.4059 -0.4532  0.6624
  509MOL0     C68598   9.310   5.175   0.599  0.0673 -0.0146 -0.6089
  509MOL0     C68599   9.194   5.252   0.618 -0.0698  1.1871 -0.2544
  509MOL0     C68600   9.111   5.309   0.504  0.0617 -0.1014  0.7887
  509MOL0     C68601   9.028   5.205   0.432 -0.3207 -0.4601 -0.8554
  509MOL0     C68602   8.950   5.252   0.301 -0.2779 -0.2512 -0.4733
  509MOL0     C68603   8.841   5.352   0.322  0.2470 -0.1537 -0.5698
  509MOL0     O68604   8.902   5.479   0.360  0.2395  0.1144  0.2005
  509MOL0     C68605   8.823   5.595   0.352 -0.9310  1.0465 -0.3046
  509MOL0     C68606   8.873   5.720   0.402  0.8216  0.1648  0.1982
  509MOL0     C68607   8.800   5.837   0.390  0.9269  0.1451 -0.0635
  509MOL0     C68608   8.864   5.961   0.444 -0.2538  0.4529 -0.0681
  509MOL0     C68609   8.671   5.839   0.338  0.4042  0.5938 -0.2055
  509MOL0     C68610   8.586   5.957   0.312  0.2670  0.7587 -0.1257
  509MOL0     O68611   8.466   5.925   0.261 -0.0119  0.7228 -0.1829
  509MOL0     C68612   8.370   6.019   0.235  0.3397 -0.1819  0.1131
  509MOL0     C68613   8.396   6.128   0.135  0.5739 -0.6973 -0.4926
  509MOL0     C68614   8.291   6.214   0.116  0.1971 -0.2474 -0.5192
  509MOL0     C68615   8.167   6.198   0.175 -0.6126  0.1957 -0.4267
  509MOL0     O68616   8.058   6.277   0.161  0.0257  0.3385  0.0245
  509MOL0     C68617   8.022   6.329   0.033  0.1874  0.3054 -0.5283
  509MOL0     C68618   7.877   6.395   0.037 -0.9381 -0.1949  0.5935
  509MOL0     C68619   7.766   6.293   0.071  0.3064  0.5723 -0.2140
  509MOL0     C68620   7.624   6.354   0.042  0.3390 -0.0892 -0.3636
  509MOL0     C68621   7.502   6.259   0.076  0.2008  0.1861 -0.1700
  509MOL0     C68622   7.366   6.326   0.043 -0.8321  0.0168  0.6018
  509MOL0     C68623   7.350   6.359  -0.105  0.4429  0.9471  0.8819
  509MOL0     C68624   7.212   6.424  -0.133  0.5286  0.1304  0.3425
  509MOL0    Cl68625   7.079   6.300  -0.128 -0.2387 -0.1291 -0.3863
  509MOL0     C68626   8.141   6.083   0.254  0.7235 -0.4434  0.2203
  509MOL0     C68627   8.240   5.991   0.289 -0.5387 -0.3243  0.3682
  509MOL0     O68628   8.622   6.070   0.345  1.1037  0.1061 -0.4512
  509MOL0     C68629   8.613   5.712   0.302 -0.2214 -2.0132  0.3404
  509MOL0     C68630   8.696   5.599   0.302 -0.1678  0.8341  0.0174
  509MOL0     N68631   9.170   5.268   0.754  0.3100  0.3168 -0.3171
  509MOL0     N68632   9.267   5.211   0.821  0.1686  0.8818  1.1663
  509MOL0     C68633  10.293   5.283   0.904  0.1760 -0.6852 -0.5208
  509MOL0     C68634  10.402   5.356   0.966 -0.2267  0.9662 -0.7801
  509MOL0     C68635  10.782   5.498   1.121  0.3562  0.1693  0.3074
  509MOL0     C68636  10.850   5.589   1.029  1.3700 -0.1393 -0.2580
  509MOL0     C68637  10.967   5.638   1.063 -0.8026 -1.1490 -0.3595
  509MOL0     C68638  11.022   5.620   1.188 -0.0820  0.2392  0.0001
  509MOL0     O68639  11.154   5.655   1.228 -0.2099  0.7766  0.0007
  509MOL0     C68640  11.215   5.747   1.139 -0.2387  0.1152 -0.2091
  509MOL0     C68641  11.335   5.795   1.222 -0.0383  0.2566 -0.5911
  509MOL0     C68642  11.310   5.913   1.333  0.3585  0.5543  1.1421
  509MOL0     C68643  11.440   5.928   1.418 -0.3990  0.4691 -0.2093
  509MOL0     C68644  11.563   5.948   1.337  0.2451  0.9905  0.8896
  509MOL0     C68645  11.662   5.980   1.264 -0.1876  1.2402  0.1384
  509MOL0     C68646  10.940   5.559   1.286  0.1343 -0.0531  0.3376
  509MOL0     C68647  10.823   5.497   1.258  0.2894  0.4000  0.3734
  509MOL0     H68648  10.622   5.307   0.714 -0.5633  4.3449 -1.6887
  509MOL0     H68649  10.436   5.165   0.628  0.2386 -0.3183 -0.5269
  509MOL0     H68650  10.224   5.029   0.564  4.4216 -0.2280 -1.6692
  509MOL0     H68651  10.308   4.974   0.708  0.4714  0.8142 -2.1478
  509MOL0     H68652  10.146   4.816   0.709 -3.4051 -1.7444 -1.9123
  509MOL0     H68653  10.089   4.947   0.831 -1.4959  1.5388 -1.9583
  509MOL0     H68654   9.959   5.055   0.672 -0.4384 -0.0591 -1.3261
  509MOL0     H68655   9.981   4.926   0.549 -0.2549  0.6841  0.0742
  509MOL0     H68656   9.870   4.766   0.703 -2.2027 -0.1953 -0.6252
  509MOL0     H68657   9.863   4.890   0.828  0.9950  1.0285 -0.1485
  509MOL0     H68658   9.736   5.031   0.662 -0.1290 -0.6282  3.0685
  509MOL0     H68659   9.737   4.892   0.543 -0.5783  1.5571 -0.6512
  509MOL0     H68660   9.580   4.767   0.693  0.4230 -0.0739 -0.6648
  509MOL0     H68661   9.639   4.866   0.823  3.3935 -3.0971 -0.4323
  509MOL0     H68662   9.473   4.964   0.589  0.7286  0.5757  0.0736
  509MOL0     H68663   9.405   4.904   0.741 -3.0480  4.5541 -2.6236
  509MOL0     H68664   9.566   5.151   0.717 -0.2405 -0.2618 -0.6870
  509MOL0     H68665   9.484   5.086   0.864  1.0331  2.3031 -0.9412
  509MOL0     H68666   9.349   5.137   0.505 -3.3346 -2.7829 -1.0982
  509MOL0     H68667   9.048   5.391   0.540  0.7173  1.1635 -0.8232
  509MOL0     H68668   9.182   5.358   0.436 -1.7424 -0.9650 -1.9025
  509MOL0     H68669   8.959   5.164   0.507  0.6361  1.2173  1.0470
  509MOL0     H68670   9.100   5.128   0.403 -1.0858 -0.8895 -1.6741
  509MOL0     H68671   8.892   5.173   0.252 -1.5814 -1.5277  2.8289
  509MOL0     H68672   9.015   5.296   0.226 -2.6202  0.0571 -2.4490
  509MOL0     H68673   8.772   5.317   0.399 -1.3654  2.0640 -0.9126
  509MOL0     H68674   8.785   5.368   0.230 -1.8693  2.3762  1.0079
  509MOL0     H68675   8.977   5.713   0.431  1.1143 -2.5424 -1.1840
  509MOL0     H68676   8.855   6.047   0.376  1.2310  1.8939  1.4583
  509MOL0     H68677   8.823   5.985   0.542 -1.1229  2.9933 -0.9684
  509MOL0     H68678   8.973   5.952   0.455 -0.3196 -0.3922 -0.0370
  509MOL0     H68679   8.492   6.140   0.084 -1.1455  0.1969 -3.8428
  509MOL0     H68680   8.298   6.303   0.054  0.3996 -1.2040 -1.9389
  509MOL0     H68681   8.094   6.407   0.004  3.4398 -1.2167  2.6374
  509MOL0     H68682   8.033   6.253  -0.044 -0.7480  0.1161 -0.4821
  509MOL0     H68683   7.885   6.468   0.118  1.6234  2.2891 -1.6844
  509MOL0     H68684   7.855   6.447  -0.057 -0.7402  2.1480  1.7840
  509MOL0     H68685   7.775   6.267   0.177 -1.1746  0.1441 -0.1629
  509MOL0     H68686   7.783   6.210   0.002 -0.7455 -0.2169  0.4578
  509MOL0     H68687   7.616   6.446   0.101  0.0861  0.3689 -1.0866
  509MOL0     H68688   7.623   6.387  -0.063  1.7073 -0.6266 -0.5542
  509MOL0     H68689   7.504   6.246   0.184  1.5046  0.7415 -0.1119
  509MOL0     H68690   7.509   6.164   0.021 -0.5008  0.6010 -1.0087
  509MOL0     H68691   7.294   6.246   0.060  0.5338 -1.5333 -0.5694
  509MOL0     H68692   7.356   6.426   0.087  0.2426 -0.0477  1.0399
  509MOL0     H68693   7.379   6.280  -0.175 -0.3084  0.2806  1.3206
  509MOL0     H68694   7.419   6.442  -0.127 -0.6616  1.5218 -0.5275
  509MOL0     H68695   7.206   6.471  -0.231 -1.8757 -1.7872 -0.5326
  509MOL0     H68696   7.186   6.504  -0.063  3.0866  1.1123  0.2699
  509MOL0     H68697   8.038   6.062   0.283  0.2120  0.5367 -0.7926
  509MOL0     H68698   8.209   5.908   0.351  1.5301 -1.7231 -0.3728
  509MOL0     H68699   8.514   5.691   0.264  0.5122 -2.3355 -1.5322
  509MOL0     H68700   8.650   5.511   0.259 -0.4876  1.5298 -1.1034
  509MOL0     H68701  10.200   5.273   0.959  0.8457 -0.0685  0.7630
  509MOL0     H68702  10.398   5.406   1.062  2.3487  1.2490 -0.7604
  509MOL0     H68703  10.827   5.602   0.924 -2.9505  1.4345  0.6710
  509MOL0     H68704  11.015   5.689   0.980 -2.3914 -0.0241 -0.6263
  509MOL0     H68705  11.255   5.697   1.050 -1.4898  1.5497 -1.6155
  509MOL0     H68706  11.147   5.828   1.115 -1.8181 -1.4068 -1.1197
  509MOL0     H68707  11.401   5.850   1.155 -1.6840  0.0063 -2.5200
  509MOL0     H68708  11.386   5.709   1.267 -0.3145  0.5458  0.2885
  509MOL0     H68709  11.237   5.881   1.408  0.9482 -0.8462  1.1346
  509MOL0     H68710  11.279   6.005   1.282  2.1305 -1.4923 -4.4066
  509MOL0     H68711  11.461   5.853   1.494 -0.9755 -4.0988 -4.1089
  509MOL0     H68712  11.427   6.021   1.475 -2.4191  0.4031 -0.4929
  509MOL0     H68713  11.746   5.982   1.198 -0.7286  1.7554 -0.5469
  509MOL0     H68714  10.993   5.542   1.380  0.5808 -0.9482 -0.0563
  509MOL0     H68715  10.756   5.450   1.329 -0.8727  1.7767  0.2310
  510MOL0     O68716   0.111   4.880   5.234 -0.3737 -0.2752 -0.6692
  510MOL0     C68717   0.126   4.905   5.357 -1.0601 -0.1721  1.2989
  510MOL0     O68718   0.038   4.966   5.434 -0.7761  0.9767 -0.2393
  510MOL0     C68719  -0.095   4.977   5.406 -0.4434 -0.0844  0.4913
  510MOL0     C68720  -0.153   5.078   5.482 -0.1169  0.0936  0.2257
  510MOL0     C68721  -0.289   5.109   5.470  0.9013 -0.1389  0.2676
  510MOL0     C68722  -0.370   5.047   5.366  0.9296 -0.4385  0.3595
  510MOL0     O68723  -0.501   5.086   5.349  0.0348 -0.5920 -0.0623
  510MOL0     C68724  -0.531   5.157   5.229 -0.3239 -0.1269 -0.5378
  510MOL0     C68725  -0.676   5.196   5.217  0.5852 -0.2819 -0.3079
  510MOL0     C68726  -0.775   5.079   5.242 -0.3456 -0.6990  0.1998
  510MOL0     C68727  -0.910   5.108   5.163 -0.4151 -0.4061  0.0506
  510MOL0     C68728  -1.007   4.995   5.171  0.1971  0.7343  0.1314
  510MOL0     C68729  -1.154   5.036   5.124 -0.0826  0.8039 -0.4348
  510MOL0     C68730  -1.268   4.936   5.124 -1.4694 -0.2758  0.2081
  510MOL0     C68731  -1.362   4.992   5.020 -0.2505 -1.0764 -0.3796
  510MOL0     N68732  -1.467   4.890   5.003  0.1448  0.1517  0.2459
  510MOL0     C68733  -1.562   4.866   5.098 -0.1575 -0.2366 -0.9146
  510MOL0     C68734  -1.650   4.780   5.041 -0.0730  0.5864 -0.0291
  510MOL0     C68735  -1.768   4.712   5.108 -0.1808 -0.1812 -0.3281
  510MOL0     C68736  -1.891   4.799   5.115  0.4308 -0.1373 -0.6511
  510MOL0     C68737  -1.999   4.723   5.205  0.8798  0.6129  0.1891
  510MOL0     C68738  -2.136   4.793   5.201 -0.9034 -0.2889 -0.3150
  510MOL0     O68739  -2.176   4.796   5.060  0.4258 -0.5223  0.6359
  510MOL0     C68740  -2.305   4.773   5.035  0.5809 -0.3245 -0.7964
  510MOL0     C68741  -2.402   4.829   5.107 -0.6859 -0.7820  0.3353
  510MOL0     C68742  -2.538   4.812   5.075  0.3393  0.4734  0.3059
  510MOL0     C68743  -2.650   4.890   5.150  0.2454  0.2793  0.5196
  510MOL0     C68744  -2.572   4.751   4.954 -0.9011 -0.1718 -0.7344
  510MOL0     C68745  -2.716   4.743   4.908  0.3436 -0.0843 -0.0044
  510MOL0     O68746  -2.780   4.858   4.885 -0.1689  0.3707 -0.3685
  510MOL0     C68747  -2.903   4.836   4.827  0.4334 -0.2810  0.3899
  510MOL0     C68748  -2.928   4.821   4.688  0.1932 -0.0235  0.6556
  510MOL0     C68749  -3.056   4.798   4.641  0.1544  0.2365 -0.2375
  510MOL0     C68750  -3.168   4.789   4.721 -0.3216 -0.4114 -0.4744
  510MOL0     O68751  -3.299   4.772   4.690 -1.2407 -0.1036 -0.5523
  510MOL0     C68752  -3.333   4.739   4.557 -0.1883  0.1590  0.7541
  510MOL0     C68753  -3.480   4.683   4.565 -0.6856 -0.2571  0.6728
  510MOL0     C68754  -3.587   4.801   4.557  0.6731 -0.5839  1.0987
  510MOL0     C68755  -3.578   4.925   4.654 -0.5183  0.9317  0.3014
  510MOL0     C68756  -3.608   4.895   4.801  0.2811 -0.3163 -0.1459
  510MOL0     C68757  -3.754   4.857   4.843 -0.2888  0.0458  0.0575
  510MOL0     C68758  -3.857   4.967   4.833  0.2807  0.0376  0.1426
  510MOL0     C68759  -3.984   4.893   4.857 -0.5533 -1.1443 -0.7217
  510MOL0    Cl68760  -4.107   5.023   4.859 -0.0800 -0.8216 -0.2590
  510MOL0     C68761  -3.145   4.806   4.857 -0.4350 -0.2685  0.6541
  510MOL0     C68762  -3.014   4.823   4.914 -0.7386 -0.3851  1.1929
  510MOL0     O68763  -2.764   4.633   4.878 -0.4367  0.5554 -0.0828
  510MOL0     C68764  -2.474   4.690   4.877  0.9188  0.3283 -0.3318
  510MOL0     C68765  -2.340   4.715   4.918  0.2595  0.2377  0.2545
  510MOL0     N68766  -1.574   4.727   4.929  0.3166 -0.3374  0.0087
  510MOL0     N68767  -1.467   4.796   4.903 -0.0564 -0.6710 -0.6271
  510MOL0     C68768  -0.313   4.932   5.299 -0.0392 -0.5072  0.0653
  510MOL0     C68769  -0.172   4.909   5.312 -0.1816 -0.5557 -0.0655
  510MOL0     C68770   0.262   4.887   5.408 -1.1411 -0.7416  0.1157
  510MOL0     C68771   0.314   4.953   5.521 -0.3719  0.1570 -0.6661
  510MOL0     C68772   0.442   4.933   5.565  0.2605  0.4592  0.0890
  510MOL0     C68773   0.526   4.835   5.501  0.8281  0.6458 -0.7934
  510MOL0     O68774   0.661   4.827   5.539  0.8918 -0.6387 -0.2130
  510MOL0     C68775   0.738   4.719   5.483  0.0300  0.2861 -0.0712
  510MOL0     C68776   0.863   4.705   5.570  0.1354 -0.8861 -0.6992
  510MOL0     C68777   0.956   4.811   5.525  0.0321  0.2694  0.1251
  510MOL0     C68778   1.028   4.780   5.390 -0.1973  0.9907 -0.0680
  510MOL0     C68779   1.152   4.860   5.385  0.2737  0.1283  0.4753
  510MOL0     C68780   1.253   4.917   5.392 -0.8467  0.2024  0.3880
  510MOL0     C68781   0.466   4.754   5.399  0.1361 -0.5614 -0.7770
  510MOL0     C68782   0.339   4.782   5.346 -0.8059 -0.2023 -0.5081
  510MOL0     H68783  -0.101   5.145   5.549  1.6641  0.0028 -0.9887
  510MOL0     H68784  -0.337   5.195   5.516 -0.9465 -1.5711  1.1794
  510MOL0     H68785  -0.476   5.251   5.238 -0.5679  0.0092 -0.4365
  510MOL0     H68786  -0.493   5.104   5.142 -0.9018  1.8299 -2.0621
  510MOL0     H68787  -0.684   5.278   5.288  2.6329 -0.1542 -0.1669
  510MOL0     H68788  -0.690   5.228   5.113 -3.6011 -2.8758 -0.7807
  510MOL0     H68789  -0.732   4.982   5.216 -2.3719 -1.7749  0.7206
  510MOL0     H68790  -0.800   5.079   5.348 -1.5761  0.9005 -0.0335
  510MOL0     H68791  -0.946   5.201   5.207  1.8536  0.3982  0.3475
  510MOL0     H68792  -0.884   5.132   5.060 -2.4630 -1.1858 -0.7041
  510MOL0     H68793  -0.976   4.912   5.108  2.7365  1.4418  0.3274
  510MOL0     H68794  -1.008   4.959   5.274  0.6649  0.6551  0.1074
  510MOL0     H68795  -1.181   5.126   5.180  3.8115  0.8331  1.7583
  510MOL0     H68796  -1.137   5.052   5.017 -0.3198  0.8850 -0.4609
  510MOL0     H68797  -1.235   4.839   5.088 -1.8085 -0.5103  0.5149
  510MOL0     H68798  -1.314   4.919   5.222 -0.8327 -0.0762  0.5446
  510MOL0     H68799  -1.311   5.018   4.927  0.8679  2.3364  1.0285
  510MOL0     H68800  -1.411   5.082   5.059  2.0671 -0.3690  1.1104
  510MOL0     H68801  -1.581   4.905   5.197  0.3350  0.5064 -1.1093
  510MOL0     H68802  -1.784   4.614   5.061  1.5446 -0.7786  0.2741
  510MOL0     H68803  -1.741   4.698   5.213 -1.4219  0.1314  0.0488
  510MOL0     H68804  -1.933   4.817   5.016 -3.8687  2.0682  1.3091
  510MOL0     H68805  -1.863   4.890   5.170  1.4706 -2.2953  2.7060
  510MOL0     H68806  -1.968   4.714   5.309  1.6032 -0.9059 -0.1318
  510MOL0     H68807  -2.006   4.617   5.178  3.5496  0.4990 -0.3569
  510MOL0     H68808  -2.131   4.898   5.233 -0.9270 -1.0486  2.4079
  510MOL0     H68809  -2.212   4.740   5.260 -0.9355 -0.5161 -0.5615
  510MOL0     H68810  -2.381   4.880   5.201  0.2199 -1.9076  0.7699
  510MOL0     H68811  -2.754   4.891   5.118 -0.0794  1.4223  1.5425
  510MOL0     H68812  -2.656   4.828   5.240  4.7660 -0.3330  0.6224
  510MOL0     H68813  -2.606   4.985   5.182  1.2611 -0.1761  0.5193
  510MOL0     H68814  -2.844   4.831   4.620 -1.3838 -0.0886 -1.3701
  510MOL0     H68815  -3.074   4.779   4.535  1.6237  2.4085 -0.9324
  510MOL0     H68816  -3.336   4.822   4.486 -0.5440 -0.1215  0.4327
  510MOL0     H68817  -3.258   4.666   4.522 -0.0156 -0.3988  2.2183
  510MOL0     H68818  -3.489   4.616   4.479  0.2671  0.6002 -0.1123
  510MOL0     H68819  -3.497   4.625   4.656  0.5670  0.9780  1.7327
  510MOL0     H68820  -3.683   4.754   4.580  0.2760  1.1869  3.3560
  510MOL0     H68821  -3.589   4.843   4.456 -1.4707  2.4979  2.2940
  510MOL0     H68822  -3.487   4.982   4.637 -0.4411  0.7166 -0.0302
  510MOL0     H68823  -3.663   4.984   4.620 -1.0709  0.6728  1.1934
  510MOL0     H68824  -3.587   4.989   4.853 -1.5278  0.4288 -0.6907
  510MOL0     H68825  -3.542   4.817   4.842 -1.3786 -1.1222  1.1018
  510MOL0     H68826  -3.784   4.770   4.784  0.8713 -1.5916  1.7496
  510MOL0     H68827  -3.755   4.837   4.950  1.4268 -1.0290 -0.0828
  510MOL0     H68828  -3.859   5.022   4.739  1.5231 -1.3883 -0.7574
  510MOL0     H68829  -3.823   5.039   4.909  0.7449 -1.3036  1.2546
  510MOL0     H68830  -3.995   4.854   4.958 -1.3141  0.0795 -0.3093
  510MOL0     H68831  -4.000   4.813   4.784 -0.3865  0.4656 -2.6149
  510MOL0     H68832  -3.224   4.812   4.931  0.4405  0.4236  1.5544
  510MOL0     H68833  -3.002   4.827   5.022 -1.1669  2.4035  1.2075
  510MOL0     H68834  -2.489   4.639   4.782  0.1119  1.1922 -0.6774
  510MOL0     H68835  -2.254   4.684   4.858  0.4358  0.1807  0.5360
  510MOL0     H68836  -0.366   4.871   5.227  1.3421 -0.8036 -0.7424
  510MOL0     H68837  -0.126   4.833   5.250  1.5500 -0.5587  1.1594
  510MOL0     H68838   0.250   5.016   5.581 -2.3951 -1.3270 -1.1326
  510MOL0     H68839   0.477   5.005   5.638 -1.7468 -2.0842  3.8620
  510MOL0     H68840   0.693   4.620   5.493 -0.4420  0.6179  1.1707
  510MOL0     H68841   0.759   4.749   5.380  0.5397 -0.7904 -0.3008
  510MOL0     H68842   0.916   4.609   5.577 -0.3523 -1.0783  0.7400
  510MOL0     H68843   0.831   4.729   5.672  2.1761  0.3498 -0.2884
  510MOL0     H68844   1.029   4.828   5.604 -0.6266  4.8337 -0.0035
  510MOL0     H68845   0.908   4.909   5.529  1.3108  0.9308 -0.1312
  510MOL0     H68846   0.958   4.794   5.307  0.0451  2.2676 -0.0787
  510MOL0     H68847   1.062   4.676   5.384  0.6390  1.2493  0.0879
  510MOL0     H68848   1.346   4.970   5.395 -0.2042 -0.8246 -0.7490
  510MOL0     H68849   0.521   4.682   5.339 -0.0471 -0.1845 -1.4057
  510MOL0     H68850   0.293   4.717   5.272 -2.4188 -0.4516  0.6410
  511MOL0     O68851   2.792  11.098   4.135 -0.5795  0.6388 -0.0073
  511MOL0     C68852   2.887  11.167   4.108  0.9203 -0.7663  0.1255
  511MOL0     O68853   2.917  11.289   4.159  0.2374  0.4498 -0.7377
  511MOL0     C68854   2.810  11.347   4.223  0.1493 -0.3536  0.0556
  511MOL0     C68855   2.784  11.318   4.356 -0.3671  0.9408  0.5991
  511MOL0     C68856   2.668  11.369   4.409 -0.0007  0.1633  0.0913
  511MOL0     C68857   2.570  11.434   4.342 -0.0067 -0.0999 -0.6127
  511MOL0     O68858   2.453  11.466   4.397  0.5031 -0.9564  0.2358
  511MOL0     C68859   2.438  11.477   4.536  0.0243  0.9151 -0.4973
  511MOL0     C68860   2.299  11.532   4.574  0.0881  0.2825  0.4559
  511MOL0     C68861   2.275  11.662   4.503  0.0018 -0.5242 -0.0746
  511MOL0     C68862   2.127  11.706   4.492  0.2765 -0.6431  0.7002
  511MOL0     C68863   2.071  11.769   4.624  0.2662 -0.3444 -0.5847
  511MOL0     C68864   2.084  11.922   4.634  1.1571  0.5637  0.9976
  511MOL0     C68865   2.057  11.967   4.778  0.0743 -0.5249  0.0511
  511MOL0     C68866   2.161  11.928   4.878 -0.0182  0.1022  0.3104
  511MOL0     N68867   2.295  11.951   4.816  0.1459 -0.5265 -0.3039
  511MOL0     C68868   2.356  12.077   4.793  1.1925 -0.6230  0.6650
  511MOL0     C68869   2.470  12.042   4.737 -0.5612  0.5055  0.0755
  511MOL0     C68870   2.576  12.129   4.678 -0.5530 -0.1947  0.0643
  511MOL0     C68871   2.631  12.082   4.534 -0.6656  0.2764  0.2160
  511MOL0     C68872   2.732  12.183   4.487 -0.5677  0.1269  0.1560
  511MOL0     C68873   2.824  12.130   4.378 -0.8060 -0.7192 -0.3251
  511MOL0     O68874   2.886  12.247   4.328 -0.0469  0.4935 -0.3329
  511MOL0     C68875   3.016  12.223   4.287  0.9609  0.6496 -0.9430
  511MOL0     C68876   3.044  12.116   4.215 -0.7114 -0.4931  0.1476
  511MOL0     C68877   3.183  12.081   4.194  0.0344  0.2785  0.9922
  511MOL0     C68878   3.207  11.939   4.124 -0.2798 -0.9071 -0.0696
  511MOL0     C68879   3.282  12.176   4.235 -0.4836  0.4495  0.0621
  511MOL0     C68880   3.423  12.146   4.206  0.3396 -0.0525 -0.2217
  511MOL0     O68881   3.460  12.082   4.089  0.0116 -0.1585 -0.1496
  511MOL0     C68882   3.588  12.034   4.080  0.5127  0.3150 -0.6266
  511MOL0     C68883   3.649  11.956   4.177  0.2821 -0.3018 -0.3337
  511MOL0     C68884   3.782  11.908   4.159  0.0178  0.0117 -0.0023
  511MOL0     C68885   3.835  11.928   4.033 -0.9843 -0.0101 -0.2196
  511MOL0     O68886   3.964  11.888   4.022  0.1106  0.2459  0.0565
  511MOL0     C68887   4.051  11.959   3.939 -1.1838 -0.1104 -0.7075
  511MOL0     C68888   4.201  11.912   3.958 -0.1790 -0.1206 -0.1806
  511MOL0     C68889   4.285  11.998   4.059  0.7747  0.6818 -0.2341
  511MOL0     C68890   4.432  11.968   4.027  1.0684 -0.4187 -0.6043
  511MOL0     C68891   4.539  12.056   4.099 -0.3361 -0.0398  0.8823
  511MOL0     C68892   4.552  11.996   4.245  0.4285 -0.0065  0.6288
  511MOL0     C68893   4.666  12.065   4.326 -0.2885  0.0838  0.7576
  511MOL0     C68894   4.753  11.974   4.396 -0.4371 -0.3212  0.2337
  511MOL0    Cl68895   4.648  11.842   4.481  0.0418 -0.3532 -0.2134
  511MOL0     C68896   3.772  11.993   3.925 -0.2217 -0.8980 -0.5118
  511MOL0     C68897   3.644  12.047   3.952 -0.5708  0.1641  0.6056
  511MOL0     O68898   3.501  12.187   4.291 -0.6486  0.8340  0.2826
  511MOL0     C68899   3.241  12.280   4.317  0.3169 -0.4962  0.8754
  511MOL0     C68900   3.109  12.311   4.338 -0.0603 -0.7929  0.0459
  511MOL0     N68901   2.483  11.907   4.731  0.3574  0.0063 -0.5080
  511MOL0     N68902   2.376  11.850   4.788 -0.0504 -0.9285 -0.0987
  511MOL0     C68903   2.596  11.461   4.207  0.5703 -0.8661 -0.7213
  511MOL0     C68904   2.721  11.429   4.147  0.2129 -0.2067  0.1501
  511MOL0     C68905   2.987  11.117   4.014  0.0643  0.8513 -0.1239
  511MOL0     C68906   2.988  10.982   3.978 -0.6034 -0.1003 -0.3011
  511MOL0     C68907   3.106  10.930   3.918 -0.5692  0.4357  0.4865
  511MOL0     C68908   3.211  11.005   3.873 -0.2998  0.3793 -0.1191
  511MOL0     O68909   3.312  10.950   3.796  0.0669 -0.3547  0.9353
  511MOL0     C68910   3.430  10.914   3.873  0.4537 -0.3061  0.3649
  511MOL0     C68911   3.531  10.829   3.789 -0.0089 -0.3781  0.2509
  511MOL0     C68912   3.533  10.678   3.805  0.1862 -0.0613  0.1083
  511MOL0     C68913   3.630  10.602   3.721 -0.5341 -1.1339 -0.2802
  511MOL0     C68914   3.767  10.643   3.753 -0.0054 -0.7550 -0.2379
  511MOL0     C68915   3.884  10.677   3.775  0.0883  0.0726 -0.5185
  511MOL0     C68916   3.196  11.144   3.898 -0.1874  0.7897  0.7194
  511MOL0     C68917   3.088  11.197   3.964  0.0877  0.1910  0.1471
  511MOL0     H68918   2.851  11.251   4.408 -0.5958 -0.3734 -0.7313
  511MOL0     H68919   2.649  11.347   4.513 -1.7862  3.8123  0.7119
  511MOL0     H68920   2.440  11.382   4.589 -2.1985  1.5009  0.7638
  511MOL0     H68921   2.519  11.537   4.577  0.5256  0.9329 -1.4734
  511MOL0     H68922   2.223  11.466   4.532 -0.9719  1.8659 -0.2076
  511MOL0     H68923   2.281  11.534   4.682  2.3839 -1.2332  0.9468
  511MOL0     H68924   2.341  11.738   4.546 -1.0792 -0.6831  2.0069
  511MOL0     H68925   2.304  11.644   4.399 -0.5141 -1.1617 -0.1128
  511MOL0     H68926   2.111  11.778   4.411 -4.6499 -0.2210  1.7365
  511MOL0     H68927   2.065  11.620   4.465 -1.7156  1.2625 -1.2643
  511MOL0     H68928   1.966  11.745   4.642 -1.2819  5.7740  0.9794
  511MOL0     H68929   2.130  11.723   4.704  1.0134 -0.4151 -1.1713
  511MOL0     H68930   2.171  11.971   4.590 -0.3401  0.5308 -2.3777
  511MOL0     H68931   2.006  11.962   4.568  2.1515  1.3975  0.2840
  511MOL0     H68932   2.064  12.076   4.770 -3.2286 -0.2595 -0.5087
  511MOL0     H68933   1.963  11.925   4.815  2.1620 -4.2424  1.8053
  511MOL0     H68934   2.145  11.820   4.887  1.3001 -0.1363 -0.1342
  511MOL0     H68935   2.157  11.995   4.964  0.6584  3.9582 -2.4248
  511MOL0     H68936   2.314  12.176   4.809  0.9161 -0.9084  1.7815
  511MOL0     H68937   2.526  12.226   4.662 -1.8754 -1.1238 -1.8436
  511MOL0     H68938   2.652  12.142   4.755  2.5757  0.8499 -2.9430
  511MOL0     H68939   2.549  12.086   4.462 -0.2479  0.4718 -0.2548
  511MOL0     H68940   2.675  11.981   4.529 -0.9587  0.2100 -2.6496
  511MOL0     H68941   2.797  12.215   4.569 -3.0459  0.1342  2.2265
  511MOL0     H68942   2.685  12.274   4.449  1.4724  0.7493 -1.0377
  511MOL0     H68943   2.767  12.088   4.295  0.8703  0.1566 -2.0039
  511MOL0     H68944   2.890  12.053   4.418 -0.9272 -1.0875 -0.8290
  511MOL0     H68945   2.963  12.053   4.181  0.5130 -0.3058 -3.4667
  511MOL0     H68946   3.300  11.899   4.166 -1.3800 -0.8913  2.6094
  511MOL0     H68947   3.126  11.868   4.140  0.1913 -1.7310 -1.2806
  511MOL0     H68948   3.222  11.954   4.017 -1.8754 -0.0476 -0.2023
  511MOL0     H68949   3.600  11.940   4.273  4.0557 -1.3029  1.6642
  511MOL0     H68950   3.832  11.857   4.241  1.5649  1.0796 -0.2566
  511MOL0     H68951   4.022  11.926   3.839  2.2042 -0.1977 -1.7622
  511MOL0     H68952   4.041  12.068   3.952  0.5400  0.0919 -0.8136
  511MOL0     H68953   4.205  11.807   3.987  0.0284  0.3089  1.5074
  511MOL0     H68954   4.249  11.922   3.861 -0.9116  3.6054 -0.3157
  511MOL0     H68955   4.263  11.965   4.161  2.5358  0.3616  0.0770
  511MOL0     H68956   4.272  12.106   4.043  3.5588  0.8675 -2.0612
  511MOL0     H68957   4.439  11.859   4.036 -4.3159 -1.0469 -0.6197
  511MOL0     H68958   4.447  11.973   3.919  2.5756  1.8856 -0.3579
  511MOL0     H68959   4.520  12.163   4.083  1.3863 -0.0030 -1.4168
  511MOL0     H68960   4.643  12.036   4.070 -0.7980 -3.0769  1.0930
  511MOL0     H68961   4.461  12.019   4.301 -0.7442  2.0839 -1.9317
  511MOL0     H68962   4.568  11.888   4.241  0.2741 -0.0998  2.0749
  511MOL0     H68963   4.624  12.147   4.383 -1.6034 -0.8473  1.1819
  511MOL0     H68964   4.734  12.106   4.251  2.5627 -1.5219  2.2697
  511MOL0     H68965   4.805  12.033   4.472  0.2501  0.0175 -0.4879
  511MOL0     H68966   4.827  11.935   4.325  2.1583  2.3409  1.2788
  511MOL0     H68967   3.825  12.002   3.831 -0.9111 -1.5003 -0.9694
  511MOL0     H68968   3.599  12.098   3.868  2.8725  2.7928  0.1168
  511MOL0     H68969   3.309  12.339   4.377 -1.9103  2.2789  0.8501
  511MOL0     H68970   3.070  12.386   4.406 -1.2279 -1.1677 -0.1838
  511MOL0     H68971   2.520  11.502   4.141  1.4760  0.3105 -1.0756
  511MOL0     H68972   2.740  11.459   4.045  0.1483  0.1157  0.2327
  511MOL0     H68973   2.900  10.920   3.996 -1.7961  1.0516 -1.8578
  511MOL0     H68974   3.114  10.824   3.895 -1.8442  0.8982 -2.5651
  511MOL0     H68975   3.481  11.007   3.899  1.1365 -0.3881 -0.6073
  511MOL0     H68976   3.394  10.861   3.962  0.3004  1.0649  1.1452
  511MOL0     H68977   3.630  10.859   3.825 -0.3478 -0.0532  0.9390
  511MOL0     H68978   3.531  10.862   3.685 -1.7703 -1.3215 -0.0877
  511MOL0     H68979   3.433  10.646   3.775 -0.6638  2.0171  0.5888
  511MOL0     H68980   3.556  10.643   3.906 -0.4852 -0.5975  0.0851
  511MOL0     H68981   3.620  10.609   3.612  3.0710  2.5622 -0.6188
  511MOL0     H68982   3.614  10.498   3.752  0.7972 -1.8064 -1.6855
  511MOL0     H68983   3.981  10.703   3.810  0.4021  0.3494 -1.5688
  511MOL0     H68984   3.277  11.210   3.869 -1.7060  2.0754 -0.8374
  511MOL0     H68985   3.085  11.305   3.979  2.1601  0.8176 -3.1184
  512MOL0     O68986   1.199   4.863   3.229 -0.3074  0.2798  0.2943
  512MOL0     C68987   1.290   4.923   3.168 -0.0153  0.5416  0.3001
  512MOL0     O68988   1.285   4.964   3.037 -0.0773 -0.0405 -0.8739
  512MOL0     C68989   1.164   4.966   2.971 -0.9048 -0.1555 -0.2006
  512MOL0     C68990   1.145   4.920   2.837  0.5493  0.9399 -0.4804
  512MOL0     C68991   1.017   4.916   2.778 -0.2961 -0.4496  0.1352
  512MOL0     C68992   0.904   4.959   2.839 -0.8560  0.1788  0.1653
  512MOL0     O68993   0.788   4.923   2.782  0.2829 -0.4291  0.0123
  512MOL0     C68994   0.666   4.942   2.859  0.1964 -0.3213  0.1660
  512MOL0     C68995   0.544   4.920   2.765  0.3187  0.5878 -1.0790
  512MOL0     C68996   0.523   5.050   2.667 -0.6928  0.2715 -0.1867
  512MOL0     C68997   0.401   5.038   2.577  0.4082  0.6531  0.1325
  512MOL0     C68998   0.386   5.146   2.469 -0.2222 -0.4102 -0.5243
  512MOL0     C68999   0.428   5.290   2.487  0.6865 -0.5816  0.3257
  512MOL0     C69000   0.432   5.367   2.356 -0.0264 -0.0633 -0.3888
  512MOL0     C69001   0.465   5.513   2.385 -0.4162 -0.1029  0.4169
  512MOL0     N69002   0.473   5.604   2.263 -0.9898 -0.0744 -0.2234
  512MOL0     C69003   0.577   5.598   2.167 -0.1996 -0.1539  0.3911
  512MOL0     C69004   0.549   5.696   2.077  1.1195  1.0637 -0.1017
  512MOL0     C69005   0.615   5.731   1.957 -0.8502  0.5997 -0.5186
  512MOL0     C69006   0.761   5.693   1.939 -0.6003 -0.7326 -0.3152
  512MOL0     C69007   0.815   5.767   1.816  0.5004  0.9830 -0.3186
  512MOL0     C69008   0.957   5.729   1.773  0.2699 -0.3377 -0.5460
  512MOL0     O69009   1.004   5.826   1.669  0.3028  0.0140  0.3516
  512MOL0     C69010   1.141   5.815   1.634  0.6967  0.4815  0.7251
  512MOL0     C69011   1.193   5.935   1.608 -0.9697 -0.0810  0.0937
  512MOL0     C69012   1.327   5.944   1.559  0.4098  0.1230 -0.3054
  512MOL0     C69013   1.364   6.081   1.514 -0.2862  0.5077 -0.6344
  512MOL0     C69014   1.412   5.829   1.556  2.1848  0.4937  0.3522
  512MOL0     C69015   1.553   5.832   1.506 -0.1497  0.5498  0.2703
  512MOL0     O69016   1.617   5.953   1.486  0.7399 -0.4983 -0.5953
  512MOL0     C69017   1.749   5.949   1.449  0.8585 -0.8004  0.3734
  512MOL0     C69018   1.848   5.910   1.535 -0.0437 -0.6842 -0.0646
  512MOL0     C69019   1.983   5.912   1.499  0.1184  0.7588  0.0805
  512MOL0     C69020   2.022   5.946   1.368 -0.6167  0.4394  0.3361
  512MOL0     O69021   2.154   5.952   1.327  0.1263  0.0747 -0.4211
  512MOL0     C69022   2.177   6.027   1.212  0.3002 -0.4425  0.7437
  512MOL0     C69023   2.323   6.039   1.201 -0.3579  0.2963 -0.8646
  512MOL0     C69024   2.371   6.133   1.312  0.2710 -0.0305  0.2267
  512MOL0     C69025   2.524   6.160   1.315 -0.5071  0.4326  0.3626
  512MOL0     C69026   2.574   6.232   1.188  0.5298 -0.4119  0.1858
  512MOL0     C69027   2.727   6.234   1.176  0.3243 -0.0432  0.3002
  512MOL0     C69028   2.784   6.322   1.059 -0.4958  0.2182  0.5929
  512MOL0     C69029   2.914   6.274   0.991  0.4781 -0.5184  0.2802
  512MOL0    Cl69030   2.999   6.411   0.901 -0.0532 -0.1916  0.0440
  512MOL0     C69031   1.917   5.977   1.277  0.5903  0.7673  0.4581
  512MOL0     C69032   1.792   5.980   1.320  0.4362  0.1707  0.0907
  512MOL0     O69033   1.611   5.720   1.505  0.7998 -0.2002  0.0922
  512MOL0     C69034   1.355   5.705   1.597  0.2654 -0.1149  0.4289
  512MOL0     C69035   1.214   5.698   1.636  0.2030 -0.1942 -0.4924
  512MOL0     N69036   0.451   5.776   2.136  0.4594  0.3091  0.7193
  512MOL0     N69037   0.405   5.722   2.242 -0.0999  0.3050 -0.2473
  512MOL0     C69038   0.928   5.019   2.964 -0.6982  0.1654 -0.1350
  512MOL0     C69039   1.048   5.017   3.028 -0.2983 -0.8028 -0.1007
  512MOL0     C69040   1.421   4.935   3.237  0.0253 -0.3257  0.7177
  512MOL0     C69041   1.540   4.927   3.167  0.8579  0.3493 -0.0201
  512MOL0     C69042   1.666   4.942   3.231 -0.4901 -0.1133  0.1621
  512MOL0     C69043   1.663   4.947   3.375  0.0276  0.7613 -0.0887
  512MOL0     O69044   1.780   4.946   3.433 -0.0064  0.1020 -0.3016
  512MOL0     C69045   1.808   4.990   3.565 -0.3544 -0.3713  0.4235
  512MOL0     C69046   1.944   5.048   3.572  0.2676 -1.0124  0.8911
  512MOL0     C69047   2.054   4.954   3.609 -0.0710 -0.8253 -1.1090
  512MOL0     C69048   2.182   5.028   3.648 -0.3536  0.2499  0.6746
  512MOL0     C69049   2.256   5.078   3.534 -0.1694 -0.4697  0.2656
  512MOL0     C69050   2.306   5.118   3.432 -0.2623  0.0570 -0.7017
  512MOL0     C69051   1.545   4.944   3.441 -0.6956  0.1724 -0.0629
  512MOL0     C69052   1.428   4.931   3.375  0.5675  0.0277 -0.0318
  512MOL0     H69053   1.226   4.885   2.773  0.0411 -0.6704 -0.2879
  512MOL0     H69054   1.010   4.867   2.681 -1.1661 -0.8321  0.3788
  512MOL0     H69055   0.659   4.861   2.932  0.8357  0.0201  0.6188
  512MOL0     H69056   0.652   5.038   2.911  1.7565 -0.3361  0.6499
  512MOL0     H69057   0.561   4.833   2.700 -0.3750 -0.0150 -0.4658
  512MOL0     H69058   0.459   4.897   2.829 -0.5502  2.6756 -1.4047
  512MOL0     H69059   0.511   5.138   2.732  1.4207  0.6815 -0.2787
  512MOL0     H69060   0.601   5.063   2.592 -1.1314  2.3594 -0.3679
  512MOL0     H69061   0.390   4.938   2.534  0.4197  1.5648 -2.1333
  512MOL0     H69062   0.310   5.053   2.635 -0.3026  2.2259 -1.2904
  512MOL0     H69063   0.452   5.106   2.391  1.0894  1.4123 -0.4137
  512MOL0     H69064   0.285   5.138   2.429 -0.9950 -0.6758  1.4226
  512MOL0     H69065   0.360   5.341   2.556 -1.1499 -0.7805 -1.2556
  512MOL0     H69066   0.525   5.297   2.536  0.3457 -2.7042  1.4018
  512MOL0     H69067   0.514   5.335   2.291  3.5328  3.0813  2.0994
  512MOL0     H69068   0.334   5.365   2.307 -1.2370  0.6189  1.8476
  512MOL0     H69069   0.564   5.522   2.432  1.4011 -2.6654 -2.5040
  512MOL0     H69070   0.384   5.554   2.446  0.2524  0.3759  1.0183
  512MOL0     H69071   0.657   5.525   2.170  0.5321  0.5626  4.7189
  512MOL0     H69072   0.558   5.693   1.872  1.5272 -0.0681 -1.9135
  512MOL0     H69073   0.612   5.840   1.965 -1.5827  0.4717  1.2575
  512MOL0     H69074   0.770   5.584   1.939  1.2195 -0.6069  0.0811
  512MOL0     H69075   0.822   5.704   2.029 -3.3010 -0.0639  1.5537
  512MOL0     H69076   0.818   5.875   1.826  1.0587  0.8718  0.9359
  512MOL0     H69077   0.749   5.740   1.733 -0.8660  0.5183  0.8621
  512MOL0     H69078   0.971   5.623   1.750 -1.7611 -0.2050 -2.9024
  512MOL0     H69079   1.016   5.746   1.863  2.1336  1.2753 -2.0006
  512MOL0     H69080   1.135   6.026   1.614  1.0272  1.1932  1.5107
  512MOL0     H69081   1.446   6.119   1.575 -1.4144  2.4376 -0.2228
  512MOL0     H69082   1.405   6.086   1.413  0.1633  0.8650 -0.4363
  512MOL0     H69083   1.277   6.147   1.505  1.9538  3.7288 -0.1534
  512MOL0     H69084   1.825   5.870   1.634 -0.6598  1.7013  0.8383
  512MOL0     H69085   2.054   5.873   1.571  0.2872 -0.2828 -0.6227
  512MOL0     H69086   2.130   5.973   1.129 -2.4093  1.0148  1.2197
  512MOL0     H69087   2.128   6.125   1.212  0.5939 -0.2926  0.1625
  512MOL0     H69088   2.378   5.946   1.218  1.6884  1.7318  0.8797
  512MOL0     H69089   2.355   6.076   1.103 -0.4424  1.7431 -0.3788
  512MOL0     H69090   2.350   6.080   1.406 -0.9241  0.2699  0.1519
  512MOL0     H69091   2.315   6.227   1.302 -5.0902 -2.7685  1.0015
  512MOL0     H69092   2.574   6.205   1.401  0.4353  3.2760 -1.5159
  512MOL0     H69093   2.567   6.060   1.314 -0.4664  0.4510 -0.3614
  512MOL0     H69094   2.551   6.339   1.188 -0.3753 -0.5161 -2.6150
  512MOL0     H69095   2.533   6.190   1.095  1.0614  2.6418 -1.5594
  512MOL0     H69096   2.761   6.280   1.269  1.9276 -1.6027  0.5369
  512MOL0     H69097   2.751   6.128   1.167 -2.7977 -1.0773  2.5339
  512MOL0     H69098   2.801   6.423   1.097  0.7015 -0.9959  3.6040
  512MOL0     H69099   2.702   6.336   0.987  1.8768  0.3580 -2.2780
  512MOL0     H69100   2.885   6.198   0.917 -1.4474  0.5946 -0.1809
  512MOL0     H69101   2.983   6.234   1.066 -0.4162  0.6652  1.8008
  512MOL0     H69102   1.928   6.011   1.175  1.3129 -2.0192 -0.4740
  512MOL0     H69103   1.712   6.001   1.249  0.0400 -0.0558  0.4685
  512MOL0     H69104   1.412   5.612   1.594 -1.6711 -1.3850  0.8303
  512MOL0     H69105   1.168   5.600   1.644  1.3372 -0.6739  0.5667
  512MOL0     H69106   0.838   5.053   3.014 -1.1021 -1.5061  0.3372
  512MOL0     H69107   1.052   5.070   3.122  0.7758  1.3135 -1.2883
  512MOL0     H69108   1.541   4.907   3.060 -2.2559  0.2235 -0.1055
  512MOL0     H69109   1.756   4.938   3.170 -1.7475 -1.4546 -1.7712
  512MOL0     H69110   1.737   5.070   3.588 -0.4348  0.0395 -1.1604
  512MOL0     H69111   1.786   4.912   3.639 -3.7208  0.7699  0.7897
  512MOL0     H69112   1.941   5.138   3.634 -3.4417  1.4753 -2.4282
  512MOL0     H69113   1.949   5.092   3.472 -2.3173  1.5363  1.7437
  512MOL0     H69114   2.067   4.875   3.534  0.6100 -1.8853  0.0832
  512MOL0     H69115   2.025   4.904   3.701  2.5721 -0.6247 -0.0914
  512MOL0     H69116   2.252   4.966   3.705 -1.8080  0.9285  3.4091
  512MOL0     H69117   2.150   5.104   3.721 -3.3839 -1.0161  0.8182
  512MOL0     H69118   2.363   5.140   3.344 -0.8524 -0.6865 -1.2744
  512MOL0     H69119   1.547   4.941   3.549 -1.8878  3.5330  0.1541
  512MOL0     H69120   1.339   4.934   3.437  0.1619 -0.2483 -0.5932
  513MOL0     O69121   0.703   5.880   1.058  0.0165 -0.3988 -0.0370
  513MOL0     C69122   0.725   5.845   0.942  0.0207  0.0830  0.6043
  513MOL0     O69123   0.648   5.771   0.858 -0.1283  0.3572 -0.1010
  513MOL0     C69124   0.521   5.722   0.889 -0.7990  0.5960  0.2537
  513MOL0     C69125   0.477   5.613   0.815 -0.6145 -0.1912 -0.0295
  513MOL0     C69126   0.356   5.545   0.840 -0.0920 -0.2228 -0.9531
  513MOL0     C69127   0.279   5.584   0.953  0.1097  0.5478  1.1225
  513MOL0     O69128   0.155   5.529   0.973 -0.3348 -0.2984  0.2861
  513MOL0     C69129   0.101   5.439   0.875  0.2487  0.7504 -0.3829
  513MOL0     C69130  -0.037   5.388   0.920 -0.7025 -0.0297 -0.1496
  513MOL0     C69131  -0.020   5.294   1.027 -0.0086  0.9209 -0.5453
  513MOL0     C69132  -0.144   5.213   1.078  0.0131  0.7223 -0.1572
  513MOL0     C69133  -0.125   5.150   1.223 -0.2173 -0.3908  0.5712
  513MOL0     C69134  -0.256   5.084   1.261 -1.5023  0.8671 -0.0681
  513MOL0     C69135  -0.358   5.180   1.328  0.5521 -0.5378 -0.6681
  513MOL0     C69136  -0.460   5.075   1.380 -0.7397 -0.5477  0.8448
  513MOL0     N69137  -0.561   5.148   1.451 -0.4993 -0.7959  0.3452
  513MOL0     C69138  -0.685   5.167   1.408 -0.2683 -0.4198 -0.0219
  513MOL0     C69139  -0.738   5.260   1.492  0.0798  1.0016  0.1608
  513MOL0     C69140  -0.885   5.292   1.476  0.7290 -1.0556  0.8661
  513MOL0     C69141  -0.976   5.182   1.525 -0.0186  0.5623 -1.1494
  513MOL0     C69142  -1.121   5.232   1.538  0.3028  0.0497 -1.1601
  513MOL0     C69143  -1.196   5.269   1.410 -0.5166  0.1571  0.3427
  513MOL0     O69144  -1.199   5.162   1.310  0.5166 -0.0083  0.2909
  513MOL0     C69145  -1.327   5.114   1.286 -0.3989  0.3288 -0.0778
  513MOL0     C69146  -1.408   5.140   1.178  0.0710  0.2471  0.4758
  513MOL0     C69147  -1.531   5.080   1.155 -0.1906  0.9096  0.3224
  513MOL0     C69148  -1.605   5.123   1.030 -0.0860 -0.5945 -0.3999
  513MOL0     C69149  -1.582   4.990   1.250  0.3492 -0.6278 -0.0730
  513MOL0     C69150  -1.714   4.931   1.241  0.1733  0.0117  0.6496
  513MOL0     O69151  -1.772   4.878   1.353 -0.1093 -0.5049 -0.2789
  513MOL0     C69152  -1.895   4.832   1.340  0.6282 -0.8916 -0.3472
  513MOL0     C69153  -2.013   4.904   1.341  0.3990 -0.3110 -0.2200
  513MOL0     C69154  -2.136   4.847   1.315 -0.9049  0.0506 -0.6978
  513MOL0     C69155  -2.149   4.714   1.309  0.5201  0.2471  0.8543
  513MOL0     O69156  -2.270   4.645   1.301  0.1463 -0.2426  0.5126
  513MOL0     C69157  -2.360   4.680   1.403 -0.3674 -0.4014 -0.1463
  513MOL0     C69158  -2.467   4.573   1.416 -0.3773 -0.2199  0.9636
  513MOL0     C69159  -2.604   4.618   1.397 -0.4479  0.1932 -0.0402
  513MOL0     C69160  -2.621   4.707   1.269 -0.0253 -0.5221  0.3902
  513MOL0     C69161  -2.755   4.677   1.217  0.0511 -0.1807 -0.3355
  513MOL0     C69162  -2.799   4.733   1.086 -0.0228  0.2585  0.4099
  513MOL0     C69163  -2.959   4.729   1.061 -0.0932 -0.2340  0.3600
  513MOL0     C69164  -3.026   4.597   1.066 -1.0198  0.2704  0.2491
  513MOL0    Cl69165  -2.960   4.500   0.932 -0.3787 -0.3099  0.0326
  513MOL0     C69166  -2.033   4.639   1.315 -0.1494 -0.6405 -0.3527
  513MOL0     C69167  -1.909   4.698   1.328 -1.0622  0.5601  0.4025
  513MOL0     O69168  -1.744   4.896   1.126 -0.3174 -0.1991 -0.1579
  513MOL0     C69169  -1.501   4.966   1.366  0.0796  0.0079  0.5244
  513MOL0     C69170  -1.372   5.024   1.379 -0.5816 -0.0468 -0.4723
  513MOL0     N69171  -0.646   5.304   1.584  0.2336 -0.1467 -0.5305
  513MOL0     N69172  -0.540   5.241   1.554 -0.8194  0.4873  0.7814
  513MOL0     C69173   0.318   5.691   1.026 -0.0837 -0.3420  0.1271
  513MOL0     C69174   0.438   5.764   0.990 -0.1431 -1.3817 -0.2989
  513MOL0     C69175   0.843   5.915   0.885 -1.1270 -0.4799  0.1656
  513MOL0     C69176   0.904   6.039   0.924  0.0610  0.0717  0.3139
  513MOL0     C69177   1.004   6.113   0.855 -1.1205  0.8416  0.0368
  513MOL0     C69178   1.040   6.047   0.741 -0.0287  0.1955  0.4304
  513MOL0     O69179   1.140   6.099   0.656 -0.2512 -0.6504  0.4310
  513MOL0     C69180   1.244   6.193   0.693 -0.1532  0.2366 -0.2904
  513MOL0     C69181   1.334   6.231   0.575 -0.5483 -0.2950  0.1367
  513MOL0     C69182   1.424   6.353   0.606  0.3420 -1.2542  0.1342
  513MOL0     C69183   1.517   6.315   0.725  0.4026  0.8694 -0.1200
  513MOL0     C69184   1.625   6.401   0.716 -0.1304 -0.4576 -0.1028
  513MOL0     C69185   1.718   6.485   0.714  0.7472  0.1383 -0.4079
  513MOL0     C69186   0.981   5.929   0.688 -0.7437 -0.0880  0.4907
  513MOL0     C69187   0.893   5.862   0.763  0.7114  0.5321  0.4210
  513MOL0     H69188   0.541   5.587   0.731  0.0292 -0.0882  0.4226
  513MOL0     H69189   0.329   5.471   0.765 -0.6320 -0.5217 -0.4718
  513MOL0     H69190   0.080   5.485   0.778 -0.4033  0.9810 -0.1418
  513MOL0     H69191   0.165   5.351   0.865 -1.3252 -0.8629  2.5424
  513MOL0     H69192  -0.099   5.469   0.962 -0.9621  0.1004 -0.7709
  513MOL0     H69193  -0.097   5.359   0.834 -2.1479  0.7983  0.5280
  513MOL0     H69194   0.050   5.211   1.011 -1.2992 -0.6595  1.5695
  513MOL0     H69195   0.031   5.351   1.105 -0.4373 -1.9856  2.0511
  513MOL0     H69196  -0.236   5.272   1.085  0.2429  1.4826 -2.6619
  513MOL0     H69197  -0.165   5.133   1.007  0.4591 -0.4871  1.0234
  513MOL0     H69198  -0.045   5.075   1.221 -0.9580 -1.1893 -1.6956
  513MOL0     H69199  -0.103   5.227   1.299 -1.1936 -2.3044  2.9293
  513MOL0     H69200  -0.293   5.027   1.175  1.5723 -3.8564  1.3434
  513MOL0     H69201  -0.234   5.003   1.331  0.6831 -0.6077 -2.2668
  513MOL0     H69202  -0.309   5.237   1.407  2.4220 -0.0423 -2.0897
  513MOL0     H69203  -0.406   5.250   1.260 -1.0941 -1.4189 -0.4656
  513MOL0     H69204  -0.421   5.012   1.461  1.1453 -0.0691  0.3591
  513MOL0     H69205  -0.503   5.015   1.300 -0.3482  3.1439 -2.4021
  513MOL0     H69206  -0.741   5.138   1.320 -1.0457  1.3793 -0.1656
  513MOL0     H69207  -0.901   5.383   1.534  0.1990  0.7782 -2.0101
  513MOL0     H69208  -0.908   5.312   1.372 -3.2184 -0.8211  1.6435
  513MOL0     H69209  -0.936   5.145   1.620 -1.5417  1.7558 -0.0018
  513MOL0     H69210  -0.976   5.094   1.460 -0.9274 -0.7600  0.5572
  513MOL0     H69211  -1.123   5.326   1.594  1.4614 -0.2950 -0.5116
  513MOL0     H69212  -1.163   5.143   1.585  1.3049 -1.1806 -2.5227
  513MOL0     H69213  -1.156   5.361   1.366 -1.6211 -0.0676 -1.1892
  513MOL0     H69214  -1.302   5.283   1.433 -1.4379  0.0721 -3.3025
  513MOL0     H69215  -1.375   5.207   1.099 -3.2401 -0.0203 -1.2985
  513MOL0     H69216  -1.706   5.153   1.059  0.0691  0.2278 -0.6815
  513MOL0     H69217  -1.556   5.212   0.988 -2.4666  1.4788  0.9347
  513MOL0     H69218  -1.606   5.042   0.957 -0.7964 -0.4807 -0.5268
  513MOL0     H69219  -1.998   5.011   1.354  2.1500 -0.5951  0.3616
  513MOL0     H69220  -2.229   4.902   1.302 -0.5548  0.1117 -3.5804
  513MOL0     H69221  -2.307   4.685   1.498 -0.6950  3.9565  0.0053
  513MOL0     H69222  -2.402   4.777   1.373 -2.6149 -1.3231 -0.1702
  513MOL0     H69223  -2.452   4.509   1.328 -1.7013 -0.2920  0.7712
  513MOL0     H69224  -2.461   4.507   1.502 -1.5966 -2.0055 -0.2540
  513MOL0     H69225  -2.636   4.681   1.481  0.4670  2.1120 -1.0642
  513MOL0     H69226  -2.659   4.524   1.401  0.3780 -0.2757  0.7432
  513MOL0     H69227  -2.590   4.811   1.285 -2.9095  0.4767  0.0070
  513MOL0     H69228  -2.561   4.656   1.193 -2.3399 -1.2646 -1.0374
  513MOL0     H69229  -2.831   4.710   1.288  3.3053  1.4615  2.6491
  513MOL0     H69230  -2.777   4.571   1.200  0.6789 -1.1520  3.9554
  513MOL0     H69231  -2.779   4.840   1.075 -2.5694  0.6210 -1.9726
  513MOL0     H69232  -2.748   4.682   1.004 -1.3096 -2.4931  1.1926
  513MOL0     H69233  -2.990   4.785   0.972  0.8892  0.5235  0.4728
  513MOL0     H69234  -3.002   4.789   1.141 -0.8703  0.1363 -0.3272
  513MOL0     H69235  -3.135   4.598   1.062 -1.0168 -0.7764 -0.5666
  513MOL0     H69236  -3.002   4.546   1.159  1.8862 -0.1281 -0.5968
  513MOL0     H69237  -2.044   4.531   1.319 -1.3973 -0.5003  3.5126
  513MOL0     H69238  -1.817   4.641   1.337 -0.2282  1.6813 -0.7856
  513MOL0     H69239  -1.536   4.896   1.441 -0.4419  0.7700  1.0119
  513MOL0     H69240  -1.321   4.993   1.469 -1.9487 -2.1112 -0.3195
  513MOL0     H69241   0.243   5.726   1.096  0.8299  1.9778  0.0439
  513MOL0     H69242   0.465   5.850   1.051 -1.5604 -1.9367  1.1708
  513MOL0     H69243   0.883   6.073   1.025  0.7451  0.4338  0.3436
  513MOL0     H69244   1.063   6.194   0.897 -0.0729 -0.1830  0.5967
  513MOL0     H69245   1.193   6.282   0.733  1.0266  0.4771  0.7423
  513MOL0     H69246   1.307   6.162   0.777 -0.7033  0.9604  0.4163
  513MOL0     H69247   1.266   6.262   0.495  0.0668  4.3803  1.0975
  513MOL0     H69248   1.394   6.149   0.536 -1.4164 -0.5712 -0.6664
  513MOL0     H69249   1.359   6.436   0.637 -0.4252 -1.7048 -0.2416
  513MOL0     H69250   1.474   6.387   0.515 -0.2801 -1.2659 -0.2136
  513MOL0     H69251   1.531   6.206   0.724  0.2521  0.8455  0.0947
  513MOL0     H69252   1.473   6.337   0.823  3.5731  0.8882  1.4173
  513MOL0     H69253   1.807   6.544   0.708  0.5143  0.3449 -2.5620
  513MOL0     H69254   1.004   5.887   0.590  2.3965  1.2500  0.5480
  513MOL0     H69255   0.855   5.772   0.715  0.4978  1.4406 -1.2037
  514MOL0     O69256   4.848   1.201   5.591 -0.1037 -0.3642  0.2288
  514MOL0     C69257   4.967   1.196   5.612 -0.6624  0.1458 -0.0068
  514MOL0     O69258   5.024   1.181   5.735  0.1132 -0.7193 -0.3430
  514MOL0     C69259   4.957   1.148   5.846  0.7941  0.1843 -0.1676
  514MOL0     C69260   4.837   1.072   5.855 -0.2394 -0.4053  0.6572
  514MOL0     C69261   4.773   1.050   5.982 -0.7002  0.2083 -0.4272
  514MOL0     C69262   4.826   1.112   6.103 -0.1218  0.6591  0.5952
  514MOL0     O69263   4.740   1.095   6.213  0.6786  1.1389  1.2529
  514MOL0     C69264   4.716   1.213   6.289 -0.4013  0.2990 -0.4360
  514MOL0     C69265   4.628   1.184   6.395  0.4241 -0.3901 -0.0253
  514MOL0     C69266   4.582   1.313   6.466 -0.3361  0.3303 -0.0200
  514MOL0     C69267   4.534   1.289   6.610  0.4170 -0.2305  0.1220
  514MOL0     C69268   4.436   1.391   6.653  0.6322  0.0936  0.0380
  514MOL0     C69269   4.412   1.387   6.803  0.0932 -0.0919  0.3241
  514MOL0     C69270   4.286   1.474   6.853  0.4334 -0.0936 -1.1922
  514MOL0     C69271   4.305   1.627   6.818  0.3840 -0.6131 -0.5760
  514MOL0     N69272   4.184   1.702   6.866  0.1165  0.4417  0.4939
  514MOL0     C69273   4.170   1.732   6.999  0.3240 -0.1492 -0.1239
  514MOL0     C69274   4.067   1.817   7.003 -0.1092 -0.0523  0.8233
  514MOL0     C69275   4.028   1.872   7.136  0.4615 -0.5071  0.4418
  514MOL0     C69276   3.912   1.972   7.126 -0.2237 -0.9837 -0.4956
  514MOL0     C69277   3.781   1.897   7.082 -0.1041  0.9865  0.2846
  514MOL0     C69278   3.664   1.988   7.074  0.1262  0.1422  0.0586
  514MOL0     O69279   3.660   2.063   7.205 -0.2437  0.1500 -0.8714
  514MOL0     C69280   3.554   2.144   7.218 -0.0604  0.0295 -0.8825
  514MOL0     C69281   3.586   2.266   7.281 -0.0255 -0.3931 -0.0800
  514MOL0     C69282   3.486   2.360   7.306 -0.6737 -0.1529 -0.7188
  514MOL0     C69283   3.513   2.487   7.390  0.3579 -1.0615  0.8855
  514MOL0     C69284   3.354   2.336   7.253 -0.1826  0.8032  0.1112
  514MOL0     C69285   3.238   2.428   7.271  0.6606 -0.4701 -0.6631
  514MOL0     O69286   3.122   2.389   7.210  0.1762 -0.6794  0.1877
  514MOL0     C69287   3.011   2.454   7.244  0.2801  0.0347  0.9080
  514MOL0     C69288   2.941   2.395   7.346 -0.1937  0.3697 -0.9563
  514MOL0     C69289   2.824   2.452   7.388 -0.0492  0.0711  0.3689
  514MOL0     C69290   2.764   2.540   7.299 -0.2900  0.1564  0.5033
  514MOL0     O69291   2.641   2.583   7.340 -0.6827  0.5199 -0.3631
  514MOL0     C69292   2.529   2.592   7.253 -0.7713 -0.7898  0.2732
  514MOL0     C69293   2.419   2.678   7.321 -0.6638 -0.4350 -0.9710
  514MOL0     C69294   2.301   2.715   7.244 -0.1074  1.0699  0.6024
  514MOL0     C69295   2.188   2.762   7.334  0.0695  0.4082  1.2297
  514MOL0     C69296   2.061   2.771   7.242  0.3081  0.7374 -0.4874
  514MOL0     C69297   1.939   2.780   7.337  0.4206  0.3023 -0.3660
  514MOL0     C69298   1.811   2.832   7.270 -0.7164 -0.3466 -0.0720
  514MOL0     C69299   1.675   2.812   7.339 -0.8403  0.1367  0.5796
  514MOL0    Cl69300   1.618   2.647   7.324  0.0565  0.0436  0.1216
  514MOL0     C69301   2.826   2.597   7.192 -0.1185 -0.3660 -0.0233
  514MOL0     C69302   2.950   2.546   7.157  0.2050  0.7603  0.2904
  514MOL0     O69303   3.255   2.538   7.330 -0.0427 -0.1887 -0.0906
  514MOL0     C69304   3.333   2.216   7.190  0.5049 -0.0179 -0.2034
  514MOL0     C69305   3.427   2.115   7.172 -0.1673  0.6381  0.7750
  514MOL0     N69306   4.026   1.850   6.871 -0.2392  0.2986 -0.0017
  514MOL0     N69307   4.096   1.772   6.792  0.2118  0.4489  0.1033
  514MOL0     C69308   4.940   1.191   6.091 -0.6415 -0.4763  0.7250
  514MOL0     C69309   5.002   1.203   5.963  0.6524 -0.4742 -0.4109
  514MOL0     C69310   5.049   1.216   5.488 -0.5265  0.7140 -0.3570
  514MOL0     C69311   4.998   1.253   5.366  0.4235  0.2883  0.5653
  514MOL0     C69312   5.080   1.282   5.260 -0.2168 -0.2585 -0.2548
  514MOL0     C69313   5.217   1.272   5.276 -0.0588 -0.1414  0.5274
  514MOL0     O69314   5.311   1.285   5.178 -0.3349  0.0945  0.8212
  514MOL0     C69315   5.287   1.292   5.038  0.5503 -1.3787 -0.5820
  514MOL0     C69316   5.360   1.194   4.952 -0.1694  0.1217 -0.1399
  514MOL0     C69317   5.507   1.174   4.985  1.3138 -0.1564 -0.3205
  514MOL0     C69318   5.576   1.063   4.900 -0.4590 -0.6081 -0.2187
  514MOL0     C69319   5.515   0.932   4.889  0.2586  0.4033 -0.0972
  514MOL0     C69320   5.458   0.828   4.878 -0.6372 -0.6294  0.5305
  514MOL0     C69321   5.272   1.224   5.394 -0.1982  0.3028 -0.0291
  514MOL0     C69322   5.190   1.198   5.503  0.4161  0.5749  0.3501
  514MOL0     H69323   4.789   1.036   5.765  0.9449 -0.4388  0.0239
  514MOL0     H69324   4.686   0.986   5.988 -2.4547  2.5249  0.2764
  514MOL0     H69325   4.815   1.245   6.324 -0.4741  0.3323 -0.2622
  514MOL0     H69326   4.679   1.290   6.222  2.0714 -0.3411 -2.7263
  514MOL0     H69327   4.543   1.136   6.346  0.9341 -0.3503 -0.9595
  514MOL0     H69328   4.680   1.116   6.464  2.0846  1.1518  0.3421
  514MOL0     H69329   4.663   1.386   6.477  1.8130 -1.8207 -0.8431
  514MOL0     H69330   4.507   1.366   6.405 -1.0581 -0.4620  0.1648
  514MOL0     H69331   4.484   1.192   6.620 -1.3504  0.8986  3.7355
  514MOL0     H69332   4.627   1.288   6.667  2.4408  3.2504 -2.7030
  514MOL0     H69333   4.473   1.491   6.627  3.6658 -0.4371  1.7823
  514MOL0     H69334   4.342   1.378   6.599 -1.4022  2.4462  2.6399
  514MOL0     H69335   4.392   1.283   6.831 -0.6553  0.8408  3.6102
  514MOL0     H69336   4.503   1.420   6.853  0.0024 -0.3853  0.6847
  514MOL0     H69337   4.192   1.433   6.817 -1.1125  0.7621  1.5868
  514MOL0     H69338   4.280   1.465   6.962  1.9658 -0.2937 -1.0925
  514MOL0     H69339   4.304   1.646   6.710 -1.8673  0.0388 -0.4979
  514MOL0     H69340   4.402   1.663   6.852  1.3155 -1.9888 -1.6775
  514MOL0     H69341   4.217   1.704   7.093  0.3595  1.6324  0.4323
  514MOL0     H69342   4.004   1.788   7.202 -0.8973  0.3801  1.1255
  514MOL0     H69343   4.114   1.929   7.172  0.4211  0.9436 -1.6439
  514MOL0     H69344   3.927   2.053   7.054  0.2616  0.3256  1.0402
  514MOL0     H69345   3.902   2.018   7.224  0.5277 -0.3998 -0.6876
  514MOL0     H69346   3.759   1.817   7.153 -0.6579 -1.0877 -2.0792
  514MOL0     H69347   3.805   1.856   6.983 -1.0440 -0.7050  0.7170
  514MOL0     H69348   3.576   1.929   7.047  2.7120 -3.1788 -1.9991
  514MOL0     H69349   3.662   2.053   6.986 -4.5284 -2.5363 -2.2178
  514MOL0     H69350   3.688   2.285   7.310 -0.8545  1.3297  1.9479
  514MOL0     H69351   3.610   2.477   7.439  1.0493 -0.7463 -0.3768
  514MOL0     H69352   3.520   2.573   7.323 -0.3787  0.0869  2.2232
  514MOL0     H69353   3.433   2.494   7.464 -4.3481 -2.1381 -3.5057
  514MOL0     H69354   2.979   2.309   7.401 -0.6835  0.1049 -1.0229
  514MOL0     H69355   2.777   2.417   7.479 -0.9892  1.3781  0.4176
  514MOL0     H69356   2.557   2.634   7.156  1.1740 -3.5690 -0.4855
  514MOL0     H69357   2.488   2.495   7.225 -0.6157 -0.0694 -2.7844
  514MOL0     H69358   2.383   2.622   7.408  0.6417  2.7918  1.8820
  514MOL0     H69359   2.456   2.771   7.365 -0.4452 -1.5163  1.2888
  514MOL0     H69360   2.273   2.626   7.187  0.9692  1.0828  0.0282
  514MOL0     H69361   2.309   2.795   7.169 -0.2019  0.8457  0.3541
  514MOL0     H69362   2.176   2.679   7.405  0.7906 -1.3365 -0.5780
  514MOL0     H69363   2.214   2.855   7.384 -1.4312  0.9555  1.0363
  514MOL0     H69364   2.035   2.682   7.185 -1.5784  0.3997  0.8069
  514MOL0     H69365   2.066   2.858   7.176  5.0272 -0.0760 -1.5562
  514MOL0     H69366   1.934   2.688   7.396 -0.2396  0.6171  0.0911
  514MOL0     H69367   1.964   2.853   7.415  0.3269 -0.1331  0.0745
  514MOL0     H69368   1.800   2.794   7.168 -1.9383 -0.7689  0.2050
  514MOL0     H69369   1.820   2.941   7.268 -2.5977 -0.1554 -2.1761
  514MOL0     H69370   1.603   2.876   7.287 -2.3513 -1.7335  0.2608
  514MOL0     H69371   1.679   2.841   7.444 -0.5802  2.4196 -0.0086
  514MOL0     H69372   2.768   2.670   7.136  1.4486  0.6839 -0.3445
  514MOL0     H69373   3.016   2.586   7.081  2.6137 -3.2595  0.0048
  514MOL0     H69374   3.244   2.182   7.136 -0.5021  0.2685  1.2398
  514MOL0     H69375   3.390   2.023   7.126  0.6358  1.8715 -2.6873
  514MOL0     H69376   4.973   1.250   6.175  1.1161  1.0966 -0.9588
  514MOL0     H69377   5.095   1.257   5.949  1.7029 -1.9193  0.6259
  514MOL0     H69378   4.890   1.252   5.354  0.0023 -1.5714  3.5256
  514MOL0     H69379   5.035   1.323   5.170  3.3749  0.3887 -1.9056
  514MOL0     H69380   5.179   1.285   5.021  0.4073 -3.4129  0.8939
  514MOL0     H69381   5.318   1.388   4.994  3.8247 -3.0826 -2.3218
  514MOL0     H69382   5.356   1.217   4.845  1.3451  0.0638 -0.2241
  514MOL0     H69383   5.310   1.102   4.984  0.1271 -0.2531 -0.7301
  514MOL0     H69384   5.509   1.147   5.091  1.5998 -1.0053 -0.5327
  514MOL0     H69385   5.565   1.266   4.973  0.7413  0.1239 -1.0564
  514MOL0     H69386   5.677   1.048   4.940 -0.1642 -1.2840 -1.1860
  514MOL0     H69387   5.590   1.098   4.797  1.5655  0.4456  0.3559
  514MOL0     H69388   5.421   0.728   4.876 -1.1562 -0.4856  1.6032
  514MOL0     H69389   5.379   1.228   5.408  0.0807 -1.4974 -1.3324
  514MOL0     H69390   5.239   1.154   5.589  0.7943 -0.1139 -0.2007
  515MOL0     O69391   0.450   4.574   8.465 -0.2657 -0.4372 -0.3021
  515MOL0     C69392   0.407   4.469   8.522 -0.4205  0.2633 -0.3264
  515MOL0     O69393   0.279   4.432   8.543  0.0896  0.0266  0.7640
  515MOL0     C69394   0.190   4.513   8.480  0.1090  0.9131  0.7001
  515MOL0     C69395   0.096   4.580   8.556  0.0790 -0.5636 -0.2779
  515MOL0     C69396  -0.012   4.652   8.498 -0.2640  0.5799 -1.2397
  515MOL0     C69397  -0.034   4.649   8.359 -0.2753  0.3622  0.0810
  515MOL0     O69398  -0.148   4.697   8.303 -0.5720 -0.4991  0.3126
  515MOL0     C69399  -0.243   4.774   8.375  0.8790 -0.0715 -0.1387
  515MOL0     C69400  -0.363   4.792   8.278 -0.9392 -0.1156  0.5763
  515MOL0     C69401  -0.447   4.916   8.315 -0.5573 -0.0485  0.1816
  515MOL0     C69402  -0.524   4.892   8.444 -0.1110 -0.3694  0.1573
  515MOL0     C69403  -0.644   4.984   8.444  0.7153 -0.0726 -0.5381
  515MOL0     C69404  -0.713   4.980   8.576  0.2425  1.6478 -0.5930
  515MOL0     C69405  -0.839   5.062   8.598  0.2236 -0.4256  0.1315
  515MOL0     C69406  -0.803   5.207   8.632 -0.7360 -0.0224  0.6768
  515MOL0     N69407  -0.915   5.262   8.721  0.5204 -0.3888 -0.1253
  515MOL0     C69408  -1.051   5.281   8.692 -1.1786 -0.2376 -0.4675
  515MOL0     C69409  -1.102   5.358   8.790 -0.2678  0.2029  0.0081
  515MOL0     C69410  -1.247   5.392   8.805 -0.4081 -0.1701  0.1067
  515MOL0     C69411  -1.294   5.501   8.713  0.1211 -0.1675  0.3100
  515MOL0     C69412  -1.295   5.635   8.786 -0.6019  0.7896  0.4884
  515MOL0     C69413  -1.357   5.733   8.689  0.0111  0.2436 -0.3436
  515MOL0     O69414  -1.403   5.854   8.751  0.2909 -0.3889  0.0046
  515MOL0     C69415  -1.531   5.853   8.810 -0.2207 -0.7533 -0.4974
  515MOL0     C69416  -1.576   5.976   8.851 -0.1660 -0.4228  0.1620
  515MOL0     C69417  -1.702   6.000   8.921  0.7362  0.0365  0.1450
  515MOL0     C69418  -1.723   6.138   8.978  0.2185 -0.6117  0.9560
  515MOL0     C69419  -1.792   5.885   8.947 -0.1329  1.2524 -0.6400
  515MOL0     C69420  -1.914   5.877   9.032  0.3731 -0.0210  0.6115
  515MOL0     O69421  -1.987   5.996   9.049 -0.2400  0.9408  0.6257
  515MOL0     C69422  -2.109   6.002   9.110 -0.5494 -0.2118  0.2742
  515MOL0     C69423  -2.224   6.026   9.034 -0.0882  0.1223 -0.3596
  515MOL0     C69424  -2.348   6.036   9.100 -0.6376 -1.1423 -1.1982
  515MOL0     C69425  -2.358   6.020   9.240 -0.0511  0.2328  0.2947
  515MOL0     O69426  -2.473   6.024   9.313  0.0369  0.2278 -0.1213
  515MOL0     C69427  -2.578   6.119   9.277  0.2416 -0.1195 -0.6850
  515MOL0     C69428  -2.550   6.251   9.357 -0.0147  0.4363  0.4620
  515MOL0     C69429  -2.441   6.319   9.282  0.2800  0.2439 -0.8875
  515MOL0     C69430  -2.428   6.450   9.359  0.0498 -0.5449 -0.2418
  515MOL0     C69431  -2.309   6.537   9.307  0.9278  0.6947  0.2246
  515MOL0     C69432  -2.187   6.520   9.406 -0.2869 -0.8983  0.2222
  515MOL0     C69433  -2.050   6.572   9.344  0.3191 -0.0027 -0.6063
  515MOL0     C69434  -2.012   6.509   9.209  0.3757 -0.4607  0.1792
  515MOL0    Cl69435  -2.033   6.331   9.206  0.2628  0.3727  0.5731
  515MOL0     C69436  -2.249   6.001   9.316 -0.0546 -0.7280 -0.4612
  515MOL0     C69437  -2.122   5.994   9.253  0.6340 -0.1586  0.3926
  515MOL0     O69438  -1.939   5.772   9.087  0.8298 -0.2941  0.3675
  515MOL0     C69439  -1.737   5.766   8.912 -1.1260  0.0087 -1.1050
  515MOL0     C69440  -1.609   5.748   8.842 -0.3837  0.4962  0.3278
  515MOL0     N69441  -0.996   5.379   8.878  0.4902  0.4057 -0.4485
  515MOL0     N69442  -0.892   5.329   8.840  0.5616  0.7232  0.0681
  515MOL0     C69443   0.058   4.577   8.282 -0.8070  0.3051 -0.3502
  515MOL0     C69444   0.177   4.520   8.340  0.9663  0.8193 -0.6317
  515MOL0     C69445   0.508   4.372   8.561  0.1034  0.2486 -0.4817
  515MOL0     C69446   0.630   4.357   8.502 -1.3030  0.2731  0.2751
  515MOL0     C69447   0.724   4.250   8.535  0.1672  0.0046 -0.8802
  515MOL0     C69448   0.688   4.162   8.642 -0.0695 -0.6755 -0.5438
  515MOL0     O69449   0.764   4.065   8.696  0.2026  0.4723  1.1691
  515MOL0     C69450   0.903   4.044   8.659 -0.1046  1.1544 -0.0529
  515MOL0     C69451   0.954   3.913   8.713  0.8413 -0.4299  0.4897
  515MOL0     C69452   1.096   3.886   8.645 -0.4887 -0.1517  0.0205
  515MOL0     C69453   1.173   3.780   8.724  0.1654 -0.5762  0.3140
  515MOL0     C69454   1.104   3.652   8.725  1.3699 -0.3846  0.4998
  515MOL0     C69455   1.049   3.547   8.741  0.7562  0.1792 -0.0967
  515MOL0     C69456   0.572   4.187   8.707 -1.1621  0.3470  0.0882
  515MOL0     C69457   0.485   4.285   8.673 -0.3842  0.2452 -0.0823
  515MOL0     H69458   0.099   4.556   8.662  2.3000 -1.7213 -0.5385
  515MOL0     H69459  -0.096   4.691   8.555 -2.0003 -2.6511 -1.3603
  515MOL0     H69460  -0.282   4.719   8.461  0.3136  3.4574  2.0244
  515MOL0     H69461  -0.203   4.870   8.408  0.7776  0.9165 -2.6800
  515MOL0     H69462  -0.317   4.797   8.179 -1.2275  4.4251  0.4467
  515MOL0     H69463  -0.423   4.701   8.281  1.5331 -2.0146 -1.9856
  515MOL0     H69464  -0.379   5.002   8.325  1.3765 -1.2656 -1.5282
  515MOL0     H69465  -0.521   4.946   8.241  0.1303  3.2264  0.6563
  515MOL0     H69466  -0.556   4.789   8.432 -0.9166  0.1256 -2.4022
  515MOL0     H69467  -0.457   4.911   8.529 -2.0443 -0.0164  1.6537
  515MOL0     H69468  -0.620   5.089   8.424  0.3755  0.6159  2.3516
  515MOL0     H69469  -0.723   4.943   8.380  0.7227  0.9188 -1.2143
  515MOL0     H69470  -0.749   4.877   8.592  0.3383  1.8223  0.9002
  515MOL0     H69471  -0.632   4.996   8.648 -0.4457  1.2346  0.2976
  515MOL0     H69472  -0.918   5.053   8.524 -1.6750 -2.8363  2.2972
  515MOL0     H69473  -0.885   5.026   8.691  1.8579 -2.0475  0.3788
  515MOL0     H69474  -0.796   5.267   8.541 -2.1341  1.8385  1.7149
  515MOL0     H69475  -0.704   5.210   8.678 -1.1195 -1.4368  1.6762
  515MOL0     H69476  -1.100   5.238   8.606  0.0866 -4.6906  0.7317
  515MOL0     H69477  -1.300   5.300   8.776  0.1119 -0.5430  0.3208
  515MOL0     H69478  -1.272   5.408   8.910  4.3970 -2.2058  1.8753
  515MOL0     H69479  -1.395   5.474   8.680 -0.2178  1.1511  0.2285
  515MOL0     H69480  -1.236   5.495   8.620 -0.0738  0.9903  0.1001
  515MOL0     H69481  -1.193   5.664   8.811  0.3702 -1.3101 -0.7683
  515MOL0     H69482  -1.347   5.636   8.883  0.4254 -0.2907  1.0791
  515MOL0     H69483  -1.436   5.677   8.639  0.7317 -0.1793 -1.0295
  515MOL0     H69484  -1.283   5.762   8.613  1.0605 -0.4152  0.4079
  515MOL0     H69485  -1.503   6.057   8.843 -0.9821  0.1963 -1.6745
  515MOL0     H69486  -1.816   6.174   8.932 -0.9784 -3.9957  0.4615
  515MOL0     H69487  -1.746   6.129   9.085 -3.7621  1.5033  0.4908
  515MOL0     H69488  -1.634   6.201   8.972  1.3698 -2.3254 -1.1457
  515MOL0     H69489  -2.223   6.046   8.927  4.4872  1.3381 -0.3156
  515MOL0     H69490  -2.431   6.074   9.041  0.8589  1.2559 -1.9011
  515MOL0     H69491  -2.581   6.141   9.170 -2.6895 -1.1055 -0.8948
  515MOL0     H69492  -2.676   6.079   9.306  0.4928 -0.2764 -0.0395
  515MOL0     H69493  -2.646   6.303   9.356 -1.3143 -1.6508  3.0973
  515MOL0     H69494  -2.542   6.243   9.466  1.2056  1.1994  0.4459
  515MOL0     H69495  -2.458   6.345   9.177  0.6360  1.9563 -0.5379
  515MOL0     H69496  -2.353   6.255   9.294 -0.7565 -0.8155  1.9696
  515MOL0     H69497  -2.525   6.498   9.347  0.6947  1.0451  0.6750
  515MOL0     H69498  -2.431   6.433   9.467 -3.7271  0.0376 -0.1227
  515MOL0     H69499  -2.342   6.639   9.286 -2.7647 -0.4079  0.0319
  515MOL0     H69500  -2.282   6.507   9.205  0.1442 -1.9646  0.7176
  515MOL0     H69501  -2.205   6.575   9.498 -2.0175 -4.4850  2.2619
  515MOL0     H69502  -2.176   6.419   9.447 -0.6837 -1.9915 -2.1903
  515MOL0     H69503  -1.975   6.556   9.421  0.7503 -1.0789 -1.2310
  515MOL0     H69504  -2.056   6.681   9.331 -2.9162 -0.0930 -0.6951
  515MOL0     H69505  -1.905   6.527   9.202  0.2215  1.2177  1.4566
  515MOL0     H69506  -2.063   6.558   9.126  0.3984 -0.7691 -0.0188
  515MOL0     H69507  -2.261   5.993   9.424 -0.7867 -1.9383 -0.6160
  515MOL0     H69508  -2.027   5.981   9.304  2.2742  1.6228 -2.0084
  515MOL0     H69509  -1.787   5.673   8.935 -0.1728 -0.8131 -2.2405
  515MOL0     H69510  -1.577   5.645   8.825 -1.1499  0.1611  0.8431
  515MOL0     H69511   0.037   4.574   8.176 -1.3002  2.9549 -0.4173
  515MOL0     H69512   0.249   4.463   8.281 -1.6251  0.4033 -3.6643
  515MOL0     H69513   0.659   4.431   8.429 -1.1190 -0.1046 -0.0361
  515MOL0     H69514   0.823   4.243   8.492 -0.5761  1.9063 -3.0512
  515MOL0     H69515   0.912   4.041   8.550 -1.9422 -0.0893 -0.2128
  515MOL0     H69516   0.967   4.125   8.695  1.1932  0.6132 -1.0649
  515MOL0     H69517   0.878   3.840   8.684 -0.6655  0.0042  3.0826
  515MOL0     H69518   0.952   3.912   8.822 -2.6652  1.5362  0.5853
  515MOL0     H69519   1.161   3.974   8.648  0.0237 -0.3596 -2.7728
  515MOL0     H69520   1.091   3.851   8.542  2.0796  0.7846 -0.4941
  515MOL0     H69521   1.192   3.820   8.824 -1.2956  2.0074 -0.3493
  515MOL0     H69522   1.264   3.756   8.669  0.5857  1.5877 -0.0126
  515MOL0     H69523   1.003   3.451   8.752 -0.4000  0.9655  2.8815
  515MOL0     H69524   0.551   4.141   8.803  0.5194  2.1891  1.4023
  515MOL0     H69525   0.397   4.296   8.735 -2.9243 -2.4653 -2.8776
  516MOL0     O69526   7.525   4.004   2.962  0.7121 -0.1448 -0.1347
  516MOL0     C69527   7.599   4.054   3.047 -0.2654 -0.2389  0.6438
  516MOL0     O69528   7.558   4.122   3.156 -0.1248  0.9879 -0.0104
  516MOL0     C69529   7.426   4.129   3.174  0.7588  0.7926 -0.2524
  516MOL0     C69530   7.354   4.040   3.259 -0.6844  0.2467  0.2430
  516MOL0     C69531   7.216   4.062   3.274  0.2224  0.0056 -0.5051
  516MOL0     C69532   7.156   4.171   3.209  0.5821 -0.5943  0.0559
  516MOL0     O69533   7.018   4.197   3.217 -0.3407  1.0778 -0.0942
  516MOL0     C69534   6.930   4.104   3.287  0.6126 -0.3737 -0.9942
  516MOL0     C69535   6.782   4.116   3.257 -0.8553 -0.9581  0.4466
  516MOL0     C69536   6.713   4.251   3.284 -0.7354  0.0441  0.0993
  516MOL0     C69537   6.574   4.253   3.221 -0.3224  0.0019 -0.5254
  516MOL0     C69538   6.506   4.388   3.240 -0.1371 -0.3805 -1.1888
  516MOL0     C69539   6.444   4.426   3.382 -0.0538  0.3094  0.2952
  516MOL0     C69540   6.300   4.389   3.399 -0.3972  1.1083 -0.7273
  516MOL0     C69541   6.272   4.371   3.554  0.1289 -0.6072  0.2804
  516MOL0     N69542   6.161   4.297   3.592  0.7337 -0.6192 -0.1511
  516MOL0     C69543   6.033   4.347   3.583  1.2923 -0.4726 -1.0247
  516MOL0     C69544   5.954   4.259   3.648  0.4899 -0.1209 -0.4518
  516MOL0     C69545   5.803   4.270   3.647 -0.2847 -0.3018 -0.1624
  516MOL0     C69546   5.740   4.227   3.775  0.0457 -0.0451 -0.3117
  516MOL0     C69547   5.703   4.082   3.760  0.6659  0.6082 -0.5373
  516MOL0     C69548   5.638   4.029   3.890  0.5127  0.3776  0.4863
  516MOL0     O69549   5.533   4.111   3.938  1.1390  0.5283  0.1865
  516MOL0     C69550   5.403   4.081   3.912 -0.0973  0.5035  0.0442
  516MOL0     C69551   5.309   4.156   3.978 -0.0045 -0.0135 -1.4089
  516MOL0     C69552   5.174   4.137   3.965 -0.6217  0.4131  0.7730
  516MOL0     C69553   5.086   4.245   4.023 -0.4113 -0.9697 -0.1085
  516MOL0     C69554   5.131   4.028   3.891 -0.4715  0.0704  0.5464
  516MOL0     C69555   4.986   4.001   3.875 -0.3015  0.4850 -0.4616
  516MOL0     O69556   4.928   3.973   3.751 -0.2506 -0.0345  0.0501
  516MOL0     C69557   4.795   3.939   3.741  0.0643 -0.5779 -0.2318
  516MOL0     C69558   4.716   4.010   3.655  0.5515  0.2149  0.1799
  516MOL0     C69559   4.590   3.961   3.620 -0.4148 -0.0440  0.2459
  516MOL0     C69560   4.530   3.849   3.686  0.4471  0.6206  0.0644
  516MOL0     O69561   4.405   3.808   3.652 -0.4200  0.4964  0.7745
  516MOL0     C69562   4.321   3.733   3.743  1.1562  0.6042 -0.7645
  516MOL0     C69563   4.173   3.731   3.687  0.4840 -0.1962 -0.9945
  516MOL0     C69564   4.076   3.638   3.769  0.2328  0.3364 -0.4813
  516MOL0     C69565   4.029   3.682   3.911  0.1819 -0.2133 -0.3198
  516MOL0     C69566   3.966   3.570   3.995  1.4078 -0.0487  0.2369
  516MOL0     C69567   3.821   3.568   3.929 -0.6305 -1.3961 -0.4418
  516MOL0     C69568   3.727   3.517   4.040 -0.8194 -0.3678 -0.1525
  516MOL0     C69569   3.577   3.524   3.998  0.3171  0.1516 -0.0797
  516MOL0    Cl69570   3.510   3.694   3.993  0.3317  0.1314  0.0878
  516MOL0     C69571   4.615   3.790   3.783 -0.1562 -0.0985 -0.5442
  516MOL0     C69572   4.745   3.827   3.810 -1.0567 -0.1935  0.2853
  516MOL0     O69573   4.926   3.986   3.982 -0.6628  0.3372  0.4672
  516MOL0     C69574   5.223   3.951   3.820 -0.3966 -0.5869 -0.5269
  516MOL0     C69575   5.359   3.969   3.841  0.4738  0.2554 -0.3302
  516MOL0     N69576   6.035   4.167   3.711  0.4687 -0.4516 -0.1316
  516MOL0     N69577   6.163   4.186   3.674  1.3797  0.0351 -0.1806
  516MOL0     C69578   7.231   4.270   3.143  0.3285  0.7142  0.3501
  516MOL0     C69579   7.368   4.249   3.127  0.0889 -0.5213  0.1640
  516MOL0     C69580   7.746   4.029   3.037  0.1667  0.8932 -0.1755
  516MOL0     C69581   7.827   4.025   3.145 -0.0087 -0.1115 -0.7719
  516MOL0     C69582   7.968   4.003   3.139 -0.4225 -0.9544 -0.0189
  516MOL0     C69583   8.031   3.968   3.019 -0.2232 -0.6107  0.4052
  516MOL0     O69584   8.163   3.936   3.021  0.3293 -0.3436 -0.3162
  516MOL0     C69585   8.228   3.862   2.913  0.6662  0.7023  0.1369
  516MOL0     C69586   8.368   3.805   2.941 -0.3966 -0.1064 -0.2895
  516MOL0     C69587   8.481   3.904   2.997 -0.5424  0.1105 -0.1807
  516MOL0     C69588   8.590   3.826   3.073 -0.1551  0.1011  1.0621
  516MOL0     C69589   8.689   3.744   2.996 -0.4326 -0.7037 -0.5822
  516MOL0     C69590   8.770   3.686   2.927  0.1956 -0.1561 -0.1037
  516MOL0     C69591   7.952   3.975   2.906 -0.7414 -0.1535  0.8218
  516MOL0     C69592   7.815   4.017   2.918 -0.2217  0.0529 -0.4478
  516MOL0     H69593   7.390   3.946   3.300  1.3229 -0.1325 -2.1505
  516MOL0     H69594   7.166   3.977   3.320  2.4312  0.1321  2.3945
  516MOL0     H69595   6.960   4.000   3.273  1.6363 -0.7879  2.9950
  516MOL0     H69596   6.936   4.123   3.395  2.7496 -1.7196 -0.8135
  516MOL0     H69597   6.776   4.095   3.150  0.5895  0.2441  0.0906
  516MOL0     H69598   6.736   4.034   3.314  3.4872 -2.2918  2.5407
  516MOL0     H69599   6.714   4.266   3.392  0.5975 -1.3361  0.3203
  516MOL0     H69600   6.781   4.327   3.245  0.9056 -0.3528  2.0014
  516MOL0     H69601   6.567   4.241   3.113  0.2533  0.9846 -0.6924
  516MOL0     H69602   6.513   4.175   3.267 -0.7159 -0.4618 -1.8209
  516MOL0     H69603   6.588   4.454   3.210  0.5829  0.1745  1.7128
  516MOL0     H69604   6.421   4.388   3.171 -0.1054 -0.1406 -1.2301
  516MOL0     H69605   6.505   4.377   3.459 -0.2121 -2.5050 -1.2501
  516MOL0     H69606   6.456   4.534   3.401 -2.9408  0.6612  0.4954
  516MOL0     H69607   6.226   4.453   3.351 -1.1136  0.9400  0.1124
  516MOL0     H69608   6.276   4.285   3.374 -1.9790  0.5075  2.7237
  516MOL0     H69609   6.246   4.468   3.600 -2.2731 -0.7209 -0.7047
  516MOL0     H69610   6.360   4.329   3.602  1.3315  0.8046 -0.6055
  516MOL0     H69611   5.988   4.434   3.536 -0.1016 -1.0128 -0.7422
  516MOL0     H69612   5.772   4.373   3.627 -0.8071 -0.2388  0.9176
  516MOL0     H69613   5.766   4.199   3.572 -0.4838 -1.3700  0.9086
  516MOL0     H69614   5.658   4.297   3.796 -0.0835 -0.8796  2.2516
  516MOL0     H69615   5.816   4.227   3.853  0.2434 -2.0253 -0.4765
  516MOL0     H69616   5.798   4.034   3.733  0.9496  1.4010 -0.9625
  516MOL0     H69617   5.630   4.070   3.680  0.7347  3.4886 -1.1202
  516MOL0     H69618   5.718   4.036   3.965  0.8978 -1.8629  0.3520
  516MOL0     H69619   5.608   3.925   3.876  2.6649 -0.0468 -1.4686
  516MOL0     H69620   5.343   4.240   4.037  2.4017 -2.4884  1.0347
  516MOL0     H69621   5.051   4.228   4.126  1.7968 -0.0437  0.8727
  516MOL0     H69622   5.155   4.329   4.034  0.6143 -1.8203  0.0903
  516MOL0     H69623   5.004   4.278   3.958 -0.6072  0.3238  0.7521
  516MOL0     H69624   4.756   4.097   3.604  0.6209 -1.4632 -2.8065
  516MOL0     H69625   4.547   4.001   3.529  0.6851 -4.7980 -2.6805
  516MOL0     H69626   4.368   3.635   3.740  1.9452  0.9938 -1.7175
  516MOL0     H69627   4.323   3.780   3.842 -2.0943  0.6728 -0.6282
  516MOL0     H69628   4.130   3.831   3.675  1.3607  0.3886  0.4417
  516MOL0     H69629   4.171   3.685   3.588 -2.2230 -0.8687 -0.6941
  516MOL0     H69630   4.118   3.538   3.758  1.3746 -0.0261  4.6316
  516MOL0     H69631   3.987   3.645   3.706  0.5949 -2.1805 -1.3824
  516MOL0     H69632   4.118   3.704   3.971  0.2150  0.3006 -0.5534
  516MOL0     H69633   3.965   3.770   3.918  2.0239  1.2827 -1.1304
  516MOL0     H69634   3.957   3.615   4.095 -1.0022  1.0129 -0.3817
  516MOL0     H69635   4.008   3.469   3.999 -1.2739 -1.3851 -2.2315
  516MOL0     H69636   3.798   3.669   3.895  1.5603 -0.8380 -0.4116
  516MOL0     H69637   3.834   3.501   3.844  0.2543  1.6757 -2.8864
  516MOL0     H69638   3.743   3.576   4.131  0.4232 -1.5817  0.4398
  516MOL0     H69639   3.761   3.415   4.056 -0.6179 -0.3068 -0.1891
  516MOL0     H69640   3.512   3.458   4.055  0.9777 -0.7805 -0.3714
  516MOL0     H69641   3.573   3.493   3.893 -2.2883  3.5357 -1.1944
  516MOL0     H69642   4.580   3.699   3.831 -2.5440  0.7379 -0.5529
  516MOL0     H69643   4.799   3.758   3.874  1.1745 -0.4683 -1.7318
  516MOL0     H69644   5.179   3.864   3.771  2.0417 -1.3878 -1.4761
  516MOL0     H69645   5.417   3.898   3.782 -0.9349 -0.8582 -0.4212
  516MOL0     H69646   7.178   4.358   3.107  0.1560  0.2462 -0.5584
  516MOL0     H69647   7.419   4.330   3.076 -0.8867  0.2781  0.4213
  516MOL0     H69648   7.778   4.038   3.241  0.8182 -0.3401 -0.3080
  516MOL0     H69649   8.037   3.997   3.223  1.3347 -0.0939 -1.3387
  516MOL0     H69650   8.169   3.775   2.883 -1.0614  1.2156  1.8419
  516MOL0     H69651   8.243   3.924   2.824  1.4175  0.4525  0.0842
  516MOL0     H69652   8.403   3.763   2.846 -0.3196 -1.6452  0.3800
  516MOL0     H69653   8.358   3.717   3.005  1.8242 -0.8944 -0.9445
  516MOL0     H69654   8.439   3.976   3.067  1.4425  1.5448 -0.3771
  516MOL0     H69655   8.529   3.952   2.911 -0.7449  1.4647  0.4377
  516MOL0     H69656   8.551   3.747   3.137  3.7980 -2.3010  0.8724
  516MOL0     H69657   8.659   3.885   3.134  4.8479 -1.5875 -2.2865
  516MOL0     H69658   8.841   3.631   2.869  0.9515  0.8958 -0.2055
  516MOL0     H69659   7.991   3.963   2.806 -0.5313  0.3618  0.8398
  516MOL0     H69660   7.767   4.036   2.823 -2.7217  2.2654  1.1145
  517MOL0     O69661   7.531   9.005   9.332  0.4001  0.3872  0.3578
  517MOL0     C69662   7.618   9.081   9.364 -0.2848 -0.1364 -0.0625
  517MOL0     O69663   7.602   9.190   9.446  0.5569  0.9530  0.5653
  517MOL0     C69664   7.483   9.228   9.505  0.8767 -0.4325 -1.0800
  517MOL0     C69665   7.379   9.147   9.549  0.0407 -0.1331  0.0202
  517MOL0     C69666   7.276   9.203   9.627 -0.6636 -0.3416 -0.6605
  517MOL0     C69667   7.267   9.340   9.654 -0.6291  0.2428  0.0473
  517MOL0     O69668   7.166   9.378   9.735  0.5015 -0.0401 -0.0215
  517MOL0     C69669   7.128   9.518   9.713  0.6412  0.4608 -0.0711
  517MOL0     C69670   6.991   9.552   9.772 -1.1640 -0.5384  0.4489
  517MOL0     C69671   6.870   9.542   9.670 -0.1738  0.5184 -0.1677
  517MOL0     C69672   6.861   9.409   9.584  1.1006 -0.4401  0.0692
  517MOL0     C69673   6.743   9.390   9.498 -0.2417 -0.3508 -0.1322
  517MOL0     C69674   6.759   9.264   9.418 -0.3838  0.5655 -0.2487
  517MOL0     C69675   6.620   9.230   9.360 -0.5014 -0.8742  0.0725
  517MOL0     C69676   6.632   9.111   9.256 -1.0520  0.7945  0.3963
  517MOL0     N69677   6.717   9.142   9.134 -0.7114 -0.0262 -0.2439
  517MOL0     C69678   6.807   9.060   9.085  0.3730  0.2073 -1.1041
  517MOL0     C69679   6.866   9.130   8.985  0.3063 -0.1699  0.5563
  517MOL0     C69680   6.977   9.083   8.905 -0.5586 -1.1617  0.6751
  517MOL0     C69681   6.968   8.943   8.853 -0.6052 -0.0632  0.3231
  517MOL0     C69682   7.073   8.900   8.747 -0.1537  0.1031 -0.1679
  517MOL0     C69683   7.124   9.004   8.649 -0.5788 -0.7998 -0.1102
  517MOL0     O69684   7.204   8.938   8.543  0.0468 -0.7858 -1.0233
  517MOL0     C69685   7.336   8.981   8.555 -0.3970  0.7928  0.1953
  517MOL0     C69686   7.416   8.898   8.631 -0.2623 -0.5301 -0.4632
  517MOL0     C69687   7.555   8.902   8.620  0.0765  1.0414 -0.6470
  517MOL0     C69688   7.645   8.814   8.710 -0.4554 -0.6342 -0.6164
  517MOL0     C69689   7.617   9.001   8.542 -0.6091  0.7931 -0.0656
  517MOL0     C69690   7.763   9.006   8.531  0.3474  0.5958 -0.6875
  517MOL0     O69691   7.811   8.999   8.401 -0.4128  0.0134 -0.2414
  517MOL0     C69692   7.943   8.953   8.378 -0.3037  0.2494 -0.1051
  517MOL0     C69693   8.002   8.998   8.259  0.1260  0.7490  0.2980
  517MOL0     C69694   8.122   8.942   8.224  0.1472  0.0097  0.6553
  517MOL0     C69695   8.193   8.838   8.285 -0.1682 -1.0816 -0.3702
  517MOL0     O69696   8.314   8.794   8.237 -0.2304  0.9204 -0.8113
  517MOL0     C69697   8.394   8.722   8.336 -0.2691 -0.4862  0.1497
  517MOL0     C69698   8.537   8.705   8.276  0.7073  0.2394 -0.1661
  517MOL0     C69699   8.603   8.843   8.267  0.0753 -0.0898  0.9055
  517MOL0     C69700   8.750   8.834   8.212  0.0350  0.4305 -0.4387
  517MOL0     C69701   8.793   8.978   8.168 -0.9614  0.4131 -0.6832
  517MOL0     C69702   8.920   8.966   8.088 -0.6417 -0.3321 -0.2636
  517MOL0     C69703   8.973   9.102   8.033 -0.4287  0.7214  0.5342
  517MOL0     C69704   9.113   9.074   7.969  0.6783 -0.2200 -0.4414
  517MOL0    Cl69705   9.245   9.031   8.088 -0.2845 -0.4392  0.5436
  517MOL0     C69706   8.120   8.787   8.390  0.8244  0.7779  0.4139
  517MOL0     C69707   8.002   8.842   8.439 -0.0191  0.0554 -0.4777
  517MOL0     O69708   7.829   9.025   8.636  0.5788 -0.3868  0.3294
  517MOL0     C69709   7.539   9.100   8.486  0.8719 -0.7106  0.7161
  517MOL0     C69710   7.398   9.086   8.489 -0.5717  1.0245 -0.6401
  517MOL0     N69711   6.796   9.248   8.972 -0.3003 -0.0178 -0.2030
  517MOL0     N69712   6.722   9.262   9.069  0.0085 -0.5426 -0.7792
  517MOL0     C69713   7.377   9.419   9.615  0.7751 -0.1667  0.3601
  517MOL0     C69714   7.475   9.365   9.543 -1.0795 -0.1166  0.3097
  517MOL0     C69715   7.755   9.072   9.294 -0.2562  1.0755  1.1299
  517MOL0     C69716   7.808   8.948   9.242 -0.6339  0.1628  0.5482
  517MOL0     C69717   7.932   8.929   9.169 -0.3990 -0.6373  1.1249
  517MOL0     C69718   8.021   9.040   9.160  1.1275 -0.5416  0.3197
  517MOL0     O69719   8.142   9.022   9.093 -0.0074  0.1630  0.1249
  517MOL0     C69720   8.223   9.134   9.049 -0.1870 -0.2255 -0.7930
  517MOL0     C69721   8.349   9.098   8.971 -0.8319 -0.0287 -0.7443
  517MOL0     C69722   8.469   9.082   9.068 -0.0263  0.0980 -1.4100
  517MOL0     C69723   8.547   8.957   9.040 -0.6140  0.3831  0.1275
  517MOL0     C69724   8.690   8.960   9.071  0.1321  0.1634  0.0922
  517MOL0     C69725   8.805   8.946   9.098  0.1333  0.0820 -0.0876
  517MOL0     C69726   7.977   9.162   9.210 -0.5461 -0.1164 -0.3458
  517MOL0     C69727   7.851   9.175   9.268  0.2471 -0.7560 -0.1133
  517MOL0     H69728   7.380   9.040   9.531  1.7766 -0.8448  3.5809
  517MOL0     H69729   7.203   9.134   9.668 -0.0931 -0.8447 -0.4780
  517MOL0     H69730   7.195   9.577   9.776 -0.0471  1.5427 -0.3160
  517MOL0     H69731   7.133   9.553   9.609 -0.1940  1.1319  0.1008
  517MOL0     H69732   6.974   9.487   9.858 -0.3327 -1.4616 -0.0551
  517MOL0     H69733   7.005   9.652   9.814 -0.3465 -1.2507  1.9491
  517MOL0     H69734   6.782   9.574   9.726  1.0731  2.5683  0.7626
  517MOL0     H69735   6.871   9.623   9.596  0.9948 -0.9949 -1.8846
  517MOL0     H69736   6.947   9.415   9.517  0.6893 -1.3724 -0.5554
  517MOL0     H69737   6.868   9.324   9.653  4.2636  0.1822  0.6815
  517MOL0     H69738   6.659   9.388   9.569 -0.9627 -2.3482 -0.9629
  517MOL0     H69739   6.728   9.471   9.427  1.2805  1.4003  1.4469
  517MOL0     H69740   6.830   9.286   9.339  1.0337  0.5933  0.9913
  517MOL0     H69741   6.803   9.184   9.478  1.4013  1.9324  0.3500
  517MOL0     H69742   6.551   9.200   9.439 -0.5928  1.4614  0.9656
  517MOL0     H69743   6.580   9.316   9.307  0.4236 -0.2623  0.3382
  517MOL0     H69744   6.526   9.097   9.230 -0.0086 -1.0999 -3.5325
  517MOL0     H69745   6.669   9.024   9.311 -0.7573  0.5469 -0.1967
  517MOL0     H69746   6.834   8.961   9.121 -1.8346 -0.1374 -0.2624
  517MOL0     H69747   6.975   9.150   8.818 -2.1965 -2.0290 -0.0135
  517MOL0     H69748   7.078   9.095   8.944  0.3494 -0.3398 -1.7172
  517MOL0     H69749   6.870   8.939   8.804 -0.3394  1.6812 -0.4445
  517MOL0     H69750   6.972   8.866   8.930 -0.5291 -0.4278 -0.0430
  517MOL0     H69751   7.019   8.829   8.684 -2.5247  3.2171 -1.9436
  517MOL0     H69752   7.153   8.859   8.809  0.1115  1.3644  0.3408
  517MOL0     H69753   7.176   9.084   8.703 -3.3092  0.9022  0.1656
  517MOL0     H69754   7.044   9.054   8.594  0.0586 -1.4411 -1.6750
  517MOL0     H69755   7.369   8.825   8.696 -0.8609  0.8300  0.6790
  517MOL0     H69756   7.711   8.873   8.774  0.0886 -0.9079 -0.9222
  517MOL0     H69757   7.576   8.756   8.773  0.2394 -0.3271  0.4407
  517MOL0     H69758   7.711   8.748   8.653  0.8409 -0.9044  1.1173
  517MOL0     H69759   7.952   9.074   8.199 -2.0017  0.0798  1.1357
  517MOL0     H69760   8.155   8.987   8.130 -1.0231 -2.9839 -1.3371
  517MOL0     H69761   8.392   8.780   8.429  0.7482 -2.4985  1.5131
  517MOL0     H69762   8.343   8.626   8.346  0.3077 -1.4890 -4.3710
  517MOL0     H69763   8.590   8.639   8.346 -2.4433 -1.3170  0.9355
  517MOL0     H69764   8.545   8.661   8.176 -0.8366 -0.2150 -0.1181
  517MOL0     H69765   8.613   8.886   8.368 -1.8584  0.0500  1.0813
  517MOL0     H69766   8.536   8.893   8.196  0.2603 -3.1291 -1.5984
  517MOL0     H69767   8.811   8.806   8.299 -1.3615  2.0681  1.1561
  517MOL0     H69768   8.753   8.775   8.120 -1.3873  2.2983 -1.7616
  517MOL0     H69769   8.803   9.045   8.255  0.1313 -1.7324  0.9353
  517MOL0     H69770   8.727   9.011   8.087 -0.0192  1.0799 -1.1927
  517MOL0     H69771   9.002   8.943   8.157 -1.7158  1.9789  1.9271
  517MOL0     H69772   8.907   8.889   8.011 -1.0259  2.3406 -3.0332
  517MOL0     H69773   8.990   9.174   8.113  2.2458  1.1612 -0.3276
  517MOL0     H69774   8.898   9.142   7.964 -3.7599 -0.4535  3.1762
  517MOL0     H69775   9.146   9.164   7.917  1.8443  0.1791  0.9253
  517MOL0     H69776   9.102   8.991   7.898  0.1408 -1.1692  0.7087
  517MOL0     H69777   8.161   8.711   8.455 -0.0204 -1.1876 -1.2361
  517MOL0     H69778   7.940   8.795   8.515 -1.1582  1.1230 -0.7048
  517MOL0     H69779   7.590   9.183   8.438  1.0194 -1.3774 -0.3037
  517MOL0     H69780   7.332   9.144   8.425 -1.9407  0.6240  0.3652
  517MOL0     H69781   7.393   9.520   9.651 -1.4895  0.3463  0.0684
  517MOL0     H69782   7.555   9.432   9.515 -1.9146 -0.2320 -2.7096
  517MOL0     H69783   7.761   8.857   9.277  1.1577 -0.5973  1.0911
  517MOL0     H69784   7.948   8.839   9.110 -1.0353  1.4830 -2.6197
  517MOL0     H69785   8.156   9.197   8.989 -3.2233 -0.4076  2.0680
  517MOL0     H69786   8.237   9.207   9.129 -1.5885  1.4737 -1.9809
  517MOL0     H69787   8.377   9.180   8.904 -2.0467  2.2472  1.3595
  517MOL0     H69788   8.334   9.008   8.911  2.5649 -1.2606  0.0455
  517MOL0     H69789   8.428   9.057   9.167 -0.3381 -0.3719 -1.6546
  517MOL0     H69790   8.519   9.179   9.080 -3.0538  1.5234  0.9268
  517MOL0     H69791   8.548   8.929   8.935 -0.3941  2.2127 -0.4056
  517MOL0     H69792   8.502   8.867   9.082  0.9289 -2.1561 -3.1904
  517MOL0     H69793   8.908   8.920   9.107  0.4579  0.6210 -1.9315
  517MOL0     H69794   8.049   9.242   9.223 -1.8627  0.9016  0.9708
  517MOL0     H69795   7.836   9.274   9.311  1.5090  1.3193 -3.9715
  518MOL0     O69796   0.481   6.601   6.529 -0.5180 -0.2183 -0.0966
  518MOL0     C69797   0.534   6.656   6.624  0.5061 -0.6087 -0.8905
  518MOL0     O69798   0.461   6.724   6.727  0.0440  0.7223 -0.1051
  518MOL0     C69799   0.330   6.736   6.693  0.0518  0.2868  0.7847
  518MOL0     C69800   0.281   6.859   6.660  0.0063  0.6576 -0.5757
  518MOL0     C69801   0.133   6.875   6.648 -0.0109 -0.4422 -0.2883
  518MOL0     C69802   0.054   6.757   6.643 -1.3951 -0.9998  0.0129
  518MOL0     O69803  -0.069   6.779   6.621 -0.3690 -0.1351 -0.0226
  518MOL0     C69804  -0.131   6.705   6.512  0.7515 -0.1150  0.7165
  518MOL0     C69805  -0.122   6.764   6.369 -0.3455 -0.1063 -0.2449
  518MOL0     C69806  -0.151   6.910   6.367 -0.2131  0.6474  0.1118
  518MOL0     C69807  -0.291   6.942   6.419 -1.0794 -0.2894  0.8478
  518MOL0     C69808  -0.330   7.093   6.432 -0.7049  0.3520  0.7197
  518MOL0     C69809  -0.473   7.097   6.473 -0.4269 -0.0094 -0.0441
  518MOL0     C69810  -0.512   7.248   6.497 -0.5916  0.2554  0.8090
  518MOL0     C69811  -0.636   7.255   6.582 -0.0134 -0.1179 -0.1928
  518MOL0     N69812  -0.754   7.196   6.521  0.0657  0.1937  0.7432
  518MOL0     C69813  -0.806   7.213   6.395  0.3164 -0.7017  0.0315
  518MOL0     C69814  -0.931   7.154   6.393 -0.3410  0.3966  0.7467
  518MOL0     C69815  -1.045   7.161   6.292 -0.3885  0.3285 -0.6374
  518MOL0     C69816  -1.123   7.280   6.348  0.1016 -0.7687 -0.5190
  518MOL0     C69817  -1.203   7.354   6.238  0.2466 -0.1689  0.1608
  518MOL0     C69818  -1.335   7.279   6.183  0.1238 -0.5166  0.0010
  518MOL0     O69819  -1.437   7.272   6.286  0.0877 -1.0254  0.4085
  518MOL0     C69820  -1.560   7.222   6.235 -0.8943 -0.7920  0.3775
  518MOL0     C69821  -1.662   7.250   6.319  0.3606 -0.3243 -0.3988
  518MOL0     C69822  -1.797   7.211   6.292 -0.7345  0.3331  0.6038
  518MOL0     C69823  -1.894   7.221   6.402  0.6796 -0.2976 -0.3007
  518MOL0     C69824  -1.818   7.139   6.169  0.3528 -0.9579 -0.7277
  518MOL0     C69825  -1.954   7.107   6.114 -0.6668  0.4149 -0.7081
  518MOL0     O69826  -2.050   7.093   6.212  0.1303  0.2798 -0.6249
  518MOL0     C69827  -2.177   7.080   6.184 -0.4060  0.2713 -0.2819
  518MOL0     C69828  -2.223   6.994   6.083 -0.7427  0.1428  0.8625
  518MOL0     C69829  -2.361   6.986   6.072  0.1838 -0.1294  0.1570
  518MOL0     C69830  -2.456   7.041   6.162 -0.2388  0.4327 -0.5521
  518MOL0     O69831  -2.596   7.034   6.154 -0.9307  0.3779  0.5320
  518MOL0     C69832  -2.636   7.044   6.015  1.2465 -0.7072  0.7711
  518MOL0     C69833  -2.791   7.065   6.013  0.3396  0.4745 -0.1369
  518MOL0     C69834  -2.872   6.938   5.995 -0.4864 -0.3004 -0.3127
  518MOL0     C69835  -3.024   6.972   5.984  0.0566 -0.0801 -0.5167
  518MOL0     C69836  -3.116   6.846   5.983  0.0127 -0.1470  0.0022
  518MOL0     C69837  -3.268   6.871   5.964  0.7889 -0.8094 -0.0574
  518MOL0     C69838  -3.331   6.936   5.835  0.4282 -0.3226  0.3641
  518MOL0     C69839  -3.284   6.868   5.707 -0.4828  0.2046 -1.0190
  518MOL0    Cl69840  -3.417   6.869   5.585  0.1975 -0.3540  0.0749
  518MOL0     C69841  -2.396   7.119   6.262  0.2241 -0.0184 -0.0522
  518MOL0     C69842  -2.260   7.150   6.271 -0.3486 -0.0215  0.2146
  518MOL0     O69843  -1.972   7.101   5.994  0.0966  0.3163 -0.0451
  518MOL0     C69844  -1.714   7.122   6.082  0.1323  0.3860  0.5042
  518MOL0     C69845  -1.583   7.169   6.112  0.5674  0.2911 -0.6589
  518MOL0     N69846  -0.944   7.086   6.518 -0.8520  0.4145 -0.7047
  518MOL0     N69847  -0.842   7.119   6.594 -0.0330 -0.1631  0.2715
  518MOL0     C69848   0.112   6.630   6.670  0.1194 -0.3358  1.4691
  518MOL0     C69849   0.245   6.621   6.705  0.0809  0.3688  0.2341
  518MOL0     C69850   0.685   6.662   6.618  0.2049 -0.5704 -0.5344
  518MOL0     C69851   0.762   6.703   6.731 -0.1612  0.2046 -0.0990
  518MOL0     C69852   0.902   6.695   6.725 -0.2923 -0.2733 -0.1078
  518MOL0     C69853   0.965   6.627   6.617 -0.1720 -0.1997  0.0505
  518MOL0     O69854   1.098   6.620   6.613 -0.1182  0.4793  0.1521
  518MOL0     C69855   1.180   6.735   6.653 -0.1834 -0.2666  0.3427
  518MOL0     C69856   1.165   6.851   6.560  0.3339 -0.5590  0.2609
  518MOL0     C69857   1.272   6.957   6.596 -0.1711  0.9311  0.5335
  518MOL0     C69858   1.267   7.002   6.742  0.1508 -0.2635 -0.6161
  518MOL0     C69859   1.132   7.048   6.771 -0.6898 -0.2752 -0.3955
  518MOL0     C69860   1.020   7.080   6.781  0.4708 -0.8579 -0.4635
  518MOL0     C69861   0.889   6.566   6.513  1.0351  0.0745 -0.2276
  518MOL0     C69862   0.747   6.579   6.516  0.5566  0.1427  0.2739
  518MOL0     H69863   0.347   6.945   6.659  0.1686  0.6241  1.9149
  518MOL0     H69864   0.083   6.971   6.638  2.2956  1.0719  1.5440
  518MOL0     H69865  -0.084   6.607   6.507 -2.4966 -1.9296  2.7320
  518MOL0     H69866  -0.237   6.699   6.540  0.1590  2.2665 -0.6969
  518MOL0     H69867  -0.029   6.740   6.316 -1.2747  0.0996 -2.0561
  518MOL0     H69868  -0.197   6.713   6.308 -0.2969 -1.0317  0.4535
  518MOL0     H69869  -0.076   6.969   6.421 -0.8773  2.4353 -0.8306
  518MOL0     H69870  -0.137   6.947   6.265 -1.1483  1.7405  0.3542
  518MOL0     H69871  -0.361   6.880   6.363  0.1400 -0.0638 -1.0256
  518MOL0     H69872  -0.302   6.903   6.520 -2.3515  0.8619  1.1725
  518MOL0     H69873  -0.250   7.134   6.494 -0.4390 -0.5702  0.9977
  518MOL0     H69874  -0.321   7.142   6.334  1.9245  1.5755  1.4759
  518MOL0     H69875  -0.522   7.038   6.396 -0.2378 -0.7483  0.3926
  518MOL0     H69876  -0.486   7.043   6.567 -4.1699  1.3899  0.4198
  518MOL0     H69877  -0.429   7.301   6.546  0.3280 -1.0401  0.6749
  518MOL0     H69878  -0.535   7.290   6.399 -2.7014  2.5462  2.1436
  518MOL0     H69879  -0.669   7.354   6.614 -1.0738 -1.3133  2.7689
  518MOL0     H69880  -0.615   7.207   6.679 -0.4658  1.6927  0.8528
  518MOL0     H69881  -0.756   7.261   6.312 -0.4518  2.0539  1.0681
  518MOL0     H69882  -1.013   7.192   6.192  0.7406  0.7383 -0.1636
  518MOL0     H69883  -1.097   7.065   6.291  2.2261 -1.2532  1.4747
  518MOL0     H69884  -1.059   7.356   6.393  0.8067 -1.4932 -0.2592
  518MOL0     H69885  -1.189   7.237   6.424 -1.1953  4.4572  1.7507
  518MOL0     H69886  -1.142   7.372   6.149 -3.1964 -0.8349 -2.5721
  518MOL0     H69887  -1.246   7.447   6.276  0.5251  0.1749 -0.3537
  518MOL0     H69888  -1.306   7.175   6.166 -1.5846 -1.4076  2.0445
  518MOL0     H69889  -1.361   7.324   6.087 -0.1522  0.9356  0.7253
  518MOL0     H69890  -1.639   7.306   6.410  2.8662 -0.3403 -0.9450
  518MOL0     H69891  -1.940   7.126   6.432 -0.2121  0.5188  1.0390
  518MOL0     H69892  -1.864   7.265   6.498 -1.9016 -1.2370  1.0151
  518MOL0     H69893  -1.968   7.294   6.369  1.2868  0.9567  0.9657
  518MOL0     H69894  -2.154   6.924   6.036  0.7680 -0.0030  3.1005
  518MOL0     H69895  -2.404   6.918   5.999 -1.9950 -1.2090  2.3070
  518MOL0     H69896  -2.594   7.138   5.979 -1.9357  0.6690  0.2938
  518MOL0     H69897  -2.626   6.950   5.959 -0.2941  0.2713 -1.3039
  518MOL0     H69898  -2.823   7.117   6.104 -2.7938 -1.4342  0.0042
  518MOL0     H69899  -2.808   7.126   5.924 -0.4638  2.4288  1.2641
  518MOL0     H69900  -2.846   6.870   6.077  0.9890 -0.6541 -1.0287
  518MOL0     H69901  -2.844   6.883   5.904 -0.1873 -0.8139  0.0822
  518MOL0     H69902  -3.046   7.016   6.082  1.0167  1.0301 -0.7811
  518MOL0     H69903  -3.048   7.028   5.894  1.5513 -1.9932 -2.2123
  518MOL0     H69904  -3.121   6.810   6.086 -0.8147  2.3840  0.9173
  518MOL0     H69905  -3.081   6.775   5.907  1.3934 -0.0355  0.5204
  518MOL0     H69906  -3.321   6.780   5.995 -1.1405  0.4966  0.6026
  518MOL0     H69907  -3.295   6.942   6.042 -2.0594 -1.6100 -0.2130
  518MOL0     H69908  -3.307   7.042   5.832 -2.2452  0.3495 -0.1971
  518MOL0     H69909  -3.441   6.929   5.836  0.0343  2.3050 -3.2576
  518MOL0     H69910  -3.258   6.767   5.739  2.6114  0.7479 -1.4786
  518MOL0     H69911  -3.202   6.918   5.655  0.6438 -0.0277  0.4614
  518MOL0     H69912  -2.466   7.157   6.336 -1.7856 -2.1039 -0.7669
  518MOL0     H69913  -2.217   7.223   6.339  2.7055  1.8060 -3.3384
  518MOL0     H69914  -1.724   7.077   5.984 -1.3542  0.3075  0.6757
  518MOL0     H69915  -1.501   7.153   6.043  0.0495 -0.5060 -1.1035
  518MOL0     H69916   0.045   6.545   6.667 -0.8010  0.4052  0.4134
  518MOL0     H69917   0.295   6.529   6.735 -2.3752 -1.2949 -0.4514
  518MOL0     H69918   0.714   6.751   6.816  2.5049  2.5168  0.2744
  518MOL0     H69919   0.970   6.725   6.805  0.7535  1.3085 -1.5034
  518MOL0     H69920   1.183   6.761   6.759  1.3036  2.0642 -0.1975
  518MOL0     H69921   1.285   6.708   6.639 -0.4310  0.0026 -2.7006
  518MOL0     H69922   1.068   6.902   6.562  0.2975 -0.5514 -0.9363
  518MOL0     H69923   1.166   6.816   6.457 -4.3671  0.9662 -0.5635
  518MOL0     H69924   1.264   7.038   6.523 -1.4651 -0.9473 -1.5640
  518MOL0     H69925   1.372   6.913   6.586 -0.8725 -0.5033 -0.6560
  518MOL0     H69926   1.327   7.092   6.760 -1.3598  0.2978  1.9635
  518MOL0     H69927   1.303   6.931   6.817  0.7676  1.1791  0.5045
  518MOL0     H69928   0.936   7.147   6.783  1.5975  0.6156 -1.2910
  518MOL0     H69929   0.936   6.500   6.441 -0.4451 -1.6572  0.3051
  518MOL0     H69930   0.698   6.523   6.437  0.6901 -0.9363  0.9426
  519MOL0     O69931   8.476   8.240   2.014 -0.1819  0.1224  0.1921
  519MOL0     C69932   8.553   8.237   2.109 -0.6815 -0.0074 -0.0428
  519MOL0     O69933   8.512   8.234   2.244 -0.1669 -0.4492 -0.4978
  519MOL0     C69934   8.379   8.226   2.271  0.6468  0.5226 -0.0367
  519MOL0     C69935   8.280   8.322   2.222  0.1977  0.5367 -0.5588
  519MOL0     C69936   8.139   8.292   2.243  0.5529  0.2039 -0.6332
  519MOL0     C69937   8.100   8.180   2.316  0.3675 -0.0326  0.7557
  519MOL0     O69938   7.964   8.175   2.328 -0.0008  0.1848 -0.3925
  519MOL0     C69939   7.909   8.099   2.431 -0.0192  0.5611 -0.2818
  519MOL0     C69940   7.761   8.135   2.456  0.6280 -0.0368 -0.6930
  519MOL0     C69941   7.666   8.143   2.329 -0.4320 -0.5567 -0.4430
  519MOL0     C69942   7.520   8.154   2.379 -0.0517 -0.5882  1.2639
  519MOL0     C69943   7.447   8.221   2.264 -0.6408  0.5101 -0.3596
  519MOL0     C69944   7.299   8.224   2.266 -0.0693  0.5300  0.8994
  519MOL0     C69945   7.239   8.287   2.145  0.6811  0.2703 -0.4144
  519MOL0     C69946   7.088   8.308   2.146  0.2783 -0.5960  0.2605
  519MOL0     N69947   7.051   8.394   2.257  0.3795  0.4681 -0.2646
  519MOL0     C69948   7.017   8.356   2.386  0.1151  0.3125  0.3113
  519MOL0     C69949   6.993   8.469   2.448  0.8598  0.3431  0.1168
  519MOL0     C69950   6.990   8.463   2.598 -0.5972 -0.7309  0.9933
  519MOL0     C69951   6.860   8.522   2.644 -0.6321  0.4996 -0.3474
  519MOL0     C69952   6.743   8.428   2.616 -0.3387  0.7047 -0.2611
  519MOL0     C69953   6.623   8.498   2.673  0.3868  0.6012  0.3173
  519MOL0     O69954   6.510   8.416   2.616 -0.5719 -0.1710 -0.4834
  519MOL0     C69955   6.389   8.439   2.654  0.2201 -0.1488  0.0047
  519MOL0     C69956   6.286   8.372   2.577  0.0521 -0.3753  1.0763
  519MOL0     C69957   6.151   8.405   2.600  0.8439  0.0851  0.5366
  519MOL0     C69958   6.062   8.321   2.519  0.3376  1.0291 -0.5627
  519MOL0     C69959   6.121   8.506   2.697 -0.4895  0.1753  0.9869
  519MOL0     C69960   5.982   8.549   2.715 -0.4571  0.2422 -0.6590
  519MOL0     O69961   5.890   8.456   2.745  0.1344  0.7893  1.2290
  519MOL0     C69962   5.751   8.467   2.747  0.7307  0.2332 -0.6503
  519MOL0     C69963   5.682   8.342   2.774  0.2360 -0.9249  0.3324
  519MOL0     C69964   5.543   8.340   2.796  0.8014 -1.0645  0.3202
  519MOL0     C69965   5.470   8.459   2.779  0.1324 -0.3449  0.0833
  519MOL0     O69966   5.339   8.456   2.794  0.9403  0.2259 -0.1793
  519MOL0     C69967   5.247   8.542   2.725 -1.0463  1.0317  0.3066
  519MOL0     C69968   5.110   8.466   2.724  0.2296  0.0620  0.2949
  519MOL0     C69969   5.004   8.540   2.635 -0.1410 -0.5110 -1.2591
  519MOL0     C69970   4.858   8.507   2.673  0.0271 -0.0923  0.1131
  519MOL0     C69971   4.751   8.609   2.620  0.6376 -0.1043  0.2298
  519MOL0     C69972   4.595   8.551   2.628 -0.1876 -0.7697 -0.0596
  519MOL0     C69973   4.550   8.500   2.772  0.3450  0.3466  0.8773
  519MOL0     C69974   4.408   8.437   2.773  0.1462 -0.2047  0.2337
  519MOL0    Cl69975   4.274   8.568   2.778 -0.2408 -0.2661 -0.2434
  519MOL0     C69976   5.542   8.580   2.766  0.3767  0.2952  1.3330
  519MOL0     C69977   5.675   8.582   2.741 -0.4485  0.9455 -0.0881
  519MOL0     O69978   5.965   8.670   2.726 -0.3057  0.1539  0.6409
  519MOL0     C69979   6.222   8.556   2.777  0.2470 -0.0187  0.5140
  519MOL0     C69980   6.352   8.524   2.750 -0.3314 -0.2298 -0.1129
  519MOL0     N69981   7.001   8.577   2.355  0.1019 -0.2391 -0.3919
  519MOL0     N69982   7.046   8.528   2.242 -0.0070 -0.9624  0.5289
  519MOL0     C69983   8.198   8.094   2.370 -0.1304  0.9545 -0.7521
  519MOL0     C69984   8.343   8.118   2.351  0.5997  0.7823  1.1069
  519MOL0     C69985   8.700   8.213   2.085  0.8417  0.0884  0.6278
  519MOL0     C69986   8.782   8.146   2.175 -0.8153 -0.1432  0.4313
  519MOL0     C69987   8.922   8.133   2.159  0.2901 -0.2627 -0.3254
  519MOL0     C69988   8.984   8.193   2.049 -0.3806 -0.8796  0.0239
  519MOL0     O69989   9.118   8.180   2.030  0.9406  0.3808 -0.2719
  519MOL0     C69990   9.186   8.213   1.907  0.5677  0.0023 -0.9639
  519MOL0     C69991   9.306   8.115   1.893 -0.0138 -0.8128 -0.5309
  519MOL0     C69992   9.385   8.082   2.022 -0.5257 -0.0618  0.2697
  519MOL0     C69993   9.540   8.073   2.004  0.1132 -0.5489  0.4401
  519MOL0     C69994   9.587   8.035   2.137 -0.8600  0.7122  0.3594
  519MOL0     C69995   9.631   8.005   2.247  0.1579  0.5556  0.5886
  519MOL0     C69996   8.906   8.261   1.952 -0.1361  0.1092  0.5252
  519MOL0     C69997   8.764   8.271   1.969 -0.1607  0.5146  0.3319
  519MOL0     H69998   8.302   8.411   2.164  0.0813 -0.4754 -2.2603
  519MOL0     H69999   8.052   8.341   2.202  0.3372  0.7176  0.4024
  519MOL0     H70000   7.905   7.997   2.391  2.5054  2.0861 -5.2632
  519MOL0     H70001   7.974   8.097   2.519  0.5583  0.3864 -0.7037
  519MOL0     H70002   7.716   8.070   2.531  0.6711  0.4919 -0.1973
  519MOL0     H70003   7.767   8.235   2.501 -0.4374 -0.8196  1.3098
  519MOL0     H70004   7.688   8.236   2.275 -1.4405  0.2225  0.4558
  519MOL0     H70005   7.682   8.050   2.273  2.2422  0.2059 -1.0731
  519MOL0     H70006   7.487   8.052   2.401 -0.4401 -0.6560  0.4216
  519MOL0     H70007   7.508   8.197   2.479 -1.9260 -1.4472  1.4457
  519MOL0     H70008   7.487   8.322   2.253 -0.3356  0.3853 -0.4149
  519MOL0     H70009   7.476   8.163   2.175 -0.0582 -1.0306  0.7915
  519MOL0     H70010   7.267   8.119   2.262  0.5531  0.3728 -0.5747
  519MOL0     H70011   7.263   8.274   2.356 -2.1381 -1.7615  1.4727
  519MOL0     H70012   7.289   8.383   2.134  3.3080 -1.2987 -4.1792
  519MOL0     H70013   7.270   8.227   2.060  1.7580  1.5341 -0.9414
  519MOL0     H70014   7.041   8.210   2.142  1.5876 -1.2304 -0.2520
  519MOL0     H70015   7.068   8.354   2.049 -3.8841 -2.1826  0.1690
  519MOL0     H70016   7.017   8.252   2.420  0.0537  0.0069 -0.6067
  519MOL0     H70017   6.998   8.368   2.651 -1.2818 -0.8689  0.8496
  519MOL0     H70018   7.072   8.521   2.642  1.5652 -2.4342 -0.5595
  519MOL0     H70019   6.838   8.612   2.586 -0.0691  0.9517  0.1140
  519MOL0     H70020   6.868   8.555   2.748 -0.3031 -0.9504  0.1115
  519MOL0     H70021   6.762   8.339   2.677  0.4732  0.3404 -1.0227
  519MOL0     H70022   6.739   8.403   2.510  0.2714 -4.0846  0.6255
  519MOL0     H70023   6.618   8.601   2.636 -1.8430  0.4146 -0.0599
  519MOL0     H70024   6.628   8.489   2.781 -0.9116  1.3722  0.4626
  519MOL0     H70025   6.321   8.296   2.507 -0.4038  0.8874 -0.5673
  519MOL0     H70026   6.023   8.234   2.572  1.8528  0.1339 -0.8787
  519MOL0     H70027   5.977   8.389   2.505  0.4688  2.2005  3.3162
  519MOL0     H70028   6.105   8.282   2.426 -2.2640 -1.8063 -0.7531
  519MOL0     H70029   5.747   8.256   2.787  1.6818 -0.0451 -0.7381
  519MOL0     H70030   5.489   8.253   2.832 -0.4530 -1.0065 -1.3087
  519MOL0     H70031   5.240   8.644   2.764  3.3759  1.9182 -0.6979
  519MOL0     H70032   5.290   8.547   2.625  2.5664 -0.1576  1.6468
  519MOL0     H70033   5.120   8.363   2.690  1.3677  0.6335 -1.1672
  519MOL0     H70034   5.074   8.469   2.828  1.1769  3.1280  0.6304
  519MOL0     H70035   5.023   8.524   2.528  0.9332 -2.8296 -0.7913
  519MOL0     H70036   5.024   8.644   2.662 -0.4194 -1.0225  1.1308
  519MOL0     H70037   4.834   8.405   2.643 -0.7578 -0.6506  2.4265
  519MOL0     H70038   4.854   8.503   2.783  0.5555 -2.0861  0.0948
  519MOL0     H70039   4.774   8.641   2.518  3.7757 -3.1605 -0.2311
  519MOL0     H70040   4.753   8.701   2.678 -2.5647 -0.2712  0.7973
  519MOL0     H70041   4.528   8.631   2.596 -2.0706 -1.8285  1.0657
  519MOL0     H70042   4.584   8.470   2.554  4.6365 -0.9601 -0.9467
  519MOL0     H70043   4.550   8.586   2.839 -0.2235  0.5238  0.6517
  519MOL0     H70044   4.621   8.428   2.814  0.0057 -0.7926 -0.4330
  519MOL0     H70045   4.394   8.367   2.856  3.2847  1.8755  2.7692
  519MOL0     H70046   4.396   8.387   2.676 -3.4727  0.0741  0.4014
  519MOL0     H70047   5.482   8.668   2.745 -0.2469 -0.5829 -0.8222
  519MOL0     H70048   5.732   8.673   2.722  1.1980 -0.4122 -2.0273
  519MOL0     H70049   6.195   8.622   2.859 -0.0884 -0.9783  1.1999
  519MOL0     H70050   6.431   8.582   2.796 -1.4760  0.4827  1.0271
  519MOL0     H70051   8.174   8.008   2.430  0.4078  1.4818  0.2403
  519MOL0     H70052   8.411   8.051   2.402  0.6142 -1.4424 -1.6018
  519MOL0     H70053   8.747   8.101   2.268 -0.3558  1.9794  1.6948
  519MOL0     H70054   8.974   8.081   2.238  3.2455  0.9927 -1.2991
  519MOL0     H70055   9.124   8.201   1.818 -0.5615 -0.5077 -0.1410
  519MOL0     H70056   9.223   8.316   1.910  1.4581 -0.3250  0.2149
  519MOL0     H70057   9.367   8.167   1.819 -0.2315  2.7592  1.5352
  519MOL0     H70058   9.263   8.024   1.851 -0.4574  0.7388 -3.6812
  519MOL0     H70059   9.334   7.993   2.058 -2.2929  1.0987  0.7720
  519MOL0     H70060   9.374   8.157   2.101 -0.4004 -0.4408  0.6464
  519MOL0     H70061   9.579   8.167   1.964  1.1056 -1.9411 -2.0716
  519MOL0     H70062   9.575   7.996   1.935  3.5865 -1.0546  2.5348
  519MOL0     H70063   9.665   7.977   2.345  2.4045 -3.4859 -1.0944
  519MOL0     H70064   8.946   8.305   1.861 -0.2396 -0.2455  0.3058
  519MOL0     H70065   8.696   8.317   1.898 -0.2141  1.6963  1.1240
  520MOL0     O70066   9.059   2.067   7.374  0.4950 -0.0736  0.6399
  520MOL0     C70067   9.097   2.180   7.371 -0.2014 -0.3454 -0.1249
  520MOL0     O70068   9.025   2.288   7.417 -0.1312  0.9835  0.5673
  520MOL0     C70069   8.891   2.289   7.429  0.6177 -0.3526 -0.0691
  520MOL0     C70070   8.858   2.402   7.502 -0.1725  0.0739 -0.0067
  520MOL0     C70071   8.719   2.419   7.524  0.0437  0.8596 -0.2981
  520MOL0     C70072   8.625   2.324   7.492  0.5807 -0.3824  0.2908
  520MOL0     O70073   8.493   2.360   7.514  0.0703  0.0938  0.1880
  520MOL0     C70074   8.395   2.284   7.448  0.4811 -0.2756 -0.2544
  520MOL0     C70075   8.256   2.345   7.481  1.1287  0.3733 -0.2651
  520MOL0     C70076   8.162   2.271   7.388  1.0021  0.1946 -0.1454
  520MOL0     C70077   8.016   2.260   7.434 -0.8096 -0.2627  0.2965
  520MOL0     C70078   7.938   2.161   7.348  0.0886  0.0113  0.1541
  520MOL0     C70079   7.787   2.185   7.357  0.1479  0.4193  0.0252
  520MOL0     C70080   7.704   2.083   7.279 -0.9479  0.5937 -0.3821
  520MOL0     C70081   7.702   2.103   7.129  0.3736 -0.1651 -0.0132
  520MOL0     N70082   7.581   2.031   7.077  0.2473  0.0179  0.6803
  520MOL0     C70083   7.586   1.909   7.009 -0.1851 -0.7822 -1.0398
  520MOL0     C70084   7.475   1.909   6.937 -0.1607  0.0890 -0.1221
  520MOL0     C70085   7.464   1.818   6.821 -0.1636  0.6298  0.8571
  520MOL0     C70086   7.478   1.890   6.686 -0.6849 -0.3557  0.1077
  520MOL0     C70087   7.449   1.797   6.571 -0.5405 -0.4875  0.9400
  520MOL0     C70088   7.462   1.866   6.436 -0.4066  0.7235 -0.5968
  520MOL0     O70089   7.395   1.993   6.449  0.6033  0.0535  0.0009
  520MOL0     C70090   7.390   2.070   6.335  0.8505 -0.1194  0.1088
  520MOL0     C70091   7.396   2.013   6.210 -0.6454 -0.0404  0.7223
  520MOL0     C70092   7.369   2.086   6.088 -0.1819  0.0267  0.1314
  520MOL0     C70093   7.365   2.000   5.964  0.1563  0.1094  0.7514
  520MOL0     C70094   7.352   2.230   6.088  0.3151 -0.1738  0.7430
  520MOL0     C70095   7.325   2.313   5.966 -0.3783  1.5412 -0.1261
  520MOL0     O70096   7.306   2.442   5.998  0.1702 -0.5312 -0.1597
  520MOL0     C70097   7.267   2.540   5.914  0.4441  0.1295  1.1287
  520MOL0     C70098   7.294   2.669   5.954 -0.0749 -0.0808  0.3208
  520MOL0     C70099   7.268   2.783   5.881 -0.3543  0.3394 -0.4153
  520MOL0     C70100   7.207   2.771   5.756  0.1911  0.1529  1.2115
  520MOL0     O70101   7.175   2.869   5.663 -0.2636 -0.2547  0.1808
  520MOL0     C70102   7.185   3.009   5.696 -0.0976 -0.3095 -0.9346
  520MOL0     C70103   7.099   3.089   5.602 -0.3843  0.1824 -0.1278
  520MOL0     C70104   7.109   3.236   5.631 -0.2038 -0.1794 -0.9447
  520MOL0     C70105   7.109   3.323   5.505  0.4954  0.3600  0.3577
  520MOL0     C70106   7.233   3.288   5.411  0.2851  0.2261 -0.9897
  520MOL0     C70107   7.278   3.400   5.311  0.1122  0.9715 -0.0401
  520MOL0     C70108   7.171   3.414   5.195 -0.1034  0.7571 -0.0925
  520MOL0     C70109   7.121   3.278   5.136 -0.3608 -0.9251 -0.9612
  520MOL0    Cl70110   7.057   3.298   4.973  0.4097 -0.1247  0.0251
  520MOL0     C70111   7.171   2.646   5.709 -0.1120 -0.8926  0.0778
  520MOL0     C70112   7.196   2.528   5.789  0.3321  0.0414 -0.4700
  520MOL0     O70113   7.334   2.267   5.857  0.0350  0.0221 -0.0908
  520MOL0     C70114   7.350   2.286   6.219  0.0527 -0.0838  0.2112
  520MOL0     C70115   7.367   2.207   6.336  0.1568 -0.7522  0.2084
  520MOL0     N70116   7.384   2.011   6.974  0.1563 -0.5960  0.1966
  520MOL0     N70117   7.458   2.085   7.052  1.0077 -0.0928  0.8408
  520MOL0     C70118   8.661   2.205   7.422  0.0718 -0.1881 -0.5950
  520MOL0     C70119   8.798   2.190   7.397 -0.3858  0.0951 -0.7160
  520MOL0     C70120   9.235   2.211   7.309 -0.3402  0.5419 -0.0655
  520MOL0     C70121   9.315   2.111   7.250  1.4220 -0.4986  0.5867
  520MOL0     C70122   9.447   2.132   7.203 -0.7176  0.0495  0.4210
  520MOL0     C70123   9.502   2.262   7.199  0.0278 -0.8006 -0.0541
  520MOL0     O70124   9.628   2.295   7.155  0.3552 -0.2860  0.3422
  520MOL0     C70125   9.710   2.181   7.118 -0.4817  0.1873  0.3129
  520MOL0     C70126   9.851   2.232   7.076  0.4292 -0.3924 -0.1969
  520MOL0     C70127   9.914   2.317   7.186 -0.1920 -0.3133 -1.1356
  520MOL0     C70128  10.061   2.347   7.172  0.0999 -0.2491 -0.5246
  520MOL0     C70129  10.159   2.229   7.154 -0.0041  0.1176 -0.0174
  520MOL0     C70130  10.256   2.154   7.141 -0.2735 -0.9031  1.0922
  520MOL0     C70131   9.413   2.365   7.244  0.1486 -0.3668  0.6944
  520MOL0     C70132   9.293   2.341   7.308 -0.1225 -0.4960  0.3871
  520MOL0     H70133   8.934   2.478   7.515 -0.1572  0.1608 -0.5647
  520MOL0     H70134   8.674   2.511   7.560 -1.3709  0.2520 -0.4798
  520MOL0     H70135   8.422   2.282   7.342 -3.9417  0.1073 -1.5761
  520MOL0     H70136   8.408   2.184   7.490  1.9288  0.7513  1.9298
  520MOL0     H70137   8.235   2.324   7.587  1.7505  1.5659  0.1052
  520MOL0     H70138   8.246   2.452   7.462  2.4165  0.5962  0.2068
  520MOL0     H70139   8.149   2.333   7.299 -5.0288  1.1599  0.9678
  520MOL0     H70140   8.200   2.174   7.354  1.8194  0.7977 -1.0018
  520MOL0     H70141   8.016   2.241   7.542  3.4293  1.7578  0.8214
  520MOL0     H70142   7.973   2.358   7.412  1.4915  0.2884 -2.2243
  520MOL0     H70143   7.965   2.183   7.244 -0.3886  2.5912  0.5237
  520MOL0     H70144   7.965   2.056   7.363 -1.5423 -0.5388 -0.5269
  520MOL0     H70145   7.763   2.168   7.463 -0.3133 -1.9219 -0.3878
  520MOL0     H70146   7.762   2.285   7.320 -1.1506 -0.1533 -0.7402
  520MOL0     H70147   7.746   1.984   7.300 -1.6869 -0.2067 -2.3881
  520MOL0     H70148   7.600   2.080   7.313 -1.4575  0.3765 -1.8787
  520MOL0     H70149   7.795   2.075   7.079  0.5789 -1.7167  1.1482
  520MOL0     H70150   7.678   2.208   7.110 -3.5833 -1.1894 -1.9027
  520MOL0     H70151   7.677   1.852   6.992  1.5872  2.3851 -3.0517
  520MOL0     H70152   7.536   1.736   6.831  0.0417  0.4725 -1.3247
  520MOL0     H70153   7.362   1.777   6.821  0.6161 -1.4210  1.5804
  520MOL0     H70154   7.581   1.925   6.683 -0.9495  0.3540 -1.1974
  520MOL0     H70155   7.410   1.975   6.692 -3.3267 -2.3200  0.3753
  520MOL0     H70156   7.349   1.758   6.592 -1.1516  0.4356 -0.1751
  520MOL0     H70157   7.523   1.716   6.567 -0.0424  0.0077 -0.1920
  520MOL0     H70158   7.406   1.800   6.369  0.5695 -0.5983 -0.1556
  520MOL0     H70159   7.558   1.887   6.386  0.2507  0.3667  0.4871
  520MOL0     H70160   7.419   1.909   6.191  1.4709  0.7165 -1.3313
  520MOL0     H70161   7.459   2.016   5.911 -0.7190  0.8229 -0.6326
  520MOL0     H70162   7.356   1.896   5.995  2.9897 -0.3284  0.4313
  520MOL0     H70163   7.291   2.012   5.885  4.7247  0.9308 -3.9015
  520MOL0     H70164   7.329   2.684   6.056 -0.2744 -0.4723  0.4453
  520MOL0     H70165   7.291   2.882   5.919 -2.4783  1.0341 -0.8016
  520MOL0     H70166   7.163   3.037   5.800  0.7888 -0.5966 -0.6614
  520MOL0     H70167   7.287   3.035   5.669 -0.0830 -1.2594 -1.8719
  520MOL0     H70168   7.146   3.058   5.508  0.1929 -5.9792  1.7414
  520MOL0     H70169   6.994   3.058   5.598 -1.3490  3.2561 -2.1374
  520MOL0     H70170   7.197   3.259   5.692 -1.0733 -0.7711  0.5951
  520MOL0     H70171   7.021   3.264   5.688 -1.0315 -1.9333 -1.2922
  520MOL0     H70172   7.015   3.320   5.449  1.0218  1.6980 -0.6197
  520MOL0     H70173   7.110   3.425   5.544  3.2109  0.6414 -0.2779
  520MOL0     H70174   7.186   3.206   5.356 -1.3020  0.2933  0.1814
  520MOL0     H70175   7.314   3.248   5.472  0.3727 -1.2996 -2.0549
  520MOL0     H70176   7.276   3.492   5.370 -2.0292  0.3729  0.9118
  520MOL0     H70177   7.375   3.376   5.265  1.1256 -2.3029  3.3051
  520MOL0     H70178   7.215   3.480   5.120  1.4391  1.2088  1.1315
  520MOL0     H70179   7.085   3.467   5.235  0.3243  2.0634 -0.8663
  520MOL0     H70180   7.048   3.232   5.203  0.3396 -0.9379 -0.1905
  520MOL0     H70181   7.210   3.218   5.118 -0.6901 -0.5672 -4.5521
  520MOL0     H70182   7.120   2.636   5.613 -2.0053 -0.4512  0.9864
  520MOL0     H70183   7.179   2.431   5.744  2.0082  0.1133 -1.3281
  520MOL0     H70184   7.329   2.392   6.233  0.6186 -0.1855  2.0943
  520MOL0     H70185   7.357   2.248   6.436  0.7034  0.7680 -0.3297
  520MOL0     H70186   8.594   2.121   7.407 -0.3697 -0.1162  0.8882
  520MOL0     H70187   8.828   2.103   7.340 -0.6417 -1.1903  1.0525
  520MOL0     H70188   9.265   2.015   7.240 -0.5603  0.2173  2.5687
  520MOL0     H70189   9.506   2.046   7.172  0.7918  1.8835 -2.2039
  520MOL0     H70190   9.724   2.117   7.205 -1.1698  0.2066  0.4438
  520MOL0     H70191   9.658   2.119   7.044  0.4392 -4.9076  3.4934
  520MOL0     H70192   9.841   2.303   6.994 -0.9060 -2.3390 -1.8434
  520MOL0     H70193   9.920   2.154   7.039  4.1139  2.5085 -0.0228
  520MOL0     H70194   9.877   2.278   7.281 -3.4372  0.1565 -2.0915
  520MOL0     H70195   9.869   2.416   7.193  2.0372  0.6466  1.3908
  520MOL0     H70196  10.092   2.404   7.260  1.9319 -0.5688 -0.9073
  520MOL0     H70197  10.079   2.410   7.084 -0.0012 -0.2586 -0.5522
  520MOL0     H70198  10.348   2.103   7.120  2.3541  3.1504  1.5209
  520MOL0     H70199   9.462   2.461   7.232  2.0838 -1.3202  0.5892
  520MOL0     H70200   9.243   2.433   7.338  0.1468 -0.3569  0.4151
  521MOL0     O70201  10.324   1.333   3.031  0.4392  0.0297 -0.1813
  521MOL0     C70202  10.401   1.320   3.127  0.0055  0.0548 -0.0037
  521MOL0     O70203  10.361   1.317   3.260  0.4551  0.7001  0.1898
  521MOL0     C70204  10.243   1.384   3.292 -0.1380 -0.2386 -0.2621
  521MOL0     C70205  10.239   1.523   3.316 -0.1544  0.7934 -0.4648
  521MOL0     C70206  10.118   1.568   3.353  0.9725 -0.9243  0.3999
  521MOL0     C70207   9.995   1.495   3.362  0.5110 -0.2713 -0.5140
  521MOL0     O70208   9.862   1.541   3.378 -0.5570  0.4022  0.1398
  521MOL0     C70209   9.840   1.675   3.338 -1.6174 -0.7116  0.2021
  521MOL0     C70210   9.691   1.693   3.351  0.1210  0.6648  1.0687
  521MOL0     C70211   9.635   1.668   3.491  0.0459  0.0352  0.8061
  521MOL0     C70212   9.486   1.669   3.494 -0.5987  0.0216 -0.0134
  521MOL0     C70213   9.455   1.640   3.644 -0.2149  0.9315  0.6433
  521MOL0     C70214   9.308   1.627   3.681  0.3135  0.6690  0.7906
  521MOL0     C70215   9.296   1.598   3.831 -0.3355  0.1693  0.4156
  521MOL0     C70216   9.304   1.442   3.851 -0.0007  0.6796 -0.1753
  521MOL0     N70217   9.167   1.388   3.813 -0.4773 -0.0644 -0.1023
  521MOL0     C70218   9.049   1.431   3.863 -0.0114  0.1466 -0.1363
  521MOL0     C70219   8.948   1.367   3.804 -0.3963  1.0556 -0.0097
  521MOL0     C70220   8.809   1.366   3.841  0.2819 -0.1838 -0.5961
  521MOL0     C70221   8.715   1.341   3.716 -0.2565  0.7995 -0.5397
  521MOL0     C70222   8.647   1.203   3.732 -0.0865 -0.4447  0.0600
  521MOL0     C70223   8.555   1.179   3.603  0.2631  0.1273 -0.0057
  521MOL0     O70224   8.479   1.297   3.563 -0.1505  0.0517  0.1472
  521MOL0     C70225   8.366   1.267   3.499 -0.0535 -0.0994 -0.0222
  521MOL0     C70226   8.366   1.269   3.362  0.2009  0.7974 -0.5212
  521MOL0     C70227   8.248   1.233   3.292 -0.9485  0.6038 -1.0085
  521MOL0     C70228   8.247   1.223   3.144 -0.3256 -0.4968 -0.4877
  521MOL0     C70229   8.136   1.189   3.354 -0.2691  0.0031 -0.0115
  521MOL0     C70230   8.010   1.139   3.292 -0.1991 -0.7487 -0.2298
  521MOL0     O70231   7.891   1.182   3.350 -0.3644  0.8381  0.2682
  521MOL0     C70232   7.773   1.138   3.296 -0.1421  0.1446  0.4265
  521MOL0     C70233   7.748   1.153   3.160 -0.2066 -0.3989  0.8832
  521MOL0     C70234   7.622   1.111   3.112  0.6064 -0.6899  0.0250
  521MOL0     C70235   7.536   1.035   3.191 -1.2274 -0.6310  0.1020
  521MOL0     O70236   7.412   1.005   3.149 -0.1795  0.7346 -0.2312
  521MOL0     C70237   7.323   1.113   3.146  1.1200 -0.4156  0.8578
  521MOL0     C70238   7.183   1.095   3.083 -0.6220  0.5709  0.3239
  521MOL0     C70239   7.207   1.075   2.933  0.6839  0.2351  0.6691
  521MOL0     C70240   7.077   1.001   2.876 -0.5643 -1.2866  0.1138
  521MOL0     C70241   7.094   0.937   2.740  0.1484  0.6105  0.6100
  521MOL0     C70242   7.177   1.014   2.632 -0.5447  0.0969  0.6294
  521MOL0     C70243   7.190   0.922   2.503 -0.5358 -0.3980  0.8200
  521MOL0     C70244   7.056   0.897   2.430  0.4491  0.2648  0.4278
  521MOL0    Cl70245   6.992   1.045   2.361  0.0143  0.3519 -0.1859
  521MOL0     C70246   7.569   1.018   3.327 -0.0234 -0.6404  0.0324
  521MOL0     C70247   7.681   1.080   3.380  0.6697 -0.0943 -0.7179
  521MOL0     O70248   8.015   1.053   3.201  0.2379  0.1505  0.2174
  521MOL0     C70249   8.134   1.193   3.499  0.2789 -0.2407  0.1083
  521MOL0     C70250   8.247   1.234   3.563 -0.2602 -0.4106  0.7207
  521MOL0     N70251   9.006   1.286   3.707  0.1774 -0.1937 -1.0946
  521MOL0     N70252   9.133   1.305   3.711 -0.3948 -0.6400 -0.8551
  521MOL0     C70253  10.006   1.356   3.330 -0.7078 -0.5474  0.2924
  521MOL0     C70254  10.131   1.306   3.296  0.1061  0.0545  0.6893
  521MOL0     C70255  10.531   1.255   3.113 -0.0089  0.3279  0.3945
  521MOL0     C70256  10.551   1.147   3.031 -0.3917  0.8676  0.5868
  521MOL0     C70257  10.675   1.071   3.027  0.5410  0.9186 -1.0360
  521MOL0     C70258  10.771   1.106   3.123  0.9660  0.1908  0.1378
  521MOL0     O70259  10.884   1.036   3.138  0.1661  0.1770 -0.1061
  521MOL0     C70260  10.905   0.915   3.065 -0.1572  1.0384  0.3907
  521MOL0     C70261  11.050   0.890   3.078  0.3720  0.7410 -0.1765
  521MOL0     C70262  11.108   0.879   3.213  0.4398 -0.4491 -0.6808
  521MOL0     C70263  11.232   0.785   3.225 -0.6095 -0.3282 -0.2224
  521MOL0     C70264  11.207   0.646   3.187 -0.5235 -0.3885 -0.7243
  521MOL0     C70265  11.175   0.535   3.153  0.2892  0.3761  0.2191
  521MOL0     C70266  10.746   1.212   3.204 -0.7506 -0.0461  0.0112
  521MOL0     C70267  10.632   1.290   3.194 -0.7292 -1.3216 -0.2840
  521MOL0     H70268  10.333   1.577   3.310 -0.2620  0.9251 -1.0211
  521MOL0     H70269  10.121   1.675   3.373 -0.7646 -0.8240  0.3082
  521MOL0     H70270   9.888   1.755   3.395 -1.1437 -2.1601  1.9498
  521MOL0     H70271   9.877   1.679   3.235  4.1755  0.8675  1.9715
  521MOL0     H70272   9.661   1.795   3.325  0.6269  0.3980 -0.7024
  521MOL0     H70273   9.655   1.624   3.274  1.7538  0.7041  0.2246
  521MOL0     H70274   9.665   1.570   3.529 -4.4419 -2.3948 -1.1934
  521MOL0     H70275   9.672   1.746   3.559  1.3054 -0.6324  0.9141
  521MOL0     H70276   9.451   1.768   3.466  2.2772  1.1277 -0.0488
  521MOL0     H70277   9.451   1.597   3.420 -3.1084  2.5922 -1.5132
  521MOL0     H70278   9.513   1.553   3.675  1.1859  2.4236  2.4950
  521MOL0     H70279   9.507   1.716   3.703  1.4360  0.1935  0.2131
  521MOL0     H70280   9.270   1.728   3.666  0.4022  0.4904 -0.7831
  521MOL0     H70281   9.249   1.555   3.623 -1.1103  0.5939  2.2495
  521MOL0     H70282   9.371   1.651   3.891 -2.4492  0.8614  2.6052
  521MOL0     H70283   9.203   1.627   3.880 -0.1697  1.3830  0.0595
  521MOL0     H70284   9.321   1.428   3.958  1.5951  2.1506 -0.1972
  521MOL0     H70285   9.383   1.398   3.790 -0.2881  1.5888 -1.2342
  521MOL0     H70286   9.034   1.494   3.951  0.7169  4.7010 -2.9460
  521MOL0     H70287   8.794   1.282   3.910 -0.2666  1.6230  1.6176
  521MOL0     H70288   8.790   1.464   3.886  0.3662 -0.9859  1.2622
  521MOL0     H70289   8.779   1.331   3.628  1.7501 -1.8966  1.0656
  521MOL0     H70290   8.636   1.416   3.727  0.3256  1.2114  1.0854
  521MOL0     H70291   8.573   1.211   3.812 -0.0538  2.6455 -0.1212
  521MOL0     H70292   8.720   1.121   3.739 -0.1582 -0.5225 -0.1128
  521MOL0     H70293   8.493   1.089   3.607 -1.4585  1.0869 -2.3866
  521MOL0     H70294   8.622   1.155   3.520  2.3570  0.7629  1.4226
  521MOL0     H70295   8.458   1.298   3.311  0.2771  0.0862 -0.7960
  521MOL0     H70296   8.172   1.283   3.092 -0.2714  0.3579  0.3821
  521MOL0     H70297   8.339   1.254   3.092 -1.3964  0.7365 -1.7390
  521MOL0     H70298   8.241   1.116   3.124  1.7745 -0.1980 -3.4915
  521MOL0     H70299   7.821   1.210   3.103 -1.8033  1.8242  0.9378
  521MOL0     H70300   7.593   1.126   3.009  0.4706  2.9044  0.4910
  521MOL0     H70301   7.301   1.142   3.250 -0.8905 -2.9323  1.2253
  521MOL0     H70302   7.368   1.197   3.092  2.2133 -1.1002  0.6900
  521MOL0     H70303   7.137   1.007   3.130 -2.0840 -0.8167 -3.3013
  521MOL0     H70304   7.127   1.187   3.103 -1.1909  0.1204  0.8877
  521MOL0     H70305   7.293   1.007   2.923  0.1852 -0.1149 -2.0431
  521MOL0     H70306   7.229   1.170   2.883 -2.7067  2.0241  2.2868
  521MOL0     H70307   7.051   0.925   2.950 -0.7830 -1.4177 -0.0945
  521MOL0     H70308   7.008   1.086   2.873  0.8462 -0.1123 -2.3651
  521MOL0     H70309   6.995   0.909   2.702  0.3878  1.8741 -1.0515
  521MOL0     H70310   7.142   0.840   2.758  1.1912  0.6496 -1.5744
  521MOL0     H70311   7.141   1.115   2.610 -0.2262  0.3050  1.0550
  521MOL0     H70312   7.274   1.032   2.678 -1.5395  1.6183  2.2612
  521MOL0     H70313   7.223   0.822   2.533  0.6685  0.1222  1.2840
  521MOL0     H70314   7.270   0.965   2.441 -1.7633  2.4523  1.0319
  521MOL0     H70315   6.992   0.845   2.502  2.8833 -0.7932  1.9548
  521MOL0     H70316   7.066   0.831   2.344  0.4123  1.1624 -0.2809
  521MOL0     H70317   7.499   0.965   3.392  0.0799 -1.1955 -0.2942
  521MOL0     H70318   7.687   1.077   3.488 -1.0008 -1.7221 -0.6284
  521MOL0     H70319   8.046   1.172   3.559  0.3279 -0.2327  0.1817
  521MOL0     H70320   8.244   1.243   3.671 -4.8587  0.6197  0.7483
  521MOL0     H70321   9.918   1.294   3.320 -1.5802  0.4075  1.7236
  521MOL0     H70322  10.150   1.205   3.261 -2.4954 -0.2137 -0.1150
  521MOL0     H70323  10.473   1.111   2.965 -1.2222 -4.9651  3.9931
  521MOL0     H70324  10.678   0.990   2.956 -0.0998 -1.3836  1.4255
  521MOL0     H70325  10.842   0.839   3.112 -1.1552 -0.3192 -2.8640
  521MOL0     H70326  10.866   0.921   2.963  1.7294  2.5537 -0.3133
  521MOL0     H70327  11.106   0.964   3.020 -0.5341  1.2402 -0.4282
  521MOL0     H70328  11.057   0.790   3.034  0.2026  1.2875 -1.4924
  521MOL0     H70329  11.029   0.842   3.279  0.3348 -1.2286 -1.2279
  521MOL0     H70330  11.132   0.982   3.239  1.4938 -0.9667  0.5196
  521MOL0     H70331  11.257   0.792   3.332  1.3985 -1.1172 -0.6032
  521MOL0     H70332  11.321   0.811   3.167 -0.8889 -1.6889 -1.3182
  521MOL0     H70333  11.171   0.432   3.126 -0.0046  0.7242 -1.1682
  521MOL0     H70334  10.825   1.253   3.266 -2.9690  2.0518  1.6796
  521MOL0     H70335  10.624   1.378   3.257 -1.5758 -2.1480  0.7798
  522MOL0     O70336   5.015   6.001   9.698  0.0380 -0.2709  1.1479
  522MOL0     C70337   5.112   5.956   9.755  0.1166 -0.1166  0.8438
  522MOL0     O70338   5.146   5.983   9.886 -0.6071  0.4383 -0.3627
  522MOL0     C70339   5.054   6.024   9.977 -0.0102  0.2750 -0.2869
  522MOL0     C70340   4.939   5.950   9.992 -0.8954 -0.4230 -0.3773
  522MOL0     C70341   4.845   5.981  10.096  0.1279  0.2619 -0.8552
  522MOL0     C70342   4.865   6.093  10.190 -0.5819  0.6601  0.8460
  522MOL0     O70343   4.761   6.126  10.270  0.0133  0.2852 -0.2060
  522MOL0     C70344   4.742   6.256  10.312 -0.8013  0.1917  0.1386
  522MOL0     C70345   4.619   6.244  10.402 -0.1855  0.1435  0.4863
  522MOL0     C70346   4.554   6.376  10.423 -0.1177  0.3610 -0.6437
  522MOL0     C70347   4.433   6.352  10.510  0.4352 -0.0920  0.0718
  522MOL0     C70348   4.367   6.481  10.556  0.7945 -0.2563  1.0854
  522MOL0     C70349   4.296   6.553  10.449 -0.7129  0.5081 -0.2683
  522MOL0     C70350   4.264   6.695  10.488 -0.0937  0.9760  0.2747
  522MOL0     C70351   4.172   6.709  10.603 -0.4393  0.1898 -0.0565
  522MOL0     N70352   4.134   6.850  10.631  0.5373  0.6778  0.6467
  522MOL0     C70353   4.047   6.912  10.550  0.2338  0.5392  0.2361
  522MOL0     C70354   4.076   7.042  10.554 -1.0821  0.4611 -0.5962
  522MOL0     C70355   4.018   7.166  10.491  0.6910 -0.0909  0.5700
  522MOL0     C70356   3.869   7.193  10.521 -0.3510  0.9557 -0.2954
  522MOL0     C70357   3.819   7.322  10.463 -0.1249  1.1009  0.6087
  522MOL0     C70358   3.693   7.359  10.534 -0.5330  0.6257 -0.4730
  522MOL0     O70359   3.633   7.476  10.478  0.3989 -0.0624 -0.3866
  522MOL0     C70360   3.510   7.501  10.525  0.6522 -0.0183  0.1277
  522MOL0     C70361   3.461   7.611  10.456  0.4949  1.2468  0.3661
  522MOL0     C70362   3.331   7.662  10.469  0.2398  0.1961 -0.4757
  522MOL0     C70363   3.277   7.784  10.398 -0.6838 -0.4345 -0.1422
  522MOL0     C70364   3.251   7.597  10.568  0.3793 -0.3664 -0.6405
  522MOL0     C70365   3.103   7.628  10.597 -0.3978  0.3545 -0.0838
  522MOL0     O70366   3.028   7.523  10.643 -0.1508 -0.0730  0.2019
  522MOL0     C70367   2.891   7.540  10.638 -0.8368  0.1788 -0.8971
  522MOL0     C70368   2.825   7.488  10.744  0.1223 -0.1876  0.7664
  522MOL0     C70369   2.680   7.483  10.744 -0.2985 -0.2760 -0.3683
  522MOL0     C70370   2.611   7.539  10.635 -0.3495 -0.2620  0.5430
  522MOL0     O70371   2.481   7.570  10.623 -0.0932 -0.0845  0.1938
  522MOL0     C70372   2.386   7.540  10.725  0.2528 -0.4435 -0.0924
  522MOL0     C70373   2.246   7.580  10.678  0.0791  0.2170  0.4460
  522MOL0     C70374   2.120   7.521  10.757  0.7782  1.0129 -0.4049
  522MOL0     C70375   1.982   7.563  10.692 -0.7523  0.6211  0.9183
  522MOL0     C70376   1.867   7.475  10.735 -0.2219  0.1369 -0.6150
  522MOL0     C70377   1.728   7.531  10.701  0.2091  0.4499 -1.0183
  522MOL0     C70378   1.623   7.451  10.783 -1.3833 -0.2577  0.1582
  522MOL0     C70379   1.467   7.497  10.780 -0.4317 -0.5188 -0.3425
  522MOL0    Cl70380   1.459   7.670  10.826  0.3308 -0.2426  0.3086
  522MOL0     C70381   2.683   7.589  10.524  0.1157  0.6471 -0.2414
  522MOL0     C70382   2.826   7.588  10.523 -0.0095 -0.5208 -0.1203
  522MOL0     O70383   3.055   7.741  10.583  0.0641  1.0379 -0.4975
  522MOL0     C70384   3.298   7.485  10.644  0.4565  0.1435  0.1179
  522MOL0     C70385   3.424   7.436  10.619 -0.7687  0.1009  0.0770
  522MOL0     N70386   4.181   7.056  10.646 -0.9648 -0.9024 -0.1005
  522MOL0     N70387   4.218   6.943  10.685  0.3697  0.3177 -0.0969
  522MOL0     C70388   4.984   6.164  10.160  0.5090 -0.5926 -0.0035
  522MOL0     C70389   5.073   6.131  10.056  0.2072 -0.2623 -0.5111
  522MOL0     C70390   5.217   5.889   9.670 -0.2037 -0.0802  0.8792
  522MOL0     C70391   5.221   5.915   9.529 -0.1558  0.0662  0.1225
  522MOL0     C70392   5.334   5.885   9.446 -0.6051 -0.3981 -0.2970
  522MOL0     C70393   5.442   5.823   9.501  0.1299 -1.2237 -0.2773
  522MOL0     O70394   5.565   5.797   9.442 -0.1493  0.5221 -0.0192
  522MOL0     C70395   5.576   5.831   9.310  0.2790 -0.1254 -0.0189
  522MOL0     C70396   5.708   5.792   9.253 -0.7614  0.0091  0.0929
  522MOL0     C70397   5.736   5.858   9.121 -1.0566  0.2572  0.8793
  522MOL0     C70398   5.653   5.798   9.003  0.6391  0.3084 -0.3366
  522MOL0     C70399   5.542   5.892   8.969  0.4216  1.1328 -0.3102
  522MOL0     C70400   5.455   5.971   8.958  0.1565 -0.0616  0.4918
  522MOL0     C70401   5.438   5.780   9.639 -0.8330 -0.4301  0.4934
  522MOL0     C70402   5.335   5.819   9.725  0.4466 -0.7443  0.4306
  522MOL0     H70403   4.923   5.871   9.920 -0.4133 -0.3008 -0.6194
  522MOL0     H70404   4.743   5.945  10.100  0.1410  0.3260  0.8405
  522MOL0     H70405   4.837   6.284  10.357 -1.1244 -1.6809  2.1732
  522MOL0     H70406   4.725   6.316  10.222 -0.6848 -2.0871 -1.4890
  522MOL0     H70407   4.552   6.189  10.335  0.9931  0.0442 -0.6573
  522MOL0     H70408   4.646   6.183  10.488 -2.7981  0.4519  1.6326
  522MOL0     H70409   4.615   6.452  10.472 -0.1370 -0.2640  0.3695
  522MOL0     H70410   4.533   6.425  10.328  1.2769 -2.0892 -2.3225
  522MOL0     H70411   4.366   6.287  10.453 -0.3844 -0.1453  1.0688
  522MOL0     H70412   4.453   6.285  10.594  0.2743 -1.6796 -1.1163
  522MOL0     H70413   4.282   6.465  10.623  1.0773  0.0521  1.5186
  522MOL0     H70414   4.449   6.536  10.604  1.1357  0.2319 -0.0228
  522MOL0     H70415   4.351   6.555  10.355  1.1179  1.7672  0.7672
  522MOL0     H70416   4.208   6.495  10.420 -3.0264  1.9085  3.2218
  522MOL0     H70417   4.350   6.758  10.510 -1.3454  3.4964 -1.4763
  522MOL0     H70418   4.218   6.744  10.401  2.4838 -0.0652 -1.8367
  522MOL0     H70419   4.233   6.681  10.689  0.4969  1.1010 -0.4152
  522MOL0     H70420   4.079   6.653  10.588 -1.5202  1.8778  0.1119
  522MOL0     H70421   3.980   6.863  10.480 -2.5972 -1.1732  3.7886
  522MOL0     H70422   4.091   7.245  10.512  0.7672 -0.1184  0.4065
  522MOL0     H70423   4.022   7.153  10.382  0.9604 -0.3618  0.6121
  522MOL0     H70424   3.877   7.182  10.629 -0.5496  0.4851 -0.3256
  522MOL0     H70425   3.808   7.112  10.481  1.0565  0.7564 -2.2073
  522MOL0     H70426   3.811   7.309  10.355  0.5337 -3.2043  0.8916
  522MOL0     H70427   3.900   7.393  10.482  1.4393 -0.7793  1.3333
  522MOL0     H70428   3.714   7.384  10.638  1.2933 -1.3892 -0.2860
  522MOL0     H70429   3.615   7.282  10.525 -1.0056  1.2290 -1.7826
  522MOL0     H70430   3.534   7.658  10.392  0.3141  1.5816  0.4016
  522MOL0     H70431   3.312   7.801  10.295 -2.2167  1.3874 -0.4175
  522MOL0     H70432   3.170   7.769  10.380 -0.9435  2.6918 -2.0658
  522MOL0     H70433   3.285   7.879  10.452 -1.0117  0.4026 -1.4908
  522MOL0     H70434   2.895   7.443  10.813  2.1311  1.2144 -0.2393
  522MOL0     H70435   2.637   7.433  10.831  2.8676 -3.3335 -0.3130
  522MOL0     H70436   2.393   7.435  10.755  0.5070  0.0190  1.5672
  522MOL0     H70437   2.410   7.604  10.811  0.0239  0.2078 -0.5053
  522MOL0     H70438   2.246   7.689  10.681  0.3320  0.3534 -2.0802
  522MOL0     H70439   2.240   7.536  10.578  1.5067  2.7514 -0.8464
  522MOL0     H70440   2.111   7.564  10.857 -1.7129  0.6970 -0.4378
  522MOL0     H70441   2.120   7.412  10.766 -0.6436  1.1616  2.2945
  522MOL0     H70442   1.965   7.666  10.725  1.0310  0.8365  1.2477
  522MOL0     H70443   2.003   7.583  10.586  1.7485 -2.6974  0.6410
  522MOL0     H70444   1.872   7.474  10.844  3.3178 -1.2706 -0.6664
  522MOL0     H70445   1.886   7.375  10.693  0.9204  1.1676 -2.7006
  522MOL0     H70446   1.731   7.636  10.732  4.0357  0.2339 -0.1229
  522MOL0     H70447   1.710   7.518  10.594  0.4418 -1.1258 -0.8991
  522MOL0     H70448   1.647   7.456  10.889 -4.3355 -0.6526  0.9366
  522MOL0     H70449   1.615   7.346  10.756 -2.8122 -0.3298  0.7844
  522MOL0     H70450   1.413   7.435  10.851  1.0389 -0.2554  1.0746
  522MOL0     H70451   1.433   7.486  10.677  0.1524  1.1910 -0.7649
  522MOL0     H70452   2.632   7.606  10.429 -0.9690  0.3011  0.2614
  522MOL0     H70453   2.879   7.615  10.432  0.5251 -1.0293  0.0356
  522MOL0     H70454   3.233   7.440  10.718  2.1511  2.5386  3.3163
  522MOL0     H70455   3.458   7.349  10.675 -1.5221 -0.8585 -0.8958
  522MOL0     H70456   5.008   6.258  10.209  0.3617 -0.4361 -0.2344
  522MOL0     H70457   5.137   6.213  10.026  1.4197 -0.8850  0.2887
  522MOL0     H70458   5.133   5.959   9.484  0.3531  1.4021  0.3899
  522MOL0     H70459   5.324   5.906   9.340  1.9175 -2.1810 -0.9723
  522MOL0     H70460   5.509   5.766   9.253  1.4192 -0.8409 -0.5978
  522MOL0     H70461   5.562   5.939   9.295 -1.0459 -0.2741  0.0435
  522MOL0     H70462   5.709   5.683   9.246 -4.0134 -0.0647 -0.6845
  522MOL0     H70463   5.788   5.821   9.322 -1.7346  2.6762  0.2349
  522MOL0     H70464   5.838   5.837   9.088 -2.2466  0.6275 -3.7270
  522MOL0     H70465   5.722   5.967   9.116 -1.2557  0.1959 -0.0389
  522MOL0     H70466   5.614   5.700   9.032  4.0369 -0.8952  0.6183
  522MOL0     H70467   5.714   5.779   8.914  1.1108  2.4980 -0.5235
  522MOL0     H70468   5.390   6.055   8.945  1.3551  0.5866 -2.1397
  522MOL0     H70469   5.534   5.738   9.666  0.9573  2.3305 -1.0831
  522MOL0     H70470   5.334   5.806   9.832 -1.1516 -1.2064  0.3771
  523MOL0     O70471   4.236  10.625   5.947 -0.1979 -0.3605  0.4840
  523MOL0     C70472   4.287  10.716   6.010  0.6953  0.2707  1.2645
  523MOL0     O70473   4.223  10.828   6.054  0.4707 -0.8252  0.2315
  523MOL0     C70474   4.085  10.833   6.043 -0.1008 -0.5314  0.3497
  523MOL0     C70475   4.041  10.950   5.973 -0.5917 -0.7581 -0.1889
  523MOL0     C70476   3.906  10.964   5.944 -0.5593 -0.0199 -0.0637
  523MOL0     C70477   3.815  10.870   5.986 -0.2007 -0.2250 -0.7300
  523MOL0     O70478   3.683  10.864   5.952 -0.8332 -0.0978 -0.5629
  523MOL0     C70479   3.616  10.992   5.954  0.3649  0.3331  0.4152
  523MOL0     C70480   3.478  10.958   6.008  0.0523 -0.2584 -0.3326
  523MOL0     C70481   3.388  11.082   5.992 -0.1961 -1.3056  0.5451
  523MOL0     C70482   3.276  11.081   6.102  0.7757 -0.2470  0.2844
  523MOL0     C70483   3.174  11.210   6.090 -0.2542  0.6137  1.2252
  523MOL0     C70484   3.043  11.180   6.160  0.5304  0.3403 -0.5424
  523MOL0     C70485   2.937  11.296   6.147 -0.5880  0.0087 -0.1719
  523MOL0     C70486   2.814  11.256   6.210  0.5285  0.0775 -0.2559
  523MOL0     N70487   2.699  11.334   6.162 -0.0031 -0.1558 -0.7714
  523MOL0     C70488   2.625  11.427   6.235  0.5450 -0.4120  0.7519
  523MOL0     C70489   2.553  11.499   6.147 -0.3779  0.2835 -0.1582
  523MOL0     C70490   2.462  11.616   6.178  0.2755 -0.2461  0.4137
  523MOL0     C70491   2.369  11.649   6.063 -0.4927  0.2065  0.3735
  523MOL0     C70492   2.288  11.775   6.101 -0.0489  0.5666  0.3564
  523MOL0     C70493   2.180  11.752   6.205  0.7643  0.2933  0.3507
  523MOL0     O70494   2.101  11.874   6.224  0.0663 -0.2570  0.0825
  523MOL0     C70495   1.985  11.875   6.299  0.2097  0.5525 -0.3430
  523MOL0     C70496   1.913  11.996   6.296 -0.2053  0.5474  1.4267
  523MOL0     C70497   1.803  12.023   6.374  0.3085  0.2732 -0.0875
  523MOL0     C70498   1.737  12.155   6.351 -0.4426 -0.4532 -0.0948
  523MOL0     C70499   1.746  11.921   6.453  0.2625  0.1583 -0.6462
  523MOL0     C70500   1.623  11.937   6.538  0.0058  0.2347 -0.1071
  523MOL0     O70501   1.605  12.051   6.605 -0.2035 -0.6708 -0.2821
  523MOL0     C70502   1.481  12.088   6.660  0.1061  0.1811  0.2523
  523MOL0     C70503   1.388  12.169   6.591  0.7766  0.2668 -0.0472
  523MOL0     C70504   1.267  12.200   6.657 -0.2349  0.2480  0.4528
  523MOL0     C70505   1.237  12.152   6.781 -0.6868  0.0577 -0.2914
  523MOL0     O70506   1.109  12.180   6.825  0.6720 -0.3691 -0.1352
  523MOL0     C70507   1.050  12.106   6.935  0.0538 -0.0722 -0.9588
  523MOL0     C70508   0.907  12.139   6.975 -0.8409  0.1949 -0.5566
  523MOL0     C70509   0.900  12.273   7.053 -0.1812 -0.5818 -0.4078
  523MOL0     C70510   0.764  12.281   7.115 -0.4382 -0.7144 -0.0795
  523MOL0     C70511   0.752  12.410   7.188 -0.6787  0.1620 -0.9729
  523MOL0     C70512   0.763  12.538   7.104  0.3061 -0.2879  0.6733
  523MOL0     C70513   0.761  12.666   7.175 -0.0104 -0.7313 -0.3213
  523MOL0     C70514   0.902  12.689   7.248 -0.4581  0.0211  0.0564
  523MOL0    Cl70515   1.025  12.726   7.122 -0.1461  0.3499  0.3666
  523MOL0     C70516   1.321  12.054   6.839  0.1981  0.4693 -0.0497
  523MOL0     C70517   1.445  12.029   6.780  0.8619  0.4418  0.1118
  523MOL0     O70518   1.544  11.849   6.535 -0.4318  0.3958  0.5223
  523MOL0     C70519   1.816  11.798   6.450  0.0369 -1.3286  0.6460
  523MOL0     C70520   1.929  11.769   6.371  0.2811 -0.5392  0.4383
  523MOL0     N70521   2.590  11.451   6.021  0.4944  0.0306  0.4274
  523MOL0     N70522   2.671  11.351   6.034 -0.7181 -0.6628  0.5590
  523MOL0     C70523   3.860  10.757   6.045 -0.2344  0.4491  0.0666
  523MOL0     C70524   3.993  10.738   6.081 -0.1424  0.0292 -0.0444
  523MOL0     C70525   4.430  10.698   6.037  0.5506  0.3476 -0.6061
  523MOL0     C70526   4.500  10.806   6.098 -0.4313 -0.0830 -0.2188
  523MOL0     C70527   4.635  10.804   6.126 -0.4672 -0.4909  0.2912
  523MOL0     C70528   4.705  10.681   6.106  0.3382  0.6642  0.0885
  523MOL0     O70529   4.842  10.663   6.134  0.4152  0.5052  0.1421
  523MOL0     C70530   4.911  10.749   6.223  0.3299  0.7353  0.7374
  523MOL0     C70531   5.056  10.699   6.244  0.2851  0.0732 -0.4507
  523MOL0     C70532   5.167  10.793   6.193 -0.1024  0.3481  0.3026
  523MOL0     C70533   5.299  10.744   6.248 -0.0960 -0.7089  0.2596
  523MOL0     C70534   5.393  10.784   6.136 -0.7486  0.0270 -0.9604
  523MOL0     C70535   5.459  10.832   6.042  0.0625  0.4681  0.1765
  523MOL0     C70536   4.634  10.567   6.054 -0.5702 -0.2730  0.4485
  523MOL0     C70537   4.499  10.575   6.024  0.5660 -0.4975  0.7126
  523MOL0     H70538   4.110  11.031   5.951 -3.1464  1.0395 -2.0567
  523MOL0     H70539   3.870  11.053   5.893 -2.4239 -1.0048 -0.5446
  523MOL0     H70540   3.663  11.067   6.018 -0.1674  2.5309 -1.6103
  523MOL0     H70541   3.617  11.035   5.853 -1.2229  0.9085  0.6235
  523MOL0     H70542   3.420  10.888   5.947  1.0227 -1.0838 -0.3218
  523MOL0     H70543   3.485  10.933   6.114 -1.5595 -1.8799 -0.5672
  523MOL0     H70544   3.451  11.164   6.025 -2.6615  0.5435  0.9814
  523MOL0     H70545   3.338  11.109   5.898 -3.6768 -2.3399  1.9238
  523MOL0     H70546   3.213  10.992   6.107  0.6968 -0.1918  0.2659
  523MOL0     H70547   3.327  11.082   6.199  2.7529  0.5897 -0.7021
  523MOL0     H70548   3.217  11.301   6.134 -0.7556  1.7196 -0.4820
  523MOL0     H70549   3.170  11.250   5.988  1.6434  1.6984  1.5302
  523MOL0     H70550   2.998  11.091   6.117  2.8960 -1.9864  1.4875
  523MOL0     H70551   3.068  11.153   6.263 -0.1609 -0.7810 -0.6528
  523MOL0     H70552   2.984  11.381   6.196  1.0376 -0.9510  0.0058
  523MOL0     H70553   2.928  11.314   6.040  0.6852 -2.1812 -0.7094
  523MOL0     H70554   2.833  11.271   6.316  0.8075 -0.6693 -0.1948
  523MOL0     H70555   2.793  11.149   6.198  1.0496 -0.2695  1.6184
  523MOL0     H70556   2.630  11.439   6.343  3.3193 -1.9902  0.8848
  523MOL0     H70557   2.404  11.583   6.265 -1.0897 -0.7292 -0.6430
  523MOL0     H70558   2.522  11.702   6.209  2.3656 -1.2795 -0.5238
  523MOL0     H70559   2.298  11.568   6.045 -0.7206  0.5724 -0.4181
  523MOL0     H70560   2.432  11.657   5.974  1.9860  3.5141  2.1754
  523MOL0     H70561   2.249  11.819   6.008 -0.6521 -1.0105 -0.1740
  523MOL0     H70562   2.361  11.853   6.124 -1.1315  1.6402  0.2759
  523MOL0     H70563   2.223  11.733   6.304  2.5517  2.9446  0.1853
  523MOL0     H70564   2.112  11.674   6.170 -0.2739  0.7427  1.3122
  523MOL0     H70565   1.944  12.072   6.225 -2.5919 -0.1703 -0.5352
  523MOL0     H70566   1.628  12.146   6.349 -0.7526  2.2908 -0.1240
  523MOL0     H70567   1.762  12.211   6.441  1.9906  1.5619 -1.8722
  523MOL0     H70568   1.778  12.213   6.268  1.6190 -2.8170 -0.8635
  523MOL0     H70569   1.405  12.214   6.494 -2.6797 -0.7552 -1.2493
  523MOL0     H70570   1.185  12.242   6.598 -3.0728 -2.3091  2.2695
  523MOL0     H70571   1.043  12.006   6.893  0.2305 -0.2343 -0.6026
  523MOL0     H70572   1.114  12.088   7.022 -0.8866 -3.8567 -0.8970
  523MOL0     H70573   0.857  12.164   6.880  1.3528  0.7972 -1.6228
  523MOL0     H70574   0.869  12.058   7.037  0.4991 -1.5424 -1.8980
  523MOL0     H70575   0.908  12.355   6.981 -0.9688 -0.4771 -0.3846
  523MOL0     H70576   0.983  12.273   7.124  0.9623  0.2116 -1.6950
  523MOL0     H70577   0.687  12.296   7.038  0.6382 -3.0251 -1.7183
  523MOL0     H70578   0.743  12.194   7.178 -0.4095 -1.5589 -1.1861
  523MOL0     H70579   0.824  12.406   7.270 -2.2614  0.8375  0.5148
  523MOL0     H70580   0.661  12.410   7.248 -0.6924 -0.9510 -0.9818
  523MOL0     H70581   0.848  12.542   7.035  0.6003 -2.0623  0.8795
  523MOL0     H70582   0.672  12.536   7.044  1.8952 -0.3396 -1.8690
  523MOL0     H70583   0.683  12.671   7.251 -1.6947 -0.3053 -2.0060
  523MOL0     H70584   0.749  12.737   7.093  1.1559 -2.4342 -2.0356
  523MOL0     H70585   0.925  12.609   7.318 -2.9543 -0.5923  0.2496
  523MOL0     H70586   0.908  12.775   7.315  2.1134 -1.1961  1.5206
  523MOL0     H70587   1.308  12.015   6.940 -0.2754  3.0444  0.9571
  523MOL0     H70588   1.513  11.980   6.848  1.4680  4.0582  2.4038
  523MOL0     H70589   1.782  11.715   6.513 -1.0401 -0.8900  0.6534
  523MOL0     H70590   1.977  11.673   6.389  1.6694  0.3187  1.5352
  523MOL0     H70591   3.788  10.682   6.078  2.6132 -2.9847 -0.8589
  523MOL0     H70592   4.005  10.656   6.150 -2.0625  0.8802  1.4004
  523MOL0     H70593   4.447  10.900   6.108 -0.7656 -0.3640  0.7557
  523MOL0     H70594   4.688  10.889   6.168 -0.4670 -1.6678  2.9208
  523MOL0     H70595   4.918  10.843   6.168  0.8543 -0.2947 -1.0669
  523MOL0     H70596   4.861  10.767   6.318  1.2491 -0.7813  1.5588
  523MOL0     H70597   5.058  10.594   6.213 -4.2319 -0.8480  1.5458
  523MOL0     H70598   5.079  10.697   6.351  1.0347  0.8397 -0.5829
  523MOL0     H70599   5.145  10.897   6.216  0.4248  0.6882 -0.6576
  523MOL0     H70600   5.164  10.801   6.084  0.1552 -0.2418  0.2463
  523MOL0     H70601   5.308  10.637   6.270  1.8805 -0.5043  0.6534
  523MOL0     H70602   5.338  10.800   6.333  0.5711  2.2198 -1.8377
  523MOL0     H70603   5.512  10.846   5.950  0.5063 -0.4581  0.2781
  523MOL0     H70604   4.680  10.469   6.062 -1.3642 -0.6787  0.1461
  523MOL0     H70605   4.458  10.479   5.993  0.5944  0.5919 -3.2103
  524MOL0     O70606  10.328   6.018  10.098 -1.1572 -0.1390  0.2788
  524MOL0     C70607  10.354   6.141  10.091 -0.6091  0.4375 -0.3565
  524MOL0     O70608  10.270   6.236  10.095  0.3778  0.2007  0.1972
  524MOL0     C70609  10.127   6.212  10.102  0.6196 -0.0022 -0.5460
  524MOL0     C70610  10.048   6.277  10.012  0.6691  0.6245  0.0458
  524MOL0     C70611   9.915   6.243  10.004  0.3656  0.1826  0.2550
  524MOL0     C70612   9.849   6.148  10.078 -0.3949  0.0607  0.2008
  524MOL0     O70613   9.716   6.125  10.060 -0.1976  0.2820  0.1588
  524MOL0     C70614   9.638   6.094  10.172 -0.2610  0.7110 -0.0162
  524MOL0     C70615   9.494   6.116  10.154 -0.2996  0.0870  0.4367
  524MOL0     C70616   9.408   6.049  10.261  0.0351  0.8701 -0.0172
  524MOL0     C70617   9.415   5.895  10.270 -0.5712  0.5019 -0.2576
  524MOL0     C70618   9.299   5.827  10.337  0.8220 -0.0813 -0.5520
  524MOL0     C70619   9.178   5.817  10.239  0.0762  0.3458 -1.0110
  524MOL0     C70620   9.066   5.741  10.298  0.6519  0.2285  0.4363
  524MOL0     C70621   8.951   5.739  10.196 -0.9799  0.1427 -0.4108
  524MOL0     N70622   8.842   5.671  10.252 -0.1763  0.3478 -0.2269
  524MOL0     C70623   8.823   5.539  10.269 -0.4943  0.5816  0.1786
  524MOL0     C70624   8.696   5.528  10.308  0.3467  0.6350  0.6333
  524MOL0     C70625   8.631   5.401  10.340  0.0260  0.0388 -0.7870
  524MOL0     C70626   8.483   5.399  10.304 -0.1231 -0.3609 -0.2153
  524MOL0     C70627   8.433   5.262  10.315  0.5458 -0.0493  0.7985
  524MOL0     C70628   8.395   5.225  10.458  0.3172 -0.1082  0.2751
  524MOL0     O70629   8.341   5.099  10.446  0.1687  0.8875 -0.2817
  524MOL0     C70630   8.427   4.988  10.442  1.1901  0.4554 -0.5931
  524MOL0     C70631   8.563   4.974  10.440 -0.8594 -0.6113 -0.2034
  524MOL0     C70632   8.610   4.844  10.407  0.3498 -0.1063  1.2827
  524MOL0     C70633   8.763   4.850  10.385  0.0790 -0.4104 -0.2272
  524MOL0     C70634   8.527   4.731  10.398 -0.0642  0.5285 -0.2804
  524MOL0     C70635   8.581   4.597  10.359 -0.2305 -0.1641 -0.1711
  524MOL0     O70636   8.487   4.494  10.365 -0.1418 -0.6580 -0.8035
  524MOL0     C70637   8.515   4.363  10.347  0.3014 -0.1372  0.6743
  524MOL0     C70638   8.555   4.314  10.220  0.0091 -0.5524  0.1481
  524MOL0     C70639   8.582   4.176  10.199  1.1187 -1.2346 -0.2560
  524MOL0     C70640   8.575   4.084  10.307 -0.1164 -0.3199 -0.5110
  524MOL0     O70641   8.601   3.951  10.299  0.1264  0.2985 -0.6558
  524MOL0     C70642   8.668   3.917  10.181  0.4712  0.1870  0.3632
  524MOL0     C70643   8.702   3.765  10.203 -0.4109 -0.6368  0.3128
  524MOL0     C70644   8.615   3.674  10.128  0.1036 -0.1740 -0.3563
  524MOL0     C70645   8.674   3.528  10.105 -0.1588 -0.9967  0.0214
  524MOL0     C70646   8.588   3.449  10.012 -0.3166  1.0347 -0.2508
  524MOL0     C70647   8.593   3.288  10.028 -0.0292  0.6045  0.1412
  524MOL0     C70648   8.520   3.266  10.165  0.6191  0.0195  0.2889
  524MOL0     C70649   8.521   3.121  10.200  0.5183  0.2138 -0.2161
  524MOL0    Cl70650   8.481   3.066  10.368 -0.3827  0.0077 -0.4570
  524MOL0     C70651   8.538   4.130  10.433 -0.2023 -0.8376 -0.4467
  524MOL0     C70652   8.507   4.266  10.456 -0.7784 -0.9865  0.7545
  524MOL0     O70653   8.697   4.580  10.322  0.8388 -0.3663  0.1289
  524MOL0     C70654   8.389   4.753  10.411  0.6977  0.0921  0.0877
  524MOL0     C70655   8.349   4.877  10.445 -0.2788  0.2263  0.3668
  524MOL0     N70656   8.645   5.645  10.333  0.2293 -0.1006  0.0382
  524MOL0     N70657   8.728   5.738  10.295 -0.1918  1.2174 -0.1833
  524MOL0     C70658   9.936   6.077  10.171 -0.1301  0.4243  0.3053
  524MOL0     C70659  10.077   6.108  10.183 -0.1460  0.5862  0.0543
  524MOL0     C70660  10.503   6.149  10.079  0.6679 -0.8976 -0.3701
  524MOL0     C70661  10.564   6.273  10.032  0.2777 -0.4776 -0.5715
  524MOL0     C70662  10.708   6.288  10.012 -0.1241 -0.2724  0.3755
  524MOL0     C70663  10.790   6.177  10.034 -0.8525 -0.2790  0.0475
  524MOL0     O70664  10.924   6.186  10.016  0.1075 -0.0040  1.0703
  524MOL0     C70665  11.004   6.072  10.009 -0.5456  0.8967  0.2992
  524MOL0     C70666  11.148   6.104   9.968 -0.0537  0.0580  0.6939
  524MOL0     C70667  11.214   6.183  10.076  0.3547  0.1330 -0.3164
  524MOL0     C70668  11.363   6.200  10.051 -0.6595  0.2431 -0.2363
  524MOL0     C70669  11.399   6.298   9.955 -0.0511 -0.4353 -0.8537
  524MOL0     C70670  11.426   6.394   9.883 -0.8801  0.6469 -0.2297
  524MOL0     C70671  10.730   6.062  10.083  0.1700  0.3450 -0.0324
  524MOL0     C70672  10.593   6.049  10.107  0.3306  0.6319  0.2008
  524MOL0     H70673  10.087   6.355   9.946 -0.2660  0.7677 -0.3577
  524MOL0     H70674   9.850   6.301   9.939 -3.8802 -3.0032  1.2251
  524MOL0     H70675   9.644   5.987  10.198 -1.1447  0.5731 -0.3653
  524MOL0     H70676   9.674   6.155  10.255 -0.3607  2.2411 -1.0651
  524MOL0     H70677   9.472   6.222  10.166 -0.1358  0.2089 -0.2911
  524MOL0     H70678   9.458   6.086  10.055 -3.4304  0.8679  1.2197
  524MOL0     H70679   9.424   6.091  10.360 -0.2867  0.1386  0.3528
  524MOL0     H70680   9.304   6.072  10.236 -0.2781 -1.0465 -0.6457
  524MOL0     H70681   9.436   5.859  10.169  1.7855  0.1415  0.2918
  524MOL0     H70682   9.510   5.877  10.322  1.4448  1.4902 -3.3335
  524MOL0     H70683   9.336   5.729  10.368 -0.0864  0.4453  2.4360
  524MOL0     H70684   9.266   5.882  10.425  2.0118  1.8016 -1.2218
  524MOL0     H70685   9.135   5.914  10.214 -1.1315  0.2630  0.5576
  524MOL0     H70686   9.206   5.768  10.145  0.6520 -1.0828 -0.1247
  524MOL0     H70687   9.097   5.637  10.307  3.8179  0.8669 -1.7315
  524MOL0     H70688   9.041   5.795  10.390  1.4752 -0.0279  0.8117
  524MOL0     H70689   8.980   5.701  10.098 -0.3989  1.4978 -0.7857
  524MOL0     H70690   8.929   5.843  10.172  0.7398  0.4726 -0.7399
  524MOL0     H70691   8.885   5.451  10.257 -2.2689 -1.2397  3.1103
  524MOL0     H70692   8.686   5.320  10.290 -2.2778 -1.5104 -0.9696
  524MOL0     H70693   8.640   5.388  10.448  0.3375 -0.1305 -0.8330
  524MOL0     H70694   8.473   5.438  10.203  0.5223 -0.1540 -0.2061
  524MOL0     H70695   8.422   5.470  10.361 -1.4642 -1.2861 -0.4594
  524MOL0     H70696   8.497   5.192  10.261  2.4119 -0.5537  3.4716
  524MOL0     H70697   8.343   5.256  10.254  2.1732 -0.9522 -1.6446
  524MOL0     H70698   8.322   5.296  10.498  2.8684  1.7362  1.9897
  524MOL0     H70699   8.485   5.228  10.519 -0.2793  0.2733  1.1539
  524MOL0     H70700   8.633   5.057  10.438  0.5077 -1.7370 -2.2077
  524MOL0     H70701   8.817   4.758  10.409  0.5901  0.4238  2.0504
  524MOL0     H70702   8.785   4.886  10.284  1.2338 -2.1235 -0.6400
  524MOL0     H70703   8.812   4.920  10.453  1.7962  0.1956 -1.9936
  524MOL0     H70704   8.545   4.379  10.133 -1.4444 -0.1813  0.5713
  524MOL0     H70705   8.595   4.149  10.095 -1.3638 -1.2542 -0.6138
  524MOL0     H70706   8.602   3.912  10.093 -0.2331 -2.1824  0.9436
  524MOL0     H70707   8.760   3.975  10.167 -0.0104  1.1417  1.0995
  524MOL0     H70708   8.806   3.760  10.169 -1.4337  1.1004 -3.5890
  524MOL0     H70709   8.707   3.746  10.310 -1.1302  3.6399  1.2964
  524MOL0     H70710   8.579   3.705  10.030 -2.7521 -4.3416 -0.8917
  524MOL0     H70711   8.526   3.651  10.187  0.5899 -1.6868 -0.1694
  524MOL0     H70712   8.771   3.544  10.056  0.6944 -1.3546  1.5355
  524MOL0     H70713   8.686   3.481  10.202 -4.2895 -1.8158  0.3192
  524MOL0     H70714   8.622   3.470   9.910 -3.1555 -2.3472 -2.1373
  524MOL0     H70715   8.483   3.478  10.021 -0.0342  2.0694 -0.1810
  524MOL0     H70716   8.530   3.253   9.945 -1.2961 -2.7406  2.2854
  524MOL0     H70717   8.693   3.247  10.016 -0.3886 -2.6578  5.3172
  524MOL0     H70718   8.418   3.306  10.176  1.4516  2.1407  0.8915
  524MOL0     H70719   8.583   3.307  10.245  0.3848 -0.4918  0.7365
  524MOL0     H70720   8.622   3.084  10.179  0.3440 -0.3643 -0.0352
  524MOL0     H70721   8.456   3.073  10.126  0.7612 -0.5239  0.0416
  524MOL0     H70722   8.534   4.047  10.503 -0.3595 -0.0270  0.5343
  524MOL0     H70723   8.478   4.293  10.557 -0.7756  4.1464 -0.3865
  524MOL0     H70724   8.322   4.673  10.380 -1.5860  0.9202  2.4190
  524MOL0     H70725   8.241   4.888  10.451 -0.1085  1.4784  1.3881
  524MOL0     H70726   9.894   6.000  10.234  1.7911 -0.0276  1.1286
  524MOL0     H70727  10.121   6.050  10.264 -0.6370 -0.1152 -0.1687
  524MOL0     H70728  10.505   6.361  10.008 -1.1176 -1.2228  0.0425
  524MOL0     H70729  10.745   6.386   9.986 -1.6507  0.7665  1.8966
  524MOL0     H70730  11.013   6.028  10.110  0.2968  1.1697  0.3533
  524MOL0     H70731  10.968   6.003   9.933 -2.2297 -1.1014  2.7361
  524MOL0     H70732  11.138   6.165   9.878 -0.1487 -1.5283 -0.3981
  524MOL0     H70733  11.208   6.014   9.952  0.1485  0.1913  0.6998
  524MOL0     H70734  11.207   6.142  10.177 -0.5678  1.1048  0.0299
  524MOL0     H70735  11.166   6.280  10.067 -2.3484 -1.0461  0.5496
  524MOL0     H70736  11.412   6.105  10.027 -0.5007 -0.1640  1.5576
  524MOL0     H70737  11.402   6.221  10.151 -1.0363  1.1540 -0.2656
  524MOL0     H70738  11.449   6.480   9.825 -1.0895  0.2635 -0.8934
  524MOL0     H70739  10.789   5.978  10.119 -0.7464 -0.3143 -0.0338
  524MOL0     H70740  10.565   5.953  10.149 -1.9065  1.5734  1.0490
  525MOL0     O70741   1.659   6.197   5.483 -0.1278 -0.4875 -0.0742
  525MOL0     C70742   1.607   6.307   5.484  0.2302 -0.4158  0.3083
  525MOL0     O70743   1.664   6.427   5.523  0.2197 -0.1939  0.3710
  525MOL0     C70744   1.790   6.443   5.578  0.4998  0.0566  0.3812
  525MOL0     C70745   1.852   6.558   5.546 -0.2308 -0.5676 -0.9251
  525MOL0     C70746   1.976   6.595   5.602  0.4200 -0.1350  0.5383
  525MOL0     C70747   2.028   6.514   5.702  0.7764  0.5958 -0.2789
  525MOL0     O70748   2.148   6.551   5.754  0.1874 -0.7487 -0.5171
  525MOL0     C70749   2.244   6.458   5.796  0.2010  0.3488 -0.1884
  525MOL0     C70750   2.367   6.532   5.857 -0.6931  0.1927  0.1748
  525MOL0     C70751   2.413   6.658   5.779  0.1912 -0.5640 -0.3181
  525MOL0     C70752   2.515   6.624   5.663  0.2186 -0.1255  0.4742
  525MOL0     C70753   2.547   6.752   5.576  0.2157 -0.0378 -0.5500
  525MOL0     C70754   2.425   6.800   5.495  0.2096 -0.1601  0.2860
  525MOL0     C70755   2.453   6.918   5.389 -0.2801 -0.0107 -0.1109
  525MOL0     C70756   2.488   6.857   5.246  0.7172  0.7257  0.7964
  525MOL0     N70757   2.462   6.947   5.126  0.2568  0.8430 -0.0085
  525MOL0     C70758   2.441   7.083   5.113  0.1505  0.2417  0.5921
  525MOL0     C70759   2.441   7.107   4.978  1.0227  0.4663  0.5160
  525MOL0     C70760   2.436   7.238   4.912  0.5121  0.3415  0.7968
  525MOL0     C70761   2.576   7.288   4.909  0.3544  0.4242  0.5725
  525MOL0     C70762   2.584   7.420   4.839 -0.6890 -0.1384  0.6440
  525MOL0     C70763   2.724   7.463   4.787 -0.2560  0.1558 -0.0844
  525MOL0     O70764   2.737   7.600   4.726  0.0749 -0.5691  0.0011
  525MOL0     C70765   2.667   7.629   4.603  0.3479 -0.1140 -0.6822
  525MOL0     C70766   2.621   7.532   4.511 -0.3928 -0.3631  0.0583
  525MOL0     C70767   2.544   7.570   4.400 -0.0922  0.5963  0.3201
  525MOL0     C70768   2.489   7.462   4.305 -0.1768 -0.1792  0.2165
  525MOL0     C70769   2.515   7.710   4.385 -0.7297 -0.2439  0.6078
  525MOL0     C70770   2.440   7.752   4.263  0.1550 -0.2613 -0.5375
  525MOL0     O70771   2.339   7.835   4.285  0.4962 -0.0386 -0.6938
  525MOL0     C70772   2.247   7.863   4.177 -0.5740 -0.3182 -0.5118
  525MOL0     C70773   2.202   7.775   4.081  0.1850 -0.6883 -0.5871
  525MOL0     C70774   2.104   7.805   3.991  1.1281  0.9172 -0.3659
  525MOL0     C70775   2.032   7.922   4.003  0.4406  0.5637 -0.5637
  525MOL0     O70776   1.949   7.948   3.891  0.0159  0.8094 -0.1311
  525MOL0     C70777   1.909   8.078   3.870  0.7398  0.5328  0.6415
  525MOL0     C70778   2.015   8.143   3.781  0.5705 -0.3027 -0.3332
  525MOL0     C70779   2.164   8.126   3.807 -0.5907  0.5464 -0.0065
  525MOL0     C70780   2.263   8.195   3.703 -0.2615  0.1405  0.0862
  525MOL0     C70781   2.417   8.189   3.752  0.4133  1.1292  0.4117
  525MOL0     C70782   2.514   8.262   3.658 -0.5565  0.5622  0.4823
  525MOL0     C70783   2.663   8.258   3.714 -0.3352 -0.4345 -0.1270
  525MOL0     C70784   2.757   8.273   3.600 -0.0890 -0.0348 -0.0081
  525MOL0    Cl70785   2.796   8.445   3.601  0.2930  0.3999 -0.0515
  525MOL0     C70786   2.063   8.009   4.109  0.0440  0.5229 -0.3999
  525MOL0     C70787   2.170   7.974   4.191 -0.5029 -0.2728 -0.7277
  525MOL0     O70788   2.483   7.718   4.154 -0.6259  0.8599  0.2557
  525MOL0     C70789   2.561   7.801   4.474 -0.4306  0.2763 -0.4045
  525MOL0     C70790   2.636   7.763   4.586 -0.0633 -0.4438 -0.0947
  525MOL0     N70791   2.458   6.984   4.909  0.9890  0.1571 -0.4905
  525MOL0     N70792   2.463   6.896   4.998  0.6857  0.0378  0.6084
  525MOL0     C70793   1.963   6.396   5.739  0.2414 -0.0048 -0.5666
  525MOL0     C70794   1.838   6.363   5.672 -0.5959 -0.4026  0.1328
  525MOL0     C70795   1.462   6.304   5.437  0.3647 -1.0113  0.0830
  525MOL0     C70796   1.382   6.421   5.456  0.5357  1.3154  0.0465
  525MOL0     C70797   1.260   6.431   5.394  0.2619 -0.9938 -0.5204
  525MOL0     C70798   1.211   6.330   5.320  0.0126 -1.5164 -1.0711
  525MOL0     O70799   1.088   6.357   5.263  0.7944  0.3516 -0.2631
  525MOL0     C70800   1.092   6.362   5.113 -0.4392 -0.0661  0.0823
  525MOL0     C70801   0.972   6.429   5.053 -0.4725  0.4944 -0.4870
  525MOL0     C70802   1.001   6.578   5.036 -0.4887  0.3544 -0.0478
  525MOL0     C70803   0.898   6.663   4.970  0.5653  0.0201  0.4597
  525MOL0     C70804   0.880   6.600   4.835  0.3321 -0.5589 -0.5601
  525MOL0     C70805   0.862   6.541   4.735 -0.1641  0.0384  0.3373
  525MOL0     C70806   1.277   6.216   5.316 -0.3954  0.0665 -0.1455
  525MOL0     C70807   1.405   6.201   5.363 -0.0102  0.3836  0.0188
  525MOL0     H70808   1.799   6.611   5.468 -2.4012 -1.6527 -0.2762
  525MOL0     H70809   2.030   6.688   5.584 -0.5565  0.7525  1.9709
  525MOL0     H70810   2.211   6.379   5.864 -0.2871  1.2209  0.6022
  525MOL0     H70811   2.283   6.391   5.718 -0.5231 -3.4498  2.4322
  525MOL0     H70812   2.335   6.561   5.957 -2.5764  2.3357 -0.9329
  525MOL0     H70813   2.448   6.459   5.863 -1.3209 -0.7145 -1.6253
  525MOL0     H70814   2.325   6.704   5.734  0.3173  0.9045  0.8545
  525MOL0     H70815   2.458   6.728   5.850 -0.2646  0.2021 -0.7650
  525MOL0     H70816   2.611   6.588   5.699  0.2307 -1.4734 -0.8192
  525MOL0     H70817   2.478   6.541   5.602 -1.1263 -2.3129  3.9921
  525MOL0     H70818   2.581   6.833   5.642 -1.6877 -1.5168  2.4458
  525MOL0     H70819   2.629   6.724   5.510  2.4496 -0.0864  2.0503
  525MOL0     H70820   2.389   6.708   5.448 -0.7654 -0.8790  2.3171
  525MOL0     H70821   2.350   6.834   5.567  0.0711  1.5618 -0.6294
  525MOL0     H70822   2.362   6.976   5.374  0.2422  0.6837 -0.7096
  525MOL0     H70823   2.533   6.985   5.422 -0.0687 -1.0986  1.6923
  525MOL0     H70824   2.417   6.773   5.238  0.8177  0.3857  2.9264
  525MOL0     H70825   2.589   6.817   5.243 -0.1499 -1.6093  0.2663
  525MOL0     H70826   2.427   7.156   5.192 -3.5445  1.3246 -0.8360
  525MOL0     H70827   2.393   7.228   4.811  0.4790 -0.3813  0.8822
  525MOL0     H70828   2.372   7.312   4.962  1.2051  1.0999  0.5937
  525MOL0     H70829   2.640   7.222   4.849 -0.9091 -0.2012 -0.1435
  525MOL0     H70830   2.610   7.307   5.011  0.6613 -0.7595  0.7095
  525MOL0     H70831   2.542   7.494   4.908  0.9507 -0.7321  2.3726
  525MOL0     H70832   2.516   7.425   4.753  0.9218  2.8446 -0.6154
  525MOL0     H70833   2.755   7.390   4.711 -1.0370  0.0666 -0.3339
  525MOL0     H70834   2.786   7.469   4.876 -2.7955 -0.4289  1.8375
  525MOL0     H70835   2.629   7.426   4.532  2.1504 -0.3321 -0.3818
  525MOL0     H70836   2.400   7.485   4.246 -1.2738 -4.1255  0.0712
  525MOL0     H70837   2.562   7.454   4.224 -0.8475  1.5449 -0.6154
  525MOL0     H70838   2.471   7.362   4.344  1.1462 -1.5863 -2.5051
  525MOL0     H70839   2.250   7.678   4.073 -0.8843 -1.3644  0.7783
  525MOL0     H70840   2.065   7.739   3.915  1.8514 -1.1025  0.9289
  525MOL0     H70841   1.809   8.068   3.827  0.9276 -0.8738  0.4692
  525MOL0     H70842   1.899   8.138   3.961  1.7505  2.4461 -0.4334
  525MOL0     H70843   2.009   8.118   3.675  3.0174 -0.4684 -0.4752
  525MOL0     H70844   1.974   8.244   3.790 -3.1880 -1.5507 -1.5549
  525MOL0     H70845   2.178   8.019   3.785  1.3722 -0.1473  3.7534
  525MOL0     H70846   2.196   8.144   3.910  0.9704 -1.0969 -0.1375
  525MOL0     H70847   2.258   8.149   3.604 -0.1391  0.9929 -0.3336
  525MOL0     H70848   2.233   8.300   3.695 -0.5401  0.3622  3.0410
  525MOL0     H70849   2.446   8.084   3.767  0.5525  0.9050 -1.2325
  525MOL0     H70850   2.413   8.226   3.855 -1.3262  1.6047  0.2118
  525MOL0     H70851   2.499   8.212   3.562 -1.6530 -0.6042  1.2280
  525MOL0     H70852   2.477   8.364   3.650  1.3387  1.2299 -0.3905
  525MOL0     H70853   2.692   8.163   3.760  3.3056  1.7252  2.6132
  525MOL0     H70854   2.675   8.334   3.791 -0.4567 -0.1162 -0.4212
  525MOL0     H70855   2.711   8.244   3.505  0.2421  1.5520 -0.6852
  525MOL0     H70856   2.847   8.212   3.602  0.1000  0.2591  1.8127
  525MOL0     H70857   2.009   8.102   4.122  1.2620  1.2702 -0.4930
  525MOL0     H70858   2.192   8.039   4.274 -0.5403 -2.1231  0.7997
  525MOL0     H70859   2.547   7.907   4.458  1.4791  0.3670 -1.7666
  525MOL0     H70860   2.680   7.844   4.642 -1.9040  0.3262  0.3292
  525MOL0     H70861   2.010   6.331   5.812 -1.8913 -2.7611 -1.4574
  525MOL0     H70862   1.785   6.270   5.693  1.3394 -1.1487  2.1355
  525MOL0     H70863   1.433   6.502   5.509  1.0816  0.7841  0.3553
  525MOL0     H70864   1.192   6.514   5.411 -0.8996 -1.7742 -1.1668
  525MOL0     H70865   1.181   6.419   5.087 -1.5289  2.2859  1.1812
  525MOL0     H70866   1.093   6.262   5.068 -1.5487  0.3368 -0.8793
  525MOL0     H70867   0.886   6.423   5.120 -0.3502  1.0194 -0.2751
  525MOL0     H70868   0.962   6.374   4.959  0.2129 -2.2907  0.9767
  525MOL0     H70869   1.094   6.590   4.979 -0.8346  0.6571 -0.5595
  525MOL0     H70870   1.015   6.620   5.135 -1.4567  0.9302 -0.1395
  525MOL0     H70871   0.926   6.769   4.969 -1.4812  0.6157  1.1672
  525MOL0     H70872   0.805   6.656   5.028  1.4631  0.3535  1.9958
  525MOL0     H70873   0.848   6.494   4.639 -0.5906  2.7270 -1.0058
  525MOL0     H70874   1.235   6.130   5.265 -2.2642  0.0575  1.3221
  525MOL0     H70875   1.459   6.111   5.334 -0.4557 -1.6297  4.5986
  526MOL0     O70876   5.676   6.833   3.355 -0.1151  0.5647  0.7217
  526MOL0     C70877   5.611   6.934   3.334  0.2002  0.1065 -0.1188
  526MOL0     O70878   5.658   7.061   3.352 -0.6677  0.1076 -0.1835
  526MOL0     C70879   5.782   7.092   3.403  0.4686 -0.3203 -0.5799
  526MOL0     C70880   5.886   7.010   3.438 -0.9973  0.4450  0.2149
  526MOL0     C70881   6.002   7.071   3.483  0.0257  0.5630  0.0252
  526MOL0     C70882   6.015   7.209   3.492 -1.3747 -0.2121  0.0532
  526MOL0     O70883   6.139   7.255   3.528 -1.0198  0.5553 -0.2617
  526MOL0     C70884   6.194   7.366   3.457  0.3104 -0.2158 -0.7916
  526MOL0     C70885   6.340   7.367   3.499 -0.3634 -0.2560  0.1296
  526MOL0     C70886   6.431   7.259   3.430 -0.2307  0.0700  1.0792
  526MOL0     C70887   6.549   7.225   3.528  0.3601 -0.7936  0.1279
  526MOL0     C70888   6.597   7.086   3.492  0.7021  0.1785 -0.3442
  526MOL0     C70889   6.727   7.045   3.559 -0.2081 -0.3279 -0.0812
  526MOL0     C70890   6.786   6.917   3.496 -0.1343 -0.0566  1.7196
  526MOL0     C70891   6.915   6.881   3.576  0.6131  0.2129 -0.8717
  526MOL0     N70892   6.872   6.811   3.696  0.0230 -0.3296  0.1717
  526MOL0     C70893   6.822   6.865   3.817 -0.3321  0.1766  0.3135
  526MOL0     C70894   6.781   6.751   3.886  0.2908 -0.3672  0.2487
  526MOL0     C70895   6.725   6.733   4.029 -0.3328 -0.0068 -0.7651
  526MOL0     C70896   6.810   6.819   4.128  0.7261  0.3576  0.1748
  526MOL0     C70897   6.766   6.792   4.274 -0.0741 -0.5761  0.2464
  526MOL0     C70898   6.613   6.781   4.300 -0.6752 -0.0946  0.0976
  526MOL0     O70899   6.544   6.905   4.256 -0.1624 -0.1095  0.0843
  526MOL0     C70900   6.415   6.881   4.261 -0.4040 -0.9704  0.3039
  526MOL0     C70901   6.351   6.907   4.381  0.2885 -0.1271 -0.8215
  526MOL0     C70902   6.225   6.854   4.404 -0.5169  0.2292  0.5887
  526MOL0     C70903   6.144   6.901   4.516  0.8053 -0.0501  0.2718
  526MOL0     C70904   6.165   6.767   4.308  0.1642 -1.4339  0.2051
  526MOL0     C70905   6.044   6.703   4.343  0.7789 -0.2583  0.6442
  526MOL0     O70906   5.925   6.731   4.273 -0.7179 -0.6008 -0.3615
  526MOL0     C70907   5.809   6.675   4.335  0.0385  0.7347  0.7951
  526MOL0     C70908   5.748   6.721   4.447  0.5800  0.1829 -0.7715
  526MOL0     C70909   5.639   6.647   4.493 -0.8849 -0.7817 -0.7797
  526MOL0     C70910   5.579   6.548   4.421  0.7623  0.4721 -0.3110
  526MOL0     O70911   5.455   6.502   4.458  0.4693 -0.6206 -0.8840
  526MOL0     C70912   5.401   6.368   4.437 -0.0821  0.7025 -0.1721
  526MOL0     C70913   5.327   6.349   4.566  0.7190 -0.4553 -0.6985
  526MOL0     C70914   5.265   6.215   4.584  1.4165  0.2860 -0.3330
  526MOL0     C70915   5.194   6.194   4.718 -0.1758  0.7549  0.0521
  526MOL0     C70916   5.055   6.254   4.730 -0.6942 -0.8396  0.7789
  526MOL0     C70917   5.014   6.243   4.871  0.2932  0.6010  0.3709
  526MOL0     C70918   4.972   6.094   4.898  0.3184 -0.8235 -0.5416
  526MOL0     C70919   4.931   6.081   5.056 -0.2281 -0.3221  0.4892
  526MOL0    Cl70920   4.799   6.186   5.111  0.4534  0.0544 -0.6133
  526MOL0     C70921   5.646   6.497   4.311  0.1570  0.9535 -0.0554
  526MOL0     C70922   5.763   6.563   4.269  0.8632 -0.0130 -0.3019
  526MOL0     O70923   6.059   6.606   4.418  0.5024 -0.2019 -0.3866
  526MOL0     C70924   6.239   6.744   4.191 -0.0878  0.8445  1.0879
  526MOL0     C70925   6.363   6.806   4.163  0.4916  0.2422 -0.3579
  526MOL0     N70926   6.782   6.644   3.797 -0.5487  0.5864  0.0893
  526MOL0     N70927   6.852   6.679   3.698 -0.0971  0.3560 -0.0487
  526MOL0     C70928   5.902   7.292   3.459 -0.5239  0.4859 -0.1337
  526MOL0     C70929   5.784   7.228   3.427  0.2924 -0.6388 -0.3697
  526MOL0     C70930   5.479   6.938   3.273  0.6830  0.8500  0.1016
  526MOL0     C70931   5.399   6.820   3.273 -0.0782  0.5702  0.5079
  526MOL0     C70932   5.272   6.811   3.218  0.5010  0.4116  0.4623
  526MOL0     C70933   5.211   6.919   3.157 -1.1107 -0.4838 -0.7505
  526MOL0     O70934   5.084   6.906   3.103  0.4527 -0.4199  0.6232
  526MOL0     C70935   4.972   6.977   3.169 -0.3245 -0.5994  0.7563
  526MOL0     C70936   4.945   6.925   3.305 -0.4817 -0.0635 -0.2628
  526MOL0     C70937   4.831   7.006   3.364 -0.1529 -0.4419  0.3472
  526MOL0     C70938   4.685   7.008   3.291 -0.4120 -0.0018  0.3225
  526MOL0     C70939   4.641   6.866   3.290 -0.3611 -0.2374 -0.0028
  526MOL0     C70940   4.617   6.753   3.267 -0.2891  1.2431  0.9365
  526MOL0     C70941   5.284   7.043   3.150 -0.9549  0.0764  0.3059
  526MOL0     C70942   5.417   7.049   3.208 -0.0586 -0.3805  0.0398
  526MOL0     H70943   5.893   6.906   3.410 -3.0763  0.7057 -1.5080
  526MOL0     H70944   6.083   7.000   3.493  0.7902  1.3584 -0.3518
  526MOL0     H70945   6.177   7.361   3.349  1.0313  0.8741 -0.9682
  526MOL0     H70946   6.141   7.458   3.483 -0.4556 -0.6321 -0.8321
  526MOL0     H70947   6.386   7.464   3.476  0.5312 -1.2085 -2.3840
  526MOL0     H70948   6.344   7.350   3.607  0.3563  2.8312  0.6856
  526MOL0     H70949   6.365   7.176   3.400 -0.3000  0.4948  0.0124
  526MOL0     H70950   6.470   7.301   3.337 -1.7921 -0.7522 -0.0014
  526MOL0     H70951   6.635   7.293   3.518 -1.1570  1.2689  0.4482
  526MOL0     H70952   6.514   7.217   3.631  0.8733  1.2243  0.5035
  526MOL0     H70953   6.524   7.011   3.521 -0.8609  2.8222  3.2083
  526MOL0     H70954   6.614   7.088   3.383 -0.1389 -0.4942 -0.4943
  526MOL0     H70955   6.787   7.136   3.550 -1.3726  0.4476 -0.1900
  526MOL0     H70956   6.696   7.022   3.662 -2.6926  1.2247 -0.4038
  526MOL0     H70957   6.715   6.835   3.508  0.2673 -1.2405 -2.4911
  526MOL0     H70958   6.806   6.937   3.390 -2.6793 -0.9022  1.0150
  526MOL0     H70959   6.979   6.965   3.605 -0.4760  0.4209  1.1245
  526MOL0     H70960   6.972   6.807   3.519 -0.5500  0.2397 -2.1539
  526MOL0     H70961   6.821   6.965   3.859 -2.4332  1.7294 -3.0004
  526MOL0     H70962   6.622   6.769   4.040 -2.3544 -5.6219  3.2597
  526MOL0     H70963   6.712   6.627   4.053 -2.9668  0.5787  0.8313
  526MOL0     H70964   6.800   6.925   4.100  3.3463  0.4766 -0.6078
  526MOL0     H70965   6.916   6.793   4.119  1.0849  0.9521  2.0523
  526MOL0     H70966   6.796   6.880   4.331 -2.6233  0.7947 -0.3951
  526MOL0     H70967   6.808   6.699   4.314 -0.3007 -0.2534  1.2582
  526MOL0     H70968   6.596   6.767   4.407 -0.1107  0.5602  0.2815
  526MOL0     H70969   6.568   6.692   4.255  0.1974 -1.0471  1.0705
  526MOL0     H70970   6.408   6.958   4.458  0.7266 -0.2998 -1.0325
  526MOL0     H70971   6.148   6.820   4.589  1.3014 -0.1462  0.1429
  526MOL0     H70972   6.184   6.996   4.553  0.8192  1.0597 -2.3476
  526MOL0     H70973   6.039   6.917   4.488  0.3601 -2.4580  0.4175
  526MOL0     H70974   5.774   6.805   4.511 -2.0207  0.2379  0.3482
  526MOL0     H70975   5.576   6.672   4.578 -1.6035 -0.5683 -1.3655
  526MOL0     H70976   5.338   6.375   4.347 -2.6390  0.2340  1.4729
  526MOL0     H70977   5.477   6.291   4.424 -0.1974  0.5684 -0.0606
  526MOL0     H70978   5.396   6.359   4.650 -1.2055  1.7842  0.7667
  526MOL0     H70979   5.255   6.424   4.601 -1.6776 -3.6026  1.8111
  526MOL0     H70980   5.347   6.142   4.589 -0.3222 -1.9681 -2.4834
  526MOL0     H70981   5.205   6.181   4.499  2.0005 -0.3994 -0.4811
  526MOL0     H70982   5.200   6.085   4.728  2.0322  0.8404  0.0469
  526MOL0     H70983   5.257   6.234   4.797  0.1155  0.6571 -0.1274
  526MOL0     H70984   4.992   6.196   4.661 -1.6849 -1.1021  1.8631
  526MOL0     H70985   5.054   6.358   4.698  3.2825 -0.8817 -0.0169
  526MOL0     H70986   5.089   6.294   4.932 -0.8449  2.5569  0.2060
  526MOL0     H70987   4.922   6.301   4.879  0.1021  0.8084 -2.2709
  526MOL0     H70988   5.057   6.027   4.884  2.3381  0.9627  2.1003
  526MOL0     H70989   4.881   6.064   4.845 -0.3383 -2.9879  1.6480
  526MOL0     H70990   5.020   6.098   5.118  0.0406 -3.8942  1.3163
  526MOL0     H70991   4.901   5.977   5.072 -1.0202 -0.1713  0.0290
  526MOL0     H70992   5.606   6.408   4.264  1.0686 -0.3813  1.5446
  526MOL0     H70993   5.816   6.528   4.181  2.5020 -1.9902  1.3637
  526MOL0     H70994   6.203   6.669   4.121 -0.4137  0.5589  1.5599
  526MOL0     H70995   6.420   6.776   4.075 -0.6443  1.4373 -1.5602
  526MOL0     H70996   5.890   7.400   3.463 -2.3502  0.3022  0.5926
  526MOL0     H70997   5.704   7.293   3.393 -0.2829 -0.2099  1.6629
  526MOL0     H70998   5.453   6.741   3.326 -1.4104  0.2375  1.4408
  526MOL0     H70999   5.223   6.715   3.222 -0.7921  1.0440  0.4339
  526MOL0     H71000   4.984   7.086   3.169  2.0452 -0.7645 -0.9129
  526MOL0     H71001   4.885   6.952   3.108 -0.8832 -1.2741  1.8033
  526MOL0     H71002   5.025   6.953   3.373 -2.0009 -0.2222  1.6957
  526MOL0     H71003   4.927   6.818   3.290 -2.4134  0.1208  0.4436
  526MOL0     H71004   4.864   7.109   3.350  0.4816 -0.6903 -0.0131
  526MOL0     H71005   4.826   6.986   3.471  1.4024 -1.7330  0.2215
  526MOL0     H71006   4.691   7.045   3.188  1.8785 -0.9157  0.0705
  526MOL0     H71007   4.615   7.072   3.345  0.1633  1.7247 -0.8942
  526MOL0     H71008   4.607   6.661   3.213 -0.4218  1.6156  0.3168
  526MOL0     H71009   5.245   7.136   3.111  1.9508  1.3911  0.2825
  526MOL0     H71010   5.465   7.146   3.196  1.8279 -1.3272 -0.5862
  527MOL0     O71011   3.487   8.866   9.388  0.5697 -0.1597 -0.2874
  527MOL0     C71012   3.501   8.903   9.507  1.0045  0.1951  0.2815
  527MOL0     O71013   3.391   8.943   9.594  0.1787 -0.0240  0.8293
  527MOL0     C71014   3.267   8.921   9.540  0.1750 -0.5217 -0.5869
  527MOL0     C71015   3.175   9.027   9.560  0.4262 -0.5733 -0.4914
  527MOL0     C71016   3.035   9.001   9.534 -0.9566  0.4490 -0.2713
  527MOL0     C71017   2.997   8.875   9.490 -0.2592  0.3197  0.0955
  527MOL0     O71018   2.866   8.846   9.455 -0.6673  0.7283 -0.4115
  527MOL0     C71019   2.825   8.880   9.323 -0.7137 -0.4531  0.7568
  527MOL0     C71020   2.703   8.964   9.322 -0.0854  0.0315 -0.0239
  527MOL0     C71021   2.654   8.964   9.181 -0.3306  1.0233  1.2948
  527MOL0     C71022   2.508   9.019   9.158 -0.0069  0.1329 -0.3458
  527MOL0     C71023   2.529   9.167   9.118  0.0332 -0.6037 -0.2516
  527MOL0     C71024   2.399   9.240   9.073 -0.5442  0.2518 -1.2437
  527MOL0     C71025   2.349   9.182   8.935  0.5994  0.4917 -0.3484
  527MOL0     C71026   2.219   9.249   8.894  1.0027  0.1040 -0.2823
  527MOL0     N71027   2.102   9.201   8.968 -0.6515 -0.1939  0.6786
  527MOL0     C71028   2.053   9.077   8.982  0.4959 -0.5656 -0.9291
  527MOL0     C71029   1.968   9.098   9.084  0.0247 -0.4202  0.6036
  527MOL0     C71030   1.910   8.988   9.170  0.1778 -0.3865 -0.4376
  527MOL0     C71031   1.761   8.975   9.143  0.4468  0.3354  0.2156
  527MOL0     C71032   1.730   8.950   8.990 -0.6701  0.6556 -0.3229
  527MOL0     C71033   1.577   8.938   8.977  0.7138 -0.0130 -0.3454
  527MOL0     O71034   1.554   8.916   8.833 -0.0078 -0.5482 -0.2670
  527MOL0     C71035   1.441   8.838   8.813 -0.1093 -0.1427  0.1968
  527MOL0     C71036   1.449   8.733   8.728  0.4369  0.2500  0.1991
  527MOL0     C71037   1.343   8.649   8.700 -0.6902 -0.0042 -0.0082
  527MOL0     C71038   1.374   8.518   8.619 -0.7817  1.0783 -0.1614
  527MOL0     C71039   1.213   8.694   8.739  0.2434  0.0238  0.3040
  527MOL0     C71040   1.084   8.629   8.707 -0.1018  0.1121  0.5664
  527MOL0     O71041   0.970   8.704   8.714 -0.0890 -0.1105  0.1446
  527MOL0     C71042   0.848   8.643   8.706 -0.6471 -0.2100  0.2446
  527MOL0     C71043   0.772   8.677   8.595  0.3538  0.3736  0.9299
  527MOL0     C71044   0.645   8.612   8.567  0.3775  0.7177 -0.5892
  527MOL0     C71045   0.597   8.520   8.659  0.2156  0.1109  0.0370
  527MOL0     O71046   0.464   8.484   8.652 -0.3924  0.1546 -0.6842
  527MOL0     C71047   0.410   8.436   8.533  0.1961  0.2255  0.5770
  527MOL0     C71048   0.270   8.389   8.564 -0.1003 -0.9874  0.7726
  527MOL0     C71049   0.263   8.301   8.692  0.1214 -0.3418  0.3038
  527MOL0     C71050   0.121   8.249   8.726 -0.7897 -1.3463  0.0154
  527MOL0     C71051   0.124   8.157   8.844  0.1243  0.1081 -0.3306
  527MOL0     C71052  -0.007   8.094   8.879  1.5537  0.8417  1.0872
  527MOL0     C71053  -0.010   8.008   9.009  0.0555  0.0428 -0.5338
  527MOL0     C71054  -0.021   8.094   9.138  0.6152 -0.1302  0.0587
  527MOL0    Cl71055  -0.175   8.177   9.136  0.3030  0.0789  0.4052
  527MOL0     C71056   0.665   8.495   8.770  0.6895  0.0132 -0.7719
  527MOL0     C71057   0.801   8.537   8.782 -1.2403  0.0576 -0.8628
  527MOL0     O71058   1.087   8.513   8.674  0.2208 -0.3020 -0.1200
  527MOL0     C71059   1.201   8.800   8.835 -0.0763  0.9274 -0.5883
  527MOL0     C71060   1.318   8.861   8.883  0.3067 -0.4496  0.1384
  527MOL0     N71061   1.938   9.229   9.101  0.3768  0.3787  0.1479
  527MOL0     N71062   2.016   9.294   9.018  0.2996 -0.4730 -0.4025
  527MOL0     C71063   3.090   8.779   9.467  0.4112  0.2342  0.7671
  527MOL0     C71064   3.222   8.796   9.495  0.2685  0.3663  0.2960
  527MOL0     C71065   3.638   8.908   9.576  0.6039 -0.3085  0.4557
  527MOL0     C71066   3.753   8.893   9.506 -0.1744 -0.0916  0.7719
  527MOL0     C71067   3.881   8.904   9.556 -0.5843  1.1022 -0.6447
  527MOL0     C71068   3.894   8.930   9.698  0.9308 -0.0586  0.0546
  527MOL0     O71069   4.011   8.927   9.763 -0.1254  0.2082 -0.1569
  527MOL0     C71070   4.113   8.837   9.716  0.6738 -1.1478  0.7690
  527MOL0     C71071   4.082   8.692   9.742  0.4238  0.3368  0.0486
  527MOL0     C71072   4.198   8.606   9.689 -0.5476  0.0900  0.0460
  527MOL0     C71073   4.206   8.451   9.732  0.1331 -0.4611 -0.3231
  527MOL0     C71074   4.103   8.372   9.654  0.1059  0.3319  0.0955
  527MOL0     C71075   4.021   8.301   9.590 -0.2197  0.0233 -0.6923
  527MOL0     C71076   3.780   8.947   9.778  0.4158  0.4074 -0.0584
  527MOL0     C71077   3.655   8.936   9.709  0.3144 -0.0237 -0.0794
  527MOL0     H71078   3.200   9.130   9.585 -4.3201  0.7695 -0.4723
  527MOL0     H71079   2.951   9.068   9.549 -1.0624  0.4846 -0.9907
  527MOL0     H71080   2.898   8.945   9.273 -3.3936  2.1753 -0.0458
  527MOL0     H71081   2.807   8.794   9.257  0.8601  1.2179 -2.0629
  527MOL0     H71082   2.628   8.918   9.387  0.8226 -2.2149 -0.4787
  527MOL0     H71083   2.705   9.067   9.361 -3.0264  0.3920 -0.5991
  527MOL0     H71084   2.729   9.016   9.121 -0.9514  0.4401 -0.0337
  527MOL0     H71085   2.644   8.862   9.143 -2.4135  1.2173  1.2228
  527MOL0     H71086   2.452   8.959   9.086 -0.8241  0.7021 -0.1967
  527MOL0     H71087   2.448   9.026   9.248  0.7320  0.0146  0.1642
  527MOL0     H71088   2.570   9.228   9.199  0.8339  0.8272 -1.6929
  527MOL0     H71089   2.591   9.183   9.029 -0.5752 -3.7486 -1.3718
  527MOL0     H71090   2.324   9.229   9.151 -0.6630 -0.8088 -1.4975
  527MOL0     H71091   2.433   9.344   9.070 -0.1621  0.1472 -0.6958
  527MOL0     H71092   2.429   9.212   8.867 -0.8837  1.2178 -1.8434
  527MOL0     H71093   2.332   9.074   8.938 -0.4052  0.6611  0.8381
  527MOL0     H71094   2.209   9.235   8.786  1.2985 -1.8199 -0.1034
  527MOL0     H71095   2.235   9.356   8.906  0.6319  0.0244  1.0544
  527MOL0     H71096   2.089   8.984   8.942 -0.3681 -2.6376  2.6145
  527MOL0     H71097   1.953   8.891   9.145  1.2872  0.2244 -1.0037
  527MOL0     H71098   1.919   9.018   9.275  0.2494 -1.7112 -0.0420
  527MOL0     H71099   1.713   9.067   9.177  1.5627  0.0620  2.7637
  527MOL0     H71100   1.715   8.899   9.206 -0.4584  0.0386 -0.7690
  527MOL0     H71101   1.766   8.850   8.964 -2.3352 -0.3644  1.1519
  527MOL0     H71102   1.783   9.027   8.933 -1.1687  1.0019 -0.3258
  527MOL0     H71103   1.533   9.034   9.006 -2.6440 -1.3751 -0.4163
  527MOL0     H71104   1.524   8.865   9.039  0.8841 -0.9713 -1.2950
  527MOL0     H71105   1.546   8.713   8.682  0.6307  0.8449  0.3449
  527MOL0     H71106   1.321   8.511   8.524 -2.7588  1.3008  0.8517
  527MOL0     H71107   1.479   8.494   8.600 -1.5389 -1.0804 -2.0075
  527MOL0     H71108   1.340   8.432   8.678 -0.9200 -0.7685 -2.7545
  527MOL0     H71109   0.795   8.748   8.516 -0.2540  0.7661  1.0980
  527MOL0     H71110   0.590   8.626   8.475  0.4967  1.3567 -0.5660
  527MOL0     H71111   0.396   8.515   8.459  2.0765  1.0690  1.0640
  527MOL0     H71112   0.471   8.354   8.493 -0.9397 -0.7433  0.7750
  527MOL0     H71113   0.199   8.472   8.565  0.4769 -0.4931  1.3264
  527MOL0     H71114   0.243   8.333   8.474 -1.9555  1.1419 -0.0943
  527MOL0     H71115   0.297   8.373   8.768 -2.3189  1.0146  0.2260
  527MOL0     H71116   0.323   8.210   8.682 -3.0215 -2.4662 -1.0168
  527MOL0     H71117   0.053   8.333   8.739  0.7756 -0.3383  2.3350
  527MOL0     H71118   0.081   8.195   8.639  1.4848  1.2067 -2.8427
  527MOL0     H71119   0.156   8.224   8.925 -0.8536  1.3670 -0.9373
  527MOL0     H71120   0.197   8.077   8.837 -0.6389 -0.5262 -1.2431
  527MOL0     H71121  -0.098   8.156   8.876  0.0641 -1.2553  0.5042
  527MOL0     H71122  -0.033   8.023   8.801 -1.3886  1.3663  1.4762
  527MOL0     H71123   0.078   7.943   9.012  0.6925  0.7940 -2.0489
  527MOL0     H71124  -0.103   7.950   9.009  0.0211  0.0900  0.2685
  527MOL0     H71125   0.062   8.166   9.132  2.1257 -1.8316 -0.3656
  527MOL0     H71126  -0.010   8.026   9.223  2.3134 -2.2489 -1.7516
  527MOL0     H71127   0.606   8.444   8.845  0.8460  1.0078  0.0418
  527MOL0     H71128   0.863   8.504   8.865 -3.3921 -1.9282  0.0809
  527MOL0     H71129   1.107   8.823   8.884  0.2244  3.2821 -0.9676
  527MOL0     H71130   1.302   8.935   8.961 -0.4735 -0.8711  0.3842
  527MOL0     H71131   3.055   8.685   9.426  1.0779 -0.7920  2.4466
  527MOL0     H71132   3.283   8.710   9.471  1.3467  1.0753  0.4149
  527MOL0     H71133   3.720   8.879   9.403 -3.5682  0.6656  1.6244
  527MOL0     H71134   3.971   8.893   9.496  0.2530  2.2719  0.3473
  527MOL0     H71135   4.133   8.845   9.609 -1.4477 -1.3382  0.3144
  527MOL0     H71136   4.204   8.863   9.772  0.7054  1.0656 -0.2471
  527MOL0     H71137   3.991   8.657   9.691  0.2304 -0.1175  0.6927
  527MOL0     H71138   4.063   8.672   9.848  2.1776 -0.0617  0.3189
  527MOL0     H71139   4.292   8.651   9.722 -0.7223  0.0680  0.5761
  527MOL0     H71140   4.204   8.604   9.579 -1.3425 -3.5746 -0.0727
  527MOL0     H71141   4.185   8.449   9.839 -1.9545  1.8261 -0.5978
  527MOL0     H71142   4.308   8.419   9.710  0.3106 -1.9784  2.3248
  527MOL0     H71143   3.957   8.244   9.526 -4.1147  2.1093  1.0086
  527MOL0     H71144   3.798   8.972   9.883 -0.1778 -1.7542  0.6080
  527MOL0     H71145   3.567   8.950   9.770 -1.3861  1.6639 -2.7350
  528MOL0     O71146   7.934   9.520   2.906  0.3139  0.0452  0.4082
  528MOL0     C71147   8.025   9.563   2.979  0.5217 -0.1707  0.5128
  528MOL0     O71148   8.007   9.644   3.084 -0.6300  0.1835 -0.8350
  528MOL0     C71149   7.886   9.649   3.139  0.1864 -0.6225  0.1053
  528MOL0     C71150   7.818   9.542   3.193 -1.0048  0.5986 -0.1003
  528MOL0     C71151   7.694   9.550   3.250 -0.7335 -0.7013 -0.2071
  528MOL0     C71152   7.634   9.674   3.275 -0.5219 -0.3177 -0.1184
  528MOL0     O71153   7.521   9.684   3.348  0.8715  0.1324  0.6296
  528MOL0     C71154   7.543   9.743   3.480 -0.8626  0.5328  0.7208
  528MOL0     C71155   7.412   9.725   3.552  0.5907 -0.0424  0.4248
  528MOL0     C71156   7.405   9.613   3.661 -0.2931 -0.0599  0.3241
  528MOL0     C71157   7.281   9.636   3.758 -0.4572  0.0641  0.1830
  528MOL0     C71158   7.196   9.517   3.776 -0.9230  0.2642 -0.5438
  528MOL0     C71159   7.083   9.543   3.877 -0.4285 -0.4261 -0.2841
  528MOL0     C71160   6.989   9.420   3.887  0.5118 -0.3957 -0.5319
  528MOL0     C71161   6.863   9.441   3.964 -1.2936  0.4537 -0.3301
  528MOL0     N71162   6.885   9.463   4.105 -0.0256  0.5560 -0.4270
  528MOL0     C71163   6.868   9.360   4.200  0.6808  0.4216  0.0147
  528MOL0     C71164   6.884   9.430   4.322  0.3545 -0.2652  0.5620
  528MOL0     C71165   6.891   9.358   4.454 -0.0962 -0.3725 -0.7967
  528MOL0     C71166   6.764   9.344   4.537 -0.3970  1.0674  0.0890
  528MOL0     C71167   6.707   9.482   4.573  0.3019 -0.6766 -0.1020
  528MOL0     C71168   6.580   9.475   4.668 -0.9388 -0.0668  0.7136
  528MOL0     O71169   6.554   9.601   4.727 -0.0846  0.4868 -0.6568
  528MOL0     C71170   6.451   9.610   4.821  1.1400 -0.0512  0.0586
  528MOL0     C71171   6.448   9.699   4.924 -0.2127 -0.4583  0.2322
  528MOL0     C71172   6.340   9.731   5.001 -0.3864  0.0589 -0.9470
  528MOL0     C71173   6.365   9.835   5.104 -0.4013  0.1558 -0.4956
  528MOL0     C71174   6.214   9.667   4.975 -0.5633  0.4570 -0.4281
  528MOL0     C71175   6.084   9.685   5.050 -0.3191  0.9164  0.0176
  528MOL0     O71176   5.991   9.584   5.031  0.3542 -0.0760 -0.6267
  528MOL0     C71177   5.857   9.611   5.046 -0.0636 -0.0530 -0.6270
  528MOL0     C71178   5.786   9.545   5.150  0.1165  0.3525  0.1057
  528MOL0     C71179   5.652   9.574   5.173 -0.4723 -0.7708  0.8715
  528MOL0     C71180   5.596   9.678   5.107  0.8006  0.1411  0.8315
  528MOL0     O71181   5.461   9.692   5.121  0.3988  0.2198  0.4175
  528MOL0     C71182   5.409   9.738   5.242 -0.0415  0.3807  0.3028
  528MOL0     C71183   5.253   9.717   5.264  0.4003 -1.0059 -0.0034
  528MOL0     C71184   5.160   9.776   5.152  0.0629  0.0359 -0.3619
  528MOL0     C71185   5.165   9.927   5.122 -0.1362  0.3699 -0.0733
  528MOL0     C71186   5.184   9.967   4.979  0.2938 -0.1448  1.1421
  528MOL0     C71187   5.327   9.943   4.926 -0.1659  0.6767 -0.6401
  528MOL0     C71188   5.345   9.974   4.783  0.3929  0.6016 -0.6685
  528MOL0     C71189   5.467  10.070   4.760 -0.1478 -0.7451 -0.0211
  528MOL0    Cl71190   5.447  10.219   4.855  0.5282 -0.1342  0.1812
  528MOL0     C71191   5.657   9.739   5.000 -0.3341  0.4076  0.3154
  528MOL0     C71192   5.791   9.705   4.967  0.7053 -0.0039 -0.1640
  528MOL0     O71193   6.066   9.789   5.111 -0.4738 -0.1370 -0.0669
  528MOL0     C71194   6.217   9.569   4.875 -0.2969  0.0777 -0.8610
  528MOL0     C71195   6.333   9.544   4.806 -0.2099  1.1904  0.7046
  528MOL0     N71196   6.906   9.568   4.300  0.1415  0.1193 -0.2785
  528MOL0     N71197   6.913   9.577   4.177 -0.7077 -0.0687 -0.8611
  528MOL0     C71198   7.708   9.787   3.230 -0.3647  0.3460  0.0139
  528MOL0     C71199   7.835   9.769   3.163 -0.3461  0.5265 -0.1457
  528MOL0     C71200   8.164   9.517   2.945 -0.8793  0.3522  0.6851
  528MOL0     C71201   8.191   9.403   2.866 -0.2813 -0.4510  0.3313
  528MOL0     C71202   8.321   9.372   2.831 -0.0453 -0.2510  0.3740
  528MOL0     C71203   8.434   9.446   2.872 -0.0716 -0.1773  0.3043
  528MOL0     O71204   8.561   9.438   2.833  0.6241 -0.0194  0.2179
  528MOL0     C71205   8.600   9.330   2.750 -0.4252 -0.7118 -1.3820
  528MOL0     C71206   8.750   9.343   2.726 -0.2346  0.6087  0.2970
  528MOL0     C71207   8.807   9.239   2.630 -0.5438  0.6661  0.6940
  528MOL0     C71208   8.930   9.170   2.688  0.3126 -0.2296  0.1312
  528MOL0     C71209   9.045   9.266   2.695 -0.0324  0.2836 -0.1798
  528MOL0     C71210   9.138   9.341   2.679  0.2213  0.6953 -0.0372
  528MOL0     C71211   8.406   9.564   2.947  0.7402 -0.0850 -0.3775
  528MOL0     C71212   8.278   9.598   2.983 -0.1608  0.0369  0.4105
  528MOL0     H71213   7.867   9.450   3.163 -0.6369  0.7761 -0.0480
  528MOL0     H71214   7.650   9.461   3.291  2.4090 -1.6831  1.3487
  528MOL0     H71215   7.616   9.673   3.521 -0.9403 -1.0296 -1.6322
  528MOL0     H71216   7.575   9.848   3.476 -2.6358  1.0806 -1.1555
  528MOL0     H71217   7.387   9.824   3.592  3.0838  0.5377  0.7216
  528MOL0     H71218   7.333   9.701   3.479 -0.6924  0.2024  1.6885
  528MOL0     H71219   7.391   9.522   3.602  0.4680  0.3648 -0.5475
  528MOL0     H71220   7.493   9.609   3.727 -2.3798  0.9050  3.3659
  528MOL0     H71221   7.328   9.674   3.850 -0.6377  0.0175  0.2954
  528MOL0     H71222   7.222   9.723   3.728 -0.0566  0.2171 -0.1742
  528MOL0     H71223   7.142   9.491   3.684 -1.3807 -0.1680 -0.1557
  528MOL0     H71224   7.252   9.439   3.827  0.2136  0.4805 -1.4309
  528MOL0     H71225   7.129   9.558   3.975  0.7156 -1.1736 -0.6771
  528MOL0     H71226   7.020   9.628   3.850  1.0090  0.2263 -1.8067
  528MOL0     H71227   6.955   9.393   3.787  1.2346 -0.0519 -0.8767
  528MOL0     H71228   7.044   9.333   3.925 -0.1461 -1.6828 -2.3828
  528MOL0     H71229   6.797   9.354   3.960 -0.8982  0.1016  0.5141
  528MOL0     H71230   6.804   9.522   3.919  1.5291  2.4421 -0.6809
  528MOL0     H71231   6.862   9.253   4.186  3.0127  0.2611 -0.1671
  528MOL0     H71232   6.921   9.254   4.438 -0.3622 -0.5333 -0.2941
  528MOL0     H71233   6.967   9.404   4.517 -1.0764 -2.2089  1.9351
  528MOL0     H71234   6.791   9.284   4.624  1.5689 -0.8642 -1.7509
  528MOL0     H71235   6.697   9.274   4.486  1.8235 -0.3840 -1.0166
  528MOL0     H71236   6.675   9.525   4.478  0.7050  1.1979  0.5777
  528MOL0     H71237   6.774   9.560   4.609 -2.8249  1.2078  2.0804
  528MOL0     H71238   6.608   9.410   4.751 -0.7705  2.5782  2.8748
  528MOL0     H71239   6.487   9.435   4.627 -1.3782  1.1206  0.4930
  528MOL0     H71240   6.543   9.751   4.936  0.1111 -0.9920  0.0481
  528MOL0     H71241   6.291   9.824   5.184  2.4108 -1.8581  2.0186
  528MOL0     H71242   6.464   9.847   5.148  0.3222  0.5065 -2.1149
  528MOL0     H71243   6.348   9.931   5.053  1.1320  0.8336  0.2120
  528MOL0     H71244   5.840   9.472   5.210  0.7383 -1.7031 -2.7567
  528MOL0     H71245   5.590   9.521   5.245 -2.3020  1.7347  1.2793
  528MOL0     H71246   5.458   9.696   5.330 -0.3183 -1.8389 -0.5520
  528MOL0     H71247   5.428   9.846   5.234 -1.2139  0.6687  1.1526
  528MOL0     H71248   5.239   9.608   5.265  2.0427 -1.2449 -0.2701
  528MOL0     H71249   5.228   9.748   5.365  1.7271  0.8896 -0.2061
  528MOL0     H71250   5.056   9.747   5.170  0.0750  0.2095 -0.0072
  528MOL0     H71251   5.197   9.718   5.068 -1.1025 -1.5828  0.2014
  528MOL0     H71252   5.072   9.972   5.157 -2.3657 -2.7247 -1.5435
  528MOL0     H71253   5.247   9.963   5.184 -0.4973  1.0112  0.0383
  528MOL0     H71254   5.169  10.075   4.981  1.3304  0.0318  0.5332
  528MOL0     H71255   5.108   9.920   4.915  0.7955  1.3477 -0.6271
  528MOL0     H71256   5.412   9.974   4.989  1.2920 -0.5650 -1.9073
  528MOL0     H71257   5.334   9.834   4.930  0.2787  0.7171 -0.0041
  528MOL0     H71258   5.252  10.011   4.739  0.1909 -0.1953 -0.9246
  528MOL0     H71259   5.376   9.886   4.726  0.3869 -0.3615  0.7558
  528MOL0     H71260   5.483  10.107   4.658 -1.1718  2.3454  0.8489
  528MOL0     H71261   5.556  10.023   4.802  0.4331  1.1878  0.9709
  528MOL0     H71262   5.586   9.795   4.939  1.9188  1.2494 -1.6933
  528MOL0     H71263   5.836   9.756   4.883  2.1816 -1.3155 -0.2185
  528MOL0     H71264   6.123   9.517   4.858  1.6014 -3.2735 -2.1352
  528MOL0     H71265   6.312   9.472   4.728 -3.0820  1.3458  1.2074
  528MOL0     H71266   7.664   9.884   3.247 -3.1063 -0.0416 -3.5318
  528MOL0     H71267   7.884   9.860   3.130  0.9381 -0.3024 -0.6150
  528MOL0     H71268   8.105   9.344   2.837 -0.6642 -0.4972  1.4918
  528MOL0     H71269   8.343   9.281   2.777  0.1454  0.6062 -1.0362
  528MOL0     H71270   8.582   9.233   2.798  0.1872 -0.1028  0.1234
  528MOL0     H71271   8.542   9.332   2.658 -1.6470 -0.2754 -0.6189
  528MOL0     H71272   8.802   9.334   2.821 -0.4295 -0.5610  0.2992
  528MOL0     H71273   8.778   9.442   2.687  0.4807  0.3524  0.1392
  528MOL0     H71274   8.828   9.288   2.535  2.2643  0.8651  1.3058
  528MOL0     H71275   8.737   9.159   2.606  1.7284 -1.0142 -0.6971
  528MOL0     H71276   8.965   9.079   2.639  0.7641 -0.7771  1.4155
  528MOL0     H71277   8.898   9.121   2.780 -2.3251 -2.1596 -1.6764
  528MOL0     H71278   9.219   9.405   2.647 -0.9509  2.2155 -0.0868
  528MOL0     H71279   8.486   9.633   2.973  0.2992 -0.0785  1.0585
  528MOL0     H71280   8.259   9.684   3.046 -2.1165  1.3148 -1.7592
  529MOL0     O71281   8.562   7.480   4.765 -0.4137  0.3565 -0.8195
  529MOL0     C71282   8.643   7.511   4.669  0.3674  0.2722 -0.4865
  529MOL0     O71283   8.644   7.620   4.593  0.3957  0.0215 -0.3194
  529MOL0     C71284   8.527   7.677   4.549 -0.1032  0.4322  0.6170
  529MOL0     C71285   8.398   7.642   4.585 -0.5005 -0.4455 -1.1376
  529MOL0     C71286   8.289   7.727   4.539  0.0395  0.0008  0.2378
  529MOL0     C71287   8.302   7.838   4.448  0.3978  0.6658 -0.8072
  529MOL0     O71288   8.196   7.897   4.390  0.3992 -1.1988 -0.7848
  529MOL0     C71289   8.194   8.040   4.401  0.2381  0.6401  0.1792
  529MOL0     C71290   8.074   8.092   4.330  0.0530 -0.0140 -1.0896
  529MOL0     C71291   7.946   8.092   4.412  0.6045  0.4217  0.3295
  529MOL0     C71292   7.843   8.174   4.343 -0.5334  0.6686 -0.5535
  529MOL0     C71293   7.712   8.189   4.428 -0.6071 -0.2075  0.1711
  529MOL0     C71294   7.644   8.318   4.379 -0.4535 -0.0601 -0.3821
  529MOL0     C71295   7.546   8.385   4.475 -0.1313  0.0277 -0.0000
  529MOL0     C71296   7.430   8.297   4.522 -0.8095  0.0724 -0.0871
  529MOL0     N71297   7.338   8.381   4.597  0.3623  1.3300 -0.0011
  529MOL0     C71298   7.358   8.486   4.682 -0.5363 -0.6755 -0.3425
  529MOL0     C71299   7.238   8.529   4.726  0.1946 -0.1370  0.2884
  529MOL0     C71300   7.211   8.629   4.828  0.1113 -0.8672 -0.2212
  529MOL0     C71301   7.226   8.771   4.787  1.4259  0.2960  0.6718
  529MOL0     C71302   7.363   8.810   4.746 -0.1573  0.1141 -0.6767
  529MOL0     C71303   7.395   8.819   4.591 -1.2886 -0.4044 -1.0422
  529MOL0     O71304   7.537   8.853   4.599  0.0621  0.2030  0.4119
  529MOL0     C71305   7.618   8.787   4.508  0.0657 -0.1207 -0.4202
  529MOL0     C71306   7.578   8.765   4.377 -0.9481 -0.8880  0.6538
  529MOL0     C71307   7.660   8.694   4.286  0.2337  0.2223 -0.8787
  529MOL0     C71308   7.622   8.678   4.136 -0.4569  0.4674  0.3365
  529MOL0     C71309   7.783   8.645   4.331  0.2665  0.0123  0.5940
  529MOL0     C71310   7.907   8.598   4.257  0.7277  0.3992 -0.3485
  529MOL0     O71311   8.006   8.538   4.328 -0.2006 -0.4617  0.5990
  529MOL0     C71312   8.137   8.518   4.289 -0.1522  0.6105  0.2275
  529MOL0     C71313   8.203   8.417   4.358 -0.1274  0.0835  1.1116
  529MOL0     C71314   8.330   8.376   4.328 -0.9185 -0.3350  0.3262
  529MOL0     C71315   8.412   8.432   4.238  0.0104  0.0531  0.2147
  529MOL0     O71316   8.537   8.383   4.236 -0.0454  0.9185  0.0258
  529MOL0     C71317   8.619   8.421   4.130  0.4642 -0.3321 -0.3739
  529MOL0     C71318   8.758   8.350   4.112  0.0437 -0.2217  0.0391
  529MOL0     C71319   8.831   8.386   3.988 -0.0330 -0.5595  0.0803
  529MOL0     C71320   8.942   8.289   3.939  0.6005  0.0667  0.1713
  529MOL0     C71321   8.974   8.301   3.787 -0.8594  0.1420  0.7139
  529MOL0     C71322   9.066   8.417   3.767  0.1482  0.1557 -0.2610
  529MOL0     C71323   9.216   8.393   3.807 -0.5985 -0.3555  0.3546
  529MOL0     C71324   9.312   8.516   3.787  0.2463  0.4944 -0.1840
  529MOL0    Cl71325   9.493   8.466   3.791  0.2873  0.5317  0.1154
  529MOL0     C71326   8.353   8.530   4.156  0.2496 -0.3667 -0.6992
  529MOL0     C71327   8.215   8.572   4.175 -0.3600  0.8559 -0.1320
  529MOL0     O71328   7.914   8.633   4.142  0.6543  0.3019 -0.0672
  529MOL0     C71329   7.821   8.671   4.464  0.5351  0.4684 -0.1840
  529MOL0     C71330   7.736   8.734   4.555 -0.0899  0.3379  0.1204
  529MOL0     N71331   7.143   8.455   4.658 -0.1165  0.1570 -0.3850
  529MOL0     N71332   7.205   8.368   4.586 -0.1817 -0.1585 -0.3303
  529MOL0     C71333   8.434   7.865   4.418  0.0403 -0.7762 -0.2024
  529MOL0     C71334   8.542   7.789   4.467  0.1121  0.3813  0.1956
  529MOL0     C71335   8.750   7.411   4.649 -0.0670 -0.6295  0.2341
  529MOL0     C71336   8.850   7.423   4.552  0.0432  0.3575  0.7969
  529MOL0     C71337   8.960   7.332   4.528  0.6535 -0.2335 -0.3013
  529MOL0     C71338   8.962   7.219   4.612 -0.3063 -0.5553 -0.4888
  529MOL0     O71339   9.072   7.138   4.631  1.0889 -0.6334 -0.3432
  529MOL0     C71340   9.154   7.117   4.519  0.4991  0.5650 -0.6154
  529MOL0     C71341   9.278   7.036   4.572 -0.5112  0.2251 -0.2797
  529MOL0     C71342   9.373   7.007   4.457  0.8154 -1.0846  0.1729
  529MOL0     C71343   9.439   6.870   4.483  0.1586 -0.5500 -0.1013
  529MOL0     C71344   9.538   6.867   4.592 -0.4911 -0.3573  0.0620
  529MOL0     C71345   9.606   6.865   4.696  0.0298 -0.0930  0.4315
  529MOL0     C71346   8.857   7.190   4.697 -0.1817 -0.5059 -0.2379
  529MOL0     C71347   8.758   7.281   4.713  0.3409 -0.6555 -0.0955
  529MOL0     H71348   8.375   7.550   4.637 -1.2854 -0.8375 -2.1479
  529MOL0     H71349   8.186   7.702   4.561 -0.8716  0.9859 -2.4473
  529MOL0     H71350   8.194   8.070   4.506  1.1023 -1.2547  0.7716
  529MOL0     H71351   8.279   8.085   4.349  0.7057 -0.5335 -0.0939
  529MOL0     H71352   8.095   8.199   4.324  0.2541  0.2995  2.6102
  529MOL0     H71353   8.059   8.039   4.235 -0.1515 -1.2309 -0.4017
  529MOL0     H71354   7.899   7.993   4.424  0.1103  0.3896 -1.5619
  529MOL0     H71355   7.971   8.129   4.511  1.2621  1.4655 -0.2163
  529MOL0     H71356   7.881   8.272   4.311  0.8793  0.1284 -0.5882
  529MOL0     H71357   7.805   8.119   4.257  1.9482 -2.1018 -0.0219
  529MOL0     H71358   7.651   8.099   4.417  0.7435 -1.0495 -0.7679
  529MOL0     H71359   7.731   8.196   4.536 -0.7695 -0.1382  0.1964
  529MOL0     H71360   7.714   8.393   4.341  0.3959 -1.8463 -2.6095
  529MOL0     H71361   7.582   8.302   4.290  0.4422 -0.9492 -0.8645
  529MOL0     H71362   7.607   8.409   4.562 -2.3654 -0.7205  1.8750
  529MOL0     H71363   7.502   8.473   4.426  0.0246 -0.0537 -0.2948
  529MOL0     H71364   7.467   8.211   4.578  0.1094  0.3963 -0.1716
  529MOL0     H71365   7.381   8.253   4.435 -3.1020  1.5658  0.3623
  529MOL0     H71366   7.452   8.530   4.716 -1.1103  2.8090 -2.7607
  529MOL0     H71367   7.105   8.629   4.853 -0.3715 -2.4739 -2.0684
  529MOL0     H71368   7.274   8.611   4.916 -1.2531  1.0204  1.2281
  529MOL0     H71369   7.187   8.837   4.865  1.2359 -1.4917  2.1757
  529MOL0     H71370   7.165   8.783   4.697  0.0186 -2.0761  1.2186
  529MOL0     H71371   7.435   8.747   4.799 -0.4435 -0.7533 -1.2963
  529MOL0     H71372   7.388   8.911   4.781  2.6211 -0.5563 -0.4586
  529MOL0     H71373   7.342   8.905   4.550  0.5978  0.4633 -1.7799
  529MOL0     H71374   7.375   8.723   4.542 -3.2806 -1.8656  2.2529
  529MOL0     H71375   7.478   8.801   4.353 -1.1007 -0.4464  1.8599
  529MOL0     H71376   7.660   8.584   4.095  0.5904  0.7216  0.6933
  529MOL0     H71377   7.514   8.686   4.123 -0.4100 -0.5136 -0.9024
  529MOL0     H71378   7.672   8.758   4.080 -1.3655  1.2894  0.6904
  529MOL0     H71379   8.152   8.377   4.445  2.7721 -0.8411  2.4774
  529MOL0     H71380   8.377   8.299   4.389  0.4953 -0.2834 -0.6415
  529MOL0     H71381   8.575   8.401   4.032 -1.9174 -0.0788  0.5889
  529MOL0     H71382   8.640   8.528   4.140  0.4975 -0.1807 -1.7765
  529MOL0     H71383   8.820   8.383   4.197  0.8625 -1.6521  0.0252
  529MOL0     H71384   8.744   8.242   4.120 -0.4681 -0.0256  2.8261
  529MOL0     H71385   8.864   8.490   4.001 -1.2858 -0.0801 -0.4329
  529MOL0     H71386   8.757   8.388   3.907 -0.8254  1.6887  0.7693
  529MOL0     H71387   9.032   8.315   3.996  0.5212 -0.0236  0.3376
  529MOL0     H71388   8.919   8.188   3.973 -2.2477  1.0946  1.6839
  529MOL0     H71389   8.886   8.321   3.726 -0.1380 -0.2472 -0.4769
  529MOL0     H71390   9.027   8.214   3.748  2.3073  1.5558  1.4772
  529MOL0     H71391   9.055   8.438   3.660 -1.9327 -1.7333 -0.4792
  529MOL0     H71392   9.021   8.504   3.815 -1.2232 -1.5014  1.6297
  529MOL0     H71393   9.260   8.320   3.738 -1.9066 -1.9529  1.1612
  529MOL0     H71394   9.240   8.358   3.908  0.3397 -2.2125 -0.4603
  529MOL0     H71395   9.288   8.592   3.862  1.7969 -0.6072  1.5270
  529MOL0     H71396   9.288   8.561   3.691  2.3283  0.1791 -0.8974
  529MOL0     H71397   8.415   8.569   4.077  0.4600 -2.2544 -1.5060
  529MOL0     H71398   8.170   8.647   4.111  2.9415  1.3541 -2.1110
  529MOL0     H71399   7.908   8.628   4.512 -2.3184 -3.5430  2.0397
  529MOL0     H71400   7.762   8.751   4.659  1.5414  0.1036 -0.2163
  529MOL0     H71401   8.452   7.938   4.339 -2.1309  0.2505  0.1653
  529MOL0     H71402   8.639   7.829   4.438 -0.3124  1.6208  0.4438
  529MOL0     H71403   8.842   7.504   4.480 -1.0120 -0.8996 -0.5623
  529MOL0     H71404   9.040   7.364   4.462  1.1034  1.2095  0.8982
  529MOL0     H71405   9.087   7.062   4.453 -1.2375 -0.0645  1.5531
  529MOL0     H71406   9.182   7.209   4.467 -1.4688  0.3752 -2.1506
  529MOL0     H71407   9.245   6.939   4.611 -0.4797 -0.3578 -1.6470
  529MOL0     H71408   9.323   7.090   4.656  0.4830  2.2825 -2.0462
  529MOL0     H71409   9.445   7.090   4.448 -0.7054  0.4750  1.6514
  529MOL0     H71410   9.315   7.000   4.364 -1.6659  1.9467  1.3098
  529MOL0     H71411   9.486   6.838   4.390 -0.9174  0.3676 -0.9859
  529MOL0     H71412   9.362   6.801   4.519  1.1397 -1.4999  0.2674
  529MOL0     H71413   9.680   6.862   4.773 -1.1379 -1.9016  1.5669
  529MOL0     H71414   8.868   7.097   4.752  2.2396 -1.6909 -2.4890
  529MOL0     H71415   8.683   7.256   4.788  1.6958 -1.1698  1.1360
  530MOL0     O71416   0.726   7.652   3.186 -0.0964  0.1829  0.1970
  530MOL0     C71417   0.715   7.541   3.134 -0.0526  0.2645 -0.1450
  530MOL0     O71418   0.620   7.442   3.159  0.7513  0.0590 -0.7141
  530MOL0     C71419   0.504   7.492   3.214  0.5928 -0.2112  0.3776
  530MOL0     C71420   0.506   7.509   3.348 -0.5565 -0.3227 -0.3631
  530MOL0     C71421   0.390   7.536   3.418 -0.1133 -0.6319  0.4208
  530MOL0     C71422   0.273   7.555   3.354  1.5035 -0.4824  0.7185
  530MOL0     O71423   0.176   7.613   3.430  0.4643  0.1549 -0.1846
  530MOL0     C71424   0.039   7.614   3.384  0.4224 -0.6123 -0.4248
  530MOL0     C71425  -0.045   7.626   3.513 -0.6423 -0.8209 -0.0984
  530MOL0     C71426  -0.194   7.630   3.498  0.5323  0.5074  0.0621
  530MOL0     C71427  -0.246   7.705   3.626  0.4192 -0.7187 -0.5081
  530MOL0     C71428  -0.396   7.720   3.631  0.7327 -0.0308 -0.4814
  530MOL0     C71429  -0.444   7.820   3.521  0.4170 -0.3170 -0.2203
  530MOL0     C71430  -0.596   7.829   3.518  1.0949  0.4984  0.2941
  530MOL0     C71431  -0.638   7.919   3.391  0.4143 -0.1890  0.1997
  530MOL0     N71432  -0.776   7.886   3.359 -0.4088 -0.1391 -0.4493
  530MOL0     C71433  -0.886   7.912   3.438  0.1979  0.2910  0.2928
  530MOL0     C71434  -0.981   7.832   3.385 -0.0984 -0.6841 -0.4912
  530MOL0     C71435  -1.124   7.826   3.443  0.3930 -0.3131 -0.1491
  530MOL0     C71436  -1.230   7.904   3.361 -0.4542  0.5422  0.3768
  530MOL0     C71437  -1.215   8.053   3.385  1.0593 -0.5027  0.4967
  530MOL0     C71438  -1.339   8.131   3.324 -0.0670 -0.1612 -0.1373
  530MOL0     O71439  -1.342   8.145   3.186  0.7317  0.0992 -0.0483
  530MOL0     C71440  -1.459   8.150   3.112 -0.3300  1.0411  0.7166
  530MOL0     C71441  -1.452   8.167   2.975  0.5284  0.0019 -0.2852
  530MOL0     C71442  -1.569   8.188   2.896  0.8755 -0.5573 -0.2364
  530MOL0     C71443  -1.556   8.220   2.748  0.5959 -0.2080  0.5308
  530MOL0     C71444  -1.701   8.167   2.957  0.1117  0.4494 -0.0761
  530MOL0     C71445  -1.833   8.173   2.882  0.2624  0.8509 -0.0991
  530MOL0     O71446  -1.836   8.205   2.752 -0.1616  0.3332  0.5543
  530MOL0     C71447  -1.955   8.199   2.677  0.1933  0.5480 -0.6838
  530MOL0     C71448  -1.977   8.101   2.585  0.1989 -0.4690  0.3700
  530MOL0     C71449  -2.088   8.107   2.496  0.1311 -0.4475 -0.6236
  530MOL0     C71450  -2.184   8.204   2.516 -0.0492 -1.1965 -0.1944
  530MOL0     O71451  -2.287   8.221   2.422  0.1223 -0.0805  0.6112
  530MOL0     C71452  -2.401   8.305   2.460 -0.2948  0.1811  0.6245
  530MOL0     C71453  -2.492   8.239   2.552  0.1530  0.5879  0.1653
  530MOL0     C71454  -2.597   8.331   2.604  0.7245  0.1620 -0.3491
  530MOL0     C71455  -2.665   8.438   2.514 -0.8064  0.2789  0.2492
  530MOL0     C71456  -2.777   8.506   2.581  0.6597 -0.4308  0.3128
  530MOL0     C71457  -2.900   8.417   2.610 -0.3898 -0.3247 -0.4949
  530MOL0     C71458  -3.022   8.500   2.648  0.3967 -0.4860  0.3994
  530MOL0     C71459  -3.138   8.426   2.702  0.7883 -0.9263 -0.8388
  530MOL0    Cl71460  -3.267   8.540   2.747  0.3321  0.1397 -0.3881
  530MOL0     C71461  -2.166   8.294   2.626 -0.0862 -0.0286  0.5857
  530MOL0     C71462  -2.047   8.298   2.695 -0.6863  0.2392 -0.1843
  530MOL0     O71463  -1.933   8.129   2.935  0.1962 -0.4504 -0.6192
  530MOL0     C71464  -1.703   8.146   3.095 -0.0843  0.0734  0.2180
  530MOL0     C71465  -1.586   8.139   3.167 -0.5700 -0.5619 -0.1128
  530MOL0     N71466  -0.932   7.759   3.278  0.1531 -0.2013 -0.3735
  530MOL0     N71467  -0.811   7.789   3.269 -0.3052  0.5485 -1.0456
  530MOL0     C71468   0.273   7.547   3.216 -0.4529  0.0903  0.6257
  530MOL0     C71469   0.389   7.520   3.144  0.0541 -0.2579  0.2699
  530MOL0     C71470   0.818   7.507   3.036 -0.3588 -0.1670  0.7035
  530MOL0     C71471   0.805   7.387   2.966 -0.3927  0.0458  0.5386
  530MOL0     C71472   0.899   7.341   2.880 -0.5069  0.1779  0.2603
  530MOL0     C71473   1.020   7.409   2.852 -0.3468 -0.4049  0.3180
  530MOL0     O71474   1.119   7.364   2.770  0.3346  0.4232  0.0624
  530MOL0     C71475   1.122   7.231   2.700 -0.4322  0.2253  0.1297
  530MOL0     C71476   1.268   7.192   2.702 -0.7347  0.1072 -0.1639
  530MOL0     C71477   1.313   7.150   2.844  0.3647  0.3064 -1.0594
  530MOL0     C71478   1.464   7.177   2.876  0.3652  0.2454  0.1146
  530MOL0     C71479   1.539   7.115   2.762 -0.0613  0.0534  0.4163
  530MOL0     C71480   1.597   7.066   2.663  0.1372 -0.3587  0.5794
  530MOL0     C71481   1.032   7.533   2.919  0.4239  1.1232 -0.2938
  530MOL0     C71482   0.933   7.581   3.007 -0.2094  0.0337  0.5418
  530MOL0     H71483   0.595   7.496   3.408 -0.9386 -2.2919 -0.1358
  530MOL0     H71484   0.383   7.560   3.524 -1.2441 -1.6908  0.6073
  530MOL0     H71485   0.018   7.702   3.322  3.7824  2.7798  2.7089
  530MOL0     H71486   0.028   7.521   3.327  2.5675 -0.8702 -0.5195
  530MOL0     H71487  -0.014   7.544   3.578  1.3878  1.3264  1.8526
  530MOL0     H71488  -0.018   7.723   3.557 -0.5155  0.0324 -1.9624
  530MOL0     H71489  -0.220   7.687   3.408  2.2206 -2.3432 -2.3922
  530MOL0     H71490  -0.230   7.528   3.486  0.2833  0.3899  1.5320
  530MOL0     H71491  -0.206   7.660   3.718 -1.0389 -0.2559  0.3956
  530MOL0     H71492  -0.207   7.807   3.623  2.5448 -1.4686 -0.1268
  530MOL0     H71493  -0.437   7.620   3.616 -0.9378  0.7748 -1.5698
  530MOL0     H71494  -0.435   7.765   3.723 -1.0523 -0.0106 -1.2176
  530MOL0     H71495  -0.408   7.917   3.557  1.1591 -0.2057 -1.2180
  530MOL0     H71496  -0.406   7.803   3.420  0.7960  2.2405 -0.5946
  530MOL0     H71497  -0.640   7.730   3.508  1.0416  0.5839 -0.3358
  530MOL0     H71498  -0.650   7.860   3.608 -0.8286  1.0028 -0.9814
  530MOL0     H71499  -0.577   7.885   3.307 -0.1406 -1.7594  0.3975
  530MOL0     H71500  -0.616   8.026   3.398  2.0303 -0.5300  0.8772
  530MOL0     H71501  -0.912   7.988   3.511 -2.4574 -2.5838  2.6758
  530MOL0     H71502  -1.151   7.720   3.443 -0.3429 -0.1379  1.0241
  530MOL0     H71503  -1.131   7.853   3.548  4.0600 -2.2795  0.7814
  530MOL0     H71504  -1.332   7.868   3.381  0.0027 -0.6169  0.7171
  530MOL0     H71505  -1.220   7.875   3.256 -0.3257 -1.0796  0.8090
  530MOL0     H71506  -1.124   8.102   3.348  0.1175  1.1647  0.3055
  530MOL0     H71507  -1.226   8.062   3.494 -1.5827 -0.1242  0.2445
  530MOL0     H71508  -1.342   8.227   3.377  0.3539  0.4330 -1.1636
  530MOL0     H71509  -1.430   8.084   3.363  0.5085 -0.0902  1.3640
  530MOL0     H71510  -1.358   8.192   2.927  1.0388 -1.1232  0.0846
  530MOL0     H71511  -1.628   8.297   2.720  0.3445 -1.5375 -2.9979
  530MOL0     H71512  -1.455   8.257   2.726  1.3714 -2.1623  0.5945
  530MOL0     H71513  -1.567   8.136   2.678  4.3082  0.6297 -1.3659
  530MOL0     H71514  -1.911   8.016   2.574 -0.0838 -0.6030 -0.3561
  530MOL0     H71515  -2.101   8.037   2.414 -0.5383  3.5023 -4.2645
  530MOL0     H71516  -2.370   8.404   2.496  0.9567 -0.5479  1.6345
  530MOL0     H71517  -2.452   8.319   2.364  0.4223 -2.1623 -0.1665
  530MOL0     H71518  -2.536   8.154   2.499 -2.6899  2.4234 -0.6231
  530MOL0     H71519  -2.426   8.210   2.634 -0.5733 -2.5073 -0.2324
  530MOL0     H71520  -2.559   8.384   2.691 -0.0552  1.2631 -0.6644
  530MOL0     H71521  -2.676   8.265   2.641 -0.9730  2.6058  0.6405
  530MOL0     H71522  -2.592   8.515   2.488  1.0245 -0.8564  1.7430
  530MOL0     H71523  -2.694   8.388   2.421 -0.8873  0.5611  0.1217
  530MOL0     H71524  -2.820   8.581   2.514 -1.7389 -1.4442  0.6038
  530MOL0     H71525  -2.736   8.560   2.667 -2.1843  2.7464 -0.1132
  530MOL0     H71526  -2.917   8.358   2.519 -0.6956  1.6888 -1.7932
  530MOL0     H71527  -2.878   8.343   2.687  0.6390  1.5034  1.0284
  530MOL0     H71528  -3.059   8.565   2.568  3.0754  1.5162  0.6620
  530MOL0     H71529  -2.994   8.572   2.725 -2.5720  0.3939  0.7933
  530MOL0     H71530  -3.107   8.387   2.799  0.6824 -3.3460 -1.6984
  530MOL0     H71531  -3.164   8.343   2.634  0.9798 -1.0724 -0.7360
  530MOL0     H71532  -2.238   8.372   2.652 -0.5589 -0.0203 -0.6719
  530MOL0     H71533  -2.026   8.372   2.772 -0.0143  0.1106 -0.2415
  530MOL0     H71534  -1.798   8.141   3.147 -0.2208 -5.5802 -0.0347
  530MOL0     H71535  -1.603   8.111   3.270 -0.4635  1.3056  0.4558
  530MOL0     H71536   0.186   7.568   3.154  0.6331 -2.4931 -2.0557
  530MOL0     H71537   0.384   7.511   3.036 -2.7271 -3.7304  0.5069
  530MOL0     H71538   0.712   7.331   2.974 -0.6259 -0.3007 -2.8070
  530MOL0     H71539   0.867   7.250   2.830 -2.7079  1.6669 -1.1881
  530MOL0     H71540   1.059   7.151   2.738  0.1688 -0.4567 -0.2900
  530MOL0     H71541   1.098   7.246   2.595  0.3480  0.4360 -0.0276
  530MOL0     H71542   1.341   7.268   2.673 -0.9754  0.2698 -0.3399
  530MOL0     H71543   1.287   7.114   2.628 -1.5946  1.3918 -1.7811
  530MOL0     H71544   1.276   7.047   2.851  0.5458  0.1491 -2.2970
  530MOL0     H71545   1.269   7.211   2.923  1.1859 -1.4681  0.8636
  530MOL0     H71546   1.491   7.119   2.965 -1.4994  0.3275  0.7620
  530MOL0     H71547   1.487   7.284   2.877 -1.9626  0.9110 -2.8885
  530MOL0     H71548   1.646   7.016   2.582  0.2179  3.0500 -1.6591
  530MOL0     H71549   1.121   7.594   2.901  1.1340  0.1616 -0.1017
  530MOL0     H71550   0.969   7.672   3.054 -0.1796  1.0757 -1.3982
  531MOL0     O71551   8.574   9.185   5.143  0.1810 -1.0608 -0.1224
  531MOL0     C71552   8.613   9.078   5.092 -0.2344  0.3742 -0.9319
  531MOL0     O71553   8.532   8.963   5.072  0.4700  0.1117  0.2427
  531MOL0     C71554   8.406   8.948   5.123 -0.0008  0.1941 -0.2876
  531MOL0     C71555   8.377   8.979   5.252 -0.5734  0.2670 -0.5988
  531MOL0     C71556   8.248   8.958   5.308 -0.1203 -0.5144  0.8515
  531MOL0     C71557   8.149   8.909   5.217  0.2223 -0.2544 -0.6150
  531MOL0     O71558   8.021   8.893   5.253  0.2217 -0.9913  0.0976
  531MOL0     C71559   7.950   9.014   5.302 -0.3219 -0.1441 -0.3884
  531MOL0     C71560   7.932   9.115   5.184 -1.7962 -0.4529 -0.5545
  531MOL0     C71561   7.823   9.219   5.220  0.5484  0.6260  0.4931
  531MOL0     C71562   7.805   9.335   5.117 -0.6630 -0.0548  0.6618
  531MOL0     C71563   7.687   9.422   5.159  0.2085  0.0443  0.6098
  531MOL0     C71564   7.695   9.559   5.076  0.3848 -1.0311 -0.4519
  531MOL0     C71565   7.577   9.651   5.107 -0.8174  1.2143 -0.0853
  531MOL0     C71566   7.590   9.792   5.051 -0.2692 -0.3829  0.7352
  531MOL0     N71567   7.465   9.871   5.070  0.5315 -0.3419  0.8218
  531MOL0     C71568   7.449   9.994   5.134 -0.5479  0.0239 -0.3107
  531MOL0     C71569   7.318  10.014   5.161  0.1574 -0.6644  0.6218
  531MOL0     C71570   7.256  10.129   5.225 -0.8148 -1.5483 -0.1344
  531MOL0     C71571   7.111  10.120   5.263 -0.1846 -0.0162  0.1634
  531MOL0     C71572   7.054  10.249   5.326  0.1414  0.1121 -0.0219
  531MOL0     C71573   6.918  10.222   5.401  0.5379 -0.4094  0.1459
  531MOL0     O71574   6.805  10.243   5.311 -0.1836  0.4737 -0.3220
  531MOL0     C71575   6.685  10.237   5.371 -0.2457  0.7120  0.6717
  531MOL0     C71576   6.578  10.310   5.321 -0.0311 -0.1765  0.2719
  531MOL0     C71577   6.452  10.330   5.385 -0.8506  0.0411 -0.4675
  531MOL0     C71578   6.345  10.395   5.309 -0.4277 -0.5540 -0.4510
  531MOL0     C71579   6.436  10.276   5.514  0.9450 -0.4336 -0.4209
  531MOL0     C71580   6.315  10.316   5.596 -0.7248 -0.0969  0.2082
  531MOL0     O71581   6.306  10.244   5.708  0.1677  0.0962 -0.2998
  531MOL0     C71582   6.228  10.282   5.824 -0.7614 -0.4398 -0.4260
  531MOL0     C71583   6.231  10.188   5.924  0.5390 -0.0214 -0.1822
  531MOL0     C71584   6.134  10.197   6.026 -0.9530  0.2717 -0.2683
  531MOL0     C71585   6.049  10.302   6.033 -0.1173  0.8790  0.7957
  531MOL0     O71586   5.957  10.304   6.131 -0.3874 -0.1882  0.0900
  531MOL0     C71587   5.839  10.229   6.098  0.2161 -0.2197  0.3442
  531MOL0     C71588   5.733  10.332   6.049  0.2642 -0.6704  0.1726
  531MOL0     C71589   5.603  10.259   6.013 -0.4960 -0.3851 -0.5002
  531MOL0     C71590   5.496  10.361   5.979  0.5008 -0.2763  0.7162
  531MOL0     C71591   5.371  10.274   5.930  0.1478 -0.1554 -0.5064
  531MOL0     C71592   5.250  10.365   5.914  0.0603  0.2099  0.0699
  531MOL0     C71593   5.136  10.282   5.867 -0.5726  1.0170 -0.0089
  531MOL0     C71594   5.021  10.379   5.832  0.1698 -0.0135  0.7560
  531MOL0    Cl71595   4.896  10.272   5.744 -0.4585 -0.0430  0.1807
  531MOL0     C71596   6.053  10.403   5.939  0.0576 -0.3557 -0.1608
  531MOL0     C71597   6.134  10.387   5.826 -0.2336 -0.7474  0.6376
  531MOL0     O71598   6.248  10.411   5.562  0.1831 -0.1511  0.0437
  531MOL0     C71599   6.537  10.185   5.557 -0.7090  1.2873  0.5151
  531MOL0     C71600   6.663  10.163   5.490  0.0543 -0.1569 -0.4298
  531MOL0     N71601   7.260   9.910   5.097  0.5463  0.3027  0.2940
  531MOL0     N71602   7.343   9.831   5.043 -0.0407 -0.5018  0.1424
  531MOL0     C71603   8.181   8.869   5.088  0.6156 -0.6845 -0.0755
  531MOL0     C71604   8.309   8.896   5.040  0.4282  1.0490  0.7298
  531MOL0     C71605   8.752   9.063   5.036 -0.7483  0.5223 -0.1720
  531MOL0     C71606   8.777   8.961   4.939 -0.8035 -0.7938 -0.1179
  531MOL0     C71607   8.908   8.950   4.880 -0.1780  0.3022 -0.2106
  531MOL0     C71608   9.022   9.030   4.915  0.8696  0.1316 -0.7818
  531MOL0     O71609   9.135   8.982   4.857 -0.1064  0.1646 -0.4759
  531MOL0     C71610   9.251   9.060   4.883  0.8031  0.8165  1.3648
  531MOL0     C71611   9.378   8.981   4.862 -0.1751  0.6565 -0.3079
  531MOL0     C71612   9.495   9.065   4.813 -0.3400  0.6069  0.0595
  531MOL0     C71613   9.622   8.985   4.760  0.2176  0.2958 -0.3071
  531MOL0     C71614   9.673   8.927   4.882 -0.4025 -0.5188 -0.1865
  531MOL0     C71615   9.721   8.894   4.991 -0.0398 -0.0798 -0.0198
  531MOL0     C71616   8.986   9.138   4.998  0.0414 -0.0896 -0.1393
  531MOL0     C71617   8.863   9.152   5.060  0.2146  0.0456  0.2395
  531MOL0     H71618   8.446   9.039   5.310  2.1448 -2.2326 -1.0288
  531MOL0     H71619   8.213   8.986   5.407  2.3372  0.9428  1.4117
  531MOL0     H71620   7.852   8.986   5.344  0.0921  0.2535  0.8946
  531MOL0     H71621   8.005   9.069   5.378  0.0573  1.8887 -2.0698
  531MOL0     H71622   8.028   9.159   5.155 -2.2861  1.0647  0.0114
  531MOL0     H71623   7.895   9.055   5.101 -3.0275 -1.2114  0.4911
  531MOL0     H71624   7.734   9.159   5.239  1.2640 -1.2163 -1.5877
  531MOL0     H71625   7.855   9.267   5.313 -0.1205  2.5021 -0.2116
  531MOL0     H71626   7.895   9.398   5.120 -0.8299  0.4953 -2.6461
  531MOL0     H71627   7.800   9.299   5.014  2.5994  0.6191  0.1486
  531MOL0     H71628   7.595   9.367   5.139  1.4842 -1.4710 -1.5544
  531MOL0     H71629   7.674   9.440   5.266 -0.2708 -4.0440  1.3781
  531MOL0     H71630   7.787   9.611   5.103 -1.8221  1.3180  3.7604
  531MOL0     H71631   7.693   9.554   4.967  1.3408  2.8958 -0.8243
  531MOL0     H71632   7.487   9.610   5.060 -0.5675 -0.7292  1.0314
  531MOL0     H71633   7.560   9.657   5.215  0.0038  3.9262 -0.0314
  531MOL0     H71634   7.628   9.786   4.948  1.4590 -1.2526  1.3898
  531MOL0     H71635   7.670   9.845   5.104  2.1708 -1.9177 -1.1665
  531MOL0     H71636   7.534  10.055   5.164 -0.5302  1.3536 -2.8274
  531MOL0     H71637   7.309  10.141   5.320 -1.2559 -0.4521 -0.0128
  531MOL0     H71638   7.262  10.216   5.159 -5.1901  2.2520  3.7955
  531MOL0     H71639   7.099  10.043   5.340 -1.2763 -0.3920 -0.3630
  531MOL0     H71640   7.060  10.094   5.169  2.5865 -0.1725 -1.3960
  531MOL0     H71641   7.041  10.318   5.242 -1.0698  0.0008  0.0510
  531MOL0     H71642   7.120  10.296   5.399  1.9510  1.5084 -2.4364
  531MOL0     H71643   6.900  10.296   5.479 -1.5607 -0.0664 -0.6212
  531MOL0     H71644   6.928  10.123   5.446  1.8412 -1.2263 -1.8034
  531MOL0     H71645   6.607  10.354   5.227 -1.9628  0.0914 -0.2287
  531MOL0     H71646   6.255  10.341   5.338 -1.1395  0.7477 -0.1839
  531MOL0     H71647   6.348  10.501   5.332 -1.3478 -0.6733  0.2568
  531MOL0     H71648   6.352  10.393   5.200 -0.5076  1.5031 -0.5305
  531MOL0     H71649   6.303  10.106   5.928 -1.0562 -1.4983 -0.3674
  531MOL0     H71650   6.137  10.120   6.103 -1.3464  0.4909 -0.0336
  531MOL0     H71651   5.858  10.160   6.016 -0.8428  1.9250 -1.8431
  531MOL0     H71652   5.798  10.165   6.177 -3.8900 -2.6091 -3.2608
  531MOL0     H71653   5.713  10.400   6.133  0.1138  1.1803 -1.2938
  531MOL0     H71654   5.767  10.395   5.966 -2.5240 -0.4691 -0.9064
  531MOL0     H71655   5.568  10.185   6.085 -1.4937  0.2966 -0.2647
  531MOL0     H71656   5.631  10.201   5.925 -0.6162 -1.9955  0.4754
  531MOL0     H71657   5.469  10.428   6.061 -0.5760 -0.8487  0.8464
  531MOL0     H71658   5.541  10.426   5.903 -0.3581 -1.8470 -1.2536
  531MOL0     H71659   5.357  10.204   6.013 -0.7883  3.5051  2.7521
  531MOL0     H71660   5.397  10.229   5.834 -2.1319  0.0697 -1.2812
  531MOL0     H71661   5.219  10.411   6.008 -2.1464  0.7170 -0.8470
  531MOL0     H71662   5.276  10.446   5.844  2.2355 -1.0508 -0.6890
  531MOL0     H71663   5.106  10.217   5.950 -1.3045  1.0341 -0.2531
  531MOL0     H71664   5.165  10.217   5.784 -0.1293  2.3363 -0.9122
  531MOL0     H71665   5.060  10.456   5.765  0.6037 -0.0390  0.9754
  531MOL0     H71666   4.976  10.428   5.918  0.8225 -0.5138  1.3965
  531MOL0     H71667   5.965  10.465   5.951 -0.2103  0.5153 -4.8159
  531MOL0     H71668   6.112  10.454   5.743  2.4301  0.6403  0.9539
  531MOL0     H71669   6.511  10.126   5.644 -0.6383 -0.3528 -0.5404
  531MOL0     H71670   6.743  10.105   5.536  0.8765  0.3804 -1.1445
  531MOL0     H71671   8.108   8.811   5.034  0.6519  0.8627 -1.9120
  531MOL0     H71672   8.342   8.870   4.940  1.0947  0.0312  1.1996
  531MOL0     H71673   8.700   8.886   4.923 -0.4102 -1.5001  1.1749
  531MOL0     H71674   8.922   8.866   4.814 -4.6413 -4.1001  3.6410
  531MOL0     H71675   9.251   9.136   4.804  1.3958  0.1265  0.6822
  531MOL0     H71676   9.257   9.096   4.986  1.5511  1.0781  1.2415
  531MOL0     H71677   9.358   8.905   4.786 -3.1178  1.4957 -0.5132
  531MOL0     H71678   9.392   8.929   4.958 -0.5784  1.1133  0.0046
  531MOL0     H71679   9.529   9.135   4.891 -1.8186 -1.3078  2.5571
  531MOL0     H71680   9.463   9.134   4.734  3.6022  3.2950  0.4717
  531MOL0     H71681   9.700   9.047   4.716  0.8164 -1.9506 -2.6413
  531MOL0     H71682   9.598   8.898   4.698 -2.0597  2.1032 -2.1790
  531MOL0     H71683   9.756   8.868   5.089 -1.6043 -1.9502  0.1007
  531MOL0     H71684   9.061   9.212   5.023  0.4244 -0.1296 -1.1195
  531MOL0     H71685   8.849   9.239   5.123  5.8518  1.7339 -0.3226
  532MOL0     O71686   0.303   9.750   2.868 -0.3617 -0.4863 -0.3291
  532MOL0     C71687   0.253   9.643   2.907 -0.8665 -0.1324  0.1996
  532MOL0     O71688   0.116   9.617   2.932  0.1213 -0.1577  0.1113
  532MOL0     C71689   0.022   9.714   2.913  0.5638  0.4460 -0.2230
  532MOL0     C71690   0.030   9.797   2.803  0.1511  0.7668  0.4080
  532MOL0     C71691  -0.075   9.875   2.771 -0.5396 -0.2623  0.0352
  532MOL0     C71692  -0.185   9.897   2.853  0.7454 -0.5462  1.4520
  532MOL0     O71693  -0.284   9.988   2.824  0.6218  0.6506 -0.4479
  532MOL0     C71694  -0.418   9.981   2.884 -0.0559 -0.5456  0.4781
  532MOL0     C71695  -0.530  10.051   2.811  0.2681  0.1848 -0.2200
  532MOL0     C71696  -0.495  10.203   2.789  0.7098 -0.1099 -0.4197
  532MOL0     C71697  -0.601  10.265   2.693 -0.3505  0.5418 -0.5325
  532MOL0     C71698  -0.712  10.320   2.779  0.2444  0.0402 -0.3034
  532MOL0     C71699  -0.843  10.350   2.699 -0.1126  0.2464  0.2996
  532MOL0     C71700  -0.954  10.404   2.792 -0.5851  0.5298 -0.4492
  532MOL0     C71701  -1.073  10.444   2.706  0.6296  0.9782 -0.0513
  532MOL0     N71702  -1.188  10.505   2.782 -0.2232  0.6103  0.5412
  532MOL0     C71703  -1.228  10.634   2.777 -0.7719 -0.0690  0.6776
  532MOL0     C71704  -1.314  10.647   2.878  0.6223  0.1156 -0.8399
  532MOL0     C71705  -1.399  10.764   2.908 -0.6325 -1.2601  0.0053
  532MOL0     C71706  -1.488  10.814   2.795  0.1059  0.1261 -0.1476
  532MOL0     C71707  -1.563  10.933   2.837  1.0707 -0.5200 -0.4312
  532MOL0     C71708  -1.651  11.001   2.734  0.7378 -0.2338  0.1920
  532MOL0     O71709  -1.766  10.915   2.698 -0.5585 -0.8738 -0.5000
  532MOL0     C71710  -1.865  10.986   2.633 -0.7981 -0.0944  0.7387
  532MOL0     C71711  -1.833  11.064   2.517 -0.3172  0.7067  0.0969
  532MOL0     C71712  -1.932  11.147   2.464  0.4351 -0.6762  0.5374
  532MOL0     C71713  -1.888  11.259   2.366  0.6025  0.1488  0.1027
  532MOL0     C71714  -2.072  11.127   2.496 -0.0185  0.1744 -0.1442
  532MOL0     C71715  -2.184  11.190   2.419 -0.1064  0.7417 -0.3817
  532MOL0     O71716  -2.282  11.110   2.382 -0.9134 -0.4129 -0.0972
  532MOL0     C71717  -2.412  11.155   2.373 -0.6261  0.3768 -0.4596
  532MOL0     C71718  -2.477  11.106   2.264 -0.5662 -0.1853  0.3854
  532MOL0     C71719  -2.606  11.145   2.236  0.7599  0.4869 -0.0693
  532MOL0     C71720  -2.671  11.233   2.319 -0.2827 -0.1011 -0.8784
  532MOL0     O71721  -2.805  11.255   2.284  0.3792 -0.7277 -0.2770
  532MOL0     C71722  -2.885  11.361   2.341 -0.3305 -0.5562 -0.2152
  532MOL0     C71723  -3.014  11.338   2.276  0.2803  0.0174 -0.2291
  532MOL0     C71724  -3.081  11.476   2.263 -1.5509 -0.3528  0.2565
  532MOL0     C71725  -3.225  11.486   2.211  1.0173  0.5250  0.2553
  532MOL0     C71726  -3.293  11.624   2.210 -0.0921 -0.1312 -0.7460
  532MOL0     C71727  -3.444  11.619   2.215 -0.2759 -0.0453  0.0755
  532MOL0     C71728  -3.496  11.750   2.172  0.3156  0.1181 -0.3515
  532MOL0     C71729  -3.504  11.764   2.011  0.3503 -0.5519  0.0794
  532MOL0    Cl71730  -3.674  11.734   1.964 -0.0584  0.0166  0.1414
  532MOL0     C71731  -2.607  11.286   2.437  0.6368 -0.1359  0.3868
  532MOL0     C71732  -2.478  11.250   2.464  0.2913  0.4246 -0.4115
  532MOL0     O71733  -2.197  11.311   2.421 -0.1867  0.0300  0.3271
  532MOL0     C71734  -2.098  11.033   2.598  0.2745 -0.1796 -0.0007
  532MOL0     C71735  -2.000  10.967   2.668 -1.0283 -0.2228  0.6029
  532MOL0     N71736  -1.344  10.522   2.928 -0.4118 -0.0526  0.3069
  532MOL0     N71737  -1.271  10.439   2.865  0.4373  0.4222 -0.0767
  532MOL0     C71738  -0.186   9.828   2.972  0.1111  0.3506 -0.6354
  532MOL0     C71739  -0.091   9.733   3.003 -0.7442 -0.1844  0.6978
  532MOL0     C71740   0.355   9.534   2.927  1.0972 -0.6290  0.1909
  532MOL0     C71741   0.493   9.556   2.944  0.3206 -0.2223  0.2044
  532MOL0     C71742   0.581   9.453   2.986  0.0097  0.0530  0.6344
  532MOL0     C71743   0.528   9.320   3.001  0.9503  0.6602  0.2063
  532MOL0     O71744   0.618   9.225   3.038 -0.4203  0.4433 -0.3266
  532MOL0     C71745   0.583   9.085   3.005  0.1937  0.3530 -0.5803
  532MOL0     C71746   0.709   8.996   2.989 -0.3825 -0.0004 -0.6605
  532MOL0     C71747   0.802   8.974   3.114  0.0231 -0.3921  0.1772
  532MOL0     C71748   0.946   8.925   3.090  0.1998 -0.2335  0.1822
  532MOL0     C71749   0.939   8.809   3.004 -0.2668  0.5707 -0.1638
  532MOL0     C71750   0.928   8.705   2.946  0.4195  0.9242  0.2608
  532MOL0     C71751   0.389   9.295   2.982 -0.6968  1.0895  0.3815
  532MOL0     C71752   0.309   9.404   2.946 -0.0464 -0.3179 -0.4642
  532MOL0     H71753   0.115   9.788   2.736 -0.7365 -0.7099 -0.5867
  532MOL0     H71754  -0.082   9.927   2.676  0.2587 -0.4050 -0.1087
  532MOL0     H71755  -0.440   9.874   2.897  0.9012 -1.2674 -2.7708
  532MOL0     H71756  -0.415  10.019   2.986 -1.3766 -0.6090  0.5499
  532MOL0     H71757  -0.537   9.989   2.720  4.6453 -1.6762  0.4573
  532MOL0     H71758  -0.630  10.047   2.856  0.0539 -0.1423 -0.7106
  532MOL0     H71759  -0.494  10.252   2.886  0.8993 -0.7220 -0.1058
  532MOL0     H71760  -0.395  10.201   2.744 -0.6670 -0.8733 -3.7627
  532MOL0     H71761  -0.544  10.336   2.632  0.7165  0.0458 -0.1459
  532MOL0     H71762  -0.648  10.183   2.636  0.4341 -0.5413  0.3288
  532MOL0     H71763  -0.731  10.241   2.852  0.5994  0.2607  0.0326
  532MOL0     H71764  -0.680  10.417   2.817 -0.3472 -0.1742  0.7826
  532MOL0     H71765  -0.831  10.423   2.618 -1.4154 -2.8929 -2.9591
  532MOL0     H71766  -0.868  10.255   2.651 -0.0297 -0.3307  1.3727
  532MOL0     H71767  -0.992  10.340   2.873 -1.4415 -0.8678 -1.8981
  532MOL0     H71768  -0.923  10.499   2.836 -0.8749  1.2534 -1.7673
  532MOL0     H71769  -1.102  10.347   2.665  0.1301  0.9822  0.2885
  532MOL0     H71770  -1.052  10.510   2.622 -0.9785  0.5676 -0.8155
  532MOL0     H71771  -1.193  10.716   2.715 -2.3737 -1.1326 -1.8297
  532MOL0     H71772  -1.454  10.750   3.001  1.1167  1.3309  1.5285
  532MOL0     H71773  -1.330  10.845   2.931  0.6351 -2.3830  0.2333
  532MOL0     H71774  -1.558  10.736   2.763 -0.6634  0.9355 -0.4535
  532MOL0     H71775  -1.416  10.836   2.716  0.8753  0.5404  0.6496
  532MOL0     H71776  -1.495  11.007   2.881 -2.0911  1.3069  1.8085
  532MOL0     H71777  -1.627  10.913   2.923 -2.6829 -1.0373 -3.1138
  532MOL0     H71778  -1.585  11.022   2.649  1.6263 -1.2455  0.6069
  532MOL0     H71779  -1.683  11.101   2.764 -2.1363 -0.3111 -2.2216
  532MOL0     H71780  -1.734  11.089   2.480 -0.4175 -1.0409 -1.5525
  532MOL0     H71781  -1.847  11.219   2.272 -0.2463 -0.3498 -0.0704
  532MOL0     H71782  -1.969  11.329   2.340  0.9956  1.0599  1.2785
  532MOL0     H71783  -1.805  11.318   2.405  1.0403 -1.5147  1.8267
  532MOL0     H71784  -2.439  11.036   2.191 -0.4087 -0.2642  0.5417
  532MOL0     H71785  -2.654  11.119   2.143 -0.0812  2.2590 -0.1709
  532MOL0     H71786  -2.904  11.352   2.448  0.2381  1.2424  0.0663
  532MOL0     H71787  -2.839  11.453   2.305 -0.7297 -1.1210 -2.2784
  532MOL0     H71788  -3.013  11.279   2.184 -0.3426 -0.3172 -0.0301
  532MOL0     H71789  -3.060  11.274   2.353  0.0335  0.2067 -0.2178
  532MOL0     H71790  -3.022  11.537   2.195 -0.8591 -2.1248 -0.8170
  532MOL0     H71791  -3.076  11.521   2.362  0.1823 -1.7400  0.8473
  532MOL0     H71792  -3.219  11.440   2.112 -0.2275  2.4024 -0.7534
  532MOL0     H71793  -3.291  11.416   2.265  0.0017 -0.0437 -1.6223
  532MOL0     H71794  -3.260  11.678   2.120 -0.9001 -1.0725 -1.6191
  532MOL0     H71795  -3.245  11.678   2.293 -0.8860  0.1866 -0.4859
  532MOL0     H71796  -3.480  11.550   2.139  0.6165  0.3618 -0.7556
  532MOL0     H71797  -3.476  11.601   2.318 -3.3492  2.1514 -0.3691
  532MOL0     H71798  -3.439  11.836   2.208  2.0440 -0.0250 -2.5195
  532MOL0     H71799  -3.600  11.747   2.206 -0.4860 -0.3199 -2.6292
  532MOL0     H71800  -3.442  11.693   1.955  1.3726  0.0957  0.3715
  532MOL0     H71801  -3.486  11.868   1.983 -2.2550 -0.4900 -1.7997
  532MOL0     H71802  -2.657  11.359   2.499 -2.3981  1.5848 -3.6147
  532MOL0     H71803  -2.431  11.281   2.557  1.9116 -0.9525 -0.7232
  532MOL0     H71804  -2.202  11.010   2.616  0.6894 -1.0617  1.4380
  532MOL0     H71805  -2.019  10.899   2.750 -1.5438 -1.7964 -0.7639
  532MOL0     H71806  -0.262   9.839   3.048  0.8841  0.5014  0.1235
  532MOL0     H71807  -0.105   9.661   3.083 -3.0552 -3.6495 -2.4541
  532MOL0     H71808   0.536   9.655   2.931  1.4492 -0.7873 -0.5315
  532MOL0     H71809   0.682   9.472   3.019  0.8109 -0.0598 -1.5815
  532MOL0     H71810   0.539   9.048   3.097  0.2028  2.8350  0.4866
  532MOL0     H71811   0.538   9.075   2.906 -0.3628 -0.4222 -0.2521
  532MOL0     H71812   0.767   9.038   2.907 -0.6696 -2.1365 -2.0305
  532MOL0     H71813   0.686   8.897   2.949  1.4308 -0.0863 -1.5911
  532MOL0     H71814   0.745   8.914   3.186 -1.4581  0.4355 -0.2485
  532MOL0     H71815   0.808   9.068   3.169 -1.1414  0.2846 -0.7816
  532MOL0     H71816   0.988   8.898   3.188 -1.0627 -1.8847  0.3048
  532MOL0     H71817   0.995   9.015   3.051  0.0834  0.7328  2.1304
  532MOL0     H71818   0.956   8.609   2.906  1.8871  0.4940  2.1557
  532MOL0     H71819   0.355   9.192   2.991  3.1629 -0.4230 -0.3564
  532MOL0     H71820   0.204   9.379   2.935 -0.3808  1.1676 -0.8937
  533MOL0     O71821   0.813   3.531   3.543  0.3524  0.2579 -0.2681
  533MOL0     C71822   0.851   3.618   3.467  0.3287  0.1523 -0.1604
  533MOL0     O71823   0.770   3.674   3.364  0.3813 -0.0738  0.1833
  533MOL0     C71824   0.632   3.656   3.377 -0.3335 -0.5543 -0.0343
  533MOL0     C71825   0.564   3.570   3.289  0.6635 -0.4850  0.2299
  533MOL0     C71826   0.423   3.574   3.274 -0.4777  0.1344 -0.2463
  533MOL0     C71827   0.351   3.655   3.354  0.1882  0.0477 -0.3203
  533MOL0     O71828   0.211   3.645   3.352 -0.2959 -0.7446 -0.0167
  533MOL0     C71829   0.158   3.557   3.251 -0.4162  0.2303 -0.2374
  533MOL0     C71830   0.012   3.579   3.268  0.2375  0.2447 -0.1671
  533MOL0     C71831  -0.052   3.519   3.395 -0.5595  0.5635 -0.4185
  533MOL0     C71832  -0.081   3.370   3.381  0.1008  0.0359 -0.4947
  533MOL0     C71833  -0.199   3.329   3.484 -1.4584  0.0010  0.6076
  533MOL0     C71834  -0.215   3.176   3.489  0.1463 -0.4892 -0.3343
  533MOL0     C71835  -0.341   3.124   3.563 -0.1780  0.1769 -0.4391
  533MOL0     C71836  -0.331   2.962   3.572 -0.0543 -0.1558  0.8993
  533MOL0     N71837  -0.437   2.890   3.641 -0.9082 -0.2046 -0.2266
  533MOL0     C71838  -0.524   2.804   3.580 -0.3808  0.6242  0.3749
  533MOL0     C71839  -0.629   2.797   3.663  0.1524 -0.3028  0.2603
  533MOL0     C71840  -0.760   2.718   3.654 -0.3565  0.0555 -0.4534
  533MOL0     C71841  -0.740   2.564   3.682  0.0423  0.0925  0.8480
  533MOL0     C71842  -0.701   2.529   3.830 -0.0260  0.2839  0.0339
  533MOL0     C71843  -0.691   2.376   3.865  0.4859 -0.0605  0.0728
  533MOL0     O71844  -0.815   2.318   3.831  0.1078 -0.1836  0.5907
  533MOL0     C71845  -0.915   2.310   3.922 -0.2314  0.5552  0.1267
  533MOL0     C71846  -1.030   2.243   3.884 -0.2816  0.6325  0.1861
  533MOL0     C71847  -1.149   2.234   3.968  0.2156  0.8408 -0.5142
  533MOL0     C71848  -1.272   2.163   3.915  0.5219  1.0184  0.0340
  533MOL0     C71849  -1.157   2.294   4.096  0.8916  0.8155 -0.2518
  533MOL0     C71850  -1.268   2.289   4.196  0.2289 -0.7824 -1.3245
  533MOL0     O71851  -1.395   2.279   4.141 -0.1831  0.4856  0.7415
  533MOL0     C71852  -1.515   2.298   4.207 -0.7357 -0.0866 -0.4948
  533MOL0     C71853  -1.578   2.425   4.203 -0.2559  0.5460 -0.0414
  533MOL0     C71854  -1.706   2.437   4.256 -0.0402  0.7840 -0.2295
  533MOL0     C71855  -1.763   2.330   4.327 -0.4163 -0.3201  0.3216
  533MOL0     O71856  -1.871   2.355   4.398  0.3673 -0.3892  0.5844
  533MOL0     C71857  -1.910   2.272   4.510 -0.0570  0.3136 -0.1381
  533MOL0     C71858  -2.039   2.326   4.579 -0.5923 -0.9015  0.1762
  533MOL0     C71859  -2.085   2.238   4.687 -0.1771  0.4919 -0.1605
  533MOL0     C71860  -2.214   2.296   4.748 -0.3476 -0.5597  0.9894
  533MOL0     C71861  -2.312   2.178   4.779  0.9424 -0.3903  0.2739
  533MOL0     C71862  -2.453   2.228   4.824  0.1340 -0.6838 -0.0951
  533MOL0     C71863  -2.544   2.111   4.862  0.9287 -0.3107 -0.5433
  533MOL0     C71864  -2.519   2.091   5.020  0.3821  0.2645 -0.7099
  533MOL0    Cl71865  -2.613   1.950   5.075  0.4612  0.0370 -0.6718
  533MOL0     C71866  -1.698   2.215   4.339 -0.0019 -0.1351 -0.1423
  533MOL0     C71867  -1.572   2.200   4.284 -0.0988  0.4093  0.9303
  533MOL0     O71868  -1.253   2.286   4.320  0.2094 -0.3623 -0.8475
  533MOL0     C71869  -1.028   2.345   4.134 -1.0909 -0.8964  0.5532
  533MOL0     C71870  -0.918   2.357   4.050  0.2065 -0.6947  0.2478
  533MOL0     N71871  -0.591   2.852   3.778  0.0701 -0.8208  0.0370
  533MOL0     N71872  -0.476   2.910   3.768  0.1629  0.7644 -0.5233
  533MOL0     C71873   0.420   3.740   3.447 -0.0783 -0.2105 -0.4428
  533MOL0     C71874   0.557   3.737   3.459 -0.8528  0.3363 -0.5410
  533MOL0     C71875   0.988   3.668   3.483 -0.0831 -0.0256  0.1964
  533MOL0     C71876   1.026   3.784   3.413  0.3521 -1.7461  1.3223
  533MOL0     C71877   1.146   3.842   3.436  0.0066 -0.9644  0.0299
  533MOL0     C71878   1.242   3.777   3.520 -0.3397 -0.0437 -0.0435
  533MOL0     O71879   1.367   3.830   3.540 -0.5670  0.1312  0.5555
  533MOL0     C71880   1.468   3.752   3.473  0.1111 -0.6359  0.0790
  533MOL0     C71881   1.471   3.804   3.332  0.1996 -0.2931 -1.0370
  533MOL0     C71882   1.500   3.958   3.331  0.1744  1.0922  0.0888
  533MOL0     C71883   1.622   4.001   3.239 -0.0040  0.0800  0.0745
  533MOL0     C71884   1.743   3.993   3.319  0.4478  0.2266  0.2231
  533MOL0     C71885   1.840   3.987   3.393  0.2239 -0.2637 -0.1284
  533MOL0     C71886   1.207   3.657   3.578  0.3470  0.6042 -0.3980
  533MOL0     C71887   1.081   3.604   3.565 -0.2525 -0.5791 -0.1142
  533MOL0     H71888   0.620   3.497   3.231  1.8047 -0.8920  1.7971
  533MOL0     H71889   0.373   3.514   3.198 -3.1802  1.7527  0.1525
  533MOL0     H71890   0.182   3.570   3.145  0.9438 -1.4379 -0.1781
  533MOL0     H71891   0.175   3.452   3.276  0.1026  0.4752  0.4801
  533MOL0     H71892  -0.007   3.686   3.256  1.4493  0.6515  1.3097
  533MOL0     H71893  -0.047   3.535   3.187  1.1722 -0.4610 -0.4800
  533MOL0     H71894   0.023   3.526   3.474  1.3499 -3.0317 -1.6990
  533MOL0     H71895  -0.134   3.589   3.417  0.5089  1.7092  0.0339
  533MOL0     H71896  -0.116   3.358   3.278 -0.6997  1.3111 -0.3956
  533MOL0     H71897   0.010   3.313   3.398  0.5661  1.7238  3.9332
  533MOL0     H71898  -0.185   3.370   3.584 -1.7520  0.3205  0.5213
  533MOL0     H71899  -0.289   3.382   3.450 -0.0021  1.1487 -1.7572
  533MOL0     H71900  -0.216   3.148   3.383  0.1142 -3.8865  0.4578
  533MOL0     H71901  -0.131   3.133   3.543 -0.8508 -1.3855  0.5592
  533MOL0     H71902  -0.360   3.170   3.660  2.5293  2.3349 -0.7743
  533MOL0     H71903  -0.427   3.136   3.497  0.0820 -0.7920 -0.9650
  533MOL0     H71904  -0.238   2.938   3.624  1.8891  0.7259 -1.9433
  533MOL0     H71905  -0.320   2.917   3.473  1.6422 -0.2091  1.0884
  533MOL0     H71906  -0.491   2.765   3.484  0.8078  2.7363 -0.1445
  533MOL0     H71907  -0.815   2.749   3.744  0.7691 -0.7488  0.5479
  533MOL0     H71908  -0.811   2.747   3.562 -0.1449  1.6839 -0.1022
  533MOL0     H71909  -0.664   2.534   3.608 -0.5536  1.3576 -0.3191
  533MOL0     H71910  -0.835   2.513   3.661  0.6187 -0.1238 -1.5101
  533MOL0     H71911  -0.775   2.569   3.901 -0.7987 -2.9661  1.2535
  533MOL0     H71912  -0.609   2.582   3.855 -0.2953  0.2642  1.1578
  533MOL0     H71913  -0.665   2.375   3.971 -1.0869  0.9346  0.5107
  533MOL0     H71914  -0.608   2.336   3.807 -0.7363 -0.2221 -1.6594
  533MOL0     H71915  -1.038   2.208   3.781 -1.5121  1.2380  0.0519
  533MOL0     H71916  -1.263   2.117   3.816 -1.5261  0.2173  0.1691
  533MOL0     H71917  -1.283   2.078   3.982 -1.2858  0.7447 -0.5660
  533MOL0     H71918  -1.355   2.232   3.899  0.4938  0.5851 -1.9651
  533MOL0     H71919  -1.530   2.510   4.155  0.3214 -0.4518 -1.2951
  533MOL0     H71920  -1.760   2.531   4.259  0.2027  0.9738 -1.3449
  533MOL0     H71921  -1.926   2.167   4.485 -0.4519 -0.8079  3.9739
  533MOL0     H71922  -1.823   2.270   4.577 -0.1350  0.9529 -0.0131
  533MOL0     H71923  -2.026   2.427   4.620  0.8919 -0.8490 -0.3994
  533MOL0     H71924  -2.124   2.339   4.511 -0.8167  2.6481  0.9268
  533MOL0     H71925  -2.011   2.229   4.767  0.4630  3.6595 -0.2389
  533MOL0     H71926  -2.093   2.137   4.646  0.7523  0.6665 -0.8026
  533MOL0     H71927  -2.191   2.342   4.844 -1.6515  3.9213 -0.5692
  533MOL0     H71928  -2.258   2.379   4.692  1.2190  0.4264  1.1793
  533MOL0     H71929  -2.277   2.109   4.856  2.7758  2.5417  2.2522
  533MOL0     H71930  -2.322   2.123   4.685  0.8876 -1.7245  1.0364
  533MOL0     H71931  -2.442   2.289   4.914 -0.5320 -0.7118  0.0094
  533MOL0     H71932  -2.504   2.295   4.754  1.3796 -0.9040 -1.2416
  533MOL0     H71933  -2.528   2.015   4.811 -2.0020 -1.7930  1.0572
  533MOL0     H71934  -2.648   2.139   4.843  0.5749  0.0012  1.5969
  533MOL0     H71935  -2.568   2.169   5.078 -0.6101 -0.7145 -0.1779
  533MOL0     H71936  -2.411   2.076   5.028  0.4193 -0.0498 -1.6420
  533MOL0     H71937  -1.729   2.130   4.399  4.2412  1.4578  5.0553
  533MOL0     H71938  -1.525   2.105   4.308  0.7338  0.1674 -1.3732
  533MOL0     H71939  -1.004   2.363   4.238 -1.0660 -0.7892  0.5287
  533MOL0     H71940  -0.833   2.397   4.104 -1.0408  0.5360  1.3463
  533MOL0     H71941   0.369   3.820   3.499 -1.1276 -0.1908 -1.4537
  533MOL0     H71942   0.618   3.813   3.506  1.1735  0.0371 -2.4814
  533MOL0     H71943   0.962   3.841   3.346  1.8407 -0.2730  1.0715
  533MOL0     H71944   1.170   3.942   3.401 -0.7576 -1.2495 -1.3987
  533MOL0     H71945   1.565   3.766   3.521  0.6626  1.4717 -1.4913
  533MOL0     H71946   1.443   3.645   3.479  1.1168 -0.8052  1.9753
  533MOL0     H71947   1.380   3.783   3.276  0.0961  1.7836 -1.7346
  533MOL0     H71948   1.549   3.754   3.274  1.7637  2.6305 -1.6960
  533MOL0     H71949   1.509   3.999   3.432 -0.7544  4.1311 -0.9330
  533MOL0     H71950   1.413   4.010   3.290 -0.3686  2.8784  3.1550
  533MOL0     H71951   1.616   4.105   3.207  0.2858  1.3211  3.5518
  533MOL0     H71952   1.629   3.942   3.148 -1.5207 -0.7337  0.4559
  533MOL0     H71953   1.936   3.967   3.436  0.5802 -1.2968 -1.3452
  533MOL0     H71954   1.266   3.603   3.651  1.4993 -1.5968 -2.7992
  533MOL0     H71955   1.055   3.508   3.609 -2.5442 -1.0213 -2.2448
  534MOL0     O71956   7.243   4.636   5.049  1.4843 -0.4064  0.5740
  534MOL0     C71957   7.271   4.515   5.060  0.4370  0.1847 -0.2115
  534MOL0     O71958   7.183   4.414   5.023  0.3372 -0.5176  0.1825
  534MOL0     C71959   7.053   4.455   5.005  0.4357  0.0937 -0.4077
  534MOL0     C71960   7.005   4.495   4.882  0.0653 -0.1257  0.4206
  534MOL0     C71961   6.867   4.513   4.857 -0.8171 -0.1248  0.5488
  534MOL0     C71962   6.779   4.516   4.957 -0.3726 -0.2437 -0.1574
  534MOL0     O71963   6.651   4.557   4.927 -0.5880 -0.9150  0.6475
  534MOL0     C71964   6.556   4.460   4.979  0.4412 -0.2211 -0.9292
  534MOL0     C71965   6.421   4.509   4.927 -0.7196  0.2111  0.1343
  534MOL0     C71966   6.304   4.427   4.983  0.4737 -0.4595 -0.3143
  534MOL0     C71967   6.170   4.501   4.946  0.1777 -0.3303 -0.0382
  534MOL0     C71968   6.042   4.462   5.028  0.8495 -0.5016  0.7542
  534MOL0     C71969   6.001   4.314   5.042 -0.2344  0.1802 -0.1158
  534MOL0     C71970   5.865   4.308   5.125 -0.0811  0.5167  0.0626
  534MOL0     C71971   5.787   4.176   5.091 -0.5107  0.1182 -0.4050
  534MOL0     N71972   5.642   4.179   5.121 -0.2422  0.4917 -0.2663
  534MOL0     C71973   5.564   4.275   5.073  0.4937  0.0495  0.8743
  534MOL0     C71974   5.441   4.260   5.129 -0.3991 -0.3967  0.6510
  534MOL0     C71975   5.331   4.362   5.129  0.5056 -0.3790  0.6196
  534MOL0     C71976   5.350   4.478   5.225 -0.1449  0.1311  0.0870
  534MOL0     C71977   5.435   4.600   5.163 -0.4664  0.0810  0.3853
  534MOL0     C71978   5.345   4.706   5.100  0.0077  0.6287 -0.2240
  534MOL0     O71979   5.253   4.747   5.204  0.1148 -0.7169 -0.1461
  534MOL0     C71980   5.139   4.818   5.170  0.0323  0.5374 -0.3485
  534MOL0     C71981   5.095   4.829   5.040 -0.0672  0.1079 -0.1617
  534MOL0     C71982   4.981   4.901   5.013  0.7657  0.4148  0.5771
  534MOL0     C71983   4.924   4.893   4.870 -0.4835 -0.3246 -0.5157
  534MOL0     C71984   4.916   4.973   5.112  0.9256  0.1547 -0.7522
  534MOL0     C71985   4.801   5.062   5.088  0.5240 -0.9374  0.7052
  534MOL0     O71986   4.783   5.124   4.967  0.3103 -0.8842  0.2045
  534MOL0     C71987   4.657   5.177   4.941  0.2358 -0.1184  0.0323
  534MOL0     C71988   4.593   5.281   5.019  0.1211  0.7715 -0.2356
  534MOL0     C71989   4.464   5.324   4.987  0.3368  0.5384 -1.6559
  534MOL0     C71990   4.391   5.253   4.881 -0.2898 -0.0582 -0.2219
  534MOL0     O71991   4.260   5.276   4.856 -0.0578  0.1553  0.0556
  534MOL0     C71992   4.213   5.411   4.891  0.6342 -0.3541 -0.0694
  534MOL0     C71993   4.068   5.413   4.838 -0.0585  0.1902  0.5718
  534MOL0     C71994   3.994   5.546   4.829  0.2784 -0.6867 -0.6050
  534MOL0     C71995   3.850   5.521   4.780  0.2280  0.3601 -0.3847
  534MOL0     C71996   3.739   5.627   4.814 -0.9339 -0.1697 -0.2682
  534MOL0     C71997   3.767   5.759   4.733  0.1082  0.0624  0.2298
  534MOL0     C71998   3.665   5.854   4.784 -0.0671 -0.3625  0.1233
  534MOL0     C71999   3.647   5.965   4.684  0.3454  0.3620  0.2623
  534MOL0    Cl72000   3.539   5.892   4.554 -0.3629 -0.0285 -0.2600
  534MOL0     C72001   4.454   5.149   4.809  0.3666 -0.1927  0.2614
  534MOL0     C72002   4.586   5.119   4.830  0.2569 -0.4695 -0.3271
  534MOL0     O72003   4.714   5.067   5.174 -0.2723  0.6285  0.0360
  534MOL0     C72004   4.974   4.969   5.240  0.1347 -1.0953  0.6714
  534MOL0     C72005   5.088   4.898   5.269 -0.3156 -0.1257  0.7658
  534MOL0     N72006   5.443   4.137   5.190  0.2665 -0.0423  0.1431
  534MOL0     N72007   5.567   4.090   5.187 -0.7124 -0.3112 -0.4499
  534MOL0     C72008   6.822   4.487   5.088 -0.1193  0.5596  0.6663
  534MOL0     C72009   6.952   4.455   5.104 -0.8517 -0.2222 -0.5342
  534MOL0     C72010   7.415   4.477   5.072  0.4194 -0.7594 -0.5183
  534MOL0     C72011   7.446   4.347   5.055 -0.8127  0.3217 -0.2858
  534MOL0     C72012   7.580   4.295   5.051  0.7329 -0.7806 -0.2250
  534MOL0     C72013   7.688   4.385   5.043 -0.5034 -1.1488  0.1590
  534MOL0     O72014   7.806   4.330   5.016 -0.0256 -0.5463  0.3279
  534MOL0     C72015   7.905   4.423   4.966  1.2524  0.0032  0.4121
  534MOL0     C72016   8.030   4.349   4.908  0.4530  0.3276 -0.4115
  534MOL0     C72017   8.105   4.449   4.824 -0.8548  0.2147  0.9632
  534MOL0     C72018   8.219   4.400   4.739 -0.7278  0.3413  0.2161
  534MOL0     C72019   8.330   4.366   4.823 -0.2213 -0.0789 -0.8184
  534MOL0     C72020   8.435   4.354   4.887  0.4615 -0.3834 -0.0529
  534MOL0     C72021   7.655   4.523   5.055 -0.0973  0.2299  0.2041
  534MOL0     C72022   7.522   4.568   5.069 -0.1729 -0.7418 -0.4675
  534MOL0     H72023   7.075   4.510   4.800 -1.9669 -0.7395 -1.5034
  534MOL0     H72024   6.828   4.536   4.759 -2.6406  0.5155  1.3738
  534MOL0     H72025   6.588   4.363   4.939  2.0076 -0.7881  1.4873
  534MOL0     H72026   6.562   4.468   5.088  3.1254  0.1841 -1.0542
  534MOL0     H72027   6.412   4.614   4.957 -0.1122  1.0083 -2.2747
  534MOL0     H72028   6.425   4.517   4.818  0.0996  0.4317  0.1797
  534MOL0     H72029   6.308   4.325   4.942 -2.5575 -1.0868  0.6621
  534MOL0     H72030   6.318   4.410   5.090 -0.0428 -1.5247 -0.3958
  534MOL0     H72031   6.197   4.607   4.956 -1.6079  0.1692 -0.1156
  534MOL0     H72032   6.159   4.485   4.839 -0.1783 -3.4666  0.3722
  534MOL0     H72033   6.052   4.513   5.124  0.1942 -0.0235  0.5731
  534MOL0     H72034   5.960   4.509   4.973  1.8169 -0.1548 -0.4361
  534MOL0     H72035   5.989   4.282   4.938  0.5148 -1.7388  0.3438
  534MOL0     H72036   6.081   4.264   5.096  1.0692  0.7679 -1.4240
  534MOL0     H72037   5.876   4.300   5.233 -0.2215 -3.1436 -0.0928
  534MOL0     H72038   5.800   4.394   5.105 -1.4947 -0.6701 -0.6347
  534MOL0     H72039   5.835   4.089   5.138  0.5086  0.2070 -1.2485
  534MOL0     H72040   5.793   4.162   4.982 -0.1835 -0.0530 -0.3672
  534MOL0     H72041   5.595   4.362   5.016 -0.8687  0.4979  0.7822
  534MOL0     H72042   5.310   4.395   5.027  0.9901 -0.6183  0.4388
  534MOL0     H72043   5.239   4.313   5.162 -0.1615 -1.0696 -2.0583
  534MOL0     H72044   5.401   4.438   5.313 -0.4103  0.5156  0.4258
  534MOL0     H72045   5.253   4.514   5.261 -0.0043  0.7222 -0.1008
  534MOL0     H72046   5.502   4.564   5.084 -1.5604  1.6572 -1.3440
  534MOL0     H72047   5.493   4.658   5.235  0.9130  3.1071 -2.8673
  534MOL0     H72048   5.292   4.658   5.018  0.4313 -2.6146  1.2578
  534MOL0     H72049   5.401   4.792   5.062 -0.0466  0.0037 -1.7564
  534MOL0     H72050   5.142   4.776   4.957  0.2014  0.8501 -0.4921
  534MOL0     H72051   4.935   4.994   4.831  0.1069  1.0785  2.9547
  534MOL0     H72052   4.988   4.826   4.812  1.8154 -1.2508  2.7925
  534MOL0     H72053   4.823   4.856   4.849  0.1110 -1.8023 -0.9367
  534MOL0     H72054   4.650   5.319   5.103  0.8729 -0.0052 -0.3748
  534MOL0     H72055   4.409   5.395   5.049  0.1578  0.2804 -1.5176
  534MOL0     H72056   4.218   5.433   4.999 -0.2327  0.9649 -0.2649
  534MOL0     H72057   4.267   5.487   4.835 -1.0013 -0.0358 -1.3026
  534MOL0     H72058   4.065   5.369   4.738  0.5992  0.0501  0.6103
  534MOL0     H72059   4.017   5.335   4.895  0.9575 -0.2156  0.9428
  534MOL0     H72060   4.042   5.623   4.767 -0.3592  0.5422  0.3778
  534MOL0     H72061   3.979   5.593   4.927  1.0720  5.2636 -2.9372
  534MOL0     H72062   3.849   5.493   4.674 -3.4854  0.2671 -0.4650
  534MOL0     H72063   3.816   5.433   4.836  2.8920 -0.3348  0.2716
  534MOL0     H72064   3.740   5.646   4.922 -1.7204 -1.3043 -0.0444
  534MOL0     H72065   3.640   5.584   4.797 -1.7319  0.3652  2.4415
  534MOL0     H72066   3.867   5.804   4.742  1.3723 -2.7814  1.9540
  534MOL0     H72067   3.749   5.723   4.631  2.2393 -0.1698 -0.1093
  534MOL0     H72068   3.699   5.892   4.881  0.2713  0.5537 -0.3386
  534MOL0     H72069   3.571   5.798   4.792  0.3099 -1.0661 -0.2490
  534MOL0     H72070   3.736   6.008   4.637  1.1447 -2.7297 -1.3156
  534MOL0     H72071   3.590   6.046   4.731 -0.8607 -0.2828 -0.0384
  534MOL0     H72072   4.391   5.081   4.753 -1.2091 -1.2227  3.0925
  534MOL0     H72073   4.637   5.038   4.779  0.3837 -2.8610  3.2190
  534MOL0     H72074   4.940   5.038   5.316  0.8753 -1.6997  1.5794
  534MOL0     H72075   5.136   4.896   5.366 -0.9872  0.8369  1.1320
  534MOL0     H72076   6.756   4.496   5.174 -0.8397 -0.8960  0.2951
  534MOL0     H72077   6.982   4.431   5.205  0.4492  0.7731 -0.6654
  534MOL0     H72078   7.371   4.269   5.042 -0.9498  0.5732 -1.1044
  534MOL0     H72079   7.604   4.190   5.033 -0.9513 -1.2588  0.1896
  534MOL0     H72080   7.859   4.485   4.888  1.8085 -0.1050 -0.0059
  534MOL0     H72081   7.943   4.488   5.046  2.2388 -0.1238  0.0544
  534MOL0     H72082   7.998   4.268   4.842  0.4204  1.1568 -1.4457
  534MOL0     H72083   8.091   4.299   4.984 -1.7005 -2.7589 -0.5540
  534MOL0     H72084   8.155   4.527   4.882  0.5911  0.0294  0.0271
  534MOL0     H72085   8.032   4.499   4.760 -0.6087 -1.3895 -0.6346
  534MOL0     H72086   8.254   4.477   4.669  1.4505 -1.3928 -0.7032
  534MOL0     H72087   8.182   4.314   4.682 -1.3801 -0.0873  1.2545
  534MOL0     H72088   8.536   4.355   4.921  0.3479  0.8881  0.3324
  534MOL0     H72089   7.730   4.599   5.042  0.6899 -0.3214  1.4007
  534MOL0     H72090   7.499   4.674   5.070  1.1918 -0.4153  0.8461
  535MOL0     O72091   1.224   8.460   7.424 -0.7998  0.1869  0.3982
  535MOL0     C72092   1.231   8.521   7.532  0.5202 -0.5386 -0.4982
  535MOL0     O72093   1.131   8.579   7.604 -0.6665 -0.1444 -0.3678
  535MOL0     C72094   0.993   8.568   7.577  0.2260  0.3151  0.7124
  535MOL0     C72095   0.936   8.454   7.516 -0.0988 -0.5008  0.2514
  535MOL0     C72096   0.799   8.444   7.511  0.6947  0.4349  0.2744
  535MOL0     C72097   0.716   8.540   7.557  0.3704 -0.4772 -0.8384
  535MOL0     O72098   0.573   8.538   7.546 -0.1464  0.9281 -0.7243
  535MOL0     C72099   0.515   8.437   7.453  0.4457 -0.3662 -0.3984
  535MOL0     C72100   0.372   8.481   7.432 -0.2236 -0.0976  0.8328
  535MOL0     C72101   0.295   8.472   7.566 -0.0061  0.1254  0.5711
  535MOL0     C72102   0.226   8.610   7.591 -0.1404  1.2440 -0.6228
  535MOL0     C72103   0.135   8.599   7.709 -0.2336  0.3180 -0.5053
  535MOL0     C72104   0.070   8.733   7.756 -0.0702  0.1905  0.7550
  535MOL0     C72105   0.003   8.723   7.901  0.7576  0.6749 -0.0192
  535MOL0     C72106  -0.016   8.861   7.956  0.5538 -0.3094  0.0459
  535MOL0     N72107  -0.117   8.944   7.886  0.1675  0.1878 -0.1576
  535MOL0     C72108  -0.085   9.050   7.802  0.6466  0.5803 -0.7274
  535MOL0     C72109  -0.211   9.096   7.771  0.8837 -0.2183  0.3858
  535MOL0     C72110  -0.240   9.223   7.687  0.2119  0.6965 -0.2454
  535MOL0     C72111  -0.257   9.341   7.785  0.0781  0.7205  0.4073
  535MOL0     C72112  -0.373   9.325   7.888 -0.0414 -0.4941 -0.1172
  535MOL0     C72113  -0.504   9.345   7.803 -0.4463 -0.0749 -0.2558
  535MOL0     O72114  -0.506   9.470   7.731 -0.6704  0.4126 -0.1606
  535MOL0     C72115  -0.608   9.514   7.649  0.2058  0.2902  0.3953
  535MOL0     C72116  -0.600   9.647   7.622  0.9447 -0.5318 -0.0718
  535MOL0     C72117  -0.698   9.711   7.545  0.2193  0.2738  0.3266
  535MOL0     C72118  -0.659   9.857   7.510 -0.2291 -0.5910 -0.5145
  535MOL0     C72119  -0.825   9.648   7.517 -0.1568  0.4641  0.1824
  535MOL0     C72120  -0.941   9.726   7.459 -0.0334 -0.0658  0.0645
  535MOL0     O72121  -1.045   9.644   7.412 -0.3047  0.5469  0.1401
  535MOL0     C72122  -1.165   9.690   7.362  0.1718 -0.2721 -0.1679
  535MOL0     C72123  -1.178   9.731   7.226 -0.6414 -0.1229 -0.1809
  535MOL0     C72124  -1.304   9.750   7.167  0.3198  0.1620  0.6240
  535MOL0     C72125  -1.418   9.724   7.243  0.1456  0.1479  0.6801
  535MOL0     O72126  -1.542   9.746   7.199  0.1293 -0.2580 -0.0811
  535MOL0     C72127  -1.589   9.654   7.100  1.0465 -0.1083 -0.0294
  535MOL0     C72128  -1.743   9.635   7.096 -0.6133 -0.2828  0.2189
  535MOL0     C72129  -1.814   9.769   7.103 -0.0230 -0.2502 -0.8830
  535MOL0     C72130  -1.792   9.861   6.984 -0.5158  0.0202  0.2962
  535MOL0     C72131  -1.895   9.815   6.875 -0.2120  0.2386  0.2025
  535MOL0     C72132  -1.886   9.913   6.761  0.4213 -0.0274 -0.7805
  535MOL0     C72133  -2.007   9.933   6.679  0.9096  0.0511 -0.7355
  535MOL0     C72134  -1.978  10.021   6.563 -0.1464 -0.3103  0.0176
  535MOL0    Cl72135  -1.864   9.940   6.454 -0.2593 -0.5970 -0.2648
  535MOL0     C72136  -1.406   9.682   7.376 -0.4855  0.9110  0.2051
  535MOL0     C72137  -1.281   9.671   7.436 -0.5921 -0.6841  0.1439
  535MOL0     O72138  -0.954   9.844   7.486 -0.3611  0.1594  0.6314
  535MOL0     C72139  -0.837   9.510   7.547  0.1702  0.4443  0.1807
  535MOL0     C72140  -0.726   9.447   7.608  0.0191  0.2741 -0.0217
  535MOL0     N72141  -0.311   9.008   7.809 -0.0350 -0.3019  0.9358
  535MOL0     N72142  -0.251   8.925   7.885  0.2338  0.0056  0.2613
  535MOL0     C72143   0.774   8.649   7.628  0.0772 -0.9772  0.2414
  535MOL0     C72144   0.911   8.667   7.631  0.1757 -0.7622  0.5891
  535MOL0     C72145   1.377   8.525   7.596  1.0997 -0.6233  0.2704
  535MOL0     C72146   1.403   8.623   7.692 -0.2425  0.4581  0.3248
  535MOL0     C72147   1.532   8.625   7.753  0.0157  0.0282  0.1260
  535MOL0     C72148   1.631   8.530   7.722 -0.7667 -0.7354 -1.1084
  535MOL0     O72149   1.764   8.533   7.759 -0.8659 -0.7661 -0.2707
  535MOL0     C72150   1.809   8.648   7.843  0.3406  0.1240 -0.2496
  535MOL0     C72151   1.790   8.613   7.992 -0.4363  0.5963 -1.1544
  535MOL0     C72152   1.919   8.590   8.067 -0.3202 -0.6303  0.4872
  535MOL0     C72153   1.970   8.442   8.036 -0.7960 -0.6012  0.5135
  535MOL0     C72154   1.884   8.339   8.088 -0.1327  0.3194  0.4530
  535MOL0     C72155   1.831   8.244   8.144 -0.2402  0.0272 -0.9124
  535MOL0     C72156   1.600   8.433   7.624 -0.6127  0.1233  0.2789
  535MOL0     C72157   1.473   8.437   7.559 -0.7032  0.4872 -1.0631
  535MOL0     H72158   0.993   8.374   7.471 -2.9478 -1.3812 -2.1507
  535MOL0     H72159   0.760   8.359   7.455  2.1516  0.2843 -0.5780
  535MOL0     H72160   0.569   8.441   7.358  0.9772  2.3409 -0.0348
  535MOL0     H72161   0.519   8.334   7.490  2.2771  0.8390  3.1385
  535MOL0     H72162   0.380   8.586   7.401  1.3064 -0.5061 -0.2456
  535MOL0     H72163   0.314   8.428   7.356 -0.1482  2.5767 -1.2442
  535MOL0     H72164   0.228   8.389   7.544  2.1054 -1.7991  1.0280
  535MOL0     H72165   0.360   8.450   7.651  1.6382 -1.4196 -1.0167
  535MOL0     H72166   0.303   8.687   7.606  0.8161  0.2671 -0.4078
  535MOL0     H72167   0.168   8.642   7.505 -0.7040 -1.1955 -1.2199
  535MOL0     H72168   0.056   8.524   7.698 -1.3263  0.5256  3.8448
  535MOL0     H72169   0.186   8.552   7.793 -1.0882 -1.2856 -0.8270
  535MOL0     H72170   0.147   8.809   7.744  0.9206 -0.8657  0.2396
  535MOL0     H72171  -0.007   8.747   7.678 -1.2412 -3.5252  1.0534
  535MOL0     H72172  -0.084   8.658   7.890  1.8691 -0.7269 -0.8395
  535MOL0     H72173   0.079   8.679   7.966  2.5534  1.8983 -1.1937
  535MOL0     H72174   0.077   8.918   7.954  0.7586 -0.6016  0.8387
  535MOL0     H72175  -0.059   8.841   8.055  0.7627 -0.7215  0.0585
  535MOL0     H72176   0.003   9.096   7.758 -1.0245  2.1735 -2.5820
  535MOL0     H72177  -0.156   9.243   7.620  0.9277 -0.0860  0.3949
  535MOL0     H72178  -0.323   9.222   7.616  1.5542  0.0479 -1.8539
  535MOL0     H72179  -0.276   9.428   7.722  0.8796 -0.8019 -2.0725
  535MOL0     H72180  -0.167   9.365   7.844 -1.1003  1.7473  1.8716
  535MOL0     H72181  -0.369   9.416   7.949  0.4721  0.2816 -1.2766
  535MOL0     H72182  -0.381   9.235   7.950 -0.4779 -0.8071 -0.6197
  535MOL0     H72183  -0.591   9.344   7.869 -0.5621 -0.4480 -0.4102
  535MOL0     H72184  -0.517   9.260   7.735  1.9094 -0.4092 -0.3644
  535MOL0     H72185  -0.511   9.706   7.640  0.0913  0.5611  0.7634
  535MOL0     H72186  -0.705   9.932   7.575  1.7232 -0.8421  1.2673
  535MOL0     H72187  -0.552   9.871   7.527  0.1229 -3.4460  0.1477
  535MOL0     H72188  -0.691   9.876   7.407 -2.6692 -1.3090  0.0287
  535MOL0     H72189  -1.090   9.743   7.164 -1.2789  0.4022 -1.0054
  535MOL0     H72190  -1.295   9.784   7.065  0.5761 -0.9034  0.2809
  535MOL0     H72191  -1.577   9.691   6.998 -2.1075  0.9845 -0.1017
  535MOL0     H72192  -1.543   9.555   7.112  1.1723 -0.0146  0.2774
  535MOL0     H72193  -1.776   9.585   7.004  0.2895  1.3866 -1.0704
  535MOL0     H72194  -1.764   9.571   7.182  3.9042 -0.2658  1.5748
  535MOL0     H72195  -1.771   9.804   7.197  0.0325 -1.6917 -0.3471
  535MOL0     H72196  -1.921   9.756   7.123 -0.4833  5.5022  2.7955
  535MOL0     H72197  -1.817   9.962   7.017 -1.1347 -0.0061 -0.0933
  535MOL0     H72198  -1.688   9.854   6.950  1.0583  2.9916  3.7337
  535MOL0     H72199  -1.993   9.822   6.924  0.3557  1.2729  1.2498
  535MOL0     H72200  -1.869   9.715   6.839 -0.9082  0.2231 -0.2877
  535MOL0     H72201  -1.837  10.005   6.793 -0.2243  0.4085 -1.0352
  535MOL0     H72202  -1.807   9.875   6.696  1.3830  0.7956 -0.1364
  535MOL0     H72203  -2.079   9.983   6.746  3.0413  0.2923  1.5240
  535MOL0     H72204  -2.043   9.835   6.645  1.5976 -0.7047  0.6094
  535MOL0     H72205  -1.939  10.107   6.617 -0.0226 -0.5382  0.2956
  535MOL0     H72206  -2.067  10.048   6.504  1.0784  3.4895 -0.3442
  535MOL0     H72207  -1.497   9.663   7.432 -1.0312 -1.1318 -1.2620
  535MOL0     H72208  -1.287   9.628   7.536 -0.0284  1.1976  1.0277
  535MOL0     H72209  -0.925   9.449   7.528  1.8460 -1.3728 -2.2282
  535MOL0     H72210  -0.725   9.341   7.633 -1.5627 -0.0137 -1.0098
  535MOL0     H72211   0.719   8.728   7.678  1.8049  1.7625 -1.8153
  535MOL0     H72212   0.967   8.749   7.676 -2.4320  1.0702  0.6941
  535MOL0     H72213   1.324   8.698   7.700 -1.6843 -0.8846 -0.7757
  535MOL0     H72214   1.565   8.698   7.827 -0.1677 -2.5832  3.0001
  535MOL0     H72215   1.917   8.659   7.833  0.8140  0.3231  3.6296
  535MOL0     H72216   1.770   8.745   7.809 -0.1533 -0.0927 -0.3060
  535MOL0     H72217   1.719   8.533   8.015 -0.2729  0.9132  0.6079
  535MOL0     H72218   1.757   8.709   8.033  1.2582  1.0663 -0.8303
  535MOL0     H72219   1.906   8.607   8.174 -1.1952 -1.1320  0.4637
  535MOL0     H72220   1.981   8.673   8.032 -0.5681 -1.1840 -1.3594
  535MOL0     H72221   2.067   8.429   8.086 -0.4496  0.3581  0.1222
  535MOL0     H72222   1.981   8.435   7.927  1.6697  0.6974  0.6020
  535MOL0     H72223   1.784   8.161   8.192  2.9298  0.7395  4.2441
  535MOL0     H72224   1.681   8.373   7.584 -0.3915  0.6981 -0.1434
  535MOL0     H72225   1.454   8.360   7.484 -0.8662 -1.7856  1.1697
  536MOL0     O72226   4.254   6.902   8.996 -0.4977  0.3872  0.2908
  536MOL0     C72227   4.266   6.824   9.090 -0.0463  0.2532  0.5864
  536MOL0     O72228   4.160   6.755   9.140  0.2557  0.3735 -0.1114
  536MOL0     C72229   4.053   6.765   9.064 -0.3615  0.8692  0.4516
  536MOL0     C72230   4.043   6.715   8.932 -0.1409  0.3606  0.4641
  536MOL0     C72231   3.915   6.742   8.863 -0.0843 -0.1233  0.5983
  536MOL0     C72232   3.809   6.811   8.921 -0.6954  1.0227 -0.3342
  536MOL0     O72233   3.698   6.825   8.844 -0.0440 -0.5573 -0.4536
  536MOL0     C72234   3.575   6.799   8.915 -0.4090 -0.4955 -0.3520
  536MOL0     C72235   3.454   6.780   8.806  0.0778 -0.1253 -0.4711
  536MOL0     C72236   3.336   6.732   8.885 -0.0846  0.8307  0.1784
  536MOL0     C72237   3.212   6.731   8.805  0.7269  0.1827 -0.3064
  536MOL0     C72238   3.099   6.680   8.900  0.8545 -0.5940  0.8033
  536MOL0     C72239   2.962   6.722   8.847  0.4845  0.5745  0.9742
  536MOL0     C72240   2.844   6.630   8.884 -0.7770 -0.5390  0.1393
  536MOL0     C72241   2.823   6.635   9.043 -0.1517 -1.1961 -0.4225
  536MOL0     N72242   2.706   6.555   9.069 -0.2931 -0.4864  0.0403
  536MOL0     C72243   2.687   6.426   9.027 -0.1529  0.7410  0.6942
  536MOL0     C72244   2.552   6.411   9.048 -0.2923  1.2142  0.2037
  536MOL0     C72245   2.487   6.280   9.019  0.6069 -0.1327 -0.5028
  536MOL0     C72246   2.498   6.240   8.873 -0.5935  0.6634 -0.3536
  536MOL0     C72247   2.428   6.343   8.778 -0.0090 -0.6849  0.1028
  536MOL0     C72248   2.278   6.362   8.794 -0.3332  0.2409  0.2850
  536MOL0     O72249   2.216   6.237   8.801  0.4346  0.2082 -0.2566
  536MOL0     C72250   2.081   6.233   8.779  0.0168  0.5199  0.5391
  536MOL0     C72251   2.021   6.133   8.711 -0.2764 -0.2128  0.0058
  536MOL0     C72252   1.889   6.110   8.696  0.2982  0.2015 -0.2782
  536MOL0     C72253   1.846   5.984   8.626  0.6302  0.0024 -0.4144
  536MOL0     C72254   1.793   6.193   8.767 -0.6412  0.0758 -0.2619
  536MOL0     C72255   1.653   6.190   8.743 -0.2254 -0.4446  0.3839
  536MOL0     O72256   1.570   6.229   8.848 -0.0065  0.3454 -0.0556
  536MOL0     C72257   1.434   6.206   8.827  0.5019 -0.2026 -1.7470
  536MOL0     C72258   1.389   6.076   8.813 -0.3612 -0.0861  0.4810
  536MOL0     C72259   1.260   6.040   8.789 -0.6143  0.2735  0.1151
  536MOL0     C72260   1.154   6.139   8.799 -0.3496 -0.5538 -0.4120
  536MOL0     O72261   1.025   6.118   8.759 -0.3967 -0.3876  0.3347
  536MOL0     C72262   0.962   6.000   8.795 -0.3830  0.8246 -0.3495
  536MOL0     C72263   0.811   6.016   8.781  0.3459  0.1470 -0.0454
  536MOL0     C72264   0.750   6.017   8.639  0.6157 -0.2482  0.8044
  536MOL0     C72265   0.606   5.983   8.642 -0.3733  0.1050  0.3992
  536MOL0     C72266   0.545   6.002   8.501  0.1424 -0.0138 -0.0839
  536MOL0     C72267   0.415   5.930   8.491  0.4714 -1.2371  0.9968
  536MOL0     C72268   0.340   5.935   8.356  0.1926 -0.4428  0.0166
  536MOL0     C72269   0.209   5.853   8.343  0.4852 -0.2842 -0.1765
  536MOL0    Cl72270   0.257   5.675   8.350  0.3551  0.3656  0.0541
  536MOL0     C72271   1.201   6.271   8.829  0.2260  0.3998 -0.4884
  536MOL0     C72272   1.335   6.303   8.843 -0.1320 -0.4311  0.1224
  536MOL0     O72273   1.614   6.157   8.630 -0.0073 -0.5781 -0.3365
  536MOL0     C72274   1.851   6.289   8.845 -0.3787  0.0095  0.1509
  536MOL0     C72275   1.987   6.310   8.851 -0.1638  0.3422 -0.3572
  536MOL0     N72276   2.493   6.521   9.112 -0.0801 -0.2339 -0.3310
  536MOL0     N72277   2.585   6.607   9.115 -0.4182 -1.1920 -1.0291
  536MOL0     C72278   3.831   6.876   9.044  0.3583  0.1600 -0.3270
  536MOL0     C72279   3.949   6.845   9.116 -0.4782  0.0629  0.7125
  536MOL0     C72280   4.406   6.788   9.136 -0.1736 -0.0505  0.0570
  536MOL0     C72281   4.524   6.844   9.074  0.1012 -0.4938 -0.5773
  536MOL0     C72282   4.652   6.803   9.106  0.8971  0.2867 -0.4786
  536MOL0     C72283   4.669   6.711   9.210  0.7213 -1.0184 -0.5107
  536MOL0     O72284   4.788   6.657   9.247 -0.6044  0.5302 -0.3421
  536MOL0     C72285   4.896   6.674   9.158  0.0475  0.3429  0.0142
  536MOL0     C72286   5.028   6.657   9.232 -0.8267  0.3962  0.1858
  536MOL0     C72287   5.063   6.510   9.248 -0.3123  0.3773 -0.5167
  536MOL0     C72288   5.211   6.493   9.293  0.0783 -0.0470  1.0020
  536MOL0     C72289   5.264   6.355   9.291  0.6507  0.4265 -0.0618
  536MOL0     C72290   5.327   6.250   9.305  0.0002 -0.2637 -0.1857
  536MOL0     C72291   4.561   6.664   9.280 -0.6628  0.1158  0.2726
  536MOL0     C72292   4.432   6.701   9.243 -0.0343 -0.5544  0.1302
  536MOL0     H72293   4.114   6.650   8.883 -0.3280  1.1845 -0.9383
  536MOL0     H72294   3.895   6.705   8.763 -0.1408 -0.5312  0.7562
  536MOL0     H72295   3.587   6.704   8.967 -0.1799  0.3300  1.1549
  536MOL0     H72296   3.545   6.884   8.977  0.9790  0.0919 -0.4329
  536MOL0     H72297   3.425   6.868   8.749 -0.7564 -0.6427 -0.8604
  536MOL0     H72298   3.485   6.699   8.739 -1.0094 -2.3961  1.6097
  536MOL0     H72299   3.362   6.633   8.923 -1.4377 -0.3882 -1.8327
  536MOL0     H72300   3.321   6.804   8.965  1.7061  2.6966 -1.0611
  536MOL0     H72301   3.184   6.836   8.793 -2.7917 -0.2204  2.7134
  536MOL0     H72302   3.212   6.675   8.711  1.3235 -2.7295  1.2805
  536MOL0     H72303   3.117   6.573   8.909 -1.0485 -1.2000 -1.5729
  536MOL0     H72304   3.115   6.710   9.004  4.3923 -1.1833  0.5739
  536MOL0     H72305   2.942   6.825   8.876  0.2005  0.4809  1.1144
  536MOL0     H72306   2.967   6.722   8.738  0.0393  1.6500  0.9417
  536MOL0     H72307   2.761   6.670   8.826 -1.6732 -3.0210 -0.4030
  536MOL0     H72308   2.858   6.529   8.846 -2.3158 -0.8057  0.2294
  536MOL0     H72309   2.818   6.737   9.082 -0.7507 -1.5347  0.4040
  536MOL0     H72310   2.907   6.594   9.099 -0.4812 -0.8086  0.3697
  536MOL0     H72311   2.760   6.351   8.999 -0.7249 -0.0038  1.1590
  536MOL0     H72312   2.520   6.200   9.084 -0.6115  1.1705  1.8433
  536MOL0     H72313   2.383   6.291   9.049  0.4015  1.4472 -1.6576
  536MOL0     H72314   2.438   6.150   8.857 -0.2936  0.6334 -1.3739
  536MOL0     H72315   2.601   6.210   8.849 -1.1911 -3.4574  1.3718
  536MOL0     H72316   2.447   6.329   8.671  2.5976 -2.0037  0.6552
  536MOL0     H72317   2.461   6.445   8.799  0.7601 -0.6085 -1.3272
  536MOL0     H72318   2.231   6.422   8.716 -1.4619  2.2595  2.4099
  536MOL0     H72319   2.261   6.407   8.892 -1.0339 -2.1082  1.3158
  536MOL0     H72320   2.083   6.061   8.660 -2.5726 -1.7540 -0.7642
  536MOL0     H72321   1.930   5.926   8.588  0.9891  1.9173 -2.7327
  536MOL0     H72322   1.789   5.929   8.702  0.2917  2.0344  0.8699
  536MOL0     H72323   1.786   6.012   8.539 -0.4842 -4.0635 -1.1812
  536MOL0     H72324   1.463   5.996   8.815 -0.8037 -0.4978  1.6538
  536MOL0     H72325   1.235   5.935   8.773  1.6813 -0.2881 -0.0761
  536MOL0     H72326   0.991   5.915   8.733 -1.2242  1.3678 -1.5126
  536MOL0     H72327   0.989   5.989   8.900  0.4496  2.1920 -0.3941
  536MOL0     H72328   0.756   5.937   8.833 -0.1571  1.5856  1.7077
  536MOL0     H72329   0.773   6.109   8.824 -4.7294 -0.5806 -2.2379
  536MOL0     H72330   0.805   5.941   8.583 -1.9550 -1.3118 -0.4233
  536MOL0     H72331   0.762   6.111   8.585  0.6343 -0.9059 -0.3709
  536MOL0     H72332   0.589   5.882   8.681 -0.4281  0.6755  1.9095
  536MOL0     H72333   0.549   6.041   8.715 -2.3674 -0.2883 -0.7667
  536MOL0     H72334   0.612   5.957   8.428 -0.1389 -0.3342 -0.1460
  536MOL0     H72335   0.521   6.105   8.472 -0.2594 -0.1394 -0.2099
  536MOL0     H72336   0.429   5.825   8.519  3.1780 -0.6345  2.1779
  536MOL0     H72337   0.345   5.982   8.557 -2.4181 -2.0567 -1.2168
  536MOL0     H72338   0.415   5.911   8.279  0.6810 -0.1353  0.3910
  536MOL0     H72339   0.322   6.041   8.341 -2.3829 -0.8027  0.1342
  536MOL0     H72340   0.156   5.873   8.250 -0.8814 -0.7837  0.4609
  536MOL0     H72341   0.151   5.884   8.430  2.9451  1.9567  0.7983
  536MOL0     H72342   1.110   6.331   8.829 -2.3509 -3.0841  1.4474
  536MOL0     H72343   1.358   6.406   8.868 -0.2960 -1.3428  4.8092
  536MOL0     H72344   1.784   6.353   8.901  0.0880 -0.7290  1.6016
  536MOL0     H72345   2.021   6.387   8.920 -0.8205  0.2745  0.0544
  536MOL0     H72346   3.758   6.950   9.077  0.8421  2.5994 -4.0221
  536MOL0     H72347   3.956   6.893   9.213 -2.0612 -0.2744  1.0195
  536MOL0     H72348   4.507   6.922   9.001  0.3198 -0.6875 -0.8357
  536MOL0     H72349   4.727   6.848   9.041  0.2156 -2.2938 -3.2904
  536MOL0     H72350   4.881   6.602   9.077 -2.1995 -1.1181  1.5931
  536MOL0     H72351   4.906   6.779   9.130  0.0594  0.9079  1.9990
  536MOL0     H72352   5.031   6.717   9.323  0.9400  0.2249  0.2760
  536MOL0     H72353   5.104   6.717   9.180 -1.5026  3.4098  2.3554
  536MOL0     H72354   5.045   6.460   9.152 -1.7480 -1.7230  0.7745
  536MOL0     H72355   5.000   6.463   9.324  1.2967 -2.8552 -1.0165
  536MOL0     H72356   5.224   6.533   9.394  2.0070  1.1568  0.3394
  536MOL0     H72357   5.267   6.548   9.217 -0.2847 -0.7979  0.1713
  536MOL0     H72358   5.383   6.159   9.319 -0.0821 -0.7060 -2.3458
  536MOL0     H72359   4.582   6.586   9.352  0.6656 -0.4499 -0.6993
  536MOL0     H72360   4.346   6.666   9.300  0.5025 -2.5641 -0.2028
  537MOL0     O72361   0.678   3.884   2.252  0.1066  0.1509 -0.1936
  537MOL0     C72362   0.679   3.849   2.368  0.2575  0.5610 -0.3598
  537MOL0     O72363   0.766   3.894   2.470  0.7535 -0.2773  0.1683
  537MOL0     C72364   0.887   3.944   2.417  0.8692 -0.0758 -0.1866
  537MOL0     C72365   0.907   4.080   2.448 -0.3323  0.5537  0.3381
  537MOL0     C72366   1.032   4.134   2.427 -0.1885  0.1302  0.0364
  537MOL0     C72367   1.134   4.060   2.357  0.4116  0.0157 -0.8954
  537MOL0     O72368   1.256   4.112   2.348 -0.2301 -0.1366  0.0421
  537MOL0     C72369   1.305   4.184   2.461  0.1316  0.3189  0.7763
  537MOL0     C72370   1.370   4.075   2.553  0.6540 -0.4329  0.4366
  537MOL0     C72371   1.453   3.966   2.468  0.0050 -0.4652  0.1759
  537MOL0     C72372   1.574   4.034   2.396 -0.4360  0.8857 -0.1791
  537MOL0     C72373   1.700   4.056   2.486 -0.1146  0.0727  0.1302
  537MOL0     C72374   1.829   4.085   2.407  0.4028  0.4519 -0.3487
  537MOL0     C72375   1.953   4.088   2.494 -0.5878  0.1339  0.5869
  537MOL0     C72376   2.013   3.947   2.524 -0.2888  0.2807 -0.9964
  537MOL0     N72377   2.138   3.972   2.610  0.5200  0.0149  0.7595
  537MOL0     C72378   2.246   4.054   2.577 -0.2180 -0.3095 -0.1983
  537MOL0     C72379   2.351   4.006   2.657  0.2501  0.6559  0.7525
  537MOL0     C72380   2.495   4.047   2.685 -0.1101 -0.7019 -0.1401
  537MOL0     C72381   2.542   4.175   2.619  1.1585 -0.8147  0.8679
  537MOL0     C72382   2.478   4.291   2.713 -0.0606  1.0277  0.2467
  537MOL0     C72383   2.497   4.430   2.650 -0.4853 -0.1219 -0.3523
  537MOL0     O72384   2.451   4.438   2.519 -0.1159 -0.4959  0.0814
  537MOL0     C72385   2.313   4.434   2.491 -0.3838  0.0699  0.0895
  537MOL0     C72386   2.212   4.445   2.583 -0.3734  0.6372 -0.0652
  537MOL0     C72387   2.077   4.450   2.544 -0.2761  1.3639 -0.4922
  537MOL0     C72388   1.979   4.448   2.658  0.5399  0.1916 -0.2605
  537MOL0     C72389   2.046   4.447   2.407  0.2347 -0.1911 -0.5774
  537MOL0     C72390   1.908   4.473   2.356 -0.9990 -0.9373  0.2716
  537MOL0     O72391   1.888   4.522   2.225  0.2887 -0.3126  0.4278
  537MOL0     C72392   1.760   4.516   2.172 -0.2373  0.4624 -0.2140
  537MOL0     C72393   1.676   4.405   2.177 -0.4943 -0.0141 -0.5440
  537MOL0     C72394   1.533   4.411   2.161 -0.0860  0.4488 -0.4280
  537MOL0     C72395   1.480   4.529   2.105  0.1405  0.0189 -0.1562
  537MOL0     O72396   1.350   4.556   2.080 -0.1692  0.5267 -0.6471
  537MOL0     C72397   1.253   4.447   2.074 -0.9172 -0.3287  0.2784
  537MOL0     C72398   1.111   4.500   2.063  0.5028 -0.1373  0.1287
  537MOL0     C72399   1.008   4.397   2.097 -0.3488 -0.4637 -0.0840
  537MOL0     C72400   1.023   4.268   2.027  0.0861  0.5468 -0.0654
  537MOL0     C72401   0.896   4.177   2.035 -0.1364  0.4207  0.8215
  537MOL0     C72402   0.763   4.230   1.974  0.2335 -0.8033  0.8728
  537MOL0     C72403   0.654   4.131   1.993  0.2265 -0.6616  0.0450
  537MOL0     C72404   0.527   4.174   1.923  0.2643 -0.7276 -0.3897
  537MOL0    Cl72405   0.474   4.328   1.999 -0.0699  0.1997  0.1233
  537MOL0     C72406   1.572   4.629   2.081 -0.1608 -0.6700  0.0438
  537MOL0     C72407   1.712   4.628   2.116  0.9868  0.1721 -0.4150
  537MOL0     O72408   1.816   4.439   2.426  0.7543 -0.0011 -0.6076
  537MOL0     C72409   2.152   4.429   2.311  0.1737  0.6991  0.1841
  537MOL0     C72410   2.282   4.405   2.356 -0.0250 -0.4831  0.8180
  537MOL0     N72411   2.305   3.904   2.738  0.6984  0.6088  0.8708
  537MOL0     N72412   2.176   3.890   2.708 -0.8148  0.2710  0.1286
  537MOL0     C72413   1.112   3.932   2.333 -0.4558  0.2360  0.2654
  537MOL0     C72414   0.990   3.874   2.367 -0.2040 -0.3528  1.3132
  537MOL0     C72415   0.582   3.736   2.396  0.0482 -0.9365  1.0775
  537MOL0     C72416   0.501   3.679   2.291  0.3362  0.6953  0.2565
  537MOL0     C72417   0.423   3.562   2.317 -0.4179  0.7184  0.0886
  537MOL0     C72418   0.436   3.501   2.438 -0.2074 -0.0648 -1.0122
  537MOL0     O72419   0.359   3.391   2.468  0.1523  0.6567 -0.1420
  537MOL0     C72420   0.299   3.304   2.371  0.2409 -0.3809  0.3548
  537MOL0     C72421   0.213   3.183   2.419  0.3341 -0.1653  0.1337
  537MOL0     C72422   0.093   3.234   2.498  0.2460 -0.6266 -0.0113
  537MOL0     C72423  -0.006   3.129   2.561  0.1084 -0.1244  0.0015
  537MOL0     C72424   0.059   3.044   2.665  0.5235 -0.0450  0.8710
  537MOL0     C72425   0.108   2.968   2.755 -0.2400  0.2321  0.1845
  537MOL0     C72426   0.514   3.559   2.532 -0.1795  0.3959 -0.3686
  537MOL0     C72427   0.587   3.675   2.515 -0.2061  0.2807 -0.1879
  537MOL0     H72428   0.825   4.129   2.498 -1.2673 -2.4845  2.0683
  537MOL0     H72429   1.045   4.235   2.465  1.3629  1.0047 -2.5654
  537MOL0     H72430   1.374   4.262   2.427  2.1473 -1.1247  1.3773
  537MOL0     H72431   1.238   4.244   2.524 -1.6120 -1.6939  0.9535
  537MOL0     H72432   1.441   4.116   2.625 -0.5008  0.1338  1.2712
  537MOL0     H72433   1.291   4.024   2.608  1.2404 -1.7718  0.0844
  537MOL0     H72434   1.496   3.894   2.539  3.0705  0.6956 -0.3866
  537MOL0     H72435   1.394   3.908   2.396 -0.6011  1.2116 -0.7375
  537MOL0     H72436   1.614   3.972   2.315  0.1423 -0.5708  1.1624
  537MOL0     H72437   1.533   4.126   2.354 -0.3276  1.8826  1.7665
  537MOL0     H72438   1.685   4.140   2.554  1.7865 -0.1600  0.9057
  537MOL0     H72439   1.717   3.974   2.556 -0.0779  2.2717  2.8847
  537MOL0     H72440   1.843   4.001   2.338 -1.5351 -1.4104  1.3880
  537MOL0     H72441   1.820   4.174   2.344 -2.4294  0.9571  0.6293
  537MOL0     H72442   2.029   4.156   2.453 -0.6585 -0.9245 -1.4158
  537MOL0     H72443   1.925   4.144   2.584 -1.4325  0.6109  0.0459
  537MOL0     H72444   2.048   3.885   2.440  0.7770  0.8043 -0.9607
  537MOL0     H72445   1.936   3.883   2.567  1.6609 -1.5289  0.0178
  537MOL0     H72446   2.257   4.136   2.507  2.1667 -0.0430  0.4093
  537MOL0     H72447   2.514   4.056   2.792 -0.4022 -0.9804 -0.0635
  537MOL0     H72448   2.556   3.960   2.658  0.5594 -0.4465  0.4897
  537MOL0     H72449   2.497   4.192   2.521  5.2841 -2.7776 -1.5985
  537MOL0     H72450   2.648   4.191   2.598  1.2153  0.1610  1.7832
  537MOL0     H72451   2.519   4.294   2.814  1.6292  0.7391 -0.4061
  537MOL0     H72452   2.373   4.263   2.723  0.8209 -2.6217  0.3610
  537MOL0     H72453   2.600   4.466   2.660 -0.6184  0.3504 -0.6470
  537MOL0     H72454   2.440   4.502   2.709  4.8441  2.0952  2.9062
  537MOL0     H72455   2.237   4.435   2.688 -0.3415 -1.1468 -0.2195
  537MOL0     H72456   2.038   4.470   2.748  0.8543  1.5987 -0.7741
  537MOL0     H72457   1.903   4.526   2.646 -0.7073 -1.0791 -0.8072
  537MOL0     H72458   1.928   4.352   2.652 -1.9230  1.3319  1.0611
  537MOL0     H72459   1.711   4.313   2.222  2.6955  1.4693  0.3200
  537MOL0     H72460   1.484   4.314   2.162  0.9134 -0.0752 -0.6132
  537MOL0     H72461   1.273   4.379   1.990 -1.4164 -2.2875  1.6868
  537MOL0     H72462   1.261   4.399   2.172  1.3395  0.3288  0.4713
  537MOL0     H72463   1.101   4.579   2.139  2.2837  1.6055 -1.3302
  537MOL0     H72464   1.091   4.540   1.963 -2.4649 -0.0048  0.6919
  537MOL0     H72465   0.916   4.446   2.064 -0.7646 -0.4449  1.0700
  537MOL0     H72466   0.999   4.380   2.205  2.8553 -0.7048  0.2432
  537MOL0     H72467   1.048   4.286   1.922  0.6576  0.5508  0.0682
  537MOL0     H72468   1.107   4.209   2.066  1.5213  2.2496 -0.4659
  537MOL0     H72469   0.866   4.166   2.140 -0.7476  2.5589  0.9188
  537MOL0     H72470   0.921   4.082   1.988  0.1029  0.9525 -0.1507
  537MOL0     H72471   0.726   4.314   2.033  1.3029  1.1870 -1.1131
  537MOL0     H72472   0.776   4.262   1.870  2.7047 -1.5308  0.9073
  537MOL0     H72473   0.627   4.115   2.097 -3.6850 -0.6024 -0.8062
  537MOL0     H72474   0.684   4.033   1.953  0.0621 -1.0971  0.9737
  537MOL0     H72475   0.443   4.105   1.931 -1.0833  0.9028  0.1424
  537MOL0     H72476   0.535   4.205   1.818 -1.8674  2.5444  0.2618
  537MOL0     H72477   1.529   4.717   2.034  1.6737  1.1804  1.6584
  537MOL0     H72478   1.786   4.707   2.113  0.1591  1.1340  2.0056
  537MOL0     H72479   2.128   4.422   2.206 -0.4242  0.2676  0.3465
  537MOL0     H72480   2.362   4.388   2.284  0.9188  0.4032  1.6279
  537MOL0     H72481   1.191   3.869   2.293 -1.3789 -0.7466 -0.0750
  537MOL0     H72482   0.962   3.771   2.352 -0.3501 -0.1698  0.2920
  537MOL0     H72483   0.491   3.712   2.188  0.4174 -2.1247 -0.7436
  537MOL0     H72484   0.358   3.526   2.237  1.5340 -0.1297 -1.1786
  537MOL0     H72485   0.237   3.360   2.300  5.1170 -0.1877 -4.3029
  537MOL0     H72486   0.387   3.261   2.323 -0.3361 -2.0935  0.7743
  537MOL0     H72487   0.261   3.110   2.485 -1.5188  0.6164  2.4714
  537MOL0     H72488   0.174   3.139   2.327 -1.6554  1.4696  0.1351
  537MOL0     H72489   0.044   3.306   2.432  4.3719  1.6337 -0.9832
  537MOL0     H72490   0.142   3.292   2.577 -0.1007 -0.6129  0.1950
  537MOL0     H72491  -0.057   3.080   2.478  0.1200  0.5949 -0.4297
  537MOL0     H72492  -0.082   3.189   2.611  2.5776 -0.0044  4.0934
  537MOL0     H72493   0.154   2.922   2.840 -3.3324  1.7303  2.8938
  537MOL0     H72494   0.515   3.518   2.632  2.0479  3.1064  0.8159
  537MOL0     H72495   0.657   3.711   2.590  0.9623 -3.0639  0.4799
  538MOL0     O72496   1.540   7.136  10.926  0.6420  0.1520  0.2061
  538MOL0     C72497   1.597   7.125  11.033  0.6714  0.0881 -0.6822
  538MOL0     O72498   1.541   7.121  11.156 -0.5533 -0.1298 -0.6403
  538MOL0     C72499   1.403   7.127  11.173 -0.0449  0.0478  0.2682
  538MOL0     C72500   1.342   7.001  11.185  0.1270  0.1673 -0.1528
  538MOL0     C72501   1.216   6.995  11.245  0.4193 -0.3288 -0.9586
  538MOL0     C72502   1.148   7.106  11.298  0.5113  0.5026 -0.6952
  538MOL0     O72503   1.025   7.077  11.350  0.9145 -0.2844  0.4408
  538MOL0     C72504   0.932   7.190  11.357 -0.3037 -0.6373 -0.4650
  538MOL0     C72505   0.792   7.152  11.333  0.2901  0.6498 -0.2638
  538MOL0     C72506   0.746   7.172  11.180  0.9292 -1.1917 -0.2763
  538MOL0     C72507   0.628   7.075  11.150  0.3938  0.2030  0.3914
  538MOL0     C72508   0.568   7.106  11.011  0.0584  0.6873 -0.7647
  538MOL0     C72509   0.456   7.010  10.981  0.4705  0.5984  0.6296
  538MOL0     C72510   0.390   7.024  10.845  0.7773 -0.8385 -0.3556
  538MOL0     C72511   0.303   7.146  10.831 -0.3781  0.2971  0.2787
  538MOL0     N72512   0.168   7.142  10.896  0.3340  0.0746  0.6639
  538MOL0     C72513   0.051   7.170  10.826  1.0074 -0.6224 -1.2326
  538MOL0     C72514  -0.040   7.154  10.926  0.7055 -0.2479 -0.3462
  538MOL0     C72515  -0.190   7.156  10.906 -1.6705  0.0199 -0.6591
  538MOL0     C72516  -0.256   7.016  10.900 -0.5200  0.5369  0.4568
  538MOL0     C72517  -0.381   7.013  10.796 -0.1439  0.3916  0.4229
  538MOL0     C72518  -0.498   7.103  10.845  0.0237 -0.0106  0.9033
  538MOL0     O72519  -0.540   7.043  10.973  0.0466 -0.6394  0.1112
  538MOL0     C72520  -0.665   7.085  11.031  0.2649 -0.5208 -0.0604
  538MOL0     C72521  -0.701   7.025  11.145  0.8532 -0.1527 -0.8383
  538MOL0     C72522  -0.839   7.038  11.197 -0.6019  0.7011  0.0258
  538MOL0     C72523  -0.871   6.956  11.321 -1.2182 -0.3632  0.6771
  538MOL0     C72524  -0.931   7.123  11.124  0.1570 -0.5371  0.4766
  538MOL0     C72525  -1.079   7.134  11.160 -0.4090  0.0950  0.3756
  538MOL0     O72526  -1.152   7.231  11.096 -0.2852 -0.9733 -0.7227
  538MOL0     C72527  -1.286   7.236  11.110 -0.3530  0.7881 -0.6890
  538MOL0     C72528  -1.364   7.163  11.031 -0.1327  0.4250  0.7914
  538MOL0     C72529  -1.511   7.169  11.034 -0.7267  0.1580 -0.2267
  538MOL0     C72530  -1.571   7.259  11.131 -0.2821  0.4744  1.0451
  538MOL0     O72531  -1.704   7.243  11.136 -0.3755 -0.5264  0.5612
  538MOL0     C72532  -1.771   7.300  11.244 -0.5812 -0.2457  0.5377
  538MOL0     C72533  -1.916   7.243  11.222 -0.2033 -0.4501 -1.1815
  538MOL0     C72534  -2.002   7.306  11.105  0.6726  0.6389 -0.1804
  538MOL0     C72535  -2.137   7.353  11.162  0.0392 -0.5459 -0.4161
  538MOL0     C72536  -2.233   7.377  11.052  0.8569 -1.0593 -0.2956
  538MOL0     C72537  -2.360   7.441  11.120  0.2518 -0.9805  0.2275
  538MOL0     C72538  -2.445   7.514  11.016  0.5112 -0.0332  0.1929
  538MOL0     C72539  -2.510   7.645  11.074 -0.2984 -0.6602 -0.6816
  538MOL0    Cl72540  -2.617   7.602  11.220  0.3700 -0.0398 -0.2388
  538MOL0     C72541  -1.484   7.324  11.222  0.3318  0.4037 -0.0490
  538MOL0     C72542  -1.341   7.311  11.213  0.0335 -0.1146  0.0729
  538MOL0     O72543  -1.125   7.037  11.221 -0.0469  0.0515 -0.6736
  538MOL0     C72544  -0.879   7.194  11.010 -0.1466  0.7112 -0.0305
  538MOL0     C72545  -0.749   7.170  10.965 -0.1558 -0.8905  0.0384
  538MOL0     N72546   0.021   7.150  11.048  0.0916  0.1987 -0.0070
  538MOL0     N72547   0.148   7.163  11.029 -0.3324 -0.1783 -0.3536
  538MOL0     C72548   1.204   7.231  11.276 -0.4390  0.1547  0.1835
  538MOL0     C72549   1.331   7.243  11.209  0.7545 -0.6078  0.3199
  538MOL0     C72550   1.736   7.107  11.029 -0.5071 -0.6559  0.2229
  538MOL0     C72551   1.814   7.156  11.141  0.4504  0.6091  0.1032
  538MOL0     C72552   1.954   7.158  11.134  0.6187  0.2740  0.2074
  538MOL0     C72553   2.019   7.101  11.026 -0.3316 -0.7187  0.5281
  538MOL0     O72554   2.153   7.097  11.009 -0.6381  0.1493 -0.2636
  538MOL0     C72555   2.232   7.211  11.038  0.4888 -0.9670 -0.4067
  538MOL0     C72556   2.349   7.178  11.129  0.1013  0.0664  0.2631
  538MOL0     C72557   2.436   7.063  11.071  0.8842 -0.1186  0.5748
  538MOL0     C72558   2.575   7.046  11.127 -0.1972 -0.3807 -0.5205
  538MOL0     C72559   2.643   7.172  11.097 -0.3677 -0.1842 -0.5643
  538MOL0     C72560   2.683   7.283  11.087  0.0670 -0.1215  0.1203
  538MOL0     C72561   1.945   7.059  10.915 -0.5619 -0.1615  0.0612
  538MOL0     C72562   1.806   7.053  10.922  0.0215  0.7896  0.0004
  538MOL0     H72563   1.385   6.902  11.182 -1.7294 -0.7900  2.0634
  538MOL0     H72564   1.156   6.905  11.253  1.8684 -1.1841  0.9724
  538MOL0     H72565   0.940   7.230  11.458  3.0687 -3.0497  0.3917
  538MOL0     H72566   0.954   7.274  11.291  3.8855 -1.5216 -0.4579
  538MOL0     H72567   0.772   7.048  11.361  2.1816 -0.0410 -1.2316
  538MOL0     H72568   0.736   7.217  11.400  2.5135  1.3616  1.0118
  538MOL0     H72569   0.711   7.274  11.160  0.5357 -1.3280 -0.2834
  538MOL0     H72570   0.834   7.149  11.119  1.6428 -1.4623  0.8235
  538MOL0     H72571   0.672   6.975  11.156  0.3597  0.2464  1.5467
  538MOL0     H72572   0.547   7.090  11.222  1.6035  1.8663  1.4549
  538MOL0     H72573   0.520   7.204  11.019 -0.6988  0.1802  2.1083
  538MOL0     H72574   0.645   7.109  10.933  0.2213  0.4209 -0.6149
  538MOL0     H72575   0.488   6.905  10.978 -0.3394  0.3392  0.7860
  538MOL0     H72576   0.393   7.020  11.070 -0.4564  0.5218  0.0031
  538MOL0     H72577   0.469   7.032  10.771  0.5607  1.5247 -0.3993
  538MOL0     H72578   0.326   6.940  10.816 -1.4877  1.0544 -1.1561
  538MOL0     H72579   0.288   7.157  10.723  2.0159 -2.9957 -0.5845
  538MOL0     H72580   0.361   7.229  10.871 -1.5222 -0.6124  4.3738
  538MOL0     H72581   0.030   7.210  10.728 -0.3985 -0.4746 -0.8981
  538MOL0     H72582  -0.236   7.206  10.991 -0.3706 -0.2070  0.2122
  538MOL0     H72583  -0.216   7.204  10.811  0.5457 -1.1534 -1.9458
  538MOL0     H72584  -0.286   6.981  10.999 -0.7896  0.6369  0.4121
  538MOL0     H72585  -0.186   6.941  10.861 -0.5758  1.3950 -1.4040
  538MOL0     H72586  -0.416   6.910  10.790 -2.5292  0.8377  3.7946
  538MOL0     H72587  -0.354   7.046  10.695 -0.6213 -1.2617 -0.2718
  538MOL0     H72588  -0.586   7.098  10.779 -0.0436 -1.7385  1.0665
  538MOL0     H72589  -0.454   7.202  10.860  2.5774 -1.0618  0.8639
  538MOL0     H72590  -0.629   6.966  11.201  2.4212  5.0164  3.5068
  538MOL0     H72591  -0.783   6.907  11.365  0.2523  0.1562 -1.5762
  538MOL0     H72592  -0.920   7.023  11.392 -1.5754  1.4951 -1.2415
  538MOL0     H72593  -0.942   6.875  11.303 -3.1836  1.7757 -1.7253
  538MOL0     H72594  -1.320   7.116  10.944  0.0026  3.2305 -0.8047
  538MOL0     H72595  -1.581   7.109  10.977 -0.2131  0.0342 -0.7356
  538MOL0     H72596  -1.729   7.269  11.340 -0.3116  0.1107  0.5365
  538MOL0     H72597  -1.768   7.409  11.232 -1.8154 -0.0312  1.8761
  538MOL0     H72598  -1.917   7.134  11.215 -1.9933 -0.7299  1.7140
  538MOL0     H72599  -1.955   7.266  11.322  0.7726  1.5765 -1.2174
  538MOL0     H72600  -2.007   7.222  11.035  0.1246 -0.5650  1.2536
  538MOL0     H72601  -1.956   7.392  11.055  1.3192  0.2483 -0.2859
  538MOL0     H72602  -2.186   7.276  11.222 -4.1807 -0.1685 -2.9343
  538MOL0     H72603  -2.118   7.448  11.213  1.2038 -0.0217 -1.7709
  538MOL0     H72604  -2.263   7.278  11.017  0.6433 -0.0587 -3.2745
  538MOL0     H72605  -2.186   7.437  10.972 -0.9204  0.4210 -0.2956
  538MOL0     H72606  -2.412   7.360  11.171 -0.1184 -0.2002  1.1079
  538MOL0     H72607  -2.328   7.512  11.196  0.2922 -0.2685 -0.4436
  538MOL0     H72608  -2.526   7.460  10.967  0.0909  2.1036 -1.6352
  538MOL0     H72609  -2.380   7.536  10.931 -0.6581  1.8196 -0.2742
  538MOL0     H72610  -2.569   7.689  10.994  0.2525  1.0473 -0.1867
  538MOL0     H72611  -2.436   7.715  11.115 -0.5382 -1.5501  1.4441
  538MOL0     H72612  -1.520   7.380  11.308  3.0199 -0.0067  1.4424
  538MOL0     H72613  -1.283   7.355  11.293  0.3789 -2.7888  1.3995
  538MOL0     H72614  -0.943   7.258  10.951  0.5398  0.4373 -1.0972
  538MOL0     H72615  -0.706   7.230  10.885 -1.7700  1.4605  0.8286
  538MOL0     H72616   1.153   7.322  11.306 -0.4607 -0.7705  3.3605
  538MOL0     H72617   1.383   7.336  11.188  0.4126 -0.4827  0.0248
  538MOL0     H72618   1.764   7.199  11.228 -1.5089 -0.9941 -0.1664
  538MOL0     H72619   2.012   7.205  11.213  2.0839 -1.6947  0.3748
  538MOL0     H72620   2.267   7.263  10.948 -1.3701  0.9447 -0.1145
  538MOL0     H72621   2.186   7.286  11.104 -0.8802  0.5082 -2.9030
  538MOL0     H72622   2.303   7.154  11.225 -4.0342  3.8006 -0.4327
  538MOL0     H72623   2.409   7.268  11.150 -0.7906  0.6448  0.4039
  538MOL0     H72624   2.426   7.081  10.963 -0.3985 -1.6811  0.4002
  538MOL0     H72625   2.386   6.969  11.096  2.1914 -1.6288 -2.0501
  538MOL0     H72626   2.639   6.967  11.086 -0.5162 -1.2254  0.5406
  538MOL0     H72627   2.567   7.032  11.235  0.9853  0.5445 -0.2943
  538MOL0     H72628   2.733   7.378  11.080 -1.8647  0.8663 -0.9416
  538MOL0     H72629   1.994   7.002  10.836 -2.2815 -1.6670 -0.0008
  538MOL0     H72630   1.748   7.005  10.844  1.2020 -1.2458  0.3151
  539MOL0     O72631   3.295   9.344   5.029 -0.4132 -0.0649  0.1273
  539MOL0     C72632   3.264   9.444   4.955 -0.0655  2.1311 -1.5825
  539MOL0     O72633   3.147   9.512   4.978 -0.4991  0.1875  0.0665
  539MOL0     C72634   3.077   9.503   5.099 -0.1610  0.0091 -0.7360
  539MOL0     C72635   3.127   9.467   5.227  1.0029 -0.0063  0.1114
  539MOL0     C72636   3.044   9.475   5.337  0.5061 -0.1332  1.0969
  539MOL0     C72637   2.906   9.505   5.327  0.1455  0.1043  0.5832
  539MOL0     O72638   2.831   9.505   5.438  0.6491  0.3842  0.6816
  539MOL0     C72639   2.783   9.641   5.461 -0.6598  0.1794  0.2691
  539MOL0     C72640   2.678   9.626   5.568 -0.1026  0.3671 -0.5168
  539MOL0     C72641   2.609   9.756   5.609  0.3158 -0.5449  0.1068
  539MOL0     C72642   2.487   9.720   5.697 -0.8341 -0.0281 -0.3564
  539MOL0     C72643   2.392   9.842   5.709  0.7034  0.3000  0.1682
  539MOL0     C72644   2.441   9.967   5.762  0.5328  0.0260  0.3078
  539MOL0     C72645   2.335  10.045   5.846 -0.0917  1.0763  0.2592
  539MOL0     C72646   2.381  10.187   5.873  0.0850 -0.2649  0.1583
  539MOL0     N72647   2.316  10.275   5.969 -0.8415  0.5029 -0.2921
  539MOL0     C72648   2.337  10.404   5.998 -0.5910  0.2966  0.9841
  539MOL0     C72649   2.244  10.441   6.088  0.6773 -0.3321  0.9976
  539MOL0     C72650   2.212  10.581   6.121  0.0220 -0.4776  0.2538
  539MOL0     C72651   2.099  10.589   6.217  0.3668 -0.3418  0.5306
  539MOL0     C72652   2.043  10.728   6.217 -0.7809 -0.5638  0.2327
  539MOL0     C72653   1.939  10.743   6.329 -0.5934 -0.7010  0.2977
  539MOL0     O72654   1.896  10.879   6.336  0.0208  0.4762  0.4997
  539MOL0     C72655   1.776  10.921   6.282 -0.4976  0.6609  0.2481
  539MOL0     C72656   1.707  10.859   6.184  0.8214  0.2420  0.1030
  539MOL0     C72657   1.609  10.920   6.109 -0.0064  0.0656  0.2662
  539MOL0     C72658   1.543  10.848   5.997 -0.5566 -0.0343  0.1006
  539MOL0     C72659   1.573  11.060   6.146 -0.3859  0.7658  0.3995
  539MOL0     C72660   1.446  11.129   6.099  0.3123 -0.5876 -1.3777
  539MOL0     O72661   1.405  11.233   6.181 -0.5118 -0.2417  0.2747
  539MOL0     C72662   1.303  11.311   6.136  0.7363 -0.3793  0.0636
  539MOL0     C72663   1.295  11.366   6.006  0.0489 -0.0215  0.2285
  539MOL0     C72664   1.179  11.430   5.965  0.1455 -1.0093 -0.0706
  539MOL0     C72665   1.078  11.464   6.054  0.1306  0.5230 -1.0996
  539MOL0     O72666   0.962  11.539   6.026 -0.7746 -0.0432 -0.4438
  539MOL0     C72667   0.849  11.556   6.110  0.6642 -0.1346 -1.0536
  539MOL0     C72668   0.734  11.606   6.017  0.0071 -0.4233 -0.3366
  539MOL0     C72669   0.618  11.646   6.110  0.5425 -0.0186  0.1032
  539MOL0     C72670   0.506  11.699   6.017  0.4161 -0.1748 -0.0331
  539MOL0     C72671   0.378  11.716   6.094 -0.4303 -0.0690  0.0238
  539MOL0     C72672   0.263  11.725   5.993  0.0788 -0.9227 -0.3525
  539MOL0     C72673   0.137  11.758   6.078 -0.6557  0.8720 -0.1428
  539MOL0     C72674   0.008  11.784   5.996  0.1137 -0.5224  0.0851
  539MOL0    Cl72675  -0.118  11.848   6.111  0.5029  0.0886  0.1529
  539MOL0     C72676   1.088  11.407   6.182  0.3384 -0.6896 -0.2865
  539MOL0     C72677   1.192  11.330   6.224  0.4350 -0.0598 -1.0354
  539MOL0     O72678   1.383  11.095   6.006  0.0596  0.3111 -0.2654
  539MOL0     C72679   1.633  11.120   6.260 -0.3395  0.0521 -0.3150
  539MOL0     C72680   1.728  11.041   6.326 -0.4963  0.5383  0.0925
  539MOL0     N72681   2.172  10.329   6.113 -1.0688  0.0494  0.4719
  539MOL0     N72682   2.211  10.230   6.046 -0.7212  0.0176  0.4153
  539MOL0     C72683   2.848   9.532   5.204 -0.0302 -0.4291  0.4650
  539MOL0     C72684   2.936   9.531   5.085  0.4332  0.3019 -0.5828
  539MOL0     C72685   3.341   9.481   4.837 -0.8747 -0.1923  0.4371
  539MOL0     C72686   3.284   9.576   4.732 -0.2198  0.6220 -0.5426
  539MOL0     C72687   3.362   9.601   4.622 -0.5027  0.2227  0.2968
  539MOL0     C72688   3.483   9.541   4.596 -1.6930 -1.1791 -0.9165
  539MOL0     O72689   3.550   9.581   4.476 -0.4085 -0.4838  0.3963
  539MOL0     C72690   3.687   9.583   4.475 -0.6459 -0.0912 -0.2737
  539MOL0     C72691   3.738   9.727   4.530 -0.4653  0.6491  0.1830
  539MOL0     C72692   3.691   9.842   4.437  0.3174 -0.0641 -0.4896
  539MOL0     C72693   3.719   9.985   4.495 -0.0877 -0.3742 -0.2602
  539MOL0     C72694   3.624  10.008   4.597  0.4541 -0.5313  0.2950
  539MOL0     C72695   3.546  10.030   4.689  0.4008  0.7083  0.0100
  539MOL0     C72696   3.538   9.464   4.693 -0.1892  0.3277  0.4405
  539MOL0     C72697   3.476   9.426   4.814 -0.5587  0.2962 -0.7311
  539MOL0     H72698   3.226   9.425   5.241  0.6136 -0.4926  1.5498
  539MOL0     H72699   3.086   9.443   5.432  2.6515 -2.5097 -0.5291
  539MOL0     H72700   2.866   9.701   5.498 -0.1134 -0.6528  0.4271
  539MOL0     H72701   2.746   9.694   5.374  0.4857  1.0775  0.3093
  539MOL0     H72702   2.605   9.546   5.555  0.5885 -0.7681  2.0486
  539MOL0     H72703   2.736   9.600   5.657 -1.5688 -0.8631  0.1194
  539MOL0     H72704   2.681   9.823   5.656 -0.7293  0.8177 -0.1971
  539MOL0     H72705   2.578   9.810   5.519  2.1509  0.9188  0.3045
  539MOL0     H72706   2.424   9.638   5.662  1.0416 -1.6138 -0.1799
  539MOL0     H72707   2.525   9.696   5.797  0.7486 -0.5366 -1.0493
  539MOL0     H72708   2.329   9.855   5.621 -3.4477  0.1403  2.8187
  539MOL0     H72709   2.323   9.808   5.787  0.0713  0.3424 -0.3668
  539MOL0     H72710   2.523   9.944   5.831  0.5834  3.4484  1.6338
  539MOL0     H72711   2.479  10.025   5.677  2.0767 -0.5984  0.5465
  539MOL0     H72712   2.242  10.060   5.791 -2.1452 -0.1658  3.1284
  539MOL0     H72713   2.314   9.986   5.936  0.2190  1.2797  0.4735
  539MOL0     H72714   2.388  10.234   5.774 -0.3055  1.7686  1.0516
  539MOL0     H72715   2.484  10.179   5.909  0.1391  2.9180  0.9378
  539MOL0     H72716   2.419  10.457   5.951  0.2105 -2.3379 -0.8118
  539MOL0     H72717   2.297  10.641   6.154  0.0948  0.3601 -1.3694
  539MOL0     H72718   2.171  10.629   6.031  1.2064 -0.9686 -0.5732
  539MOL0     H72719   2.152  10.566   6.310  2.4741  3.0202  0.3398
  539MOL0     H72720   2.020  10.515   6.201  1.5164 -1.2772 -1.1390
  539MOL0     H72721   2.000  10.740   6.117 -0.7498 -4.4484 -0.4172
  539MOL0     H72722   2.119  10.806   6.231 -2.3060  1.0720 -0.2543
  539MOL0     H72723   1.989  10.720   6.423  2.3226 -0.3248 -1.0419
  539MOL0     H72724   1.852  10.677   6.316 -0.8682 -0.7420  2.0708
  539MOL0     H72725   1.729  10.756   6.161 -0.2310 -0.0890  0.5346
  539MOL0     H72726   1.435  10.831   5.990 -0.2169 -1.8317 -1.6353
  539MOL0     H72727   1.570  10.899   5.904 -1.1820  0.5977  0.2511
  539MOL0     H72728   1.571  10.742   5.989  0.4953  0.3160 -1.1450
  539MOL0     H72729   1.378  11.343   5.941 -1.2533  1.2375 -1.9901
  539MOL0     H72730   1.167  11.461   5.861 -1.5200  2.4392  0.9991
  539MOL0     H72731   0.820  11.467   6.166 -0.7918  1.1111  0.2563
  539MOL0     H72732   0.875  11.632   6.184  1.7624 -0.2972 -1.2570
  539MOL0     H72733   0.751  11.697   5.959 -0.1570 -1.2916 -1.7979
  539MOL0     H72734   0.715  11.524   5.946  1.4103  2.2625 -4.1486
  539MOL0     H72735   0.651  11.721   6.183 -0.1111  2.2603 -1.8009
  539MOL0     H72736   0.589  11.555   6.162  2.9113  0.1806  1.9222
  539MOL0     H72737   0.536  11.788   5.961  0.7031 -0.8500 -0.9753
  539MOL0     H72738   0.492  11.619   5.945  2.0093 -0.8716  0.3830
  539MOL0     H72739   0.383  11.804   6.158 -0.3381 -0.3565  0.4169
  539MOL0     H72740   0.367  11.630   6.161  0.7400 -1.3926 -1.4114
  539MOL0     H72741   0.281  11.808   5.924  0.2563 -1.0962 -0.5185
  539MOL0     H72742   0.254  11.639   5.925  0.2065  0.0400 -1.6218
  539MOL0     H72743   0.149  11.848   6.139  0.3592  1.4140 -1.0967
  539MOL0     H72744   0.122  11.671   6.142 -2.7806  0.4330 -1.1431
  539MOL0     H72745  -0.032  11.693   5.952  1.4403 -0.5390 -1.1771
  539MOL0     H72746   0.018  11.850   5.909 -2.0894  3.8060  2.7265
  539MOL0     H72747   1.000  11.416   6.244  0.1257 -2.7232 -0.2253
  539MOL0     H72748   1.182  11.282   6.320 -2.9991  1.3036 -0.5620
  539MOL0     H72749   1.606  11.222   6.286 -0.5175 -0.1161  0.1754
  539MOL0     H72750   1.788  11.090   6.402  1.4493  2.0497 -2.2506
  539MOL0     H72751   2.744   9.560   5.196  0.8915  2.7144 -3.3466
  539MOL0     H72752   2.908   9.558   4.983 -0.5252  2.5565  0.1950
  539MOL0     H72753   3.193   9.634   4.745 -0.4679  0.2606 -0.6552
  539MOL0     H72754   3.318   9.670   4.550  0.2502  2.2231  1.6652
  539MOL0     H72755   3.728   9.498   4.530 -4.3678 -0.5093  2.2053
  539MOL0     H72756   3.706   9.574   4.368 -1.0742 -1.9308 -0.2254
  539MOL0     H72757   3.847   9.726   4.536 -0.2997 -1.6070 -1.7180
  539MOL0     H72758   3.697   9.728   4.631  1.3381 -0.7158  0.9912
  539MOL0     H72759   3.582   9.831   4.433  0.3605 -1.2119  0.8736
  539MOL0     H72760   3.722   9.823   4.334 -0.6164 -2.7528 -0.3452
  539MOL0     H72761   3.710  10.065   4.422  3.8748  0.8527  0.3077
  539MOL0     H72762   3.823   9.995   4.529  0.3409  2.7049 -2.1530
  539MOL0     H72763   3.476  10.042   4.770  0.4301 -0.8534  0.2911
  539MOL0     H72764   3.634   9.417   4.672 -1.1753 -1.4216 -0.5124
  539MOL0     H72765   3.509   9.355   4.889 -1.8359  0.0268 -0.3877
  540MOL0     O72766   0.648   1.269   8.060 -0.2082  0.1599  0.0670
  540MOL0     C72767   0.632   1.235   8.176  0.1251  0.5812  0.4323
  540MOL0     O72768   0.734   1.187   8.258  0.1623  0.2299 -0.4636
  540MOL0     C72769   0.858   1.177   8.211  0.7001  0.4477  0.8036
  540MOL0     C72770   0.914   1.052   8.188 -0.5091  0.5000 -0.4306
  540MOL0     C72771   1.036   1.033   8.127 -0.3373 -0.0714  0.2112
  540MOL0     C72772   1.113   1.149   8.092  0.2372 -0.2589  0.2982
  540MOL0     O72773   1.237   1.127   8.022  0.4703  0.0998 -0.2933
  540MOL0     C72774   1.353   1.202   8.039  0.2226 -0.1431  0.1429
  540MOL0     C72775   1.362   1.308   7.926 -0.9993 -0.3904  1.7598
  540MOL0     C72776   1.503   1.357   7.920  0.0569 -0.8733 -0.2630
  540MOL0     C72777   1.523   1.447   7.800  0.3085 -0.0076 -0.4157
  540MOL0     C72778   1.656   1.519   7.807  0.6827 -0.1251  0.6639
  540MOL0     C72779   1.675   1.607   7.691  0.3735  0.8880 -0.6944
  540MOL0     C72780   1.818   1.658   7.667 -0.1775 -1.1099  0.4991
  540MOL0     C72781   1.902   1.546   7.607  0.3218  0.2256  0.6486
  540MOL0     N72782   2.034   1.602   7.579  0.1827  0.2595  0.4588
  540MOL0     C72783   2.074   1.671   7.465 -0.3830 -0.7817 -0.2927
  540MOL0     C72784   2.205   1.714   7.489 -0.4515  0.4230  1.0742
  540MOL0     C72785   2.298   1.752   7.370 -0.4364  0.0475  0.3494
  540MOL0     C72786   2.433   1.819   7.408 -0.0805  0.3277 -0.1728
  540MOL0     C72787   2.526   1.834   7.287  0.2876 -0.2971  0.1691
  540MOL0     C72788   2.469   1.902   7.163 -0.5911  0.7993 -0.6138
  540MOL0     O72789   2.470   2.042   7.180  0.5008  0.7325  0.5679
  540MOL0     C72790   2.378   2.114   7.109  0.2192 -0.1443  0.4681
  540MOL0     C72791   2.335   2.094   6.976 -0.1480 -0.9497 -0.3891
  540MOL0     C72792   2.229   2.166   6.909 -0.1268 -0.3699  0.4360
  540MOL0     C72793   2.195   2.116   6.773  0.6539 -0.1347 -0.0149
  540MOL0     C72794   2.181   2.288   6.972  0.1909 -0.3725 -0.1075
  540MOL0     C72795   2.077   2.376   6.909  0.3273 -0.0135  1.3312
  540MOL0     O72796   2.019   2.462   6.987  0.0180  0.2241 -0.3849
  540MOL0     C72797   1.899   2.523   6.957 -0.8459  0.6106 -0.2582
  540MOL0     C72798   1.785   2.485   7.031 -1.0389 -0.7043  0.1570
  540MOL0     C72799   1.665   2.538   6.993 -0.6245 -0.2247 -0.2098
  540MOL0     C72800   1.652   2.616   6.875 -0.2075  0.3332 -0.3741
  540MOL0     O72801   1.525   2.645   6.837  0.5976  0.3329 -0.2651
  540MOL0     C72802   1.501   2.650   6.694 -0.5574 -0.8974 -0.3393
  540MOL0     C72803   1.357   2.609   6.676 -1.2620 -0.2596  0.3127
  540MOL0     C72804   1.327   2.458   6.716 -0.5204  0.5576  0.7334
  540MOL0     C72805   1.295   2.443   6.869  0.0830 -0.0833 -0.4365
  540MOL0     C72806   1.309   2.303   6.918  0.7517  0.3319  0.5806
  540MOL0     C72807   1.277   2.282   7.065 -0.4695  0.0360 -0.3378
  540MOL0     C72808   1.267   2.140   7.112 -0.0232  0.5353 -0.2064
  540MOL0     C72809   1.373   2.097   7.214  0.4033 -0.0621  0.2190
  540MOL0    Cl72810   1.510   2.041   7.130 -0.1379  0.1512 -0.0809
  540MOL0     C72811   1.766   2.642   6.795  0.4092 -0.5049  0.1291
  540MOL0     C72812   1.891   2.601   6.843  1.0229  0.1919  0.2250
  540MOL0     O72813   2.070   2.369   6.783 -0.5650 -0.1565 -0.5119
  540MOL0     C72814   2.227   2.310   7.109 -0.3992 -0.0687  0.1697
  540MOL0     C72815   2.316   2.215   7.168  0.4989 -0.1787  0.0251
  540MOL0     N72816   2.237   1.675   7.612  0.1005  0.8639 -0.4616
  540MOL0     N72817   2.134   1.616   7.669 -0.7988 -0.3532 -1.0738
  540MOL0     C72818   1.065   1.282   8.122  0.3742  0.9235 -0.2844
  540MOL0     C72819   0.936   1.291   8.181  0.2719  0.6924 -0.1510
  540MOL0     C72820   0.508   1.258   8.242  0.1161  0.6333 -0.0171
  540MOL0     C72821   0.414   1.353   8.192  0.2629  0.2905 -0.2068
  540MOL0     C72822   0.292   1.374   8.262  0.2134  0.4594  0.0265
  540MOL0     C72823   0.259   1.306   8.377 -0.2940  0.0083 -0.2621
  540MOL0     O72824   0.143   1.339   8.443 -1.1182  0.3462 -0.2721
  540MOL0     C72825   0.089   1.261   8.550 -0.5422  0.4140  0.4679
  540MOL0     C72826  -0.058   1.301   8.562  0.2656 -0.0928  0.4660
  540MOL0     C72827  -0.144   1.261   8.448  0.1141  0.4693  0.5212
  540MOL0     C72828  -0.274   1.332   8.447 -0.4180 -0.7943 -0.1235
  540MOL0     C72829  -0.370   1.300   8.339  0.2908 -0.1275  0.4425
  540MOL0     C72830  -0.453   1.284   8.248  0.9031 -0.3185 -0.6235
  540MOL0     C72831   0.361   1.238   8.443 -1.1376 -0.1946  0.3733
  540MOL0     C72832   0.480   1.210   8.373  0.0095 -0.0492 -0.5004
  540MOL0     H72833   0.869   0.956   8.207 -0.1887  0.1279 -1.4755
  540MOL0     H72834   1.067   0.931   8.108  1.1818  0.6413 -1.4189
  540MOL0     H72835   1.355   1.246   8.139 -0.7836  0.5445 -0.1172
  540MOL0     H72836   1.427   1.122   8.041 -0.7868 -1.0886  1.3685
  540MOL0     H72837   1.319   1.269   7.833  0.0186  3.2705 -0.4687
  540MOL0     H72838   1.292   1.388   7.956 -2.4932 -1.1023  0.3376
  540MOL0     H72839   1.527   1.407   8.014 -2.3910  0.0441 -0.0398
  540MOL0     H72840   1.576   1.276   7.908  2.4201  0.6368  2.6490
  540MOL0     H72841   1.513   1.381   7.713  1.0123 -0.0238 -0.4853
  540MOL0     H72842   1.448   1.526   7.792 -2.1315 -2.3054 -1.9333
  540MOL0     H72843   1.668   1.570   7.903 -0.2183  1.4485 -0.0177
  540MOL0     H72844   1.732   1.443   7.785  0.0920 -0.0970 -1.6770
  540MOL0     H72845   1.634   1.554   7.605 -1.1324  1.9961 -0.6927
  540MOL0     H72846   1.614   1.695   7.714 -0.0764  0.3304  0.2832
  540MOL0     H72847   1.821   1.745   7.601 -1.6121 -0.5124  1.1533
  540MOL0     H72848   1.860   1.680   7.766  3.1335  1.1033 -1.2306
  540MOL0     H72849   1.860   1.507   7.514 -0.7362  1.7598  0.4435
  540MOL0     H72850   1.905   1.464   7.680  0.8988  0.1190  0.5095
  540MOL0     H72851   2.018   1.674   7.372  2.0540 -3.3551 -2.0034
  540MOL0     H72852   2.310   1.658   7.315  0.7123 -0.5859  1.6246
  540MOL0     H72853   2.243   1.817   7.301 -0.0783 -1.3021 -1.2878
  540MOL0     H72854   2.477   1.762   7.491 -1.7161 -0.6870  0.0277
  540MOL0     H72855   2.410   1.917   7.451  0.1377  1.3986 -2.3617
  540MOL0     H72856   2.535   1.728   7.261  1.3383  0.0940 -1.1737
  540MOL0     H72857   2.628   1.866   7.309  0.8915 -2.5367  0.8770
  540MOL0     H72858   2.367   1.871   7.138 -0.2624  0.5859 -1.7413
  540MOL0     H72859   2.544   1.879   7.087  0.4890  1.9224  0.0780
  540MOL0     H72860   2.378   2.008   6.926  1.3282  0.4249 -1.5743
  540MOL0     H72861   2.234   2.015   6.761  0.1352 -0.2935 -0.3789
  540MOL0     H72862   2.087   2.103   6.766  0.5975 -2.1546  2.7362
  540MOL0     H72863   2.246   2.189   6.709  0.3271  1.9300  1.9312
  540MOL0     H72864   1.793   2.409   7.109 -3.9394 -2.3205 -0.9375
  540MOL0     H72865   1.578   2.508   7.051 -1.1380 -1.6617 -1.6379
  540MOL0     H72866   1.516   2.754   6.663  0.8889 -1.2450 -0.8513
  540MOL0     H72867   1.564   2.581   6.638  1.0505  2.6947 -3.3085
  540MOL0     H72868   1.288   2.679   6.724 -0.8767  0.1102  0.3324
  540MOL0     H72869   1.337   2.620   6.569  0.7590 -0.6414 -0.1648
  540MOL0     H72870   1.397   2.385   6.673 -0.5109  2.1754 -2.2158
  540MOL0     H72871   1.229   2.441   6.672 -0.6359  0.7110  0.9277
  540MOL0     H72872   1.366   2.506   6.925 -0.0230  0.4258 -0.8674
  540MOL0     H72873   1.199   2.491   6.890  1.9890  2.4421  3.9412
  540MOL0     H72874   1.412   2.269   6.909 -0.5903 -3.7569 -1.7710
  540MOL0     H72875   1.250   2.234   6.856  1.5692  1.3457 -1.4361
  540MOL0     H72876   1.346   2.351   7.114  0.1952 -0.3567 -0.7018
  540MOL0     H72877   1.184   2.336   7.083 -0.1293  0.0907  1.3760
  540MOL0     H72878   1.271   2.073   7.026  0.1088  0.3722 -0.0735
  540MOL0     H72879   1.170   2.128   7.161 -0.3075  0.3698 -0.8067
  540MOL0     H72880   1.328   2.017   7.273  1.8346 -0.5227  0.7351
  540MOL0     H72881   1.419   2.174   7.276  1.0270  0.2363 -0.6006
  540MOL0     H72882   1.756   2.694   6.701  0.8535  0.3703  0.5542
  540MOL0     H72883   1.991   2.620   6.805  2.7233  0.4235  4.2377
  540MOL0     H72884   2.206   2.401   7.164  0.5964  0.2397  0.0607
  540MOL0     H72885   2.332   2.235   7.273 -1.3087  2.5763 -0.1168
  540MOL0     H72886   1.127   1.368   8.098  2.0092 -0.4753 -1.2757
  540MOL0     H72887   0.889   1.384   8.210  2.0156  0.6817  3.2403
  540MOL0     H72888   0.422   1.400   8.094  1.6001  3.0706  1.1105
  540MOL0     H72889   0.212   1.431   8.215  0.9407  0.1209 -1.6874
  540MOL0     H72890   0.096   1.153   8.539  0.0608 -0.0518  4.1064
  540MOL0     H72891   0.147   1.284   8.640  2.5245 -2.4607 -0.5775
  540MOL0     H72892  -0.053   1.407   8.586  1.5545 -0.4443  1.9348
  540MOL0     H72893  -0.095   1.246   8.649 -1.1210  0.2149  0.0919
  540MOL0     H72894  -0.151   1.153   8.458  2.6142  0.1740 -0.1596
  540MOL0     H72895  -0.097   1.265   8.349 -1.1915 -1.1378 -0.2024
  540MOL0     H72896  -0.256   1.440   8.442  0.5773 -1.0132 -1.9918
  540MOL0     H72897  -0.330   1.308   8.538 -0.2786  0.4737  0.3139
  540MOL0     H72898  -0.522   1.285   8.166  0.9402  4.9810 -0.9347
  540MOL0     H72899   0.349   1.192   8.540  0.8464  1.9522  1.7673
  540MOL0     H72900   0.553   1.140   8.412  1.5802  2.1368  0.6964
  541MOL0     O72901   3.730   4.853   7.165  0.3691  0.0671  0.0062
  541MOL0     C72902   3.832   4.907   7.179 -0.8843  0.1075 -0.0463
  541MOL0     O72903   3.853   5.028   7.246  0.5495  0.6927  0.5208
  541MOL0     C72904   3.739   5.080   7.305  0.6029  0.0833 -0.0399
  541MOL0     C72905   3.641   5.150   7.229  0.2229  0.0672  0.2214
  541MOL0     C72906   3.520   5.186   7.287  0.4537 -1.1021 -0.5877
  541MOL0     C72907   3.498   5.149   7.416 -0.0103  0.5325 -0.2737
  541MOL0     O72908   3.375   5.180   7.472 -0.1602  0.1208  0.1449
  541MOL0     C72909   3.322   5.091   7.568  0.5255 -0.5083 -0.2746
  541MOL0     C72910   3.174   5.136   7.593 -0.0740  0.9076 -0.3754
  541MOL0     C72911   3.102   5.037   7.695  0.0341  0.0388  0.3301
  541MOL0     C72912   2.953   5.056   7.692  0.0765  0.0966  0.3619
  541MOL0     C72913   2.884   4.947   7.774  0.2242  0.6849 -0.2397
  541MOL0     C72914   2.731   4.967   7.753 -0.6476 -0.2000  0.8671
  541MOL0     C72915   2.655   4.892   7.862  0.4422  0.8837  0.1213
  541MOL0     C72916   2.597   4.774   7.794  0.7664  0.2944  0.0223
  541MOL0     N72917   2.549   4.681   7.897  0.0415  0.8384  0.0766
  541MOL0     C72918   2.524   4.690   8.031 -0.2835  0.6307  0.4122
  541MOL0     C72919   2.482   4.571   8.071 -0.4088 -0.3938  1.0298
  541MOL0     C72920   2.459   4.528   8.205  0.2514 -1.0426 -0.1498
  541MOL0     C72921   2.311   4.555   8.241  0.1498  0.2266 -0.0062
  541MOL0     C72922   2.228   4.429   8.230  0.4175  0.4324 -0.2979
  541MOL0     C72923   2.088   4.447   8.285  1.2209  0.1821  0.0427
  541MOL0     O72924   2.029   4.533   8.192  0.1081  0.1222 -0.1718
  541MOL0     C72925   1.897   4.520   8.161 -0.5776 -1.3693  0.4303
  541MOL0     C72926   1.864   4.578   8.036  0.3812 -0.9611 -0.3776
  541MOL0     C72927   1.729   4.562   7.986 -0.5177  0.4223 -0.4012
  541MOL0     C72928   1.702   4.626   7.854 -0.7189  0.0001 -0.0751
  541MOL0     C72929   1.631   4.500   8.071 -0.2591 -0.1142 -0.3166
  541MOL0     C72930   1.485   4.492   8.041  0.2933  0.9575 -0.3267
  541MOL0     O72931   1.402   4.485   8.151  0.2625 -0.1977 -0.5600
  541MOL0     C72932   1.263   4.495   8.147  0.2237 -0.5819  0.6377
  541MOL0     C72933   1.174   4.509   8.039 -0.0064 -0.3876  0.3924
  541MOL0     C72934   1.030   4.524   8.071 -0.3349  0.6997  0.5700
  541MOL0     C72935   0.986   4.535   8.207 -0.2072 -0.2154  0.6133
  541MOL0     O72936   0.859   4.559   8.244 -0.1016 -0.2160  0.5076
  541MOL0     C72937   0.761   4.617   8.157  1.0193 -0.1406  0.1443
  541MOL0     C72938   0.637   4.680   8.231  0.2716  0.2467  0.5550
  541MOL0     C72939   0.520   4.670   8.124  0.4461 -0.1640  0.5643
  541MOL0     C72940   0.415   4.781   8.158 -0.7895  0.2221 -0.1221
  541MOL0     C72941   0.318   4.817   8.054  0.0376  0.8519  1.2589
  541MOL0     C72942   0.217   4.917   8.107 -0.4342  0.2211 -0.2511
  541MOL0     C72943   0.122   4.957   8.001  0.4089 -1.0713  0.0898
  541MOL0     C72944  -0.024   4.953   8.045 -0.2049 -0.0315 -0.9679
  541MOL0    Cl72945  -0.125   5.015   7.922  0.4873  0.2539 -0.2674
  541MOL0     C72946   1.072   4.508   8.311 -0.0515  0.7853  0.1833
  541MOL0     C72947   1.210   4.492   8.280 -0.3486  1.0191  0.0009
  541MOL0     O72948   1.446   4.505   7.926  0.9807 -0.2137  0.3315
  541MOL0     C72949   1.664   4.456   8.199 -1.1283  0.8614 -0.1083
  541MOL0     C72950   1.801   4.456   8.234 -0.0985 -0.6016 -0.6746
  541MOL0     N72951   2.469   4.489   7.963 -0.3512 -0.5686 -0.0912
  541MOL0     N72952   2.522   4.550   7.860 -0.0511  0.0162  0.2706
  541MOL0     C72953   3.598   5.098   7.495  0.4672 -0.3604  1.0402
  541MOL0     C72954   3.716   5.059   7.439 -0.7159  0.2556  0.8922
  541MOL0     C72955   3.944   4.845   7.122 -0.1819  0.0458 -0.5355
  541MOL0     C72956   3.963   4.704   7.118  0.4466 -0.3253  0.4248
  541MOL0     C72957   4.079   4.658   7.069  0.3536  0.1346  0.4007
  541MOL0     C72958   4.186   4.742   7.042 -0.8910 -0.5354 -0.1684
  541MOL0     O72959   4.311   4.690   7.012  0.3227  0.8007 -0.2699
  541MOL0     C72960   4.428   4.775   6.980  0.8584 -0.4071 -0.1157
  541MOL0     C72961   4.542   4.688   6.915 -0.8575  0.5232 -0.2775
  541MOL0     C72962   4.496   4.598   6.798 -0.0383  0.5053 -0.2424
  541MOL0     C72963   4.610   4.552   6.709  0.8196 -0.1750 -0.2546
  541MOL0     C72964   4.712   4.481   6.783 -0.1470 -0.4036  0.4653
  541MOL0     C72965   4.802   4.435   6.843 -0.3037  0.2168 -0.1126
  541MOL0     C72966   4.166   4.880   7.032 -0.7162 -0.4033  0.0325
  541MOL0     C72967   4.045   4.935   7.081  0.5748  0.2806  0.1793
  541MOL0     H72968   3.648   5.176   7.123 -3.4428 -2.3357 -0.8108
  541MOL0     H72969   3.449   5.246   7.230 -0.0808  0.0147  1.1658
  541MOL0     H72970   3.326   4.987   7.533  0.3099 -0.3614 -0.7321
  541MOL0     H72971   3.371   5.101   7.665 -1.2045 -3.7395  1.0923
  541MOL0     H72972   3.178   5.239   7.629 -1.9639  0.9987 -0.3320
  541MOL0     H72973   3.131   5.138   7.492  0.2436  0.1274 -0.5402
  541MOL0     H72974   3.114   4.930   7.674  0.5924  0.0591  0.5391
  541MOL0     H72975   3.152   5.052   7.791 -1.1026 -1.2664  1.1611
  541MOL0     H72976   2.925   5.156   7.724  1.4968  1.2359 -1.7609
  541MOL0     H72977   2.917   5.049   7.589 -1.5020 -4.6151  0.9903
  541MOL0     H72978   2.899   4.844   7.743 -1.7016  0.4404 -0.5101
  541MOL0     H72979   2.908   4.953   7.881 -1.7542 -0.4758  0.3125
  541MOL0     H72980   2.707   5.072   7.771 -1.2227  0.0059 -0.8445
  541MOL0     H72981   2.705   4.948   7.648  3.6484 -0.5902 -0.3377
  541MOL0     H72982   2.721   4.860   7.944 -1.4229  1.9692  2.1299
  541MOL0     H72983   2.578   4.957   7.903 -1.0137 -0.4896 -0.3623
  541MOL0     H72984   2.665   4.715   7.731 -1.2708 -0.5476 -1.4811
  541MOL0     H72985   2.510   4.804   7.735  1.2164  1.3813 -0.1032
  541MOL0     H72986   2.543   4.778   8.092  0.2448  1.3433 -0.7469
  541MOL0     H72987   2.491   4.423   8.206 -0.5444 -1.3020 -0.7317
  541MOL0     H72988   2.533   4.578   8.268  2.3238  0.5274 -3.5586
  541MOL0     H72989   2.265   4.630   8.176  1.3233  2.1347  1.2699
  541MOL0     H72990   2.305   4.601   8.340 -0.7932 -0.5826  0.3326
  541MOL0     H72991   2.273   4.343   8.282 -1.1507 -1.1394 -1.4312
  541MOL0     H72992   2.216   4.390   8.129 -2.5492 -0.2293  0.2152
  541MOL0     H72993   2.092   4.497   8.382  1.7777 -1.1480  0.7260
  541MOL0     H72994   2.035   4.352   8.296  0.3912  0.7371  0.9339
  541MOL0     H72995   1.924   4.632   7.964 -2.1618 -1.3145 -2.9713
  541MOL0     H72996   1.769   4.712   7.843 -0.0070 -0.2799  1.6894
  541MOL0     H72997   1.718   4.563   7.766 -3.4231 -1.4498  0.3752
  541MOL0     H72998   1.601   4.669   7.856 -0.3306  0.9285  1.0491
  541MOL0     H72999   1.195   4.528   7.934 -0.4299  1.0393  0.5383
  541MOL0     H73000   0.951   4.547   8.001 -1.9329 -0.8232  1.7814
  541MOL0     H73001   0.802   4.698   8.096 -0.7709 -0.6328 -1.8401
  541MOL0     H73002   0.723   4.543   8.086 -0.7833  1.7345 -0.9734
  541MOL0     H73003   0.616   4.624   8.322 -0.6089 -1.8419 -0.8357
  541MOL0     H73004   0.672   4.781   8.253  2.0923  0.2623 -1.9238
  541MOL0     H73005   0.478   4.569   8.121  0.6696 -0.2734  0.9997
  541MOL0     H73006   0.553   4.692   8.022 -1.9330 -2.0173 -0.7118
  541MOL0     H73007   0.372   4.749   8.253  1.1882 -2.4169  0.0117
  541MOL0     H73008   0.488   4.862   8.171  1.7548 -1.5485 -2.0949
  541MOL0     H73009   0.271   4.728   8.012  3.1207 -1.7552  2.8858
  541MOL0     H73010   0.372   4.864   7.971 -1.4295  2.5428  1.1995
  541MOL0     H73011   0.160   4.879   8.192  0.0525  1.1678  0.5113
  541MOL0     H73012   0.261   5.007   8.150 -1.1264 -0.6975  2.5533
  541MOL0     H73013   0.123   4.894   7.912 -0.4695 -1.9101  0.6504
  541MOL0     H73014   0.143   5.059   7.968  0.1781 -0.3862  1.9227
  541MOL0     H73015  -0.032   5.015   8.135  2.4208 -1.5445  0.4467
  541MOL0     H73016  -0.056   4.852   8.074  0.2487  0.3340  0.9618
  541MOL0     H73017   1.044   4.521   8.415  0.2001  0.0835  0.3462
  541MOL0     H73018   1.280   4.484   8.362 -0.6416  4.1772  0.6899
  541MOL0     H73019   1.589   4.418   8.268 -0.9036 -0.4610 -0.5678
  541MOL0     H73020   1.835   4.406   8.324  0.2169 -2.9347 -2.0212
  541MOL0     H73021   3.591   5.077   7.601  1.4751 -1.0096  0.9889
  541MOL0     H73022   3.778   4.998   7.505  0.2954  0.2217 -0.0557
  541MOL0     H73023   3.897   4.626   7.153 -0.5891  0.8024  1.0490
  541MOL0     H73024   4.089   4.550   7.064 -2.4675 -0.1743 -3.9134
  541MOL0     H73025   4.398   4.854   6.910 -0.0588  0.0714  0.7943
  541MOL0     H73026   4.463   4.825   7.071  0.4765  1.2439 -0.8414
  541MOL0     H73027   4.581   4.616   6.988 -0.3579  0.5676 -0.4975
  541MOL0     H73028   4.626   4.753   6.891 -1.3058  1.7414  1.2476
  541MOL0     H73029   4.427   4.651   6.733  1.4887  0.7544 -1.7147
  541MOL0     H73030   4.437   4.510   6.826 -1.1318  1.5876  1.0207
  541MOL0     H73031   4.652   4.642   6.663 -2.4617  1.2760 -0.6662
  541MOL0     H73032   4.577   4.479   6.635  2.1571 -0.2411 -0.8014
  541MOL0     H73033   4.875   4.377   6.896  0.9290 -1.6379 -3.5117
  541MOL0     H73034   4.237   4.941   6.978  0.5816 -2.6932 -0.9773
  541MOL0     H73035   4.038   5.042   7.091  0.3769  0.1007  2.5088
  542MOL0     O73036   5.291  10.686   3.667 -0.9251  0.8033  0.0645
  542MOL0     C73037   5.221  10.747   3.746 -0.6716  0.1722  0.1437
  542MOL0     O73038   5.100  10.815   3.717 -0.0477  0.0025  0.0991
  542MOL0     C73039   5.090  10.855   3.583 -0.4726  0.0845 -0.5600
  542MOL0     C73040   5.042  10.760   3.496 -0.8275 -0.6035 -0.8337
  542MOL0     C73041   5.024  10.786   3.365  0.3212  0.1360 -0.3941
  542MOL0     C73042   5.045  10.920   3.312 -0.4098 -0.3412 -0.4059
  542MOL0     O73043   5.017  10.944   3.184 -0.0613 -0.0470 -0.1337
  542MOL0     C73044   5.077  11.052   3.120  0.2909 -0.0040 -0.8259
  542MOL0     C73045   5.052  11.038   2.973  0.4757 -0.8453 -0.4656
  542MOL0     C73046   4.905  11.063   2.933  0.3589  0.5741 -0.3202
  542MOL0     C73047   4.861  11.011   2.789 -0.3379  0.5650  0.4019
  542MOL0     C73048   4.716  10.990   2.770 -0.0214 -0.7530 -1.4258
  542MOL0     C73049   4.658  11.128   2.768  0.1264  1.0900  0.2333
  542MOL0     C73050   4.507  11.126   2.791  0.1226 -0.6173  0.7322
  542MOL0     C73051   4.428  11.121   2.661  0.3931  0.0763 -0.1409
  542MOL0     N73052   4.284  11.135   2.683  0.3951  0.8099  0.1271
  542MOL0     C73053   4.208  11.247   2.668 -0.2358 -0.4871 -0.5323
  542MOL0     C73054   4.092  11.214   2.726  1.2807 -0.0206 -0.0600
  542MOL0     C73055   3.993  11.318   2.762  0.0406  0.5664 -0.1655
  542MOL0     C73056   4.042  11.414   2.865 -0.6663 -0.2454 -0.0126
  542MOL0     C73057   4.030  11.371   3.016 -1.2412 -0.2460  0.0833
  542MOL0     C73058   4.027  11.484   3.123  0.4774  0.1430 -0.0337
  542MOL0     O73059   3.917  11.574   3.098  0.2257 -0.1582  0.1845
  542MOL0     C73060   3.881  11.664   3.196  0.3399  0.0157  0.9528
  542MOL0     C73061   3.967  11.717   3.287 -1.1173 -0.2589 -0.7725
  542MOL0     C73062   3.930  11.809   3.388 -1.1009  0.2022 -0.4466
  542MOL0     C73063   4.047  11.847   3.482  0.7740  0.3673  1.0091
  542MOL0     C73064   3.795  11.850   3.385 -0.1340  0.3536 -0.5738
  542MOL0     C73065   3.744  11.953   3.486  0.2708  0.3159  0.1892
  542MOL0     O73066   3.610  11.963   3.489  0.7092 -0.4172 -0.3216
  542MOL0     C73067   3.550  12.056   3.569  0.1776 -0.5073  0.3671
  542MOL0     C73068   3.435  12.030   3.645  0.5222  0.2547 -0.4991
  542MOL0     C73069   3.366  12.129   3.715  0.1419  0.0965 -0.1049
  542MOL0     C73070   3.421  12.252   3.728  0.5161 -0.7440 -0.8914
  542MOL0     O73071   3.363  12.356   3.800  0.5831  0.4565 -0.1871
  542MOL0     C73072   3.239  12.334   3.876 -0.7342  0.7695 -0.1325
  542MOL0     C73073   3.224  12.450   3.976 -0.1883  0.2430 -0.3727
  542MOL0     C73074   3.071  12.450   4.020  0.2252  0.6918 -0.8348
  542MOL0     C73075   3.029  12.571   4.102  0.6910 -0.0121  0.0999
  542MOL0     C73076   2.882  12.580   4.147 -0.3837 -0.6853  0.2599
  542MOL0     C73077   2.841  12.717   4.196  1.0688 -0.4921 -0.4107
  542MOL0     C73078   2.679  12.733   4.225 -0.4373  0.8182 -0.8201
  542MOL0     C73079   2.638  12.868   4.290 -0.3508  0.3596  0.5760
  542MOL0    Cl73080   2.461  12.869   4.300  0.1155  0.1366  0.1517
  542MOL0     C73081   3.534  12.289   3.657 -0.2886  0.0142  1.0688
  542MOL0     C73082   3.596  12.192   3.571 -0.1095  0.1662  0.5909
  542MOL0     O73083   3.822  12.025   3.550  0.3720  0.3944 -0.3053
  542MOL0     C73084   3.708  11.802   3.283 -0.0983 -0.0909 -0.0736
  542MOL0     C73085   3.752  11.715   3.186 -0.8180 -0.2123  0.5726
  542MOL0     N73086   4.088  11.078   2.766 -1.0528  0.2212  0.3229
  542MOL0     N73087   4.207  11.036   2.744 -0.1547  0.1062 -0.2932
  542MOL0     C73088   5.097  11.015   3.402  0.9449 -0.8256 -0.0697
  542MOL0     C73089   5.122  10.986   3.539  1.0577  0.5988 -0.1531
  542MOL0     C73090   5.245  10.750   3.895 -1.1721  0.1014  0.1379
  542MOL0     C73091   5.373  10.731   3.954  0.6105 -0.1483  0.5905
  542MOL0     C73092   5.397  10.732   4.089  0.1814  1.1427 -1.4283
  542MOL0     C73093   5.298  10.774   4.178  0.3722  0.2038  0.2964
  542MOL0     O73094   5.341  10.799   4.309  0.2175 -0.3707  0.2258
  542MOL0     C73095   5.239  10.827   4.404  0.5309 -0.5608 -0.3207
  542MOL0     C73096   5.286  10.827   4.551  0.0891 -0.5067  0.0272
  542MOL0     C73097   5.300  10.678   4.600  0.9144 -0.6206 -0.7247
  542MOL0     C73098   5.180  10.630   4.687 -0.3893 -0.0956  1.0640
  542MOL0     C73099   5.153  10.704   4.815 -0.1528 -0.1808  0.3022
  542MOL0     C73100   5.136  10.767   4.919 -0.5795 -0.3692  1.1126
  542MOL0     C73101   5.174  10.802   4.124 -0.2372  0.0386  0.2152
  542MOL0     C73102   5.143  10.791   3.986 -0.7274  0.4812  0.0417
  542MOL0     H73103   5.004  10.665   3.532 -0.4025 -0.8393 -0.9962
  542MOL0     H73104   4.976  10.703   3.313  0.4508 -0.1262 -0.1031
  542MOL0     H73105   5.020  11.143   3.142  0.0778 -0.4365  0.4726
  542MOL0     H73106   5.182  11.070   3.145 -0.6692  4.6827  0.8735
  542MOL0     H73107   5.112  11.108   2.916 -0.8119  2.0365  1.4925
  542MOL0     H73108   5.082  10.935   2.949 -0.8064 -0.9847 -1.5878
  542MOL0     H73109   4.859  10.992   3.002  0.1893 -0.0262 -1.0313
  542MOL0     H73110   4.877  11.167   2.954 -0.0195  0.3740  0.1943
  542MOL0     H73111   4.909  11.065   2.707 -0.6659 -1.4577 -1.1958
  542MOL0     H73112   4.912  10.916   2.769  0.6811  1.6249 -2.5468
  542MOL0     H73113   4.702  10.934   2.676 -0.0229 -1.5851 -0.9392
  542MOL0     H73114   4.685  10.941   2.863  1.7749 -0.0354 -0.3980
  542MOL0     H73115   4.693  11.168   2.864 -1.7213  0.5451  1.1854
  542MOL0     H73116   4.705  11.186   2.688 -0.2000  1.1054  0.0503
  542MOL0     H73117   4.475  11.045   2.857 -0.3313 -0.4326  0.7440
  542MOL0     H73118   4.489  11.226   2.831  0.9335  0.9484 -2.4889
  542MOL0     H73119   4.450  11.029   2.606 -0.6518  0.4757 -1.3007
  542MOL0     H73120   4.474  11.208   2.612  1.7845  1.4663  3.2881
  542MOL0     H73121   4.248  11.341   2.630 -1.6171  0.9846  1.4327
  542MOL0     H73122   3.961  11.376   2.674  0.6155  2.1009  0.5914
  542MOL0     H73123   3.914  11.254   2.802  1.7100 -2.2889 -1.2145
  542MOL0     H73124   3.984  11.506   2.856 -0.3800  0.1676  1.9239
  542MOL0     H73125   4.143  11.450   2.844 -0.4667 -0.7755  0.0187
  542MOL0     H73126   4.108  11.298   3.041  0.4579  1.4912  0.0302
  542MOL0     H73127   3.938  11.312   3.014 -0.5716 -1.4595  2.0135
  542MOL0     H73128   4.122  11.538   3.125 -0.3838  1.7524  0.0025
  542MOL0     H73129   4.016  11.437   3.221  2.6576  2.0325  1.2171
  542MOL0     H73130   4.072  11.693   3.284 -1.0845 -0.1063 -0.8718
  542MOL0     H73131   4.009  11.856   3.584  2.8417  1.9869  1.7262
  542MOL0     H73132   4.130  11.776   3.483 -0.5741 -1.2472  1.7347
  542MOL0     H73133   4.099  11.943   3.465  1.6414 -0.2216  0.2421
  542MOL0     H73134   3.412  11.925   3.659  0.9462  0.3436  1.1097
  542MOL0     H73135   3.274  12.096   3.763  0.0633 -0.0532 -0.3500
  542MOL0     H73136   3.154  12.322   3.808  1.8199 -1.6349 -3.2496
  542MOL0     H73137   3.235  12.241   3.933 -3.6857  1.4820  1.0155
  542MOL0     H73138   3.294  12.443   4.060 -0.0442  0.3096 -0.4860
  542MOL0     H73139   3.245  12.543   3.922  1.8569  1.3556  2.1429
  542MOL0     H73140   3.046  12.361   4.078 -0.1017  2.0921  1.2918
  542MOL0     H73141   3.013  12.455   3.927 -3.1777 -0.5351  1.0843
  542MOL0     H73142   3.095  12.577   4.188 -0.7658  0.0648  1.2566
  542MOL0     H73143   3.047  12.656   4.035 -3.3672 -1.1348 -2.8185
  542MOL0     H73144   2.863  12.498   4.216 -0.5605 -3.2675 -2.6409
  542MOL0     H73145   2.815  12.558   4.063 -0.5513  2.1901 -0.4849
  542MOL0     H73146   2.890  12.747   4.288 -4.7126  0.4548  2.8698
  542MOL0     H73147   2.854  12.789   4.114 -0.7615  2.4167  1.6836
  542MOL0     H73148   2.640  12.655   4.291 -0.9903 -0.2902 -2.3861
  542MOL0     H73149   2.622  12.726   4.132 -0.2180  0.7973 -0.9540
  542MOL0     H73150   2.686  12.944   4.228 -1.8214 -0.2498 -1.4129
  542MOL0     H73151   2.675  12.874   4.393 -0.0546  1.0254  0.4321
  542MOL0     H73152   3.567  12.392   3.658 -1.1982  0.3506 -0.3330
  542MOL0     H73153   3.680  12.224   3.510 -0.9533 -2.9864 -2.5371
  542MOL0     H73154   3.604  11.830   3.281  0.7483  3.4323 -0.5636
  542MOL0     H73155   3.684  11.680   3.109 -1.3852  0.6981  0.6404
  542MOL0     H73156   5.105  11.115   3.362  1.5694 -1.0730 -0.5759
  542MOL0     H73157   5.151  11.071   3.599  1.6553 -1.3400  2.5030
  542MOL0     H73158   5.458  10.708   3.892  1.1379  3.8785 -0.4433
  542MOL0     H73159   5.490  10.705   4.138 -0.0535  5.1391  1.7265
  542MOL0     H73160   5.206  10.929   4.381 -2.8996 -1.2418  1.0490
  542MOL0     H73161   5.155  10.759   4.391  0.2144  0.1600 -2.4037
  542MOL0     H73162   5.219  10.881   4.619  0.6641  2.5317 -1.6316
  542MOL0     H73163   5.376  10.887   4.562 -1.1506  1.2898  0.9569
  542MOL0     H73164   5.386  10.667   4.666  0.3133  0.8597  0.3823
  542MOL0     H73165   5.293  10.617   4.510 -4.9621 -0.5291 -0.7187
  542MOL0     H73166   5.188  10.523   4.705  2.6525 -0.4457 -1.4070
  542MOL0     H73167   5.093  10.648   4.623 -0.6150  0.7043  1.5771
  542MOL0     H73168   5.107  10.826   5.004 -5.2144 -2.3991  1.2446
  542MOL0     H73169   5.096  10.837   4.191 -0.0985 -0.9945  0.9394
  542MOL0     H73170   5.043  10.814   3.950 -0.8550 -0.0479  0.0577
  543MOL0     O73171   3.703   6.125   7.186  0.2095  0.1052  0.3962
  543MOL0     C73172   3.805   6.159   7.243 -0.2812  0.4090  1.1127
  543MOL0     O73173   3.816   6.250   7.345 -1.2196 -0.3249  0.7222
  543MOL0     C73174   3.700   6.307   7.390  0.2938 -0.6352 -0.3942
  543MOL0     C73175   3.694   6.441   7.421  0.1076 -0.4597  0.1944
  543MOL0     C73176   3.578   6.506   7.471 -1.5016 -1.7231  0.0586
  543MOL0     C73177   3.466   6.434   7.490  0.6801 -1.2464  0.2404
  543MOL0     O73178   3.357   6.496   7.537  0.3263 -0.1317 -0.1578
  543MOL0     C73179   3.319   6.618   7.479  0.0150  0.5781  0.7281
  543MOL0     C73180   3.184   6.649   7.530  0.8602 -0.1251 -0.2453
  543MOL0     C73181   3.076   6.542   7.510  0.2512 -0.0249  0.3892
  543MOL0     C73182   2.933   6.592   7.501 -0.1667  0.3603 -0.4531
  543MOL0     C73183   2.824   6.491   7.448  0.4283  0.1468 -0.3855
  543MOL0     C73184   2.684   6.528   7.494  0.0453  0.6221 -0.5091
  543MOL0     C73185   2.662   6.465   7.633  0.3009  0.1382  0.5333
  543MOL0     C73186   2.517   6.496   7.686 -0.1203 -0.4364 -0.0604
  543MOL0     N73187   2.491   6.635   7.720 -0.7018  0.7897  0.7074
  543MOL0     C73188   2.538   6.697   7.833 -0.9776  0.1819 -0.4243
  543MOL0     C73189   2.491   6.826   7.826  0.3771  0.7296 -0.6519
  543MOL0     C73190   2.517   6.940   7.928  0.1642  0.2047 -0.1394
  543MOL0     C73191   2.482   6.891   8.068 -0.0597  0.5517 -0.2712
  543MOL0     C73192   2.357   6.819   8.085  0.6576  0.1671 -0.2934
  543MOL0     C73193   2.315   6.817   8.227 -0.4500 -0.2869  0.3987
  543MOL0     O73194   2.203   6.722   8.232  0.5447  0.4944  0.1683
  543MOL0     C73195   2.094   6.751   8.312  0.3622  0.2791  0.1980
  543MOL0     C73196   2.100   6.831   8.421  0.3273  0.1031  0.1845
  543MOL0     C73197   1.987   6.903   8.464  0.0938 -0.2940 -0.2625
  543MOL0     C73198   2.027   7.009   8.573 -0.1942  0.2513  0.1363
  543MOL0     C73199   1.857   6.860   8.435  0.2434 -0.3650  0.3843
  543MOL0     C73200   1.738   6.924   8.491 -0.0031 -0.6746 -0.5648
  543MOL0     O73201   1.743   7.011   8.600  0.2940 -0.8413  1.0312
  543MOL0     C73202   1.633   7.063   8.662  0.9822 -0.5719  0.3226
  543MOL0     C73203   1.652   7.196   8.706  1.1343  0.1290 -0.1322
  543MOL0     C73204   1.556   7.268   8.768  0.2159 -0.4137  0.8431
  543MOL0     C73205   1.431   7.197   8.797  0.6822  0.1470  0.2121
  543MOL0     O73206   1.341   7.262   8.883  0.2123 -0.1408 -0.1996
  543MOL0     C73207   1.217   7.196   8.919 -0.5881 -0.6770  0.4147
  543MOL0     C73208   1.145   7.279   9.027  0.1901  0.0017 -0.2161
  543MOL0     C73209   1.001   7.240   9.044 -0.6206 -0.4935 -0.2240
  543MOL0     C73210   0.967   7.098   9.075 -0.9732  1.4744 -0.3572
  543MOL0     C73211   0.830   7.047   9.028  0.8097 -0.0398  0.1648
  543MOL0     C73212   0.728   7.098   9.128 -0.3244 -0.2581  0.1035
  543MOL0     C73213   0.723   7.010   9.259 -0.1839  0.3966  0.8464
  543MOL0     C73214   0.715   7.088   9.389 -0.1406 -0.6641  1.2028
  543MOL0    Cl73215   0.858   7.185   9.427 -0.3178  0.2420  0.3492
  543MOL0     C73216   1.420   7.065   8.745  0.5149  1.1051 -0.2280
  543MOL0     C73217   1.516   6.996   8.685  0.1928  0.1700  0.4517
  543MOL0     O73218   1.638   6.890   8.438 -0.3210 -0.4181 -0.0487
  543MOL0     C73219   1.848   6.756   8.340  0.1986 -0.3802 -0.3843
  543MOL0     C73220   1.968   6.715   8.276  0.3984  1.0633  0.4440
  543MOL0     N73221   2.432   6.837   7.705  0.2226 -0.8868 -0.6716
  543MOL0     N73222   2.432   6.728   7.641 -0.3440  0.2892  0.3908
  543MOL0     C73223   3.468   6.296   7.466  0.3283  0.1562  0.3162
  543MOL0     C73224   3.586   6.233   7.431  0.1382 -0.1850 -0.1025
  543MOL0     C73225   3.930   6.095   7.197  1.0684  0.3918 -0.1167
  543MOL0     C73226   4.058   6.131   7.240  0.2359  0.7283  0.0907
  543MOL0     C73227   4.175   6.072   7.192  0.0266 -0.0967  0.3266
  543MOL0     C73228   4.169   5.969   7.104  0.3789  0.5144 -0.6990
  543MOL0     O73229   4.291   5.909   7.063  1.1026  0.1483 -0.1619
  543MOL0     C73230   4.286   5.817   6.959  0.2362 -0.2140 -0.0110
  543MOL0     C73231   4.435   5.784   6.922  0.2587 -0.0344 -0.4018
  543MOL0     C73232   4.449   5.669   6.837  0.0313  0.0698 -0.5308
  543MOL0     C73233   4.598   5.632   6.798  0.0276  1.0353 -0.4640
  543MOL0     C73234   4.611   5.496   6.733 -0.4758 -0.6572  0.2478
  543MOL0     C73235   4.636   5.389   6.696  0.5045  0.5092 -0.2361
  543MOL0     C73236   4.042   5.942   7.053  0.8657  0.3659  0.0959
  543MOL0     C73237   3.924   5.996   7.100 -0.1799 -1.3930 -0.0090
  543MOL0     H73238   3.785   6.498   7.407 -0.8926  0.7471 -1.8167
  543MOL0     H73239   3.592   6.611   7.497  0.5249 -1.1483 -2.8216
  543MOL0     H73240   3.389   6.699   7.505  1.0315 -0.6585  2.0242
  543MOL0     H73241   3.317   6.611   7.370 -1.6960 -1.3273  0.8447
  543MOL0     H73242   3.191   6.662   7.638 -1.2876  1.7121 -0.2702
  543MOL0     H73243   3.148   6.747   7.496 -0.5695 -1.6882 -3.6181
  543MOL0     H73244   3.096   6.490   7.415 -1.3953 -2.1310  1.1138
  543MOL0     H73245   3.092   6.471   7.591  0.9965  0.8625  1.0437
  543MOL0     H73246   2.902   6.633   7.597 -3.1789 -0.7328 -0.8416
  543MOL0     H73247   2.925   6.672   7.426 -3.9078  3.6962  2.9444
  543MOL0     H73248   2.848   6.486   7.342  1.8378 -4.7144 -0.0498
  543MOL0     H73249   2.842   6.388   7.480  1.0959  0.8339  1.6763
  543MOL0     H73250   2.661   6.635   7.493  0.0582  0.6980  2.1399
  543MOL0     H73251   2.621   6.479   7.419 -0.5278  1.1844 -0.4042
  543MOL0     H73252   2.671   6.356   7.625  1.4388  0.3078 -0.9359
  543MOL0     H73253   2.732   6.493   7.711 -1.8450  0.0576  2.5982
  543MOL0     H73254   2.502   6.426   7.769  0.7768 -0.9255 -0.2907
  543MOL0     H73255   2.446   6.468   7.609  1.3497  1.1157 -2.0944
  543MOL0     H73256   2.605   6.659   7.909 -2.7118  1.4035  1.8532
  543MOL0     H73257   2.624   6.962   7.939 -0.0478  2.2104 -1.4113
  543MOL0     H73258   2.457   7.029   7.905  1.0121  0.2014 -2.7752
  543MOL0     H73259   2.482   6.979   8.133 -1.1995 -1.0276  1.9832
  543MOL0     H73260   2.560   6.824   8.106 -1.7805 -0.4488  1.6703
  543MOL0     H73261   2.370   6.717   8.048  2.6061 -0.2958  1.4631
  543MOL0     H73262   2.286   6.864   8.016  0.1025 -0.1399  0.0698
  543MOL0     H73263   2.286   6.910   8.277 -2.4934 -2.0853  2.7946
  543MOL0     H73264   2.394   6.772   8.288 -1.2543 -0.0211  1.6647
  543MOL0     H73265   2.200   6.858   8.454  0.9620  1.6377 -2.6569
  543MOL0     H73266   1.983   6.974   8.667  0.5633  2.5271  1.4089
  543MOL0     H73267   2.135   7.017   8.588 -0.0515 -0.8927 -0.2241
  543MOL0     H73268   1.989   7.105   8.535  0.0893 -0.6833 -2.7588
  543MOL0     H73269   1.751   7.241   8.701  1.3693 -0.2416  0.9704
  543MOL0     H73270   1.567   7.369   8.806 -3.2765 -0.2186  1.6507
  543MOL0     H73271   1.152   7.177   8.833  0.5445 -2.3556 -0.1251
  543MOL0     H73272   1.240   7.100   8.966  2.2810 -0.6499 -0.6661
  543MOL0     H73273   1.201   7.260   9.119  0.5526  0.4159 -0.3483
  543MOL0     H73274   1.156   7.384   9.000  4.2154 -0.3179 -0.4246
  543MOL0     H73275   0.957   7.266   8.947  2.0447  0.5438 -1.2535
  543MOL0     H73276   0.958   7.302   9.123  3.2479  4.2779 -1.4357
  543MOL0     H73277   1.042   7.034   9.026  0.5067  1.5471  1.6868
  543MOL0     H73278   0.978   7.081   9.182  1.1232  2.5378 -0.3407
  543MOL0     H73279   0.815   6.939   9.028 -2.0334  0.2839  1.3938
  543MOL0     H73280   0.809   7.088   8.928 -0.9748  0.1757  0.5930
  543MOL0     H73281   0.753   7.203   9.142 -0.6433  0.0847 -1.6188
  543MOL0     H73282   0.630   7.099   9.079 -0.2231  2.8748 -0.1864
  543MOL0     H73283   0.808   6.942   9.263 -1.1294 -1.0776 -1.7570
  543MOL0     H73284   0.637   6.943   9.256  1.8473 -2.3528  0.2079
  543MOL0     H73285   0.691   7.013   9.465 -2.7173  0.7118  1.8769
  543MOL0     H73286   0.622   7.145   9.392 -0.7949 -1.6702  0.7885
  543MOL0     H73287   1.322   7.019   8.757  0.9583 -1.0975 -3.7649
  543MOL0     H73288   1.501   6.894   8.649  0.6252  0.2197  0.1199
  543MOL0     H73289   1.756   6.713   8.301 -0.4752  0.5804  0.1198
  543MOL0     H73290   1.966   6.632   8.206  0.0734  1.2461  0.2334
  543MOL0     H73291   3.378   6.237   7.479 -0.8094  1.2811 -1.8300
  543MOL0     H73292   3.599   6.127   7.414  1.2459 -0.0255 -0.3289
  543MOL0     H73293   4.059   6.201   7.323 -2.9856 -1.1837  1.9385
  543MOL0     H73294   4.273   6.108   7.222 -0.4279  1.0027  0.5308
  543MOL0     H73295   4.233   5.727   6.994  0.4775 -0.7224 -0.9179
  543MOL0     H73296   4.223   5.843   6.873  1.1960  0.9414 -0.3779
  543MOL0     H73297   4.482   5.778   7.020  1.5253 -1.3371 -1.0469
  543MOL0     H73298   4.487   5.868   6.874  0.9231 -0.7606 -0.9808
  543MOL0     H73299   4.394   5.690   6.745 -0.4024 -1.4753 -0.6648
  543MOL0     H73300   4.393   5.591   6.890 -1.0455  1.4652  0.4617
  543MOL0     H73301   4.657   5.617   6.889 -3.2676 -1.6713  1.4416
  543MOL0     H73302   4.644   5.704   6.731  1.3428 -0.1756 -0.9173
  543MOL0     H73303   4.666   5.291   6.664  1.4758  0.5694  0.4433
  543MOL0     H73304   4.020   5.873   6.972 -1.6841  0.9446  0.2136
  543MOL0     H73305   3.823   5.971   7.069 -1.6768  1.8756  1.7331
  544MOL0     O73306   3.187   6.374   8.029 -0.5980  0.4544 -0.1194
  544MOL0     C73307   3.288   6.323   8.073 -0.1910  0.2990 -0.3800
  544MOL0     O73308   3.297   6.241   8.191 -0.1133  0.3547 -0.3435
  544MOL0     C73309   3.193   6.200   8.269 -1.2401 -0.3649 -0.8964
  544MOL0     C73310   3.081   6.288   8.297  0.1485 -0.6301  1.0236
  544MOL0     C73311   2.990   6.242   8.385  0.4328 -0.1958 -0.0792
  544MOL0     C73312   3.007   6.130   8.469 -0.3849 -0.6196  0.4974
  544MOL0     O73313   2.927   6.086   8.569 -1.1239  0.0747 -0.2564
  544MOL0     C73314   2.811   6.169   8.607 -0.6536  0.3744  0.3875
  544MOL0     C73315   2.668   6.142   8.554  0.4144  0.3306 -0.0932
  544MOL0     C73316   2.626   6.003   8.519 -0.6545  0.3205  0.8042
  544MOL0     C73317   2.473   5.994   8.497  0.0383  0.0248 -0.1515
  544MOL0     C73318   2.436   5.850   8.494 -0.3577  0.4281 -0.0813
  544MOL0     C73319   2.287   5.822   8.471  0.5052 -0.1831 -0.1088
  544MOL0     C73320   2.259   5.678   8.480 -0.1323 -0.8252  0.3043
  544MOL0     C73321   2.106   5.662   8.481  0.2398 -0.4733  0.0261
  544MOL0     N73322   2.037   5.704   8.359  0.1455 -0.0953 -0.2570
  544MOL0     C73323   2.028   5.637   8.238 -0.0624 -0.1596 -0.4371
  544MOL0     C73324   1.940   5.703   8.158  0.2369 -0.1503  0.6705
  544MOL0     C73325   1.910   5.684   8.012  1.0299 -0.9374 -0.0070
  544MOL0     C73326   1.815   5.565   7.993  0.9434 -0.5753 -0.3176
  544MOL0     C73327   1.669   5.587   8.059  0.6410  0.4731  0.2458
  544MOL0     C73328   1.569   5.649   7.974 -0.1816 -0.0584  0.7337
  544MOL0     O73329   1.492   5.543   7.903 -0.4403  0.1844 -0.3127
  544MOL0     C73330   1.391   5.582   7.814 -0.6807  0.2046 -0.2480
  544MOL0     C73331   1.368   5.709   7.778  0.3067 -0.4235  0.2482
  544MOL0     C73332   1.275   5.748   7.681 -0.6139 -0.6035 -1.2049
  544MOL0     C73333   1.258   5.889   7.657  0.0546  0.1334  0.4297
  544MOL0     C73334   1.183   5.659   7.627 -0.3445  0.0110 -0.1917
  544MOL0     C73335   1.076   5.680   7.525 -0.4368  0.0963 -0.1771
  544MOL0     O73336   0.965   5.590   7.520  0.0175 -1.0764  0.2249
  544MOL0     C73337   0.897   5.585   7.400  0.7552 -0.3242 -1.1126
  544MOL0     C73338   0.756   5.567   7.406 -1.5906  0.0189 -0.5826
  544MOL0     C73339   0.683   5.558   7.289 -0.5405  0.5950  0.0321
  544MOL0     C73340   0.746   5.543   7.162  0.2742 -0.1905  0.7205
  544MOL0     O73341   0.677   5.526   7.036  0.0803 -0.9849 -0.2131
  544MOL0     C73342   0.537   5.555   7.024 -0.3733 -0.0202 -0.2508
  544MOL0     C73343   0.456   5.426   7.035  0.3325 -0.9589 -0.4139
  544MOL0     C73344   0.296   5.442   7.003 -0.1796  0.0023 -0.5637
  544MOL0     C73345   0.211   5.330   7.041  0.4897 -0.1310  0.6895
  544MOL0     C73346   0.054   5.363   7.037  0.2805  0.0604 -0.2484
  544MOL0     C73347  -0.000   5.345   6.894  0.1196 -0.8599  0.5973
  544MOL0     C73348  -0.146   5.385   6.889 -0.1055  0.5813  0.4921
  544MOL0     C73349  -0.183   5.425   6.743 -0.7489 -0.3564 -0.6961
  544MOL0    Cl73350  -0.357   5.467   6.732  0.2633  0.1702  0.4052
  544MOL0     C73351   0.883   5.543   7.155 -0.6083  0.6760 -0.6569
  544MOL0     C73352   0.960   5.558   7.279 -0.2618 -0.1168  0.7119
  544MOL0     O73353   1.108   5.762   7.447  0.6274 -0.7529  0.4460
  544MOL0     C73354   1.202   5.525   7.676  0.6308  0.7541 -1.0924
  544MOL0     C73355   1.308   5.487   7.762  0.4281  0.5030  0.0627
  544MOL0     N73356   1.893   5.814   8.233 -0.0067  0.5390  0.0767
  544MOL0     N73357   1.951   5.805   8.349 -0.4833 -0.1314 -0.0206
  544MOL0     C73358   3.110   6.046   8.436 -0.4972 -0.7530 -0.5352
  544MOL0     C73359   3.204   6.086   8.346 -0.7527 -0.0048  0.3036
  544MOL0     C73360   3.416   6.363   8.022  0.1647 -0.1581  1.2187
  544MOL0     C73361   3.433   6.402   7.885  0.5476  1.1495 -0.1863
  544MOL0     C73362   3.553   6.435   7.827  0.6321 -0.8083 -0.1154
  544MOL0     C73363   3.672   6.438   7.906 -0.6386  0.3836 -0.3346
  544MOL0     O73364   3.794   6.478   7.861 -0.2500  0.3417 -0.3627
  544MOL0     C73365   3.848   6.408   7.746  0.1573  1.4396 -0.5802
  544MOL0     C73366   3.952   6.500   7.682 -0.4379  0.1632 -1.1098
  544MOL0     C73367   4.051   6.418   7.600 -0.8836 -0.1414  0.1448
  544MOL0     C73368   4.168   6.487   7.529  0.2439 -0.6026 -0.5395
  544MOL0     C73369   4.252   6.385   7.465 -0.1906  0.5893 -0.1044
  544MOL0     C73370   4.327   6.303   7.414  0.6999 -0.3527  0.4909
  544MOL0     C73371   3.663   6.400   8.041  0.0411 -0.8712  0.9424
  544MOL0     C73372   3.542   6.351   8.087  1.1044  0.7929 -0.9019
  544MOL0     H73373   3.062   6.377   8.237  0.9522 -0.3794  1.1224
  544MOL0     H73374   2.913   6.317   8.398  1.0279  0.1856  1.4850
  544MOL0     H73375   2.807   6.154   8.715  0.0829 -1.7773  0.1700
  544MOL0     H73376   2.830   6.274   8.583  0.7800 -0.0389 -0.4491
  544MOL0     H73377   2.601   6.182   8.631 -0.6942 -2.0341  0.2699
  544MOL0     H73378   2.669   6.203   8.464  1.2896  2.4505  1.2628
  544MOL0     H73379   2.684   5.956   8.439 -0.8523  0.3236  0.6568
  544MOL0     H73380   2.650   5.940   8.605  2.4576 -1.6771 -1.3449
  544MOL0     H73381   2.413   6.041   8.575  0.2620 -0.4475  0.3097
  544MOL0     H73382   2.436   6.044   8.407  1.0313  1.9344  0.4277
  544MOL0     H73383   2.503   5.812   8.415 -0.8782  0.2215 -0.4263
  544MOL0     H73384   2.464   5.796   8.585 -4.5105  2.2531  2.5715
  544MOL0     H73385   2.238   5.874   8.554  3.1158  1.6304  0.4371
  544MOL0     H73386   2.254   5.859   8.374  0.0581  2.0363  0.8416
  544MOL0     H73387   2.303   5.633   8.391  0.7541 -0.3973  0.5110
  544MOL0     H73388   2.312   5.631   8.563  2.8873  0.2488 -0.8983
  544MOL0     H73389   2.054   5.710   8.565  1.1100  1.6259 -0.5668
  544MOL0     H73390   2.089   5.554   8.484  0.5666 -0.6377 -2.2127
  544MOL0     H73391   2.093   5.552   8.220  0.9401  0.0922  1.6367
  544MOL0     H73392   1.873   5.778   7.971  0.8409 -1.1509 -0.3334
  544MOL0     H73393   2.005   5.659   7.964  1.2017  2.2986 -1.6190
  544MOL0     H73394   1.857   5.474   8.037  0.7341 -0.6034 -0.1746
  544MOL0     H73395   1.803   5.551   7.886 -0.0609  2.3783 -0.6806
  544MOL0     H73396   1.670   5.658   8.143  1.2984  0.3912  0.3045
  544MOL0     H73397   1.622   5.497   8.101 -1.9512  1.7279  0.2810
  544MOL0     H73398   1.616   5.722   7.907 -0.8917 -0.4476 -0.2251
  544MOL0     H73399   1.496   5.706   8.031 -1.0402  1.6100 -1.8276
  544MOL0     H73400   1.410   5.789   7.839 -0.8882  1.0718 -0.8265
  544MOL0     H73401   1.277   5.904   7.551  0.9083 -4.5516 -0.2918
  544MOL0     H73402   1.156   5.919   7.681 -0.5060 -1.6536  0.4450
  544MOL0     H73403   1.331   5.946   7.716  0.9031 -0.7303  0.2353
  544MOL0     H73404   0.716   5.576   7.506 -0.6168 -1.9856  0.0490
  544MOL0     H73405   0.576   5.557   7.308 -0.4566  0.2066  0.4867
  544MOL0     H73406   0.499   5.621   7.103  0.4587  3.0459 -2.2058
  544MOL0     H73407   0.522   5.606   6.928  1.6850  1.6604  0.2571
  544MOL0     H73408   0.504   5.363   6.960  0.6153 -0.0033 -1.0536
  544MOL0     H73409   0.469   5.399   7.140  0.2388  1.3122  0.2245
  544MOL0     H73410   0.288   5.462   6.896  0.6458 -0.6528 -0.7639
  544MOL0     H73411   0.267   5.518   7.076 -0.0550 -1.4192  1.0422
  544MOL0     H73412   0.234   5.244   6.977 -0.0616  0.6911 -0.6644
  544MOL0     H73413   0.229   5.304   7.146 -1.5182 -3.7883  0.2771
  544MOL0     H73414   0.030   5.452   7.095  0.4134  0.1415 -0.3171
  544MOL0     H73415   0.003   5.280   7.087  1.2862 -0.1291  0.5072
  544MOL0     H73416   0.056   5.414   6.831 -1.6998  2.3997  2.2559
  544MOL0     H73417   0.004   5.245   6.850  2.0852 -1.2458  1.5598
  544MOL0     H73418  -0.159   5.463   6.964 -1.5408 -1.8823  2.9846
  544MOL0     H73419  -0.202   5.297   6.920  0.6871 -1.1493 -2.5913
  544MOL0     H73420  -0.155   5.342   6.677 -1.6971 -2.2314  1.1429
  544MOL0     H73421  -0.131   5.514   6.707 -0.3669  0.2040  1.1252
  544MOL0     H73422   0.943   5.545   7.065  1.5156  2.7949  0.7030
  544MOL0     H73423   1.069   5.567   7.282 -0.3160  0.1875  2.7251
  544MOL0     H73424   1.146   5.444   7.630 -0.5751 -0.0921  1.6626
  544MOL0     H73425   1.312   5.382   7.788 -1.9175  0.7212  1.5817
  544MOL0     H73426   3.128   5.960   8.500  0.7205  2.2178  3.5554
  544MOL0     H73427   3.288   6.019   8.329 -1.6758 -0.9993 -0.4693
  544MOL0     H73428   3.340   6.401   7.829  0.7326 -1.7247 -0.5888
  544MOL0     H73429   3.558   6.462   7.722 -1.6544  1.2269  0.2129
  544MOL0     H73430   3.896   6.317   7.784 -0.6932  1.8973  1.8235
  544MOL0     H73431   3.781   6.365   7.671  1.8986  0.4018 -1.6074
  544MOL0     H73432   4.012   6.554   7.756  0.2029 -1.7094 -0.2146
  544MOL0     H73433   3.896   6.574   7.625  0.3054  1.5451 -0.1134
  544MOL0     H73434   3.994   6.348   7.538  0.5597 -1.1575 -0.0880
  544MOL0     H73435   4.101   6.356   7.674 -0.4669  0.4007  0.3193
  544MOL0     H73436   4.230   6.549   7.594  0.8925 -2.1308  0.3511
  544MOL0     H73437   4.119   6.550   7.454 -0.9226 -1.8108 -0.8404
  544MOL0     H73438   4.396   6.229   7.378  1.0218  0.3406 -0.3550
  544MOL0     H73439   3.758   6.402   8.092  0.2192  1.1759  0.6137
  544MOL0     H73440   3.534   6.320   8.190  0.1688  1.7677 -0.6601
  545MOL0     O73441   5.035   5.613   7.549  0.3540  0.9635  0.1304
  545MOL0     C73442   5.064   5.657   7.668  0.3529 -0.0622 -0.9291
  545MOL0     O73443   5.189   5.655   7.728 -0.2521 -0.0451 -0.4139
  545MOL0     C73444   5.291   5.589   7.663  0.9923  1.0047 -0.0997
  545MOL0     C73445   5.296   5.454   7.658  0.8245 -0.0968 -0.0411
  545MOL0     C73446   5.380   5.380   7.582  0.7582  0.0630 -0.2905
  545MOL0     C73447   5.457   5.444   7.489  0.2078  0.2804  0.4983
  545MOL0     O73448   5.533   5.379   7.387  0.0341 -0.3224  0.7308
  545MOL0     C73449   5.598   5.260   7.425  0.5761 -0.4096  0.2673
  545MOL0     C73450   5.748   5.265   7.378  0.3175 -1.4403  1.0882
  545MOL0     C73451   5.819   5.352   7.475 -0.5903 -0.8245 -0.1584
  545MOL0     C73452   5.972   5.363   7.443  0.6048 -1.4834 -0.1826
  545MOL0     C73453   6.056   5.420   7.551 -0.1640  0.3808 -0.6296
  545MOL0     C73454   6.092   5.299   7.652  0.4214 -0.9541 -0.0378
  545MOL0     C73455   6.143   5.356   7.791  0.1253  0.0206  0.8714
  545MOL0     C73456   6.158   5.262   7.911  0.1632 -0.1651  0.0800
  545MOL0     N73457   6.025   5.230   7.973  0.1759  0.9011  0.2310
  545MOL0     C73458   5.957   5.313   8.052  0.7278  0.2265  0.2992
  545MOL0     C73459   5.848   5.239   8.083  0.7658 -0.4500 -0.5163
  545MOL0     C73460   5.738   5.290   8.170 -0.0478  0.7189 -0.9363
  545MOL0     C73461   5.678   5.178   8.255 -0.0800  0.6879  0.6062
  545MOL0     C73462   5.603   5.221   8.379  0.1267 -0.1962  0.8245
  545MOL0     C73463   5.502   5.336   8.358  0.2393 -0.2226  1.1300
  545MOL0     O73464   5.431   5.352   8.479 -0.6371 -0.0957 -0.7451
  545MOL0     C73465   5.303   5.405   8.474  0.1858  0.1241 -0.1716
  545MOL0     C73466   5.262   5.494   8.370 -0.8891  0.1132 -0.0161
  545MOL0     C73467   5.139   5.568   8.380 -0.1863  0.7411  0.0659
  545MOL0     C73468   5.111   5.650   8.257  0.2413 -0.3042 -0.1817
  545MOL0     C73469   5.049   5.547   8.492  0.0029 -0.0183 -0.1419
  545MOL0     C73470   4.908   5.603   8.509  0.2264  0.1242 -0.6160
  545MOL0     O73471   4.844   5.569   8.629 -0.4123  0.1382  0.1182
  545MOL0     C73472   4.727   5.633   8.662  0.1825 -0.5632 -0.2905
  545MOL0     C73473   4.617   5.653   8.570 -0.0442  0.2815 -0.5888
  545MOL0     C73474   4.493   5.712   8.611  0.0275  1.1155 -0.5664
  545MOL0     C73475   4.476   5.752   8.749 -0.2835  1.2696  0.6937
  545MOL0     O73476   4.357   5.802   8.784 -0.1904  0.5722  0.0797
  545MOL0     C73477   4.335   5.872   8.910 -0.4467 -0.1059 -0.2646
  545MOL0     C73478   4.184   5.901   8.930 -0.2294  0.7531 -0.1865
  545MOL0     C73479   4.146   5.984   9.051  0.2651  0.8060  1.0276
  545MOL0     C73480   3.992   5.995   9.070  0.1427  0.5230 -0.5299
  545MOL0     C73481   3.949   6.026   9.210  0.9572 -0.4786 -0.0259
  545MOL0     C73482   3.806   6.063   9.200 -0.1726  0.3540 -0.5294
  545MOL0     C73483   3.748   6.082   9.341 -0.7186  0.7451  0.0825
  545MOL0     C73484   3.599   6.055   9.339 -0.2929 -0.0928 -0.1062
  545MOL0    Cl73485   3.507   6.151   9.217  0.0292 -0.7971  0.0114
  545MOL0     C73486   4.583   5.727   8.836 -0.3119 -0.6304 -0.4708
  545MOL0     C73487   4.706   5.675   8.797  0.2044 -0.0644 -0.1680
  545MOL0     O73488   4.871   5.690   8.435  0.3142  0.5030  0.4402
  545MOL0     C73489   5.088   5.450   8.589 -0.4963  0.3897 -0.8061
  545MOL0     C73490   5.219   5.384   8.583 -0.2374 -0.1735 -0.4145
  545MOL0     N73491   5.843   5.129   7.999  0.0136 -1.1340 -0.4104
  545MOL0     N73492   5.949   5.121   7.938  0.2775 -1.5741 -0.4405
  545MOL0     C73493   5.437   5.579   7.476 -0.2956 -0.9203  0.2354
  545MOL0     C73494   5.368   5.655   7.571  0.3025  0.1658  0.0981
  545MOL0     C73495   4.952   5.694   7.758  0.1940  0.3333 -0.7547
  545MOL0     C73496   4.967   5.706   7.899  0.2528  0.0022 -1.0939
  545MOL0     C73497   4.861   5.743   7.981  0.4128 -0.5086  0.2714
  545MOL0     C73498   4.732   5.757   7.926  0.4532 -0.5757  0.0256
  545MOL0     O73499   4.629   5.804   8.001 -0.0991  0.1393 -0.3810
  545MOL0     C73500   4.658   5.901   8.104  0.7995  0.3337  0.9900
  545MOL0     C73501   4.531   5.967   8.159 -0.5596  0.2216  0.2987
  545MOL0     C73502   4.445   5.892   8.265  0.5098  0.9921  1.4351
  545MOL0     C73503   4.330   5.990   8.312 -0.9450 -0.2614 -0.4975
  545MOL0     C73504   4.261   5.941   8.429  0.0875 -0.4051  0.8173
  545MOL0     C73505   4.201   5.886   8.518  0.0993  0.5337  0.3171
  545MOL0     C73506   4.713   5.723   7.791 -0.3494 -0.4446  0.0632
  545MOL0     C73507   4.828   5.709   7.709  1.3959 -0.8054 -0.6967
  545MOL0     H73508   5.233   5.396   7.725  0.7960 -3.0725 -2.4258
  545MOL0     H73509   5.365   5.273   7.576 -3.0176  0.4258 -0.1528
  545MOL0     H73510   5.600   5.243   7.533  1.9678  0.8147  0.4618
  545MOL0     H73511   5.547   5.175   7.379 -3.5819  1.6145  0.6905
  545MOL0     H73512   5.790   5.164   7.369 -1.8067 -2.4112  1.6115
  545MOL0     H73513   5.762   5.296   7.274  1.6019 -1.7925  1.1318
  545MOL0     H73514   5.778   5.453   7.475  1.4761  0.0645  0.2209
  545MOL0     H73515   5.803   5.304   7.573 -1.4888 -0.1892  0.0168
  545MOL0     H73516   6.003   5.263   7.409 -3.6532 -2.6712 -1.1110
  545MOL0     H73517   5.983   5.442   7.368 -1.9224  1.7534  2.5655
  545MOL0     H73518   6.150   5.456   7.509  1.0883  0.4634  2.0102
  545MOL0     H73519   5.997   5.502   7.592 -2.3944 -0.0142 -2.7947
  545MOL0     H73520   6.010   5.228   7.656  1.3876 -2.1923 -1.3130
  545MOL0     H73521   6.172   5.232   7.620  0.7004 -0.5119 -0.2945
  545MOL0     H73522   6.236   5.406   7.765  0.4069 -1.2189 -0.6373
  545MOL0     H73523   6.081   5.439   7.827  0.4668 -0.6470  3.1542
  545MOL0     H73524   6.224   5.312   7.982  0.9779  0.6849 -1.2282
  545MOL0     H73525   6.212   5.171   7.885  0.3831 -0.1051  0.3284
  545MOL0     H73526   5.974   5.414   8.086  0.1335 -0.0108  1.3379
  545MOL0     H73527   5.785   5.355   8.246  2.6720 -0.6370 -1.3397
  545MOL0     H73528   5.660   5.347   8.118 -0.9790  3.4497  2.9904
  545MOL0     H73529   5.755   5.110   8.294 -0.6520 -0.4105 -0.1301
  545MOL0     H73530   5.611   5.115   8.196  0.3543  0.7328  0.0644
  545MOL0     H73531   5.675   5.248   8.457  1.3573 -0.5450 -0.1548
  545MOL0     H73532   5.538   5.141   8.416 -0.8329  0.0778 -0.2389
  545MOL0     H73533   5.436   5.313   8.274 -0.8594  2.0689  1.2935
  545MOL0     H73534   5.548   5.433   8.336 -1.5689  0.6363  0.9714
  545MOL0     H73535   5.328   5.508   8.284  0.4174  1.0068  1.0968
  545MOL0     H73536   5.096   5.751   8.295 -0.6888 -0.0906 -1.0584
  545MOL0     H73537   5.187   5.647   8.178 -0.9730  0.4552 -1.4282
  545MOL0     H73538   5.019   5.618   8.207 -0.2624  2.0755 -0.8950
  545MOL0     H73539   4.621   5.618   8.468 -0.7179 -3.3543  0.5116
  545MOL0     H73540   4.405   5.720   8.548 -0.4521 -1.3221 -0.3230
  545MOL0     H73541   4.365   5.813   8.998  2.2434  1.5496  0.0332
  545MOL0     H73542   4.402   5.959   8.910 -0.7278  0.1369 -1.8007
  545MOL0     H73543   4.155   5.952   8.837 -1.5517  2.0623  0.8981
  545MOL0     H73544   4.133   5.805   8.922 -1.7433  1.5095 -0.0088
  545MOL0     H73545   4.193   6.082   9.036  2.7576 -0.5810 -1.0832
  545MOL0     H73546   4.197   5.933   9.134  1.1399 -0.4006 -0.2070
  545MOL0     H73547   3.953   6.070   9.001 -0.9357 -1.6063 -2.3849
  545MOL0     H73548   3.948   5.896   9.052 -2.2897  1.7065 -1.6508
  545MOL0     H73549   4.008   6.110   9.248 -0.9167  0.4956  0.8695
  545MOL0     H73550   3.963   5.945   9.282 -2.7497 -0.1460  1.3068
  545MOL0     H73551   3.801   6.155   9.141  2.1954  1.2956  0.5946
  545MOL0     H73552   3.751   5.984   9.149 -0.4576 -0.7732  1.4261
  545MOL0     H73553   3.766   6.185   9.373  0.5226  1.0184 -1.3476
  545MOL0     H73554   3.789   6.011   9.413 -0.9713  2.4850  2.0306
  545MOL0     H73555   3.560   6.069   9.441  0.2068  1.1095 -0.0664
  545MOL0     H73556   3.590   5.947   9.319  1.3844  0.1508 -2.6592
  545MOL0     H73557   4.573   5.755   8.940 -1.6264  1.6487 -1.1311
  545MOL0     H73558   4.787   5.658   8.867 -0.1576 -0.9126  0.0619
  545MOL0     H73559   5.040   5.427   8.684 -2.9812  0.5953 -1.9493
  545MOL0     H73560   5.250   5.316   8.661  1.0238  0.0072 -0.7402
  545MOL0     H73561   5.484   5.626   7.390 -2.3780  2.3167  0.6804
  545MOL0     H73562   5.354   5.763   7.573  0.6920  0.2209 -0.0714
  545MOL0     H73563   5.058   5.710   7.957  0.8481  2.4872 -2.0822
  545MOL0     H73564   4.896   5.775   8.079  2.1770  0.3962 -0.5995
  545MOL0     H73565   4.718   5.870   8.191  1.2166 -1.5214  0.0726
  545MOL0     H73566   4.695   5.982   8.041 -1.0888 -1.2677 -2.4690
  545MOL0     H73567   4.468   5.983   8.071 -1.5654 -1.2411  0.6950
  545MOL0     H73568   4.562   6.062   8.201 -2.0661  1.0628 -0.3799
  545MOL0     H73569   4.501   5.852   8.350  1.0887 -0.3627  0.4612
  545MOL0     H73570   4.393   5.808   8.219 -0.8692  0.8536  3.1674
  545MOL0     H73571   4.258   6.007   8.231 -0.3357  1.9256 -0.6418
  545MOL0     H73572   4.368   6.090   8.333 -2.5987  0.5711 -1.2787
  545MOL0     H73573   4.144   5.840   8.597  1.8554 -2.2118  0.1140
  545MOL0     H73574   4.608   5.721   7.766 -0.6381  1.7217  0.8848
  545MOL0     H73575   4.801   5.704   7.603  2.4194  3.5952 -1.3604
  546MOL0     O73576   9.484   8.407   5.587 -0.7931 -0.6542  0.3811
  546MOL0     C73577   9.448   8.375   5.700 -0.2957 -0.2138  0.3573
  546MOL0     O73578   9.540   8.337   5.793 -0.2847 -0.5009  0.5047
  546MOL0     C73579   9.679   8.341   5.774  0.2917 -0.0001 -0.2470
  546MOL0     C73580   9.743   8.350   5.897 -0.5553  0.0684  0.5861
  546MOL0     C73581   9.887   8.327   5.907  0.2158 -0.1585  0.7145
  546MOL0     C73582   9.958   8.291   5.791  0.3880  0.6343  0.0787
  546MOL0     O73583  10.086   8.242   5.798  0.5441  0.2780  0.2706
  546MOL0     C73584  10.193   8.320   5.745  0.0878 -0.1435  0.0064
  546MOL0     C73585  10.281   8.359   5.866 -0.0083  0.0236  0.8879
  546MOL0     C73586  10.405   8.440   5.824  0.8414  0.4475  0.4130
  546MOL0     C73587  10.522   8.432   5.928  0.4195 -0.3330  0.6501
  546MOL0     C73588  10.608   8.312   5.920  0.0616  0.0698 -0.0567
  546MOL0     C73589  10.710   8.316   6.035 -0.3289 -0.3925  0.1730
  546MOL0     C73590  10.831   8.236   6.003 -0.3057 -0.3227 -0.1077
  546MOL0     C73591  10.924   8.253   6.120  0.4866  0.1202 -1.2141
  546MOL0     N73592  11.063   8.205   6.080  0.4108 -0.5781 -0.3282
  546MOL0     C73593  11.125   8.261   5.969 -0.6640  0.0718  0.0912
  546MOL0     C73594  11.248   8.209   5.970  0.7847 -0.4587  0.2766
  546MOL0     C73595  11.352   8.237   5.871 -0.9541 -0.3925  0.5468
  546MOL0     C73596  11.304   8.234   5.726 -0.7840 -0.5250  0.1859
  546MOL0     C73597  11.416   8.299   5.639  0.3414  0.2664  0.1039
  546MOL0     C73598  11.396   8.296   5.488 -0.1270  0.4138 -0.2121
  546MOL0     O73599  11.288   8.384   5.465  0.0842  0.1796  0.1863
  546MOL0     C73600  11.204   8.359   5.362  0.1788  0.2809  0.2183
  546MOL0     C73601  11.079   8.429   5.373  1.1514  0.4492 -0.1755
  546MOL0     C73602  10.973   8.397   5.280  0.7790  0.2932  0.5540
  546MOL0     C73603  10.841   8.471   5.304 -0.1379  0.3154  1.0241
  546MOL0     C73604  10.989   8.298   5.178 -0.5425 -0.0663 -0.3100
  546MOL0     C73605  10.897   8.270   5.067 -0.6005  0.9728 -0.6017
  546MOL0     O73606  10.902   8.139   5.008  0.0308 -0.4739 -0.4858
  546MOL0     C73607  10.794   8.108   4.926  0.6509 -0.7013 -0.6701
  546MOL0     C73608  10.689   8.037   4.984 -0.2630  0.4540 -0.1487
  546MOL0     C73609  10.568   8.007   4.913  0.3423  0.2920 -0.5449
  546MOL0     C73610  10.546   8.067   4.786 -0.4892 -0.2933  0.5047
  546MOL0     O73611  10.435   8.054   4.706  0.4156 -0.1571  0.3819
  546MOL0     C73612  10.435   7.928   4.642  0.2836 -0.4756 -0.3192
  546MOL0     C73613  10.349   7.827   4.724 -0.1086 -0.3342 -0.1314
  546MOL0     C73614  10.206   7.811   4.677  0.3947 -0.0135 -0.0526
  546MOL0     C73615  10.111   7.748   4.778  0.1327  0.2085  0.0043
  546MOL0     C73616   9.967   7.748   4.724  0.5722 -0.1539  0.3505
  546MOL0     C73617   9.852   7.710   4.823  0.0387 -0.5690 -0.1533
  546MOL0     C73618   9.716   7.725   4.758 -0.7138  0.2693  0.2774
  546MOL0     C73619   9.614   7.693   4.865  1.0314 -0.4664  0.1604
  546MOL0    Cl73620   9.465   7.786   4.838  0.1421  0.2721  0.1228
  546MOL0     C73621  10.649   8.139   4.725  0.3738  0.6825 -0.3952
  546MOL0     C73622  10.772   8.156   4.796  0.2931 -0.9050  0.8076
  546MOL0     O73623  10.816   8.353   5.040 -0.5223 -0.1057 -0.3285
  546MOL0     C73624  11.114   8.230   5.180  0.5761 -0.0618  1.2385
  546MOL0     C73625  11.218   8.267   5.264 -0.3074  0.1182  0.0932
  546MOL0     N73626  11.248   8.101   6.059  0.3176 -0.7090 -0.6343
  546MOL0     N73627  11.134   8.097   6.128  0.5906 -0.2333  0.3200
  546MOL0     C73628   9.890   8.303   5.667 -0.7429 -1.0465  0.0805
  546MOL0     C73629   9.754   8.331   5.656  0.7879  0.0068 -0.2201
  546MOL0     C73630   9.310   8.393   5.740  0.0355  0.2214 -0.4916
  546MOL0     C73631   9.219   8.459   5.662  0.2129  0.0203  0.0875
  546MOL0     C73632   9.084   8.468   5.707 -0.1692  0.7400  0.2888
  546MOL0     C73633   9.038   8.408   5.825  0.2425  1.1901  0.0333
  546MOL0     O73634   8.904   8.409   5.831 -0.2587  0.3724 -0.6234
  546MOL0     C73635   8.845   8.395   5.961 -0.3701  0.3078 -1.4344
  546MOL0     C73636   8.719   8.477   5.965  0.0960 -0.0927 -0.0342
  546MOL0     C73637   8.679   8.518   6.107  0.1106 -0.6480 -0.1100
  546MOL0     C73638   8.551   8.607   6.087 -0.1445 -0.4724 -0.0196
  546MOL0     C73639   8.492   8.676   6.206 -0.5603  0.1323 -0.2144
  546MOL0     C73640   8.466   8.724   6.313 -0.2614 -0.3809 -0.4722
  546MOL0     C73641   9.130   8.345   5.907 -0.4544 -0.0882  1.0225
  546MOL0     C73642   9.266   8.349   5.866 -0.2369  0.8765 -0.4074
  546MOL0     H73643   9.686   8.371   5.987 -0.4337  1.6077  0.3273
  546MOL0     H73644   9.937   8.345   6.002 -1.3236  0.4528  1.4529
  546MOL0     H73645  10.252   8.257   5.678 -2.1621 -0.3912 -1.8328
  546MOL0     H73646  10.163   8.404   5.682  0.1060  0.9354  1.3904
  546MOL0     H73647  10.231   8.422   5.940 -2.2330 -1.0061  0.3659
  546MOL0     H73648  10.307   8.263   5.910  1.6255  1.1153  2.3908
  546MOL0     H73649  10.443   8.407   5.727 -2.2235  0.4518 -0.8978
  546MOL0     H73650  10.379   8.546   5.816 -0.2800  0.4169  2.6944
  546MOL0     H73651  10.586   8.520   5.915 -0.4868  0.2767  0.1821
  546MOL0     H73652  10.479   8.435   6.028 -2.4965  2.7403 -0.4872
  546MOL0     H73653  10.547   8.222   5.931  1.5212 -0.6806  2.9379
  546MOL0     H73654  10.652   8.306   5.820 -0.1679 -5.9367 -0.1699
  546MOL0     H73655  10.735   8.421   6.053  1.3027 -0.5104 -1.1595
  546MOL0     H73656  10.657   8.271   6.119 -1.4708 -0.4647 -0.5640
  546MOL0     H73657  10.807   8.130   5.991 -4.1065  0.5720 -1.8968
  546MOL0     H73658  10.869   8.275   5.908 -0.9237 -0.7949 -0.5538
  546MOL0     H73659  10.878   8.200   6.205 -2.2873  1.6280 -1.6566
  546MOL0     H73660  10.931   8.359   6.144 -0.7092 -0.3086  1.4376
  546MOL0     H73661  11.094   8.341   5.903 -0.1482 -0.5610 -0.9564
  546MOL0     H73662  11.410   8.325   5.900 -2.6217  1.1345 -0.5288
  546MOL0     H73663  11.426   8.157   5.868 -0.8042 -0.2485  0.3410
  546MOL0     H73664  11.214   8.293   5.706  0.8893  1.6125 -1.6364
  546MOL0     H73665  11.276   8.133   5.697 -4.3124  0.4886 -0.3872
  546MOL0     H73666  11.508   8.245   5.664  1.6395  1.7423 -1.3048
  546MOL0     H73667  11.429   8.404   5.666 -1.9014  0.0114  2.6357
  546MOL0     H73668  11.382   8.189   5.467  2.4656  0.5891 -3.7618
  546MOL0     H73669  11.490   8.338   5.451  1.8065 -1.6887  1.9130
  546MOL0     H73670  11.061   8.503   5.451  1.8750 -0.7332  1.1721
  546MOL0     H73671  10.817   8.530   5.215  1.9464 -2.9950 -1.9668
  546MOL0     H73672  10.753   8.408   5.321  3.0504 -5.5525 -1.4818
  546MOL0     H73673  10.844   8.548   5.382 -1.1119  2.4638 -0.9476
  546MOL0     H73674  10.692   8.005   5.088 -0.8665 -0.3623 -0.3668
  546MOL0     H73675  10.499   7.941   4.965  0.9086  0.6912  0.7532
  546MOL0     H73676  10.388   7.933   4.543 -1.8922 -1.8936  0.5926
  546MOL0     H73677  10.534   7.882   4.632  1.3192  0.8805  2.5372
  546MOL0     H73678  10.393   7.728   4.703 -3.1039 -1.6206 -0.8797
  546MOL0     H73679  10.350   7.841   4.832 -1.2928 -0.4588 -0.0879
  546MOL0     H73680  10.206   7.750   4.586 -0.1445  0.6871 -0.5287
  546MOL0     H73681  10.171   7.913   4.660 -1.4532 -0.9519 -2.2618
  546MOL0     H73682  10.137   7.641   4.778 -4.0502 -1.0054  1.9493
  546MOL0     H73683  10.122   7.785   4.880  2.0650  1.0851 -0.4638
  546MOL0     H73684   9.960   7.695   4.628  1.5028  2.0078 -0.9853
  546MOL0     H73685   9.940   7.849   4.692 -0.5252 -0.4821  0.1861
  546MOL0     H73686   9.871   7.603   4.836 -1.8762 -0.9540 -0.2204
  546MOL0     H73687   9.857   7.763   4.918  1.9535  1.7906 -1.4580
  546MOL0     H73688   9.701   7.651   4.678 -2.0745 -0.8733  1.5286
  546MOL0     H73689   9.702   7.819   4.705 -1.1998 -0.7414 -1.4967
  546MOL0     H73690   9.648   7.717   4.966  1.5611 -1.8732  0.3336
  546MOL0     H73691   9.592   7.586   4.877 -2.3076 -0.0571 -1.2709
  546MOL0     H73692  10.647   8.190   4.630  0.2138  0.3452 -0.5742
  546MOL0     H73693  10.847   8.214   4.743 -1.5032 -0.8793 -1.9198
  546MOL0     H73694  11.139   8.151   5.110 -1.7476  0.9052 -0.7971
  546MOL0     H73695  11.314   8.217   5.260  0.0007  0.7322 -0.3893
  546MOL0     H73696   9.936   8.271   5.574 -1.1048 -1.4102  0.0257
  546MOL0     H73697   9.713   8.330   5.555 -0.0314  3.3796 -0.0278
  546MOL0     H73698   9.240   8.489   5.560  2.2384  1.2413  0.8131
  546MOL0     H73699   9.013   8.526   5.650  0.0687  3.3536  2.4181
  546MOL0     H73700   8.812   8.292   5.976  1.6183 -0.4452 -2.0441
  546MOL0     H73701   8.919   8.417   6.039 -0.3455  0.2927 -1.4544
  546MOL0     H73702   8.639   8.423   5.913  2.1776 -1.5611 -1.9089
  546MOL0     H73703   8.747   8.561   5.901 -0.2843  0.0065 -0.0731
  546MOL0     H73704   8.761   8.575   6.151 -0.4199  1.5310 -1.8139
  546MOL0     H73705   8.656   8.430   6.168 -1.1584 -0.4402 -0.2556
  546MOL0     H73706   8.463   8.549   6.058 -0.7705  0.4375  0.0239
  546MOL0     H73707   8.572   8.684   6.012 -0.0049  0.0819  0.5800
  546MOL0     H73708   8.458   8.761   6.413 -0.3747 -1.8622  0.0902
  546MOL0     H73709   9.089   8.293   5.993 -0.5853 -0.3023  0.8332
  546MOL0     H73710   9.340   8.303   5.930 -1.6432 -0.6250  0.1962
  547MOL0     O73711   5.829   3.541   2.548 -0.4935 -0.4989 -0.2809
  547MOL0     C73712   5.849   3.480   2.444  0.3805 -0.7997  0.0575
  547MOL0     O73713   5.779   3.373   2.404 -0.1153  0.1180 -1.0547
  547MOL0     C73714   5.649   3.354   2.464 -0.4802  0.7758  0.1929
  547MOL0     C73715   5.615   3.222   2.475  0.4846 -0.6730 -0.5782
  547MOL0     C73716   5.485   3.181   2.502 -0.6595 -0.0888 -0.0763
  547MOL0     C73717   5.391   3.285   2.523  0.4915  0.3756  0.4020
  547MOL0     O73718   5.265   3.249   2.577  0.2137  0.1965  0.2148
  547MOL0     C73719   5.169   3.347   2.607  0.7023 -0.5165  0.8581
  547MOL0     C73720   5.028   3.289   2.634 -0.8182  0.0270 -0.7301
  547MOL0     C73721   5.017   3.209   2.765 -0.0782  0.6915  0.2811
  547MOL0     C73722   4.875   3.164   2.788  0.7262  0.1382  0.4208
  547MOL0     C73723   4.861   3.096   2.925 -1.0872  0.3841  0.0785
  547MOL0     C73724   4.721   3.041   2.945 -0.1641 -0.5363 -0.5082
  547MOL0     C73725   4.706   2.967   3.073  0.5536 -0.4683 -0.6853
  547MOL0     C73726   4.561   2.936   3.107 -0.7120 -0.9002 -0.5315
  547MOL0     N73727   4.487   2.858   3.012 -0.7440  0.4743  0.7873
  547MOL0     C73728   4.513   2.726   2.972  0.3286  0.5827  0.4892
  547MOL0     C73729   4.419   2.699   2.875  0.9155 -0.3112 -0.1524
  547MOL0     C73730   4.422   2.573   2.806  0.8915 -0.4908 -0.1903
  547MOL0     C73731   4.425   2.586   2.651  0.8848 -0.2394 -0.2842
  547MOL0     C73732   4.447   2.446   2.588  0.0464 -0.1972  0.2322
  547MOL0     C73733   4.402   2.454   2.436 -0.9229 -0.5116 -0.0816
  547MOL0     O73734   4.391   2.329   2.374 -0.1048 -0.2268  0.5596
  547MOL0     C73735   4.273   2.258   2.371  0.2087 -0.8413 -0.4083
  547MOL0     C73736   4.250   2.155   2.272 -0.4438 -0.1931  0.2849
  547MOL0     C73737   4.134   2.085   2.277  0.0364 -0.0819 -0.3226
  547MOL0     C73738   4.110   1.974   2.171  0.2235 -0.2453 -0.8077
  547MOL0     C73739   4.040   2.101   2.384 -0.3785 -0.0826 -0.7306
  547MOL0     C73740   3.921   2.022   2.408  0.0197 -0.9445 -0.0613
  547MOL0     O73741   3.808   2.097   2.414 -0.0974  0.5187 -0.0871
  547MOL0     C73742   3.681   2.043   2.399  0.0559  0.4396 -0.3114
  547MOL0     C73743   3.617   1.969   2.503 -0.0820 -0.3563  0.1149
  547MOL0     C73744   3.492   1.915   2.483  0.6617  0.5847  0.0884
  547MOL0     C73745   3.427   1.930   2.359  0.4422 -0.2783 -0.0561
  547MOL0     O73746   3.331   1.836   2.320  0.2321  0.2705  0.1371
  547MOL0     C73747   3.224   1.821   2.407 -0.2783 -0.0898 -0.0400
  547MOL0     C73748   3.126   1.927   2.373 -0.1667  0.5630 -0.0185
  547MOL0     C73749   2.987   1.888   2.428  0.2257 -0.3987  0.0337
  547MOL0     C73750   2.877   1.993   2.383 -0.6912 -0.0407 -0.1793
  547MOL0     C73751   2.841   2.011   2.225 -0.5067  0.5275 -0.9213
  547MOL0     C73752   2.724   2.103   2.216  0.2153 -0.3233  0.5346
  547MOL0     C73753   2.734   2.242   2.291  1.3739  0.4553  0.7397
  547MOL0     C73754   2.606   2.319   2.264 -0.6040  0.5238 -0.4576
  547MOL0    Cl73755   2.455   2.237   2.293 -0.1384  0.0910 -0.2871
  547MOL0     C73756   3.488   2.003   2.255 -0.3853  0.8467 -0.0549
  547MOL0     C73757   3.619   2.053   2.282 -0.2195  0.1555  0.8370
  547MOL0     O73758   3.928   1.906   2.429 -0.4109 -0.1843 -0.2148
  547MOL0     C73759   4.074   2.190   2.488 -0.4898 -0.2368 -0.7581
  547MOL0     C73760   4.184   2.277   2.480 -0.9700 -0.2639 -0.1171
  547MOL0     N73761   4.333   2.807   2.862 -0.3127 -0.1284  0.0616
  547MOL0     N73762   4.372   2.897   2.953  0.0092  0.9815  0.8915
  547MOL0     C73763   5.427   3.419   2.514  0.1752  0.3431  0.0900
  547MOL0     C73764   5.554   3.454   2.479 -0.2051  0.0030  0.6043
  547MOL0     C73765   5.953   3.530   2.348 -0.0414 -0.0012 -0.3703
  547MOL0     C73766   5.976   3.464   2.232 -1.2046 -0.8307 -0.4715
  547MOL0     C73767   6.084   3.497   2.149 -0.3329  0.2185  0.1079
  547MOL0     C73768   6.173   3.588   2.191 -0.4863 -0.8982  0.2387
  547MOL0     O73769   6.249   3.647   2.092  0.2785  0.0829  0.6174
  547MOL0     C73770   6.375   3.697   2.126 -0.1302 -0.3955 -0.0803
  547MOL0     C73771   6.461   3.721   2.002 -0.6043  0.0665  0.2550
  547MOL0     C73772   6.466   3.603   1.910  0.7666  0.5509  1.0674
  547MOL0     C73773   6.518   3.638   1.763 -0.2473 -0.0292  0.5544
  547MOL0     C73774   6.659   3.677   1.757  0.0742 -0.0535 -0.4294
  547MOL0     C73775   6.770   3.703   1.751  0.4839 -0.2727  0.5348
  547MOL0     C73776   6.153   3.655   2.313 -0.1833  0.7043  0.5871
  547MOL0     C73777   6.043   3.623   2.387 -0.7706 -0.0708 -0.8192
  547MOL0     H73778   5.691   3.145   2.477 -0.2882 -1.4430 -0.1477
  547MOL0     H73779   5.450   3.079   2.513 -1.8565  0.5599  3.3940
  547MOL0     H73780   5.190   3.405   2.697 -3.0676 -1.8626  2.8484
  547MOL0     H73781   5.153   3.417   2.525  0.2513 -0.7448  0.7449
  547MOL0     H73782   4.952   3.368   2.629 -0.5446  0.3361 -0.1283
  547MOL0     H73783   5.007   3.212   2.559  0.3802 -1.0629  0.0093
  547MOL0     H73784   5.079   3.120   2.752  1.3123  1.7528 -0.5770
  547MOL0     H73785   5.048   3.267   2.852  0.7621  3.4358 -1.7100
  547MOL0     H73786   4.814   3.255   2.793  0.3713  0.2245 -3.0139
  547MOL0     H73787   4.837   3.101   2.706  0.4274  0.4225  0.3378
  547MOL0     H73788   4.942   3.028   2.953  0.2281  2.0473  0.5788
  547MOL0     H73789   4.874   3.174   3.002 -1.8658  2.1281 -1.4825
  547MOL0     H73790   4.635   3.108   2.933 -1.9371 -2.5837  0.3067
  547MOL0     H73791   4.721   2.966   2.866 -0.3085 -0.5168 -0.5264
  547MOL0     H73792   4.770   2.878   3.078  1.5962  0.3081  2.2796
  547MOL0     H73793   4.743   3.036   3.150 -1.4629 -1.4142  1.2422
  547MOL0     H73794   4.517   3.034   3.130 -0.7704 -1.4951  2.3336
  547MOL0     H73795   4.557   2.876   3.198 -1.5293  1.7662  1.3223
  547MOL0     H73796   4.571   2.646   3.017 -2.2291 -3.4025 -2.5769
  547MOL0     H73797   4.517   2.523   2.826 -0.0747 -1.5253  2.1658
  547MOL0     H73798   4.338   2.514   2.844  0.4532 -1.9283 -3.0762
  547MOL0     H73799   4.504   2.650   2.612  0.8158  1.2679  1.8822
  547MOL0     H73800   4.327   2.622   2.620  1.5257  1.6410 -0.2041
  547MOL0     H73801   4.391   2.373   2.648  1.9933 -2.2322 -0.3114
  547MOL0     H73802   4.550   2.409   2.590 -0.3286 -1.3246 -0.3224
  547MOL0     H73803   4.480   2.509   2.382 -0.3053 -1.9270 -0.6997
  547MOL0     H73804   4.314   2.518   2.427 -0.9387 -0.4746  0.3438
  547MOL0     H73805   4.328   2.127   2.202 -0.3276  0.8888 -0.0346
  547MOL0     H73806   4.150   1.881   2.212 -3.2052 -0.7218  1.9696
  547MOL0     H73807   4.007   1.964   2.136 -0.8276  0.8228  1.6826
  547MOL0     H73808   4.163   2.000   2.079 -0.1533  0.9560 -0.7054
  547MOL0     H73809   3.669   1.956   2.598 -0.9971  4.0705  1.4758
  547MOL0     H73810   3.451   1.848   2.557  1.0729 -1.4303 -1.4160
  547MOL0     H73811   3.196   1.717   2.388  2.9289 -0.7159 -2.1182
  547MOL0     H73812   3.245   1.825   2.514  0.5767  1.2215 -0.2359
  547MOL0     H73813   3.156   2.020   2.423  1.4325 -0.9506  2.0579
  547MOL0     H73814   3.124   1.943   2.265 -1.0812 -0.8421 -0.2373
  547MOL0     H73815   2.998   1.876   2.537 -0.1915 -1.4665 -0.0311
  547MOL0     H73816   2.952   1.796   2.380  0.5861  0.0313 -1.0848
  547MOL0     H73817   2.786   1.962   2.435 -1.5505  1.1682 -0.9187
  547MOL0     H73818   2.903   2.093   2.419 -2.0286  0.8302 -1.5149
  547MOL0     H73819   2.824   1.916   2.174 -1.3664  0.5509 -0.6895
  547MOL0     H73820   2.930   2.062   2.186 -0.7880  2.7259  1.0430
  547MOL0     H73821   2.697   2.118   2.111 -0.9800  3.5726  1.2033
  547MOL0     H73822   2.638   2.049   2.257 -1.1735 -0.1736 -1.9778
  547MOL0     H73823   2.822   2.299   2.259  1.4680  1.5495  2.7988
  547MOL0     H73824   2.752   2.224   2.397  1.3770 -0.4693  0.5966
  547MOL0     H73825   2.602   2.341   2.157  0.8612 -1.5606 -1.0005
  547MOL0     H73826   2.615   2.414   2.318 -0.7806  0.8289 -0.9651
  547MOL0     H73827   3.444   2.002   2.155  0.8995  1.5186 -0.6567
  547MOL0     H73828   3.673   2.103   2.202 -1.5800  0.7277  0.2390
  547MOL0     H73829   4.005   2.217   2.567  0.4297 -0.5522  0.1659
  547MOL0     H73830   4.198   2.350   2.560 -0.0986  2.4110 -2.5574
  547MOL0     H73831   5.357   3.502   2.520  1.3566  1.5603 -1.7340
  547MOL0     H73832   5.574   3.557   2.453 -2.1995 -0.2095 -2.1779
  547MOL0     H73833   5.911   3.385   2.194  0.0067 -1.5652 -1.0883
  547MOL0     H73834   6.097   3.440   2.057 -1.2160  3.6325 -2.3598
  547MOL0     H73835   6.373   3.793   2.179  1.4754  0.1274 -0.9053
  547MOL0     H73836   6.433   3.636   2.196  1.1256 -0.6653 -1.3091
  547MOL0     H73837   6.566   3.743   2.025 -0.4774  0.3031 -0.5169
  547MOL0     H73838   6.409   3.805   1.955 -0.5669  0.2526  0.5395
  547MOL0     H73839   6.365   3.571   1.882 -0.3242  4.4336 -0.0399
  547MOL0     H73840   6.517   3.516   1.952 -2.3006 -1.6940  0.5531
  547MOL0     H73841   6.450   3.714   1.723  0.7279  0.4297 -0.2686
  547MOL0     H73842   6.497   3.551   1.699 -0.3013 -0.5548  1.2754
  547MOL0     H73843   6.874   3.725   1.737  0.8576  2.7531  5.5885
  547MOL0     H73844   6.206   3.740   2.353 -0.1907 -0.3218  2.9237
  547MOL0     H73845   6.036   3.694   2.468 -0.8645  1.5845 -2.2162
  548MOL0     O73846  10.524  10.732   1.422 -0.5587  0.8259 -0.0216
  548MOL0     C73847  10.577  10.791   1.518  0.3877  0.3362 -0.2103
  548MOL0     O73848  10.507  10.858   1.620 -0.1391 -0.5483 -0.1243
  548MOL0     C73849  10.366  10.856   1.602  0.6882  0.4803 -0.1945
  548MOL0     C73850  10.319  10.961   1.524  0.5061  0.4344 -0.0008
  548MOL0     C73851  10.181  10.983   1.517 -1.0039  0.7171  0.8380
  548MOL0     C73852  10.089  10.897   1.593 -0.0879 -0.7165 -0.3671
  548MOL0     O73853   9.950  10.913   1.568 -0.1010  0.4076 -0.5346
  548MOL0     C73854   9.864  10.864   1.665 -0.9845  0.5342 -0.3750
  548MOL0     C73855   9.717  10.918   1.659 -0.4103 -0.2102  0.1800
  548MOL0     C73856   9.611  10.838   1.738  0.3237  0.0725 -1.1456
  548MOL0     C73857   9.465  10.896   1.719 -0.7096 -0.1571  0.7424
  548MOL0     C73858   9.363  10.780   1.755 -1.0288 -0.1435  0.0315
  548MOL0     C73859   9.216  10.821   1.729 -0.1324  0.7622  1.2324
  548MOL0     C73860   9.121  10.753   1.822 -0.1557  0.7199 -1.0960
  548MOL0     C73861   9.072  10.632   1.742 -0.1447 -0.1331  0.0449
  548MOL0     N73862   8.968  10.573   1.834 -0.2709 -0.0738  0.0178
  548MOL0     C73863   8.959  10.554   1.973 -1.0263  0.3658 -0.1949
  548MOL0     C73864   8.848  10.479   1.984 -1.0120  0.8590 -0.5261
  548MOL0     C73865   8.797  10.411   2.103  0.0360  0.3291 -0.5754
  548MOL0     C73866   8.645  10.392   2.099 -0.3793  0.2929  0.0439
  548MOL0     C73867   8.589  10.367   2.232 -1.6220  0.1268  0.5565
  548MOL0     C73868   8.440  10.383   2.225 -0.2547  0.0767 -0.4011
  548MOL0     O73869   8.399  10.403   2.361 -0.3795 -0.2070 -0.2994
  548MOL0     C73870   8.281  10.362   2.409 -0.2314  0.6256 -0.2286
  548MOL0     C73871   8.279  10.367   2.550 -0.0732 -0.1727 -0.3710
  548MOL0     C73872   8.160  10.345   2.616  0.0018  1.1337  0.0768
  548MOL0     C73873   8.156  10.353   2.768 -0.8624  0.4250  0.2403
  548MOL0     C73874   8.042  10.321   2.545  0.4672  0.1086  0.2983
  548MOL0     C73875   7.914  10.329   2.604 -0.3108  0.0005 -0.4904
  548MOL0     O73876   7.821  10.231   2.558  0.0883 -0.4029  0.1239
  548MOL0     C73877   7.687  10.261   2.570  0.2540  0.1916  0.5283
  548MOL0     C73878   7.632  10.366   2.497 -0.3073 -0.0954 -0.2708
  548MOL0     C73879   7.494  10.400   2.517  0.3072  0.9986 -0.0678
  548MOL0     C73880   7.406  10.335   2.599 -0.2098 -0.2641  0.0068
  548MOL0     O73881   7.273  10.372   2.608  0.3961 -0.1560 -0.2208
  548MOL0     C73882   7.176  10.273   2.589  0.2767 -0.2178  0.2291
  548MOL0     C73883   7.070  10.343   2.497 -0.3183 -0.5149 -1.1734
  548MOL0     C73884   6.958  10.246   2.460  1.1295  0.0661  0.0368
  548MOL0     C73885   6.868  10.299   2.344  0.2250 -0.4372 -0.8720
  548MOL0     C73886   6.753  10.202   2.324  0.1942 -0.4251 -0.0902
  548MOL0     C73887   6.645  10.236   2.218 -0.4201 -0.7266  0.7271
  548MOL0     C73888   6.540  10.354   2.263 -0.5515  0.1737  0.0773
  548MOL0     C73889   6.425  10.368   2.168  0.4509 -0.0550  0.9415
  548MOL0    Cl73890   6.340  10.530   2.169 -0.1140  0.2466 -0.5070
  548MOL0     C73891   7.462  10.221   2.654 -0.5436  0.5109 -0.1761
  548MOL0     C73892   7.602  10.185   2.650 -0.5447 -0.7939  0.0048
  548MOL0     O73893   7.878  10.428   2.671  0.2719 -0.4434 -0.1401
  548MOL0     C73894   8.047  10.297   2.404 -0.0038 -0.6255 -0.4030
  548MOL0     C73895   8.166  10.327   2.337  0.0822  1.2347  0.2353
  548MOL0     N73896   8.789  10.459   1.862  0.1855  0.4497  0.3890
  548MOL0     N73897   8.863  10.515   1.777  0.7201 -0.1764  0.6947
  548MOL0     C73898  10.140  10.784   1.669 -0.2313 -0.3749  0.4637
  548MOL0     C73899  10.274  10.771   1.674 -0.3618  0.0567 -0.2767
  548MOL0     C73900  10.728  10.801   1.523  0.4861 -0.4465 -0.2363
  548MOL0     C73901  10.805  10.733   1.422 -1.0998  0.4577  0.1709
  548MOL0     C73902  10.945  10.736   1.433 -0.2575  0.0864  1.0791
  548MOL0     C73903  11.011  10.791   1.540  0.2454 -0.3560  0.0738
  548MOL0     O73904  11.150  10.783   1.550  0.3485  0.2211 -0.0474
  548MOL0     C73905  11.214  10.808   1.672  0.2857  0.3005  0.0710
  548MOL0     C73906  11.365  10.765   1.679  0.2157 -0.8344  0.7487
  548MOL0     C73907  11.417  10.664   1.567  0.0142 -0.4036  0.9930
  548MOL0     C73908  11.556  10.617   1.601  1.2673 -1.0345 -0.4238
  548MOL0     C73909  11.558  10.527   1.726 -0.0650 -0.0122  1.6230
  548MOL0     C73910  11.584  10.463   1.829 -1.0643  0.0657  0.7691
  548MOL0     C73911  10.937  10.842   1.644 -0.1236  0.0822 -0.0958
  548MOL0     C73912  10.799  10.858   1.633  0.0664  0.5133 -0.2753
  548MOL0     H73913  10.385  11.033   1.476  0.2831  1.4078  1.1016
  548MOL0     H73914  10.143  11.067   1.461  2.1405  1.0936 -0.9802
  548MOL0     H73915   9.849  10.759   1.635  2.1924  0.0152 -0.4256
  548MOL0     H73916   9.897  10.883   1.768 -1.6783  0.8942 -0.2112
  548MOL0     H73917   9.719  11.020   1.698  2.1309  0.9019 -2.5124
  548MOL0     H73918   9.682  10.924   1.556  0.0290 -0.5552  0.0062
  548MOL0     H73919   9.620  10.739   1.693  2.6497  0.6147 -2.0438
  548MOL0     H73920   9.635  10.840   1.845 -1.4156 -0.1640 -0.7226
  548MOL0     H73921   9.452  10.989   1.774  2.0497  0.9316 -0.3157
  548MOL0     H73922   9.448  10.915   1.613  0.0094 -2.2964  0.1925
  548MOL0     H73923   9.384  10.695   1.689  0.3005  1.4787 -1.7306
  548MOL0     H73924   9.369  10.751   1.860  3.3439 -3.0926 -0.7639
  548MOL0     H73925   9.205  10.930   1.738 -0.4866  1.0186 -1.4331
  548MOL0     H73926   9.191  10.810   1.623  0.0471 -0.1192  1.2822
  548MOL0     H73927   9.174  10.720   1.912 -0.4253  2.0929 -0.4147
  548MOL0     H73928   9.036  10.818   1.843  0.1665  1.0424 -0.7519
  548MOL0     H73929   9.158  10.566   1.727  1.8566  2.2924  0.2109
  548MOL0     H73930   9.015  10.659   1.652 -1.4475 -1.0720  0.5620
  548MOL0     H73931   9.030  10.596   2.044 -0.3677  0.4895 -0.9144
  548MOL0     H73932   8.839  10.310   2.108 -0.3024  0.1464 -1.2316
  548MOL0     H73933   8.838  10.457   2.193  0.6456  0.5392 -0.9514
  548MOL0     H73934   8.624  10.307   2.033  0.4728 -0.1500  0.3322
  548MOL0     H73935   8.592  10.483   2.069 -1.0693  1.4928  4.2624
  548MOL0     H73936   8.623  10.442   2.304 -0.6239  0.8870 -0.6508
  548MOL0     H73937   8.610  10.265   2.265 -2.1052 -0.5050 -0.9760
  548MOL0     H73938   8.404  10.289   2.182  0.3068 -0.4166  0.1881
  548MOL0     H73939   8.402  10.464   2.162  0.7173  0.8993  0.0416
  548MOL0     H73940   8.377  10.395   2.590  2.3611 -0.5053 -5.3209
  548MOL0     H73941   8.074  10.414   2.806  2.0703  2.9740  3.1003
  548MOL0     H73942   8.142  10.254   2.814  1.4882 -0.3421 -0.5168
  548MOL0     H73943   8.251  10.388   2.811 -0.4217  1.3816 -1.4231
  548MOL0     H73944   7.684  10.434   2.430  0.8610  0.9065  1.5746
  548MOL0     H73945   7.462  10.484   2.455  1.1688  2.0898  0.9232
  548MOL0     H73946   7.220  10.190   2.533  3.3133 -0.3526  2.5784
  548MOL0     H73947   7.129  10.238   2.681  0.4493 -1.1783 -0.0337
  548MOL0     H73948   7.038  10.434   2.548  2.4529  0.2118 -0.5763
  548MOL0     H73949   7.127  10.364   2.406  2.0583 -0.1196  0.3259
  548MOL0     H73950   6.909  10.236   2.557 -0.3379  1.3876 -0.5247
  548MOL0     H73951   6.998  10.148   2.431  0.7499  0.1173 -0.7079
  548MOL0     H73952   6.829  10.397   2.373 -1.3602 -1.1977 -0.3267
  548MOL0     H73953   6.919  10.289   2.248 -0.5421 -0.9879 -1.2364
  548MOL0     H73954   6.700  10.200   2.420  0.3422 -0.2886 -0.0046
  548MOL0     H73955   6.794  10.102   2.311  0.0084 -1.0341  3.2239
  548MOL0     H73956   6.684  10.275   2.124  0.3577  1.3597  1.8340
  548MOL0     H73957   6.588  10.145   2.200 -2.2471 -0.2356  3.3845
  548MOL0     H73958   6.598  10.447   2.267  0.3502 -0.3861  0.2320
  548MOL0     H73959   6.509  10.330   2.366  0.6376 -0.4380  0.3062
  548MOL0     H73960   6.348  10.293   2.188 -0.0879 -0.7321 -2.8882
  548MOL0     H73961   6.456  10.359   2.063 -1.8909  0.3538  0.1406
  548MOL0     H73962   7.398  10.174   2.728  0.1506 -1.6316 -0.8648
  548MOL0     H73963   7.648  10.110   2.712 -1.3997  1.6080  3.8987
  548MOL0     H73964   7.952  10.290   2.351 -0.0680  2.0452 -0.7558
  548MOL0     H73965   8.159  10.328   2.229 -2.0061  0.5391  0.3162
  548MOL0     H73966  10.078  10.709   1.717  0.2451 -1.0556  0.0474
  548MOL0     H73967  10.301  10.695   1.747 -0.2481  1.0881  0.7981
  548MOL0     H73968  10.765  10.696   1.328 -0.0239  1.7375 -0.8202
  548MOL0     H73969  11.002  10.689   1.354 -1.6994  0.0150  0.0396
  548MOL0     H73970  11.203  10.914   1.699 -2.5992  0.7149 -2.2629
  548MOL0     H73971  11.175  10.741   1.749 -1.8594  0.5636 -0.7234
  548MOL0     H73972  11.390  10.711   1.771  0.5068 -3.1891 -0.6174
  548MOL0     H73973  11.421  10.859   1.676 -0.9767 -0.0547  2.1086
  548MOL0     H73974  11.406  10.716   1.471  0.3843 -0.8769  0.6902
  548MOL0     H73975  11.346  10.583   1.550 -1.4791  0.9799  0.2688
  548MOL0     H73976  11.621  10.704   1.611 -0.8853  0.5627  0.3710
  548MOL0     H73977  11.580  10.554   1.514 -0.0785 -0.7245 -1.0488
  548MOL0     H73978  11.598  10.422   1.927  1.0410  3.4451  2.0670
  548MOL0     H73979  10.983  10.860   1.740  2.3238 -3.9552 -0.2671
  548MOL0     H73980  10.735  10.904   1.708 -0.3538  0.1515 -0.4106
  549MOL0     O73981  10.950   5.184  11.036  0.3013 -0.9723  0.0002
  549MOL0     C73982  10.914   5.260  10.945 -0.6391  0.3917  0.1213
  549MOL0     O73983  10.995   5.328  10.863 -0.2347  0.0765 -0.9752
  549MOL0     C73984  11.132   5.352  10.880  0.1919 -0.4393 -0.2220
  549MOL0     C73985  11.213   5.317  10.989  0.2114  0.8608  0.3283
  549MOL0     C73986  11.350   5.348  10.996  0.0906 -0.1246 -0.5990
  549MOL0     C73987  11.414   5.407  10.886  0.1299  0.2893  1.0404
  549MOL0     O73988  11.555   5.416  10.878 -0.1962  0.3106  0.1171
  549MOL0     C73989  11.610   5.549  10.915 -0.0445  0.5005 -0.4860
  549MOL0     C73990  11.743   5.557  10.864 -1.3002 -0.0195 -0.4407
  549MOL0     C73991  11.844   5.457  10.933  0.3830 -0.1601  0.3537
  549MOL0     C73992  11.986   5.461  10.882 -0.9918 -0.0292  0.1936
  549MOL0     C73993  12.069   5.335  10.934  0.5358  0.1265 -0.1668
  549MOL0     C73994  12.101   5.356  11.085 -0.4254 -0.4693 -0.4608
  549MOL0     C73995  12.207   5.253  11.139  0.3478 -0.9691  1.1484
  549MOL0     C73996  12.254   5.299  11.271 -0.3175  0.4708  0.0461
  549MOL0     N73997  12.344   5.421  11.267 -0.4783 -0.8142  0.0778
  549MOL0     C73998  12.481   5.420  11.272  1.4368 -0.9841  0.5086
  549MOL0     C73999  12.522   5.543  11.288 -0.7676  0.4259  0.2006
  549MOL0     C74000  12.666   5.597  11.295 -1.0937  1.0249 -0.0876
  549MOL0     C74001  12.757   5.546  11.183  0.3360  0.0898 -1.3767
  549MOL0     C74002  12.705   5.611  11.052  0.8553  1.2324  0.3243
  549MOL0     C74003  12.779   5.550  10.935  0.6143  0.5011  0.5327
  549MOL0     O74004  12.717   5.569  10.802  0.1862 -0.5244 -0.1313
  549MOL0     C74005  12.625   5.472  10.770  0.1989 -0.2543  0.5381
  549MOL0     C74006  12.601   5.472  10.628  0.1558  0.6418 -0.5474
  549MOL0     C74007  12.498   5.399  10.577  0.5761 -0.2231 -0.4936
  549MOL0     C74008  12.463   5.420  10.431  0.0463 -0.8056 -1.1618
  549MOL0     C74009  12.432   5.293  10.656  0.0423 -0.6647 -0.1656
  549MOL0     C74010  12.345   5.186  10.598 -0.3518  1.0194 -0.5859
  549MOL0     O74011  12.327   5.071  10.675  0.1170  0.4722  0.6422
  549MOL0     C74012  12.229   4.982  10.639  0.0425  1.4520 -0.0099
  549MOL0     C74013  12.260   4.861  10.586 -0.0736  0.2667  0.1825
  549MOL0     C74014  12.161   4.769  10.559  0.4413 -0.1461 -0.0277
  549MOL0     C74015  12.022   4.806  10.572 -0.9775 -0.7474 -0.5500
  549MOL0     O74016  11.925   4.702  10.563  0.6087 -0.4945 -0.1017
  549MOL0     C74017  11.784   4.734  10.570 -0.3835 -0.0066  0.9702
  549MOL0     C74018  11.711   4.600  10.576  0.6686 -0.4319  0.8205
  549MOL0     C74019  11.694   4.561  10.725  0.0643  0.1111  0.3276
  549MOL0     C74020  11.563   4.473  10.745 -0.0021 -0.0570 -0.4727
  549MOL0     C74021  11.433   4.555  10.725 -0.3279 -0.1667 -0.0348
  549MOL0     C74022  11.317   4.527  10.825 -0.3779  0.1158 -0.1088
  549MOL0     C74023  11.184   4.531  10.759  0.7068 -0.2143  0.1344
  549MOL0     C74024  11.077   4.462  10.849 -0.5641 -0.4821  0.2755
  549MOL0    Cl74025  10.910   4.515  10.780 -0.1106 -0.1102  0.0063
  549MOL0     C74026  11.991   4.938  10.613 -0.1266  0.7100 -0.2403
  549MOL0     C74027  12.093   5.022  10.647 -0.3816 -0.5247  0.5687
  549MOL0     O74028  12.284   5.207  10.499 -0.6447 -0.7582 -0.0890
  549MOL0     C74029  12.456   5.287  10.797 -0.5078  0.3343 -0.1735
  549MOL0     C74030  12.550   5.379  10.846  0.6675 -0.3654  1.1288
  549MOL0     N74031  12.411   5.621  11.302 -0.3250  0.0024 -0.3541
  549MOL0     N74032  12.304   5.546  11.288  0.1835  0.4914 -0.6313
  549MOL0     C74033  11.335   5.436  10.771  0.3561  0.7837  0.2700
  549MOL0     C74034  11.193   5.406  10.766  0.8394  1.0258  0.2354
  549MOL0     C74035  10.770   5.272  10.911  0.2422 -0.3392 -0.6308
  549MOL0     C74036  10.727   5.361  10.807 -0.9551 -0.6015 -1.0394
  549MOL0     C74037  10.594   5.371  10.769  0.3597 -0.7193  0.4048
  549MOL0     C74038  10.493   5.301  10.840 -0.4884  0.0832  0.1050
  549MOL0     O74039  10.358   5.298  10.810 -0.1455  0.2235 -0.0289
  549MOL0     C74040  10.316   5.368  10.694  0.4679 -0.0498  0.3914
  549MOL0     C74041  10.168   5.329  10.666  0.6238  0.6149 -0.8995
  549MOL0     C74042  10.157   5.188  10.606  0.1603  0.5801  0.1925
  549MOL0     C74043  10.015   5.126  10.624  0.2355 -0.3012 -0.4899
  549MOL0     C74044   9.928   5.141  10.506  0.7011 -1.0797  0.8368
  549MOL0     C74045   9.874   5.142  10.396  0.6137 -0.9298  0.2276
  549MOL0     C74046  10.533   5.217  10.957 -0.6811 -0.0375  0.2618
  549MOL0     C74047  10.669   5.196  10.977  0.2035 -0.5139 -0.4919
  549MOL0     H74048  11.163   5.263  11.068  1.3513  0.6727  0.9439
  549MOL0     H74049  11.410   5.306  11.076 -1.9048 -3.1565 -0.5461
  549MOL0     H74050  11.557   5.629  10.862  1.0536  0.8078 -1.1452
  549MOL0     H74051  11.611   5.561  11.024  3.3877 -1.5002 -0.1777
  549MOL0     H74052  11.740   5.557  10.755 -2.8307  1.2536 -0.4269
  549MOL0     H74053  11.775   5.659  10.886 -0.1742  0.0654 -2.2858
  549MOL0     H74054  11.833   5.472  11.041 -1.2052 -1.1672  0.3679
  549MOL0     H74055  11.809   5.357  10.907  1.0402  0.2404 -2.3582
  549MOL0     H74056  11.978   5.469  10.773 -2.8996  1.6303  0.4214
  549MOL0     H74057  12.024   5.557  10.916 -1.6775  0.9039 -1.5523
  549MOL0     H74058  12.016   5.239  10.928  1.2980 -0.4264  1.3978
  549MOL0     H74059  12.159   5.329  10.872 -0.1117 -0.8871 -1.0522
  549MOL0     H74060  12.140   5.456  11.106 -1.0466 -0.7944  2.6534
  549MOL0     H74061  12.010   5.352  11.144 -0.0625  2.9693  0.5810
  549MOL0     H74062  12.158   5.157  11.155 -1.3914 -0.2804  0.3029
  549MOL0     H74063  12.281   5.242  11.059 -3.8640 -1.2909 -3.1608
  549MOL0     H74064  12.304   5.220  11.329 -2.1301  0.9268  2.4149
  549MOL0     H74065  12.166   5.331  11.327 -1.5952 -2.4032 -0.1234
  549MOL0     H74066  12.550   5.336  11.265  1.7243 -0.6794 -0.6779
  549MOL0     H74067  12.662   5.706  11.283 -0.3505  0.9355 -1.3377
  549MOL0     H74068  12.714   5.574  11.390  3.4056  0.1213 -2.3064
  549MOL0     H74069  12.763   5.437  11.185  0.6231  0.1146 -0.6224
  549MOL0     H74070  12.855   5.581  11.217 -0.6082 -1.2186  3.6004
  549MOL0     H74071  12.710   5.720  11.048  0.1353  1.2538 -0.1116
  549MOL0     H74072  12.599   5.588  11.045  1.0470  0.6757 -1.2801
  549MOL0     H74073  12.777   5.443  10.959  0.6831  0.8512  2.2411
  549MOL0     H74074  12.886   5.574  10.929  0.4652  1.4214  1.3111
  549MOL0     H74075  12.651   5.541  10.559  0.8064 -1.2728 -2.0995
  549MOL0     H74076  12.506   5.342  10.367  1.1516  0.0069 -1.4437
  549MOL0     H74077  12.354   5.422  10.419 -0.7789  1.6304  3.9004
  549MOL0     H74078  12.497   5.520  10.400 -2.8950  1.3241  1.7720
  549MOL0     H74079  12.361   4.824  10.578 -0.2588 -0.3664  0.6962
  549MOL0     H74080  12.183   4.666  10.532 -1.6764 -0.8883  0.8071
  549MOL0     H74081  11.758   4.803  10.650 -0.9080  0.8514  0.0788
  549MOL0     H74082  11.758   4.783  10.476 -0.2822 -0.9205  0.4486
  549MOL0     H74083  11.611   4.620  10.537  1.5590  1.8174 -0.5132
  549MOL0     H74084  11.759   4.529  10.508 -0.0100 -1.5860  1.5212
  549MOL0     H74085  11.680   4.647  10.791 -0.1400 -1.6356  2.6925
  549MOL0     H74086  11.780   4.497  10.747 -0.0281 -0.1180  0.0422
  549MOL0     H74087  11.552   4.383  10.684  0.9890 -1.3541  1.2098
  549MOL0     H74088  11.558   4.438  10.848 -0.4755 -2.0237 -1.1248
  549MOL0     H74089  11.400   4.515  10.629 -0.0015 -0.3118 -0.0898
  549MOL0     H74090  11.460   4.661  10.734  0.8501 -0.5408  1.1615
  549MOL0     H74091  11.348   4.432  10.870 -0.5664  0.8040  1.5377
  549MOL0     H74092  11.323   4.596  10.910  2.2029  1.0974 -0.9920
  549MOL0     H74093  11.174   4.480  10.663 -1.0686  1.3112 -0.5605
  549MOL0     H74094  11.154   4.635  10.739 -2.3933  0.1498  4.9920
  549MOL0     H74095  11.092   4.500  10.951  1.5698 -2.1710  0.6535
  549MOL0     H74096  11.077   4.353  10.844  0.3383 -0.4262 -2.7212
  549MOL0     H74097  11.890   4.976  10.617 -0.8689 -1.1965  0.7215
  549MOL0     H74098  12.083   5.129  10.663 -1.7909 -0.8923  2.5503
  549MOL0     H74099  12.405   5.219  10.865 -0.4371 -0.0018 -0.4514
  549MOL0     H74100  12.562   5.380  10.954  0.1262  1.1687  1.2006
  549MOL0     H74101  11.376   5.480  10.680  0.5071  2.7524  1.2504
  549MOL0     H74102  11.141   5.419  10.672  1.5767  0.2898 -0.2928
  549MOL0     H74103  10.803   5.415  10.751  1.7390 -1.7485  1.2385
  549MOL0     H74104  10.563   5.425  10.680  0.2819  2.2098  2.0652
  549MOL0     H74105  10.324   5.475  10.713 -0.2931  0.5873 -2.3793
  549MOL0     H74106  10.378   5.330  10.613  0.9394  1.3914  0.0440
  549MOL0     H74107  10.115   5.392  10.594  3.3193  2.5768 -1.3526
  549MOL0     H74108  10.110   5.344  10.758  1.9009 -1.7199  0.3697
  549MOL0     H74109  10.228   5.119  10.651  0.3074 -0.2506 -1.2643
  549MOL0     H74110  10.193   5.189  10.502 -0.9060  1.9675 -0.1997
  549MOL0     H74111   9.965   5.163  10.714 -0.4504 -0.5178 -0.7826
  549MOL0     H74112  10.018   5.017  10.633  0.8049 -0.3240 -0.8866
  549MOL0     H74113   9.816   5.135  10.306  0.2976 -0.5434  0.4019
  549MOL0     H74114  10.466   5.156  11.015 -1.5297 -0.8407 -1.4903
  549MOL0     H74115  10.697   5.147  11.069  3.3260 -0.7516 -1.4554
  550MOL0     O74116   4.889   6.143   8.044  0.0010  0.2656  0.3136
  550MOL0     C74117   4.949   6.106   8.144 -0.2224  0.2589  1.2401
  550MOL0     O74118   4.905   6.137   8.278 -0.1107  0.2448  0.1965
  550MOL0     C74119   4.786   6.204   8.304 -0.0092  0.0109 -0.2782
  550MOL0     C74120   4.738   6.321   8.236  0.7571 -0.1375  0.0936
  550MOL0     C74121   4.623   6.392   8.286 -0.0803 -0.0360  0.5647
  550MOL0     C74122   4.555   6.347   8.400 -0.1625 -0.2476  0.5121
  550MOL0     O74123   4.437   6.417   8.432 -1.0220  0.4682 -0.3063
  550MOL0     C74124   4.367   6.379   8.559 -0.5359 -0.1228  0.3344
  550MOL0     C74125   4.236   6.439   8.574 -0.4378  0.3395 -0.2928
  550MOL0     C74126   4.139   6.384   8.681  0.2572 -0.2043  0.3707
  550MOL0     C74127   4.065   6.256   8.628  0.1581  0.7433  0.2824
  550MOL0     C74128   3.968   6.188   8.731 -0.5431 -0.3887 -0.4761
  550MOL0     C74129   3.892   6.069   8.662  0.2158 -0.3121 -0.0755
  550MOL0     C74130   3.780   6.019   8.759  0.2873  0.0859  0.7528
  550MOL0     C74131   3.681   5.925   8.677 -0.2102 -0.4079  0.8989
  550MOL0     N74132   3.568   5.886   8.762  0.2231  0.1791  0.0764
  550MOL0     C74133   3.469   5.968   8.802 -0.5058  0.7087  0.3180
  550MOL0     C74134   3.383   5.882   8.863 -0.2440  0.3747 -0.1128
  550MOL0     C74135   3.255   5.912   8.926 -0.3108 -0.4218 -0.3419
  550MOL0     C74136   3.130   5.851   8.872  0.2088  0.0347  0.2700
  550MOL0     C74137   3.028   5.882   8.973 -0.1491  0.0467 -0.4565
  550MOL0     C74138   2.887   5.834   8.932  0.2265 -0.5701 -0.3782
  550MOL0     O74139   2.785   5.890   9.018 -0.7749 -0.1156  0.5495
  550MOL0     C74140   2.653   5.861   8.992  0.8632  0.1872 -0.4374
  550MOL0     C74141   2.557   5.928   9.063 -0.1785 -0.1835 -0.4753
  550MOL0     C74142   2.423   5.911   9.052  0.5686 -0.6010 -0.1980
  550MOL0     C74143   2.340   5.997   9.147 -0.8661  0.3255  0.1381
  550MOL0     C74144   2.368   5.824   8.950 -0.6575  0.2558 -0.6194
  550MOL0     C74145   2.232   5.793   8.922  0.4712 -0.1943  0.0291
  550MOL0     O74146   2.136   5.852   8.999  0.5773 -0.0662 -0.2186
  550MOL0     C74147   2.003   5.821   8.995  0.3837  0.7044  0.2702
  550MOL0     C74148   1.948   5.695   8.970 -0.5403 -0.0037 -0.3008
  550MOL0     C74149   1.802   5.682   8.968 -0.1040  0.4845  0.3033
  550MOL0     C74150   1.719   5.795   8.993 -0.3983 -0.0959  0.0462
  550MOL0     O74151   1.581   5.787   8.987 -0.5398 -0.5005  0.2906
  550MOL0     C74152   1.505   5.844   9.086 -0.0560 -0.7903 -0.5183
  550MOL0     C74153   1.354   5.820   9.079 -0.5371 -0.5787  0.3438
  550MOL0     C74154   1.298   5.689   9.139 -0.4634  1.0145  0.3280
  550MOL0     C74155   1.161   5.701   9.177  0.1890 -0.4354 -0.7894
  550MOL0     C74156   1.090   5.559   9.204  1.0480  0.5826 -0.3294
  550MOL0     C74157   0.939   5.586   9.239 -0.0734  0.5412 -0.1699
  550MOL0     C74158   0.871   5.462   9.293  0.1248  0.0414 -0.3909
  550MOL0     C74159   0.913   5.420   9.438  0.0304 -0.0150 -0.1303
  550MOL0    Cl74160   0.866   5.250   9.481  0.4358 -0.5352 -0.2635
  550MOL0     C74161   1.778   5.924   9.002  0.2241  0.3599 -0.1259
  550MOL0     C74162   1.916   5.932   8.995  0.3654  1.1348  0.2319
  550MOL0     O74163   2.204   5.720   8.825 -0.1227 -0.8851 -0.1463
  550MOL0     C74164   2.462   5.758   8.871 -0.4327  1.1601 -0.8124
  550MOL0     C74165   2.602   5.772   8.897 -0.4854  0.6089 -0.5248
  550MOL0     N74166   3.436   5.756   8.866  0.7801  0.6577  0.1265
  550MOL0     N74167   3.539   5.756   8.794  0.3260 -0.5790  1.5194
  550MOL0     C74168   4.601   6.236   8.460  0.3063  0.8594 -0.3916
  550MOL0     C74169   4.718   6.165   8.417  0.5323 -0.3283 -0.2374
  550MOL0     C74170   5.075   6.027   8.120  0.2575  0.8603  0.6844
  550MOL0     C74171   5.122   5.983   7.992  1.0804  0.5971 -0.6143
  550MOL0     C74172   5.255   5.929   7.967  0.1993 -0.3442  0.5588
  550MOL0     C74173   5.337   5.921   8.078  0.0014  0.4652 -0.3942
  550MOL0     O74174   5.464   5.867   8.075 -0.1402 -0.0761  0.4800
  550MOL0     C74175   5.464   5.727   8.092 -0.8488 -0.0267 -0.2279
  550MOL0     C74176   5.584   5.657   8.035 -0.3709 -1.3021 -0.6387
  550MOL0     C74177   5.588   5.710   7.887  0.0089 -0.5012 -0.0640
  550MOL0     C74178   5.669   5.626   7.792 -0.4531  0.3060  0.7874
  550MOL0     C74179   5.638   5.479   7.809 -0.3492 -0.1210  0.8078
  550MOL0     C74180   5.648   5.356   7.814  0.9160  0.0313 -0.6032
  550MOL0     C74181   5.296   5.959   8.205  0.7067  0.2592  0.1028
  550MOL0     C74182   5.170   6.017   8.226  0.5822 -0.3902 -0.1346
  550MOL0     H74183   4.786   6.358   8.146  0.2681 -3.0286 -1.4976
  550MOL0     H74184   4.590   6.482   8.236 -1.0942 -0.0372  1.1938
  550MOL0     H74185   4.361   6.271   8.575 -1.0242  0.1417  2.1146
  550MOL0     H74186   4.436   6.414   8.637 -0.2696  0.8165 -0.3093
  550MOL0     H74187   4.252   6.545   8.597  0.9214 -0.1801  1.3808
  550MOL0     H74188   4.185   6.437   8.477 -0.7177  1.6082 -0.1990
  550MOL0     H74189   4.188   6.368   8.777  0.8861  0.2251  0.1225
  550MOL0     H74190   4.064   6.463   8.677 -0.0932 -0.5726 -2.0178
  550MOL0     H74191   4.019   6.279   8.531  0.4126  0.3256  0.0596
  550MOL0     H74192   4.143   6.182   8.606  0.0338  0.4134  0.9595
  550MOL0     H74193   4.033   6.141   8.805  0.8410  0.6074 -1.0260
  550MOL0     H74194   3.891   6.250   8.778  0.4206 -0.0813  0.7456
  550MOL0     H74195   3.844   6.111   8.573  0.6948  0.2827 -0.0618
  550MOL0     H74196   3.951   5.981   8.637  2.8120  0.9990  1.0240
  550MOL0     H74197   3.833   5.966   8.838  1.7274 -0.4558 -0.5188
  550MOL0     H74198   3.724   6.100   8.807  0.5140  1.8718 -1.7817
  550MOL0     H74199   3.750   5.847   8.644 -1.4384  0.4013 -4.6320
  550MOL0     H74200   3.647   5.965   8.581 -0.8868 -1.1438  0.8253
  550MOL0     H74201   3.455   6.074   8.788  1.5996  1.2473  1.7264
  550MOL0     H74202   3.266   5.898   9.034  4.4427 -2.8643 -0.8686
  550MOL0     H74203   3.247   6.019   8.908  0.2525  0.1796  2.4881
  550MOL0     H74204   3.143   5.744   8.858 -0.8044 -0.0069 -0.4335
  550MOL0     H74205   3.111   5.906   8.779 -0.5263  0.9815  0.9629
  550MOL0     H74206   3.027   5.987   9.003 -2.0277  1.0032 -3.3785
  550MOL0     H74207   3.057   5.824   9.062 -1.6661 -0.8025 -0.4709
  550MOL0     H74208   2.888   5.726   8.943 -0.2776 -0.4428  1.1618
  550MOL0     H74209   2.867   5.865   8.829  0.1055  2.2061  0.3861
  550MOL0     H74210   2.592   5.998   9.139  0.0866  1.2264 -1.8603
  550MOL0     H74211   2.270   6.055   9.085 -1.7207 -2.5839 -1.7861
  550MOL0     H74212   2.292   5.933   9.221 -2.8765 -1.2263 -2.3336
  550MOL0     H74213   2.408   6.064   9.201 -0.5968  0.7347 -0.6886
  550MOL0     H74214   2.024   5.621   8.947  1.0002  2.0289 -2.0543
  550MOL0     H74215   1.761   5.587   8.936 -2.1231  1.8417 -1.4384
  550MOL0     H74216   1.534   5.801   9.183  3.6440  0.1968 -1.0580
  550MOL0     H74217   1.520   5.952   9.091 -2.8684 -0.3273 -0.3603
  550MOL0     H74218   1.303   5.900   9.134  0.4229 -0.2360  0.7550
  550MOL0     H74219   1.327   5.827   8.974  0.8543 -0.0703  0.0006
  550MOL0     H74220   1.365   5.657   9.219  1.1361  1.9127 -0.5999
  550MOL0     H74221   1.304   5.617   9.057 -2.1877 -0.0453  1.0861
  550MOL0     H74222   1.165   5.749   9.275 -2.0187  0.7532 -1.2229
  550MOL0     H74223   1.104   5.759   9.103  1.8083 -0.7606 -2.3738
  550MOL0     H74224   1.140   5.505   9.285 -0.2585 -2.0626 -1.1699
  550MOL0     H74225   1.092   5.491   9.119  1.7693 -0.6502  0.6430
  550MOL0     H74226   0.926   5.659   9.320 -1.0051 -0.4520  0.5998
  550MOL0     H74227   0.886   5.606   9.146 -1.4605 -1.4727  0.1180
  550MOL0     H74228   0.889   5.378   9.225 -1.1525 -0.6574  0.0976
  550MOL0     H74229   0.762   5.468   9.298 -0.0330 -2.5274  1.3942
  550MOL0     H74230   0.877   5.486   9.517  0.5625 -3.5559  3.4109
  550MOL0     H74231   1.021   5.427   9.452  0.0999 -0.5476 -0.3909
  550MOL0     H74232   1.722   6.016   9.017 -0.0937 -0.2013  2.6565
  550MOL0     H74233   1.968   6.027   8.995  2.1728  0.2682 -2.3399
  550MOL0     H74234   2.423   5.698   8.790 -1.1809  1.4462 -0.6702
  550MOL0     H74235   2.676   5.722   8.835 -0.7035 -0.0355 -0.2753
  550MOL0     H74236   4.552   6.194   8.547  1.1812  1.0192  0.1913
  550MOL0     H74237   4.739   6.076   8.475  1.4934  1.7931  2.8975
  550MOL0     H74238   5.057   5.996   7.906  1.3798 -2.7075 -1.5033
  550MOL0     H74239   5.281   5.895   7.868  2.3295  0.5692  0.7331
  550MOL0     H74240   5.475   5.709   8.199  1.4232 -0.5660 -0.4992
  550MOL0     H74241   5.371   5.677   8.065  0.5381 -3.1949  0.3837
  550MOL0     H74242   5.564   5.550   8.051 -0.1310 -1.1955  0.5042
  550MOL0     H74243   5.678   5.692   8.078 -0.4639  0.6002 -1.8760
  550MOL0     H74244   5.624   5.813   7.878  2.0662 -0.9672  1.9905
  550MOL0     H74245   5.482   5.705   7.859 -0.2692 -1.7216  1.0853
  550MOL0     H74246   5.774   5.654   7.804 -0.2369 -0.4647  0.7694
  550MOL0     H74247   5.646   5.667   7.693 -1.9588  0.1668  1.0631
  550MOL0     H74248   5.654   5.249   7.816  0.1442 -0.0829 -2.4882
  550MOL0     H74249   5.378   5.956   8.276  2.4010  4.6038 -1.3494
  550MOL0     H74250   5.134   6.043   8.324 -0.2035 -1.8257 -0.0138
  551MOL0     O74251   8.694   3.037   2.767  0.5423 -0.8753 -0.0687
  551MOL0     C74252   8.713   2.927   2.709  0.6003  0.1519 -0.4834
  551MOL0     O74253   8.626   2.865   2.617  0.6177 -0.1583  0.1617
  551MOL0     C74254   8.488   2.911   2.617 -0.6384  0.9221  0.4625
  551MOL0     C74255   8.427   2.898   2.495  0.8005 -0.2186 -0.7720
  551MOL0     C74256   8.299   2.953   2.478  0.9086  0.0648  0.0403
  551MOL0     C74257   8.223   2.989   2.599 -0.6154  0.1208 -0.0392
  551MOL0     O74258   8.100   3.046   2.590 -0.7211  1.0971  0.0895
  551MOL0     C74259   8.086   3.154   2.500  0.4334 -0.0871  0.5912
  551MOL0     C74260   7.966   3.245   2.516  0.5496 -0.4460  0.2684
  551MOL0     C74261   7.980   3.380   2.426  0.6297  0.1853  0.5375
  551MOL0     C74262   7.903   3.365   2.288  0.9525  0.3548  0.1172
  551MOL0     C74263   7.747   3.367   2.282  1.0781 -0.7763 -0.4144
  551MOL0     C74264   7.700   3.389   2.139  0.2325  0.0599  0.4416
  551MOL0     C74265   7.556   3.361   2.134  0.2914  0.4298  0.8462
  551MOL0     C74266   7.475   3.427   2.241  0.9259  0.7741 -0.6465
  551MOL0     N74267   7.326   3.436   2.208  0.1338  0.2975 -0.7913
  551MOL0     C74268   7.274   3.511   2.108 -0.2295 -0.9708  0.0211
  551MOL0     C74269   7.137   3.495   2.116 -0.3043  0.5229 -0.5118
  551MOL0     C74270   7.038   3.545   2.032  0.4555  0.9054 -0.3929
  551MOL0     C74271   6.959   3.649   2.110 -0.1017 -0.0009  0.6260
  551MOL0     C74272   6.872   3.597   2.225  0.2999 -0.0841  0.6455
  551MOL0     C74273   6.786   3.475   2.215  0.0781 -0.7944  0.0720
  551MOL0     O74274   6.674   3.481   2.300  0.5926 -0.4565  0.3235
  551MOL0     C74275   6.555   3.409   2.276 -0.3547  1.0690 -0.1502
  551MOL0     C74276   6.530   3.316   2.179  0.4308  1.0893  1.2581
  551MOL0     C74277   6.420   3.230   2.162  0.1783  0.0312 -0.8125
  551MOL0     C74278   6.427   3.127   2.050 -0.0032  0.7938  0.1140
  551MOL0     C74279   6.308   3.249   2.246 -0.7823 -0.0779  0.5590
  551MOL0     C74280   6.187   3.157   2.252 -0.4775  0.9842 -0.2237
  551MOL0     O74281   6.105   3.169   2.361  0.1468 -0.3431 -0.2141
  551MOL0     C74282   6.002   3.070   2.376  0.0009 -0.1831  0.6863
  551MOL0     C74283   6.015   2.978   2.482  1.6198  0.5206 -0.1218
  551MOL0     C74284   5.904   2.888   2.511  0.8738  0.6449  0.9708
  551MOL0     C74285   5.800   2.880   2.412 -0.0062 -0.1355 -0.6069
  551MOL0     O74286   5.702   2.784   2.431  0.3507 -0.0240  0.5708
  551MOL0     C74287   5.580   2.791   2.366  0.2630 -0.0183  0.3551
  551MOL0     C74288   5.459   2.717   2.426 -0.2278 -0.8989 -0.4763
  551MOL0     C74289   5.387   2.813   2.516 -0.3263  0.0194  0.7180
  551MOL0     C74290   5.259   2.762   2.584 -0.8971  0.9961  0.3388
  551MOL0     C74291   5.207   2.836   2.706  0.1308  1.3606  0.5408
  551MOL0     C74292   5.080   2.761   2.771  0.8359  0.0311 -0.1671
  551MOL0     C74293   4.949   2.769   2.694 -0.1861 -0.2274  0.9314
  551MOL0     C74294   4.844   2.670   2.735  0.3035 -0.0469 -0.6310
  551MOL0    Cl74295   4.839   2.673   2.920  0.1069  0.5177 -0.3289
  551MOL0     C74296   5.793   2.974   2.304  0.0053  0.9060 -0.1529
  551MOL0     C74297   5.891   3.070   2.291  0.0280 -0.1150 -0.2551
  551MOL0     O74298   6.172   3.072   2.166  0.6513  0.5379  0.3744
  551MOL0     C74299   6.321   3.352   2.348  0.4763 -0.7977  0.6068
  551MOL0     C74300   6.441   3.426   2.367 -0.2862 -0.9210 -0.0079
  551MOL0     N74301   7.116   3.414   2.226 -0.1147 -0.1036 -0.6216
  551MOL0     N74302   7.226   3.375   2.278  0.1550  0.4632 -0.0724
  551MOL0     C74303   8.286   2.985   2.729  0.9282  0.1545  0.1758
  551MOL0     C74304   8.416   2.945   2.729  0.1413 -0.7965 -0.0678
  551MOL0     C74305   8.844   2.864   2.741 -0.0195  0.0624 -0.1967
  551MOL0     C74306   8.927   2.823   2.638  0.1313  0.5761 -0.4961
  551MOL0     C74307   9.055   2.764   2.661  0.0634  1.1566  0.6423
  551MOL0     C74308   9.101   2.736   2.789  0.4107  0.2735 -0.0448
  551MOL0     O74309   9.227   2.667   2.794 -0.0581 -0.0098 -0.1403
  551MOL0     C74310   9.279   2.616   2.916 -1.5657 -0.1558  0.4961
  551MOL0     C74311   9.231   2.488   2.963  0.0419 -0.0102 -0.2450
  551MOL0     C74312   9.254   2.384   2.860 -0.2820 -0.4424 -0.2500
  551MOL0     C74313   9.200   2.241   2.884  0.3614  0.7749 -0.7678
  551MOL0     C74314   9.053   2.236   2.901 -0.4199  0.0833  0.1371
  551MOL0     C74315   8.931   2.222   2.910  0.3556  0.7049  0.1447
  551MOL0     C74316   9.018   2.771   2.896  0.1934 -0.3660 -1.2287
  551MOL0     C74317   8.891   2.834   2.868  0.3042  0.4819 -0.5480
  551MOL0     H74318   8.487   2.864   2.411 -0.3721 -0.2312 -1.6390
  551MOL0     H74319   8.248   2.958   2.382 -1.6915  1.7066  1.4091
  551MOL0     H74320   8.177   3.213   2.509  1.2163 -1.3395  1.2792
  551MOL0     H74321   8.098   3.107   2.401  3.5035  1.2598  0.2234
  551MOL0     H74322   7.877   3.190   2.485 -0.6322  2.4919 -2.0534
  551MOL0     H74323   7.958   3.274   2.621 -0.5715 -1.6557  0.5451
  551MOL0     H74324   7.940   3.466   2.482  0.2000  1.1586 -1.1995
  551MOL0     H74325   8.087   3.396   2.407  0.0481  1.5271 -2.0638
  551MOL0     H74326   7.941   3.444   2.223  0.8902  1.1493  1.0145
  551MOL0     H74327   7.936   3.266   2.255  2.3997  1.4845 -2.0846
  551MOL0     H74328   7.703   3.275   2.320 -0.6651  0.0377 -0.3491
  551MOL0     H74329   7.716   3.445   2.353  1.1012  0.3529 -1.5998
  551MOL0     H74330   7.707   3.493   2.106  0.0301 -0.4290 -1.2395
  551MOL0     H74331   7.754   3.323   2.071  3.7358  1.6650  1.3975
  551MOL0     H74332   7.512   3.395   2.039  0.9245  3.1855  1.4353
  551MOL0     H74333   7.531   3.255   2.143  1.4345 -0.0268 -0.8356
  551MOL0     H74334   7.505   3.532   2.234  0.1819  0.9319 -1.6411
  551MOL0     H74335   7.492   3.385   2.340 -0.5736  0.7213 -0.3763
  551MOL0     H74336   7.321   3.581   2.039 -0.6439  1.7144  2.2908
  551MOL0     H74337   7.070   3.584   1.935  1.4522  1.8723  0.2926
  551MOL0     H74338   6.968   3.463   2.016  0.9568 -0.5854  3.7540
  551MOL0     H74339   6.897   3.708   2.042  1.6595  0.5770 -0.5417
  551MOL0     H74340   7.032   3.722   2.147  1.6761 -0.4227 -1.7771
  551MOL0     H74341   6.803   3.675   2.258 -1.1406 -1.2127  0.4014
  551MOL0     H74342   6.943   3.581   2.306 -1.1745 -0.1215  1.9766
  551MOL0     H74343   6.859   3.396   2.232  3.9724  2.0462 -1.9360
  551MOL0     H74344   6.759   3.455   2.111 -0.2827 -1.1986  0.2416
  551MOL0     H74345   6.617   3.293   2.118 -0.5872  1.0394 -0.2502
  551MOL0     H74346   6.352   3.144   1.972  0.6224 -1.1671 -0.9704
  551MOL0     H74347   6.519   3.142   1.994  1.5972 -2.1427  1.7614
  551MOL0     H74348   6.430   3.021   2.076  0.6257 -0.5184 -4.4972
  551MOL0     H74349   6.099   2.983   2.551  0.3505  0.2238  1.5242
  551MOL0     H74350   5.899   2.830   2.602 -1.9386  1.1066  1.2025
  551MOL0     H74351   5.546   2.893   2.348  2.0225  0.2960 -1.6564
  551MOL0     H74352   5.604   2.740   2.271 -1.3126  0.0695 -0.1130
  551MOL0     H74353   5.384   2.679   2.357 -0.6156  0.9420 -1.1168
  551MOL0     H74354   5.501   2.631   2.479 -2.0165 -0.8108  1.2294
  551MOL0     H74355   5.350   2.897   2.457 -1.9004 -0.8559  0.3847
  551MOL0     H74356   5.465   2.851   2.583 -0.0308 -1.4400  1.2297
  551MOL0     H74357   5.182   2.746   2.507  1.0919 -0.8530 -1.4400
  551MOL0     H74358   5.296   2.666   2.622  3.8576  2.5191  0.1263
  551MOL0     H74359   5.189   2.938   2.672 -2.1929  1.4000  1.6723
  551MOL0     H74360   5.291   2.846   2.776  0.9055 -1.4266  0.1186
  551MOL0     H74361   5.104   2.655   2.783  1.0749  0.3091  2.1393
  551MOL0     H74362   5.064   2.806   2.869 -0.0887 -1.6352  0.4964
  551MOL0     H74363   4.973   2.750   2.589 -2.7486 -1.3544  0.4708
  551MOL0     H74364   4.913   2.873   2.695 -1.8439 -0.7864  1.5883
  551MOL0     H74365   4.868   2.570   2.696  1.0221  0.8664 -2.6870
  551MOL0     H74366   4.747   2.696   2.692 -0.3886 -2.1052 -0.4591
  551MOL0     H74367   5.712   2.960   2.233  1.3609 -2.3101 -1.2778
  551MOL0     H74368   5.872   3.147   2.217 -2.2150  0.5968  0.9534
  551MOL0     H74369   6.242   3.376   2.419  0.0891  2.0816 -0.6598
  551MOL0     H74370   6.450   3.502   2.444  5.4713 -0.2707 -0.9021
  551MOL0     H74371   8.221   3.017   2.810  1.3592  0.6131  0.3440
  551MOL0     H74372   8.463   2.941   2.827  1.6142  0.2871 -0.6873
  551MOL0     H74373   8.873   2.839   2.546  0.8065  0.3473 -0.9358
  551MOL0     H74374   9.109   2.722   2.577  0.2663  0.6837  1.0067
  551MOL0     H74375   9.385   2.607   2.888 -1.0005  0.5125  2.3178
  551MOL0     H74376   9.274   2.700   2.985 -0.3074  1.0209 -0.7731
  551MOL0     H74377   9.125   2.495   2.990  0.0272  0.2543 -0.3727
  551MOL0     H74378   9.280   2.461   3.057 -0.2169 -1.1785 -0.4264
  551MOL0     H74379   9.362   2.372   2.848 -0.2162  0.2613 -0.4153
  551MOL0     H74380   9.210   2.416   2.765 -3.4722  0.5532  1.4372
  551MOL0     H74381   9.238   2.183   2.969  0.8114 -2.9316 -3.3044
  551MOL0     H74382   9.231   2.179   2.800  1.7284 -2.6323  2.0082
  551MOL0     H74383   8.826   2.203   2.909  0.3851  0.1184 -3.6032
  551MOL0     H74384   9.043   2.751   3.000  1.2028 -2.5014 -1.8249
  551MOL0     H74385   8.832   2.867   2.953  0.3206  0.7495 -0.6372
  552MOL0     O74386   4.326   5.437   3.236 -0.5380 -0.2698  0.2775
  552MOL0     C74387   4.261   5.539   3.268 -0.9697 -0.7986 -0.4270
  552MOL0     O74388   4.165   5.538   3.367 -0.8759 -0.2750 -0.1005
  552MOL0     C74389   4.115   5.415   3.410  0.5075 -0.0785  0.1350
  552MOL0     C74390   4.101   5.302   3.333 -0.5772  0.2188  0.2501
  552MOL0     C74391   4.046   5.183   3.382 -0.1286 -0.2733 -0.1612
  552MOL0     C74392   3.995   5.180   3.514 -0.3188  0.2317  0.2969
  552MOL0     O74393   3.948   5.066   3.574 -0.5064  0.1540 -0.3768
  552MOL0     C74394   3.872   4.974   3.501  1.2093 -0.3206  0.3137
  552MOL0     C74395   3.774   4.881   3.588 -0.2964 -0.3040 -0.0348
  552MOL0     C74396   3.682   4.816   3.487  0.2319 -0.4481  0.2600
  552MOL0     C74397   3.611   4.701   3.570 -0.3778  0.0051  0.3809
  552MOL0     C74398   3.476   4.658   3.513  0.7269  0.2437  0.1740
  552MOL0     C74399   3.474   4.640   3.364  0.1709  0.5076 -0.2932
  552MOL0     C74400   3.342   4.565   3.321 -0.3446 -0.1428 -0.2129
  552MOL0     C74401   3.372   4.409   3.302  0.3522 -0.0930  0.7559
  552MOL0     N74402   3.421   4.344   3.421 -0.7503 -0.4807 -0.4040
  552MOL0     C74403   3.332   4.300   3.513  0.1124  1.0420 -0.8749
  552MOL0     C74404   3.408   4.248   3.617 -0.2485 -0.1262 -0.0232
  552MOL0     C74405   3.353   4.202   3.744  0.2097 -0.0556 -0.0657
  552MOL0     C74406   3.236   4.085   3.716  0.1370 -0.5437 -0.4209
  552MOL0     C74407   3.217   3.996   3.836 -0.3967  0.1533  0.1374
  552MOL0     C74408   3.075   3.942   3.837 -0.2903 -0.1608 -0.1732
  552MOL0     O74409   3.064   3.852   3.948  0.1677 -0.5354 -0.5984
  552MOL0     C74410   2.947   3.800   4.002  0.4938 -0.0317  0.2011
  552MOL0     C74411   2.819   3.851   3.979 -0.0219  0.1839 -0.3588
  552MOL0     C74412   2.702   3.792   4.025  0.3338  0.4484  0.6308
  552MOL0     C74413   2.581   3.849   3.970  0.0701 -0.4694  0.6668
  552MOL0     C74414   2.708   3.672   4.106 -0.6873 -0.6085 -0.3672
  552MOL0     C74415   2.592   3.588   4.154  0.6258  0.4082 -0.6987
  552MOL0     O74416   2.613   3.464   4.218  0.2468 -0.3947  0.0610
  552MOL0     C74417   2.517   3.398   4.297 -0.7658  1.0309 -0.5713
  552MOL0     C74418   2.377   3.425   4.310 -0.1561 -0.1089  0.2486
  552MOL0     C74419   2.305   3.331   4.385  0.5819 -0.3595  0.0013
  552MOL0     C74420   2.359   3.224   4.460 -0.3657  0.0567  0.1782
  552MOL0     O74421   2.290   3.136   4.536  0.7338 -0.2177 -0.0433
  552MOL0     C74422   2.145   3.139   4.555 -0.6401 -0.3421 -1.0119
  552MOL0     C74423   2.127   3.028   4.653  0.1250  0.3960 -0.2056
  552MOL0     C74424   1.979   2.996   4.691 -0.3651  0.3578 -0.2972
  552MOL0     C74425   1.899   3.114   4.748  0.6128  0.0723  0.1967
  552MOL0     C74426   1.747   3.100   4.748 -0.1774 -0.3474 -0.0832
  552MOL0     C74427   1.694   3.001   4.855  1.1042  0.5577 -0.1724
  552MOL0     C74428   1.538   3.001   4.863  0.4852 -0.7166 -0.0289
  552MOL0     C74429   1.479   2.952   4.992 -0.3016  0.7622 -0.3557
  552MOL0    Cl74430   1.307   2.900   4.998  0.4017  0.5128 -0.3483
  552MOL0     C74431   2.495   3.215   4.452  0.4252 -0.1355  0.3156
  552MOL0     C74432   2.569   3.299   4.376 -0.3315 -0.0728 -0.3932
  552MOL0     O74433   2.478   3.639   4.145  0.4988  0.3918 -0.5909
  552MOL0     C74434   2.839   3.628   4.130  0.4677  0.1088  0.1664
  552MOL0     C74435   2.952   3.683   4.075 -0.1666  0.5492 -0.2848
  552MOL0     N74436   3.535   4.233   3.569  0.6919 -0.0078 -0.3952
  552MOL0     N74437   3.540   4.290   3.450 -0.2030  0.2739  0.0802
  552MOL0     C74438   4.013   5.293   3.597  0.0034 -0.3374  0.5448
  552MOL0     C74439   4.062   5.406   3.539  0.0966  0.0601 -0.3120
  552MOL0     C74440   4.270   5.659   3.183 -0.1024  0.2760  0.2545
  552MOL0     C74441   4.334   5.644   3.057  0.8562 -0.5636  1.2159
  552MOL0     C74442   4.367   5.756   2.974 -0.3029  0.2761  0.0457
  552MOL0     C74443   4.325   5.885   3.010  0.5103  0.5901 -0.2656
  552MOL0     O74444   4.362   5.995   2.936  0.2766 -1.0802 -0.5692
  552MOL0     C74445   4.370   5.985   2.791  0.5375  0.7546 -0.9817
  552MOL0     C74446   4.348   6.125   2.724  0.1623  0.4687 -0.6869
  552MOL0     C74447   4.229   6.197   2.799 -0.4484 -0.3920  0.7356
  552MOL0     C74448   4.174   6.314   2.718 -0.5126 -0.6880 -0.8131
  552MOL0     C74449   4.117   6.407   2.816  1.2946  0.1678  0.3834
  552MOL0     C74450   4.060   6.483   2.899 -0.1918 -0.0372 -0.1825
  552MOL0     C74451   4.270   5.900   3.145  1.1545  0.2702  0.8134
  552MOL0     C74452   4.245   5.785   3.228 -0.3807 -0.7182 -0.0724
  552MOL0     H74453   4.130   5.298   3.228 -2.2561  0.7700 -0.2649
  552MOL0     H74454   4.053   5.095   3.320  2.1281 -1.6795  1.9043
  552MOL0     H74455   3.808   5.035   3.436 -2.1437 -0.9396  2.7249
  552MOL0     H74456   3.938   4.922   3.432  0.7716  0.1273 -0.4563
  552MOL0     H74457   3.837   4.817   3.651  0.2308  0.8308  0.6249
  552MOL0     H74458   3.714   4.948   3.651  2.0896  0.9361  1.0817
  552MOL0     H74459   3.601   4.887   3.469 -0.2902 -0.2437  2.9663
  552MOL0     H74460   3.728   4.779   3.395  0.0416  1.4551 -0.6467
  552MOL0     H74461   3.671   4.609   3.564 -1.7385 -0.8565 -0.7929
  552MOL0     H74462   3.595   4.727   3.675  0.0690  0.8001  0.2584
  552MOL0     H74463   3.450   4.569   3.571  1.0189 -0.4791 -0.7800
  552MOL0     H74464   3.402   4.737   3.530 -1.8417 -2.4464  2.8019
  552MOL0     H74465   3.471   4.737   3.313 -6.2021  1.3722  0.9241
  552MOL0     H74466   3.560   4.575   3.346  2.0055  2.2026  1.7536
  552MOL0     H74467   3.268   4.565   3.402 -0.1432 -0.6610 -0.0193
  552MOL0     H74468   3.312   4.615   3.229  0.3533  1.5760  0.4476
  552MOL0     H74469   3.431   4.386   3.213 -0.4998  2.7370 -0.6556
  552MOL0     H74470   3.284   4.355   3.266 -0.4565  2.2891 -1.0429
  552MOL0     H74471   3.230   4.334   3.527  0.2249  1.0326  0.0270
  552MOL0     H74472   3.434   4.170   3.809  1.5911  2.0511 -0.6485
  552MOL0     H74473   3.317   4.289   3.800  3.7710  0.6252  1.3784
  552MOL0     H74474   3.264   4.015   3.637  0.1326 -0.5779 -0.3912
  552MOL0     H74475   3.140   4.138   3.713  0.7460  1.2566  3.8926
  552MOL0     H74476   3.228   4.054   3.928  2.9635 -0.3306  0.1671
  552MOL0     H74477   3.294   3.921   3.854  0.2018  1.0340  1.3995
  552MOL0     H74478   3.044   3.897   3.742 -0.3180 -0.3710 -0.0644
  552MOL0     H74479   3.011   4.028   3.858 -1.5720 -1.1922  0.2749
  552MOL0     H74480   2.812   3.940   3.916 -1.3446  0.0784 -0.4009
  552MOL0     H74481   2.593   3.947   3.922 -1.0360 -1.6514 -2.2554
  552MOL0     H74482   2.541   3.797   3.882 -0.9044  0.9757  0.2186
  552MOL0     H74483   2.505   3.841   4.049  2.3607 -0.9348  2.9615
  552MOL0     H74484   2.324   3.502   4.255  0.5483  0.7892  0.8006
  552MOL0     H74485   2.198   3.347   4.385  0.8294  1.6586  1.4716
  552MOL0     H74486   2.112   3.233   4.599 -0.8197 -1.3325  1.0691
  552MOL0     H74487   2.082   3.122   4.467 -0.7806 -0.0502 -0.9683
  552MOL0     H74488   2.161   2.932   4.613 -1.8370 -0.9104  1.0596
  552MOL0     H74489   2.186   3.050   4.742  0.9401  0.0723 -0.6495
  552MOL0     H74490   1.989   2.923   4.772  0.4999  0.4757 -0.2932
  552MOL0     H74491   1.917   2.944   4.617  1.2409  0.9246 -2.1159
  552MOL0     H74492   1.927   3.146   4.849 -1.9751  1.5371  0.5253
  552MOL0     H74493   1.926   3.204   4.693 -3.4521  2.4238  1.6018
  552MOL0     H74494   1.719   3.063   4.649  0.1446 -0.4164 -0.1508
  552MOL0     H74495   1.695   3.196   4.757  1.8709  1.1221 -2.5311
  552MOL0     H74496   1.745   2.907   4.833 -0.2842 -0.7480  1.9442
  552MOL0     H74497   1.728   3.032   4.954 -1.0246 -0.0230  0.7955
  552MOL0     H74498   1.502   2.941   4.778 -1.2298  0.8423 -0.4772
  552MOL0     H74499   1.500   3.099   4.832  2.9298 -0.1697 -1.5749
  552MOL0     H74500   1.503   3.021   5.073 -0.0660  1.9860 -1.4488
  552MOL0     H74501   1.528   2.857   5.016 -3.2854 -1.2258 -1.6085
  552MOL0     H74502   2.542   3.133   4.505 -0.2802 -1.0627 -0.4433
  552MOL0     H74503   2.672   3.270   4.360 -1.0782 -3.1554 -0.2408
  552MOL0     H74504   2.851   3.529   4.172 -0.5203 -0.0956 -0.0050
  552MOL0     H74505   3.044   3.627   4.069 -0.5491  0.0108 -1.2772
  552MOL0     H74506   3.965   5.278   3.693 -2.1853  1.4915 -0.1700
  552MOL0     H74507   4.056   5.500   3.593  1.2197  0.1067 -0.2413
  552MOL0     H74508   4.330   5.545   3.011 -1.0355  0.0880 -0.1580
  552MOL0     H74509   4.397   5.726   2.875 -3.0464 -1.4492 -0.3829
  552MOL0     H74510   4.470   5.948   2.767 -0.5548 -2.9925 -0.4592
  552MOL0     H74511   4.302   5.908   2.753  0.2490 -2.1298  4.3216
  552MOL0     H74512   4.334   6.125   2.616 -0.4949  2.6523 -0.6444
  552MOL0     H74513   4.441   6.181   2.738  1.7436 -2.2432  0.3443
  552MOL0     H74514   4.259   6.232   2.898  0.0475  0.6455  0.2452
  552MOL0     H74515   4.147   6.128   2.819 -2.8244  1.6990 -1.0563
  552MOL0     H74516   4.102   6.272   2.647 -0.1326 -0.0141 -1.6069
  552MOL0     H74517   4.255   6.370   2.673 -1.6506  1.2563 -0.5528
  552MOL0     H74518   4.028   6.551   2.976  2.2558  1.9257 -0.7710
  552MOL0     H74519   4.228   5.999   3.156 -0.3513 -0.3820  1.2977
  552MOL0     H74520   4.209   5.790   3.331  0.2321 -1.9883  0.2194
  553MOL0     O74521   4.357   5.796   4.671 -0.5467  0.9357  0.5684
  553MOL0     C74522   4.409   5.903   4.702  0.4781  0.3787 -1.0471
  553MOL0     O74523   4.354   5.987   4.788  0.5644 -0.2664 -0.1004
  553MOL0     C74524   4.255   5.948   4.871  0.1762 -0.2537  0.1790
  553MOL0     C74525   4.271   5.847   4.971  0.3208  0.9484 -0.5729
  553MOL0     C74526   4.158   5.806   5.036  0.6269  1.0372  0.0045
  553MOL0     C74527   4.029   5.868   5.010 -0.0994  0.0160  0.9844
  553MOL0     O74528   3.913   5.836   5.086 -0.5692 -0.4773  0.4728
  553MOL0     C74529   3.912   5.726   5.172  1.1296  0.6629 -0.1260
  553MOL0     C74530   3.771   5.718   5.227 -0.9581  0.1482  0.1718
  553MOL0     C74531   3.760   5.623   5.356  0.1953 -0.4470  0.4655
  553MOL0     C74532   3.759   5.474   5.312  0.5783  0.1910  0.3822
  553MOL0     C74533   3.677   5.388   5.412  0.1677  0.6672 -0.7334
  553MOL0     C74534   3.524   5.401   5.391 -0.1816  0.4529  0.3097
  553MOL0     C74535   3.425   5.356   5.502 -0.0394 -1.1260  0.7785
  553MOL0     C74536   3.427   5.443   5.618 -0.0491 -0.4215 -0.1499
  553MOL0     N74537   3.308   5.416   5.701 -0.4824 -0.3013  0.6290
  553MOL0     C74538   3.196   5.486   5.679  0.5380  0.2740 -0.4404
  553MOL0     C74539   3.113   5.465   5.788 -0.4734 -0.6680  1.1743
  553MOL0     C74540   2.974   5.509   5.810  0.7245  0.1878 -0.9117
  553MOL0     C74541   2.876   5.423   5.730 -0.4164 -0.4094 -1.0188
  553MOL0     C74542   2.735   5.420   5.783  0.4685  0.0415 -0.1580
  553MOL0     C74543   2.640   5.363   5.678  0.6526 -0.0356  0.2011
  553MOL0     O74544   2.500   5.394   5.705  0.0497  0.9045  1.2704
  553MOL0     C74545   2.402   5.356   5.612 -0.5830  0.3750  0.0919
  553MOL0     C74546   2.423   5.337   5.474  0.1809 -0.3860 -0.3810
  553MOL0     C74547   2.314   5.304   5.389 -0.3820  0.2052 -0.7507
  553MOL0     C74548   2.337   5.286   5.239  0.7045  0.5145  0.0808
  553MOL0     C74549   2.179   5.298   5.433  0.3940 -0.0130 -0.3397
  553MOL0     C74550   2.054   5.256   5.359 -0.2572 -1.0362 -0.5245
  553MOL0     O74551   1.948   5.261   5.441  0.3654  0.2439 -0.3029
  553MOL0     C74552   1.827   5.252   5.384  1.0038  0.3907  0.0782
  553MOL0     C74553   1.753   5.369   5.362 -0.0983 -0.1437 -1.1081
  553MOL0     C74554   1.620   5.359   5.311  0.0878  0.5672  1.1795
  553MOL0     C74555   1.562   5.237   5.276 -0.5550 -0.0706 -1.1141
  553MOL0     O74556   1.433   5.229   5.234  0.2889  0.0783  0.8024
  553MOL0     C74557   1.431   5.190   5.093 -0.8245 -0.2003  0.1094
  553MOL0     C74558   1.316   5.096   5.072  0.0700  0.3042 -0.2865
  553MOL0     C74559   1.185   5.148   5.128  0.2387 -0.8633 -0.1171
  553MOL0     C74560   1.073   5.052   5.086  0.1409  0.6511 -0.1076
  553MOL0     C74561   0.938   5.123   5.046  0.2893  0.2370 -0.8153
  553MOL0     C74562   0.861   5.179   5.160  0.3685  0.8415  0.0937
  553MOL0     C74563   0.779   5.078   5.245  0.1761  0.1535 -0.3359
  553MOL0     C74564   0.744   5.145   5.383 -0.1608 -0.3665 -0.3092
  553MOL0    Cl74565   0.624   5.284   5.359  0.0085 -0.6297  0.0015
  553MOL0     C74566   1.638   5.118   5.299 -0.6774 -0.5735 -1.1512
  553MOL0     C74567   1.761   5.124   5.360  0.2738 -0.1225  0.4258
  553MOL0     O74568   2.056   5.232   5.245  0.2131  0.0764  0.6080
  553MOL0     C74569   2.169   5.319   5.571  1.6348 -0.2730  0.3192
  553MOL0     C74570   2.271   5.355   5.656 -0.9455  0.1187 -0.2677
  553MOL0     N74571   3.192   5.388   5.881 -0.4386 -0.0188  0.7524
  553MOL0     N74572   3.299   5.354   5.827  0.1517  0.0995  0.6140
  553MOL0     C74573   4.027   5.970   4.914  0.7633  0.8139 -0.7265
  553MOL0     C74574   4.137   6.013   4.846  0.0189  0.5642  0.2575
  553MOL0     C74575   4.522   5.959   4.623  0.5527 -0.6687 -0.3765
  553MOL0     C74576   4.600   6.066   4.672 -0.1190  0.5356  0.7782
  553MOL0     C74577   4.705   6.111   4.595 -0.6030  0.3687 -0.1219
  553MOL0     C74578   4.734   6.054   4.475 -0.1493  1.2012  0.9761
  553MOL0     O74579   4.843   6.107   4.408 -0.1684  0.0889 -0.1009
  553MOL0     C74580   4.876   6.066   4.270 -0.7943 -0.4036 -0.1218
  553MOL0     C74581   5.034   6.072   4.239  0.3545 -1.0586 -0.1267
  553MOL0     C74582   5.087   6.217   4.201  0.2711 -0.0342 -0.8643
  553MOL0     C74583   5.066   6.236   4.051  0.2341  0.2036  0.2081
  553MOL0     C74584   5.150   6.144   3.983 -0.6810 -0.3082  0.9590
  553MOL0     C74585   5.224   6.064   3.932  0.9404  0.1706  0.2969
  553MOL0     C74586   4.650   5.950   4.425  0.7548  0.4013  0.3675
  553MOL0     C74587   4.544   5.907   4.494  0.4770  0.7491 -0.0283
  553MOL0     H74588   4.362   5.788   4.978 -0.9861 -1.2152 -1.0705
  553MOL0     H74589   4.148   5.723   5.106 -1.3820  0.3910 -0.9676
  553MOL0     H74590   3.926   5.635   5.112  1.2708  0.9948 -0.6015
  553MOL0     H74591   3.986   5.745   5.250  0.8186 -0.8683  0.5789
  553MOL0     H74592   3.757   5.821   5.261  1.6809  1.3878 -2.1198
  553MOL0     H74593   3.691   5.698   5.155 -1.2126  0.0128  0.4906
  553MOL0     H74594   3.821   5.667   5.435  2.7692 -0.0458 -1.6007
  553MOL0     H74595   3.662   5.651   5.396 -0.4732 -1.1769 -0.6141
  553MOL0     H74596   3.725   5.457   5.209  0.8887 -2.6252  0.6520
  553MOL0     H74597   3.862   5.440   5.322 -0.4981 -2.9237  2.4175
  553MOL0     H74598   3.708   5.284   5.402  1.6519  1.1705 -1.7072
  553MOL0     H74599   3.700   5.426   5.512 -1.4898  0.9577 -0.4194
  553MOL0     H74600   3.506   5.509   5.383 -1.1198  0.7784  4.6142
  553MOL0     H74601   3.495   5.361   5.293  0.5101 -0.6789  0.5484
  553MOL0     H74602   3.330   5.381   5.454 -0.1021  2.0190  2.2914
  553MOL0     H74603   3.422   5.249   5.525 -1.6553 -0.9288  1.6023
  553MOL0     H74604   3.434   5.552   5.606 -2.5817 -0.2845 -1.0174
  553MOL0     H74605   3.515   5.424   5.681  1.1803 -1.2454 -2.0573
  553MOL0     H74606   3.174   5.551   5.595  0.8076  0.9498 -0.0009
  553MOL0     H74607   2.943   5.500   5.914  2.5426  1.2645 -0.2145
  553MOL0     H74608   2.960   5.617   5.796  3.2220  1.0147  1.9325
  553MOL0     H74609   2.911   5.319   5.731  4.4644  0.9964  1.0760
  553MOL0     H74610   2.872   5.467   5.629 -0.9720  3.6871  0.6127
  553MOL0     H74611   2.709   5.523   5.809 -0.9595 -0.7254  1.6288
  553MOL0     H74612   2.729   5.356   5.871 -0.8308  2.0087  1.2754
  553MOL0     H74613   2.652   5.255   5.682 -0.3910 -0.1341  1.7358
  553MOL0     H74614   2.666   5.398   5.578 -1.5082  0.6071 -0.1870
  553MOL0     H74615   2.519   5.346   5.424  0.5026  1.6290  0.5103
  553MOL0     H74616   2.309   5.187   5.202  1.1296 -0.3646  2.0174
  553MOL0     H74617   2.278   5.366   5.193 -0.0379  1.6501  2.7927
  553MOL0     H74618   2.446   5.298   5.228  1.8454 -3.4771  4.0484
  553MOL0     H74619   1.798   5.467   5.371  0.6250 -0.6099  0.9495
  553MOL0     H74620   1.564   5.443   5.273  1.8939  1.2942 -0.0210
  553MOL0     H74621   1.420   5.282   5.034  0.1220 -0.2626 -0.1672
  553MOL0     H74622   1.520   5.134   5.066 -0.8658 -0.7123  1.0011
  553MOL0     H74623   1.312   5.064   4.968  0.7266  0.5199 -0.3822
  553MOL0     H74624   1.340   4.998   5.115 -0.6531  0.0028 -0.5453
  553MOL0     H74625   1.171   5.251   5.093  1.0740 -0.8137 -0.3147
  553MOL0     H74626   1.193   5.149   5.237 -2.3055 -0.2533  0.1262
  553MOL0     H74627   1.112   4.997   5.000 -1.6468 -0.0892 -0.4750
  553MOL0     H74628   1.052   4.987   5.172  0.9499  1.4394  0.7214
  553MOL0     H74629   0.880   5.043   4.999  0.3410 -0.8902  0.9419
  553MOL0     H74630   0.963   5.196   4.968 -0.2745 -1.2295 -2.4351
  553MOL0     H74631   0.931   5.222   5.233  1.9907 -1.1678 -0.1917
  553MOL0     H74632   0.794   5.261   5.134  0.0690  0.4612 -0.3478
  553MOL0     H74633   0.840   4.987   5.253  0.9417  0.3355 -3.0249
  553MOL0     H74634   0.686   5.058   5.191  0.0916 -0.8108  0.1513
  553MOL0     H74635   0.830   5.169   5.445  0.7867 -0.3043 -1.6155
  553MOL0     H74636   0.684   5.079   5.447 -1.4762  0.1284 -0.9878
  553MOL0     H74637   1.599   5.018   5.283 -3.3311 -0.2089  2.0835
  553MOL0     H74638   1.817   5.032   5.375  0.0952 -0.2549  0.2877
  553MOL0     H74639   2.075   5.298   5.621  0.0819 -1.3331 -2.8092
  553MOL0     H74640   2.251   5.349   5.763  1.3013 -3.5252  0.1337
  553MOL0     H74641   3.924   5.995   4.891 -0.0331 -3.0500 -2.0799
  553MOL0     H74642   4.115   6.073   4.758 -2.0868  2.0314  1.6876
  553MOL0     H74643   4.587   6.107   4.772 -0.1216 -0.8657  1.3900
  553MOL0     H74644   4.779   6.178   4.636 -0.6963 -0.8041  2.1075
  553MOL0     H74645   4.855   5.959   4.263  1.7745 -1.3995  3.9756
  553MOL0     H74646   4.825   6.121   4.190  1.5839 -0.8095 -2.0119
  553MOL0     H74647   5.052   5.997   4.161 -0.8974 -0.2720 -1.2165
  553MOL0     H74648   5.087   6.035   4.327  1.9079  3.7094  1.2097
  553MOL0     H74649   5.194   6.221   4.222  0.4883 -0.1052 -1.9272
  553MOL0     H74650   5.034   6.291   4.261  1.3445 -0.0602  0.1579
  553MOL0     H74651   5.101   6.340   4.043  0.9198 -0.1324 -1.5690
  553MOL0     H74652   4.962   6.217   4.024  0.1219  1.4087 -0.2706
  553MOL0     H74653   5.267   5.990   3.868  3.4826  2.7815 -1.2868
  553MOL0     H74654   4.667   5.908   4.326 -1.2212 -0.5186  0.3792
  553MOL0     H74655   4.494   5.823   4.449 -0.6516  0.4120  1.7448
  554MOL0     O74656   8.067   9.246   3.223  0.5439 -0.0715  0.0693
  554MOL0     C74657   8.095   9.180   3.118 -0.2007 -0.1950 -0.7348
  554MOL0     O74658   8.008   9.117   3.038  0.2342 -0.0166  0.0557
  554MOL0     C74659   7.867   9.126   3.072  0.0276 -0.9814  1.0968
  554MOL0     C74660   7.824   9.032   3.166  0.1074 -0.0372 -0.1353
  554MOL0     C74661   7.691   9.029   3.216  0.1241  1.2399 -0.6351
  554MOL0     C74662   7.604   9.132   3.165 -0.6872 -0.1815 -0.8230
  554MOL0     O74663   7.475   9.121   3.217 -0.0120 -0.8116  0.0378
  554MOL0     C74664   7.363   9.141   3.119 -0.7259  0.2660  0.4924
  554MOL0     C74665   7.335   9.016   3.030 -0.1763 -0.0073 -0.1669
  554MOL0     C74666   7.208   9.033   2.941 -0.1348  1.1775  0.0426
  554MOL0     C74667   7.195   8.904   2.855 -0.4734  0.5669 -0.9939
  554MOL0     C74668   7.050   8.885   2.795 -0.7363  0.6772  0.6533
  554MOL0     C74669   6.954   8.846   2.906  0.7433 -0.1744  0.2608
  554MOL0     C74670   6.816   8.838   2.854  1.4258 -0.0537  0.6092
  554MOL0     C74671   6.714   8.816   2.972 -0.0609  0.1354  0.3808
  554MOL0     N74672   6.579   8.834   2.921 -0.0495  0.3587 -0.9732
  554MOL0     C74673   6.544   8.880   2.803 -0.1620 -0.6251  0.2121
  554MOL0     C74674   6.411   8.881   2.810  0.8790  0.4121  0.4065
  554MOL0     C74675   6.333   8.943   2.702 -0.0699  0.5419 -0.0631
  554MOL0     C74676   6.199   8.880   2.666  0.0641 -0.2875 -0.0979
  554MOL0     C74677   6.128   8.960   2.552 -1.0435  0.6496 -0.0160
  554MOL0     C74678   5.988   8.895   2.519  0.3816  0.3511  0.5527
  554MOL0     O74679   5.920   8.976   2.416 -0.3702  0.4558  0.2836
  554MOL0     C74680   5.792   8.940   2.383  0.3406 -0.4425  0.3691
  554MOL0     C74681   5.725   8.821   2.407  0.4134  0.4615  0.1377
  554MOL0     C74682   5.582   8.821   2.388 -1.3426 -0.2545 -0.2120
  554MOL0     C74683   5.511   8.686   2.403  0.7462 -0.7142  0.1329
  554MOL0     C74684   5.513   8.941   2.370  0.4693  0.4885  0.3513
  554MOL0     C74685   5.361   8.947   2.367 -0.3566 -0.6083 -0.6010
  554MOL0     O74686   5.299   8.838   2.330  0.2706  0.3868 -0.4424
  554MOL0     C74687   5.161   8.824   2.330  0.5955  0.0753  0.2520
  554MOL0     C74688   5.061   8.904   2.398 -0.1126  0.5785  0.7085
  554MOL0     C74689   4.927   8.867   2.391 -0.0640  0.9117  0.2505
  554MOL0     C74690   4.879   8.763   2.307 -0.7621  0.2655  0.3248
  554MOL0     O74691   4.743   8.754   2.289 -0.1025  0.0491 -0.1461
  554MOL0     C74692   4.693   8.666   2.195 -0.2429 -0.2405 -0.0811
  554MOL0     C74693   4.543   8.690   2.182 -0.9589 -0.3925  0.1016
  554MOL0     C74694   4.478   8.617   2.292 -0.8376 -0.4334  0.0070
  554MOL0     C74695   4.334   8.671   2.291 -0.2690 -0.2863  0.5974
  554MOL0     C74696   4.247   8.548   2.351 -0.7210  0.2770  0.6060
  554MOL0     C74697   4.096   8.571   2.369 -0.5384 -0.1955 -0.5087
  554MOL0     C74698   4.023   8.448   2.408  0.6363  0.4658 -0.0299
  554MOL0     C74699   3.875   8.476   2.440  0.3355 -0.1089 -0.6086
  554MOL0    Cl74700   3.788   8.540   2.301 -0.2672 -0.0539  0.1037
  554MOL0     C74701   4.975   8.690   2.249 -0.4473  1.2786 -0.0239
  554MOL0     C74702   5.116   8.710   2.264  0.1925 -0.5057  0.0718
  554MOL0     O74703   5.311   9.055   2.385  0.0757 -0.2308 -0.1688
  554MOL0     C74704   5.590   9.054   2.347  0.7689 -0.3946 -0.4964
  554MOL0     C74705   5.722   9.055   2.346 -0.6438 -0.6035 -0.9202
  554MOL0     N74706   6.361   8.830   2.933  0.2892 -0.0474  0.6639
  554MOL0     N74707   6.464   8.808   2.997 -0.4154  0.5084 -0.2531
  554MOL0     C74708   7.653   9.235   3.076 -0.1565  0.8484  0.2655
  554MOL0     C74709   7.782   9.237   3.035 -1.0252 -0.5240 -0.1715
  554MOL0     C74710   8.241   9.157   3.103  0.9378  0.7350  0.1009
  554MOL0     C74711   8.327   9.256   3.135 -0.5874 -0.4536 -0.4823
  554MOL0     C74712   8.465   9.241   3.118 -0.7681  0.0744  0.5222
  554MOL0     C74713   8.517   9.128   3.057 -0.6706 -0.6029  0.9590
  554MOL0     O74714   8.655   9.110   3.023 -0.0407 -0.3085  0.3674
  554MOL0     C74715   8.753   9.182   3.105 -0.2592 -0.0873 -0.2660
  554MOL0     C74716   8.810   9.090   3.217  0.0110 -0.4538 -1.5457
  554MOL0     C74717   8.872   8.962   3.170  1.2575  0.6747 -1.0896
  554MOL0     C74718   8.990   8.984   3.083 -0.1532 -0.5109 -0.0145
  554MOL0     C74719   9.113   9.036   3.156 -0.8188  0.3914 -0.4730
  554MOL0     C74720   9.203   9.074   3.229 -0.5532  0.4670  0.1076
  554MOL0     C74721   8.432   9.027   3.024  0.0821 -0.8330 -0.0624
  554MOL0     C74722   8.297   9.053   3.033  0.3997  0.8170 -0.0141
  554MOL0     H74723   7.904   8.971   3.206  2.8098  0.2139 -4.6111
  554MOL0     H74724   7.655   8.956   3.288 -2.4457  1.1593 -1.8930
  554MOL0     H74725   7.273   9.169   3.175  0.7480  0.2841  3.0026
  554MOL0     H74726   7.382   9.230   3.059 -1.0664 -0.2242 -0.3572
  554MOL0     H74727   7.420   9.006   2.962 -1.1068 -0.4041 -1.3090
  554MOL0     H74728   7.329   8.931   3.097  1.7537  1.6505  2.2815
  554MOL0     H74729   7.117   9.038   3.001  0.0850  0.1030  0.4970
  554MOL0     H74730   7.216   9.120   2.876 -1.5645  0.9649 -0.4617
  554MOL0     H74731   7.268   8.902   2.774 -0.7434  0.7508 -1.2456
  554MOL0     H74732   7.215   8.814   2.914  2.2646  0.6181 -1.7193
  554MOL0     H74733   7.021   8.979   2.749 -0.3081  0.2375 -0.5695
  554MOL0     H74734   7.058   8.804   2.721 -1.1985  0.9223  0.3373
  554MOL0     H74735   6.986   8.753   2.955  2.4424  0.6708  0.8368
  554MOL0     H74736   6.953   8.928   2.978 -1.8590 -0.2735  0.4311
  554MOL0     H74737   6.796   8.932   2.802  0.6769  0.4347  1.7589
  554MOL0     H74738   6.795   8.758   2.782  0.8530  1.3900 -0.8989
  554MOL0     H74739   6.729   8.900   3.041 -0.9817  1.1998 -0.6596
  554MOL0     H74740   6.724   8.717   3.016  0.2387  1.0055  2.4138
  554MOL0     H74741   6.603   8.932   2.728 -3.1354  0.9008 -1.2486
  554MOL0     H74742   6.312   9.049   2.719 -3.0249 -0.0396  0.5714
  554MOL0     H74743   6.393   8.938   2.611 -0.3839 -0.1422 -0.2351
  554MOL0     H74744   6.140   8.874   2.758  0.7497  1.0168  0.4521
  554MOL0     H74745   6.214   8.775   2.637 -0.0790 -1.2218  2.8657
  554MOL0     H74746   6.193   8.966   2.464 -0.7393 -1.6726 -0.0108
  554MOL0     H74747   6.117   9.061   2.592  0.8923  0.2957  1.5908
  554MOL0     H74748   5.933   8.897   2.613 -1.4416  3.0217 -0.4385
  554MOL0     H74749   5.996   8.794   2.479  1.9731 -0.0983  1.8715
  554MOL0     H74750   5.781   8.733   2.437  0.3616 -0.1947 -1.5756
  554MOL0     H74751   5.484   8.642   2.307  2.6471  0.4095 -0.9781
  554MOL0     H74752   5.576   8.611   2.449  1.4563 -0.1538  0.0442
  554MOL0     H74753   5.431   8.697   2.477  2.2142  0.6607  1.6134
  554MOL0     H74754   5.080   8.983   2.469 -1.0703 -1.2558  3.1232
  554MOL0     H74755   4.848   8.910   2.453 -0.4193  0.7092 -0.0564
  554MOL0     H74756   4.728   8.700   2.097  0.7945  0.9183  0.6668
  554MOL0     H74757   4.715   8.561   2.217 -3.1195 -1.2458 -1.4738
  554MOL0     H74758   4.520   8.795   2.198  0.0673  0.0322 -1.0708
  554MOL0     H74759   4.494   8.647   2.094  0.3251 -0.6393 -0.5153
  554MOL0     H74760   4.528   8.641   2.386  3.7420 -0.1041 -2.2541
  554MOL0     H74761   4.478   8.508   2.285 -0.3511 -0.5765  1.8350
  554MOL0     H74762   4.321   8.748   2.368  0.8557 -1.3359  1.8923
  554MOL0     H74763   4.305   8.713   2.194  1.0763  3.7952  1.7306
  554MOL0     H74764   4.306   8.517   2.438  2.6968  0.0154 -1.6022
  554MOL0     H74765   4.261   8.461   2.286  2.9059 -0.4499  2.1152
  554MOL0     H74766   4.084   8.650   2.444  0.3560  0.5275 -1.0956
  554MOL0     H74767   4.060   8.605   2.271  1.2435  2.1699 -0.4271
  554MOL0     H74768   4.063   8.390   2.491 -0.7587  1.7335  1.6033
  554MOL0     H74769   4.019   8.384   2.319 -1.2921  2.1972 -1.2718
  554MOL0     H74770   3.857   8.537   2.528 -0.7370 -3.4519  1.7196
  554MOL0     H74771   3.832   8.376   2.459  0.4542 -0.6018 -2.6717
  554MOL0     H74772   4.951   8.605   2.186 -0.4051  0.8327  0.5533
  554MOL0     H74773   5.177   8.643   2.205  0.2334 -0.2730 -0.1568
  554MOL0     H74774   5.531   9.142   2.322 -0.3032 -1.0073 -0.1842
  554MOL0     H74775   5.769   9.153   2.349  2.2786 -1.9228  0.9131
  554MOL0     H74776   7.591   9.319   3.046  0.6965  1.0929 -0.9159
  554MOL0     H74777   7.815   9.319   2.973  0.5502 -2.6054 -2.2236
  554MOL0     H74778   8.307   9.349   3.187  1.0877 -0.0863 -0.4367
  554MOL0     H74779   8.518   9.334   3.140 -1.6778  1.6245 -3.0379
  554MOL0     H74780   8.842   9.224   3.057  1.3322 -1.6985  1.1067
  554MOL0     H74781   8.705   9.267   3.154 -0.2676 -1.0568  1.5104
  554MOL0     H74782   8.721   9.066   3.276 -0.6175 -0.2655 -2.3925
  554MOL0     H74783   8.864   9.144   3.295  1.2828 -2.6525 -0.8271
  554MOL0     H74784   8.784   8.918   3.124  2.9051 -2.6117 -1.3527
  554MOL0     H74785   8.896   8.902   3.258 -1.1176  1.0611 -0.1073
  554MOL0     H74786   8.966   9.051   3.000 -0.8424 -2.0381 -1.0839
  554MOL0     H74787   9.019   8.888   3.039  2.9190  0.4220 -0.2518
  554MOL0     H74788   9.283   9.099   3.295 -1.5387 -3.0043  2.9289
  554MOL0     H74789   8.475   8.935   2.983  1.2866 -0.2286 -0.2129
  554MOL0     H74790   8.234   8.971   2.999  0.4293  0.2524  1.2320
  555MOL0     O74791   6.341   8.166   1.710 -1.3559 -0.6254 -0.6523
  555MOL0     C74792   6.413   8.105   1.787  1.0287 -0.0689  0.0542
  555MOL0     O74793   6.374   8.005   1.873 -0.3140 -0.0596  0.1552
  555MOL0     C74794   6.258   7.937   1.858  0.6014  0.3162  0.2233
  555MOL0     C74795   6.133   7.987   1.906 -0.8079  1.1419 -0.8165
  555MOL0     C74796   6.020   7.918   1.878 -0.1001  0.4227 -0.3398
  555MOL0     C74797   6.025   7.801   1.809  0.5266 -0.1560  0.2967
  555MOL0     O74798   5.902   7.752   1.768 -0.3538  0.4856  0.7996
  555MOL0     C74799   5.888   7.645   1.680  0.3574  0.4483  0.5377
  555MOL0     C74800   5.869   7.696   1.537  0.4592 -0.7168 -0.2863
  555MOL0     C74801   6.006   7.736   1.470 -0.1697  0.8321 -0.7844
  555MOL0     C74802   6.029   7.888   1.463 -0.4206  0.2519 -0.7422
  555MOL0     C74803   6.169   7.915   1.399 -0.0218  0.1855 -0.0055
  555MOL0     C74804   6.220   8.052   1.393  0.2501 -0.0384  0.5153
  555MOL0     C74805   6.152   8.134   1.280 -0.5240 -0.6378  0.1401
  555MOL0     C74806   6.178   8.094   1.139  0.1688  0.2966  0.3241
  555MOL0     N74807   6.111   8.189   1.050 -0.3029 -0.7457  0.2486
  555MOL0     C74808   5.984   8.204   1.027 -0.6689 -0.4012 -0.0987
  555MOL0     C74809   5.981   8.303   0.936 -0.0375  0.6687  1.0006
  555MOL0     C74810   5.854   8.366   0.876 -0.4491  1.0928  0.0454
  555MOL0     C74811   5.840   8.517   0.922  0.5993  0.5536  0.1629
  555MOL0     C74812   5.792   8.526   1.062  0.6687 -0.1584  0.5880
  555MOL0     C74813   5.799   8.664   1.125  0.4686 -0.3871 -0.3710
  555MOL0     O74814   5.733   8.774   1.060  0.3066 -0.3678  0.3995
  555MOL0     C74815   5.597   8.801   1.070  0.4945  0.5333 -0.3813
  555MOL0     C74816   5.503   8.721   1.145  0.1097 -0.5523 -0.7404
  555MOL0     C74817   5.371   8.770   1.154  0.7880  0.1727 -0.3875
  555MOL0     C74818   5.279   8.685   1.244 -0.2929 -0.1995  0.0683
  555MOL0     C74819   5.323   8.890   1.095 -0.0848 -0.1456 -0.2926
  555MOL0     C74820   5.181   8.947   1.095 -0.2050 -0.4187  1.0094
  555MOL0     O74821   5.157   9.066   1.033 -0.3057 -0.5854  0.1004
  555MOL0     C74822   5.031   9.106   1.028  1.4434 -0.1941  0.8119
  555MOL0     C74823   4.969   9.091   0.910  0.1853 -0.1685 -0.1895
  555MOL0     C74824   4.844   9.144   0.891  0.4846 -0.5442  0.4951
  555MOL0     C74825   4.776   9.214   0.996 -0.0632 -0.8363 -0.1991
  555MOL0     O74826   4.650   9.275   0.980 -0.9992  0.2297  0.8604
  555MOL0     C74827   4.554   9.184   0.932 -0.1125 -0.2041 -0.2997
  555MOL0     C74828   4.419   9.223   0.966  0.0221 -1.6966 -0.4327
  555MOL0     C74829   4.320   9.116   0.927 -0.1578 -0.6185  0.5291
  555MOL0     C74830   4.299   9.020   1.048 -0.0120  0.0310 -0.5658
  555MOL0     C74831   4.208   9.075   1.164 -0.5357 -0.1389  0.5550
  555MOL0     C74832   4.059   9.039   1.140  0.4222  0.2002 -0.5805
  555MOL0     C74833   3.983   9.142   1.046  0.4840 -0.0647 -0.3941
  555MOL0     C74834   3.931   9.069   0.923 -0.0481 -0.0553  0.2453
  555MOL0    Cl74835   3.845   9.190   0.815 -0.2049  0.3336  0.0040
  555MOL0     C74836   4.835   9.229   1.119  0.6301 -0.0830  0.6969
  555MOL0     C74837   4.962   9.165   1.135 -0.0091 -0.2394  1.0513
  555MOL0     O74838   5.096   8.874   1.139 -0.1583  0.3991  0.3941
  555MOL0     C74839   5.427   8.960   1.028 -0.2839  0.1297  1.3837
  555MOL0     C74840   5.554   8.915   1.006  0.0011  0.4518  1.1519
  555MOL0     N74841   6.109   8.338   0.896  0.4914  0.2668 -0.3062
  555MOL0     N74842   6.181   8.278   0.972 -0.0288  0.5208  0.2549
  555MOL0     C74843   6.147   7.748   1.773 -0.3371 -0.4628  0.0936
  555MOL0     C74844   6.267   7.805   1.815  0.3173  0.3062  0.4431
  555MOL0     C74845   6.556   8.145   1.797 -0.4179 -0.0538 -0.2555
  555MOL0     C74846   6.619   8.211   1.688  0.6572  0.0859 -0.2792
  555MOL0     C74847   6.755   8.240   1.686 -0.1986 -1.7372 -0.0787
  555MOL0     C74848   6.832   8.215   1.803 -0.4945 -0.5162  0.4501
  555MOL0     O74849   6.965   8.237   1.810 -0.2295  0.1132 -0.5285
  555MOL0     C74850   7.039   8.288   1.689 -0.0035  1.0936 -0.3042
  555MOL0     C74851   7.177   8.318   1.733 -0.5024 -0.5627  0.4907
  555MOL0     C74852   7.270   8.198   1.743 -0.5529 -0.0075 -0.1654
  555MOL0     C74853   7.421   8.237   1.774  0.0477  0.1008 -0.0155
  555MOL0     C74854   7.501   8.266   1.654  0.1691  0.8541 -0.5452
  555MOL0     C74855   7.579   8.282   1.563 -0.5469 -0.3139 -0.0936
  555MOL0     C74856   6.771   8.155   1.907 -0.6329 -0.2164  0.4818
  555MOL0     C74857   6.634   8.119   1.908 -0.0902 -0.2550 -0.1467
  555MOL0     H74858   6.132   8.088   1.946 -3.4281  1.7169 -2.1479
  555MOL0     H74859   5.931   7.964   1.922  1.0184  2.1490  0.2259
  555MOL0     H74860   5.959   7.563   1.693 -0.6240 -0.5817 -0.3959
  555MOL0     H74861   5.790   7.605   1.707 -0.1550 -0.1445 -1.9486
  555MOL0     H74862   5.814   7.621   1.480 -1.6622 -0.4278  1.2936
  555MOL0     H74863   5.809   7.787   1.523  1.6024 -0.2277 -2.5625
  555MOL0     H74864   6.084   7.689   1.531  0.3857  2.0126 -0.5631
  555MOL0     H74865   5.997   7.690   1.371 -1.1235 -1.1079  0.1602
  555MOL0     H74866   5.946   7.926   1.402 -0.7328 -1.0692 -1.1602
  555MOL0     H74867   6.018   7.922   1.566  1.1119 -0.7550 -0.2102
  555MOL0     H74868   6.240   7.865   1.465 -0.6931 -2.1183 -0.9028
  555MOL0     H74869   6.176   7.865   1.302  1.3192  0.1724  0.0853
  555MOL0     H74870   6.206   8.104   1.488 -0.6014  1.5655 -0.4489
  555MOL0     H74871   6.330   8.050   1.387  0.2897  1.5782  0.3281
  555MOL0     H74872   6.045   8.141   1.298 -0.1815  0.1539  2.1528
  555MOL0     H74873   6.194   8.233   1.300  2.8829 -1.5511 -1.7236
  555MOL0     H74874   6.144   7.992   1.120 -1.9219  0.0924  4.0957
  555MOL0     H74875   6.286   8.098   1.124  0.1030  1.3361  0.0572
  555MOL0     H74876   5.899   8.146   1.062 -0.7967  0.1716  0.5737
  555MOL0     H74877   5.871   8.360   0.769 -0.1339 -3.1584  0.1721
  555MOL0     H74878   5.764   8.305   0.891  0.1092  0.3686  0.5633
  555MOL0     H74879   5.771   8.563   0.850 -0.1604 -2.0930 -0.8925
  555MOL0     H74880   5.934   8.573   0.917  0.1808  1.2602  0.0197
  555MOL0     H74881   5.861   8.467   1.123  0.4744  1.4158  2.4385
  555MOL0     H74882   5.686   8.497   1.059  0.2944  1.1430 -2.5719
  555MOL0     H74883   5.906   8.681   1.139  0.4110 -1.7883  2.5839
  555MOL0     H74884   5.756   8.651   1.224  1.0974  2.0043  0.2872
  555MOL0     H74885   5.533   8.624   1.182  0.3732 -0.0180  0.5223
  555MOL0     H74886   5.231   8.756   1.313  0.2574 -0.6780  0.9701
  555MOL0     H74887   5.211   8.624   1.184 -1.9491  1.4815  0.1590
  555MOL0     H74888   5.339   8.622   1.311  0.1922  1.6813  1.5065
  555MOL0     H74889   5.025   9.057   0.824  3.0861  2.8069  0.3347
  555MOL0     H74890   4.795   9.130   0.795 -2.0286  3.2509  1.0204
  555MOL0     H74891   4.572   9.166   0.826  1.3151  0.2957 -0.1595
  555MOL0     H74892   4.575   9.091   0.986 -0.4501  0.2497  0.6462
  555MOL0     H74893   4.409   9.245   1.073 -2.0497  0.0816 -0.9105
  555MOL0     H74894   4.393   9.312   0.908  1.5725 -1.4025 -0.7073
  555MOL0     H74895   4.352   9.066   0.835  2.0310  1.5922 -0.0163
  555MOL0     H74896   4.221   9.159   0.909 -0.0684  0.8484  2.9613
  555MOL0     H74897   4.261   8.922   1.018  0.4687  0.2666 -2.0116
  555MOL0     H74898   4.396   8.997   1.094  0.4243  1.9143 -0.4502
  555MOL0     H74899   4.222   9.182   1.185  2.8876 -0.5948  1.1705
  555MOL0     H74900   4.247   9.017   1.248  0.4275 -1.5330 -0.7971
  555MOL0     H74901   4.042   8.936   1.107  0.7107 -0.0292 -0.0288
  555MOL0     H74902   4.012   9.052   1.238  0.6807  0.7591 -0.5298
  555MOL0     H74903   4.054   9.222   1.026 -0.3845  0.5057 -1.2904
  555MOL0     H74904   3.897   9.183   1.100 -0.6987 -1.1050 -1.4042
  555MOL0     H74905   3.878   8.978   0.951  0.0581 -0.5777 -1.1458
  555MOL0     H74906   4.014   9.036   0.860  1.4625  1.7888  1.1768
  555MOL0     H74907   4.788   9.291   1.195 -3.0788  0.7209 -2.0124
  555MOL0     H74908   5.027   9.181   1.221 -0.1723 -0.6227  1.2447
  555MOL0     H74909   5.408   9.053   0.975  0.2514 -1.4640 -1.7949
  555MOL0     H74910   5.631   8.970   0.953  2.2369 -3.5407 -0.2021
  555MOL0     H74911   6.169   7.648   1.738  3.7986  0.6644 -1.0464
  555MOL0     H74912   6.351   7.751   1.773  0.5416 -0.4098  1.7537
  555MOL0     H74913   6.560   8.221   1.597  1.3380 -0.6923 -0.8166
  555MOL0     H74914   6.804   8.268   1.594 -0.3434 -0.6055  0.1777
  555MOL0     H74915   7.052   8.209   1.615  0.8067  2.0684 -1.2450
  555MOL0     H74916   6.992   8.377   1.645 -0.5652  0.7366 -0.4339
  555MOL0     H74917   7.183   8.393   1.812  1.6679  0.0629 -0.1841
  555MOL0     H74918   7.213   8.376   1.647 -4.6476 -0.8401 -1.6876
  555MOL0     H74919   7.259   8.133   1.655 -1.5620  0.7429 -0.6111
  555MOL0     H74920   7.228   8.138   1.824 -2.7052  0.7346 -0.6722
  555MOL0     H74921   7.467   8.152   1.825 -0.3368 -0.3578 -0.4284
  555MOL0     H74922   7.427   8.322   1.842  2.6550  0.2180 -0.2861
  555MOL0     H74923   7.656   8.296   1.490  1.2984 -1.0318  1.6251
  555MOL0     H74924   6.838   8.126   1.987  3.3552  2.3838 -1.5683
  555MOL0     H74925   6.595   8.059   1.989  0.1525  1.1902  1.0804
  556MOL0     O74926   3.556  10.875   5.416 -0.0206  0.0034 -0.0545
  556MOL0     C74927   3.613  10.843   5.522 -0.1262  0.0653 -0.4337
  556MOL0     O74928   3.556  10.807   5.641  0.4028 -0.0617 -0.1885
  556MOL0     C74929   3.423  10.849   5.660  0.5769 -0.2232  0.3610
  556MOL0     C74930   3.344  10.762   5.723 -0.0441  0.5761  0.6426
  556MOL0     C74931   3.210  10.793   5.753  0.6070 -0.0823  0.5089
  556MOL0     C74932   3.155  10.918   5.710 -0.0910  0.1546  0.7153
  556MOL0     O74933   3.023  10.953   5.739 -0.0337  0.0493  0.6983
  556MOL0     C74934   2.982  11.091   5.746 -0.1505 -0.4328  0.5174
  556MOL0     C74935   2.827  11.074   5.782 -0.0116 -0.0036  0.6570
  556MOL0     C74936   2.758  11.024   5.648  0.0561 -0.3876 -0.4282
  556MOL0     C74937   2.614  10.972   5.686 -0.8182  0.7336 -0.5593
  556MOL0     C74938   2.532  10.957   5.556  0.6540 -1.0200  0.1170
  556MOL0     C74939   2.500  11.088   5.483 -0.1435  0.5170  0.0186
  556MOL0     C74940   2.389  11.161   5.568 -0.1691 -0.4850  0.1012
  556MOL0     C74941   2.349  11.301   5.502  0.4216 -0.0473  0.2265
  556MOL0     N74942   2.461  11.390   5.524  0.0069 -0.0074 -0.1379
  556MOL0     C74943   2.533  11.410   5.642  0.1140  0.1455  0.2604
  556MOL0     C74944   2.641  11.476   5.596  0.1544 -0.2800 -0.5607
  556MOL0     C74945   2.749  11.549   5.679  0.4542  0.0607 -0.3162
  556MOL0     C74946   2.884  11.481   5.656  0.8859  0.3700 -0.2729
  556MOL0     C74947   2.939  11.441   5.516 -0.1980 -0.4429  0.1573
  556MOL0     C74948   3.101  11.442   5.523  0.3197 -0.0761  1.1123
  556MOL0     O74949   3.149  11.377   5.637  0.3665 -0.5711 -0.1872
  556MOL0     C74950   3.281  11.351   5.655  0.1365  0.7697  0.4650
  556MOL0     C74951   3.363  11.308   5.548  0.2191 -0.4407  0.2451
  556MOL0     C74952   3.506  11.296   5.559 -0.1455  0.2002 -0.3682
  556MOL0     C74953   3.577  11.272   5.437 -0.6400 -0.3099  0.2863
  556MOL0     C74954   3.573  11.323   5.686  0.5105  0.3063  0.1413
  556MOL0     C74955   3.716  11.310   5.708 -0.7146  0.5156 -1.1348
  556MOL0     O74956   3.799  11.315   5.602 -0.2880 -0.0280  0.7868
  556MOL0     C74957   3.926  11.263   5.629  0.3361 -0.2267 -0.4870
  556MOL0     C74958   4.006  11.352   5.698 -0.4865 -0.1242 -0.6054
  556MOL0     C74959   4.138  11.315   5.734  0.0264  0.5272  0.7890
  556MOL0     C74960   4.189  11.186   5.692 -0.2085  0.5121  0.5296
  556MOL0     O74961   4.304  11.133   5.739 -0.6203  0.2432  0.0973
  556MOL0     C74962   4.377  11.210   5.843 -0.4004  0.2898  0.0387
  556MOL0     C74963   4.514  11.139   5.878 -0.6198  0.3615  0.0831
  556MOL0     C74964   4.597  11.142   5.754 -0.1263 -0.2180  0.2433
  556MOL0     C74965   4.736  11.085   5.775  0.3373 -0.1889  0.4225
  556MOL0     C74966   4.808  11.028   5.645 -0.6538  0.1332  0.1477
  556MOL0     C74967   4.949  10.965   5.670 -0.0280 -0.3088  0.3177
  556MOL0     C74968   4.945  10.843   5.764  0.4728  0.1091 -0.9936
  556MOL0     C74969   5.035  10.731   5.730  0.0237 -1.1202  0.7534
  556MOL0    Cl74970   5.223  10.762   5.695  0.0805 -0.0882  0.1871
  556MOL0     C74971   4.106  11.103   5.620 -0.3832  0.3571  0.1453
  556MOL0     C74972   3.975  11.144   5.585 -0.0879  0.0473 -0.6545
  556MOL0     O74973   3.744  11.273   5.821  0.6021  0.0092 -0.6072
  556MOL0     C74974   3.483  11.344   5.798 -0.6579  0.0419  0.8367
  556MOL0     C74975   3.347  11.373   5.777 -0.2608 -0.1411 -0.8231
  556MOL0     N74976   2.643  11.500   5.463 -0.8369  0.2700  0.4146
  556MOL0     N74977   2.532  11.459   5.416 -0.6677 -1.1267 -0.5135
  556MOL0     C74978   3.239  11.012   5.652 -1.1593  0.0923  0.2283
  556MOL0     C74979   3.375  10.978   5.629  0.1600 -0.2155 -0.1844
  556MOL0     C74980   3.761  10.819   5.521  0.1784  0.3754  0.2362
  556MOL0     C74981   3.838  10.850   5.408 -0.6367  0.1777  0.7955
  556MOL0     C74982   3.982  10.834   5.410  0.1065  1.0133 -0.6097
  556MOL0     C74983   4.039  10.769   5.522 -0.4938 -0.4944 -0.0082
  556MOL0     O74984   4.165  10.740   5.509  0.4383  0.2586  0.5356
  556MOL0     C74985   4.250  10.711   5.618  1.5235 -0.8645 -0.1496
  556MOL0     C74986   4.390  10.688   5.562  0.2764 -0.2987 -0.0878
  556MOL0     C74987   4.472  10.623   5.671  0.1513  0.0347  0.4627
  556MOL0     C74988   4.621  10.638   5.636  0.0782  0.6547 -0.4043
  556MOL0     C74989   4.654  10.573   5.509 -1.0266 -0.1505 -0.1909
  556MOL0     C74990   4.692  10.519   5.406  0.4265 -0.1268 -0.1365
  556MOL0     C74991   3.960  10.745   5.633  0.5774  0.1491  1.0017
  556MOL0     C74992   3.826  10.772   5.638 -1.1873 -0.4450 -0.7695
  556MOL0     H74993   3.398  10.669   5.734  0.4517  0.9433  1.4443
  556MOL0     H74994   3.145  10.724   5.807 -1.9264  1.5858 -0.2463
  556MOL0     H74995   3.045  11.147   5.816 -1.3964 -1.6077  2.6635
  556MOL0     H74996   3.002  11.135   5.648  6.2577  3.1559  2.8103
  556MOL0     H74997   2.833  11.003   5.865  1.7036 -1.4527 -0.6175
  556MOL0     H74998   2.774  11.167   5.805 -1.1320 -0.9960  2.2297
  556MOL0     H74999   2.760  11.109   5.580  0.8075  1.1488  1.4060
  556MOL0     H75000   2.814  10.942   5.603  1.1679  0.4278 -0.5618
  556MOL0     H75001   2.618  10.869   5.723  1.4994  0.9992  0.1278
  556MOL0     H75002   2.566  11.035   5.761  0.3323  0.8848  0.0890
  556MOL0     H75003   2.564  10.889   5.476 -0.8735 -1.9998  0.2970
  556MOL0     H75004   2.435  10.914   5.582  1.2330 -1.1830  2.1357
  556MOL0     H75005   2.582  11.161   5.471 -0.1429  0.9919  2.3426
  556MOL0     H75006   2.460  11.075   5.382  0.6653  0.2863 -0.2845
  556MOL0     H75007   2.303  11.094   5.566 -0.3869 -0.2234 -2.2271
  556MOL0     H75008   2.428  11.188   5.667  0.2085 -0.1588 -0.1331
  556MOL0     H75009   2.266  11.348   5.555 -0.7847 -1.3320 -0.4316
  556MOL0     H75010   2.317  11.291   5.398 -0.2127 -2.1888  0.5788
  556MOL0     H75011   2.508  11.366   5.738  1.0396 -2.9016 -0.8038
  556MOL0     H75012   2.757  11.649   5.636  0.7759  0.3565  0.4012
  556MOL0     H75013   2.710  11.554   5.781 -3.8459 -2.6034 -1.5751
  556MOL0     H75014   2.874  11.383   5.703  1.5203 -0.6161 -2.0656
  556MOL0     H75015   2.952  11.544   5.714 -2.5914  3.0936  1.2314
  556MOL0     H75016   2.906  11.506   5.435 -0.6910  0.4115  1.0180
  556MOL0     H75017   2.886  11.348   5.492 -2.8903  0.5948  1.5687
  556MOL0     H75018   3.142  11.543   5.537  1.5696 -0.6472  1.7839
  556MOL0     H75019   3.142  11.402   5.429  3.5276  3.1673  0.8785
  556MOL0     H75020   3.314  11.289   5.453 -0.0373  1.4090 -0.0299
  556MOL0     H75021   3.649  11.192   5.459 -2.5728 -1.9531  0.9389
  556MOL0     H75022   3.507  11.236   5.361  0.4801 -2.4656  0.1858
  556MOL0     H75023   3.624  11.365   5.403 -0.2468 -0.2383  1.0079
  556MOL0     H75024   3.979  11.450   5.738  0.1745 -0.1112 -0.1749
  556MOL0     H75025   4.197  11.388   5.788  2.2332 -0.3885 -0.2430
  556MOL0     H75026   4.401  11.307   5.798  4.8038 -0.7303  0.0002
  556MOL0     H75027   4.323  11.234   5.935 -1.4425 -0.7258 -0.2789
  556MOL0     H75028   4.570  11.187   5.958  1.2833 -2.2426  0.4430
  556MOL0     H75029   4.501  11.035   5.910  0.1069 -0.2664 -1.5376
  556MOL0     H75030   4.598  11.244   5.714 -1.0755 -0.2803  0.0339
  556MOL0     H75031   4.544  11.096   5.670 -1.8282  1.7812  0.1126
  556MOL0     H75032   4.801  11.169   5.800 -0.4569  0.2122  1.2067
  556MOL0     H75033   4.731  11.012   5.856  2.2447 -1.3921 -0.4585
  556MOL0     H75034   4.816  11.101   5.564 -1.7620  0.5885  0.4307
  556MOL0     H75035   4.748  10.948   5.600 -1.3372  1.6236 -1.6982
  556MOL0     H75036   4.987  10.939   5.570  1.3140 -0.7219  0.9142
  556MOL0     H75037   5.024  11.036   5.705  1.1525 -2.2310  1.8761
  556MOL0     H75038   4.845  10.797   5.765  0.8486 -0.7213 -0.1171
  556MOL0     H75039   4.968  10.886   5.862 -0.3440  1.8080 -1.5063
  556MOL0     H75040   4.991  10.681   5.643  0.3560  3.7515 -2.6301
  556MOL0     H75041   5.041  10.669   5.820 -0.2148 -1.6937  0.3787
  556MOL0     H75042   4.139  11.008   5.579 -1.4717  0.2862 -0.6171
  556MOL0     H75043   3.904  11.087   5.527 -0.5523 -1.5486  1.3613
  556MOL0     H75044   3.516  11.353   5.901  0.7835 -1.1992  0.5196
  556MOL0     H75045   3.285  11.399   5.862  1.3324  1.2067 -0.0239
  556MOL0     H75046   3.206  11.109   5.617 -2.0805 -0.4954 -0.5733
  556MOL0     H75047   3.434  11.053   5.576 -2.4025 -0.2450 -3.3481
  556MOL0     H75048   3.785  10.891   5.322  1.7275 -0.4303 -1.0560
  556MOL0     H75049   4.045  10.850   5.323  0.7751 -0.3647 -0.3934
  556MOL0     H75050   4.246  10.803   5.678 -1.7698 -1.4871  0.8163
  556MOL0     H75051   4.212  10.628   5.678  1.5533 -0.2217  0.7829
  556MOL0     H75052   4.442  10.781   5.535 -1.0204  1.3878  2.7841
  556MOL0     H75053   4.388  10.616   5.479  1.2582 -3.0911  2.1476
  556MOL0     H75054   4.447  10.517   5.679  0.3228  0.0135  0.7517
  556MOL0     H75055   4.448  10.677   5.763 -2.4106  2.1599 -1.3274
  556MOL0     H75056   4.681  10.596   5.717 -1.4413  2.2537  1.6444
  556MOL0     H75057   4.647  10.742   5.653 -0.5327  0.6096  0.9868
  556MOL0     H75058   4.739  10.462   5.328  0.9102 -0.5765  0.4760
  556MOL0     H75059   4.014  10.705   5.719  0.9200  0.9970  1.1938
  556MOL0     H75060   3.777  10.746   5.731 -1.8096 -0.3319 -1.0605
  557MOL0     O75061   6.045   8.497   9.666 -0.0862  0.0720 -0.1543
  557MOL0     C75062   6.077   8.619   9.648  0.0813  0.1798 -0.5297
  557MOL0     O75063   5.999   8.724   9.674 -0.5765 -0.1797  0.2076
  557MOL0     C75064   5.874   8.708   9.741 -0.3028 -0.8312 -1.2136
  557MOL0     C75065   5.769   8.796   9.706 -0.5345  0.1436  0.1975
  557MOL0     C75066   5.649   8.799   9.774 -0.4999  0.3045  0.0598
  557MOL0     C75067   5.613   8.698   9.861  0.2739 -0.8114 -0.4565
  557MOL0     O75068   5.480   8.704   9.883 -0.1973  0.6639 -0.0200
  557MOL0     C75069   5.426   8.592   9.949 -0.3592  0.4968  0.8324
  557MOL0     C75070   5.300   8.553   9.884  0.3819  0.5060  0.3599
  557MOL0     C75071   5.188   8.637   9.914 -0.2939 -0.2995 -0.4584
  557MOL0     C75072   5.053   8.613   9.843 -0.3263  0.3835  0.8375
  557MOL0     C75073   4.938   8.697   9.902  0.2066  0.2880 -0.2270
  557MOL0     C75074   4.961   8.850   9.880  0.5756 -0.0515 -0.2943
  557MOL0     C75075   4.829   8.923   9.896  0.5439  0.0124 -0.5649
  557MOL0     C75076   4.709   8.900   9.797 -0.3109 -0.1636  0.0322
  557MOL0     N75077   4.599   8.985   9.821  0.4081 -0.4344 -0.1317
  557MOL0     C75078   4.490   8.968   9.906 -0.5374  0.2762 -0.1243
  557MOL0     C75079   4.408   9.068   9.878  0.8064  0.5097 -0.1638
  557MOL0     C75080   4.273   9.092   9.947  0.3228 -0.2765  0.7018
  557MOL0     C75081   4.293   9.205  10.045  0.4876 -0.9502  0.4300
  557MOL0     C75082   4.168   9.267  10.106  0.3947 -0.4109  0.2691
  557MOL0     C75083   4.049   9.269  10.004 -0.1242  0.2217  0.0463
  557MOL0     O75084   3.937   9.340  10.055  0.1535 -0.5428 -0.7323
  557MOL0     C75085   3.817   9.277  10.061 -0.3332 -0.6564 -0.6074
  557MOL0     C75086   3.803   9.152  10.119 -0.2449  0.5780  0.5085
  557MOL0     C75087   3.683   9.080  10.126  0.6013 -0.3783 -0.5903
  557MOL0     C75088   3.692   8.938  10.156 -1.0598  0.1613 -0.4734
  557MOL0     C75089   3.563   9.143  10.073  0.5072  0.6841  0.5795
  557MOL0     C75090   3.423   9.084  10.069 -0.2377  0.0371  0.5327
  557MOL0     O75091   3.328   9.136   9.982  0.3184  1.0422 -0.0577
  557MOL0     C75092   3.214   9.064   9.967 -0.5680  1.1054 -0.6717
  557MOL0     C75093   3.184   8.960   9.883 -0.5666  0.0994 -0.3754
  557MOL0     C75094   3.061   8.888   9.883 -0.4611 -0.1602 -0.9970
  557MOL0     C75095   2.964   8.932   9.976 -0.7152 -0.1309  0.1787
  557MOL0     O75096   2.840   8.877   9.980  0.0856  0.5983 -0.6218
  557MOL0     C75097   2.771   8.877   9.854  0.2264  0.6089 -0.5878
  557MOL0     C75098   2.620   8.861   9.869  0.1625 -0.1742  0.0165
  557MOL0     C75099   2.544   8.874   9.738 -0.3920 -0.0340 -0.1089
  557MOL0     C75100   2.398   8.926   9.758 -0.0262  0.0593 -0.3534
  557MOL0     C75101   2.303   8.906   9.649  0.2068  0.7300  0.5456
  557MOL0     C75102   2.341   8.960   9.507  0.3567 -0.3090 -0.4655
  557MOL0     C75103   2.238   8.908   9.411 -0.3555 -0.2116 -0.0079
  557MOL0     C75104   2.274   8.767   9.357  0.5728  1.0859  0.3774
  557MOL0    Cl75105   2.141   8.703   9.243 -0.0242 -0.4209  0.1300
  557MOL0     C75106   2.991   9.040  10.062  0.0080  0.7226  0.7849
  557MOL0     C75107   3.121   9.099  10.061  0.8626 -0.7518 -0.3255
  557MOL0     O75108   3.400   8.983  10.136 -0.2243  0.0749  0.7201
  557MOL0     C75109   3.576   9.265  10.004  0.5928  0.1122 -0.5836
  557MOL0     C75110   3.697   9.332  10.005  0.1873 -0.8533  0.1005
  557MOL0     N75111   4.450   9.133   9.766  0.6023  0.2167  0.2648
  557MOL0     N75112   4.566   9.086   9.733 -0.2752  0.7340  0.2639
  557MOL0     C75113   5.713   8.606   9.900 -0.0272  0.7506  0.8860
  557MOL0     C75114   5.850   8.614   9.847  0.1658 -0.3493 -0.2391
  557MOL0     C75115   6.210   8.648   9.592 -0.0861  0.1648  0.7455
  557MOL0     C75116   6.310   8.547   9.572  0.0112  0.2738 -0.5361
  557MOL0     C75117   6.440   8.574   9.533 -0.6820 -0.0261  0.8995
  557MOL0     C75118   6.482   8.708   9.497 -0.0564  1.2049  0.3427
  557MOL0     O75119   6.613   8.725   9.458  0.0638 -0.4240 -0.4054
  557MOL0     C75120   6.714   8.618   9.442 -0.4061  0.0126  0.6556
  557MOL0     C75121   6.845   8.685   9.400  0.4215  0.4546  0.2627
  557MOL0     C75122   6.923   8.742   9.517 -0.0433 -0.9167 -1.1410
  557MOL0     C75123   6.906   8.892   9.513  0.4540 -0.0462 -0.6887
  557MOL0     C75124   7.009   8.946   9.427  0.2369  0.2613 -0.7189
  557MOL0     C75125   7.064   9.017   9.340 -0.5666  1.1350 -0.1035
  557MOL0     C75126   6.387   8.805   9.505 -0.0781  0.7111 -0.3860
  557MOL0     C75127   6.246   8.778   9.547  0.5308 -0.3514  0.1327
  557MOL0     H75128   5.794   8.858   9.621  0.8683  1.4056  1.4745
  557MOL0     H75129   5.575   8.866   9.733 -1.6752 -0.0801  1.4733
  557MOL0     H75130   5.485   8.500   9.951 -0.7489  0.2292  0.2962
  557MOL0     H75131   5.409   8.612  10.055 -1.1464 -1.0149  1.0301
  557MOL0     H75132   5.307   8.555   9.775  1.1060 -1.8500  0.3091
  557MOL0     H75133   5.270   8.454   9.919  1.1775 -0.3938 -1.4270
  557MOL0     H75134   5.170   8.622  10.020  0.7566 -1.5161 -0.4323
  557MOL0     H75135   5.225   8.739   9.897  0.1763  0.0983  2.4743
  557MOL0     H75136   5.070   8.644   9.740  0.8049  1.6735  1.3682
  557MOL0     H75137   5.030   8.508   9.860 -2.1221  0.9777  2.5484
  557MOL0     H75138   4.846   8.662   9.854  0.5925 -1.8986  0.5054
  557MOL0     H75139   4.919   8.680  10.008  0.2129 -1.5147 -0.4743
  557MOL0     H75140   5.025   8.878   9.964 -2.3557 -1.7662  2.7386
  557MOL0     H75141   5.011   8.873   9.786  1.5763 -2.0308 -0.2956
  557MOL0     H75142   4.797   8.909  10.000  1.6398  0.7218 -0.1204
  557MOL0     H75143   4.863   9.026   9.895  4.1196 -1.0243 -0.2297
  557MOL0     H75144   4.678   8.795   9.799  0.4996 -0.4353  2.9081
  557MOL0     H75145   4.744   8.922   9.696  0.0383 -0.9223 -0.0164
  557MOL0     H75146   4.468   8.906   9.992  0.4058 -0.2033 -0.2116
  557MOL0     H75147   4.199   9.126   9.874  0.9036 -1.1203 -0.3198
  557MOL0     H75148   4.243   8.999   9.996  1.2523 -0.6416  0.5935
  557MOL0     H75149   4.337   9.275   9.974  0.2432 -1.9448 -0.7306
  557MOL0     H75150   4.363   9.177  10.124 -0.5849 -0.2718  1.6542
  557MOL0     H75151   4.180   9.370  10.141 -2.9431  0.4887 -0.8716
  557MOL0     H75152   4.143   9.209  10.195  1.9946 -0.3784  0.7594
  557MOL0     H75153   4.020   9.167   9.978 -2.2964  1.2387 -1.7631
  557MOL0     H75154   4.086   9.328   9.920  2.1687  0.8927  1.4297
  557MOL0     H75155   3.887   9.108  10.172 -0.6231 -0.7331  0.0447
  557MOL0     H75156   3.681   8.880  10.064  1.8717 -0.1276 -0.7465
  557MOL0     H75157   3.790   8.929  10.204 -1.1973  1.9055  0.1885
  557MOL0     H75158   3.623   8.903  10.233 -1.9442 -0.1677 -1.3951
  557MOL0     H75159   3.264   8.938   9.812  0.0921  2.2771 -0.3667
  557MOL0     H75160   3.051   8.799   9.822  1.4056 -0.8713 -0.3150
  557MOL0     H75161   2.779   8.971   9.799 -0.2198 -0.2568 -2.1968
  557MOL0     H75162   2.816   8.795   9.797  0.6264  0.5861 -0.2411
  557MOL0     H75163   2.595   8.767   9.918  0.8392 -0.5366 -0.3293
  557MOL0     H75164   2.589   8.939   9.939  0.1351 -2.3551  2.5631
  557MOL0     H75165   2.537   8.775   9.694 -3.2331  0.4694 -1.0019
  557MOL0     H75166   2.586   8.941   9.662 -2.1315  1.6195  0.2878
  557MOL0     H75167   2.355   8.875   9.846  0.9203 -2.7855 -1.4255
  557MOL0     H75168   2.403   9.033   9.781 -2.3576  0.4373 -1.2981
  557MOL0     H75169   2.202   8.935   9.677  0.0033 -0.0519  0.6700
  557MOL0     H75170   2.294   8.797   9.640 -1.5887  0.9786 -1.2185
  557MOL0     H75171   2.329   9.069   9.500  1.8042 -0.2119 -3.0282
  557MOL0     H75172   2.444   8.935   9.480 -0.0905 -1.4928 -1.1525
  557MOL0     H75173   2.237   8.973   9.323 -1.1744  0.6658  0.6210
  557MOL0     H75174   2.143   8.911   9.465  1.8596  0.2790  4.2954
  557MOL0     H75175   2.278   8.704   9.446  2.1276  0.8234  0.1554
  557MOL0     H75176   2.371   8.769   9.307 -0.4889  3.7155 -1.8716
  557MOL0     H75177   2.910   9.078  10.124 -0.7207 -0.9618  0.9023
  557MOL0     H75178   3.133   9.185  10.126 -1.0011 -0.4653 -0.3042
  557MOL0     H75179   3.486   9.302   9.957 -0.9003 -1.7489  0.6750
  557MOL0     H75180   3.696   9.435   9.971  1.3284 -1.1140 -0.7795
  557MOL0     H75181   5.681   8.528   9.968  1.4280  1.8355  2.9244
  557MOL0     H75182   5.926   8.539   9.866 -1.4273 -2.3508 -1.2895
  557MOL0     H75183   6.295   8.447   9.611 -0.6888  0.8116  0.6357
  557MOL0     H75184   6.513   8.495   9.548  3.0195  2.8748 -0.1238
  557MOL0     H75185   6.730   8.564   9.535 -0.4568 -1.3017 -0.0744
  557MOL0     H75186   6.681   8.548   9.364 -1.3763  0.6421  0.4791
  557MOL0     H75187   6.828   8.759   9.321  2.5650  1.5224  0.7237
  557MOL0     H75188   6.910   8.607   9.360 -1.3355 -2.5855  2.8364
  557MOL0     H75189   7.026   8.706   9.516  0.4758  0.1766  2.0891
  557MOL0     H75190   6.880   8.717   9.614  1.9646 -0.2961 -0.0452
  557MOL0     H75191   6.898   8.938   9.612 -0.6354 -0.6011 -0.5115
  557MOL0     H75192   6.819   8.918   9.452 -0.2414 -2.0198 -0.6086
  557MOL0     H75193   7.110   9.091   9.277  2.4746  0.3787  1.0580
  557MOL0     H75194   6.419   8.908   9.494 -0.2970  1.3045  3.2411
  557MOL0     H75195   6.176   8.860   9.542  1.6237  0.5976 -0.1929
  558MOL0     O75196   1.461   2.654  10.868  0.0341 -0.2569 -0.8185
  558MOL0     C75197   1.514   2.762  10.889  0.1463 -0.9260 -0.7615
  558MOL0     O75198   1.456   2.887  10.893 -0.0479  0.3880 -0.4151
  558MOL0     C75199   1.324   2.891  10.918 -0.6478 -0.5877 -0.7272
  558MOL0     C75200   1.231   2.921  10.822 -0.1801 -0.4893  0.4511
  558MOL0     C75201   1.092   2.924  10.845  0.2912  0.2413  0.5009
  558MOL0     C75202   1.050   2.919  10.984  0.8542 -0.2357 -0.4632
  558MOL0     O75203   0.917   2.930  11.008 -0.1175  0.0236 -0.0132
  558MOL0     C75204   0.881   3.009  11.128 -0.4428 -0.5502  0.1350
  558MOL0     C75205   0.739   3.058  11.095 -0.9243 -0.1254  0.5501
  558MOL0     C75206   0.638   2.942  11.131  0.1488  0.0109  0.3926
  558MOL0     C75207   0.489   2.994  11.127 -0.9066  0.1886 -0.0055
  558MOL0     C75208   0.407   2.875  11.178  0.2178 -0.0400  0.9788
  558MOL0     C75209   0.290   2.829  11.087  0.0586 -0.2727  0.5223
  558MOL0     C75210   0.176   2.931  11.061 -1.3803  0.1458 -0.3334
  558MOL0     C75211   0.068   2.862  10.977 -0.2352  0.0507  0.2853
  558MOL0     N75212   0.115   2.829  10.842 -0.0830  0.4207 -0.3150
  558MOL0     C75213   0.171   2.712  10.806 -0.4959 -0.6458 -0.5202
  558MOL0     C75214   0.175   2.715  10.672  0.6742 -0.7400  0.1834
  558MOL0     C75215   0.233   2.607  10.585  0.1293 -0.8177 -0.1660
  558MOL0     C75216   0.152   2.478  10.574 -0.6035 -0.0665 -0.1045
  558MOL0     C75217   0.084   2.462  10.436  0.0203  0.5812  0.7312
  558MOL0     C75218  -0.002   2.328  10.423 -0.6817 -0.0621  0.7445
  558MOL0     O75219  -0.081   2.354  10.306 -0.3935  1.0190  0.4477
  558MOL0     C75220  -0.181   2.275  10.264 -0.1643  0.4279 -0.7984
  558MOL0     C75221  -0.249   2.297  10.145  0.4646  0.5795  0.5107
  558MOL0     C75222  -0.359   2.223  10.105 -0.0290  0.0638  0.3549
  558MOL0     C75223  -0.420   2.249   9.968  0.1160  0.3829  0.1506
  558MOL0     C75224  -0.403   2.119  10.190 -0.0424  0.4553 -0.0690
  558MOL0     C75225  -0.524   2.033  10.172 -0.3829 -0.3252 -0.4179
  558MOL0     O75226  -0.540   1.924  10.248 -0.2690  0.9110 -0.1974
  558MOL0     C75227  -0.647   1.841  10.224  0.0122 -0.2370 -0.5571
  558MOL0     C75228  -0.662   1.777  10.101  0.2938 -0.4467 -0.0938
  558MOL0     C75229  -0.778   1.719  10.070 -0.2526  0.1544 -1.1422
  558MOL0     C75230  -0.890   1.705  10.153  0.2850 -0.1629  0.7651
  558MOL0     O75231  -1.008   1.646  10.113 -0.3274  0.4315 -0.0071
  558MOL0     C75232  -0.983   1.505  10.078 -0.4841  0.4242  0.0820
  558MOL0     C75233  -1.106   1.426  10.065  0.7824  0.8373 -0.9227
  558MOL0     C75234  -1.178   1.399  10.209 -0.3513 -0.7647 -0.0034
  558MOL0     C75235  -1.310   1.325  10.182 -0.5951 -0.1568 -0.2115
  558MOL0     C75236  -1.331   1.260  10.313  0.4862  0.1356  0.2919
  558MOL0     C75237  -1.479   1.212  10.334 -0.0013 -0.3599  0.1519
  558MOL0     C75238  -1.518   1.109  10.231 -0.7370 -0.5339  0.6580
  558MOL0     C75239  -1.658   1.055  10.248  0.5144  1.0258  0.4496
  558MOL0    Cl75240  -1.703   0.992  10.413  0.3861 -0.2029  0.1159
  558MOL0     C75241  -0.876   1.778  10.277 -0.2520  0.0424  0.6356
  558MOL0     C75242  -0.760   1.838  10.309  0.5144  0.0875 -0.2834
  558MOL0     O75243  -0.600   2.067  10.081 -0.0952  0.2463 -0.2550
  558MOL0     C75244  -0.322   2.086  10.305  0.2410 -1.4675  0.6183
  558MOL0     C75245  -0.212   2.162  10.338  0.4137 -0.2788  0.2415
  558MOL0     N75246   0.111   2.833  10.626 -0.5728  0.0421  0.3283
  558MOL0     N75247   0.073   2.900  10.730 -0.0244  0.0800 -0.4744
  558MOL0     C75248   1.146   2.908  11.086 -0.9447 -0.2279  0.3788
  558MOL0     C75249   1.283   2.892  11.054  0.2252  0.4176  0.0957
  558MOL0     C75250   1.667   2.753  10.883  0.0864  0.3947  0.1688
  558MOL0     C75251   1.731   2.673  10.799 -0.3173  0.3457  0.7442
  558MOL0     C75252   1.868   2.662  10.791  0.5227 -0.1340 -0.5158
  558MOL0     C75253   1.954   2.740  10.867  0.0632  0.1816  0.2869
  558MOL0     O75254   2.084   2.707  10.853  0.8269 -0.0154  0.1442
  558MOL0     C75255   2.171   2.815  10.900  0.1059  0.0816  0.4383
  558MOL0     C75256   2.303   2.803  10.827  0.6397  1.1184 -0.2487
  558MOL0     C75257   2.399   2.892  10.902 -0.1667 -0.3943 -0.9465
  558MOL0     C75258   2.539   2.863  10.863  0.1144 -0.3483  0.4094
  558MOL0     C75259   2.629   2.956  10.940  0.4441 -0.4013  0.0167
  558MOL0     C75260   2.692   3.039  10.996 -0.2465  0.2053  0.2146
  558MOL0     C75261   1.884   2.836  10.950  0.0512  0.1134 -0.7684
  558MOL0     C75262   1.746   2.843  10.958  0.2483  0.2102  0.8276
  558MOL0     H75263   1.261   2.931  10.719 -0.9081 -1.6503  0.1000
  558MOL0     H75264   1.026   2.926  10.759  0.3867  1.1171  0.4387
  558MOL0     H75265   0.887   2.949  11.219  0.3505 -0.6912 -0.0022
  558MOL0     H75266   0.944   3.098  11.137  0.9313 -1.5540  0.8796
  558MOL0     H75267   0.731   3.146  11.160 -2.1891 -0.7320  1.2418
  558MOL0     H75268   0.727   3.096  10.994 -2.5193  1.2301  1.2043
  558MOL0     H75269   0.654   2.850  11.075  0.2634 -0.1921  0.7561
  558MOL0     H75270   0.654   2.912  11.235  0.6601  2.9084  1.2436
  558MOL0     H75271   0.469   3.084  11.186 -2.4493 -0.9810  1.3399
  558MOL0     H75272   0.471   3.004  11.020 -0.4684  1.4442  0.0185
  558MOL0     H75273   0.472   2.787  11.182  2.3905  1.2455 -2.1372
  558MOL0     H75274   0.367   2.898  11.277 -1.8682 -2.6709  0.8555
  558MOL0     H75275   0.345   2.808  10.995 -2.7685 -2.3876 -0.8727
  558MOL0     H75276   0.244   2.734  11.117  0.5731 -0.0676  2.0392
  558MOL0     H75277   0.150   2.951  11.166  2.1364  1.1319  0.5100
  558MOL0     H75278   0.222   3.018  11.013  0.0967  0.4922  1.5360
  558MOL0     H75279  -0.021   2.924  10.964 -1.7260 -2.0717 -0.2463
  558MOL0     H75280   0.028   2.770  11.021  0.4918 -0.0336  0.7908
  558MOL0     H75281   0.201   2.630  10.871 -0.6773 -0.8082 -0.6411
  558MOL0     H75282   0.246   2.649  10.485 -0.1734  0.2270  0.2160
  558MOL0     H75283   0.333   2.589  10.625 -0.4435  0.0370  1.7580
  558MOL0     H75284   0.079   2.481  10.655 -0.0944  1.1689  0.3170
  558MOL0     H75285   0.217   2.393  10.598  0.3603  0.9554  1.0677
  558MOL0     H75286   0.166   2.446  10.365 -0.3641 -2.2120  0.7894
  558MOL0     H75287   0.028   2.551  10.406  1.1506  0.5780 -1.6780
  558MOL0     H75288  -0.057   2.298  10.513 -1.5999 -0.6308  0.0050
  558MOL0     H75289   0.066   2.245  10.401  0.8542  1.3158  0.1519
  558MOL0     H75290  -0.215   2.377  10.080  2.6216 -1.4012 -0.9643
  558MOL0     H75291  -0.399   2.158   9.911  0.1624  0.8803 -0.6327
  558MOL0     H75292  -0.529   2.257   9.976  0.2627  1.1103  2.0245
  558MOL0     H75293  -0.382   2.337   9.916 -0.9846  1.2333  0.7277
  558MOL0     H75294  -0.575   1.782  10.036  0.5401 -1.7219  0.1108
  558MOL0     H75295  -0.792   1.695   9.965 -1.7535  3.0532 -1.7017
  558MOL0     H75296  -0.947   1.504   9.975 -1.5888  1.1979 -0.3256
  558MOL0     H75297  -0.920   1.443  10.143 -2.6840 -2.5156 -0.3627
  558MOL0     H75298  -1.184   1.456   9.995 -0.9791  3.1709  1.7944
  558MOL0     H75299  -1.083   1.331  10.018 -4.2993 -1.5153  0.6113
  558MOL0     H75300  -1.194   1.492  10.264  2.2765 -1.1726  1.5842
  558MOL0     H75301  -1.108   1.342  10.270 -0.2435 -1.1793 -0.5012
  558MOL0     H75302  -1.393   1.392  10.157  0.3556  1.0419 -0.2497
  558MOL0     H75303  -1.305   1.256  10.098 -0.6655  2.0085 -2.0804
  558MOL0     H75304  -1.303   1.322  10.398  0.6876 -1.8436  1.7414
  558MOL0     H75305  -1.269   1.170  10.319 -0.2943 -0.3266  2.0294
  558MOL0     H75306  -1.475   1.167  10.434  0.4936 -1.3090 -0.2837
  558MOL0     H75307  -1.538   1.304  10.336  2.1226  1.0899  2.2572
  558MOL0     H75308  -1.444   1.029  10.232 -0.1363  0.0109  0.4620
  558MOL0     H75309  -1.526   1.166  10.138  2.3852  0.9408  1.1728
  558MOL0     H75310  -1.675   0.982  10.169 -0.3124  0.5996  1.0128
  558MOL0     H75311  -1.733   1.131  10.225  0.3340  0.9556  0.7925
  558MOL0     H75312  -0.961   1.802  10.341  1.5604  1.9706  2.4822
  558MOL0     H75313  -0.771   1.901  10.397 -1.8203 -0.3829 -0.1831
  558MOL0     H75314  -0.349   1.999  10.364  0.7917 -0.8760  1.7845
  558MOL0     H75315  -0.169   2.137  10.434  2.4346  3.8810  0.6313
  558MOL0     H75316   1.109   2.914  11.187 -0.0104 -2.4912  0.9156
  558MOL0     H75317   1.353   2.872  11.135 -0.3251  3.3057  1.4519
  558MOL0     H75318   1.676   2.600  10.740  0.7092 -1.0892  1.4991
  558MOL0     H75319   1.909   2.583  10.729 -0.6750  1.1063 -3.0199
  558MOL0     H75320   2.123   2.907  10.868  2.2170  1.8445  1.9907
  558MOL0     H75321   2.184   2.814  11.009 -2.5432 -0.9487  0.8014
  558MOL0     H75322   2.283   2.832  10.723 -3.2819  1.0219  0.3037
  558MOL0     H75323   2.334   2.699  10.836  2.5625  1.4233 -2.4112
  558MOL0     H75324   2.391   2.881  11.011 -1.9743  0.0630 -0.9996
  558MOL0     H75325   2.390   2.996  10.870  0.7805 -0.3860 -1.2025
  558MOL0     H75326   2.560   2.862  10.756  1.6089 -2.1550  0.6604
  558MOL0     H75327   2.557   2.759  10.892 -0.2917 -1.1616 -2.0429
  558MOL0     H75328   2.745   3.102  11.064 -0.6812 -1.1102  1.8477
  558MOL0     H75329   1.950   2.900  11.007  0.4081  1.0780 -2.2137
  558MOL0     H75330   1.698   2.917  11.022 -0.5609 -0.7940  1.4071
  559MOL0     O75331   1.484   6.334   2.232  1.0817 -0.5004 -0.2048
  559MOL0     C75332   1.516   6.305   2.344 -0.1555 -0.1127  0.0632
  559MOL0     O75333   1.651   6.303   2.392 -0.4618 -0.0221 -0.2756
  559MOL0     C75334   1.750   6.368   2.308 -0.0358 -0.4660 -0.7031
  559MOL0     C75335   1.874   6.308   2.290  0.2737  0.2632 -2.0187
  559MOL0     C75336   1.977   6.360   2.212 -0.2449  0.0559 -0.1686
  559MOL0     C75337   1.958   6.478   2.148  0.1154 -0.6242 -0.5056
  559MOL0     O75338   2.057   6.541   2.083  0.7564 -0.0538 -0.8305
  559MOL0     C75339   2.148   6.470   2.005 -0.5068  0.2964 -0.7711
  559MOL0     C75340   2.288   6.493   2.061 -0.0501  0.0332  0.2775
  559MOL0     C75341   2.393   6.479   1.946  0.7435  0.0262 -0.3107
  559MOL0     C75342   2.533   6.506   2.003 -0.0309 -0.5023 -0.3188
  559MOL0     C75343   2.549   6.655   2.034 -0.1425  0.1030 -0.6519
  559MOL0     C75344   2.700   6.687   2.078 -0.8249 -1.3333 -0.1091
  559MOL0     C75345   2.692   6.841   2.119 -0.2245 -0.2921  0.0358
  559MOL0     C75346   2.830   6.886   2.170  0.5343  0.1669 -0.3310
  559MOL0     N75347   2.837   7.037   2.193  0.6368 -0.6521  0.3690
  559MOL0     C75348   2.930   7.111   2.266 -0.1872  0.1913  0.3059
  559MOL0     C75349   2.892   7.238   2.249 -0.3985 -0.4362 -0.0505
  559MOL0     C75350   2.973   7.352   2.289 -0.0585 -0.8065 -0.1458
  559MOL0     C75351   2.979   7.354   2.442 -0.7649  0.6089 -0.2695
  559MOL0     C75352   3.039   7.483   2.481 -0.0825 -0.8718  0.0361
  559MOL0     C75353   2.994   7.524   2.623  0.0373  0.0148 -0.6421
  559MOL0     O75354   3.022   7.418   2.716  0.4589 -0.3436  0.0769
  559MOL0     C75355   3.008   7.450   2.850 -0.1758  0.3425 -0.1547
  559MOL0     C75356   2.983   7.578   2.910  0.8051 -0.3637  0.0125
  559MOL0     C75357   2.992   7.601   3.049  0.9546  0.2686 -0.6150
  559MOL0     C75358   2.977   7.750   3.100 -0.2546  0.6156  0.2254
  559MOL0     C75359   3.016   7.499   3.141  0.0348 -0.2449  0.1545
  559MOL0     C75360   3.028   7.514   3.286  0.4613  0.6339 -0.1175
  559MOL0     O75361   3.003   7.403   3.367  0.0736 -0.3489  0.2407
  559MOL0     C75362   3.016   7.425   3.502 -0.2962  0.0937 -0.7560
  559MOL0     C75363   3.134   7.456   3.576 -0.4508  0.0107  0.9170
  559MOL0     C75364   3.131   7.471   3.715  1.3306 -1.2564  0.0665
  559MOL0     C75365   3.018   7.457   3.791 -1.1157  1.0761 -0.4373
  559MOL0     O75366   3.025   7.482   3.924  0.0265 -0.4204  0.4947
  559MOL0     C75367   2.908   7.459   4.005  1.2108  0.2099 -0.2230
  559MOL0     C75368   2.946   7.450   4.153  0.7594  0.4623 -0.0229
  559MOL0     C75369   3.039   7.552   4.219 -0.0262 -0.3681  0.1420
  559MOL0     C75370   2.954   7.664   4.273 -0.3339  0.2223 -0.6562
  559MOL0     C75371   3.042   7.760   4.353  0.8589  0.5036  0.3474
  559MOL0     C75372   2.961   7.859   4.416  0.1108 -0.4934 -0.3501
  559MOL0     C75373   3.048   7.973   4.481  0.2372  0.0621 -0.1450
  559MOL0     C75374   2.954   8.098   4.503 -0.7036 -0.9301 -0.4758
  559MOL0    Cl75375   3.035   8.191   4.640  0.1255 -0.1698 -0.1102
  559MOL0     C75376   2.897   7.427   3.716 -0.0039 -0.3494 -0.1612
  559MOL0     C75377   2.896   7.414   3.578 -0.0236  0.3114  0.0281
  559MOL0     O75378   3.070   7.620   3.332 -0.2054 -0.0011  0.0491
  559MOL0     C75379   3.035   7.375   3.087  0.8081 -0.1261 -0.5012
  559MOL0     C75380   3.030   7.354   2.946  0.6823  0.1482 -0.7902
  559MOL0     N75381   2.779   7.245   2.167 -0.3616  0.9993  0.2962
  559MOL0     N75382   2.745   7.125   2.133 -0.4573 -0.5207 -0.3531
  559MOL0     C75383   1.835   6.540   2.156 -0.2007  0.3582 -0.3760
  559MOL0     C75384   1.731   6.487   2.238 -0.6135  0.1614  0.2463
  559MOL0     C75385   1.408   6.260   2.430  0.3181  0.3329 -0.5973
  559MOL0     C75386   1.445   6.211   2.557 -0.2200 -0.4435  0.1589
  559MOL0     C75387   1.348   6.165   2.637 -0.4323  0.4888 -0.1374
  559MOL0     C75388   1.217   6.162   2.598  0.5091 -0.4328 -0.2875
  559MOL0     O75389   1.126   6.124   2.691 -0.1670 -0.1201 -0.6479
  559MOL0     C75390   1.009   6.054   2.647  0.9559 -0.3000  0.0379
  559MOL0     C75391   0.994   5.930   2.727 -0.3478  1.0648 -0.4057
  559MOL0     C75392   0.937   5.954   2.863 -0.1258 -0.5957  0.4030
  559MOL0     C75393   0.932   5.829   2.947 -0.5066  0.9866  0.3323
  559MOL0     C75394   0.896   5.855   3.084  0.6663 -0.2415 -0.3121
  559MOL0     C75395   0.869   5.888   3.193  0.0684 -0.0532 -0.0366
  559MOL0     C75396   1.179   6.217   2.472  0.0107  0.3860 -0.0715
  559MOL0     C75397   1.275   6.260   2.384  0.7556  0.4246 -0.0476
  559MOL0     H75398   1.900   6.222   2.352 -1.1128 -1.4279 -3.6789
  559MOL0     H75399   2.075   6.314   2.217 -0.8501 -1.1940  2.2689
  559MOL0     H75400   2.115   6.367   1.986 -1.4493  0.2442  0.9151
  559MOL0     H75401   2.149   6.525   1.911 -0.0683 -0.0803 -0.9932
  559MOL0     H75402   2.290   6.593   2.106  0.6811 -0.2838  0.9631
  559MOL0     H75403   2.307   6.424   2.144 -0.4656 -0.2313  0.1574
  559MOL0     H75404   2.394   6.375   1.911  0.4610 -0.0108 -0.2091
  559MOL0     H75405   2.371   6.552   1.868 -0.6308  1.5454  1.4041
  559MOL0     H75406   2.556   6.445   2.090  1.6018  1.2901  0.5935
  559MOL0     H75407   2.610   6.474   1.933  1.1265 -0.2864  0.8146
  559MOL0     H75408   2.530   6.716   1.945 -5.7773 -0.3339 -0.0780
  559MOL0     H75409   2.479   6.684   2.112 -2.6592  0.6928 -2.9846
  559MOL0     H75410   2.732   6.627   2.164 -2.9825 -1.8277  0.4095
  559MOL0     H75411   2.773   6.678   1.997 -1.6732  0.0847 -1.0528
  559MOL0     H75412   2.664   6.905   2.035 -0.2796  1.9480  1.6797
  559MOL0     H75413   2.621   6.858   2.199 -2.7020 -3.3079 -1.3206
  559MOL0     H75414   2.911   6.866   2.099 -1.3260 -2.9176 -1.7858
  559MOL0     H75415   2.840   6.835   2.266 -1.4368  0.7980  0.2529
  559MOL0     H75416   3.025   7.077   2.308 -0.4441  1.9765  2.5198
  559MOL0     H75417   3.073   7.352   2.246 -0.9721  0.2992 -2.4678
  559MOL0     H75418   2.925   7.445   2.257  1.4532 -0.1330 -0.4998
  559MOL0     H75419   3.044   7.274   2.480 -0.7233  1.5745  1.8578
  559MOL0     H75420   2.883   7.332   2.489  1.1238 -2.8168  2.5158
  559MOL0     H75421   3.004   7.569   2.424  0.9853 -0.2952  0.2361
  559MOL0     H75422   3.148   7.474   2.484 -0.1461 -1.4770  2.4045
  559MOL0     H75423   2.890   7.554   2.639  0.2704 -0.7768  3.1699
  559MOL0     H75424   3.059   7.610   2.643  0.5344  0.2931 -3.0927
  559MOL0     H75425   2.964   7.668   2.852 -0.0305  0.9582  2.2400
  559MOL0     H75426   3.072   7.801   3.118  0.6763 -0.9058 -0.2154
  559MOL0     H75427   2.927   7.812   3.025 -2.3466 -1.3671 -0.1141
  559MOL0     H75428   2.911   7.753   3.187 -0.5723  1.5100 -0.0250
  559MOL0     H75429   3.225   7.463   3.518 -1.1923 -1.6619 -0.5311
  559MOL0     H75430   3.229   7.480   3.762  2.6122 -4.0876 -1.7699
  559MOL0     H75431   2.841   7.546   4.005  3.0779  1.7343 -0.9883
  559MOL0     H75432   2.855   7.369   3.974  0.1321  0.1382  1.6412
  559MOL0     H75433   2.863   7.438   4.224  1.9500  1.7170  1.6733
  559MOL0     H75434   2.987   7.349   4.152 -0.0460  0.1217 -0.9646
  559MOL0     H75435   3.111   7.574   4.140 -0.0716 -1.5308 -0.2444
  559MOL0     H75436   3.091   7.503   4.302  0.7473  0.8036  0.3756
  559MOL0     H75437   2.910   7.718   4.189 -0.9733  0.9990  0.1523
  559MOL0     H75438   2.873   7.623   4.336 -0.7906 -0.5419 -1.7110
  559MOL0     H75439   3.114   7.806   4.284 -1.7159  0.5211 -2.5714
  559MOL0     H75440   3.096   7.711   4.434  1.9409 -0.1527 -0.7335
  559MOL0     H75441   2.900   7.914   4.343 -2.1413  0.2277  1.9281
  559MOL0     H75442   2.894   7.810   4.488 -2.2555 -0.5805 -2.4550
  559MOL0     H75443   3.128   8.008   4.415  0.5240 -1.6767 -0.7543
  559MOL0     H75444   3.089   7.941   4.578  1.9432  1.3146 -0.4079
  559MOL0     H75445   2.854   8.070   4.537 -0.0832 -0.1928  2.2042
  559MOL0     H75446   2.941   8.156   4.410 -0.5205  0.6225  0.4270
  559MOL0     H75447   2.807   7.426   3.775  0.0390  1.3578 -0.0136
  559MOL0     H75448   2.805   7.391   3.523  0.4696 -0.2541 -0.5695
  559MOL0     H75449   3.051   7.287   3.149 -1.6795 -1.9836 -2.2901
  559MOL0     H75450   3.035   7.250   2.914  2.4951 -0.2599  0.6954
  559MOL0     H75451   1.811   6.637   2.114 -1.4248 -0.4024 -1.5215
  559MOL0     H75452   1.631   6.531   2.243 -0.4597  0.7719 -1.5841
  559MOL0     H75453   1.548   6.219   2.590  0.0951  0.5319 -0.9810
  559MOL0     H75454   1.370   6.159   2.743 -0.1875  0.7839 -0.1704
  559MOL0     H75455   0.928   6.123   2.672  4.3654  3.9115  0.7027
  559MOL0     H75456   1.005   6.025   2.541 -0.6870 -1.0298  0.2708
  559MOL0     H75457   1.087   5.873   2.740 -1.5141 -0.5620  1.2428
  559MOL0     H75458   0.914   5.874   2.678 -0.1626  0.2554  0.1913
  559MOL0     H75459   0.840   6.002   2.849  1.2978  1.7433 -2.6385
  559MOL0     H75460   1.005   6.026   2.910  1.4986 -2.3282  0.8374
  559MOL0     H75461   1.021   5.766   2.939  0.8665  3.0885 -3.3431
  559MOL0     H75462   0.853   5.767   2.903  1.7704 -2.0847  0.2672
  559MOL0     H75463   0.859   5.894   3.299  2.9741 -3.5958  0.6243
  559MOL0     H75464   1.073   6.218   2.448 -0.1518  3.3217  0.4150
  559MOL0     H75465   1.236   6.302   2.292  1.0945  2.2098  0.5669
  560MOL0     O75466   1.074   6.061   9.180 -0.4260  0.4526 -0.2278
  560MOL0     C75467   1.077   6.144   9.265  0.2625 -0.1722 -0.3080
  560MOL0     O75468   0.971   6.193   9.344  0.1921 -0.1956 -0.3735
  560MOL0     C75469   0.842   6.153   9.319 -0.0344 -0.9336  0.9460
  560MOL0     C75470   0.790   6.091   9.202  0.2769  0.5583  0.4966
  560MOL0     C75471   0.654   6.055   9.195  0.0611  0.4286 -0.3514
  560MOL0     C75472   0.564   6.097   9.304  0.4668 -0.4312  0.9649
  560MOL0     O75473   0.427   6.065   9.306 -0.1226 -0.1890 -0.8911
  560MOL0     C75474   0.376   5.961   9.221  0.0045  0.0019 -0.8621
  560MOL0     C75475   0.229   5.934   9.253  0.0743  0.4835 -0.5955
  560MOL0     C75476   0.153   6.059   9.231 -0.0589  0.1800 -0.1588
  560MOL0     C75477   0.006   6.032   9.253 -1.0394  0.1079  0.5609
  560MOL0     C75478  -0.087   6.154   9.238  0.6810 -0.5831 -0.0217
  560MOL0     C75479  -0.235   6.109   9.223 -0.6022 -0.2704 -0.3253
  560MOL0     C75480  -0.350   6.208   9.269 -0.2294 -0.4915  0.7890
  560MOL0     C75481  -0.354   6.324   9.163  0.3635 -1.2676  0.7917
  560MOL0     N75482  -0.473   6.415   9.193  0.0794  0.9247  0.4968
  560MOL0     C75483  -0.606   6.387   9.177  0.0768  0.1042  0.3745
  560MOL0     C75484  -0.674   6.500   9.212  0.6858  0.3030  0.7402
  560MOL0     C75485  -0.818   6.494   9.217  0.2112 -0.4585  1.3741
  560MOL0     C75486  -0.893   6.630   9.221 -0.5251  0.4323  0.1877
  560MOL0     C75487  -1.039   6.624   9.186 -0.9065 -0.3086 -0.2611
  560MOL0     C75488  -1.105   6.763   9.188 -0.9159  0.2049 -0.5826
  560MOL0     O75489  -1.142   6.791   9.324 -0.4953 -0.7396  0.1883
  560MOL0     C75490  -1.275   6.823   9.347 -0.3134  0.0927  0.7945
  560MOL0     C75491  -1.333   6.944   9.293  1.2438 -0.8574 -0.5038
  560MOL0     C75492  -1.467   6.970   9.300 -0.5240 -0.8553  0.1031
  560MOL0     C75493  -1.520   7.079   9.205 -0.1213 -0.2954 -0.5976
  560MOL0     C75494  -1.557   6.874   9.354 -0.0138  0.1085 -0.0199
  560MOL0     C75495  -1.701   6.880   9.345 -0.2508 -0.6603  0.0159
  560MOL0     O75496  -1.748   7.009   9.336 -0.8482 -0.0673 -0.0398
  560MOL0     C75497  -1.881   7.037   9.309 -0.9780  0.0182 -1.2972
  560MOL0     C75498  -1.923   7.154   9.375  0.3269 -0.0170  0.0198
  560MOL0     C75499  -2.061   7.188   9.380  0.3885 -0.1357 -0.7380
  560MOL0     C75500  -2.150   7.111   9.311  0.4652  0.6464  0.1484
  560MOL0     O75501  -2.277   7.157   9.323 -0.2435 -0.4944 -0.4039
  560MOL0     C75502  -2.388   7.100   9.267 -0.1672 -0.0270 -0.3149
  560MOL0     C75503  -2.426   6.975   9.352  0.3729 -0.4626  0.9661
  560MOL0     C75504  -2.575   6.916   9.327 -0.5855  0.9857 -0.2521
  560MOL0     C75505  -2.693   6.997   9.388 -0.2873 -0.7078  0.1505
  560MOL0     C75506  -2.824   6.931   9.357 -0.5374  0.2293  0.5404
  560MOL0     C75507  -2.952   7.014   9.397  0.1457  0.7268  0.0477
  560MOL0     C75508  -3.078   6.919   9.391  0.3892  0.1441 -0.1223
  560MOL0     C75509  -3.205   6.993   9.426  0.6618  0.4498 -1.2225
  560MOL0    Cl75510  -3.343   6.879   9.430  0.5617 -0.1280  0.1932
  560MOL0     C75511  -2.110   7.006   9.230 -0.9957 -0.2188 -0.6557
  560MOL0     C75512  -1.969   6.974   9.234 -0.0285  0.5880 -0.3302
  560MOL0     O75513  -1.771   6.780   9.351  0.0166 -0.1000  0.1862
  560MOL0     C75514  -1.500   6.753   9.403 -0.1105 -0.7902 -0.8045
  560MOL0     C75515  -1.361   6.725   9.402  0.5110 -0.6447  0.0997
  560MOL0     N75516  -0.580   6.595   9.258  0.1372 -0.2802 -0.1651
  560MOL0     N75517  -0.465   6.542   9.238  0.4512 -0.6771  0.3374
  560MOL0     C75518   0.618   6.154   9.409 -0.0840 -0.1611 -0.4906
  560MOL0     C75519   0.751   6.188   9.419  0.5585 -0.7983  0.5612
  560MOL0     C75520   1.209   6.223   9.282  0.2295 -0.8443  1.7271
  560MOL0     C75521   1.320   6.205   9.206  0.3060 -0.5307  0.3403
  560MOL0     C75522   1.434   6.281   9.214 -0.3410  0.4348 -0.3678
  560MOL0     C75523   1.444   6.382   9.311  0.3614  0.0840  0.2630
  560MOL0     O75524   1.548   6.469   9.318  0.0452  0.3101 -0.2334
  560MOL0     C75525   1.661   6.457   9.230 -0.8651 -0.3883 -0.0058
  560MOL0     C75526   1.759   6.573   9.214 -0.8650  0.2781  0.0342
  560MOL0     C75527   1.685   6.703   9.179 -0.0836  0.1808 -0.4005
  560MOL0     C75528   1.769   6.832   9.176 -0.2124 -0.5305 -0.0224
  560MOL0     C75529   1.684   6.938   9.122 -0.5529 -0.2883 -0.2474
  560MOL0     C75530   1.628   7.034   9.079  0.0871  0.3830 -0.3903
  560MOL0     C75531   1.334   6.390   9.405 -0.2659  1.2178  1.0991
  560MOL0     C75532   1.219   6.318   9.383  0.0577  0.5351 -0.8869
  560MOL0     H75533   0.855   6.051   9.125  1.0054  0.3713  1.2008
  560MOL0     H75534   0.635   5.982   9.118 -1.3618 -1.9061  2.0406
  560MOL0     H75535   0.387   5.992   9.117 -0.5956  0.2664 -0.8555
  560MOL0     H75536   0.436   5.871   9.239  0.3845  0.5449  0.8311
  560MOL0     H75537   0.182   5.851   9.201 -1.0942  0.3363  0.6422
  560MOL0     H75538   0.221   5.913   9.360 -1.1207 -0.3959 -0.8434
  560MOL0     H75539   0.197   6.142   9.288 -1.7115  2.5897 -2.2135
  560MOL0     H75540   0.166   6.079   9.124 -1.0912 -3.0355 -0.9941
  560MOL0     H75541  -0.022   5.955   9.181 -1.1458 -0.7753  1.5161
  560MOL0     H75542  -0.012   5.989   9.352 -1.8205  1.9904  1.2766
  560MOL0     H75543  -0.078   6.229   9.316 -5.2255  0.8506 -0.2644
  560MOL0     H75544  -0.061   6.203   9.143 -0.7737  3.4206  1.4448
  560MOL0     H75545  -0.257   6.072   9.122 -0.6792 -0.3873 -0.2674
  560MOL0     H75546  -0.245   6.024   9.292 -0.8416  1.6654  2.1603
  560MOL0     H75547  -0.436   6.141   9.271  0.1462 -0.9611  1.4289
  560MOL0     H75548  -0.334   6.250   9.368 -0.8843  2.6942 -0.3190
  560MOL0     H75549  -0.366   6.269   9.068 -0.0619  0.1388  0.0054
  560MOL0     H75550  -0.258   6.376   9.157  1.5583 -3.4148  0.2433
  560MOL0     H75551  -0.645   6.295   9.134  1.5291 -0.9135  1.1276
  560MOL0     H75552  -0.854   6.436   9.131  2.1397  1.4245 -0.8692
  560MOL0     H75553  -0.836   6.447   9.314 -0.0473  0.2423  1.6661
  560MOL0     H75554  -0.841   6.702   9.157  2.0697  1.3839  3.1380
  560MOL0     H75555  -0.883   6.676   9.320  1.0452 -0.4718  0.4819
  560MOL0     H75556  -1.098   6.556   9.247 -0.4254 -0.9482 -0.4896
  560MOL0     H75557  -1.038   6.579   9.086  2.5169 -0.3900 -0.3325
  560MOL0     H75558  -1.187   6.755   9.116 -0.9195 -3.5029 -0.3481
  560MOL0     H75559  -1.041   6.845   9.154 -1.6855  1.1066  0.0752
  560MOL0     H75560  -1.266   7.021   9.256 -0.9886  2.0944  1.1389
  560MOL0     H75561  -1.575   7.150   9.267 -2.6731 -1.2259 -1.6587
  560MOL0     H75562  -1.437   7.136   9.162 -0.0368  0.0123 -0.0303
  560MOL0     H75563  -1.582   7.036   9.125  0.7879  2.0684 -2.7269
  560MOL0     H75564  -1.864   7.216   9.441 -0.1328 -1.7300  2.1569
  560MOL0     H75565  -2.099   7.271   9.438  2.0829  0.1198  0.0985
  560MOL0     H75566  -2.474   7.163   9.290 -1.9081 -2.5493  0.4952
  560MOL0     H75567  -2.377   7.081   9.160 -1.1680 -3.8792  0.1219
  560MOL0     H75568  -2.358   6.892   9.329 -1.2950 -1.8783  0.9441
  560MOL0     H75569  -2.411   7.010   9.454 -1.3076  2.0313  0.4453
  560MOL0     H75570  -2.570   6.816   9.373  0.8743  1.1096 -0.1091
  560MOL0     H75571  -2.584   6.888   9.222  1.4108 -3.5580  0.5254
  560MOL0     H75572  -2.689   7.016   9.496 -0.6083  2.6868 -0.3309
  560MOL0     H75573  -2.693   7.100   9.350  2.2508 -0.3411  0.9160
  560MOL0     H75574  -2.830   6.831   9.402  1.4600 -0.7040 -1.0926
  560MOL0     H75575  -2.827   6.908   9.250  0.7824 -0.1393  0.5570
  560MOL0     H75576  -2.940   7.052   9.499  0.1641 -0.1244  0.3750
  560MOL0     H75577  -2.968   7.102   9.335  3.2127  0.5569 -1.1766
  560MOL0     H75578  -3.071   6.828   9.451 -2.1166  1.0171  1.6500
  560MOL0     H75579  -3.088   6.883   9.288  1.4856 -1.0130  0.1412
  560MOL0     H75580  -3.219   7.080   9.362 -2.1980  1.6027  0.7521
  560MOL0     H75581  -3.192   7.033   9.527  0.5873  0.6934 -1.3079
  560MOL0     H75582  -2.177   6.944   9.171 -3.1733  1.3555  0.0402
  560MOL0     H75583  -1.936   6.889   9.176 -0.9333  0.5430 -0.7955
  560MOL0     H75584  -1.565   6.676   9.444 -2.5916  0.4903 -2.0935
  560MOL0     H75585  -1.331   6.624   9.425 -0.7958 -1.2285 -0.6316
  560MOL0     H75586   0.551   6.164   9.494  0.6633 -2.6152  0.4510
  560MOL0     H75587   0.781   6.238   9.510 -3.3930  2.1609  0.5380
  560MOL0     H75588   1.307   6.125   9.133  0.4521 -1.3263  1.1643
  560MOL0     H75589   1.518   6.254   9.151  1.3260  3.4915  0.3316
  560MOL0     H75590   1.719   6.369   9.256 -0.9075 -1.4514 -3.0494
  560MOL0     H75591   1.620   6.442   9.129 -2.9497 -0.4443  0.7961
  560MOL0     H75592   1.835   6.559   9.137 -2.4628  1.0823 -1.7851
  560MOL0     H75593   1.808   6.575   9.311  0.8036  0.4008 -0.7791
  560MOL0     H75594   1.611   6.724   9.257  1.8719 -0.5351  1.7586
  560MOL0     H75595   1.644   6.685   9.079  0.8037 -0.3085 -0.6923
  560MOL0     H75596   1.855   6.818   9.110  0.0589 -1.5199  0.5103
  560MOL0     H75597   1.796   6.852   9.281 -0.2461 -0.5288 -0.0138
  560MOL0     H75598   1.567   7.114   9.040 -1.3561 -1.8421 -3.0458
  560MOL0     H75599   1.351   6.459   9.487  1.9708  0.1283  1.6300
  560MOL0     H75600   1.130   6.333   9.443  0.5291 -2.2296  0.6428
  561MOL0     O75601   0.989   2.595   4.728  0.0481 -0.2195 -0.1421
  561MOL0     C75602   1.015   2.575   4.848 -0.0185  0.7737 -0.4833
  561MOL0     O75603   0.932   2.581   4.960  0.1209 -0.2495  0.3837
  561MOL0     C75604   0.795   2.565   4.944 -1.1403 -0.0037  0.2723
  561MOL0     C75605   0.729   2.460   4.871  0.0532  0.3674 -0.2558
  561MOL0     C75606   0.595   2.456   4.854 -0.0136  0.5777  0.1301
  561MOL0     C75607   0.513   2.548   4.935  0.1058 -0.8288 -0.5422
  561MOL0     O75608   0.377   2.564   4.926 -0.2058  0.2623 -0.2300
  561MOL0     C75609   0.311   2.461   4.838  0.3137 -0.4976 -1.1170
  561MOL0     C75610   0.166   2.509   4.810 -0.1118  1.3608  0.2536
  561MOL0     C75611   0.063   2.487   4.916  0.3374 -0.3415 -0.4601
  561MOL0     C75612  -0.077   2.527   4.860  0.2259 -0.1473  0.3148
  561MOL0     C75613  -0.181   2.479   4.956  0.5707 -0.2615 -0.7967
  561MOL0     C75614  -0.176   2.553   5.087  0.0683 -0.1678  0.4445
  561MOL0     C75615  -0.314   2.555   5.154 -0.5896 -0.8765  0.1687
  561MOL0     C75616  -0.373   2.424   5.185  0.1237  0.7755  0.0280
  561MOL0     N75617  -0.519   2.440   5.230 -0.5538  0.0320  0.3489
  561MOL0     C75618  -0.580   2.354   5.311 -0.0260 -0.1150  0.2312
  561MOL0     C75619  -0.717   2.392   5.306  0.2591 -0.6067 -0.3354
  561MOL0     C75620  -0.831   2.311   5.370  0.1225  0.4458  0.0458
  561MOL0     C75621  -0.967   2.331   5.305  0.4528  0.1981  0.6510
  561MOL0     C75622  -1.061   2.216   5.356  0.2337 -0.0949  0.0781
  561MOL0     C75623  -1.208   2.224   5.284  1.0761 -0.4763 -0.0260
  561MOL0     O75624  -1.286   2.299   5.384  0.1226  0.4598 -0.7009
  561MOL0     C75625  -1.420   2.321   5.362  0.5906 -0.9993 -0.5104
  561MOL0     C75626  -1.483   2.401   5.455 -0.8249  0.5650  0.4506
  561MOL0     C75627  -1.622   2.434   5.451 -0.0376 -0.3995 -0.3894
  561MOL0     C75628  -1.691   2.500   5.573  0.1908  0.4320 -0.6610
  561MOL0     C75629  -1.689   2.403   5.329  0.7189 -0.1395 -0.0600
  561MOL0     C75630  -1.829   2.439   5.300 -0.1495  0.3638 -0.3361
  561MOL0     O75631  -1.870   2.428   5.168  0.8199 -0.3642  0.0003
  561MOL0     C75632  -1.997   2.443   5.143  0.6648 -0.2431 -0.5794
  561MOL0     C75633  -2.090   2.344   5.161  1.2205  0.0994  0.1380
  561MOL0     C75634  -2.234   2.366   5.140  0.0868 -0.2928  0.6311
  561MOL0     C75635  -2.276   2.486   5.085  0.3547  0.7221 -0.3252
  561MOL0     O75636  -2.408   2.493   5.078  0.3593  0.6992 -0.5220
  561MOL0     C75637  -2.468   2.629   5.075 -0.3393 -0.3119 -0.3674
  561MOL0     C75638  -2.532   2.651   4.931 -0.5540  0.2385 -0.3034
  561MOL0     C75639  -2.635   2.557   4.888 -0.4597  0.2877  0.0551
  561MOL0     C75640  -2.778   2.608   4.913 -0.1641 -0.5440  0.6787
  561MOL0     C75641  -2.877   2.497   4.947  0.7472 -0.1693  0.6791
  561MOL0     C75642  -2.894   2.387   4.827  0.4774 -0.0136  0.0496
  561MOL0     C75643  -3.034   2.331   4.825  0.6648 -1.2182 -0.3153
  561MOL0     C75644  -3.058   2.227   4.720  1.4641  0.1287 -0.0294
  561MOL0    Cl75645  -2.993   2.074   4.770 -0.2016  0.2165  0.5464
  561MOL0     C75646  -2.181   2.587   5.058 -0.7056 -0.3406  0.2675
  561MOL0     C75647  -2.044   2.565   5.090 -0.6097 -0.6122  0.5676
  561MOL0     O75648  -1.898   2.454   5.398  0.3021  0.1919  0.3121
  561MOL0     C75649  -1.625   2.323   5.235  0.2656 -0.2632 -0.2737
  561MOL0     C75650  -1.495   2.284   5.251 -0.3244  0.0784  0.3891
  561MOL0     N75651  -0.730   2.517   5.240  0.3370  0.5958  0.3952
  561MOL0     N75652  -0.609   2.544   5.196  0.3563 -0.0508 -0.1032
  561MOL0     C75653   0.576   2.638   5.020  0.4312  0.3741  0.8702
  561MOL0     C75654   0.718   2.646   5.023 -0.1072 -0.3993  1.0036
  561MOL0     C75655   1.155   2.548   4.884 -0.4633 -0.4328 -0.5662
  561MOL0     C75656   1.204   2.564   5.013 -1.7650 -0.1038 -0.3771
  561MOL0     C75657   1.340   2.554   5.041  0.2639 -0.1925  0.2502
  561MOL0     C75658   1.430   2.519   4.937 -0.2617  0.0376 -0.6066
  561MOL0     O75659   1.563   2.528   4.966  0.3019 -0.3298 -0.3796
  561MOL0     C75660   1.675   2.524   4.864  0.5332  0.4619 -0.8861
  561MOL0     C75661   1.806   2.499   4.928  0.0031  0.8491 -0.1248
  561MOL0     C75662   1.892   2.631   4.955  1.2902  0.2061 -0.8018
  561MOL0     C75663   1.844   2.709   5.070 -0.1630  0.4726  0.2744
  561MOL0     C75664   1.927   2.831   5.088  0.0946 -0.2188  0.0454
  561MOL0     C75665   2.006   2.923   5.090  0.4396  0.1468  0.0146
  561MOL0     C75666   1.376   2.502   4.810 -0.4455 -0.1058  0.2384
  561MOL0     C75667   1.242   2.513   4.782 -0.3200  0.0697  0.6499
  561MOL0     H75668   0.784   2.379   4.825  0.4303  0.3081  0.2910
  561MOL0     H75669   0.551   2.394   4.776  0.9288 -1.4537  1.1525
  561MOL0     H75670   0.364   2.459   4.743  2.3907  2.5411 -0.1740
  561MOL0     H75671   0.306   2.369   4.898  1.9876  0.6758  1.0003
  561MOL0     H75672   0.168   2.610   4.768 -0.0232  0.2353 -2.6858
  561MOL0     H75673   0.117   2.441   4.740  1.4824  0.9063 -0.4668
  561MOL0     H75674   0.072   2.392   4.969  3.5782 -0.6973 -1.4367
  561MOL0     H75675   0.075   2.555   5.001 -0.1516  0.8814 -1.3346
  561MOL0     H75676  -0.079   2.634   4.837  3.5011  0.2045  1.0619
  561MOL0     H75677  -0.098   2.476   4.766  0.1981  0.4137  0.0113
  561MOL0     H75678  -0.270   2.496   4.894 -0.6334 -1.9321  0.3953
  561MOL0     H75679  -0.168   2.373   4.977  0.3220 -0.3916 -1.2789
  561MOL0     H75680  -0.107   2.496   5.150  0.2777 -1.0273 -0.5266
  561MOL0     H75681  -0.145   2.657   5.073 -1.5891  0.0920 -2.0787
  561MOL0     H75682  -0.301   2.607   5.249 -0.7519  0.5898 -0.5837
  561MOL0     H75683  -0.378   2.615   5.089 -2.9754 -0.2559  2.8904
  561MOL0     H75684  -0.309   2.381   5.263 -0.9907  1.7075  1.5070
  561MOL0     H75685  -0.382   2.371   5.090  0.1418 -0.7390  0.8446
  561MOL0     H75686  -0.535   2.263   5.350  0.8386 -1.0878 -2.7167
  561MOL0     H75687  -0.807   2.205   5.377 -5.2505 -0.9286  3.2628
  561MOL0     H75688  -0.838   2.342   5.475  1.1819  0.4615  0.1242
  561MOL0     H75689  -0.949   2.319   5.198  1.1617 -1.0264  0.8927
  561MOL0     H75690  -1.001   2.429   5.341  0.9133  0.4131  0.5122
  561MOL0     H75691  -1.077   2.220   5.464  1.3544  0.1350  0.2520
  561MOL0     H75692  -1.007   2.123   5.337  2.0742  1.0364 -0.5199
  561MOL0     H75693  -1.258   2.129   5.264 -2.5699  1.8904 -3.7172
  561MOL0     H75694  -1.203   2.281   5.191 -2.4928  2.3368  1.2973
  561MOL0     H75695  -1.433   2.434   5.545 -3.4825 -0.1250  2.3186
  561MOL0     H75696  -1.748   2.592   5.554  0.5276  0.4854 -1.4833
  561MOL0     H75697  -1.759   2.426   5.615  0.8443 -1.1497 -2.2562
  561MOL0     H75698  -1.619   2.515   5.654 -0.0502 -3.0781  0.3405
  561MOL0     H75699  -2.061   2.246   5.199  0.0414  0.1308  1.1764
  561MOL0     H75700  -2.307   2.293   5.174 -2.6458  1.1628 -1.6701
  561MOL0     H75701  -2.554   2.624   5.142 -0.3707 -0.6164 -0.4302
  561MOL0     H75702  -2.400   2.710   5.102 -0.3232  0.2717 -2.0396
  561MOL0     H75703  -2.574   2.752   4.940 -3.0738 -0.8588  1.9796
  561MOL0     H75704  -2.446   2.638   4.865  0.4066 -0.4933  1.0539
  561MOL0     H75705  -2.623   2.456   4.928 -1.1505 -0.7171 -2.1608
  561MOL0     H75706  -2.635   2.549   4.779  0.1980  1.4883 -0.0421
  561MOL0     H75707  -2.785   2.685   4.990 -2.4911  0.5727 -0.5548
  561MOL0     H75708  -2.827   2.648   4.823 -0.9468  0.8857  1.6964
  561MOL0     H75709  -2.976   2.535   4.975  0.6978  0.1547  0.1009
  561MOL0     H75710  -2.846   2.442   5.036 -1.5993 -1.1887  0.9456
  561MOL0     H75711  -2.864   2.419   4.726 -1.3704  1.4419 -0.0924
  561MOL0     H75712  -2.823   2.308   4.851 -0.7878 -0.9530  0.7770
  561MOL0     H75713  -3.110   2.408   4.806  0.1571 -1.9121 -1.1674
  561MOL0     H75714  -3.060   2.290   4.923 -1.1575  2.9233  1.1787
  561MOL0     H75715  -3.004   2.259   4.630  0.4958 -1.1330 -1.0953
  561MOL0     H75716  -3.165   2.229   4.698  0.7798 -1.6078  2.6347
  561MOL0     H75717  -2.211   2.682   5.015  4.2130  2.1054  1.3868
  561MOL0     H75718  -1.982   2.652   5.073 -0.5018 -0.3375  2.2532
  561MOL0     H75719  -1.675   2.289   5.145 -0.6763 -0.0276  0.1510
  561MOL0     H75720  -1.442   2.238   5.169 -0.6024 -0.1883  0.3567
  561MOL0     H75721   0.509   2.709   5.069 -2.9944 -1.5503 -0.6305
  561MOL0     H75722   0.758   2.730   5.079  3.4062  0.0820 -1.8763
  561MOL0     H75723   1.129   2.593   5.087 -3.1261 -0.4673 -1.5623
  561MOL0     H75724   1.370   2.572   5.144 -2.4556  1.2344  0.8821
  561MOL0     H75725   1.654   2.445   4.792 -2.1950  0.2767  0.0030
  561MOL0     H75726   1.687   2.618   4.808  1.3415  0.7752 -0.2093
  561MOL0     H75727   1.857   2.441   4.850 -0.1521  1.5908 -0.7855
  561MOL0     H75728   1.793   2.443   5.021  0.1797  1.7971  0.4822
  561MOL0     H75729   1.886   2.698   4.869 -1.0388  1.3938  0.1895
  561MOL0     H75730   1.996   2.600   4.971  0.8584 -0.5906  0.6387
  561MOL0     H75731   1.844   2.656   5.166 -1.0085 -0.1200 -0.0364
  561MOL0     H75732   1.744   2.750   5.048 -0.2729 -0.4476 -1.1061
  561MOL0     H75733   2.068   3.008   5.103 -2.1442  2.4371 -1.5495
  561MOL0     H75734   1.438   2.487   4.722 -1.0075 -1.5691  0.0721
  561MOL0     H75735   1.198   2.502   4.684 -0.1158 -2.5924  0.7746
  562MOL0     O75736  10.709   9.802   4.374  0.1106  0.2076 -0.1522
  562MOL0     C75737  10.806   9.768   4.307 -0.8095 -0.1082  0.0529
  562MOL0     O75738  10.801   9.701   4.192 -0.5227 -0.6393 -0.3133
  562MOL0     C75739  10.687   9.677   4.125 -0.2750  0.5328 -0.1274
  562MOL0     C75740  10.683   9.682   3.988 -0.4283  0.7906  0.2426
  562MOL0     C75741  10.568   9.635   3.919 -0.9707 -0.4003  0.4934
  562MOL0     C75742  10.455   9.593   3.989  0.5487  1.0479 -0.1880
  562MOL0     O75743  10.339   9.543   3.938  0.3503  0.2503 -0.3004
  562MOL0     C75744  10.337   9.458   3.819  1.7433  0.4866 -0.1764
  562MOL0     C75745  10.195   9.383   3.809  0.2220  0.3873  0.8652
  562MOL0     C75746  10.208   9.242   3.752  0.3639 -0.2937  0.8011
  562MOL0     C75747  10.141   9.141   3.834 -0.6247  0.8125  0.4360
  562MOL0     C75748  10.182   8.998   3.779 -0.4490 -0.4025 -0.6768
  562MOL0     C75749  10.121   8.977   3.634 -1.0404  0.8418  0.3982
  562MOL0     C75750   9.970   8.946   3.627 -0.7556 -0.4698  0.5917
  562MOL0     C75751   9.920   8.838   3.721 -0.2778  0.2097 -1.1643
  562MOL0     N75752   9.769   8.821   3.704 -0.2566 -0.8031 -0.4808
  562MOL0     C75753   9.701   8.775   3.594  0.4447 -0.4115  0.3148
  562MOL0     C75754   9.564   8.792   3.620 -0.3434  0.0019  0.4122
  562MOL0     C75755   9.466   8.749   3.517  0.8027 -0.2411 -0.2332
  562MOL0     C75756   9.336   8.828   3.551 -0.4851 -0.0049  0.6878
  562MOL0     C75757   9.224   8.782   3.454 -0.0472 -0.8793 -0.3996
  562MOL0     C75758   9.093   8.862   3.496 -0.1659 -0.6579  0.3455
  562MOL0     O75759   9.002   8.753   3.537  0.0431 -0.1141 -0.0101
  562MOL0     C75760   8.889   8.793   3.601  0.2856 -0.3680  0.2786
  562MOL0     C75761   8.804   8.694   3.625  0.2684  0.0120 -0.4615
  562MOL0     C75762   8.686   8.711   3.692 -0.1980  0.0176  0.0431
  562MOL0     C75763   8.610   8.577   3.719 -0.2036 -0.1150  0.3429
  562MOL0     C75764   8.642   8.837   3.730  0.8502  0.2321  0.0475
  562MOL0     C75765   8.512   8.852   3.804  0.1945  0.1599  0.2893
  562MOL0     O75766   8.495   8.982   3.848  0.2080  0.1600 -0.0176
  562MOL0     C75767   8.383   9.012   3.926 -0.4653 -0.0941 -0.1061
  562MOL0     C75768   8.412   9.079   4.053 -0.4807  0.5321  0.0823
  562MOL0     C75769   8.311   9.117   4.140  0.6327 -0.7653 -0.2931
  562MOL0     C75770   8.177   9.093   4.107  0.3240 -0.6441 -0.3670
  562MOL0     O75771   8.076   9.127   4.196 -0.5658  0.0843  0.7655
  562MOL0     C75772   8.030   9.015   4.267 -0.1992 -0.0504  0.7537
  562MOL0     C75773   7.904   9.037   4.354  1.3445 -0.2477  0.6307
  562MOL0     C75774   7.778   9.042   4.265  0.3493  0.9373 -0.0370
  562MOL0     C75775   7.766   9.175   4.188 -0.1056  0.5523 -0.1442
  562MOL0     C75776   7.635   9.190   4.096  0.4329  0.6241  0.1422
  562MOL0     C75777   7.510   9.192   4.182 -0.0207  0.2049 -0.5063
  562MOL0     C75778   7.386   9.259   4.125 -0.9384 -0.2641  0.7252
  562MOL0     C75779   7.277   9.278   4.235  0.7728 -0.5535 -0.0975
  562MOL0    Cl75780   7.226   9.129   4.317 -0.3395 -0.0882 -0.0155
  562MOL0     C75781   8.142   9.021   3.993  0.4288  0.0788 -0.6630
  562MOL0     C75782   8.244   8.974   3.910 -0.7081 -0.7242  0.7488
  562MOL0     O75783   8.427   8.761   3.821  0.2354 -0.2464  0.1898
  562MOL0     C75784   8.728   8.954   3.709  0.6016  1.2818  0.5246
  562MOL0     C75785   8.854   8.927   3.647  0.3113 -0.0059 -0.0612
  562MOL0     N75786   9.553   8.852   3.743  0.0744  0.2757 -0.1324
  562MOL0     N75787   9.673   8.871   3.786 -0.2445  0.1615 -0.3503
  562MOL0     C75788  10.453   9.602   4.127 -0.7135  0.3916 -0.2873
  562MOL0     C75789  10.567   9.644   4.197 -0.3917 -0.1995  0.5560
  562MOL0     C75790  10.944   9.784   4.365 -0.5857  1.2194 -0.5165
  562MOL0     C75791  11.061   9.749   4.295  0.1125  0.2977  0.4046
  562MOL0     C75792  11.185   9.773   4.341 -0.6964  0.0521 -0.6301
  562MOL0     C75793  11.209   9.834   4.460  0.1513  0.0010  0.0091
  562MOL0     O75794  11.344   9.852   4.486 -0.2760 -0.3719 -0.6449
  562MOL0     C75795  11.382   9.914   4.608 -0.6694  0.1151  0.2184
  562MOL0     C75796  11.517   9.984   4.605 -0.1199  0.4495  0.4535
  562MOL0     C75797  11.534  10.056   4.743  0.1127  0.2105 -0.0412
  562MOL0     C75798  11.610  10.190   4.725  0.0413 -0.0181  0.0110
  562MOL0     C75799  11.752  10.187   4.681 -0.0090  0.6199 -0.0301
  562MOL0     C75800  11.866  10.162   4.651 -0.9051 -0.4033  0.3243
  562MOL0     C75801  11.096   9.857   4.538 -0.7549  0.1299  0.4050
  562MOL0     C75802  10.965   9.831   4.494 -0.2134 -0.2576 -0.3488
  562MOL0     H75803  10.764   9.721   3.928  0.8640  0.3132  1.5863
  562MOL0     H75804  10.564   9.641   3.810 -0.7667  1.3089  0.5554
  562MOL0     H75805  10.346   9.515   3.726 -1.5092  1.4784 -0.0178
  562MOL0     H75806  10.425   9.394   3.825  2.1755  1.0388 -0.5111
  562MOL0     H75807  10.146   9.382   3.907  0.8781 -0.6041  1.1924
  562MOL0     H75808  10.127   9.434   3.740  2.0877 -0.5079 -1.8019
  562MOL0     H75809  10.177   9.225   3.649 -1.6556 -3.5573  1.7746
  562MOL0     H75810  10.315   9.221   3.749  0.2119 -1.0321 -1.7054
  562MOL0     H75811  10.160   9.152   3.941 -0.2539 -0.5858  0.5378
  562MOL0     H75812  10.034   9.158   3.822 -0.3243  2.1456 -0.5216
  562MOL0     H75813  10.290   8.984   3.778 -0.6782 -2.8939  0.6141
  562MOL0     H75814  10.142   8.922   3.847 -4.2227 -0.9111 -3.1783
  562MOL0     H75815  10.157   9.054   3.564 -0.2385  2.9579  2.9436
  562MOL0     H75816  10.170   8.889   3.593 -0.7747  0.0666  2.2739
  562MOL0     H75817   9.921   9.040   3.653 -0.1842  0.1494 -0.4801
  562MOL0     H75818   9.942   8.919   3.524 -0.5636  1.2347  0.0592
  562MOL0     H75819   9.940   8.871   3.823  2.7156 -2.2219 -0.8220
  562MOL0     H75820   9.967   8.741   3.702 -2.9188 -1.4263  0.0451
  562MOL0     H75821   9.757   8.732   3.512 -2.7462 -1.4178 -1.4714
  562MOL0     H75822   9.510   8.777   3.421 -0.7816 -1.7392 -1.4803
  562MOL0     H75823   9.439   8.643   3.529 -1.1143  0.1543 -0.7202
  562MOL0     H75824   9.350   8.933   3.525  0.2917 -0.5013 -1.0165
  562MOL0     H75825   9.314   8.815   3.658  1.7344 -3.8718  0.8663
  562MOL0     H75826   9.214   8.673   3.452  1.2439 -1.0208 -0.3084
  562MOL0     H75827   9.259   8.811   3.354  0.8746  1.5310  0.5488
  562MOL0     H75828   9.056   8.912   3.406 -1.1727 -1.4241  0.3233
  562MOL0     H75829   9.113   8.935   3.575 -0.1279  0.0404 -0.2953
  562MOL0     H75830   8.841   8.596   3.593 -1.4027 -0.8971  0.2841
  562MOL0     H75831   8.665   8.493   3.676  0.5217  1.2452 -1.5325
  562MOL0     H75832   8.594   8.565   3.827  0.8762 -1.2152  0.4065
  562MOL0     H75833   8.513   8.581   3.668  0.0744  0.4030 -0.1447
  562MOL0     H75834   8.513   9.107   4.080  0.4845 -2.4856  0.0456
  562MOL0     H75835   8.319   9.176   4.231  0.5981 -0.0182 -0.7651
  562MOL0     H75836   7.996   8.924   4.216 -1.2775 -2.3957  5.1642
  562MOL0     H75837   8.119   8.978   4.319  0.7854  0.6190 -0.3962
  562MOL0     H75838   7.895   8.945   4.413 -0.1007  0.3237  1.3498
  562MOL0     H75839   7.917   9.122   4.421 -0.1428  0.0132  0.6265
  562MOL0     H75840   7.690   9.018   4.324 -0.2408  0.4019 -1.0938
  562MOL0     H75841   7.769   8.952   4.203  0.7169 -1.3985  3.0697
  562MOL0     H75842   7.761   9.251   4.266 -2.1316  1.5064 -1.1203
  562MOL0     H75843   7.855   9.194   4.128 -0.7157 -2.9695 -2.5175
  562MOL0     H75844   7.622   9.111   4.021 -0.3173  1.1036 -0.2441
  562MOL0     H75845   7.657   9.287   4.050  2.4311  0.2911  0.3092
  562MOL0     H75846   7.481   9.089   4.203  0.2035 -0.0513 -1.4360
  562MOL0     H75847   7.532   9.238   4.279  2.4890  0.0443 -0.9186
  562MOL0     H75848   7.355   9.194   4.042  0.7272  1.2322 -1.1804
  562MOL0     H75849   7.408   9.357   4.082 -3.2792  1.3844  2.9476
  562MOL0     H75850   7.187   9.322   4.189  1.5826  0.4534 -0.7507
  562MOL0     H75851   7.309   9.356   4.304 -1.1238  0.1697  0.0393
  562MOL0     H75852   8.037   8.994   3.981  1.1014 -4.0232  1.0614
  562MOL0     H75853   8.222   8.913   3.823  0.3486  0.5333 -0.4462
  562MOL0     H75854   8.705   9.051   3.753 -3.5048 -0.7173  3.4423
  562MOL0     H75855   8.912   9.018   3.632 -1.6018  2.2853  4.5418
  562MOL0     H75856  10.361   9.580   4.181 -0.1927  3.1039  1.9122
  562MOL0     H75857  10.564   9.630   4.305 -3.4071 -0.2477  0.5456
  562MOL0     H75858  11.041   9.720   4.192  0.7961  0.6872  0.1543
  562MOL0     H75859  11.262   9.739   4.273 -1.4277  0.2774 -1.5822
  562MOL0     H75860  11.310   9.991   4.636  1.3859  1.8298  1.0606
  562MOL0     H75861  11.396   9.841   4.688  2.1701  1.8572  1.4406
  562MOL0     H75862  11.523  10.062   4.529  0.0477 -2.3407 -2.6225
  562MOL0     H75863  11.599   9.912   4.597  0.7300  1.1774  2.1919
  562MOL0     H75864  11.595   9.988   4.803  0.3927  2.0764  1.8814
  562MOL0     H75865  11.438  10.072   4.794 -0.7249 -2.3682 -0.6269
  562MOL0     H75866  11.596  10.244   4.819  0.6587  0.9573 -0.4402
  562MOL0     H75867  11.550  10.250   4.656  0.4467  1.1344  0.6360
  562MOL0     H75868  11.962  10.127   4.621 -1.2057 -0.2969 -0.8241
  562MOL0     H75869  11.119   9.886   4.640 -0.8692 -0.7736  0.6954
  562MOL0     H75870  10.873   9.851   4.548  0.3732  1.6363  0.0521
  563MOL0     O75871   0.275  10.043   1.663  0.4008  0.3401  0.2064
  563MOL0     C75872   0.310  10.057   1.779 -0.7410  0.2723 -0.4876
  563MOL0     O75873   0.254  10.003   1.894 -0.3095 -0.5935  0.7278
  563MOL0     C75874   0.129   9.951   1.868  0.2554 -0.2043 -0.6204
  563MOL0     C75875   0.009  10.023   1.880 -0.2743  0.3488 -0.6876
  563MOL0     C75876  -0.114   9.970   1.851  0.0399  0.0309 -0.2260
  563MOL0     C75877  -0.120   9.835   1.814 -0.7035 -0.3965  0.4663
  563MOL0     O75878  -0.238   9.793   1.766  0.1479 -0.0034  0.5019
  563MOL0     C75879  -0.258   9.645   1.765 -0.1219 -0.3478 -0.4702
  563MOL0     C75880  -0.406   9.616   1.743 -0.3191  0.2343  0.1878
  563MOL0     C75881  -0.414   9.466   1.716  0.5540 -0.7427  0.1071
  563MOL0     C75882  -0.563   9.434   1.693 -0.4983 -0.1553  0.3828
  563MOL0     C75883  -0.598   9.288   1.666 -1.2103 -0.5879  0.4263
  563MOL0     C75884  -0.730   9.241   1.726 -0.0518  0.2724  0.2055
  563MOL0     C75885  -0.766   9.094   1.689 -0.3190 -0.6781 -0.0634
  563MOL0     C75886  -0.784   9.085   1.528  0.6171  0.7558  0.0286
  563MOL0     N75887  -0.874   8.970   1.498 -0.1527 -0.1331  0.2127
  563MOL0     C75888  -0.874   8.841   1.553  1.2216  0.1620  0.0677
  563MOL0     C75889  -0.969   8.777   1.487  0.3221  0.2942 -0.8073
  563MOL0     C75890  -1.014   8.640   1.516  0.5167  0.0172  0.8077
  563MOL0     C75891  -0.942   8.519   1.443 -0.5832 -0.6307  0.4146
  563MOL0     C75892  -1.024   8.400   1.466  0.5301  0.1055  0.1042
  563MOL0     C75893  -0.977   8.315   1.586  0.1295 -0.4867  0.4025
  563MOL0     O75894  -1.042   8.188   1.604 -0.8472  0.1245 -0.0742
  563MOL0     C75895  -1.184   8.188   1.601  0.3758 -0.1684 -0.0243
  563MOL0     C75896  -1.261   8.089   1.545  0.5266  1.0535 -0.1681
  563MOL0     C75897  -1.407   8.093   1.563  0.1353 -0.1532  0.5952
  563MOL0     C75898  -1.484   7.986   1.485  0.4950 -1.4748  0.4403
  563MOL0     C75899  -1.472   8.200   1.633  0.7654  0.4971  0.9119
  563MOL0     C75900  -1.617   8.213   1.648  0.5578  0.7184 -0.3680
  563MOL0     O75901  -1.659   8.321   1.724 -0.4467  0.0211  0.0204
  563MOL0     C75902  -1.784   8.381   1.726 -1.0626  0.9856  0.0730
  563MOL0     C75903  -1.829   8.425   1.851 -0.1339 -0.4136 -1.5875
  563MOL0     C75904  -1.954   8.492   1.870 -1.1963  0.3215  0.8119
  563MOL0     C75905  -2.030   8.505   1.753  0.9722 -0.0624 -0.0220
  563MOL0     O75906  -2.150   8.569   1.768 -0.3628 -0.3416  0.0484
  563MOL0     C75907  -2.226   8.599   1.643 -0.0247 -0.6926 -0.1880
  563MOL0     C75908  -2.360   8.672   1.671  0.2483  0.3238 -0.0391
  563MOL0     C75909  -2.470   8.569   1.650 -0.4896  0.3141 -0.0465
  563MOL0     C75910  -2.601   8.644   1.683  1.1538  0.5785  0.3954
  563MOL0     C75911  -2.715   8.551   1.636 -0.0614  1.3189  0.7563
  563MOL0     C75912  -2.852   8.615   1.671 -0.2665  0.6743 -0.1407
  563MOL0     C75913  -2.898   8.570   1.807 -0.3355 -0.3986  0.2349
  563MOL0     C75914  -3.017   8.651   1.853  0.4440  0.5231 -0.5909
  563MOL0    Cl75915  -3.159   8.618   1.747  0.3763 -0.2174  0.5767
  563MOL0     C75916  -1.997   8.446   1.629 -0.1910  0.0279 -0.3463
  563MOL0     C75917  -1.863   8.399   1.615  0.4062  0.5762 -0.5940
  563MOL0     O75918  -1.686   8.123   1.604  0.3398 -0.1138 -0.1834
  563MOL0     C75919  -1.387   8.298   1.685 -0.0766  0.0304 -0.1863
  563MOL0     C75920  -1.249   8.280   1.683 -0.9931 -0.7178  0.1240
  563MOL0     N75921  -1.030   8.859   1.397 -1.0914 -0.3491  0.6419
  563MOL0     N75922  -0.971   8.972   1.406 -0.6757  0.0770  0.0227
  563MOL0     C75923  -0.003   9.765   1.799 -0.5155 -0.1561 -0.7168
  563MOL0     C75924   0.118   9.819   1.833 -1.0247 -0.4613 -0.0557
  563MOL0     C75925   0.418  10.161   1.794  0.7386  0.0524  0.3382
  563MOL0     C75926   0.444  10.226   1.914 -0.1007  0.5550  0.2731
  563MOL0     C75927   0.552  10.320   1.926 -0.1139 -0.2521 -0.3036
  563MOL0     C75928   0.636  10.343   1.812  0.2968 -0.6840  0.1838
  563MOL0     O75929   0.740  10.430   1.820 -0.5427 -0.4607 -0.5162
  563MOL0     C75930   0.718  10.569   1.824 -0.2254  0.1179 -0.1224
  563MOL0     C75931   0.655  10.623   1.694 -0.0244 -0.4306  0.0553
  563MOL0     C75932   0.604  10.769   1.701  0.0393 -0.0283 -0.0106
  563MOL0     C75933   0.492  10.775   1.805  0.2849 -0.6297  1.1765
  563MOL0     C75934   0.417  10.905   1.785 -0.1353  0.2613  0.5108
  563MOL0     C75935   0.348  10.995   1.751  0.4545 -0.6993 -0.4197
  563MOL0     C75936   0.596  10.292   1.684  0.0592  0.4054 -0.3078
  563MOL0     C75937   0.489  10.201   1.683  0.0623 -0.1693 -0.3895
  563MOL0     H75938   0.012  10.130   1.897 -1.3176 -0.0046  2.3242
  563MOL0     H75939  -0.206  10.028   1.852 -0.7242 -1.1582  0.1150
  563MOL0     H75940  -0.192   9.594   1.694  0.9369  0.6932 -0.2717
  563MOL0     H75941  -0.234   9.615   1.868  0.3950  2.3659  0.2905
  563MOL0     H75942  -0.463   9.662   1.825  1.5596  1.6973  0.7721
  563MOL0     H75943  -0.441   9.664   1.651 -0.3562  3.6966  1.8234
  563MOL0     H75944  -0.341   9.443   1.638  2.0568  0.0570  1.2152
  563MOL0     H75945  -0.383   9.407   1.803  2.4055  0.7627  0.5257
  563MOL0     H75946  -0.622   9.467   1.779  3.9168  2.0632  2.9654
  563MOL0     H75947  -0.594   9.492   1.606  0.9200  0.4732  0.2616
  563MOL0     H75948  -0.587   9.254   1.562  0.1967 -0.4553  0.5159
  563MOL0     H75949  -0.517   9.232   1.714 -1.0164 -1.4213 -0.7952
  563MOL0     H75950  -0.729   9.241   1.836 -0.6914  0.0461  0.2160
  563MOL0     H75951  -0.815   9.304   1.697  0.0961 -0.0464 -0.9488
  563MOL0     H75952  -0.682   9.035   1.726  1.1804  0.4603 -1.4760
  563MOL0     H75953  -0.858   9.075   1.744 -1.6726  3.3456 -0.6277
  563MOL0     H75954  -0.689   9.082   1.474  0.0505  0.6718 -0.9984
  563MOL0     H75955  -0.839   9.174   1.494 -2.2806 -1.4805 -1.5958
  563MOL0     H75956  -0.801   8.801   1.622 -3.1110 -3.5012  3.1124
  563MOL0     H75957  -1.006   8.638   1.625 -0.0691 -0.1619  0.8506
  563MOL0     H75958  -1.122   8.640   1.497  0.7973 -0.7872 -0.9446
  563MOL0     H75959  -0.836   8.503   1.465  0.1941 -0.8765 -2.9538
  563MOL0     H75960  -0.944   8.546   1.337  1.7952 -0.7036  0.2843
  563MOL0     H75961  -1.026   8.336   1.377 -0.3266 -1.9604  1.5267
  563MOL0     H75962  -1.129   8.424   1.484  0.3989 -2.3253  3.6661
  563MOL0     H75963  -0.970   8.356   1.687 -0.8762  0.4516  0.1060
  563MOL0     H75964  -0.872   8.296   1.559  1.4869  3.9593  1.7675
  563MOL0     H75965  -1.210   8.006   1.496 -1.9438 -1.0392  0.5949
  563MOL0     H75966  -1.546   8.034   1.408 -0.7489 -2.1343  1.0045
  563MOL0     H75967  -1.414   7.929   1.423  1.0664 -0.4811  0.1520
  563MOL0     H75968  -1.554   7.941   1.555 -0.0554 -0.4698  0.5472
  563MOL0     H75969  -1.760   8.435   1.934  0.4495  1.9114 -2.2741
  563MOL0     H75970  -1.988   8.529   1.966 -1.1357 -3.2825  2.3960
  563MOL0     H75971  -2.166   8.673   1.590 -0.2887 -0.2814  0.0777
  563MOL0     H75972  -2.243   8.512   1.579 -1.9401  0.0189 -0.7102
  563MOL0     H75973  -2.352   8.712   1.772  0.4080  2.4633 -0.8321
  563MOL0     H75974  -2.372   8.747   1.591  0.2945 -1.4962 -1.8342
  563MOL0     H75975  -2.462   8.484   1.717  0.4464 -1.7516 -2.6008
  563MOL0     H75976  -2.475   8.538   1.545  0.2947  1.4175 -0.4294
  563MOL0     H75977  -2.607   8.653   1.792  2.3591 -0.9685  0.6304
  563MOL0     H75978  -2.611   8.741   1.633 -2.3151 -0.4177 -1.1928
  563MOL0     H75979  -2.701   8.453   1.681  0.1570  2.1249  2.5331
  563MOL0     H75980  -2.697   8.543   1.528  0.1187  1.2023  0.7952
  563MOL0     H75981  -2.840   8.723   1.658 -3.6259  0.9406 -2.0591
  563MOL0     H75982  -2.930   8.589   1.599  0.3894 -3.0013  0.2786
  563MOL0     H75983  -2.818   8.587   1.880 -2.3364  1.6049  2.1297
  563MOL0     H75984  -2.924   8.463   1.814 -0.1792 -0.8969 -4.1540
  563MOL0     H75985  -3.002   8.759   1.853 -1.2651  0.7954 -0.5485
  563MOL0     H75986  -3.043   8.618   1.954 -1.1807  1.9625 -0.4979
  563MOL0     H75987  -2.061   8.469   1.544 -1.9483  3.6544  1.7173
  563MOL0     H75988  -1.831   8.361   1.518 -2.0582 -2.0643 -0.4965
  563MOL0     H75989  -1.431   8.380   1.740 -2.0126 -0.2897 -1.1824
  563MOL0     H75990  -1.204   8.371   1.723 -1.4811  0.1119 -1.1429
  563MOL0     H75991  -0.001   9.667   1.753  3.6100 -0.3177 -0.5367
  563MOL0     H75992   0.201   9.756   1.805  0.5818  0.7560  1.7782
  563MOL0     H75993   0.395  10.203   2.008  1.3760  1.4527  1.2997
  563MOL0     H75994   0.567  10.367   2.023  3.1269  1.9172 -1.6769
  563MOL0     H75995   0.653  10.599   1.907 -2.3305 -0.3340 -1.5252
  563MOL0     H75996   0.813  10.621   1.833 -0.2521  0.9842 -3.6741
  563MOL0     H75997   0.575  10.551   1.675  1.2195 -2.0138  0.5854
  563MOL0     H75998   0.737  10.624   1.622 -0.8766  3.0988 -1.0778
  563MOL0     H75999   0.568  10.804   1.605 -2.2446 -2.0912 -0.0023
  563MOL0     H76000   0.685  10.837   1.728 -0.3514  0.5874 -0.3703
  563MOL0     H76001   0.531  10.769   1.907  0.1479 -4.1340  1.1296
  563MOL0     H76002   0.418  10.695   1.796  0.2038 -0.3056 -2.9837
  563MOL0     H76003   0.270  11.067   1.739  0.6686  0.1817  2.4930
  563MOL0     H76004   0.638  10.320   1.588 -1.6902  1.5413 -0.7772
  563MOL0     H76005   0.459  10.161   1.587  1.2455  2.4163 -1.9257
  564MOL0     O76006   4.794   8.782   3.059 -0.2224  0.0629 -0.2754
  564MOL0     C76007   4.829   8.837   2.957 -0.7297  0.7737 -0.2876
  564MOL0     O76008   4.747   8.858   2.850  0.1244  0.4556 -0.5729
  564MOL0     C76009   4.615   8.881   2.858 -0.5631 -0.9061  0.0358
  564MOL0     C76010   4.552   8.936   2.965  0.3730 -0.0535  0.1733
  564MOL0     C76011   4.418   8.982   2.968 -1.0912 -0.8117  0.2979
  564MOL0     C76012   4.344   8.964   2.845  0.1767  0.2811  0.1339
  564MOL0     O76013   4.212   9.012   2.843 -0.7212 -0.5623  0.2766
  564MOL0     C76014   4.116   8.965   2.748 -0.6062  0.1552 -0.3503
  564MOL0     C76015   3.973   8.988   2.810  0.4310  0.0159 -0.8011
  564MOL0     C76016   3.931   9.129   2.845 -0.8523 -0.6337 -0.2633
  564MOL0     C76017   3.982   9.186   2.974 -0.2956  1.0837 -0.0816
  564MOL0     C76018   3.889   9.299   3.026 -0.5865  0.3648  0.0543
  564MOL0     C76019   3.783   9.234   3.099 -0.0633  0.1068  0.6505
  564MOL0     C76020   3.683   9.330   3.166  0.9591 -0.0171 -0.3101
  564MOL0     C76021   3.575   9.257   3.249  0.0925 -0.2170 -0.8058
  564MOL0     N76022   3.463   9.201   3.168 -0.9356  1.0779  0.2467
  564MOL0     C76023   3.342   9.260   3.145  0.0866 -0.1699 -0.6212
  564MOL0     C76024   3.272   9.168   3.071 -0.6785  0.6469  0.0736
  564MOL0     C76025   3.140   9.205   3.023 -0.2719  0.1274 -0.3435
  564MOL0     C76026   3.017   9.137   3.101  0.2406 -0.6851  0.6598
  564MOL0     C76027   2.878   9.192   3.073  0.3759  0.2353  0.9868
  564MOL0     C76028   2.766   9.102   3.119 -0.8945 -0.1964 -0.2596
  564MOL0     O76029   2.735   9.010   3.017 -0.3310  0.3546  0.0615
  564MOL0     C76030   2.615   8.954   3.018 -0.4289 -0.6952 -0.3041
  564MOL0     C76031   2.526   8.968   3.123  0.2970  0.1172  1.1083
  564MOL0     C76032   2.392   8.920   3.116  0.7858 -0.6350  0.4022
  564MOL0     C76033   2.295   8.946   3.224  0.1798 -0.8662  0.8095
  564MOL0     C76034   2.354   8.835   3.008 -0.5318 -0.1989  0.3027
  564MOL0     C76035   2.220   8.767   2.991  0.4103 -0.9132  0.4588
  564MOL0     O76036   2.224   8.644   2.933 -0.3339 -0.0744 -0.3725
  564MOL0     C76037   2.112   8.580   2.902 -0.3409 -0.3337 -0.1122
  564MOL0     C76038   2.065   8.590   2.766 -0.7093  0.2392 -0.3693
  564MOL0     C76039   1.938   8.532   2.737  0.8650  0.1173 -0.0429
  564MOL0     C76040   1.851   8.474   2.835 -0.9213  0.4436 -0.1750
  564MOL0     O76041   1.731   8.425   2.817 -0.1596  0.2098  0.9726
  564MOL0     C76042   1.661   8.440   2.686  0.7116  0.0521 -0.2031
  564MOL0     C76043   1.516   8.401   2.691 -0.6442  0.5403 -0.1151
  564MOL0     C76044   1.501   8.255   2.671 -0.7498 -0.2593 -0.3390
  564MOL0     C76045   1.357   8.216   2.711  0.6276 -0.9001  0.8282
  564MOL0     C76046   1.345   8.059   2.686  0.7100 -0.3127  0.3301
  564MOL0     C76047   1.204   8.010   2.678 -0.4977 -0.7032  0.3450
  564MOL0     C76048   1.167   7.987   2.825 -0.4317 -0.0483 -0.4106
  564MOL0     C76049   1.029   7.921   2.831  0.0435 -0.0225  0.4436
  564MOL0    Cl76050   0.963   7.914   2.999 -0.2140 -0.3418 -0.2132
  564MOL0     C76051   1.904   8.459   2.967 -0.9467 -0.2610  0.5432
  564MOL0     C76052   2.031   8.523   2.996 -0.2319 -0.2234  0.3881
  564MOL0     O76053   2.120   8.835   3.020  0.7955  0.2513 -0.7714
  564MOL0     C76054   2.450   8.807   2.915 -0.4014  0.3334 -0.5387
  564MOL0     C76055   2.579   8.860   2.920  0.0303 -0.2103 -0.2404
  564MOL0     N76056   3.350   9.048   3.064  1.0078 -0.4204 -0.4021
  564MOL0     N76057   3.465   9.077   3.121  0.0096  0.0735  0.7434
  564MOL0     C76058   4.408   8.914   2.734  0.6776 -0.3117  0.1775
  564MOL0     C76059   4.542   8.877   2.745  0.3696  0.6000 -0.7194
  564MOL0     C76060   4.977   8.850   2.929 -0.3716 -0.2194 -0.1626
  564MOL0     C76061   5.019   8.928   2.823 -0.2168 -0.1575 -0.4824
  564MOL0     C76062   5.157   8.942   2.796  0.5969 -0.0155  0.4299
  564MOL0     C76063   5.251   8.874   2.874 -0.2932 -0.3415 -0.1789
  564MOL0     O76064   5.382   8.915   2.861 -0.3499  0.1116 -0.1930
  564MOL0     C76065   5.461   8.941   2.972  0.2797 -0.5100  0.0713
  564MOL0     C76066   5.582   8.858   2.944 -0.3526 -0.3401  0.4154
  564MOL0     C76067   5.683   8.886   3.055 -0.1833 -0.6257  0.7671
  564MOL0     C76068   5.813   8.812   3.031  0.2358  0.1519  0.4429
  564MOL0     C76069   5.893   8.825   3.153  0.5451 -0.5454 -0.6722
  564MOL0     C76070   5.967   8.849   3.254 -0.6865 -0.8190 -1.2446
  564MOL0     C76071   5.208   8.798   2.981 -0.3600  0.2937  0.4844
  564MOL0     C76072   5.073   8.791   3.008  0.4095 -0.2071 -0.5590
  564MOL0     H76073   4.612   8.953   3.054 -0.8285 -0.2882  1.0575
  564MOL0     H76074   4.365   9.018   3.056 -3.5533  0.5819 -1.6082
  564MOL0     H76075   4.133   9.025   2.658  0.5168  2.5084  1.3404
  564MOL0     H76076   4.129   8.860   2.718  2.8882  0.0802  1.0535
  564MOL0     H76077   3.898   8.966   2.734 -2.2981  0.0494  1.6909
  564MOL0     H76078   3.964   8.917   2.893  1.7154 -0.3378 -0.9426
  564MOL0     H76079   3.978   9.195   2.771 -2.0404 -0.5814 -0.9892
  564MOL0     H76080   3.823   9.137   2.838 -0.7417  1.4826 -0.2430
  564MOL0     H76081   4.001   9.109   3.049  3.5120  0.5359 -1.3560
  564MOL0     H76082   4.083   9.226   2.957  0.4837  0.0516  1.7522
  564MOL0     H76083   3.943   9.363   3.096  0.1851 -0.5187  0.2879
  564MOL0     H76084   3.846   9.354   2.941 -0.9405 -0.9717 -0.6632
  564MOL0     H76085   3.736   9.163   3.030 -0.4804  1.9108 -1.0043
  564MOL0     H76086   3.820   9.168   3.178  0.3204  2.2350  2.3578
  564MOL0     H76087   3.740   9.400   3.228  0.8051  1.0890 -1.4005
  564MOL0     H76088   3.626   9.398   3.103  0.4866 -0.6008 -0.5234
  564MOL0     H76089   3.539   9.333   3.319  1.6711  0.0021 -0.2065
  564MOL0     H76090   3.627   9.187   3.314 -0.0652  1.2148  0.9216
  564MOL0     H76091   3.316   9.361   3.177 -0.0658 -0.2314 -0.5503
  564MOL0     H76092   3.131   9.312   3.045  0.2069 -0.3003  2.1847
  564MOL0     H76093   3.147   9.177   2.917  0.1831 -0.5531 -0.1391
  564MOL0     H76094   3.023   9.155   3.209 -0.0714 -1.0930  0.7481
  564MOL0     H76095   3.018   9.029   3.085 -2.0283 -1.5920  5.0046
  564MOL0     H76096   2.863   9.213   2.967  1.0739  0.5502  0.9420
  564MOL0     H76097   2.859   9.290   3.118  0.0962  0.8140 -0.3464
  564MOL0     H76098   2.688   9.169   3.156 -0.9629 -0.2481 -0.3074
  564MOL0     H76099   2.809   9.047   3.203  2.0092  1.2927 -0.6500
  564MOL0     H76100   2.566   9.013   3.214 -0.1942 -1.6668  2.2510
  564MOL0     H76101   2.292   8.854   3.284  0.2368 -0.0184  2.1641
  564MOL0     H76102   2.319   9.032   3.288 -0.6058  1.7086 -2.0965
  564MOL0     H76103   2.202   8.979   3.176 -1.0465 -2.2934  2.1248
  564MOL0     H76104   2.113   8.652   2.691 -1.1813  1.9546  0.6853
  564MOL0     H76105   1.899   8.550   2.637  2.9253  1.2367 -0.6912
  564MOL0     H76106   1.657   8.544   2.654  2.1100  0.4132  0.6833
  564MOL0     H76107   1.715   8.389   2.606 -1.1571  0.5336 -1.8549
  564MOL0     H76108   1.468   8.441   2.781  1.5716 -0.2459  1.5117
  564MOL0     H76109   1.459   8.433   2.603 -1.3100 -3.2471 -1.2166
  564MOL0     H76110   1.567   8.200   2.739 -3.2401 -0.4390  2.1455
  564MOL0     H76111   1.522   8.232   2.566 -4.0199  0.4478 -1.2586
  564MOL0     H76112   1.334   8.248   2.813  0.0146  0.0132  0.4219
  564MOL0     H76113   1.295   8.277   2.643  2.7277  1.0647  0.5497
  564MOL0     H76114   1.407   8.007   2.759  0.4101  1.6173  2.0630
  564MOL0     H76115   1.390   8.045   2.588  0.5760 -0.3288  0.2713
  564MOL0     H76116   1.140   8.079   2.623  3.6942  2.2936 -1.3273
  564MOL0     H76117   1.196   7.916   2.624 -1.8003 -0.5659  0.2634
  564MOL0     H76118   1.163   8.080   2.883 -2.2568  0.6475 -1.5531
  564MOL0     H76119   1.227   7.912   2.878 -1.4067  0.3779  1.3652
  564MOL0     H76120   1.019   7.821   2.786 -2.6815  0.2829  0.1848
  564MOL0     H76121   0.958   7.974   2.767 -1.0869 -2.1406 -0.1473
  564MOL0     H76122   1.846   8.423   3.051 -0.5932  0.2803  1.0348
  564MOL0     H76123   2.070   8.522   3.098  2.3634  2.7173 -0.4123
  564MOL0     H76124   2.431   8.730   2.841  0.2079  0.1863 -0.5484
  564MOL0     H76125   2.655   8.830   2.849  1.3665  0.4357  0.8636
  564MOL0     H76126   4.362   8.906   2.636  2.0136  0.5468 -0.5522
  564MOL0     H76127   4.604   8.837   2.665  2.6097  1.4359  0.4989
  564MOL0     H76128   4.953   8.994   2.768 -1.2225 -0.9081 -0.2016
  564MOL0     H76129   5.189   9.012   2.719 -2.4662  1.3487  0.2648
  564MOL0     H76130   5.485   9.048   2.972  0.2833 -0.4988  1.4529
  564MOL0     H76131   5.411   8.924   3.068 -0.6170 -1.2771 -0.5042
  564MOL0     H76132   5.612   8.886   2.842 -2.3670  0.9145  0.1120
  564MOL0     H76133   5.558   8.752   2.933  0.1776 -0.2658 -2.2424
  564MOL0     H76134   5.630   8.847   3.143 -0.6651 -1.1512  0.2522
  564MOL0     H76135   5.691   8.995   3.063 -1.2671 -0.3267 -1.4540
  564MOL0     H76136   5.857   8.849   2.938 -2.4073  1.8953 -0.2381
  564MOL0     H76137   5.800   8.704   3.024 -1.5866  0.2435  1.6289
  564MOL0     H76138   6.025   8.867   3.342  3.9152 -0.1522 -4.0923
  564MOL0     H76139   5.289   8.755   3.040  0.3785  0.9838 -0.0055
  564MOL0     H76140   5.050   8.730   3.095  0.7510 -1.1971 -1.1386
  565MOL0     O76141   0.404   2.345   7.926 -0.7388  0.0815 -0.0632
  565MOL0     C76142   0.495   2.306   7.995 -0.0846 -0.3854 -0.8928
  565MOL0     O76143   0.486   2.290   8.134 -0.1969 -0.4313  0.0547
  565MOL0     C76144   0.403   2.388   8.180  0.3317 -1.3715 -0.7789
  565MOL0     C76145   0.267   2.378   8.196 -0.3156  0.0687  0.6516
  565MOL0     C76146   0.188   2.472   8.271 -0.8961 -0.1836  0.4769
  565MOL0     C76147   0.254   2.582   8.332  0.4635  0.3314 -0.2580
  565MOL0     O76148   0.204   2.679   8.418 -0.0375  0.2191  0.0660
  565MOL0     C76149   0.060   2.685   8.433 -0.5911 -0.2263  0.2917
  565MOL0     C76150   0.019   2.796   8.519  0.3485 -0.7119 -0.4266
  565MOL0     C76151   0.051   2.939   8.482  0.3566 -0.2080  0.2682
  565MOL0     C76152  -0.042   2.979   8.367 -0.3866  0.8184 -0.6898
  565MOL0     C76153  -0.000   3.116   8.313  1.0156 -0.0230 -0.3922
  565MOL0     C76154  -0.037   3.223   8.413  0.0820  0.5635  0.5381
  565MOL0     C76155  -0.048   3.364   8.353  0.3806 -0.6580  0.0296
  565MOL0     C76156   0.092   3.425   8.309 -0.6707 -0.6430 -0.5622
  565MOL0     N76157   0.134   3.391   8.172  0.1426  0.1961 -0.0204
  565MOL0     C76158   0.060   3.373   8.053 -0.3968 -0.4327 -0.3566
  565MOL0     C76159   0.148   3.345   7.959 -0.1451  0.4950 -0.7310
  565MOL0     C76160   0.116   3.329   7.821  0.8193 -0.3827  0.8625
  565MOL0     C76161   0.102   3.463   7.740 -0.5111  0.4459  0.3165
  565MOL0     C76162   0.235   3.543   7.748 -0.6528  0.6762 -0.3674
  565MOL0     C76163   0.247   3.641   7.630 -0.0523 -1.3299 -0.3790
  565MOL0     O76164   0.145   3.744   7.652  0.0984 -0.0443  0.0573
  565MOL0     C76165   0.033   3.761   7.577 -0.0292  0.2899  0.0002
  565MOL0     C76166  -0.000   3.675   7.467 -0.3450 -0.5965 -1.0559
  565MOL0     C76167  -0.125   3.681   7.399 -0.4084  0.1310 -0.0675
  565MOL0     C76168  -0.159   3.593   7.276 -0.1384  0.3188 -0.5420
  565MOL0     C76169  -0.219   3.777   7.446 -0.0188  0.2785 -0.5801
  565MOL0     C76170  -0.357   3.797   7.399  0.3738  0.5663  0.0823
  565MOL0     O76171  -0.438   3.849   7.488 -0.1327 -1.1469  0.3479
  565MOL0     C76172  -0.577   3.851   7.464  0.4493  0.5288 -0.8890
  565MOL0     C76173  -0.645   3.951   7.529  0.0954  0.8283  0.2439
  565MOL0     C76174  -0.782   3.969   7.510 -0.1559 -1.1663 -1.0021
  565MOL0     C76175  -0.856   3.883   7.435  0.0096  0.7241 -0.7704
  565MOL0     O76176  -0.994   3.895   7.429 -0.1963  0.4592 -0.9790
  565MOL0     C76177  -1.073   4.016   7.449 -0.4037  0.5985 -0.5961
  565MOL0     C76178  -1.117   4.033   7.590 -0.6104 -0.4994 -0.0031
  565MOL0     C76179  -1.224   4.149   7.600 -0.9757 -0.3383 -0.5620
  565MOL0     C76180  -1.369   4.093   7.607  0.5473  0.1458 -0.2754
  565MOL0     C76181  -1.445   4.192   7.686 -0.4792 -0.6567  0.2208
  565MOL0     C76182  -1.584   4.135   7.702 -0.3287 -0.0881 -0.6208
  565MOL0     C76183  -1.691   4.252   7.747  0.0788  0.0927 -0.8005
  565MOL0     C76184  -1.833   4.192   7.768  1.4003 -0.0028 -0.1299
  565MOL0    Cl76185  -1.881   4.087   7.630  0.0280 -0.0472 -0.1294
  565MOL0     C76186  -0.790   3.770   7.382  0.0698  0.4024  0.1989
  565MOL0     C76187  -0.656   3.758   7.391  0.0441  0.3474  0.0311
  565MOL0     O76188  -0.375   3.777   7.279  1.6725 -0.5846  0.8023
  565MOL0     C76189  -0.182   3.862   7.556  0.3270  0.2221  0.4488
  565MOL0     C76190  -0.060   3.853   7.623  0.7005 -0.4627  0.3097
  565MOL0     N76191   0.281   3.356   8.007 -0.3991  0.3382  0.1457
  565MOL0     N76192   0.267   3.380   8.136 -0.5621  1.0008 -0.1168
  565MOL0     C76193   0.388   2.590   8.322 -1.0916  0.0179  0.9139
  565MOL0     C76194   0.466   2.499   8.243  0.2305 -0.2221 -0.3808
  565MOL0     C76195   0.616   2.250   7.925 -0.1468 -0.6435 -0.2083
  565MOL0     C76196   0.627   2.264   7.788 -0.4103 -0.0645  0.3448
  565MOL0     C76197   0.739   2.198   7.723  0.4350 -0.4749 -0.7226
  565MOL0     C76198   0.830   2.125   7.798 -0.4054 -0.0039  0.9555
  565MOL0     O76199   0.951   2.067   7.765 -0.7903 -0.1581 -0.1401
  565MOL0     C76200   0.986   2.051   7.625 -0.3842  0.4612 -0.1792
  565MOL0     C76201   1.122   1.989   7.626 -0.0828  0.3816 -0.3367
  565MOL0     C76202   1.148   1.853   7.692 -0.6156 -0.5078 -0.5199
  565MOL0     C76203   1.287   1.839   7.745 -0.5136 -0.4838 -0.9075
  565MOL0     C76204   1.391   1.865   7.646 -0.3305 -0.6140 -0.1604
  565MOL0     C76205   1.485   1.898   7.577  0.2224  0.5238 -0.1581
  565MOL0     C76206   0.803   2.103   7.930  0.2302  0.1117  0.7040
  565MOL0     C76207   0.704   2.173   7.993  0.3470  0.5710  0.1965
  565MOL0     H76208   0.203   2.305   8.146 -0.7834 -0.5414  2.0649
  565MOL0     H76209   0.083   2.457   8.294 -1.1878  2.5527  1.2565
  565MOL0     H76210   0.004   2.690   8.339 -0.5956 -2.5420  0.0999
  565MOL0     H76211   0.012   2.594   8.470 -2.2347  1.0901  1.5409
  565MOL0     H76212  -0.086   2.780   8.543  0.2477 -0.5465 -0.7572
  565MOL0     H76213   0.064   2.778   8.617 -0.4864  2.6371  0.6832
  565MOL0     H76214   0.024   3.006   8.564 -0.5745 -0.0790 -0.1385
  565MOL0     H76215   0.159   2.940   8.465  0.8857  1.5123  3.1474
  565MOL0     H76216  -0.048   2.914   8.279  3.6328 -0.1448 -0.4332
  565MOL0     H76217  -0.147   2.979   8.400 -0.6613  2.1099 -1.4869
  565MOL0     H76218   0.108   3.125   8.297  1.6236 -1.4220  2.4204
  565MOL0     H76219  -0.050   3.132   8.217  1.6825  0.3012 -0.6920
  565MOL0     H76220  -0.135   3.202   8.458  0.4769  0.1487  1.2106
  565MOL0     H76221   0.028   3.215   8.500 -1.7578  0.8755  2.0206
  565MOL0     H76222  -0.126   3.378   8.278 -2.7182 -1.6669  2.8153
  565MOL0     H76223  -0.078   3.429   8.436 -1.3656  2.1532 -2.5791
  565MOL0     H76224   0.171   3.387   8.374 -0.2373 -0.4707 -0.9813
  565MOL0     H76225   0.088   3.534   8.315  0.7301 -0.6468  1.8503
  565MOL0     H76226  -0.048   3.374   8.038 -0.1814 -2.1900 -2.4885
  565MOL0     H76227   0.188   3.256   7.781  1.6063  0.3574  0.8927
  565MOL0     H76228   0.017   3.282   7.820  0.9667 -0.8426  2.9177
  565MOL0     H76229   0.017   3.522   7.775 -1.5648 -1.5085  1.1362
  565MOL0     H76230   0.080   3.445   7.634 -1.4910  1.4635  0.3345
  565MOL0     H76231   0.329   3.487   7.736 -1.0459  0.4427 -3.2460
  565MOL0     H76232   0.248   3.610   7.833  1.9656  1.7474 -1.4766
  565MOL0     H76233   0.254   3.585   7.536  1.4138  0.2766 -1.2769
  565MOL0     H76234   0.345   3.690   7.637 -0.1290 -1.3718  1.1833
  565MOL0     H76235   0.060   3.596   7.424 -0.3102 -2.1170  1.5180
  565MOL0     H76236  -0.151   3.646   7.180 -1.6946 -2.3629 -2.2817
  565MOL0     H76237  -0.090   3.508   7.281 -0.6628 -0.0476  1.2071
  565MOL0     H76238  -0.261   3.554   7.284 -0.1861  0.5108 -0.1772
  565MOL0     H76239  -0.600   4.037   7.578  2.0165 -0.5831  1.1160
  565MOL0     H76240  -0.823   4.051   7.568 -1.1991 -1.6621 -1.0103
  565MOL0     H76241  -1.009   4.099   7.418 -0.0262  0.0236 -1.3803
  565MOL0     H76242  -1.165   4.017   7.389  1.0785 -2.3938 -3.2013
  565MOL0     H76243  -1.166   3.937   7.608 -1.3968  0.4801  4.2656
  565MOL0     H76244  -1.023   4.041   7.644  1.2020 -1.2328 -2.8411
  565MOL0     H76245  -1.215   4.210   7.510  0.0181 -0.9507 -0.8976
  565MOL0     H76246  -1.191   4.200   7.691  1.8340  0.2355 -1.7743
  565MOL0     H76247  -1.407   4.078   7.506 -1.4327 -1.2848  0.6196
  565MOL0     H76248  -1.382   4.002   7.666 -0.5222  0.2170 -0.3747
  565MOL0     H76249  -1.450   4.288   7.634  3.8991 -0.4651 -0.2067
  565MOL0     H76250  -1.392   4.224   7.777  1.4199  0.2120 -1.1225
  565MOL0     H76251  -1.622   4.091   7.610 -2.0111  1.1414 -0.5486
  565MOL0     H76252  -1.566   4.058   7.779 -0.2689 -1.3529 -1.8516
  565MOL0     H76253  -1.693   4.327   7.669  0.0134  0.1883 -0.7064
  565MOL0     H76254  -1.655   4.298   7.839  1.5983 -1.5918 -0.4863
  565MOL0     H76255  -1.907   4.272   7.771  1.5227  0.4671 -3.9287
  565MOL0     H76256  -1.836   4.140   7.864  1.1754  1.2962  0.5857
  565MOL0     H76257  -0.849   3.689   7.340 -0.2275  0.0037  1.3661
  565MOL0     H76258  -0.608   3.685   7.327 -1.1110  0.1567 -0.6525
  565MOL0     H76259  -0.245   3.946   7.586  0.0186  1.5638 -3.4176
  565MOL0     H76260  -0.026   3.922   7.699  1.6035  0.2814 -0.7221
  565MOL0     H76261   0.433   2.664   8.387  0.1166  2.3043 -2.2838
  565MOL0     H76262   0.574   2.514   8.243  0.1955  0.0598  0.2183
  565MOL0     H76263   0.560   2.322   7.726  1.8378  0.0409 -2.1680
  565MOL0     H76264   0.757   2.216   7.617 -2.3362 -1.1826 -1.3971
  565MOL0     H76265   0.922   1.978   7.574  1.5471 -2.1127  0.8600
  565MOL0     H76266   1.002   2.139   7.562 -2.9324  0.5503 -0.8403
  565MOL0     H76267   1.183   2.064   7.677  0.1967 -0.5801  0.7910
  565MOL0     H76268   1.162   1.984   7.524 -3.5189  3.3575 -2.0896
  565MOL0     H76269   1.136   1.774   7.617  0.1428  0.9606 -2.2890
  565MOL0     H76270   1.072   1.844   7.770 -0.7254 -0.2508 -0.5945
  565MOL0     H76271   1.306   1.740   7.786  1.3954  0.1242 -0.2224
  565MOL0     H76272   1.293   1.907   7.830 -0.2442  1.2594 -2.2548
  565MOL0     H76273   1.575   1.929   7.527  1.8017  1.0877  2.7627
  565MOL0     H76274   0.872   2.045   7.991  1.3090 -1.3726 -1.7747
  565MOL0     H76275   0.697   2.167   8.101 -1.1630  2.9915  0.2995
  566MOL0     O76276   1.645  11.011   2.851 -0.3307  0.5664  0.0465
  566MOL0     C76277   1.641  10.889   2.867  0.4939 -0.4623  0.2845
  566MOL0     O76278   1.543  10.821   2.938 -0.1758 -0.1001 -0.6470
  566MOL0     C76279   1.425  10.878   2.992  0.1516  0.0543  0.4114
  566MOL0     C76280   1.336  10.785   3.052 -0.4582 -0.0468  0.2852
  566MOL0     C76281   1.199  10.820   3.087 -0.3713  0.2389  0.0536
  566MOL0     C76282   1.168  10.951   3.081 -0.2174 -0.4921  0.3435
  566MOL0     O76283   1.037  10.979   3.116 -0.3315  0.4213  0.7555
  566MOL0     C76284   1.007  11.049   3.228 -0.5070 -0.5809 -0.1760
  566MOL0     C76285   0.906  11.156   3.187  1.0024 -0.2893  0.0018
  566MOL0     C76286   0.768  11.092   3.167  0.1159 -0.1865  0.4194
  566MOL0     C76287   0.669  11.200   3.100  0.4389 -0.1894 -0.5414
  566MOL0     C76288   0.528  11.153   3.084 -0.2149 -0.2397 -0.0835
  566MOL0     C76289   0.452  11.255   2.988  0.3304  0.3473 -0.3499
  566MOL0     C76290   0.301  11.215   2.973 -0.8917 -1.1899 -0.4243
  566MOL0     C76291   0.210  11.311   2.908  1.0344 -0.2114 -0.4751
  566MOL0     N76292   0.065  11.259   2.901  0.3112 -0.1044 -0.1064
  566MOL0     C76293  -0.040  11.308   2.984 -0.2711  0.2325  0.3779
  566MOL0     C76294  -0.152  11.254   2.922  0.6029 -0.1091 -0.6235
  566MOL0     C76295  -0.292  11.273   2.968 -0.1895  0.7104 -0.3860
  566MOL0     C76296  -0.372  11.158   2.923  0.2195  0.6099  0.0202
  566MOL0     C76297  -0.501  11.157   3.009 -0.0315  0.3360  0.3336
  566MOL0     C76298  -0.620  11.258   2.991 -0.2383  0.2377  1.1629
  566MOL0     O76299  -0.684  11.251   2.853  0.4272 -0.4136  0.3804
  566MOL0     C76300  -0.820  11.236   2.859 -0.1463  0.4109  0.3860
  566MOL0     C76301  -0.884  11.149   2.774  0.5830  0.2447 -0.2287
  566MOL0     C76302  -1.030  11.139   2.773  0.1466  0.0819  0.0405
  566MOL0     C76303  -1.078  11.019   2.697  0.7796 -0.4339  0.1693
  566MOL0     C76304  -1.112  11.225   2.846 -0.1925  0.0980 -0.0918
  566MOL0     C76305  -1.249  11.214   2.887 -0.0027 -0.3099  0.1299
  566MOL0     O76306  -1.328  11.329   2.898 -0.3578  0.2506  0.3267
  566MOL0     C76307  -1.466  11.318   2.895 -0.1367 -0.3493  0.3720
  566MOL0     C76308  -1.545  11.267   2.991 -0.6043 -0.1383  0.1295
  566MOL0     C76309  -1.687  11.283   2.997  1.1714 -0.8735  0.1209
  566MOL0     C76310  -1.755  11.348   2.889 -0.3997 -0.3100 -0.2739
  566MOL0     O76311  -1.894  11.352   2.888 -0.6624  0.6281 -0.3746
  566MOL0     C76312  -1.954  11.322   2.769  0.5719 -0.6600  0.2127
  566MOL0     C76313  -2.101  11.296   2.798 -0.2477 -0.8296  0.4673
  566MOL0     C76314  -2.127  11.203   2.916  0.2063  0.1604 -0.8419
  566MOL0     C76315  -2.265  11.142   2.905  0.0002 -0.3889  0.1531
  566MOL0     C76316  -2.354  11.122   3.032  0.7827 -0.1371  1.2376
  566MOL0     C76317  -2.366  11.251   3.115 -0.4166 -0.0788 -0.0735
  566MOL0     C76318  -2.488  11.237   3.209 -0.8174  0.3091 -0.1935
  566MOL0     C76319  -2.468  11.332   3.330  0.4481 -0.6634  0.4717
  566MOL0    Cl76320  -2.471  11.499   3.276  0.0017 -0.3509 -0.1458
  566MOL0     C76321  -1.669  11.404   2.791  0.5457 -0.0162 -1.2171
  566MOL0     C76322  -1.529  11.399   2.802 -0.3267 -0.4077  0.2426
  566MOL0     O76323  -1.295  11.102   2.896 -0.1079 -0.0867 -0.0617
  566MOL0     C76324  -1.043  11.325   2.924  0.5308  0.2320 -0.1921
  566MOL0     C76325  -0.903  11.324   2.931  0.1146 -0.2404 -0.2016
  566MOL0     N76326  -0.114  11.188   2.810 -0.2391 -0.1804 -0.4140
  566MOL0     N76327   0.015  11.192   2.800 -0.3100 -0.3104 -0.7566
  566MOL0     C76328   1.267  11.051   3.043  0.2126  0.6323  0.6656
  566MOL0     C76329   1.389  11.011   2.985 -0.6913 -0.1902  0.4472
  566MOL0     C76330   1.756  10.804   2.809 -0.7443  0.3256  0.3339
  566MOL0     C76331   1.756  10.665   2.813 -0.5108  0.3771 -0.0550
  566MOL0     C76332   1.863  10.583   2.763  0.1971  0.7389  0.0264
  566MOL0     C76333   1.981  10.647   2.721  1.6142 -0.4059 -0.4057
  566MOL0     O76334   2.096  10.589   2.671  0.5527  0.2647 -0.3675
  566MOL0     C76335   2.106  10.444   2.679  1.0591 -0.2719  0.4580
  566MOL0     C76336   2.079  10.379   2.542 -0.7071  0.1590  0.0772
  566MOL0     C76337   1.962  10.421   2.458  0.6738 -0.1964 -0.9164
  566MOL0     C76338   1.846  10.316   2.438 -0.1583 -0.3993 -0.9386
  566MOL0     C76339   1.770  10.282   2.559  0.3278  0.3112  0.3146
  566MOL0     C76340   1.702  10.265   2.659  0.5174  0.5787  0.8806
  566MOL0     C76341   1.968  10.786   2.700 -0.6551 -0.2225 -0.2638
  566MOL0     C76342   1.859  10.865   2.749 -0.4591  0.4407 -0.5346
  566MOL0     H76343   1.371  10.683   3.069  0.5363  0.4914  1.6650
  566MOL0     H76344   1.133  10.745   3.129  0.9511 -0.3390  1.1927
  566MOL0     H76345   0.968  10.985   3.308 -2.6621 -0.9242 -1.4205
  566MOL0     H76346   1.088  11.106   3.276 -1.8608  2.3630 -1.1558
  566MOL0     H76347   0.886  11.226   3.268  0.2002 -0.2469 -0.2315
  566MOL0     H76348   0.930  11.208   3.093 -1.8549  0.7921 -0.2100
  566MOL0     H76349   0.772  11.003   3.102 -0.9518  0.4777 -0.6009
  566MOL0     H76350   0.729  11.059   3.263  0.2698  1.4908  1.0817
  566MOL0     H76351   0.664  11.286   3.167  2.3097  0.4340 -1.1263
  566MOL0     H76352   0.709  11.229   3.002  0.3661  0.4807 -0.3751
  566MOL0     H76353   0.527  11.064   3.020  0.6748 -0.7551  0.6012
  566MOL0     H76354   0.475  11.141   3.179 -0.6363 -0.4316 -0.3380
  566MOL0     H76355   0.457  11.352   3.040 -2.4925 -0.3095  1.3546
  566MOL0     H76356   0.501  11.257   2.890  2.6211 -0.5208  0.7118
  566MOL0     H76357   0.294  11.128   2.906  0.5029 -2.5884  1.1313
  566MOL0     H76358   0.270  11.184   3.073 -1.4595 -0.0512 -0.2445
  566MOL0     H76359   0.242  11.325   2.804 -0.7759  3.4003 -0.7179
  566MOL0     H76360   0.205  11.413   2.948  1.2408 -0.8396  1.1930
  566MOL0     H76361  -0.041  11.356   3.081 -0.0015 -0.3336  0.6670
  566MOL0     H76362  -0.280  11.274   3.077  1.5811 -0.6912 -0.5157
  566MOL0     H76363  -0.335  11.366   2.931 -0.4918 -0.1410 -2.2865
  566MOL0     H76364  -0.318  11.063   2.932 -2.2100 -0.8255  0.4556
  566MOL0     H76365  -0.391  11.175   2.817 -1.1865 -2.6603 -0.3614
  566MOL0     H76366  -0.478  11.148   3.116  2.5250  1.5184 -0.0576
  566MOL0     H76367  -0.544  11.059   2.985  0.6586  0.3415 -0.9523
  566MOL0     H76368  -0.586  11.361   3.008 -0.5803  0.6057 -0.2859
  566MOL0     H76369  -0.690  11.222   3.067  0.2642 -1.8967  0.6562
  566MOL0     H76370  -0.828  11.092   2.700 -1.1157  0.7328 -1.9651
  566MOL0     H76371  -1.182  11.037   2.668  1.0741  1.5298  0.1975
  566MOL0     H76372  -1.035  11.012   2.596 -1.0690  1.8473 -0.8600
  566MOL0     H76373  -1.091  10.930   2.760 -1.9659  0.3247  0.8176
  566MOL0     H76374  -1.496  11.215   3.073 -0.9003 -0.4195  0.1313
  566MOL0     H76375  -1.754  11.262   3.081 -1.5884  4.5972 -0.2309
  566MOL0     H76376  -1.934  11.400   2.695  1.8430 -0.6627  0.5394
  566MOL0     H76377  -1.918  11.228   2.727 -2.1241 -1.5192 -0.3893
  566MOL0     H76378  -2.129  11.399   2.821 -1.1620 -0.9282 -0.1548
  566MOL0     H76379  -2.157  11.272   2.707  0.9717  3.4415 -1.7250
  566MOL0     H76380  -2.116  11.242   3.018 -1.9995 -0.4649 -0.3171
  566MOL0     H76381  -2.061  11.116   2.916  1.2119  0.8951 -1.3765
  566MOL0     H76382  -2.327  11.203   2.838  1.5166  1.4528  0.3642
  566MOL0     H76383  -2.249  11.051   2.847  0.2086 -0.3297  0.1189
  566MOL0     H76384  -2.306  11.041   3.086 -1.6054 -3.4895 -1.2486
  566MOL0     H76385  -2.447  11.092   2.982  2.8115  0.0953 -3.2093
  566MOL0     H76386  -2.279  11.259   3.180 -1.2457 -1.9044  1.3563
  566MOL0     H76387  -2.366  11.336   3.046  0.5907 -0.3117 -0.3762
  566MOL0     H76388  -2.493  11.132   3.236  0.4185 -0.5273 -2.8272
  566MOL0     H76389  -2.581  11.271   3.161 -1.6442 -0.4263  0.8525
  566MOL0     H76390  -2.381  11.312   3.393  1.2907  1.3974  0.0298
  566MOL0     H76391  -2.557  11.321   3.392  1.9249 -3.7308  2.2542
  566MOL0     H76392  -1.711  11.466   2.713 -0.8784 -2.1151 -2.2280
  566MOL0     H76393  -1.462  11.447   2.731  0.3322  0.6660  1.5573
  566MOL0     H76394  -1.099  11.392   2.989  1.8708 -0.5955  1.9338
  566MOL0     H76395  -0.858  11.406   2.986 -1.5503 -1.0038  2.4867
  566MOL0     H76396   1.236  11.154   3.053  1.8580  1.2811 -0.6249
  566MOL0     H76397   1.461  11.086   2.951  0.7889 -2.4500 -1.7367
  566MOL0     H76398   1.666  10.620   2.852 -1.7240  2.4826 -0.2498
  566MOL0     H76399   1.840  10.477   2.762 -1.6259  1.0902  0.0664
  566MOL0     H76400   2.198  10.415   2.731 -0.5610  0.2214  3.8290
  566MOL0     H76401   2.029  10.397   2.740 -1.3967  1.4530 -1.1149
  566MOL0     H76402   2.088  10.271   2.556  0.5801  0.2279 -0.1044
  566MOL0     H76403   2.167  10.406   2.482 -0.5378  0.5562  0.5015
  566MOL0     H76404   2.002  10.446   2.359 -0.8921  0.4659 -1.4311
  566MOL0     H76405   1.915  10.514   2.493 -1.2920 -1.8951  1.2408
  566MOL0     H76406   1.880  10.220   2.397  4.1436 -0.1899  1.5477
  566MOL0     H76407   1.770  10.354   2.369 -2.8336  1.2205  2.5821
  566MOL0     H76408   1.627  10.241   2.731  0.1394 -0.9644  0.0220
  566MOL0     H76409   2.039  10.827   2.629 -2.7402  1.3447 -1.5468
  566MOL0     H76410   1.852  10.969   2.718 -1.4313  1.0174  1.4429
  567MOL0     O76411   6.298   5.237   0.717  0.2285 -0.2830 -0.2821
  567MOL0     C76412   6.350   5.197   0.610 -0.3425  0.9788 -0.2881
  567MOL0     O76413   6.323   5.252   0.487 -0.3322  0.2980  0.6142
  567MOL0     C76414   6.231   5.347   0.471 -0.3250  0.7981 -0.1917
  567MOL0     C76415   6.257   5.473   0.516  0.0677  0.2700  0.0052
  567MOL0     C76416   6.161   5.574   0.483 -0.0940 -0.4564 -0.5090
  567MOL0     C76417   6.050   5.541   0.406  0.9835 -0.2156 -0.2358
  567MOL0     O76418   5.948   5.626   0.361 -0.5564  0.4398  0.6574
  567MOL0     C76419   5.942   5.758   0.414 -0.0433  0.0318  0.0629
  567MOL0     C76420   5.835   5.831   0.334 -1.7142  0.5453 -0.8550
  567MOL0     C76421   5.694   5.824   0.379 -0.3020  0.0063 -0.2256
  567MOL0     C76422   5.642   5.680   0.374  0.0092  0.0784 -0.3568
  567MOL0     C76423   5.486   5.681   0.409  0.4112  0.0898  0.2156
  567MOL0     C76424   5.429   5.548   0.358  0.0624 -0.8231  0.3302
  567MOL0     C76425   5.277   5.547   0.384 -0.7375 -0.1772 -0.0696
  567MOL0     C76426   5.242   5.438   0.278 -0.5276  0.8785 -0.6051
  567MOL0     N76427   5.106   5.397   0.291  0.4892 -0.6230 -0.1930
  567MOL0     C76428   5.003   5.459   0.223 -0.0300  0.3039  0.1365
  567MOL0     C76429   4.906   5.362   0.217 -0.4873 -0.8266  0.6160
  567MOL0     C76430   4.783   5.381   0.132  0.1951  0.7400 -0.7002
  567MOL0     C76431   4.653   5.406   0.217 -0.2351 -0.1534  0.0666
  567MOL0     C76432   4.609   5.303   0.318  0.4443 -0.3969  0.8335
  567MOL0     C76433   4.461   5.319   0.350  0.1379 -0.0977  0.0617
  567MOL0     O76434   4.376   5.247   0.258 -0.2895 -0.0081  0.0458
  567MOL0     C76435   4.235   5.277   0.275 -0.1547  0.8031 -0.4198
  567MOL0     C76436   4.148   5.227   0.176 -0.4640  0.1864 -0.2748
  567MOL0     C76437   4.009   5.233   0.179  0.6238  0.2471  0.2048
  567MOL0     C76438   3.931   5.168   0.067  0.4829 -0.3788  0.9122
  567MOL0     C76439   3.956   5.322   0.286  0.5960 -1.0706 -0.5508
  567MOL0     C76440   3.822   5.377   0.290 -0.7532 -0.7161  0.3380
  567MOL0     O76441   3.736   5.339   0.182 -0.2611 -0.9627  0.3956
  567MOL0     C76442   3.607   5.390   0.172  0.0850  0.1979 -0.3523
  567MOL0     C76443   3.566   5.521   0.186 -1.6815  1.3225 -0.0727
  567MOL0     C76444   3.440   5.554   0.143 -0.5408 -0.6389  0.6598
  567MOL0     C76445   3.343   5.457   0.118 -0.1200 -0.5099  0.2578
  567MOL0     O76446   3.231   5.505   0.067 -0.5773  0.6012  0.4143
  567MOL0     C76447   3.121   5.449   0.143 -0.2483 -0.1549  1.0532
  567MOL0     C76448   2.993   5.513   0.073 -0.2746 -0.8370 -0.3221
  567MOL0     C76449   2.863   5.473   0.146 -0.0427 -0.5287 -0.5878
  567MOL0     C76450   2.746   5.548   0.077 -0.8696  0.1488 -0.0259
  567MOL0     C76451   2.613   5.511   0.144  0.5168 -0.1289  0.1347
  567MOL0     C76452   2.578   5.361   0.140  0.1522 -0.4291 -0.3174
  567MOL0     C76453   2.461   5.326   0.227 -0.7981  0.2610 -0.1240
  567MOL0     C76454   2.419   5.178   0.219  0.9079  0.2568 -0.5260
  567MOL0    Cl76455   2.536   5.085   0.307 -0.4681  0.2952  0.5795
  567MOL0     C76456   3.378   5.327   0.128 -0.6085 -0.2654 -0.6604
  567MOL0     C76457   3.514   5.290   0.150  0.4745 -1.1670  0.2936
  567MOL0     O76458   3.784   5.441   0.388 -0.1702  0.8191  0.0241
  567MOL0     C76459   4.047   5.371   0.386 -0.2515 -0.0686 -0.9501
  567MOL0     C76460   4.181   5.342   0.381  0.7399 -0.3275  0.5229
  567MOL0     N76461   4.947   5.252   0.288  0.6765  0.4197  0.5126
  567MOL0     N76462   5.068   5.271   0.323  0.4998 -0.0848  0.7893
  567MOL0     C76463   6.027   5.411   0.358 -0.8452 -0.3911 -0.3861
  567MOL0     C76464   6.119   5.316   0.396  0.6321  0.7726 -0.0480
  567MOL0     C76465   6.457   5.097   0.611  0.4368 -0.4419 -0.1620
  567MOL0     C76466   6.509   5.046   0.734  0.3127  0.9597  0.1246
  567MOL0     C76467   6.607   4.949   0.735  0.4137  0.1130  0.6818
  567MOL0     C76468   6.667   4.900   0.612 -0.8337 -0.5908  0.3473
  567MOL0     O76469   6.760   4.797   0.604 -0.3248  0.0591  0.0156
  567MOL0     C76470   6.821   4.756   0.727 -0.1199  0.9352  0.1456
  567MOL0     C76471   6.936   4.658   0.710 -0.5144  0.2435 -0.1345
  567MOL0     C76472   6.939   4.556   0.598 -0.8864 -0.5260  1.0578
  567MOL0     C76473   7.063   4.469   0.609 -0.7569  0.4525 -0.4741
  567MOL0     C76474   7.080   4.344   0.533 -0.6241  0.1644 -0.0081
  567MOL0     C76475   7.101   4.242   0.465 -0.1036 -0.4948 -0.3622
  567MOL0     C76476   6.623   4.957   0.490  0.1319 -0.0026 -0.5947
  567MOL0     C76477   6.526   5.050   0.496 -0.6894 -0.7573 -0.2412
  567MOL0     H76478   6.348   5.494   0.571  0.2621 -0.6152  0.0377
  567MOL0     H76479   6.175   5.676   0.519 -0.2902 -0.6676  0.1911
  567MOL0     H76480   5.892   5.756   0.512 -0.3170  1.0734 -0.0445
  567MOL0     H76481   6.041   5.804   0.423 -0.0038 -0.1305  0.4875
  567MOL0     H76482   5.873   5.934   0.339 -0.9271  0.1923  1.1397
  567MOL0     H76483   5.841   5.802   0.228 -1.6943 -1.4945 -0.3325
  567MOL0     H76484   5.663   5.873   0.472  0.9109 -0.7497  0.6032
  567MOL0     H76485   5.642   5.882   0.302 -2.0605  0.3483  1.1549
  567MOL0     H76486   5.655   5.642   0.272 -0.7120  2.0976 -1.2527
  567MOL0     H76487   5.697   5.610   0.437  0.2447 -2.6279 -3.2990
  567MOL0     H76488   5.482   5.685   0.518 -1.4891  2.3337  0.1463
  567MOL0     H76489   5.429   5.765   0.369  0.1633 -0.2536 -0.1611
  567MOL0     H76490   5.444   5.545   0.250 -0.5159  1.6331  0.1079
  567MOL0     H76491   5.468   5.461   0.411  0.0106 -1.2732 -0.3696
  567MOL0     H76492   5.254   5.513   0.485  2.4138 -2.7145 -0.0351
  567MOL0     H76493   5.233   5.644   0.361 -0.9650 -0.8638 -2.9766
  567MOL0     H76494   5.307   5.352   0.298 -1.8207  0.4132  2.1264
  567MOL0     H76495   5.264   5.479   0.179 -0.1838  0.7085 -0.6008
  567MOL0     H76496   5.004   5.550   0.165  0.9610 -0.5876 -1.3085
  567MOL0     H76497   4.809   5.464   0.065 -1.7478  2.3091  0.3818
  567MOL0     H76498   4.776   5.294   0.066 -1.8498 -0.1233  0.5623
  567MOL0     H76499   4.572   5.419   0.145  1.2517  2.8933 -1.2464
  567MOL0     H76500   4.687   5.502   0.257  1.2501 -0.2406 -0.9365
  567MOL0     H76501   4.672   5.312   0.406  1.5737 -2.8471  0.3767
  567MOL0     H76502   4.630   5.198   0.293  2.6668  0.1400  0.2525
  567MOL0     H76503   4.455   5.428   0.350  2.5719  0.1092  1.6493
  567MOL0     H76504   4.438   5.303   0.455 -1.4341  2.7271  0.2326
  567MOL0     H76505   4.201   5.179   0.095  1.3236  2.8577 -0.8343
  567MOL0     H76506   3.989   5.089   0.020 -2.2371 -1.6744 -0.5338
  567MOL0     H76507   3.844   5.116   0.107 -2.6489  1.5371 -2.6784
  567MOL0     H76508   3.892   5.241  -0.005 -0.6239  0.2437  2.0978
  567MOL0     H76509   3.639   5.600   0.197 -0.6765  0.4253 -0.0961
  567MOL0     H76510   3.410   5.658   0.133  0.6005 -0.2809  0.8038
  567MOL0     H76511   3.119   5.341   0.126  1.7130 -0.4679  2.4305
  567MOL0     H76512   3.126   5.467   0.250 -3.4225 -1.8384  1.5844
  567MOL0     H76513   3.003   5.621   0.091  0.3197 -0.9388 -0.0251
  567MOL0     H76514   2.992   5.495  -0.035  0.8389  2.3916 -0.9843
  567MOL0     H76515   2.875   5.492   0.253  0.0462 -1.2924 -0.4573
  567MOL0     H76516   2.856   5.369   0.112  0.3446 -0.0805 -2.1576
  567MOL0     H76517   2.769   5.655   0.079 -1.0780  0.2432  3.1579
  567MOL0     H76518   2.751   5.511  -0.025 -3.1073 -1.9088  0.5273
  567MOL0     H76519   2.532   5.555   0.085  2.0718  0.6338 -1.5377
  567MOL0     H76520   2.614   5.552   0.245  0.1505 -2.6325  1.2412
  567MOL0     H76521   2.564   5.331   0.036  0.4242  2.4668 -1.2786
  567MOL0     H76522   2.665   5.305   0.174  1.0743  0.6143 -0.8809
  567MOL0     H76523   2.375   5.391   0.208 -0.9847  0.1110  0.2057
  567MOL0     H76524   2.489   5.354   0.329  1.4596 -2.0761  0.0065
  567MOL0     H76525   2.420   5.151   0.113  0.7076  0.2230 -0.5186
  567MOL0     H76526   2.323   5.154   0.266  1.2912 -0.6402 -0.1623
  567MOL0     H76527   3.308   5.247   0.106 -0.7475 -0.2298 -0.3465
  567MOL0     H76528   3.537   5.184   0.157  0.9944 -0.9512  2.8824
  567MOL0     H76529   4.009   5.435   0.466 -0.1538 -0.8006 -0.3114
  567MOL0     H76530   4.249   5.400   0.443  0.5715  0.0756  0.3351
  567MOL0     H76531   5.941   5.383   0.298 -1.6132  0.5666  0.2400
  567MOL0     H76532   6.117   5.214   0.358 -2.9773  1.2076 -1.5099
  567MOL0     H76533   6.464   5.089   0.824  2.4577 -0.3025  1.9110
  567MOL0     H76534   6.637   4.901   0.828  1.0495  1.7308  1.3512
  567MOL0     H76535   6.852   4.844   0.785 -2.3797  0.8829  1.5839
  567MOL0     H76536   6.744   4.717   0.795 -0.3295 -2.5147 -1.8522
  567MOL0     H76537   6.937   4.599   0.802  0.7491 -0.9826 -0.8917
  567MOL0     H76538   7.022   4.726   0.699 -1.9595  1.8058 -2.6582
  567MOL0     H76539   6.927   4.605   0.501  0.9396 -1.2498  0.4350
  567MOL0     H76540   6.854   4.487   0.600 -0.6730 -0.8181  4.1457
  567MOL0     H76541   7.066   4.423   0.709  3.2346 -0.7531 -0.9730
  567MOL0     H76542   7.155   4.522   0.583  0.5747 -1.7952 -0.6182
  567MOL0     H76543   7.119   4.145   0.421  0.5468 -0.5869  0.0932
  567MOL0     H76544   6.667   4.939   0.393 -0.1768 -0.7183 -0.6053
  567MOL0     H76545   6.504   5.097   0.401  0.7486  0.2571 -0.1070
  568MOL0     O76546   1.597   8.232   4.156 -0.1282  0.1361  0.8920
  568MOL0     C76547   1.539   8.148   4.227  0.2017 -0.5353  0.6811
  568MOL0     O76548   1.408   8.149   4.256  0.0659  0.4928 -0.6064
  568MOL0     C76549   1.334   8.249   4.203  0.0152 -0.2032  0.0056
  568MOL0     C76550   1.210   8.205   4.142 -1.1913  0.8776 -0.3232
  568MOL0     C76551   1.123   8.305   4.101  0.1542  0.4866 -0.2747
  568MOL0     C76552   1.154   8.443   4.104 -0.0977  0.8961 -0.2144
  568MOL0     O76553   1.088   8.547   4.057  0.4578  0.2963 -0.6033
  568MOL0     C76554   0.955   8.531   4.002  0.0911 -0.1650  0.0063
  568MOL0     C76555   0.921   8.666   3.933  0.5204 -1.1334  0.0694
  568MOL0     C76556   0.801   8.651   3.838 -0.0454 -0.4352 -0.1305
  568MOL0     C76557   0.667   8.681   3.901 -0.0851  0.2154 -0.7907
  568MOL0     C76558   0.551   8.651   3.800  0.4966  0.5195 -0.2217
  568MOL0     C76559   0.418   8.682   3.862 -0.7204  0.6678 -0.3259
  568MOL0     C76560   0.316   8.676   3.754  0.6808  0.8440 -0.8574
  568MOL0     C76561   0.175   8.683   3.819 -0.1214 -0.4791 -0.4649
  568MOL0     N76562   0.060   8.668   3.739 -0.0195 -0.3352  0.2595
  568MOL0     C76563  -0.005   8.759   3.658 -0.6593  0.0687  0.2980
  568MOL0     C76564  -0.119   8.699   3.615 -0.2392 -0.8869  0.1647
  568MOL0     C76565  -0.219   8.782   3.528 -0.3625  0.0223 -0.2876
  568MOL0     C76566  -0.206   8.936   3.541 -0.0325 -0.4386  0.2418
  568MOL0     C76567  -0.303   9.005   3.437  0.6546  0.1111 -1.6577
  568MOL0     C76568  -0.256   9.139   3.393  0.7681 -0.3645 -0.1720
  568MOL0     O76569  -0.356   9.198   3.314  0.3315  0.1763 -0.2737
  568MOL0     C76570  -0.444   9.292   3.363 -0.7121  0.7542  0.1554
  568MOL0     C76571  -0.447   9.357   3.493  0.0885 -0.3179  0.5839
  568MOL0     C76572  -0.551   9.441   3.530  0.7274  1.1181 -0.2571
  568MOL0     C76573  -0.561   9.502   3.676 -0.0622  0.5787  0.6639
  568MOL0     C76574  -0.657   9.461   3.431  0.1329 -0.3236 -0.1568
  568MOL0     C76575  -0.784   9.540   3.460  0.0842  0.4196  0.4909
  568MOL0     O76576  -0.893   9.475   3.413  1.0933 -0.5967  0.5643
  568MOL0     C76577  -1.021   9.538   3.414  0.3118 -0.2898  0.6391
  568MOL0     C76578  -1.043   9.672   3.375 -0.1672  0.6503  1.1323
  568MOL0     C76579  -1.170   9.735   3.374  0.9420  0.5750  0.0200
  568MOL0     C76580  -1.283   9.668   3.415  0.0622  0.2108 -0.2427
  568MOL0     O76581  -1.401   9.731   3.406  0.9164 -0.0450  0.5785
  568MOL0     C76582  -1.497   9.686   3.309  0.4087 -0.1551 -0.4073
  568MOL0     C76583  -1.633   9.755   3.327  0.5249 -0.3120  0.4063
  568MOL0     C76584  -1.691   9.708   3.459  0.7850  0.2082  0.6473
  568MOL0     C76585  -1.812   9.786   3.509  0.2225 -0.5173 -0.2729
  568MOL0     C76586  -1.833   9.763   3.660 -0.4259 -0.2580 -0.8796
  568MOL0     C76587  -1.943   9.869   3.703  0.3175  0.2701 -1.0237
  568MOL0     C76588  -1.988   9.835   3.849  0.2026 -0.6867 -0.1196
  568MOL0     C76589  -2.069   9.954   3.901 -0.7810  0.1537  0.8651
  568MOL0    Cl76590  -2.144   9.898   4.049 -0.3896  0.0529 -0.0468
  568MOL0     C76591  -1.264   9.539   3.452  0.4497 -0.8833  1.1501
  568MOL0     C76592  -1.136   9.480   3.471  0.2050  0.5907  0.1201
  568MOL0     O76593  -0.782   9.632   3.540 -0.1668 -0.3235 -0.5082
  568MOL0     C76594  -0.652   9.395   3.306  0.1124  0.2495 -0.0350
  568MOL0     C76595  -0.540   9.316   3.270  0.4989 -0.7704 -0.3102
  568MOL0     N76596  -0.133   8.574   3.677 -0.2319  0.1240  0.1153
  568MOL0     N76597  -0.023   8.557   3.740  0.1739  0.1201  0.1236
  568MOL0     C76598   1.276   8.477   4.170 -0.6620 -0.9047  0.1358
  568MOL0     C76599   1.363   8.385   4.226  0.3465  0.4148 -0.1521
  568MOL0     C76600   1.619   8.053   4.311 -0.4452 -0.2709  0.6038
  568MOL0     C76601   1.564   7.937   4.359 -0.6788  0.1453 -0.0072
  568MOL0     C76602   1.643   7.840   4.424 -0.7522  0.3445  0.7087
  568MOL0     C76603   1.780   7.855   4.430  0.0141 -0.8833 -0.2765
  568MOL0     O76604   1.845   7.746   4.485 -0.5836 -0.0389  1.0657
  568MOL0     C76605   1.982   7.772   4.511 -0.1901 -0.7661 -1.0032
  568MOL0     C76606   2.055   7.689   4.618  0.2958 -0.5438  0.1910
  568MOL0     C76607   2.203   7.721   4.620 -0.4389  0.1239 -0.0463
  568MOL0     C76608   2.285   7.611   4.688 -0.4836  1.0618 -0.1208
  568MOL0     C76609   2.274   7.479   4.616  0.3763 -0.3322  0.7005
  568MOL0     C76610   2.269   7.385   4.546 -0.0658  0.1036  0.9019
  568MOL0     C76611   1.839   7.973   4.379 -1.1358 -0.7951 -0.0411
  568MOL0     C76612   1.756   8.073   4.318 -0.5268 -0.1090 -0.5506
  568MOL0     H76613   1.182   8.103   4.121  1.8993 -0.4434  1.2832
  568MOL0     H76614   1.030   8.283   4.049 -0.2301  1.9413 -0.2486
  568MOL0     H76615   0.958   8.459   3.920 -0.3054 -1.1387  0.8401
  568MOL0     H76616   0.883   8.499   4.077 -1.6348  0.4240 -1.3303
  568MOL0     H76617   0.910   8.755   3.997  0.7144 -0.9466 -0.1551
  568MOL0     H76618   1.013   8.694   3.881 -0.6333  1.2997 -0.8407
  568MOL0     H76619   0.819   8.708   3.747 -1.8041  0.0823 -0.1925
  568MOL0     H76620   0.789   8.549   3.802 -1.5672 -0.1234 -0.5792
  568MOL0     H76621   0.656   8.635   4.000  0.3347  1.2421 -0.2584
  568MOL0     H76622   0.651   8.787   3.921  0.5220  0.2958 -0.7253
  568MOL0     H76623   0.568   8.722   3.718 -0.0543  0.2566 -0.5710
  568MOL0     H76624   0.550   8.548   3.762  0.7864  1.0822 -1.8289
  568MOL0     H76625   0.400   8.611   3.943  0.0369 -2.4455 -2.6798
  568MOL0     H76626   0.421   8.784   3.902 -2.2138  2.6130 -4.4849
  568MOL0     H76627   0.333   8.748   3.673  0.6700  2.0577  0.1955
  568MOL0     H76628   0.324   8.574   3.715  1.1707  0.7796 -0.5949
  568MOL0     H76629   0.166   8.776   3.875 -0.1425 -1.9046  2.1097
  568MOL0     H76630   0.169   8.615   3.905 -1.5846  0.8935  0.5688
  568MOL0     H76631   0.043   8.856   3.650  2.7004 -1.5023 -0.4360
  568MOL0     H76632  -0.198   8.760   3.423 -3.3328 -2.2721 -0.5400
  568MOL0     H76633  -0.318   8.747   3.558  0.7865 -2.0407  1.4719
  568MOL0     H76634  -0.104   8.971   3.523 -0.1725 -0.3323 -0.3711
  568MOL0     H76635  -0.235   8.969   3.641  1.6209  1.1088  0.2446
  568MOL0     H76636  -0.402   9.020   3.481  1.3286 -0.0604 -0.0126
  568MOL0     H76637  -0.316   8.953   3.342 -4.2454  0.4223 -1.4224
  568MOL0     H76638  -0.161   9.119   3.343  1.4783 -1.3353  1.4752
  568MOL0     H76639  -0.224   9.196   3.481 -0.3854  0.2526 -0.1296
  568MOL0     H76640  -0.363   9.339   3.560  1.8420 -4.0748 -2.2105
  568MOL0     H76641  -0.646   9.470   3.736  0.7059  0.1069  1.5199
  568MOL0     H76642  -0.468   9.470   3.723  0.4125  0.5770 -0.2499
  568MOL0     H76643  -0.555   9.609   3.653 -3.2634  0.6931 -0.0682
  568MOL0     H76644  -0.960   9.733   3.340  1.8837 -2.1886  0.7619
  568MOL0     H76645  -1.169   9.838   3.338  0.6503 -0.1084 -2.0824
  568MOL0     H76646  -1.456   9.714   3.212  2.2052  1.0564  0.6470
  568MOL0     H76647  -1.516   9.579   3.318 -3.8067  0.5823  2.7122
  568MOL0     H76648  -1.604   9.861   3.325  1.3032 -0.5047  0.9956
  568MOL0     H76649  -1.697   9.739   3.240 -1.5643  0.8356  1.6275
  568MOL0     H76650  -1.614   9.713   3.537  0.9992 -0.1193  0.4614
  568MOL0     H76651  -1.727   9.605   3.452 -2.3548  1.0447  2.5666
  568MOL0     H76652  -1.795   9.893   3.494  0.8617 -0.7518 -1.3030
  568MOL0     H76653  -1.897   9.759   3.446  1.2665 -1.7901 -1.1857
  568MOL0     H76654  -1.740   9.777   3.716  0.4878  1.7274 -2.7719
  568MOL0     H76655  -1.868   9.660   3.666 -1.9369  0.1549 -2.0748
  568MOL0     H76656  -1.906   9.971   3.709  0.4714  0.2123 -1.0112
  568MOL0     H76657  -2.037   9.854   3.649 -1.4659 -0.8458  2.1203
  568MOL0     H76658  -1.907   9.828   3.923  0.8480  4.0753 -0.0640
  568MOL0     H76659  -2.052   9.747   3.853 -0.7757  0.0537  1.3496
  568MOL0     H76660  -2.151   9.974   3.831 -0.4564 -0.3170  0.3430
  568MOL0     H76661  -2.002  10.037   3.926 -0.3923 -0.5028  2.0794
  568MOL0     H76662  -1.355   9.484   3.471 -0.1359  0.1116  1.3347
  568MOL0     H76663  -1.135   9.376   3.505 -0.7019  0.7660  0.7153
  568MOL0     H76664  -0.745   9.404   3.250 -1.0853  1.4871  2.0237
  568MOL0     H76665  -0.536   9.264   3.175  1.0515  1.7656 -1.7618
  568MOL0     H76666   1.295   8.583   4.173  2.6307 -1.4050  0.7127
  568MOL0     H76667   1.450   8.397   4.289 -0.0787 -4.3747  1.7974
  568MOL0     H76668   1.456   7.933   4.371 -0.5974  0.8735  1.1441
  568MOL0     H76669   1.597   7.755   4.474 -2.8353  0.7189 -0.4757
  568MOL0     H76670   2.039   7.774   4.418  2.4836  1.5896  0.5289
  568MOL0     H76671   1.989   7.874   4.551 -0.7654 -0.5840 -1.3653
  568MOL0     H76672   2.045   7.582   4.598 -1.2614 -0.5674  0.9298
  568MOL0     H76673   2.000   7.691   4.713 -1.6219 -1.0661 -0.8353
  568MOL0     H76674   2.207   7.813   4.679 -3.6368 -1.9527  3.9946
  568MOL0     H76675   2.236   7.731   4.516  1.1978  0.1535  0.4506
  568MOL0     H76676   2.243   7.590   4.787 -1.2158  0.6058 -0.5216
  568MOL0     H76677   2.390   7.636   4.707 -0.0162 -0.7883 -0.0949
  568MOL0     H76678   2.256   7.299   4.483  1.9980 -2.4743  3.6836
  568MOL0     H76679   1.947   7.983   4.386 -1.4051  1.2160  4.1197
  568MOL0     H76680   1.798   8.166   4.282  0.5934  0.0819  1.1384
  569MOL0     O76681   5.443   2.333   3.302 -0.5163  1.2465 -0.1022
  569MOL0     C76682   5.512   2.273   3.220 -0.7558  0.0417 -0.0485
  569MOL0     O76683   5.453   2.188   3.137 -0.6724 -0.1378  0.4089
  569MOL0     C76684   5.326   2.142   3.131  0.7607 -0.3242 -1.1650
  569MOL0     C76685   5.242   2.129   3.243 -0.6630  0.4812  0.8075
  569MOL0     C76686   5.108   2.094   3.236 -0.1267 -0.3788 -1.4427
  569MOL0     C76687   5.049   2.068   3.111  0.0109  0.4950  0.2400
  569MOL0     O76688   4.915   2.040   3.085  0.1326 -0.8337 -0.3671
  569MOL0     C76689   4.831   2.008   3.197 -0.6164 -0.5835  0.4028
  569MOL0     C76690   4.697   1.944   3.153 -0.5607  1.0015 -0.2941
  569MOL0     C76691   4.569   2.042   3.157 -0.5712 -0.2618 -1.3591
  569MOL0     C76692   4.520   2.030   3.302  0.0078  1.0299 -0.0961
  569MOL0     C76693   4.404   2.123   3.336 -0.2354  0.4173  0.0722
  569MOL0     C76694   4.289   2.055   3.382 -0.3957  0.3573 -1.0745
  569MOL0     C76695   4.163   2.139   3.407 -0.0017 -0.1289  0.7809
  569MOL0     C76696   4.095   2.185   3.279 -0.8708  0.4235 -0.3992
  569MOL0     N76697   3.966   2.249   3.297 -0.1572  0.0792  0.3099
  569MOL0     C76698   3.934   2.370   3.367 -0.6955  0.2631  0.2654
  569MOL0     C76699   3.801   2.384   3.348 -0.2267 -0.0968 -0.2013
  569MOL0     C76700   3.714   2.492   3.408  0.7632  0.5331  0.2376
  569MOL0     C76701   3.602   2.426   3.487  0.1466 -0.3331 -0.4481
  569MOL0     C76702   3.485   2.517   3.513 -0.0646 -0.2038 -0.3689
  569MOL0     C76703   3.373   2.443   3.593 -0.1691 -0.2555 -0.9119
  569MOL0     O76704   3.307   2.340   3.525  0.4042  0.2662  0.0140
  569MOL0     C76705   3.191   2.298   3.577 -0.4551  0.8012 -0.2171
  569MOL0     C76706   3.154   2.312   3.715  0.5078  0.4389  1.2457
  569MOL0     C76707   3.030   2.261   3.765  0.0972  0.4808  0.1549
  569MOL0     C76708   3.002   2.275   3.908  0.2206  0.0947 -0.2080
  569MOL0     C76709   2.936   2.206   3.673 -0.0102 -0.3567 -0.2733
  569MOL0     C76710   2.803   2.136   3.701 -0.5837 -0.3635 -0.1669
  569MOL0     O76711   2.727   2.086   3.592  0.4558 -0.5926 -0.0334
  569MOL0     C76712   2.611   2.015   3.616  0.0149 -0.3792 -0.3120
  569MOL0     C76713   2.499   2.076   3.677  0.0627  0.2028  0.4002
  569MOL0     C76714   2.382   2.000   3.698 -0.4423  0.8002  0.3782
  569MOL0     C76715   2.378   1.861   3.655  0.4775 -0.0434  0.0808
  569MOL0     O76716   2.279   1.768   3.693  0.7931 -1.2768  0.3952
  569MOL0     C76717   2.158   1.829   3.725 -0.5140 -0.2903 -0.4387
  569MOL0     C76718   2.055   1.722   3.712  0.1164 -0.3769 -0.3626
  569MOL0     C76719   1.919   1.793   3.734  0.1146  0.7226 -0.0563
  569MOL0     C76720   1.830   1.752   3.619  0.6138 -0.4868 -0.7373
  569MOL0     C76721   1.684   1.796   3.629  1.0916 -0.1683 -0.0004
  569MOL0     C76722   1.657   1.949   3.619  0.8439 -0.4698  0.0743
  569MOL0     C76723   1.730   2.013   3.502 -0.7674  0.1518  0.1051
  569MOL0     C76724   1.714   2.163   3.473 -0.2649  0.1418 -0.1314
  569MOL0    Cl76725   1.543   2.206   3.464  0.1144 -0.5079  0.0392
  569MOL0     C76726   2.494   1.807   3.592  0.5748 -0.7076 -0.7202
  569MOL0     C76727   2.608   1.885   3.573  0.8245  0.0069 -0.4091
  569MOL0     O76728   2.769   2.123   3.819  0.2725 -0.2169  0.1558
  569MOL0     C76729   2.977   2.196   3.536 -0.3730  0.2455 -0.6911
  569MOL0     C76730   3.101   2.241   3.494 -0.1649  0.5253  0.3220
  569MOL0     N76731   3.754   2.272   3.281 -0.5376 -0.0796  0.1337
  569MOL0     N76732   3.849   2.187   3.256 -0.3032  0.2756 -0.3600
  569MOL0     C76733   5.142   2.047   3.002 -0.4487 -0.8468  0.1629
  569MOL0     C76734   5.272   2.097   3.005  0.0131 -0.0466  0.1235
  569MOL0     C76735   5.658   2.306   3.208  0.7833 -0.1628  0.2163
  569MOL0     C76736   5.744   2.214   3.161  0.9156  0.6716 -0.3880
  569MOL0     C76737   5.886   2.232   3.164  0.8137  0.8817 -0.7544
  569MOL0     C76738   5.932   2.352   3.208 -0.4460 -1.3846  0.3999
  569MOL0     O76739   6.068   2.374   3.199  0.1037  0.4415 -0.0812
  569MOL0     C76740   6.123   2.506   3.230 -0.4164 -0.0700  0.0506
  569MOL0     C76741   6.081   2.599   3.120 -0.3956 -0.0013 -0.2924
  569MOL0     C76742   6.196   2.693   3.072 -0.5606  1.0533  0.7169
  569MOL0     C76743   6.144   2.805   2.971 -0.5765  0.4706 -0.7522
  569MOL0     C76744   6.139   2.755   2.836 -0.8560  1.5011 -0.2329
  569MOL0     C76745   6.139   2.715   2.719  0.3842  0.0449 -0.2276
  569MOL0     C76746   5.845   2.465   3.245  0.3241  0.9748 -0.5310
  569MOL0     C76747   5.712   2.430   3.250 -0.4460 -0.5987  0.4739
  569MOL0     H76748   5.290   2.147   3.339  0.0169 -0.7078  0.7102
  569MOL0     H76749   5.045   2.098   3.324  0.5382  1.2211 -0.9978
  569MOL0     H76750   4.894   1.944   3.260 -2.7647 -0.1611  3.2021
  569MOL0     H76751   4.817   2.102   3.251  2.4763  2.1151 -2.9871
  569MOL0     H76752   4.706   1.908   3.050 -3.1821  1.3892 -0.7288
  569MOL0     H76753   4.677   1.856   3.215  0.6699  0.0981 -1.1253
  569MOL0     H76754   4.601   2.144   3.137  3.8282 -1.2237 -0.3569
  569MOL0     H76755   4.500   2.001   3.083  0.1354  1.5455 -3.0902
  569MOL0     H76756   4.485   1.928   3.320  0.0485  1.0645  0.1854
  569MOL0     H76757   4.597   2.043   3.378 -1.9839  1.6544  1.9402
  569MOL0     H76758   4.451   2.194   3.405  1.5975  0.5471 -1.2485
  569MOL0     H76759   4.391   2.172   3.239  0.0667 -0.9735 -0.6876
  569MOL0     H76760   4.269   1.969   3.318 -4.1824 -1.3474  1.9750
  569MOL0     H76761   4.314   2.010   3.479 -0.9958  2.2580  0.0154
  569MOL0     H76762   4.098   2.070   3.462  1.1714 -1.2374  0.8015
  569MOL0     H76763   4.202   2.229   3.456  0.4766  1.3243 -2.0832
  569MOL0     H76764   4.078   2.102   3.210  0.6763  1.0626 -1.6224
  569MOL0     H76765   4.144   2.272   3.235  0.9946  0.7885  2.1374
  569MOL0     H76766   4.000   2.441   3.417 -2.0748 -0.1815  2.9157
  569MOL0     H76767   3.770   2.541   3.489 -0.2560  1.2057  0.5555
  569MOL0     H76768   3.675   2.565   3.336 -1.4644  0.2600  1.0883
  569MOL0     H76769   3.641   2.385   3.581  1.9336 -0.7774 -1.3345
  569MOL0     H76770   3.552   2.351   3.425 -1.8959 -2.5010  3.4947
  569MOL0     H76771   3.431   2.524   3.418 -0.3008  1.5400 -0.1286
  569MOL0     H76772   3.506   2.619   3.545 -0.3776  0.2280 -1.4779
  569MOL0     H76773   3.298   2.516   3.624  1.6909  0.4426  2.4095
  569MOL0     H76774   3.433   2.394   3.671  1.5327 -1.1243 -2.6712
  569MOL0     H76775   3.212   2.366   3.789 -0.4968  0.6549  1.8995
  569MOL0     H76776   2.985   2.173   3.942  3.1062 -1.3007 -2.5708
  569MOL0     H76777   3.087   2.311   3.967 -0.1803 -0.6186  0.8425
  569MOL0     H76778   2.925   2.353   3.916  2.2057  2.2655 -1.0495
  569MOL0     H76779   2.513   2.178   3.710  1.3881  0.0944  0.2488
  569MOL0     H76780   2.308   2.042   3.765  1.5911  0.0127  3.2642
  569MOL0     H76781   2.153   1.877   3.823 -0.5987  0.6467 -0.8947
  569MOL0     H76782   2.149   1.897   3.640  3.0501 -2.7456 -3.1306
  569MOL0     H76783   2.074   1.683   3.612  0.7963 -0.1353 -0.3314
  569MOL0     H76784   2.065   1.639   3.783 -2.1614  2.3302  3.5599
  569MOL0     H76785   1.935   1.901   3.740 -1.9517  0.9999  2.4688
  569MOL0     H76786   1.875   1.754   3.827  1.7750  0.9167  0.8495
  569MOL0     H76787   1.877   1.789   3.527  0.8851  0.5404 -0.1952
  569MOL0     H76788   1.830   1.643   3.624 -0.0901 -0.4635 -0.0738
  569MOL0     H76789   1.646   1.770   3.728  2.5164 -0.0554  0.5995
  569MOL0     H76790   1.614   1.738   3.567 -1.1342  1.2146  1.0697
  569MOL0     H76791   1.550   1.973   3.613  0.9710 -0.0704 -0.6064
  569MOL0     H76792   1.695   2.003   3.707 -0.9729  1.2973 -0.1652
  569MOL0     H76793   1.700   1.955   3.414  4.0493 -1.7857 -0.6101
  569MOL0     H76794   1.837   1.991   3.508 -0.9540 -0.5681  0.8658
  569MOL0     H76795   1.764   2.205   3.385  0.9647  1.7242  1.2404
  569MOL0     H76796   1.744   2.217   3.563  0.9226  1.1155 -1.0707
  569MOL0     H76797   2.491   1.701   3.566 -1.0582 -0.5861 -1.1298
  569MOL0     H76798   2.683   1.834   3.513  0.1786 -0.5508 -0.7595
  569MOL0     H76799   2.917   2.151   3.458  0.1040  0.9285 -1.4809
  569MOL0     H76800   3.121   2.229   3.388 -0.1824  2.3613  0.0842
  569MOL0     H76801   5.103   2.006   2.910 -1.5763 -2.4345  1.2996
  569MOL0     H76802   5.340   2.092   2.920 -1.0145 -2.0525 -0.6630
  569MOL0     H76803   5.707   2.125   3.111 -0.6632  0.7033  0.6502
  569MOL0     H76804   5.958   2.155   3.140 -2.5349 -3.0817  0.7030
  569MOL0     H76805   6.097   2.553   3.325  3.5952  0.6422  0.9433
  569MOL0     H76806   6.231   2.496   3.239 -0.2817 -1.7199 -2.2628
  569MOL0     H76807   5.992   2.659   3.141 -0.0545 -0.0606  1.4803
  569MOL0     H76808   6.058   2.528   3.040  3.9340 -0.8551 -1.0151
  569MOL0     H76809   6.271   2.638   3.013 -1.7769 -1.2417  1.1711
  569MOL0     H76810   6.241   2.736   3.161 -0.7940 -0.3032  1.5152
  569MOL0     H76811   6.216   2.887   2.977  3.9086 -3.1072  0.3354
  569MOL0     H76812   6.050   2.850   3.001  0.3687  0.9525  1.6718
  569MOL0     H76813   6.129   2.688   2.616 -1.4976  3.4947 -1.1024
  569MOL0     H76814   5.874   2.565   3.273 -1.2317  1.4471 -0.5286
  569MOL0     H76815   5.651   2.515   3.277  0.4161  0.3945 -0.6241
  570MOL0     O76816   3.132   9.700   5.645  0.5474  0.3595  0.0590
  570MOL0     C76817   3.229   9.640   5.700  0.0474 -0.2602 -0.2997
  570MOL0     O76818   3.229   9.603   5.830  0.1165  0.5933 -0.7290
  570MOL0     C76819   3.117   9.622   5.915  0.9578 -0.2119  0.5303
  570MOL0     C76820   3.138   9.666   6.044  0.1137  0.2866 -0.3451
  570MOL0     C76821   3.034   9.687   6.124  0.7880  0.0396 -0.6965
  570MOL0     C76822   2.901   9.671   6.078  0.0986  0.6382 -0.5021
  570MOL0     O76823   2.813   9.685   6.186 -0.5111 -0.5527 -0.1881
  570MOL0     C76824   2.683   9.716   6.149  1.1748  0.5844  0.0821
  570MOL0     C76825   2.611   9.766   6.275  0.8526  0.1877 -0.0922
  570MOL0     C76826   2.467   9.705   6.285  0.6749  0.1345 -0.6151
  570MOL0     C76827   2.388   9.769   6.395 -1.0422 -0.2805 -0.4261
  570MOL0     C76828   2.248   9.721   6.383  0.5226  0.4057  0.2247
  570MOL0     C76829   2.153   9.768   6.506 -0.5189 -0.6815  0.9312
  570MOL0     C76830   2.101   9.912   6.492 -0.4040 -0.4631  0.1637
  570MOL0     C76831   1.974   9.941   6.573  0.3324  0.7497 -0.3651
  570MOL0     N76832   1.855   9.900   6.494 -0.1393  0.1877  0.0567
  570MOL0     C76833   1.808   9.966   6.388 -0.5360  0.7395 -0.0194
  570MOL0     C76834   1.689   9.917   6.362 -0.1009 -0.0507 -0.8753
  570MOL0     C76835   1.610   9.955   6.238  0.2140  0.0441 -0.2389
  570MOL0     C76836   1.507  10.067   6.292 -0.2498  0.5533  0.4543
  570MOL0     C76837   1.381  10.015   6.368 -0.3904  0.6558  0.7069
  570MOL0     C76838   1.282   9.960   6.261  0.7247 -0.1121  0.1624
  570MOL0     O76839   1.172   9.891   6.319 -0.7685  0.1430 -0.3619
  570MOL0     C76840   1.053   9.956   6.346 -0.5175  0.9192  0.2651
  570MOL0     C76841   0.941   9.867   6.357 -0.5284 -0.2303  0.0180
  570MOL0     C76842   0.814   9.911   6.406 -0.0082  0.0888  0.6268
  570MOL0     C76843   0.706   9.808   6.406  0.1835 -0.2402 -0.1980
  570MOL0     C76844   0.794  10.048   6.440  0.3115 -0.9267  0.0503
  570MOL0     C76845   0.657  10.091   6.461  0.0148 -0.5880 -0.0850
  570MOL0     O76846   0.625  10.176   6.358  0.7853 -0.3440 -0.6864
  570MOL0     C76847   0.491  10.206   6.326  0.6927 -0.0712 -0.7037
  570MOL0     C76848   0.387  10.111   6.330 -0.5599  0.3314  0.3508
  570MOL0     C76849   0.255  10.145   6.294 -0.0270 -0.3008 -0.0860
  570MOL0     C76850   0.220  10.277   6.274 -0.1354  0.1896 -0.3820
  570MOL0     O76851   0.086  10.298   6.248  0.6040  0.0259  0.6597
  570MOL0     C76852   0.027  10.432   6.248 -0.3562 -0.1523  0.0797
  570MOL0     C76853  -0.115  10.421   6.198  0.1717 -0.1485  0.6240
  570MOL0     C76854  -0.200  10.355   6.306 -0.0190  1.3017  0.5245
  570MOL0     C76855  -0.353  10.371   6.273 -0.0853 -0.0141  0.3400
  570MOL0     C76856  -0.436  10.335   6.392  0.6619  0.0875 -0.0973
  570MOL0     C76857  -0.587  10.359   6.376  0.1317 -0.5822 -0.3788
  570MOL0     C76858  -0.660  10.320   6.507  0.0240  0.4090 -0.1047
  570MOL0     C76859  -0.817  10.341   6.493  0.0863  0.0401 -0.4198
  570MOL0    Cl76860  -0.906  10.297   6.641 -0.2674 -0.0651 -0.3295
  570MOL0     C76861   0.318  10.379   6.274  0.1146 -1.0058  1.0283
  570MOL0     C76862   0.455  10.335   6.301  0.0822  0.3010  0.3922
  570MOL0     O76863   0.578  10.053   6.547  0.2426  0.1968 -0.8212
  570MOL0     C76864   0.908  10.137   6.427 -0.4068  0.0037  0.4177
  570MOL0     C76865   1.036  10.095   6.386  0.9217 -1.2295  0.5093
  570MOL0     N76866   1.665   9.821   6.462 -0.3636  0.4695 -1.0418
  570MOL0     N76867   1.760   9.810   6.544 -0.2862 -0.3371  0.4091
  570MOL0     C76868   2.879   9.627   5.949  0.1770 -0.8594 -0.0476
  570MOL0     C76869   2.986   9.601   5.867 -0.7514  0.4838  0.0750
  570MOL0     C76870   3.338   9.600   5.611  0.5117 -0.5758 -0.4096
  570MOL0     C76871   3.452   9.535   5.662 -0.1313 -0.2609 -0.0966
  570MOL0     C76872   3.563   9.505   5.591 -0.6938 -0.4554  0.1963
  570MOL0     C76873   3.574   9.534   5.455  0.6119  0.4457  0.1715
  570MOL0     O76874   3.681   9.508   5.365 -0.1916 -0.7054 -0.3664
  570MOL0     C76875   3.792   9.417   5.404 -0.4815 -0.8864  0.0628
  570MOL0     C76876   3.856   9.374   5.271  0.1428 -0.3718  1.4329
  570MOL0     C76877   3.761   9.260   5.205 -0.5974 -0.8789 -0.1145
  570MOL0     C76878   3.808   9.209   5.068 -0.1128  0.3927  0.2352
  570MOL0     C76879   3.708   9.121   5.010  0.1766 -0.0805  0.5124
  570MOL0     C76880   3.605   9.071   4.965 -0.2426 -0.3519  0.1056
  570MOL0     C76881   3.458   9.603   5.400  0.0649  0.3087 -0.4536
  570MOL0     C76882   3.343   9.633   5.477 -0.6576  0.6224 -0.1110
  570MOL0     H76883   3.243   9.674   6.067  0.2286 -0.9635 -0.3888
  570MOL0     H76884   3.051   9.723   6.225  1.7389  1.0121 -1.1881
  570MOL0     H76885   2.679   9.788   6.067  0.1369  0.6823  0.2140
  570MOL0     H76886   2.633   9.625   6.113  2.6266 -0.0467 -0.4650
  570MOL0     H76887   2.666   9.728   6.362 -1.5112 -1.1856  0.9387
  570MOL0     H76888   2.620   9.875   6.271 -0.9471  0.3345 -1.7353
  570MOL0     H76889   2.416   9.723   6.191  1.1816 -0.5540 -1.0321
  570MOL0     H76890   2.472   9.597   6.305 -2.7143  0.4149  3.0270
  570MOL0     H76891   2.427   9.755   6.496 -0.6036 -1.3776 -0.7390
  570MOL0     H76892   2.394   9.877   6.376  0.2937 -0.2950 -0.1813
  570MOL0     H76893   2.218   9.756   6.284 -1.1235  1.7467  1.1308
  570MOL0     H76894   2.254   9.612   6.386  1.9847  0.3128 -2.7580
  570MOL0     H76895   2.066   9.702   6.499 -1.1690  0.1915  0.5596
  570MOL0     H76896   2.198   9.745   6.603 -0.7600 -0.5803  1.0690
  570MOL0     H76897   2.181   9.981   6.520 -0.4828 -1.3121  2.7305
  570MOL0     H76898   2.072   9.927   6.387 -0.3727 -0.3054  0.1762
  570MOL0     H76899   1.970  10.049   6.587  2.8207  0.6217  2.2183
  570MOL0     H76900   1.990   9.886   6.666 -0.8263  2.1861  0.7320
  570MOL0     H76901   1.852  10.045   6.327 -0.1721  1.1383  0.7498
  570MOL0     H76902   1.679   9.996   6.164 -1.8433 -1.0697 -2.9482
  570MOL0     H76903   1.552   9.874   6.193 -0.0970  0.9711 -1.5852
  570MOL0     H76904   1.479  10.121   6.201  1.2860  0.4195 -0.1310
  570MOL0     H76905   1.559  10.141   6.354  0.8664  0.2885 -0.1241
  570MOL0     H76906   1.327  10.098   6.414 -0.5541  2.8809 -3.0634
  570MOL0     H76907   1.402   9.930   6.434 -0.2537  1.0643  1.1946
  570MOL0     H76908   1.325   9.881   6.199  1.0302  1.1211 -1.2484
  570MOL0     H76909   1.265  10.043   6.192  1.0767  0.2841  0.5450
  570MOL0     H76910   0.967   9.767   6.324  2.2264  0.5251 -0.4071
  570MOL0     H76911   0.660   9.786   6.503 -1.1524 -0.9879 -0.9639
  570MOL0     H76912   0.624   9.850   6.346  0.2447 -0.3051 -0.3257
  570MOL0     H76913   0.736   9.715   6.359 -0.1679  0.5258 -2.0093
  570MOL0     H76914   0.423  10.015   6.364  0.4779  0.5544 -0.0761
  570MOL0     H76915   0.179  10.068   6.282  0.7528 -0.8176 -2.1883
  570MOL0     H76916   0.031  10.483   6.344 -0.3892 -3.1221  1.7853
  570MOL0     H76917   0.084  10.504   6.188  0.7815 -1.6209 -0.6929
  570MOL0     H76918  -0.158  10.520   6.183 -0.7283 -0.4750  0.9579
  570MOL0     H76919  -0.129  10.357   6.110 -0.8729 -0.0981  0.7347
  570MOL0     H76920  -0.164  10.398   6.400  2.9293  0.8893 -0.3164
  570MOL0     H76921  -0.163  10.252   6.310  2.3582  1.5957 -5.0909
  570MOL0     H76922  -0.370  10.476   6.246  1.1619  0.0338 -0.3072
  570MOL0     H76923  -0.385  10.310   6.188  1.4285 -0.9678  0.4196
  570MOL0     H76924  -0.395  10.389   6.478  3.6492  2.5444 -2.7934
  570MOL0     H76925  -0.421  10.227   6.402  0.1193  0.0995  0.9151
  570MOL0     H76926  -0.603  10.465   6.354 -0.8011 -0.3609  1.2186
  570MOL0     H76927  -0.619  10.301   6.289  1.6576 -0.1533 -1.2707
  570MOL0     H76928  -0.617  10.371   6.594  1.7652 -2.2889  0.7373
  570MOL0     H76929  -0.642  10.213   6.521  0.1181  0.8215  4.5163
  570MOL0     H76930  -0.849  10.284   6.405  1.4291 -0.4109 -0.6402
  570MOL0     H76931  -0.840  10.446   6.475  0.5111  0.1802 -0.1627
  570MOL0     H76932   0.300  10.484   6.252 -0.5171 -1.2341  0.4251
  570MOL0     H76933   0.541  10.400   6.288  0.8776 -0.9257 -0.7704
  570MOL0     H76934   0.896  10.244   6.443  1.5730  0.8089 -2.7155
  570MOL0     H76935   1.111  10.173   6.384 -1.5302  1.3209 -2.5949
  570MOL0     H76936   2.776   9.623   5.916  0.4933 -0.3535 -1.1560
  570MOL0     H76937   2.969   9.562   5.767 -0.5452 -1.1736  0.6600
  570MOL0     H76938   3.447   9.526   5.770  0.1126 -1.9238 -0.1998
  570MOL0     H76939   3.648   9.464   5.645  1.2170  2.9643  0.0583
  570MOL0     H76940   3.855   9.468   5.478 -1.1402 -1.3002  0.9335
  570MOL0     H76941   3.761   9.330   5.463 -0.1610  0.0524  1.6648
  570MOL0     H76942   3.949   9.328   5.307 -0.3553 -1.0429  1.8826
  570MOL0     H76943   3.870   9.457   5.201 -1.1196 -1.5436 -0.2667
  570MOL0     H76944   3.662   9.304   5.191 -0.0675  1.3855  2.4167
  570MOL0     H76945   3.751   9.181   5.280  1.0160  1.0932  2.3237
  570MOL0     H76946   3.887   9.135   5.080 -0.5903 -0.1458  0.0720
  570MOL0     H76947   3.835   9.291   5.000 -0.7891  0.1215 -0.3783
  570MOL0     H76948   3.526   9.027   4.907  0.7299 -1.2005 -0.6122
  570MOL0     H76949   3.461   9.631   5.295 -1.5551  0.1528 -0.5652
  570MOL0     H76950   3.271   9.695   5.425 -0.6389 -1.6530 -3.1434
  571MOL0     O76951   6.193   0.541   4.362 -0.5408  0.4653 -0.0347
  571MOL0     C76952   6.299   0.501   4.419  0.1205  0.2651  0.2198
  571MOL0     O76953   6.419   0.554   4.402 -0.1322  0.7404 -0.5627
  571MOL0     C76954   6.445   0.633   4.296 -0.2483 -0.3940  0.1647
  571MOL0     C76955   6.493   0.585   4.174  0.6591 -0.3349 -0.0648
  571MOL0     C76956   6.532   0.671   4.072  0.2276 -0.0275  0.3140
  571MOL0     C76957   6.560   0.806   4.102  0.4764  0.1305 -0.4667
  571MOL0     O76958   6.609   0.871   3.994 -0.5732 -0.2692 -0.5188
  571MOL0     C76959   6.579   1.016   3.986 -0.3049 -0.1516  0.4756
  571MOL0     C76960   6.524   1.040   3.849 -0.1936 -0.0006 -0.1644
  571MOL0     C76961   6.419   1.152   3.848  0.1074  0.4942 -0.2610
  571MOL0     C76962   6.356   1.174   3.711  0.6709 -1.0910  0.1090
  571MOL0     C76963   6.285   1.308   3.691 -0.5571  0.3080  0.5706
  571MOL0     C76964   6.253   1.322   3.544  0.2977  0.2204  0.5105
  571MOL0     C76965   6.190   1.462   3.509 -0.1661  0.4840  0.0500
  571MOL0     C76966   6.173   1.481   3.361  0.3758  0.2000 -0.3153
  571MOL0     N76967   6.085   1.392   3.286  0.4858  0.0583  1.0625
  571MOL0     C76968   6.125   1.269   3.235 -0.1639  0.1838 -0.4676
  571MOL0     C76969   6.017   1.215   3.176  0.0188  0.2793  0.0214
  571MOL0     C76970   6.002   1.092   3.100 -0.4747 -0.2870  0.4740
  571MOL0     C76971   5.976   0.966   3.191 -0.0184  0.0026 -0.1628
  571MOL0     C76972   5.831   0.968   3.242  0.6891  0.4113  0.8283
  571MOL0     C76973   5.792   0.828   3.300  0.6716  0.1266  0.0043
  571MOL0     O76974   5.860   0.814   3.429 -0.0459  0.7869  0.3875
  571MOL0     C76975   5.789   0.741   3.527 -0.9037  1.0250  0.0944
  571MOL0     C76976   5.701   0.635   3.498  0.8476 -0.0731 -0.1022
  571MOL0     C76977   5.628   0.565   3.602  0.1515  0.2390 -0.2442
  571MOL0     C76978   5.521   0.475   3.554 -0.5257  0.1262  0.5934
  571MOL0     C76979   5.684   0.569   3.735 -0.7272 -0.6952  0.6208
  571MOL0     C76980   5.642   0.480   3.844  0.0770 -0.1340 -0.9600
  571MOL0     O76981   5.523   0.415   3.829 -0.4464  0.7294 -0.2369
  571MOL0     C76982   5.473   0.313   3.919  0.0716 -0.7607 -0.0325
  571MOL0     C76983   5.332   0.289   3.901 -0.1021 -0.2047  0.2520
  571MOL0     C76984   5.269   0.182   3.972 -0.7560 -0.1334 -0.0702
  571MOL0     C76985   5.346   0.109   4.065 -0.4015 -0.3288  0.2559
  571MOL0     O76986   5.277   0.035   4.157  0.0739 -0.6447 -0.3575
  571MOL0     C76987   5.338  -0.054   4.249  0.9644 -0.4147 -0.1973
  571MOL0     C76988   5.236  -0.162   4.286 -0.1736 -0.2726 -0.2871
  571MOL0     C76989   5.116  -0.101   4.355  0.2220 -0.2602 -0.1841
  571MOL0     C76990   5.036  -0.215   4.420  0.8814  0.3746  0.0246
  571MOL0     C76991   4.914  -0.141   4.484 -1.2097  0.4812 -0.3158
  571MOL0     C76992   4.811  -0.235   4.550 -0.4609  0.3200 -0.4537
  571MOL0     C76993   4.876  -0.346   4.630  0.4828  0.1675 -0.7222
  571MOL0     C76994   4.770  -0.425   4.702 -0.6607  0.0854  0.6457
  571MOL0    Cl76995   4.706  -0.524   4.579  0.1169 -0.2301  0.0203
  571MOL0     C76996   5.485   0.135   4.083 -0.1320 -0.2553  0.1899
  571MOL0     C76997   5.549   0.235   4.005 -0.3356 -0.0050 -0.3214
  571MOL0     O76998   5.723   0.471   3.941  0.8143  0.2127  0.5534
  571MOL0     C76999   5.777   0.667   3.763  0.4503 -0.2450  1.0761
  571MOL0     C77000   5.826   0.754   3.660  0.8265 -0.6331 -1.3043
  571MOL0     N77001   5.912   1.306   3.197  0.5796 -0.1531  0.3209
  571MOL0     N77002   5.959   1.409   3.242  0.0694  0.0773 -0.9624
  571MOL0     C77003   6.523   0.858   4.225  0.2385 -0.0462  0.4248
  571MOL0     C77004   6.467   0.767   4.316 -0.1054 -0.5674 -0.3131
  571MOL0     C77005   6.300   0.387   4.512  0.7661 -0.6669  1.0393
  571MOL0     C77006   6.418   0.319   4.551 -0.3105 -1.0518  0.5190
  571MOL0     C77007   6.416   0.205   4.635 -0.2612  0.3648 -0.7170
  571MOL0     C77008   6.295   0.155   4.692  0.8600 -0.7976  1.2523
  571MOL0     O77009   6.306   0.049   4.780 -0.5573  0.1598  0.6062
  571MOL0     C77010   6.190  -0.007   4.843 -0.0278 -0.0679  0.2436
  571MOL0     C77011   6.112  -0.095   4.756 -0.2891  0.2003 -0.8058
  571MOL0     C77012   5.980  -0.129   4.836 -0.0561  0.2963 -0.3803
  571MOL0     C77013   5.980  -0.285   4.880 -0.5453 -0.0543  0.5491
  571MOL0     C77014   5.848  -0.329   4.942  0.2453  0.6913 -0.0135
  571MOL0     C77015   5.743  -0.374   5.000  0.2980  0.5485  0.1727
  571MOL0     C77016   6.174   0.220   4.649  0.9722 -0.1300  0.2369
  571MOL0     C77017   6.177   0.329   4.554 -0.0821 -0.2245  0.3145
  571MOL0     H77018   6.480   0.478   4.161 -0.6755 -0.4062  1.4913
  571MOL0     H77019   6.554   0.627   3.975  2.3090  0.2568  0.5965
  571MOL0     H77020   6.507   1.050   4.061  0.3440 -1.2776  1.6546
  571MOL0     H77021   6.670   1.075   4.000 -1.0926  0.8047  1.7706
  571MOL0     H77022   6.610   1.064   3.787 -0.0511  2.2847  0.8328
  571MOL0     H77023   6.480   0.949   3.807 -0.8541  0.9409 -1.5701
  571MOL0     H77024   6.340   1.121   3.917  2.7779 -3.0547  1.5605
  571MOL0     H77025   6.457   1.251   3.875 -1.5934  1.5449 -1.5632
  571MOL0     H77026   6.443   1.170   3.645 -0.9269  0.5066 -2.2483
  571MOL0     H77027   6.293   1.089   3.683 -0.7564 -0.1969  0.5239
  571MOL0     H77028   6.192   1.299   3.748 -0.2285 -1.4337  0.8585
  571MOL0     H77029   6.345   1.397   3.713  1.5591 -1.1511  0.9828
  571MOL0     H77030   6.344   1.314   3.484 -0.0718  0.0337 -0.0295
  571MOL0     H77031   6.179   1.243   3.530  0.8380 -0.5509  1.7771
  571MOL0     H77032   6.094   1.486   3.556 -2.4383 -3.4831 -1.9926
  571MOL0     H77033   6.267   1.532   3.543  0.5616  0.7680 -2.0657
  571MOL0     H77034   6.277   1.462   3.330  0.9325 -1.2636  2.1875
  571MOL0     H77035   6.142   1.583   3.336 -0.6779 -0.2734 -1.0317
  571MOL0     H77036   6.226   1.230   3.239  0.7697  2.5622  1.0034
  571MOL0     H77037   5.933   1.106   3.016  3.0457 -0.2144 -2.6538
  571MOL0     H77038   6.095   1.070   3.048 -0.9628  0.0546 -0.5681
  571MOL0     H77039   6.037   0.976   3.281  0.0588  1.2295 -0.3240
  571MOL0     H77040   6.009   0.883   3.129  2.7952 -0.4589  1.7775
  571MOL0     H77041   5.767   1.003   3.161 -0.2194 -1.0754  0.8674
  571MOL0     H77042   5.814   1.035   3.326 -1.0258  4.0817 -2.1685
  571MOL0     H77043   5.814   0.744   3.234 -1.2474 -0.4461  0.0118
  571MOL0     H77044   5.682   0.833   3.303  0.6021  1.3389 -2.2231
  571MOL0     H77045   5.678   0.609   3.395  2.7529 -0.4264 -0.4821
  571MOL0     H77046   5.532   0.371   3.585 -1.1932  1.2042  5.1081
  571MOL0     H77047   5.425   0.504   3.598 -0.2428  3.0026 -0.4233
  571MOL0     H77048   5.516   0.492   3.446 -0.2412 -1.5972  0.2819
  571MOL0     H77049   5.271   0.354   3.839 -1.6204  0.1622  2.0281
  571MOL0     H77050   5.166   0.158   3.950 -0.5689 -1.3173  0.2613
  571MOL0     H77051   5.430  -0.104   4.218 -0.3484 -1.4461 -2.6905
  571MOL0     H77052   5.371   0.004   4.336 -0.4426 -0.5954  0.4781
  571MOL0     H77053   5.211  -0.220   4.197  1.0295 -1.1151 -0.0948
  571MOL0     H77054   5.288  -0.238   4.344  1.6143  0.5118 -0.7914
  571MOL0     H77055   5.058  -0.045   4.281  0.3078  3.0232  2.0253
  571MOL0     H77056   5.148  -0.031   4.433 -0.4498  1.9391 -1.7938
  571MOL0     H77057   5.005  -0.297   4.354 -0.1042 -0.0350  0.9820
  571MOL0     H77058   5.091  -0.266   4.499  1.8459  0.1949 -0.7365
  571MOL0     H77059   4.859  -0.091   4.403  0.4650  0.0544 -1.7818
  571MOL0     H77060   4.954  -0.077   4.563 -0.1249 -0.5670 -0.0009
  571MOL0     H77061   4.756  -0.177   4.624  1.9986  3.2511 -0.7351
  571MOL0     H77062   4.751  -0.281   4.471  0.7436  1.5201 -2.1416
  571MOL0     H77063   4.934  -0.295   4.707  2.4056 -0.2773 -1.8221
  571MOL0     H77064   4.942  -0.405   4.568  2.7055 -0.0816  1.7103
  571MOL0     H77065   4.692  -0.357   4.737  0.5085  3.8704 -3.1536
  571MOL0     H77066   4.825  -0.480   4.779  1.4571  0.6421 -0.3916
  571MOL0     H77067   5.551   0.089   4.156 -1.2434  0.1768  1.5095
  571MOL0     H77068   5.654   0.248   4.027 -0.0855 -1.0349 -0.8553
  571MOL0     H77069   5.812   0.674   3.866  0.3866 -2.2797  1.2857
  571MOL0     H77070   5.894   0.835   3.684 -0.6347  1.2399 -3.1725
  571MOL0     H77071   6.557   0.956   4.255  0.2203  0.2622 -0.5371
  571MOL0     H77072   6.436   0.803   4.414 -0.4788 -0.4342 -0.4786
  571MOL0     H77073   6.514   0.352   4.511 -1.2387 -0.3884 -1.2683
  571MOL0     H77074   6.510   0.154   4.654 -0.7823  0.3342  2.3281
  571MOL0     H77075   6.218  -0.063   4.932  2.3314 -0.4700 -0.6689
  571MOL0     H77076   6.126   0.078   4.868  0.5157  1.5924 -3.2805
  571MOL0     H77077   6.162  -0.186   4.722 -2.2516 -0.5838 -1.6970
  571MOL0     H77078   6.078  -0.045   4.665 -0.0683 -2.1931 -2.2730
  571MOL0     H77079   5.898  -0.106   4.769 -1.7242 -0.0175  1.4667
  571MOL0     H77080   5.969  -0.066   4.924  3.3651  0.9980 -0.3111
  571MOL0     H77081   6.066  -0.300   4.947 -1.1818 -2.3902  0.9264
  571MOL0     H77082   5.997  -0.346   4.791  0.2531 -0.6700  1.1011
  571MOL0     H77083   5.647  -0.398   5.039  1.1095 -0.5477  1.5806
  571MOL0     H77084   6.074   0.189   4.679  1.0251  0.4922  1.0764
  571MOL0     H77085   6.084   0.372   4.517  0.5904  0.0667 -1.1110
  572MOL0     O77086   5.196   5.470   4.760  0.5778 -0.2625 -0.6609
  572MOL0     C77087   5.195   5.349   4.796  0.9642 -1.0871  0.1891
  572MOL0     O77088   5.132   5.242   4.734 -0.8761 -0.3270  0.2226
  572MOL0     C77089   5.051   5.265   4.625 -0.9044 -0.2958  0.7205
  572MOL0     C77090   5.110   5.278   4.498 -0.2854 -0.2166 -0.1009
  572MOL0     C77091   5.036   5.300   4.394 -0.0878  0.0169  0.3627
  572MOL0     C77092   4.899   5.300   4.395 -0.4107  0.5782 -0.3864
  572MOL0     O77093   4.819   5.324   4.285  0.0197 -0.8156  0.7756
  572MOL0     C77094   4.839   5.253   4.164 -0.2015  0.0744  0.2249
  572MOL0     C77095   4.720   5.256   4.062  0.3935  0.1339 -1.3732
  572MOL0     C77096   4.743   5.186   3.936  0.8424 -0.6868  0.1038
  572MOL0     C77097   4.614   5.193   3.840 -1.1250  0.3881 -0.3496
  572MOL0     C77098   4.491   5.137   3.908  0.0366 -0.9101  0.3297
  572MOL0     C77099   4.366   5.153   3.819  0.4168  0.4233  0.4162
  572MOL0     C77100   4.238   5.139   3.889  0.5294  1.0878  0.4639
  572MOL0     C77101   4.208   4.992   3.927 -0.2971 -1.0575 -0.7949
  572MOL0     N77102   4.074   4.990   4.003 -0.3392  0.5551 -0.5871
  572MOL0     C77103   3.949   5.038   3.962  0.1091 -0.7489  0.2898
  572MOL0     C77104   3.862   5.002   4.063 -0.2813 -0.4364  0.0198
  572MOL0     C77105   3.721   5.033   4.071  0.3935  0.2567  0.6768
  572MOL0     C77106   3.692   5.177   4.049  0.2184 -0.9838  0.5474
  572MOL0     C77107   3.560   5.226   4.119  0.8198 -0.3626  0.0363
  572MOL0     C77108   3.427   5.183   4.060 -0.1746 -0.9366  0.5275
  572MOL0     O77109   3.391   5.048   4.106 -0.2775  0.1130  0.5707
  572MOL0     C77110   3.264   5.013   4.088 -0.1586 -0.0451  0.4678
  572MOL0     C77111   3.167   5.082   4.008 -0.8053 -0.4753  0.4087
  572MOL0     C77112   3.035   5.048   4.016 -0.3823 -0.9168  0.1616
  572MOL0     C77113   2.935   5.126   3.938 -0.3615 -0.1062  0.1608
  572MOL0     C77114   2.997   4.936   4.089  0.6925 -0.0113 -0.1716
  572MOL0     C77115   2.861   4.883   4.099  0.1797  0.3191  0.3351
  572MOL0     O77116   2.849   4.749   4.065  0.3116 -0.2676  0.2513
  572MOL0     C77117   2.732   4.682   4.033  0.6179 -1.4486  0.2848
  572MOL0     C77118   2.757   4.547   4.002  1.0437 -0.3551  0.1069
  572MOL0     C77119   2.652   4.459   3.977  1.0307  0.6195  0.3074
  572MOL0     C77120   2.518   4.506   3.999  0.0885 -0.1216  0.8988
  572MOL0     O77121   2.406   4.423   3.973 -0.0750  0.5341 -0.3687
  572MOL0     C77122   2.399   4.334   3.861 -0.4516  0.4002 -0.3545
  572MOL0     C77123   2.276   4.248   3.854 -0.4195  0.6257 -1.0235
  572MOL0     C77124   2.271   4.141   3.739 -0.2897 -0.3562 -0.2437
  572MOL0     C77125   2.325   4.189   3.597  0.2049  0.4140  0.4310
  572MOL0     C77126   2.231   4.286   3.522 -0.3198  0.2974  0.1638
  572MOL0     C77127   2.116   4.214   3.452 -0.1053  0.0463  0.4177
  572MOL0     C77128   2.004   4.300   3.396  0.2781 -0.9277 -0.1882
  572MOL0     C77129   1.917   4.369   3.503 -0.7961 -0.0326  0.9278
  572MOL0    Cl77130   1.834   4.239   3.597  0.0084 -0.0673  0.0934
  572MOL0     C77131   2.494   4.643   4.022 -0.3182  0.4062 -0.2032
  572MOL0     C77132   2.602   4.732   4.032  0.5475 -0.0594 -0.0250
  572MOL0     O77133   2.767   4.963   4.128 -0.2736  0.6774  0.5016
  572MOL0     C77134   3.101   4.860   4.155  0.4821  0.6587  0.7288
  572MOL0     C77135   3.231   4.901   4.160  0.2691  0.1760  0.3151
  572MOL0     N77136   3.945   4.959   4.171  0.2359 -0.1732 -0.6229
  572MOL0     N77137   4.069   4.949   4.132 -0.1259  0.5198 -0.2777
  572MOL0     C77138   4.837   5.290   4.528  0.9233 -0.9747  0.8426
  572MOL0     C77139   4.913   5.270   4.642  0.0581 -0.2266  0.7011
  572MOL0     C77140   5.265   5.314   4.920 -0.8087  0.9231 -0.3456
  572MOL0     C77141   5.256   5.187   4.980 -0.0273  0.9101 -0.2564
  572MOL0     C77142   5.313   5.162   5.100 -0.6721  0.5918  0.2941
  572MOL0     C77143   5.367   5.257   5.179  0.5659 -0.7743  0.1109
  572MOL0     O77144   5.403   5.256   5.308  0.0865 -0.0909  0.3765
  572MOL0     C77145   5.363   5.156   5.397 -0.4628  0.6908 -0.5500
  572MOL0     C77146   5.444   5.033   5.424 -0.6708 -0.7018 -0.3779
  572MOL0     C77147   5.581   5.056   5.484 -0.5244  0.2125 -0.3043
  572MOL0     C77148   5.685   5.093   5.382 -0.1772  0.5156 -0.7614
  572MOL0     C77149   5.815   5.060   5.450 -0.3321  0.8055 -0.5046
  572MOL0     C77150   5.912   5.011   5.497  0.0567 -0.3740  0.6928
  572MOL0     C77151   5.359   5.387   5.129  0.4978  0.3245  0.4988
  572MOL0     C77152   5.327   5.413   4.990  0.0607 -0.2747 -0.8943
  572MOL0     H77153   5.218   5.269   4.500 -0.3081 -0.4494  1.5734
  572MOL0     H77154   5.090   5.314   4.300  1.8726 -1.4442  1.2074
  572MOL0     H77155   4.918   5.304   4.108 -1.4311  2.9540  0.9275
  572MOL0     H77156   4.857   5.147   4.185 -0.1653  0.2120  0.8954
  572MOL0     H77157   4.639   5.219   4.127  1.3304  2.5250  1.3707
  572MOL0     H77158   4.698   5.360   4.036  2.2783  1.1729  0.8588
  572MOL0     H77159   4.830   5.232   3.889  1.3357 -0.5845  1.0816
  572MOL0     H77160   4.762   5.079   3.946  0.5955 -0.7027  0.4416
  572MOL0     H77161   4.591   5.298   3.817 -2.2361  0.4531  0.9685
  572MOL0     H77162   4.623   5.128   3.753 -3.9293  0.8295 -1.0469
  572MOL0     H77163   4.514   5.037   3.948  3.2155 -0.0786  0.8826
  572MOL0     H77164   4.466   5.196   3.997  2.7152 -0.6416  1.0006
  572MOL0     H77165   4.376   5.247   3.765 -0.1995  1.1031  1.4550
  572MOL0     H77166   4.373   5.080   3.738 -1.8273  1.8485 -1.1647
  572MOL0     H77167   4.229   5.200   3.979 -2.3059  0.0535  0.9930
  572MOL0     H77168   4.162   5.167   3.815  2.0690  1.4721 -1.0443
  572MOL0     H77169   4.291   4.950   3.984  0.5074  4.3535  2.7959
  572MOL0     H77170   4.201   4.934   3.834 -0.4414  0.1629 -1.5654
  572MOL0     H77171   3.909   5.073   3.867 -1.2399  0.0802  1.1082
  572MOL0     H77172   3.662   4.971   4.003 -3.3376  2.2030  1.8193
  572MOL0     H77173   3.693   5.007   4.174 -0.4281  0.0546  0.4136
  572MOL0     H77174   3.695   5.209   3.944 -0.7138  2.1350  1.3607
  572MOL0     H77175   3.774   5.236   4.090 -0.4259  0.0010  0.4449
  572MOL0     H77176   3.558   5.335   4.126  0.8208 -0.1890 -2.0672
  572MOL0     H77177   3.557   5.188   4.222  0.5631 -2.0527 -0.5564
  572MOL0     H77178   3.415   5.189   3.952 -0.9019 -0.3519  0.6344
  572MOL0     H77179   3.353   5.251   4.103 -2.0392 -0.4707 -3.0821
  572MOL0     H77180   3.198   5.169   3.951  0.2679 -0.0409  1.6202
  572MOL0     H77181   2.857   5.058   3.902 -0.8760 -0.0870  1.1873
  572MOL0     H77182   2.888   5.175   4.024 -0.1470 -0.8817  0.7278
  572MOL0     H77183   2.973   5.197   3.864 -0.9353 -1.1740 -1.1827
  572MOL0     H77184   2.861   4.526   3.980  1.3620  2.1594 -1.1039
  572MOL0     H77185   2.666   4.354   3.954  0.6402  1.4162 -4.6600
  572MOL0     H77186   2.401   4.397   3.772 -1.2985 -0.6097 -1.1085
  572MOL0     H77187   2.487   4.269   3.866 -0.2638  0.4786 -2.2079
  572MOL0     H77188   2.284   4.192   3.949  0.6969  1.8158 -0.3903
  572MOL0     H77189   2.188   4.312   3.862  1.7906  3.7137  0.5483
  572MOL0     H77190   2.168   4.108   3.725 -0.1030 -0.8355 -0.5351
  572MOL0     H77191   2.339   4.059   3.762  1.8840  1.4801  0.2573
  572MOL0     H77192   2.424   4.234   3.610  0.3201  0.5248 -0.7213
  572MOL0     H77193   2.321   4.100   3.533 -2.6672  0.6695  0.0753
  572MOL0     H77194   2.288   4.340   3.446  0.8709  3.0799  2.8224
  572MOL0     H77195   2.193   4.353   3.600  1.7779 -0.6279  2.0706
  572MOL0     H77196   2.146   4.151   3.368 -2.3780 -1.0848  0.3779
  572MOL0     H77197   2.066   4.150   3.524 -3.3519  2.5266  0.5972
  572MOL0     H77198   1.944   4.229   3.339 -1.1111 -0.3477  0.4987
  572MOL0     H77199   2.040   4.368   3.318  0.9258 -0.9629  0.0732
  572MOL0     H77200   1.846   4.431   3.447  0.3809 -0.1459 -0.7836
  572MOL0     H77201   1.962   4.440   3.573 -0.3117  0.6066 -0.0103
  572MOL0     H77202   2.389   4.662   4.042 -0.1904 -0.9531  2.1831
  572MOL0     H77203   2.581   4.836   4.055 -1.0316 -0.0048 -1.5579
  572MOL0     H77204   3.079   4.765   4.203  3.5001 -1.5178 -1.7880
  572MOL0     H77205   3.307   4.842   4.209  0.7931 -0.5835 -1.3300
  572MOL0     H77206   4.729   5.298   4.538  1.0008  0.9729  0.5925
  572MOL0     H77207   4.852   5.259   4.731  0.0193  0.3655  0.7463
  572MOL0     H77208   5.223   5.096   4.931  0.8722  0.3323  0.1851
  572MOL0     H77209   5.322   5.061   5.140  0.1209  1.7002  3.1929
  572MOL0     H77210   5.335   5.201   5.493 -2.8111  0.3041 -0.9925
  572MOL0     H77211   5.267   5.113   5.370  2.9442 -6.7116 -3.5124
  572MOL0     H77212   5.453   4.987   5.325 -1.5710 -0.0361 -0.7839
  572MOL0     H77213   5.385   4.957   5.477 -3.9733  0.9818 -1.3445
  572MOL0     H77214   5.600   4.959   5.531 -0.5770  0.6805  0.6982
  572MOL0     H77215   5.579   5.133   5.561  1.9841 -0.4648  0.5273
  572MOL0     H77216   5.678   5.202   5.377 -0.0260  0.7143  1.7539
  572MOL0     H77217   5.690   5.038   5.288  0.5115 -1.6416  0.4594
  572MOL0     H77218   5.996   4.977   5.555 -0.8345 -2.6525  0.7703
  572MOL0     H77219   5.392   5.473   5.187 -0.9627  2.0109 -1.0489
  572MOL0     H77220   5.328   5.517   4.959 -1.9805 -0.0213 -0.2737
  573MOL0     O77221   2.217   2.480   5.107  0.3867 -0.3393 -0.6121
  573MOL0     C77222   2.317   2.515   5.166  0.5335 -0.1077 -0.5569
  573MOL0     O77223   2.317   2.560   5.294  0.7149 -0.9867 -0.0873
  573MOL0     C77224   2.197   2.575   5.363  0.2859  0.5803  0.1578
  573MOL0     C77225   2.091   2.660   5.328  0.3102  0.6485 -0.4092
  573MOL0     C77226   1.984   2.685   5.410 -0.3076 -0.3438 -0.8559
  573MOL0     C77227   1.987   2.630   5.539  0.3976 -1.1427 -0.1533
  573MOL0     O77228   1.887   2.686   5.622 -0.5760  0.2351 -0.0070
  573MOL0     C77229   1.896   2.671   5.765  0.5056  0.8789 -0.0708
  573MOL0     C77230   1.809   2.776   5.832  1.3611  0.2998  0.1170
  573MOL0     C77231   1.664   2.736   5.844 -0.3247  0.1520  0.3831
  573MOL0     C77232   1.586   2.854   5.904  0.0921 -0.0868 -0.3312
  573MOL0     C77233   1.432   2.823   5.908  0.1343  0.7379 -0.2960
  573MOL0     C77234   1.352   2.942   5.952 -0.5387 -1.3275  1.2070
  573MOL0     C77235   1.216   2.904   6.023 -0.0008 -0.7207  0.6660
  573MOL0     C77236   1.141   3.028   6.050 -0.2406 -0.3929 -0.2262
  573MOL0     N77237   1.077   3.034   6.186 -0.5631  0.4585 -0.2696
  573MOL0     C77238   1.116   3.111   6.295 -0.1256 -0.4897 -0.3149
  573MOL0     C77239   1.018   3.091   6.382 -0.3601 -0.0170 -0.1501
  573MOL0     C77240   1.032   3.143   6.519 -0.4879 -0.0464 -0.4102
  573MOL0     C77241   0.975   3.049   6.627 -0.7468 -0.5239  0.4803
  573MOL0     C77242   1.060   2.918   6.647 -0.2847  0.2606 -0.5699
  573MOL0     C77243   0.988   2.813   6.729  0.4941  0.6287  0.4984
  573MOL0     O77244   0.861   2.759   6.679 -0.4653  0.8025  0.2173
  573MOL0     C77245   0.822   2.631   6.713 -0.3650 -0.3844 -0.3248
  573MOL0     C77246   0.887   2.547   6.793 -0.4229  1.3700 -0.8511
  573MOL0     C77247   0.836   2.420   6.831 -1.2398 -0.1032  0.0598
  573MOL0     C77248   0.931   2.322   6.903 -0.0901 -0.3227 -0.0138
  573MOL0     C77249   0.705   2.395   6.805  0.4692 -0.5064 -0.9754
  573MOL0     C77250   0.625   2.294   6.870  0.1554 -0.4988  0.3768
  573MOL0     O77251   0.502   2.272   6.816  0.4611  0.8422  0.7799
  573MOL0     C77252   0.421   2.184   6.874 -0.2666  0.0628 -0.2718
  573MOL0     C77253   0.309   2.233   6.944 -0.5195  0.1116 -0.5509
  573MOL0     C77254   0.217   2.150   7.001 -0.0169 -0.2174  0.3307
  573MOL0     C77255   0.248   2.013   7.014 -0.0891 -0.2687 -0.2893
  573MOL0     O77256   0.155   1.933   7.077 -0.0423  0.2872 -0.8419
  573MOL0     C77257   0.108   1.819   7.004 -0.3561 -0.1746  0.4373
  573MOL0     C77258   0.050   1.721   7.103  0.4914  0.3351 -0.3968
  573MOL0     C77259   0.018   1.584   7.035  0.2284  0.6058  0.5889
  573MOL0     C77260  -0.043   1.457   7.106 -0.3269  0.4939  0.2643
  573MOL0     C77261  -0.175   1.484   7.176  1.3999 -0.1863  0.2235
  573MOL0     C77262  -0.297   1.519   7.082  0.1061  0.2395  0.7785
  573MOL0     C77263  -0.398   1.613   7.158  0.5784 -0.1875 -0.4191
  573MOL0     C77264  -0.539   1.548   7.175 -0.2730 -0.4386  0.5550
  573MOL0    Cl77265  -0.551   1.432   7.311 -0.1597  0.2866 -0.5810
  573MOL0     C77266   0.363   1.960   6.954 -0.3010 -0.1883  0.6105
  573MOL0     C77267   0.442   2.044   6.877 -0.0181 -0.4338 -0.4942
  573MOL0     O77268   0.668   2.239   6.966 -0.0900  0.2028  0.3252
  573MOL0     C77269   0.635   2.489   6.723 -0.2333 -0.7277  0.0308
  573MOL0     C77270   0.700   2.591   6.659  0.4938 -1.0064  0.1718
  573MOL0     N77271   0.921   3.007   6.331 -0.3101  0.3967 -0.5206
  573MOL0     N77272   0.958   2.975   6.207 -0.2947 -0.1516 -0.1153
  573MOL0     C77273   2.092   2.549   5.581  0.9128  0.1413 -0.6174
  573MOL0     C77274   2.199   2.532   5.495  0.3902  0.3102  1.2234
  573MOL0     C77275   2.451   2.486   5.099  0.0830 -0.2267 -0.1772
  573MOL0     C77276   2.554   2.571   5.151  0.2928  0.9616  0.8202
  573MOL0     C77277   2.683   2.558   5.096 -0.0370  0.4473 -0.8676
  573MOL0     C77278   2.720   2.451   5.018  0.1852 -0.0821  0.2292
  573MOL0     O77279   2.857   2.452   4.984  0.2808 -0.0391 -0.5591
  573MOL0     C77280   2.908   2.355   4.887  0.3202 -0.0049  0.3121
  573MOL0     C77281   3.061   2.366   4.906 -0.2684  0.5090 -0.5128
  573MOL0     C77282   3.146   2.258   4.847  0.9967  0.5785 -0.2210
  573MOL0     C77283   3.296   2.297   4.850  0.5870 -0.6952 -0.3030
  573MOL0     C77284   3.355   2.344   4.977  0.1576 -0.0729 -0.1607
  573MOL0     C77285   3.413   2.386   5.073  0.1691  0.3604 -0.4028
  573MOL0     C77286   2.612   2.369   4.984 -0.0125  0.2277  0.1183
  573MOL0     C77287   2.482   2.380   5.019 -0.0710 -0.2272  0.0131
  573MOL0     H77288   2.101   2.701   5.228  4.7392  1.5307  0.1726
  573MOL0     H77289   1.904   2.756   5.395 -0.9629 -0.4039  1.8863
  573MOL0     H77290   1.886   2.568   5.800  1.1240  0.5786 -0.7450
  573MOL0     H77291   1.997   2.695   5.797  1.1444 -0.8880 -0.6057
  573MOL0     H77292   1.847   2.791   5.933  0.3985 -1.8151  0.8549
  573MOL0     H77293   1.821   2.868   5.774  1.0063 -0.2024 -0.7712
  573MOL0     H77294   1.628   2.700   5.747  0.5763  0.2618 -0.0059
  573MOL0     H77295   1.654   2.655   5.916 -1.4895 -1.5305 -1.5694
  573MOL0     H77296   1.617   2.882   6.005 -0.9167  1.8759 -0.5179
  573MOL0     H77297   1.591   2.946   5.844 -3.6527 -0.8393 -2.0574
  573MOL0     H77298   1.408   2.792   5.806  0.4945  2.8091 -1.0379
  573MOL0     H77299   1.416   2.734   5.971  0.2884  0.5037 -0.5821
  573MOL0     H77300   1.412   3.001   6.022 -1.4029 -0.4510  1.2334
  573MOL0     H77301   1.342   3.013   5.868  1.2751 -2.5903 -0.1493
  573MOL0     H77302   1.148   2.839   5.966  0.0140  2.0732 -2.8801
  573MOL0     H77303   1.238   2.853   6.117 -2.6596 -1.0763  1.1847
  573MOL0     H77304   1.063   3.039   5.974  0.7236 -1.1009 -1.3473
  573MOL0     H77305   1.210   3.113   6.051 -3.2068  2.3005 -1.8769
  573MOL0     H77306   1.202   3.176   6.300 -0.1389 -0.5551  1.5057
  573MOL0     H77307   1.137   3.163   6.545 -0.7785  0.2771  0.5713
  573MOL0     H77308   0.972   3.232   6.539 -1.4682 -1.2560  2.6125
  573MOL0     H77309   0.872   3.021   6.601 -0.0655 -2.8272  0.0268
  573MOL0     H77310   0.964   3.106   6.720  2.2425  1.2219 -0.0942
  573MOL0     H77311   1.150   2.936   6.707  0.8861  0.6251 -2.3495
  573MOL0     H77312   1.096   2.871   6.555 -0.6973  0.0687 -0.6342
  573MOL0     H77313   0.986   2.844   6.834  0.2593  3.9446 -0.3669
  573MOL0     H77314   1.061   2.731   6.734  0.1909  0.0488 -2.6992
  573MOL0     H77315   0.991   2.572   6.815 -0.1238  2.7948 -3.4932
  573MOL0     H77316   0.905   2.217   6.888 -1.7338 -0.3317  2.3238
  573MOL0     H77317   1.036   2.321   6.874 -0.0552  2.4209 -0.2567
  573MOL0     H77318   0.931   2.346   7.010  1.2585 -1.1764  0.1999
  573MOL0     H77319   0.287   2.339   6.949 -3.4585 -0.3872 -1.2007
  573MOL0     H77320   0.126   2.186   7.048  0.5063  0.9091  0.5149
  573MOL0     H77321   0.024   1.858   6.947 -0.9821 -2.0538  0.0198
  573MOL0     H77322   0.186   1.770   6.944 -1.1778  1.1087 -1.7859
  573MOL0     H77323   0.121   1.708   7.185  0.6363 -1.2566 -0.7334
  573MOL0     H77324  -0.043   1.765   7.138  0.5444  1.5097 -1.6677
  573MOL0     H77325   0.109   1.543   6.991 -0.4840  0.8100 -1.1505
  573MOL0     H77326  -0.048   1.600   6.949  3.4516  0.1785 -2.1632
  573MOL0     H77327  -0.058   1.374   7.036  2.1665  0.0894  0.1239
  573MOL0     H77328   0.035   1.435   7.179  1.5652  2.6485 -0.9687
  573MOL0     H77329  -0.166   1.567   7.247  1.6810  0.0183 -0.0519
  573MOL0     H77330  -0.208   1.399   7.237 -3.5843  1.1125 -0.2159
  573MOL0     H77331  -0.270   1.573   6.991 -2.6738 -0.2604 -0.4280
  573MOL0     H77332  -0.352   1.432   7.045  0.5465  0.8320 -1.4318
  573MOL0     H77333  -0.408   1.701   7.093  0.9916 -3.0665 -4.7684
  573MOL0     H77334  -0.349   1.646   7.250  0.2509 -0.4163 -0.1603
  573MOL0     H77335  -0.576   1.507   7.081  0.1466 -1.2325  0.7240
  573MOL0     H77336  -0.604   1.632   7.198  0.3311  0.4145 -0.7510
  573MOL0     H77337   0.397   1.857   6.967  0.2917 -0.9940 -4.9329
  573MOL0     H77338   0.516   1.996   6.814 -3.4485 -1.7053 -3.9794
  573MOL0     H77339   0.527   2.491   6.710 -0.4851  4.5025  0.8574
  573MOL0     H77340   0.654   2.656   6.585 -0.4182 -1.0942  0.6489
  573MOL0     H77341   2.089   2.500   5.678 -2.7832 -1.0827 -1.1824
  573MOL0     H77342   2.286   2.473   5.522  0.6008 -1.3392 -2.4580
  573MOL0     H77343   2.522   2.646   5.223 -5.0216 -3.6283  4.0640
  573MOL0     H77344   2.760   2.626   5.132 -0.1034 -1.0903  2.5306
  573MOL0     H77345   2.857   2.259   4.901 -1.5536  0.6294 -1.5411
  573MOL0     H77346   2.874   2.389   4.788 -0.3789 -1.9353 -0.1566
  573MOL0     H77347   3.076   2.370   5.014  0.7886  0.2358 -0.6382
  573MOL0     H77348   3.103   2.449   4.849  0.8957 -1.1889 -2.2673
  573MOL0     H77349   3.112   2.232   4.746 -0.8901 -1.9453  0.9462
  573MOL0     H77350   3.121   2.165   4.899 -1.1167 -0.3873 -2.7281
  573MOL0     H77351   3.303   2.382   4.781 -1.0737  0.1959  0.5827
  573MOL0     H77352   3.344   2.206   4.812 -1.6561 -2.0894  0.0613
  573MOL0     H77353   3.475   2.410   5.157  2.1193 -1.9865 -1.0897
  573MOL0     H77354   2.621   2.278   4.926 -0.7995 -0.0391  0.4112
  573MOL0     H77355   2.416   2.307   4.972  1.6666 -1.7110 -0.2804
  574MOL0     O77356  11.193   8.510   1.918  0.0167  0.7026 -0.8468
  574MOL0     C77357  11.227   8.573   2.015  0.3301  0.3513 -0.4122
  574MOL0     O77358  11.165   8.554   2.135  0.2267  0.7993  0.2102
  574MOL0     C77359  11.090   8.439   2.159  0.8476 -0.5901 -0.4457
  574MOL0     C77360  11.089   8.319   2.091 -0.6864 -0.3158 -0.3317
  574MOL0     C77361  10.991   8.230   2.110 -0.4376  0.5674 -0.3648
  574MOL0     C77362  10.900   8.230   2.214 -1.0618 -0.7648 -0.0203
  574MOL0     O77363  10.799   8.147   2.211  0.0242 -0.6214  0.0026
  574MOL0     C77364  10.846   8.017   2.243  1.0063  0.0013  0.1394
  574MOL0     C77365  10.732   7.922   2.267  0.0397 -1.0499 -0.3078
  574MOL0     C77366  10.631   7.974   2.374  0.2357 -0.6453  0.0407
  574MOL0     C77367  10.501   7.892   2.344 -1.4585  0.1393  0.6769
  574MOL0     C77368  10.414   7.886   2.465 -1.1723  0.3408  0.0426
  574MOL0     C77369  10.344   8.015   2.516  0.2547  0.4601 -1.4146
  574MOL0     C77370  10.253   7.962   2.633  0.3888 -0.3126  0.7161
  574MOL0     C77371  10.172   8.083   2.700  0.0595  0.2914 -0.5975
  574MOL0     N77372  10.120   8.172   2.592  0.2484 -0.0979  0.8343
  574MOL0     C77373  10.026   8.139   2.497  0.5097  0.0942  0.0745
  574MOL0     C77374  10.012   8.253   2.425  0.9152 -0.0114  0.2996
  574MOL0     C77375   9.946   8.239   2.288  0.0405  0.2983  0.0385
  574MOL0     C77376   9.828   8.329   2.270  1.3243  0.4846  0.0692
  574MOL0     C77377   9.739   8.340   2.397  0.1364 -0.1887 -0.6651
  574MOL0     C77378   9.588   8.364   2.362 -0.1751 -0.7497 -0.3450
  574MOL0     O77379   9.581   8.495   2.306 -0.0068 -1.0286  0.5957
  574MOL0     C77380   9.452   8.543   2.282 -0.4578 -0.2689 -0.0012
  574MOL0     C77381   9.435   8.676   2.272 -0.8039 -0.3414 -1.2503
  574MOL0     C77382   9.312   8.731   2.229 -0.2810  0.6242  0.5515
  574MOL0     C77383   9.309   8.874   2.187  0.1780 -1.1697 -0.2108
  574MOL0     C77384   9.199   8.649   2.217 -0.6674 -0.0293 -0.4908
  574MOL0     C77385   9.065   8.699   2.194  0.1242 -0.4145 -0.3550
  574MOL0     O77386   8.997   8.627   2.099  0.3401  0.0082 -0.1368
  574MOL0     C77387   8.867   8.658   2.112  0.2066  0.5992 -0.0715
  574MOL0     C77388   8.804   8.775   2.062 -0.0956 -0.8843 -0.9625
  574MOL0     C77389   8.674   8.807   2.099 -0.6860  0.4988 -0.3382
  574MOL0     C77390   8.592   8.713   2.154 -0.1110  0.3051 -0.7011
  574MOL0     O77391   8.460   8.729   2.188 -0.0262  0.2759 -0.2712
  574MOL0     C77392   8.390   8.853   2.176  0.1570  0.5860  0.4879
  574MOL0     C77393   8.264   8.843   2.263 -0.5135  0.2633  0.8607
  574MOL0     C77394   8.167   8.738   2.203  0.3508  0.1322 -0.5508
  574MOL0     C77395   8.065   8.713   2.310  0.0428 -0.0188  0.3508
  574MOL0     C77396   7.943   8.638   2.258  1.2119  0.6589 -0.1362
  574MOL0     C77397   7.840   8.612   2.372  0.3256 -0.2215  0.1475
  574MOL0     C77398   7.881   8.522   2.485 -0.3003  0.9459  0.1851
  574MOL0     C77399   7.761   8.508   2.579  0.2619  0.4172 -0.3337
  574MOL0    Cl77400   7.728   8.655   2.674 -0.5705  0.3287  0.0135
  574MOL0     C77401   8.648   8.589   2.185  0.0227  1.1005  0.7005
  574MOL0     C77402   8.781   8.565   2.170 -0.1719  0.0162  0.4735
  574MOL0     O77403   9.025   8.804   2.257 -0.0640  0.5566  0.5430
  574MOL0     C77404   9.215   8.511   2.237  0.1467  0.0708 -0.8463
  574MOL0     C77405   9.340   8.462   2.267 -0.0610  0.0502  0.2334
  574MOL0     N77406  10.059   8.361   2.495 -0.2100 -0.5162 -0.2909
  574MOL0     N77407  10.138   8.310   2.591 -0.1043 -0.2011  0.0773
  574MOL0     C77408  10.909   8.346   2.301  0.1850  0.3045 -0.1763
  574MOL0     C77409  11.001   8.447   2.277 -0.7804  0.3068  0.4565
  574MOL0     C77410  11.315   8.689   1.997  0.2289  0.6129 -0.6326
  574MOL0     C77411  11.376   8.713   1.872  0.6144  0.1721  0.1898
  574MOL0     C77412  11.470   8.816   1.860  0.6246 -0.3605  0.6430
  574MOL0     C77413  11.518   8.891   1.966 -0.1056 -0.2466  0.5740
  574MOL0     O77414  11.613   8.988   1.955  1.2471 -0.0752 -0.4094
  574MOL0     C77415  11.687   9.015   1.833  0.3246  0.1053 -0.7873
  574MOL0     C77416  11.830   8.956   1.832  0.2622  0.5398 -0.2111
  574MOL0     C77417  11.913   8.999   1.956  0.3798  1.0654  0.6274
  574MOL0     C77418  12.050   8.933   1.953 -0.1153 -0.5279  0.1829
  574MOL0     C77419  12.126   8.942   1.822 -0.1608 -0.1138 -0.4974
  574MOL0     C77420  12.176   8.953   1.713  0.2353 -0.7476 -0.5612
  574MOL0     C77421  11.455   8.869   2.090  0.2651 -0.0628  0.1739
  574MOL0     C77422  11.357   8.774   2.109  0.3206  0.3381 -0.8547
  574MOL0     H77423  11.159   8.302   2.010  0.7694 -0.3436  0.9000
  574MOL0     H77424  11.003   8.145   2.043  0.0943  0.8082 -0.5798
  574MOL0     H77425  10.907   7.976   2.162  0.1970 -0.9568 -0.0012
  574MOL0     H77426  10.901   8.018   2.337 -1.3541 -2.5323  1.6920
  574MOL0     H77427  10.683   7.927   2.169 -2.3842  2.6367  0.8929
  574MOL0     H77428  10.769   7.825   2.300  0.6477 -0.9350 -0.6421
  574MOL0     H77429  10.666   7.960   2.477 -3.0911 -2.2395  1.0975
  574MOL0     H77430  10.606   8.076   2.344 -0.4084 -0.0907  2.2359
  574MOL0     H77431  10.446   7.932   2.258 -0.2500  0.9655  0.2716
  574MOL0     H77432  10.533   7.790   2.317 -0.2476  0.0258  2.4039
  574MOL0     H77433  10.342   7.805   2.450  1.1059 -1.8355  0.1938
  574MOL0     H77434  10.483   7.855   2.544 -1.4801  2.4856  1.2202
  574MOL0     H77435  10.422   8.078   2.561  0.7817 -1.5230  0.6498
  574MOL0     H77436  10.289   8.056   2.431  0.8659  1.7483 -1.2120
  574MOL0     H77437  10.181   7.884   2.607 -0.1145  0.3370  0.0976
  574MOL0     H77438  10.317   7.910   2.705  2.6498  1.8365  0.3844
  574MOL0     H77439  10.242   8.142   2.759  0.2179 -0.0197 -0.4720
  574MOL0     H77440  10.094   8.042   2.765 -0.2118 -2.1808 -2.3126
  574MOL0     H77441   9.998   8.037   2.477  3.1086 -1.5797  3.6748
  574MOL0     H77442  10.022   8.268   2.215  1.0386 -1.8271  0.1592
  574MOL0     H77443   9.914   8.136   2.272  1.4623 -0.6459  2.6395
  574MOL0     H77444   9.763   8.281   2.196 -0.1282  2.0699  0.2273
  574MOL0     H77445   9.856   8.431   2.241  1.9029  0.3739  0.2361
  574MOL0     H77446   9.756   8.432   2.453 -2.9003  0.5082 -0.7009
  574MOL0     H77447   9.741   8.253   2.463 -2.0304  0.6096  0.5467
  574MOL0     H77448   9.546   8.357   2.463  0.1530  0.4206 -0.1055
  574MOL0     H77449   9.551   8.288   2.294 -1.0873 -0.7858  0.1880
  574MOL0     H77450   9.517   8.747   2.274 -0.2665 -0.9397  1.7984
  574MOL0     H77451   9.278   8.876   2.082 -0.1955  2.5404 -0.1672
  574MOL0     H77452   9.238   8.945   2.230  1.5172  0.2469 -0.2331
  574MOL0     H77453   9.408   8.921   2.182 -0.5405  0.2404 -2.0895
  574MOL0     H77454   8.868   8.834   1.997  1.7994 -1.1860  0.5375
  574MOL0     H77455   8.640   8.907   2.074 -0.4755  0.0187 -2.8237
  574MOL0     H77456   8.453   8.934   2.215  1.4385 -0.5941  0.9121
  574MOL0     H77457   8.373   8.873   2.069  0.8351 -3.3037 -0.4795
  574MOL0     H77458   8.293   8.804   2.361  0.3096  0.2599  0.6280
  574MOL0     H77459   8.226   8.945   2.276 -0.4920  0.3162  0.5289
  574MOL0     H77460   8.226   8.647   2.190  0.6550 -0.1905  2.4471
  574MOL0     H77461   8.118   8.775   2.112  2.2885  2.9426 -0.5872
  574MOL0     H77462   8.102   8.661   2.399 -1.3849 -1.0008  0.4036
  574MOL0     H77463   8.032   8.808   2.353  1.6086  0.8470 -0.2750
  574MOL0     H77464   7.953   8.550   2.195 -0.8374  1.7007 -2.0398
  574MOL0     H77465   7.896   8.711   2.192 -0.4286 -0.8234 -0.6724
  574MOL0     H77466   7.825   8.713   2.410  3.0158  0.3634 -0.1296
  574MOL0     H77467   7.749   8.567   2.331  0.1176  1.6894 -1.6757
  574MOL0     H77468   7.973   8.554   2.534  1.3652  2.8085 -3.7112
  574MOL0     H77469   7.903   8.422   2.447  3.0800  2.1612 -1.4218
  574MOL0     H77470   7.778   8.424   2.646 -0.7969 -0.3172 -0.9394
  574MOL0     H77471   7.673   8.474   2.523 -0.4773  0.2108  0.9162
  574MOL0     H77472   8.580   8.513   2.222 -0.3993  1.2247  0.1889
  574MOL0     H77473   8.824   8.469   2.196 -1.7554 -0.6086  0.8693
  574MOL0     H77474   9.122   8.455   2.228 -0.8761  1.9024 -2.4278
  574MOL0     H77475   9.351   8.354   2.260 -2.1150 -0.2571  0.9309
  574MOL0     H77476  10.840   8.361   2.383  0.3094 -0.9290  0.1658
  574MOL0     H77477  11.015   8.530   2.346  1.7661  0.3557 -0.0161
  574MOL0     H77478  11.353   8.662   1.778 -1.5537  3.1137 -1.0398
  574MOL0     H77479  11.502   8.833   1.757  2.1736 -3.4039  0.5188
  574MOL0     H77480  11.637   8.987   1.740  2.0324  1.2437 -2.1224
  574MOL0     H77481  11.687   9.124   1.825 -2.5134  0.0820 -2.2423
  574MOL0     H77482  11.872   8.984   1.735 -0.4436  2.3137 -0.0262
  574MOL0     H77483  11.829   8.846   1.834  1.1966  0.3016 -3.8251
  574MOL0     H77484  11.852   8.986   2.045 -1.1621 -1.4334 -0.6864
  574MOL0     H77485  11.919   9.106   1.935  0.6306  1.0087  0.3977
  574MOL0     H77486  12.043   8.825   1.973 -1.2639 -0.3679  0.7316
  574MOL0     H77487  12.120   8.974   2.027  0.4627 -0.9817 -0.1001
  574MOL0     H77488  12.237   8.949   1.626  0.4442 -0.4140 -0.4305
  574MOL0     H77489  11.487   8.907   2.186  0.4512  1.4527 -0.4482
  574MOL0     H77490  11.311   8.774   2.207  1.1849  0.2122 -0.4442
  575MOL0     O77491   7.967   6.349   4.170 -0.0435  0.4204 -0.5591
  575MOL0     C77492   7.909   6.374   4.063  0.0535 -0.3955 -0.0579
  575MOL0     O77493   7.776   6.361   4.029  0.0421  0.6598 -0.1202
  575MOL0     C77494   7.683   6.285   4.099 -0.7311 -0.2510  0.8578
  575MOL0     C77495   7.553   6.302   4.059 -0.4639 -0.0099 -0.6176
  575MOL0     C77496   7.452   6.232   4.126 -0.4779  0.1305 -0.5682
  575MOL0     C77497   7.480   6.150   4.238  0.5462 -0.3561  1.1179
  575MOL0     O77498   7.377   6.090   4.304 -0.1390  0.0313  0.5471
  575MOL0     C77499   7.392   6.034   4.433 -0.8601 -0.8826 -0.1588
  575MOL0     C77500   7.265   5.952   4.456  0.0977 -0.0851 -0.1940
  575MOL0     C77501   7.145   6.046   4.476 -0.6439 -0.3668  0.2489
  575MOL0     C77502   7.032   5.986   4.563  0.9693  0.5760 -0.6364
  575MOL0     C77503   6.898   6.069   4.562 -0.8619 -0.1481 -0.6691
  575MOL0     C77504   6.895   6.203   4.628  0.1378  0.3471 -0.0888
  575MOL0     C77505   6.745   6.244   4.681 -0.2386  1.1719  0.4966
  575MOL0     C77506   6.734   6.382   4.749  0.3015 -0.4885  0.5108
  575MOL0     N77507   6.603   6.444   4.725 -0.7804 -0.0762  0.6884
  575MOL0     C77508   6.489   6.397   4.770  0.2136 -0.4336 -0.5052
  575MOL0     C77509   6.393   6.487   4.728  0.1270  0.0380 -0.2156
  575MOL0     C77510   6.245   6.481   4.750  0.1008 -0.0805 -0.3835
  575MOL0     C77511   6.184   6.406   4.633  0.3345 -0.4339 -0.1235
  575MOL0     C77512   6.034   6.396   4.649 -0.4774  0.3461  0.1642
  575MOL0     C77513   5.983   6.311   4.761  0.2609  0.2325 -0.0262
  575MOL0     O77514   5.848   6.279   4.732 -0.3184  0.8427  0.6439
  575MOL0     C77515   5.778   6.201   4.821 -0.5607  0.2623 -0.1872
  575MOL0     C77516   5.811   6.188   4.960 -0.4055 -0.6065 -0.0816
  575MOL0     C77517   5.735   6.119   5.051 -0.9853  0.6518  0.4436
  575MOL0     C77518   5.786   6.088   5.185  0.2333  0.3532  0.4694
  575MOL0     C77519   5.612   6.064   4.996 -0.1474  0.0627  0.5057
  575MOL0     C77520   5.513   5.976   5.079  0.4178 -0.6716  0.1716
  575MOL0     O77521   5.394   5.949   5.018 -0.4973 -0.2143 -0.1658
  575MOL0     C77522   5.304   5.865   5.075 -1.2109  0.1239 -0.0468
  575MOL0     C77523   5.235   5.903   5.190  0.7832 -0.7612 -0.3370
  575MOL0     C77524   5.127   5.820   5.233 -0.0405 -1.5110 -0.1874
  575MOL0     C77525   5.081   5.712   5.154  0.0382 -0.0188 -0.2130
  575MOL0     O77526   4.972   5.633   5.198 -0.1346 -0.0944  0.2344
  575MOL0     C77527   4.999   5.524   5.282  0.0241  0.2293  0.5814
  575MOL0     C77528   4.887   5.440   5.331  1.1291  0.9018 -0.1858
  575MOL0     C77529   4.785   5.514   5.413  0.3912 -0.9691 -0.4160
  575MOL0     C77530   4.658   5.422   5.426 -0.5202 -0.7111  0.3237
  575MOL0     C77531   4.549   5.493   5.510  0.4761 -0.3569 -0.4405
  575MOL0     C77532   4.423   5.414   5.550  0.0001 -0.9471 -0.2703
  575MOL0     C77533   4.332   5.363   5.435 -1.0969 -0.4904  0.0230
  575MOL0     C77534   4.242   5.471   5.385 -0.7816  0.9442 -0.5184
  575MOL0    Cl77535   4.158   5.408   5.240  0.1914 -0.2016  0.5138
  575MOL0     C77536   5.139   5.685   5.034 -0.7858 -0.1332 -0.5380
  575MOL0     C77537   5.252   5.763   4.997  0.3880  0.2039  0.6788
  575MOL0     O77538   5.541   5.938   5.191 -0.6420 -0.5792 -0.8809
  575MOL0     C77539   5.591   6.065   4.853 -0.0666 -0.2148  0.3622
  575MOL0     C77540   5.668   6.133   4.768 -0.3442  0.2226 -0.0706
  575MOL0     N77541   6.465   6.577   4.647 -0.0906  0.2664  1.0402
  575MOL0     N77542   6.586   6.551   4.641  0.2907  0.1536 -0.5744
  575MOL0     C77543   7.615   6.118   4.271  0.7064 -0.3562 -0.1586
  575MOL0     C77544   7.717   6.192   4.202  0.4305 -0.7553 -0.4451
  575MOL0     C77545   7.977   6.472   3.977  1.2403 -0.1228  0.2402
  575MOL0     C77546   7.948   6.480   3.843  0.5297  0.2103 -0.1878
  575MOL0     C77547   8.018   6.556   3.751 -0.3714 -0.1611  0.5882
  575MOL0     C77548   8.134   6.627   3.803 -0.4364  0.5319 -0.0461
  575MOL0     O77549   8.221   6.700   3.723 -0.6673 -0.0648  0.1188
  575MOL0     C77550   8.213   6.705   3.579  0.3119  0.5788 -0.0969
  575MOL0     C77551   8.294   6.814   3.517 -0.7230  0.0515  0.4686
  575MOL0     C77552   8.258   6.962   3.548 -0.1921  0.6628 -0.1885
  575MOL0     C77553   8.139   7.014   3.465  0.4958  0.1693 -0.5852
  575MOL0     C77554   8.011   6.985   3.534 -0.2807 -0.5072  0.5126
  575MOL0     C77555   7.903   6.959   3.580 -0.5877  0.5772 -0.2294
  575MOL0     C77556   8.166   6.630   3.936  0.8052  0.9114  0.2249
  575MOL0     C77557   8.084   6.552   4.022  0.7285 -0.4963  0.0001
  575MOL0     H77558   7.535   6.372   3.978 -5.5110  2.2024  1.9640
  575MOL0     H77559   7.350   6.252   4.095 -0.2596  2.5482  0.0333
  575MOL0     H77560   7.476   5.966   4.446 -0.9345 -0.7902  0.8600
  575MOL0     H77561   7.401   6.114   4.508 -0.6068  1.0419 -2.1173
  575MOL0     H77562   7.251   5.881   4.375  1.5246 -0.3337 -0.2569
  575MOL0     H77563   7.290   5.903   4.551  2.1037  0.5355 -0.3571
  575MOL0     H77564   7.180   6.138   4.524 -1.0002  0.7963 -1.6364
  575MOL0     H77565   7.104   6.069   4.377 -2.4645 -1.9244  0.5647
  575MOL0     H77566   7.011   5.885   4.529 -1.0525  0.1979  1.5080
  575MOL0     H77567   7.048   5.965   4.669  0.9642 -3.3809 -1.2838
  575MOL0     H77568   6.878   6.074   4.454  2.5652 -1.0752 -1.4850
  575MOL0     H77569   6.818   6.009   4.607  0.6945  0.5965  3.4986
  575MOL0     H77570   6.962   6.205   4.715  0.5130 -3.8243 -0.0720
  575MOL0     H77571   6.923   6.287   4.565 -2.0442  1.8965  0.9009
  575MOL0     H77572   6.685   6.243   4.589 -0.7013  0.3348  0.8033
  575MOL0     H77573   6.700   6.162   4.738  0.9888  1.0085  1.2613
  575MOL0     H77574   6.804   6.447   4.696 -0.4286  0.1612  0.3198
  575MOL0     H77575   6.745   6.391   4.857 -0.4404  0.6475  0.5117
  575MOL0     H77576   6.471   6.308   4.829 -2.7434 -0.3803 -1.1653
  575MOL0     H77577   6.221   6.426   4.841 -0.4646  1.6493  0.5647
  575MOL0     H77578   6.217   6.587   4.751 -1.9031 -0.5677  1.0625
  575MOL0     H77579   6.230   6.307   4.626  1.1749 -0.2996  2.4227
  575MOL0     H77580   6.215   6.467   4.547 -1.2520 -0.7270 -0.9448
  575MOL0     H77581   6.000   6.348   4.557 -0.7691 -0.8400  0.8722
  575MOL0     H77582   5.997   6.499   4.650 -0.4848  0.3561  2.1953
  575MOL0     H77583   5.982   6.373   4.850 -3.6004  2.1286 -1.1779
  575MOL0     H77584   6.038   6.218   4.777  0.0111 -0.0192 -0.5808
  575MOL0     H77585   5.894   6.246   5.000 -0.7829 -0.8933  1.1780
  575MOL0     H77586   5.696   6.109   5.245 -0.2873 -0.1370 -0.1199
  575MOL0     H77587   5.806   5.981   5.199  1.6015  0.5985  0.4491
  575MOL0     H77588   5.869   6.149   5.220  1.5828 -2.3293  2.2653
  575MOL0     H77589   5.268   5.982   5.257 -0.2957 -1.5889  1.2520
  575MOL0     H77590   5.085   5.844   5.330  3.2140 -0.5573  1.1472
  575MOL0     H77591   5.053   5.452   5.220 -1.4681 -0.4613  0.0393
  575MOL0     H77592   5.059   5.555   5.368  1.9777 -0.2851 -0.5469
  575MOL0     H77593   4.842   5.380   5.251 -1.0627 -0.5600  1.9493
  575MOL0     H77594   4.927   5.361   5.396  2.3055  0.9226 -0.8557
  575MOL0     H77595   4.758   5.609   5.366  0.5196 -0.6568  0.1400
  575MOL0     H77596   4.818   5.535   5.515 -1.9705 -0.7017  0.3445
  575MOL0     H77597   4.612   5.398   5.329 -0.8353 -1.3071  0.6225
  575MOL0     H77598   4.688   5.333   5.480 -3.1663 -1.0216  1.4219
  575MOL0     H77599   4.528   5.591   5.465  2.0461  0.7263  1.0498
  575MOL0     H77600   4.598   5.527   5.602 -0.8933  3.5328 -0.9360
  575MOL0     H77601   4.455   5.333   5.617 -1.5610  0.0057  1.7458
  575MOL0     H77602   4.364   5.476   5.619  1.5955 -1.2380  1.4489
  575MOL0     H77603   4.277   5.292   5.497  2.1696 -0.0886  3.8366
  575MOL0     H77604   4.382   5.324   5.346  0.8755 -1.1549  1.3531
  575MOL0     H77605   4.293   5.565   5.360 -0.5325  1.2699  1.0869
  575MOL0     H77606   4.162   5.487   5.458 -0.8831 -0.1455 -0.3826
  575MOL0     H77607   5.105   5.591   4.994 -0.0477 -1.2274  1.2693
  575MOL0     H77608   5.308   5.733   4.909 -0.2812  2.7852 -0.6949
  575MOL0     H77609   5.504   6.018   4.808 -0.7789  2.1336 -0.8872
  575MOL0     H77610   5.636   6.154   4.666 -2.0209 -1.1498  0.1250
  575MOL0     H77611   7.635   6.054   4.357 -2.1725 -0.8824  0.2004
  575MOL0     H77612   7.816   6.173   4.241 -1.1985 -3.1190  2.9461
  575MOL0     H77613   7.861   6.425   3.808 -0.3818  3.2022 -3.1479
  575MOL0     H77614   8.000   6.554   3.643  0.6011 -3.3038  0.3706
  575MOL0     H77615   8.228   6.604   3.540 -3.3694  0.0316 -0.4306
  575MOL0     H77616   8.107   6.724   3.561  0.1927 -2.1853 -3.3005
  575MOL0     H77617   8.288   6.803   3.408 -1.9881  0.8892  0.4380
  575MOL0     H77618   8.394   6.800   3.560 -0.1988  1.1761 -0.3211
  575MOL0     H77619   8.345   7.025   3.528  1.1195  0.2441  3.5436
  575MOL0     H77620   8.254   6.983   3.655  1.1325  2.6374 -0.4728
  575MOL0     H77621   8.142   6.974   3.363  0.7782  3.2820 -1.9062
  575MOL0     H77622   8.133   7.123   3.462  1.2212  0.2159 -0.4241
  575MOL0     H77623   7.816   6.934   3.638  0.2210 -0.5724  0.5449
  575MOL0     H77624   8.248   6.696   3.964 -0.2215  2.2886  0.0708
  575MOL0     H77625   8.105   6.557   4.129 -2.6598 -1.7519  0.8335
  576MOL0     O77626   9.784   1.962   5.112 -0.4537  0.0794  0.4223
  576MOL0     C77627   9.832   1.873   5.188  0.5032  0.4115  0.8257
  576MOL0     O77628   9.778   1.828   5.305  0.2541 -0.0333 -0.3552
  576MOL0     C77629   9.667   1.891   5.354 -0.6799  0.9444 -0.1425
  576MOL0     C77630   9.657   2.028   5.384 -0.2988  0.2090  1.3364
  576MOL0     C77631   9.538   2.080   5.430  0.0420  0.4663 -0.7489
  576MOL0     C77632   9.425   1.997   5.444 -0.5892  0.4396  0.3373
  576MOL0     O77633   9.315   2.058   5.491  0.1091  0.8913  0.2133
  576MOL0     C77634   9.179   2.004   5.465  0.2662 -0.4135  0.2952
  576MOL0     C77635   9.089   2.131   5.479 -0.0412  0.2318  0.3641
  576MOL0     C77636   8.940   2.108   5.449 -0.3314  0.0949  0.0512
  576MOL0     C77637   8.858   2.223   5.476  0.8470  0.5178  0.1478
  576MOL0     C77638   8.706   2.185   5.465 -1.2451  0.0614  0.1010
  576MOL0     C77639   8.661   2.145   5.602 -0.1551  0.9148  0.4259
  576MOL0     C77640   8.515   2.085   5.581  0.9310 -0.2269  0.3253
  576MOL0     C77641   8.469   2.040   5.714  0.6040 -0.1865 -0.4961
  576MOL0     N77642   8.332   1.987   5.696  0.0427  0.1035  0.0237
  576MOL0     C77643   8.207   2.057   5.690  0.1008 -0.3848  0.4107
  576MOL0     C77644   8.115   1.961   5.677  0.0700  0.0967  0.0692
  576MOL0     C77645   7.958   1.974   5.672 -0.8131 -0.1265  0.4564
  576MOL0     C77646   7.917   2.065   5.554 -0.1451 -0.3396  0.2867
  576MOL0     C77647   7.783   2.021   5.505 -0.0690  0.5014  0.3469
  576MOL0     C77648   7.745   2.087   5.378  0.3279 -1.3917 -0.2007
  576MOL0     O77649   7.626   2.027   5.336 -0.2949  0.3080  0.1230
  576MOL0     C77650   7.512   2.081   5.380 -0.4561  0.1187  1.0552
  576MOL0     C77651   7.403   2.050   5.296 -0.0170 -0.4281 -0.6689
  576MOL0     C77652   7.276   2.110   5.314  0.0765 -0.3132 -0.1776
  576MOL0     C77653   7.165   2.072   5.217  0.3430  0.2084 -0.2380
  576MOL0     C77654   7.259   2.191   5.430  0.5102  0.3167 -0.4323
  576MOL0     C77655   7.127   2.249   5.465 -0.2851 -0.6228  0.0431
  576MOL0     O77656   7.007   2.172   5.446  0.1205  0.1885 -0.2434
  576MOL0     C77657   6.884   2.232   5.460 -0.3972  0.2314  0.3244
  576MOL0     C77658   6.854   2.321   5.563  0.1977 -0.0349 -1.1174
  576MOL0     C77659   6.716   2.349   5.577 -0.6903  0.7525 -0.2821
  576MOL0     C77660   6.616   2.302   5.490 -0.1987  0.1564 -1.5266
  576MOL0     O77661   6.482   2.339   5.485 -0.1199 -0.1989 -0.1453
  576MOL0     C77662   6.437   2.403   5.600 -0.4171  0.7394  0.5008
  576MOL0     C77663   6.295   2.469   5.587  0.8451 -0.4442  0.2430
  576MOL0     C77664   6.186   2.357   5.576 -0.4044 -0.0678  0.1089
  576MOL0     C77665   6.051   2.419   5.599 -0.3563  0.1236  1.1464
  576MOL0     C77666   5.931   2.330   5.603 -0.9177  0.3414 -0.2460
  576MOL0     C77667   5.921   2.245   5.472 -0.4067  0.3876 -0.6129
  576MOL0     C77668   5.808   2.138   5.490 -1.0903 -0.4033 -0.4390
  576MOL0     C77669   5.745   2.083   5.368  1.4497 -0.4903  0.1922
  576MOL0    Cl77670   5.634   1.945   5.409 -0.1801 -0.0562  0.4296
  576MOL0     C77671   6.657   2.234   5.381 -0.8170  0.4985 -0.4030
  576MOL0     C77672   6.789   2.191   5.363  0.5494 -0.2436  0.0104
  576MOL0     O77673   7.122   2.363   5.508 -0.6664  0.3229  0.1186
  576MOL0     C77674   7.366   2.221   5.509 -1.1672  0.2167 -0.9006
  576MOL0     C77675   7.492   2.168   5.483 -0.6548  0.2421 -0.1935
  576MOL0     N77676   8.183   1.842   5.674 -0.2183  0.0764 -0.3002
  576MOL0     N77677   8.309   1.852   5.685 -0.5087 -0.0949 -0.0169
  576MOL0     C77678   9.432   1.865   5.404  0.1393 -0.4056  0.2670
  576MOL0     C77679   9.553   1.812   5.359  0.0978  0.1715  0.1236
  576MOL0     C77680   9.957   1.806   5.135 -0.2398  0.2783 -0.4601
  576MOL0     C77681   9.999   1.825   5.000  0.3366  0.3843 -0.1828
  576MOL0     C77682  10.121   1.782   4.952  0.1379 -0.4934 -0.1466
  576MOL0     C77683  10.200   1.715   5.038  0.2245 -0.1471  0.2855
  576MOL0     O77684  10.321   1.679   4.988 -0.3823 -0.6245  0.2194
  576MOL0     C77685  10.366   1.556   5.043 -0.1838  0.4121 -0.5957
  576MOL0     C77686  10.475   1.504   4.957 -0.7787 -0.1541 -0.4817
  576MOL0     C77687  10.608   1.581   4.972  0.1742  0.4229  1.2606
  576MOL0     C77688  10.708   1.545   4.858 -0.4346 -0.5805  0.8389
  576MOL0     C77689  10.839   1.609   4.887  0.2924  0.7768 -0.9850
  576MOL0     C77690  10.950   1.651   4.917  0.2646  1.5148 -0.5868
  576MOL0     C77691  10.167   1.701   5.173 -0.3049 -0.4822  0.3550
  576MOL0     C77692  10.047   1.751   5.229 -0.5120 -0.7796  0.0387
  576MOL0     H77693   9.748   2.081   5.358 -0.6875  0.2959  0.0704
  576MOL0     H77694   9.526   2.187   5.442 -0.9768  0.5052 -1.8929
  576MOL0     H77695   9.166   1.964   5.364 -2.5576 -0.0213  0.4193
  576MOL0     H77696   9.154   1.921   5.531 -0.2800 -2.4070 -2.2423
  576MOL0     H77697   9.098   2.170   5.581 -2.2228  0.2656  0.6015
  576MOL0     H77698   9.126   2.202   5.405  1.4297 -0.3792  0.4885
  576MOL0     H77699   8.929   2.071   5.347 -2.7392  0.6540  0.0559
  576MOL0     H77700   8.905   2.022   5.507 -2.4885  1.0620  0.2889
  576MOL0     H77701   8.871   2.252   5.581 -1.8247  1.3068  0.3285
  576MOL0     H77702   8.879   2.313   5.417  2.7667  2.2418  3.1853
  576MOL0     H77703   8.651   2.272   5.429  1.6211  2.3025  0.7564
  576MOL0     H77704   8.701   2.098   5.399  1.3438 -0.8683  1.0011
  576MOL0     H77705   8.729   2.071   5.645 -1.3962  0.1720  1.1694
  576MOL0     H77706   8.671   2.235   5.663  1.0699  0.9487  0.1961
  576MOL0     H77707   8.447   2.164   5.548  0.5356 -0.5569  0.3406
  576MOL0     H77708   8.515   2.008   5.504 -1.6561 -0.2010  0.2155
  576MOL0     H77709   8.462   2.121   5.788  1.3203 -1.7141  1.3308
  576MOL0     H77710   8.533   1.956   5.743  1.9391  0.3950 -1.6588
  576MOL0     H77711   8.187   2.162   5.669 -2.6672 -1.0650 -0.8188
  576MOL0     H77712   7.919   1.872   5.660  0.0685 -0.3817 -0.3671
  576MOL0     H77713   7.916   2.013   5.765 -2.4607 -0.7275  0.0060
  576MOL0     H77714   7.990   2.055   5.473  2.0155  1.7883  1.8195
  576MOL0     H77715   7.915   2.170   5.584  2.5307 -0.5119  1.3619
  576MOL0     H77716   7.711   2.046   5.583 -1.8628  3.3485 -2.0335
  576MOL0     H77717   7.787   1.915   5.480 -0.6162  0.5306  0.1266
  576MOL0     H77718   7.819   2.083   5.296  0.1391  1.8175 -0.6589
  576MOL0     H77719   7.733   2.193   5.402 -2.3540 -1.7710  0.4242
  576MOL0     H77720   7.418   1.981   5.213  0.2241 -1.2553  0.0484
  576MOL0     H77721   7.084   2.017   5.265 -0.7679  2.6200  0.8473
  576MOL0     H77722   7.120   2.162   5.173 -2.5124 -1.5754 -1.3336
  576MOL0     H77723   7.205   2.007   5.139 -0.8913 -2.3719  1.1458
  576MOL0     H77724   6.931   2.347   5.635  2.6387 -2.2602 -2.7574
  576MOL0     H77725   6.691   2.403   5.668  0.5650  0.5506  0.2012
  576MOL0     H77726   6.449   2.345   5.692 -3.1662 -1.4659 -0.3779
  576MOL0     H77727   6.509   2.483   5.618  2.0263 -1.0051 -0.9347
  576MOL0     H77728   6.283   2.527   5.679  2.0302 -0.9071  0.7014
  576MOL0     H77729   6.305   2.539   5.504 -1.1801 -2.5010 -1.8944
  576MOL0     H77730   6.211   2.282   5.651  0.7450 -0.9721 -1.1272
  576MOL0     H77731   6.192   2.310   5.478  0.7648 -0.1580  0.2086
  576MOL0     H77732   6.050   2.491   5.682  1.2352  2.0288 -0.3687
  576MOL0     H77733   6.040   2.484   5.511 -1.6179 -1.0635  0.3958
  576MOL0     H77734   5.841   2.392   5.606 -1.0560  0.1120  0.6095
  576MOL0     H77735   5.938   2.273   5.696  0.7112  1.2498  0.2442
  576MOL0     H77736   5.905   2.303   5.381 -1.6282 -0.3286 -0.8805
  576MOL0     H77737   6.011   2.185   5.460 -0.8871 -1.0354  2.0675
  576MOL0     H77738   5.732   2.167   5.564 -1.4977 -0.3026 -0.8934
  576MOL0     H77739   5.865   2.056   5.535 -0.1268  0.2941 -0.3556
  576MOL0     H77740   5.818   2.062   5.290 -0.2260 -0.8155 -1.3446
  576MOL0     H77741   5.687   2.165   5.325  1.0770 -0.1364  1.3397
  576MOL0     H77742   6.593   2.187   5.307 -0.3410 -2.0697  0.7151
  576MOL0     H77743   6.829   2.140   5.276  1.9919 -1.7539  1.4998
  576MOL0     H77744   7.333   2.272   5.598 -2.7100 -0.5400 -1.0002
  576MOL0     H77745   7.567   2.187   5.559 -5.6576 -0.2862  5.6740
  576MOL0     H77746   9.348   1.797   5.406 -0.6955  0.5419 -1.1265
  576MOL0     H77747   9.562   1.707   5.334 -1.3897  0.1923 -0.6051
  576MOL0     H77748   9.934   1.883   4.935 -1.4018  0.3321  1.4095
  576MOL0     H77749  10.141   1.803   4.848 -0.8121 -1.4206 -0.5325
  576MOL0     H77750  10.390   1.559   5.150 -0.2289  1.6693 -0.6073
  576MOL0     H77751  10.281   1.488   5.037  0.0434 -0.2120  1.8526
  576MOL0     H77752  10.450   1.522   4.852  0.5343  3.7013 -0.2871
  576MOL0     H77753  10.494   1.397   4.967  0.5206  0.1913  1.0789
  576MOL0     H77754  10.655   1.545   5.063  3.8876  1.3140 -0.0904
  576MOL0     H77755  10.593   1.690   4.976 -1.1181  0.2725  0.8543
  576MOL0     H77756  10.666   1.561   4.758  0.2728  0.1861  0.6535
  576MOL0     H77757  10.714   1.436   4.851 -3.6014 -0.8502  1.0219
  576MOL0     H77758  11.048   1.692   4.933  1.6968 -1.6759 -0.4828
  576MOL0     H77759  10.242   1.664   5.243  0.5999  3.2895  1.6232
  576MOL0     H77760  10.026   1.750   5.335 -2.1215  3.4104 -0.0736
  577MOL0     O77761   1.634   5.579   6.451 -0.1847  0.6946  0.2265
  577MOL0     C77762   1.711   5.589   6.355  1.2104  0.5015  0.3545
  577MOL0     O77763   1.676   5.617   6.223 -0.4347  0.2139 -0.2985
  577MOL0     C77764   1.547   5.640   6.180 -0.4017 -0.1576 -0.7517
  577MOL0     C77765   1.535   5.621   6.042  0.2300  0.7698 -0.1304
  577MOL0     C77766   1.411   5.626   5.979  0.8332 -0.6347  0.0972
  577MOL0     C77767   1.301   5.676   6.067 -0.3986 -0.0069  1.0544
  577MOL0     O77768   1.176   5.699   6.013 -0.7273  0.1859 -0.2885
  577MOL0     C77769   1.112   5.598   5.929  0.3806 -0.2301  0.1690
  577MOL0     C77770   1.120   5.642   5.782 -1.2302  0.1472  0.3434
  577MOL0     C77771   1.014   5.577   5.701  0.7569  0.0380 -0.3506
  577MOL0     C77772   0.953   5.651   5.589  0.7612 -0.1134  0.3677
  577MOL0     C77773   0.857   5.561   5.502 -0.3782 -0.2192 -0.7689
  577MOL0     C77774   0.782   5.622   5.383  0.1175 -0.1291  0.2310
  577MOL0     C77775   0.720   5.758   5.425 -0.4907 -0.8245  0.7392
  577MOL0     C77776   0.630   5.808   5.316  0.8209  0.0101 -0.8941
  577MOL0     N77777   0.563   5.925   5.364  0.8314 -1.0851  0.1121
  577MOL0     C77778   0.574   6.052   5.320 -1.1430 -1.0366 -0.3353
  577MOL0     C77779   0.463   6.114   5.375  0.3412 -0.4964 -0.3103
  577MOL0     C77780   0.438   6.263   5.359  0.6779  0.0899 -0.4863
  577MOL0     C77781   0.417   6.297   5.210 -0.7572  0.3357  0.0142
  577MOL0     C77782   0.333   6.415   5.192  0.1079 -0.9801 -0.2359
  577MOL0     C77783   0.347   6.486   5.051 -0.4528  0.1750 -1.0912
  577MOL0     O77784   0.479   6.482   4.995 -0.0928 -0.4099 -0.7018
  577MOL0     C77785   0.512   6.602   4.937 -0.3518 -0.1638 -0.0212
  577MOL0     C77786   0.496   6.734   4.992  0.7594  0.5064  0.0836
  577MOL0     C77787   0.511   6.846   4.909 -0.6762  0.3591  0.4601
  577MOL0     C77788   0.494   6.973   4.990  0.2889 -0.5632  0.6258
  577MOL0     C77789   0.533   6.838   4.770  0.6217  0.5067  0.0637
  577MOL0     C77790   0.545   6.954   4.675  0.2658  0.1658 -0.2760
  577MOL0     O77791   0.579   6.925   4.545  0.6188  1.1802  0.5639
  577MOL0     C77792   0.598   7.028   4.454  0.0286  0.2603 -0.2999
  577MOL0     C77793   0.711   7.112   4.466  0.0426 -0.3634 -1.0873
  577MOL0     C77794   0.753   7.200   4.360 -0.1003  0.7002 -1.0223
  577MOL0     C77795   0.688   7.184   4.234 -1.1330  0.1174 -0.3500
  577MOL0     O77796   0.745   7.247   4.128  0.3334 -0.4764  0.2851
  577MOL0     C77797   0.817   7.173   4.033 -0.7556  0.1778  0.3246
  577MOL0     C77798   0.829   7.237   3.892  0.2170  0.4285 -0.5462
  577MOL0     C77799   0.906   7.366   3.903  0.6228  0.7177 -0.8075
  577MOL0     C77800   0.965   7.410   3.770  0.8028 -0.1339 -0.3311
  577MOL0     C77801   0.844   7.456   3.683 -1.1041  0.0411 -0.6085
  577MOL0     C77802   0.896   7.489   3.540 -0.0279 -0.1517  0.2227
  577MOL0     C77803   0.993   7.607   3.545  0.4271 -0.3267 -0.0781
  577MOL0     C77804   0.995   7.687   3.411 -0.7102 -0.0788 -0.3969
  577MOL0    Cl77805   1.128   7.810   3.401  0.3598 -0.0519  0.0561
  577MOL0     C77806   0.566   7.115   4.224  0.0448  0.5606  0.3932
  577MOL0     C77807   0.527   7.029   4.330 -0.3092 -0.3429 -0.1581
  577MOL0     O77808   0.533   7.070   4.723 -0.0215  0.5514  0.1678
  577MOL0     C77809   0.564   6.712   4.722  0.4959 -0.2364  0.2417
  577MOL0     C77810   0.548   6.597   4.804  0.2695  0.3156  0.3227
  577MOL0     N77811   0.391   6.021   5.450 -0.0338  0.1417  0.2136
  577MOL0     N77812   0.451   5.904   5.446  0.5380 -0.0130 -0.0533
  577MOL0     C77813   1.320   5.716   6.196  0.2287  0.1728  0.2150
  577MOL0     C77814   1.442   5.695   6.256 -1.0630 -0.4707  0.0800
  577MOL0     C77815   1.852   5.585   6.384 -0.9015 -0.1968  0.2272
  577MOL0     C77816   1.912   5.524   6.502  1.1265 -0.9601 -0.5372
  577MOL0     C77817   2.050   5.500   6.513  0.4500 -0.9759 -0.9204
  577MOL0     C77818   2.140   5.534   6.417 -0.1539  0.7102  1.0778
  577MOL0     O77819   2.280   5.529   6.431  0.1861 -0.1676 -1.0416
  577MOL0     C77820   2.334   5.461   6.544  0.0864 -0.4446 -0.1860
  577MOL0     C77821   2.463   5.382   6.529  1.4816 -0.0420  0.3687
  577MOL0     C77822   2.583   5.472   6.557  0.6078 -0.1725 -0.3345
  577MOL0     C77823   2.718   5.393   6.563  0.3799  0.3186 -0.4117
  577MOL0     C77824   2.794   5.443   6.678  0.9631 -0.7226 -0.2734
  577MOL0     C77825   2.863   5.506   6.756  0.2360 -0.3517 -0.1004
  577MOL0     C77826   2.091   5.595   6.305  0.1593 -0.2857 -0.0423
  577MOL0     C77827   1.950   5.618   6.288 -0.7425  0.9402 -0.4093
  577MOL0     H77828   1.616   5.616   5.971 -0.8542 -0.2394 -1.3549
  577MOL0     H77829   1.411   5.613   5.872  2.4026 -0.5953  0.0746
  577MOL0     H77830   1.156   5.499   5.938  0.9163 -0.1070 -0.9373
  577MOL0     H77831   1.009   5.578   5.956 -0.3124  0.1861 -1.9399
  577MOL0     H77832   1.115   5.751   5.776 -1.0087  0.2025  0.9836
  577MOL0     H77833   1.216   5.613   5.739 -2.4864 -1.8217 -1.2804
  577MOL0     H77834   1.059   5.483   5.667 -2.9036 -2.3474  0.8474
  577MOL0     H77835   0.936   5.545   5.770 -1.9173  0.9202 -2.7214
  577MOL0     H77836   0.896   5.736   5.627  0.8203  0.1469 -0.1069
  577MOL0     H77837   1.028   5.689   5.518 -0.4890  1.6158 -0.0901
  577MOL0     H77838   0.914   5.475   5.467 -1.2343 -2.6778  3.2251
  577MOL0     H77839   0.784   5.526   5.575  0.7881  1.1213  1.1358
  577MOL0     H77840   0.842   5.634   5.293  0.3839 -3.0818 -0.0517
  577MOL0     H77841   0.701   5.560   5.345 -0.0017  0.1957 -0.0478
  577MOL0     H77842   0.670   5.754   5.522 -2.6514  3.3309  0.0303
  577MOL0     H77843   0.802   5.828   5.439 -0.4529 -0.3821 -1.3802
  577MOL0     H77844   0.554   5.732   5.295 -0.0885  0.4429  0.6731
  577MOL0     H77845   0.686   5.836   5.227  0.3498 -1.6625 -1.7655
  577MOL0     H77846   0.644   6.097   5.251  1.2486 -0.5740  2.2244
  577MOL0     H77847   0.350   6.276   5.422  2.2323  0.3857  1.7231
  577MOL0     H77848   0.507   6.334   5.403  0.9092 -0.1330 -0.4879
  577MOL0     H77849   0.387   6.221   5.137 -1.8247  0.2380  0.5331
  577MOL0     H77850   0.523   6.321   5.193 -0.2984 -0.7746  1.1565
  577MOL0     H77851   0.359   6.490   5.266 -1.3290  0.2032 -0.8765
  577MOL0     H77852   0.229   6.382   5.201 -0.3379  0.6372  0.9759
  577MOL0     H77853   0.304   6.586   5.062  2.5136  1.5253 -0.9733
  577MOL0     H77854   0.276   6.444   4.979  1.6359 -1.2247 -2.4612
  577MOL0     H77855   0.459   6.745   5.093 -0.6879 -0.0801 -0.3589
  577MOL0     H77856   0.586   7.030   4.978 -1.3827  1.8783 -1.9349
  577MOL0     H77857   0.413   7.042   4.964  1.7019  1.3518  1.0811
  577MOL0     H77858   0.477   6.962   5.098 -1.4010  2.2953  0.7630
  577MOL0     H77859   0.765   7.109   4.560  1.2155 -0.3570 -1.7506
  577MOL0     H77860   0.835   7.270   4.371  0.8365 -0.6352  1.1700
  577MOL0     H77861   0.914   7.156   4.081 -1.4055 -1.9045  1.0286
  577MOL0     H77862   0.770   7.075   4.020 -0.5359  0.0523  0.4665
  577MOL0     H77863   0.871   7.166   3.820 -1.4666 -0.0368 -1.1308
  577MOL0     H77864   0.724   7.257   3.869 -0.2898  0.7700  1.7768
  577MOL0     H77865   0.990   7.379   3.972  2.2154  1.3682 -2.7726
  577MOL0     H77866   0.828   7.434   3.938 -0.5228 -2.4859  3.9055
  577MOL0     H77867   1.038   7.490   3.789  3.2328 -1.8594 -1.7775
  577MOL0     H77868   1.019   7.330   3.718 -0.5273  0.4877 -2.8041
  577MOL0     H77869   0.805   7.550   3.725 -0.4924 -0.2115  0.5816
  577MOL0     H77870   0.769   7.377   3.678  0.2770 -1.4948  1.1488
  577MOL0     H77871   0.946   7.398   3.505 -1.3329 -0.1282 -1.8668
  577MOL0     H77872   0.808   7.507   3.477  1.1346 -1.0214 -1.7422
  577MOL0     H77873   1.097   7.577   3.561  0.4905 -0.2228 -0.2878
  577MOL0     H77874   0.957   7.669   3.627 -1.8398 -1.4734 -0.1425
  577MOL0     H77875   0.902   7.745   3.403 -1.9944 -2.0736 -0.7693
  577MOL0     H77876   1.010   7.615   3.329  5.1473  0.8749 -0.5216
  577MOL0     H77877   0.505   7.111   4.134 -1.6439 -2.1526  1.5340
  577MOL0     H77878   0.438   6.972   4.307  0.9980 -1.7480 -2.0618
  577MOL0     H77879   0.601   6.695   4.621  1.2660 -1.1792  0.6733
  577MOL0     H77880   0.556   6.498   4.761  1.7071  0.1806  0.8076
  577MOL0     H77881   1.229   5.755   6.239 -0.2407  0.7536 -1.2187
  577MOL0     H77882   1.467   5.735   6.353 -1.7827 -2.0194  0.9348
  577MOL0     H77883   1.850   5.515   6.591  0.0598 -1.6510 -1.3365
  577MOL0     H77884   2.082   5.455   6.607  1.0243 -0.4198 -0.8430
  577MOL0     H77885   2.343   5.538   6.622  1.7433 -0.7982  0.0121
  577MOL0     H77886   2.259   5.392   6.584 -0.5906  1.1607  1.4617
  577MOL0     H77887   2.474   5.335   6.431  1.6921  5.4489 -2.5953
  577MOL0     H77888   2.466   5.312   6.613  1.2709 -1.7158 -0.9598
  577MOL0     H77889   2.565   5.513   6.657 -0.9759  2.2455 -1.5291
  577MOL0     H77890   2.590   5.553   6.485  4.5275 -0.7086 -0.8037
  577MOL0     H77891   2.768   5.403   6.467  0.8799 -2.2340 -0.4858
  577MOL0     H77892   2.704   5.286   6.583 -1.0290 -0.1605 -3.3889
  577MOL0     H77893   2.919   5.577   6.814 -0.8778 -0.6366  1.3872
  577MOL0     H77894   2.162   5.627   6.230 -0.3441 -3.7665 -2.2176
  577MOL0     H77895   1.926   5.684   6.205 -0.5367 -1.5304 -2.5928
  578MOL0     O77896   3.247   9.291   6.751  0.0963 -0.4949  0.0511
  578MOL0     C77897   3.252   9.413   6.774  0.0978  1.3902 -0.9374
  578MOL0     O77898   3.145   9.486   6.810 -0.1052 -0.3985 -0.2398
  578MOL0     C77899   3.017   9.449   6.829 -0.2145  0.5201  1.0269
  578MOL0     C77900   2.957   9.337   6.771  0.5126 -0.0636  0.3070
  578MOL0     C77901   2.820   9.310   6.774 -0.2944  0.1373 -0.4526
  578MOL0     C77902   2.735   9.399   6.842 -0.4967  0.0787  0.2037
  578MOL0     O77903   2.602   9.378   6.844  0.0729  1.2931 -0.7867
  578MOL0     C77904   2.512   9.490   6.825 -0.2482 -0.2836 -0.6638
  578MOL0     C77905   2.490   9.534   6.676  0.5410 -1.2054  0.0895
  578MOL0     C77906   2.473   9.407   6.587 -0.0940 -0.4658  0.8021
  578MOL0     C77907   2.330   9.355   6.591 -0.1723  0.0976  0.1343
  578MOL0     C77908   2.322   9.203   6.536 -0.4673  0.0745 -0.4207
  578MOL0     C77909   2.177   9.179   6.486  0.3457  0.2086 -0.0711
  578MOL0     C77910   2.070   9.218   6.589  0.6925 -0.4051 -0.2762
  578MOL0     C77911   1.928   9.172   6.549 -0.9411 -0.4856  0.1675
  578MOL0     N77912   1.897   9.226   6.421 -0.0581 -0.7513  1.0828
  578MOL0     C77913   1.883   9.359   6.383  0.0356 -0.1714  0.3040
  578MOL0     C77914   1.845   9.365   6.259 -0.2900  1.0094 -0.2180
  578MOL0     C77915   1.829   9.489   6.181  0.1283 -0.3301 -1.3829
  578MOL0     C77916   1.968   9.562   6.157  0.4360  0.6737 -0.4642
  578MOL0     C77917   2.039   9.502   6.035  0.0392  1.8399  0.3580
  578MOL0     C77918   2.161   9.585   6.001  0.6223  0.1875 -0.6737
  578MOL0     O77919   2.130   9.725   5.996 -0.8238 -0.4697  0.5105
  578MOL0     C77920   2.058   9.775   5.893  1.0164 -0.1975  0.5484
  578MOL0     C77921   2.025   9.907   5.885 -0.5882  0.5064 -0.0074
  578MOL0     C77922   1.970   9.978   5.778  0.2658  0.3629  0.0430
  578MOL0     C77923   1.947  10.127   5.795 -0.5467 -0.6451 -0.3076
  578MOL0     C77924   1.934   9.903   5.660 -0.3410  0.4205 -0.3917
  578MOL0     C77925   1.861   9.958   5.546 -0.1069 -0.5562 -0.2509
  578MOL0     O77926   1.838   9.870   5.446 -0.0926  0.3333  0.7482
  578MOL0     C77927   1.761   9.918   5.338 -0.2069 -0.4692 -0.1122
  578MOL0     C77928   1.823   9.961   5.222 -0.1532  0.7749 -0.0854
  578MOL0     C77929   1.743  10.005   5.111  0.2481 -0.0288  0.3721
  578MOL0     C77930   1.602  10.008   5.120 -0.2689  0.3944 -0.0857
  578MOL0     O77931   1.541  10.046   5.006  0.0634 -0.1945 -0.2043
  578MOL0     C77932   1.396  10.074   5.010 -0.4111 -0.0163  0.0145
  578MOL0     C77933   1.308   9.957   4.991  0.4009  0.6993  0.1553
  578MOL0     C77934   1.167   9.968   5.062 -0.6053 -0.8788 -0.0738
  578MOL0     C77935   1.084   9.835   5.035  0.5463  1.0049 -0.1423
  578MOL0     C77936   0.948   9.839   5.108 -0.0506  0.4924  0.3215
  578MOL0     C77937   0.832   9.902   5.022  0.0749 -1.2237  1.1109
  578MOL0     C77938   0.694   9.901   5.090 -0.6897 -0.2961  0.0364
  578MOL0     C77939   0.585   9.989   5.020 -0.2103  0.6679 -0.4069
  578MOL0    Cl77940   0.563   9.923   4.855 -0.2721  0.1853  0.3131
  578MOL0     C77941   1.546   9.965   5.242 -0.0527  0.2936  0.1577
  578MOL0     C77942   1.623   9.926   5.354  0.1152 -0.1526 -0.3889
  578MOL0     O77943   1.832  10.077   5.542 -0.0520 -0.3556  0.5526
  578MOL0     C77944   1.969   9.764   5.659  1.0588  0.4672 -0.4497
  578MOL0     C77945   2.030   9.704   5.773  0.0598  0.0810  0.0794
  578MOL0     N77946   1.825   9.233   6.215 -0.8155  0.4359  0.3236
  578MOL0     N77947   1.855   9.154   6.311  0.2721  0.0228 -0.0970
  578MOL0     C77948   2.796   9.499   6.927  0.7828 -0.6577 -0.4576
  578MOL0     C77949   2.930   9.529   6.908  0.6995 -0.2159 -0.5109
  578MOL0     C77950   3.380   9.478   6.782  0.6753 -0.5397 -0.0111
  578MOL0     C77951   3.509   9.409   6.775  0.2974  0.1010  0.8034
  578MOL0     C77952   3.629   9.475   6.772 -0.2187  0.0961  0.1222
  578MOL0     C77953   3.636   9.618   6.790 -0.8742 -0.1072 -1.2433
  578MOL0     O77954   3.746   9.700   6.779  0.4639  0.0026 -0.1370
  578MOL0     C77955   3.830   9.664   6.674 -0.5150  0.6752  1.2384
  578MOL0     C77956   3.938   9.770   6.654  0.9232 -0.0358  0.1527
  578MOL0     C77957   3.887   9.909   6.621 -0.0537  0.3824  0.5916
  578MOL0     C77958   3.998  10.015   6.579  0.3033 -0.5317 -0.1282
  578MOL0     C77959   3.962  10.153   6.600 -0.0112  0.0165  0.1887
  578MOL0     C77960   3.929  10.272   6.605 -0.6269  0.3837 -0.7226
  578MOL0     C77961   3.517   9.681   6.826  0.0188 -0.0677  0.6640
  578MOL0     C77962   3.393   9.617   6.819  0.8337  0.1319 -0.5151
  578MOL0     H77963   3.008   9.261   6.712 -0.2191 -3.0777  3.2215
  578MOL0     H77964   2.769   9.238   6.711  0.3561 -0.7724  0.0352
  578MOL0     H77965   2.417   9.449   6.861  0.1428 -1.8475 -1.3201
  578MOL0     H77966   2.549   9.576   6.881 -0.8086  0.2561 -1.1217
  578MOL0     H77967   2.397   9.591   6.682 -0.0937 -2.2596  0.4965
  578MOL0     H77968   2.577   9.589   6.637  1.1525 -1.0846  1.5513
  578MOL0     H77969   2.491   9.439   6.484 -3.9889 -0.3809 -0.0267
  578MOL0     H77970   2.553   9.338   6.612  0.4689 -0.6832 -1.4083
  578MOL0     H77971   2.278   9.367   6.686  2.7060  1.6852  1.6183
  578MOL0     H77972   2.271   9.414   6.520 -0.2266 -1.7976 -1.5032
  578MOL0     H77973   2.400   9.193   6.460  2.0512  2.6120  1.5884
  578MOL0     H77974   2.343   9.126   6.612 -1.1418  0.3481  0.0541
  578MOL0     H77975   2.153   9.233   6.393 -1.1385  2.0179  1.2778
  578MOL0     H77976   2.158   9.072   6.469 -3.4855  0.9299 -1.4527
  578MOL0     H77977   2.105   9.170   6.681  1.9080 -0.4584 -0.7507
  578MOL0     H77978   2.073   9.327   6.585  2.7167 -0.4616 -1.5810
  578MOL0     H77979   1.856   9.207   6.624 -0.0401  0.6109  0.5691
  578MOL0     H77980   1.920   9.063   6.554  3.7803 -1.0149  0.9858
  578MOL0     H77981   1.906   9.446   6.443  2.2012 -1.3373  1.2704
  578MOL0     H77982   1.781   9.470   6.084 -0.0986 -0.9493 -1.1566
  578MOL0     H77983   1.768   9.566   6.230  2.2983  1.2779 -1.0861
  578MOL0     H77984   2.027   9.562   6.248 -0.9113 -0.3410  0.4451
  578MOL0     H77985   1.940   9.667   6.144 -2.4217  0.1020  0.3066
  578MOL0     H77986   1.974   9.494   5.947  2.7898  0.5836 -1.7204
  578MOL0     H77987   2.058   9.397   6.059 -3.4655  0.4081 -2.2707
  578MOL0     H77988   2.214   9.546   5.913  0.6365 -3.3270  0.7032
  578MOL0     H77989   2.227   9.557   6.083  0.2464  0.5239 -0.2512
  578MOL0     H77990   2.065   9.962   5.970  3.3762 -0.4787 -1.0286
  578MOL0     H77991   1.994  10.181   5.712 -2.4319 -0.9400 -1.6245
  578MOL0     H77992   1.840  10.147   5.782 -0.3850  1.5890  1.2419
  578MOL0     H77993   1.990  10.165   5.888  0.3299  1.8903 -1.6370
  578MOL0     H77994   1.930   9.949   5.215 -0.1863  1.4269 -2.2744
  578MOL0     H77995   1.790  10.024   5.015  3.3840 -0.4003  1.7136
  578MOL0     H77996   1.364  10.126   5.101 -0.0248  2.1667 -1.0154
  578MOL0     H77997   1.377  10.140   4.925  0.9752  0.0198 -0.2885
  578MOL0     H77998   1.296   9.939   4.883 -1.8980  3.5437 -0.1712
  578MOL0     H77999   1.372   9.875   5.025 -1.3525 -0.6884  0.2658
  578MOL0     H78000   1.108  10.053   5.027 -0.0332 -0.0624  0.8849
  578MOL0     H78001   1.179   9.969   5.171 -0.4957  1.7344 -0.0613
  578MOL0     H78002   1.063   9.808   4.931 -2.2305  0.1826  0.5468
  578MOL0     H78003   1.132   9.744   5.073 -0.8331 -0.6494 -2.1014
  578MOL0     H78004   0.962   9.903   5.195  1.3911  2.7854 -1.4793
  578MOL0     H78005   0.918   9.737   5.135 -2.1929  1.5832  2.4247
  578MOL0     H78006   0.857   9.999   4.978  0.8803 -1.3290  1.3229
  578MOL0     H78007   0.824   9.836   4.935  1.6385 -0.9819  0.7515
  578MOL0     H78008   0.703   9.923   5.197 -1.9238 -1.2502  0.3618
  578MOL0     H78009   0.657   9.798   5.081  0.3884 -1.0991  3.4163
  578MOL0     H78010   0.608  10.096   5.024  1.6561  0.2850 -0.2891
  578MOL0     H78011   0.489   9.975   5.073  1.4332  0.4130  2.7632
  578MOL0     H78012   1.439   9.975   5.254 -0.1224  1.7360 -1.3386
  578MOL0     H78013   1.587   9.893   5.451  2.0057  0.8763  0.7213
  578MOL0     H78014   1.933   9.697   5.581  2.4466  0.9017 -1.4950
  578MOL0     H78015   2.067   9.602   5.771  1.0670  0.3849  1.4461
  578MOL0     H78016   2.733   9.546   7.002 -0.0145 -1.8075 -0.3858
  578MOL0     H78017   2.983   9.611   6.954 -0.1703  0.1344 -0.1038
  578MOL0     H78018   3.503   9.302   6.755 -1.3657  0.1103  1.0410
  578MOL0     H78019   3.705   9.400   6.752 -0.2508  0.3499 -1.0260
  578MOL0     H78020   3.878   9.566   6.684  0.3682  1.1127  1.4265
  578MOL0     H78021   3.773   9.658   6.581  3.4417  0.6625 -1.4448
  578MOL0     H78022   4.013   9.738   6.582  1.2551  0.7531  0.1421
  578MOL0     H78023   3.985   9.782   6.752 -3.1643 -1.2841  2.5200
  578MOL0     H78024   3.824   9.942   6.704 -2.3470 -0.2559 -0.8044
  578MOL0     H78025   3.819   9.898   6.536 -0.0135  0.2759  0.5735
  578MOL0     H78026   4.020  10.007   6.472 -2.2033  0.7848 -0.8352
  578MOL0     H78027   4.089   9.998   6.637 -0.0411 -1.0321  0.2724
  578MOL0     H78028   3.894  10.373   6.614  1.6958  1.3966 -2.0699
  578MOL0     H78029   3.511   9.788   6.839 -0.5677 -0.0489  0.2959
  578MOL0     H78030   3.305   9.679   6.830  0.9546  0.5646 -1.7790
  579MOL0     O78031   4.021   9.232   5.606  0.3026 -0.4929 -0.8014
  579MOL0     C78032   4.075   9.200   5.715  0.4807 -0.1518  0.8015
  579MOL0     O78033   4.012   9.200   5.839 -0.1838 -0.4989 -0.0839
  579MOL0     C78034   3.878   9.232   5.851  0.2796  0.8139 -0.3364
  579MOL0     C78035   3.839   9.322   5.952 -0.1241  0.4017  0.1066
  579MOL0     C78036   3.703   9.350   5.965  0.8516  0.2323 -0.6419
  579MOL0     C78037   3.611   9.273   5.888  0.8510 -0.3235 -0.5276
  579MOL0     O78038   3.477   9.297   5.911 -0.9027 -0.4419  0.7982
  579MOL0     C78039   3.380   9.209   5.851 -0.0239 -0.1891 -1.2904
  579MOL0     C78040   3.251   9.240   5.931 -0.2707  0.0722  0.6355
  579MOL0     C78041   3.134   9.215   5.826  0.2774  0.3608 -0.9286
  579MOL0     C78042   2.999   9.228   5.904  0.5335  0.4686  0.5823
  579MOL0     C78043   2.884   9.269   5.809  0.3402  0.0518  0.1637
  579MOL0     C78044   2.758   9.258   5.894  0.3889 -0.0085  1.2086
  579MOL0     C78045   2.645   9.317   5.811  0.0125 -0.5078  0.6967
  579MOL0     C78046   2.547   9.206   5.761 -0.8758 -0.6794 -0.1836
  579MOL0     N78047   2.442   9.280   5.683  0.0015  0.2678  0.2223
  579MOL0     C78048   2.439   9.299   5.542  0.2165 -0.1432 -0.6226
  579MOL0     C78049   2.347   9.396   5.519 -0.6603  0.5665 -0.1813
  579MOL0     C78050   2.308   9.444   5.389  0.5917  0.3679 -1.1020
  579MOL0     C78051   2.238   9.327   5.320  0.1032  0.9813  0.2391
  579MOL0     C78052   2.107   9.288   5.382  0.0611 -0.2379 -0.2710
  579MOL0     C78053   1.982   9.390   5.359  0.3981  0.2343 -0.6991
  579MOL0     O78054   1.860   9.316   5.336 -0.1409  0.3802 -0.1134
  579MOL0     C78055   1.746   9.383   5.338  0.5084  0.9334  1.2021
  579MOL0     C78056   1.642   9.317   5.399  0.2295  0.1112  0.2163
  579MOL0     C78057   1.510   9.365   5.402  0.0083  0.8198 -1.1288
  579MOL0     C78058   1.423   9.282   5.492  0.4712  0.1585  0.2350
  579MOL0     C78059   1.481   9.491   5.336  0.1861  0.0252 -1.0174
  579MOL0     C78060   1.343   9.561   5.324 -0.4164 -0.7017  0.0820
  579MOL0     O78061   1.250   9.491   5.385  0.2495 -0.1747  0.7106
  579MOL0     C78062   1.137   9.563   5.436  0.0579  0.4180  0.3809
  579MOL0     C78063   1.098   9.526   5.570  0.0718  0.1329 -0.4767
  579MOL0     C78064   0.988   9.586   5.634  0.2626  0.4673  0.1688
  579MOL0     C78065   0.912   9.684   5.562 -0.6121 -0.0868 -0.0659
  579MOL0     O78066   0.799   9.740   5.609 -0.3170 -0.0606 -0.6254
  579MOL0     C78067   0.701   9.645   5.668  0.8328  0.0566 -0.0498
  579MOL0     C78068   0.578   9.728   5.683  0.0880 -0.1803  0.5457
  579MOL0     C78069   0.464   9.666   5.774 -0.7516 -0.1263 -0.2067
  579MOL0     C78070   0.493   9.655   5.920  0.4853 -0.3016  1.2170
  579MOL0     C78071   0.373   9.658   6.010 -0.1059  0.1449 -0.2947
  579MOL0     C78072   0.421   9.633   6.156 -0.1489  0.1395 -0.4366
  579MOL0     C78073   0.310   9.674   6.253  0.3340 -0.4793 -0.4025
  579MOL0     C78074   0.354   9.677   6.406 -0.2341  0.2378  0.0253
  579MOL0    Cl78075   0.482   9.569   6.448 -0.0807 -0.2962  0.3393
  579MOL0     C78076   0.947   9.715   5.429 -0.3058 -0.0614 -1.0139
  579MOL0     C78077   1.057   9.655   5.370  0.4436 -0.3313  0.1958
  579MOL0     O78078   1.328   9.674   5.270  0.0669  0.7421 -0.4571
  579MOL0     C78079   1.594   9.561   5.277 -0.2154  0.0895 -0.8778
  579MOL0     C78080   1.727   9.502   5.265  0.7432 -0.0123 -0.7604
  579MOL0     N78081   2.290   9.430   5.638  0.4125 -0.0941 -0.3377
  579MOL0     N78082   2.346   9.369   5.735 -0.2965  1.0892  0.1942
  579MOL0     C78083   3.648   9.175   5.797  0.5036 -0.2387 -0.1745
  579MOL0     C78084   3.779   9.157   5.778 -0.0959  0.6231 -0.6873
  579MOL0     C78085   4.218   9.162   5.702  0.2368 -0.5482  0.1995
  579MOL0     C78086   4.292   9.127   5.811  0.1021  0.4466 -0.4816
  579MOL0     C78087   4.419   9.079   5.805 -1.6536 -0.6265  0.1115
  579MOL0     C78088   4.483   9.078   5.677 -0.3801  0.0661 -0.2513
  579MOL0     O78089   4.613   9.030   5.657 -0.0814 -0.4990  0.2524
  579MOL0     C78090   4.670   8.952   5.753  0.1133  0.5201  0.0795
  579MOL0     C78091   4.800   8.881   5.708  0.1230 -0.0479 -0.0535
  579MOL0     C78092   4.916   8.985   5.685 -0.0169  0.1895 -0.5492
  579MOL0     C78093   4.930   9.021   5.539  0.2116 -0.0133 -1.5419
  579MOL0     C78094   5.056   9.092   5.518  0.3955 -0.4131  0.7034
  579MOL0     C78095   5.163   9.129   5.484 -0.0233 -0.8878 -0.1736
  579MOL0     C78096   4.419   9.127   5.568  0.2674 -0.0352 -0.2481
  579MOL0     C78097   4.288   9.172   5.575 -0.2135 -0.2182 -1.2857
  579MOL0     H78098   3.898   9.382   6.020  0.3806 -1.5820  1.4806
  579MOL0     H78099   3.664   9.424   6.033  3.0894 -0.2616  1.2997
  579MOL0     H78100   3.365   9.241   5.748  0.0243 -0.2455 -1.3146
  579MOL0     H78101   3.403   9.103   5.864 -2.7586 -0.8578 -1.1884
  579MOL0     H78102   3.242   9.178   6.020  0.4966  0.7717  1.2157
  579MOL0     H78103   3.244   9.346   5.958 -1.6535 -0.2729  1.7175
  579MOL0     H78104   3.145   9.295   5.752  4.2267  0.6489 -0.2270
  579MOL0     H78105   3.137   9.117   5.778 -1.3720 -1.2931  2.0737
  579MOL0     H78106   2.969   9.139   5.959  2.2155 -0.7744 -0.4179
  579MOL0     H78107   3.004   9.306   5.981 -1.5783 -0.0473  1.3202
  579MOL0     H78108   2.895   9.372   5.772  1.9934 -0.1508  0.0231
  579MOL0     H78109   2.894   9.209   5.718  1.2724  3.5082 -2.2127
  579MOL0     H78110   2.725   9.157   5.919  3.1042 -1.0392  0.9493
  579MOL0     H78111   2.767   9.322   5.982  0.5078  0.5038  0.8257
  579MOL0     H78112   2.594   9.385   5.879  0.2817 -1.3470  1.7640
  579MOL0     H78113   2.673   9.376   5.723 -2.4623 -0.3901 -0.0828
  579MOL0     H78114   2.489   9.154   5.837  0.9348 -0.7004  1.2590
  579MOL0     H78115   2.606   9.129   5.711 -2.7515 -3.0959  1.1138
  579MOL0     H78116   2.491   9.246   5.463  0.4523  0.1036 -0.6339
  579MOL0     H78117   2.250   9.537   5.396  0.9558  0.5368 -0.0234
  579MOL0     H78118   2.399   9.468   5.334  1.8308 -0.9943  0.2576
  579MOL0     H78119   2.300   9.237   5.325 -1.3855 -0.1260 -0.2158
  579MOL0     H78120   2.227   9.349   5.214  4.0998 -0.7589 -0.7321
  579MOL0     H78121   2.119   9.268   5.488 -3.7842  1.5637  0.7000
  579MOL0     H78122   2.074   9.193   5.339  0.5859  0.5643 -2.5762
  579MOL0     H78123   1.998   9.460   5.277  0.4206 -0.0537 -0.9416
  579MOL0     H78124   1.966   9.458   5.444  0.9709  1.9384 -1.8919
  579MOL0     H78125   1.660   9.222   5.449 -2.6621 -3.1103 -4.1123
  579MOL0     H78126   1.359   9.216   5.433 -0.1835  1.3748 -0.4537
  579MOL0     H78127   1.485   9.210   5.546  3.1209 -0.1389 -2.8359
  579MOL0     H78128   1.364   9.345   5.559  2.4201  0.1577  2.0470
  579MOL0     H78129   1.150   9.448   5.624 -0.4590 -0.5707 -0.9704
  579MOL0     H78130   0.964   9.558   5.736  0.1261 -0.0774 -0.0075
  579MOL0     H78131   0.664   9.575   5.592 -0.1067  2.1125 -1.5950
  579MOL0     H78132   0.735   9.596   5.759  0.4054  1.7509  1.0606
  579MOL0     H78133   0.605   9.825   5.727  0.9289 -0.5663  0.9195
  579MOL0     H78134   0.528   9.754   5.590  0.6987  0.0724  0.2823
  579MOL0     H78135   0.443   9.570   5.725 -0.9078 -1.0674  1.6181
  579MOL0     H78136   0.373   9.725   5.758 -2.1562 -2.7772 -3.2307
  579MOL0     H78137   0.572   9.580   5.933  3.1056  1.7958 -1.2746
  579MOL0     H78138   0.554   9.744   5.938  1.9114 -0.6797 -1.3168
  579MOL0     H78139   0.299   9.588   5.970  1.3551  0.1909 -3.3049
  579MOL0     H78140   0.331   9.760   6.010  2.6129  1.3652  1.1867
  579MOL0     H78141   0.431   9.527   6.181  0.8005 -0.1649 -1.9839
  579MOL0     H78142   0.518   9.681   6.172  1.3054 -1.4683 -3.6249
  579MOL0     H78143   0.224   9.609   6.233 -1.5524  0.9760  2.2739
  579MOL0     H78144   0.274   9.775   6.234 -1.7566 -1.3340 -1.2839
  579MOL0     H78145   0.266   9.645   6.463 -1.1110  1.9039 -0.3298
  579MOL0     H78146   0.384   9.772   6.451  0.9320  0.0691 -0.3788
  579MOL0     H78147   0.888   9.781   5.366 -2.0923 -2.3116 -1.8133
  579MOL0     H78148   1.086   9.677   5.268  2.8617  2.5636  1.3805
  579MOL0     H78149   1.581   9.657   5.229  0.1274  0.7384  0.2797
  579MOL0     H78150   1.806   9.565   5.227 -0.5185  2.1942  0.1376
  579MOL0     H78151   3.580   9.113   5.738  0.7239  0.5684 -1.3040
  579MOL0     H78152   3.809   9.076   5.713 -0.4328  1.1795 -1.5653
  579MOL0     H78153   4.243   9.131   5.908 -0.2953  0.6210 -0.6859
  579MOL0     H78154   4.468   9.027   5.887  4.0327  1.7671 -1.3210
  579MOL0     H78155   4.699   9.003   5.845  0.1919  0.8814 -0.1431
  579MOL0     H78156   4.603   8.868   5.775 -0.7048  1.8860  3.5266
  579MOL0     H78157   4.782   8.820   5.619 -0.2413  0.9586 -0.6883
  579MOL0     H78158   4.831   8.812   5.787  1.2335  2.5658  1.9200
  579MOL0     H78159   5.009   8.933   5.710  0.9650  0.6659 -2.9316
  579MOL0     H78160   4.911   9.075   5.748  2.1964  0.8062 -1.1632
  579MOL0     H78161   4.855   9.097   5.516  1.1888  1.4904 -0.0161
  579MOL0     H78162   4.921   8.930   5.478 -1.6288 -1.0271  0.1126
  579MOL0     H78163   5.262   9.145   5.446  1.0391  1.7501  3.1480
  579MOL0     H78164   4.471   9.144   5.474 -1.8996  1.1399 -1.3249
  579MOL0     H78165   4.227   9.211   5.494 -1.6624  2.0206  0.7412
  580MOL0     O78166   5.807  10.404   2.435  0.0297 -0.3879  0.2764
  580MOL0     C78167   5.827  10.349   2.540 -0.4829  0.0578  0.2823
  580MOL0     O78168   5.728  10.301   2.618  0.1374 -0.1771  0.4838
  580MOL0     C78169   5.597  10.323   2.581 -0.0616 -0.8818  0.0979
  580MOL0     C78170   5.521  10.220   2.524 -0.3064  1.1572  0.0082
  580MOL0     C78171   5.382  10.245   2.488 -0.4518  0.6673  0.0403
  580MOL0     C78172   5.323  10.368   2.503  0.5573 -0.3818 -0.0226
  580MOL0     O78173   5.199  10.397   2.468 -0.4316  0.3271  1.0370
  580MOL0     C78174   5.147  10.341   2.342 -0.9368 -0.0416 -0.3462
  580MOL0     C78175   5.053  10.449   2.288 -0.0380  1.3687  0.8433
  580MOL0     C78176   4.941  10.463   2.387 -0.5253 -0.7366 -0.4082
  580MOL0     C78177   4.808  10.502   2.315  0.1427  0.7309 -0.2672
  580MOL0     C78178   4.689  10.500   2.415 -0.3293 -0.1428  0.7641
  580MOL0     C78179   4.562  10.550   2.348  0.0863  0.5854  0.7326
  580MOL0     C78180   4.445  10.528   2.444 -0.1596 -0.5291 -0.1242
  580MOL0     C78181   4.319  10.592   2.388  0.0707 -1.0530  0.5032
  580MOL0     N78182   4.207  10.517   2.432 -0.1256  0.2258  0.6816
  580MOL0     C78183   4.165  10.504   2.555  0.0788  0.7947 -0.2980
  580MOL0     C78184   4.060  10.423   2.566  0.4375 -0.9195  0.9948
  580MOL0     C78185   3.972  10.380   2.683 -0.7993  0.4229  0.2432
  580MOL0     C78186   3.828  10.410   2.640 -0.4207  0.3938  0.0990
  580MOL0     C78187   3.743  10.396   2.764  0.5800 -0.1192  0.0379
  580MOL0     C78188   3.604  10.450   2.740  0.1729  0.5998  0.0725
  580MOL0     O78189   3.624  10.591   2.722  0.8529  0.0669  0.6096
  580MOL0     C78190   3.559  10.694   2.788  0.3799 -0.0946 -0.5809
  580MOL0     C78191   3.599  10.830   2.775 -1.0917  1.1486  0.2191
  580MOL0     C78192   3.554  10.943   2.848 -0.0000 -0.2686 -0.6651
  580MOL0     C78193   3.600  11.084   2.809  0.3529 -0.1186 -1.0346
  580MOL0     C78194   3.458  10.917   2.955 -0.0268 -0.1932  1.2295
  580MOL0     C78195   3.398  11.023   3.040  0.8656  0.1828 -0.4303
  580MOL0     O78196   3.297  10.975   3.119 -0.1188 -0.4587 -0.6652
  580MOL0     C78197   3.232  11.062   3.202  0.5633 -0.7111 -0.2994
  580MOL0     C78198   3.242  11.022   3.334  0.1639 -0.4062  0.5598
  580MOL0     C78199   3.154  11.072   3.425  1.2953 -0.1273 -0.0108
  580MOL0     C78200   3.061  11.175   3.397  0.3638 -1.0339  0.6892
  580MOL0     O78201   2.965  11.227   3.470 -0.8987 -0.4795  0.0091
  580MOL0     C78202   3.008  11.257   3.604 -0.6106  0.4215  0.0070
  580MOL0     C78203   2.900  11.349   3.675  0.8819 -0.1874 -0.1701
  580MOL0     C78204   2.773  11.261   3.699  0.8709 -0.2400 -0.6478
  580MOL0     C78205   2.655  11.347   3.734  0.2434  0.1472  0.1225
  580MOL0     C78206   2.534  11.267   3.762 -0.2546  0.2157  1.0484
  580MOL0     C78207   2.537  11.188   3.886  0.7435  0.5478 -0.5051
  580MOL0     C78208   2.424  11.093   3.888  0.2150 -0.3526 -0.2969
  580MOL0     C78209   2.294  11.166   3.877  0.0214 -0.0537  0.6943
  580MOL0    Cl78210   2.171  11.030   3.882 -0.1730 -0.4947  0.2241
  580MOL0     C78211   3.052  11.212   3.263 -0.3758  0.3364 -0.0606
  580MOL0     C78212   3.133  11.153   3.159  0.7550  0.5568 -0.2539
  580MOL0     O78213   3.446  11.133   3.048  0.0753  0.0611  0.2845
  580MOL0     C78214   3.414  10.786   2.966  0.4757  0.4483 -0.2587
  580MOL0     C78215   3.463  10.676   2.888 -0.2150 -0.4863  0.6750
  580MOL0     N78216   4.029  10.383   2.441  0.3457  0.1121  0.7683
  580MOL0     N78217   4.119  10.439   2.361  0.5410  0.0890  0.1454
  580MOL0     C78218   5.393  10.471   2.563 -0.2773  0.1021 -0.7565
  580MOL0     C78219   5.532  10.443   2.611  0.1864  0.3148  0.0911
  580MOL0     C78220   5.966  10.328   2.587  0.4906 -0.1734  0.1487
  580MOL0     C78221   5.980  10.235   2.698  0.3164  0.3975  0.1638
  580MOL0     C78222   6.110  10.207   2.744  1.2573  0.0485 -0.5128
  580MOL0     C78223   6.221  10.251   2.664 -0.1536  0.4169 -0.4723
  580MOL0     O78224   6.353  10.231   2.694  0.1906  0.7122 -0.3718
  580MOL0     C78225   6.391  10.146   2.800 -0.3090  0.6274 -0.3777
  580MOL0     C78226   6.533  10.109   2.773 -0.6214 -0.1414 -1.0162
  580MOL0     C78227   6.630  10.237   2.764 -0.2413  0.0464 -0.1410
  580MOL0     C78228   6.764  10.204   2.834  0.0993  0.2372 -0.2561
  580MOL0     C78229   6.833  10.078   2.780 -0.4082  0.5424 -0.0695
  580MOL0     C78230   6.889   9.972   2.744  0.2158 -0.1185  0.9532
  580MOL0     C78231   6.202  10.339   2.551 -0.2337 -0.4363  0.4425
  580MOL0     C78232   6.080  10.378   2.516  0.1813  0.2076  0.0068
  580MOL0     H78233   5.567  10.126   2.493 -1.1218  1.2204 -1.4560
  580MOL0     H78234   5.318  10.165   2.451  0.0238  0.9155 -1.3531
  580MOL0     H78235   5.234  10.320   2.279  0.3000  0.5650  1.0909
  580MOL0     H78236   5.098  10.246   2.368 -1.9903  0.4186 -0.6019
  580MOL0     H78237   5.099  10.547   2.269  1.3564  1.1628  2.7917
  580MOL0     H78238   5.009  10.412   2.195 -1.5630 -1.4576  2.5755
  580MOL0     H78239   4.928  10.372   2.446  0.3196  1.3529  3.3052
  580MOL0     H78240   4.971  10.536   2.462  2.2619 -2.3820  0.2180
  580MOL0     H78241   4.819  10.593   2.255  2.8782  1.1359  0.6746
  580MOL0     H78242   4.777  10.421   2.249 -3.0799  2.7681 -1.4854
  580MOL0     H78243   4.684  10.399   2.458  1.4836 -0.0468  1.2944
  580MOL0     H78244   4.714  10.567   2.498  0.5887 -1.5417  1.6898
  580MOL0     H78245   4.576  10.658   2.331  2.6800 -0.0400 -2.0202
  580MOL0     H78246   4.534  10.510   2.250  0.4014  0.6369  0.6179
  580MOL0     H78247   4.429  10.422   2.466  1.4144 -0.5666  1.0387
  580MOL0     H78248   4.464  10.565   2.545 -1.3377 -0.5206  0.1066
  580MOL0     H78249   4.326  10.575   2.280 -1.8240  0.7487  0.0236
  580MOL0     H78250   4.319  10.697   2.419  3.3956 -0.7409 -0.1636
  580MOL0     H78251   4.203  10.536   2.652  1.9005 -1.0216 -0.3540
  580MOL0     H78252   3.988  10.273   2.696 -0.7181  0.6014  1.9111
  580MOL0     H78253   4.006  10.424   2.777  1.1317  2.1227 -1.1568
  580MOL0     H78254   3.801  10.341   2.560 -0.6164 -0.2495  0.7126
  580MOL0     H78255   3.825  10.515   2.607  1.4023  0.8502  1.2412
  580MOL0     H78256   3.791  10.446   2.848  2.4031 -3.7973  1.3795
  580MOL0     H78257   3.734  10.295   2.803 -0.4548 -0.0161  0.1096
  580MOL0     H78258   3.540  10.417   2.823  0.2685  1.9322  0.7022
  580MOL0     H78259   3.554  10.407   2.652 -2.1118 -2.1255  2.4511
  580MOL0     H78260   3.665  10.842   2.690  0.3890 -3.6797  0.4405
  580MOL0     H78261   3.513  11.135   2.767  0.1710  2.3701  2.0187
  580MOL0     H78262   3.647  11.134   2.894  1.0591  1.3272 -2.2305
  580MOL0     H78263   3.689  11.079   2.744  1.1401 -0.0828  0.0163
  580MOL0     H78264   3.314  10.945   3.359  1.1238  0.5257  0.7254
  580MOL0     H78265   3.155  11.034   3.527 -3.6931  2.4485  1.3410
  580MOL0     H78266   3.038  11.173   3.668 -1.5373 -0.6543 -0.9186
  580MOL0     H78267   3.098  11.318   3.590  1.4523 -1.9916  1.7247
  580MOL0     H78268   2.923  11.389   3.774 -1.4783  0.3053  0.2364
  580MOL0     H78269   2.869  11.436   3.616 -1.4844  1.3501  3.0446
  580MOL0     H78270   2.796  11.184   3.774 -1.1082 -0.6888 -0.4398
  580MOL0     H78271   2.749  11.214   3.603  0.5621  0.1210 -0.7462
  580MOL0     H78272   2.665  11.420   3.815  3.2014  1.5088 -1.3279
  580MOL0     H78273   2.640  11.411   3.648  1.6175  0.2530 -0.0529
  580MOL0     H78274   2.523  11.207   3.672 -1.1753  1.6204  0.1784
  580MOL0     H78275   2.453  11.340   3.768 -0.0294  0.8446 -1.8522
  580MOL0     H78276   2.633  11.135   3.886  1.4167  1.7001 -1.6872
  580MOL0     H78277   2.538  11.254   3.973  2.8871 -0.3662  0.2284
  580MOL0     H78278   2.425  11.034   3.980 -0.9904  2.4188  1.6456
  580MOL0     H78279   2.436  11.025   3.803  1.9783  0.5749 -0.8510
  580MOL0     H78280   2.285  11.211   3.778  0.8224 -1.7002 -0.1520
  580MOL0     H78281   2.285  11.233   3.964  1.8766 -0.2926  1.1025
  580MOL0     H78282   2.970  11.268   3.217 -4.5461 -2.5610  3.0620
  580MOL0     H78283   3.121  11.168   3.052  4.0043  0.3820 -0.7522
  580MOL0     H78284   3.345  10.758   3.044  1.1055  4.0197  1.7819
  580MOL0     H78285   3.418  10.580   2.912  3.1707 -1.6659  2.9766
  580MOL0     H78286   5.350  10.571   2.565 -0.3275  0.0934 -1.2526
  580MOL0     H78287   5.582  10.513   2.678  0.2512  1.0991 -0.7654
  580MOL0     H78288   5.893  10.186   2.741  0.6918 -0.4108  0.0239
  580MOL0     H78289   6.123  10.141   2.830  1.3304 -0.3928 -0.8590
  580MOL0     H78290   6.388  10.190   2.900  1.0610  0.5143 -0.2681
  580MOL0     H78291   6.330  10.055   2.804  2.0661 -1.1632 -2.0238
  580MOL0     H78292   6.532  10.049   2.681 -0.8382 -1.7891  0.0140
  580MOL0     H78293   6.569  10.040   2.850 -1.3347 -0.1980 -0.7232
  580MOL0     H78294   6.577  10.321   2.810 -0.0415  1.8350 -2.9196
  580MOL0     H78295   6.657  10.263   2.661 -3.5875  1.1741 -0.8704
  580MOL0     H78296   6.757  10.193   2.943 -0.0781  2.3059 -0.0210
  580MOL0     H78297   6.827  10.293   2.830  1.9846 -0.9973  0.2980
  580MOL0     H78298   6.938   9.880   2.716 -1.8671 -0.1631 -3.3167
  580MOL0     H78299   6.288  10.356   2.487 -1.3024 -1.3388 -1.3100
  580MOL0     H78300   6.061  10.444   2.432 -2.4622 -3.1200 -2.2458
  581MOL0     O78301   0.191   5.595   8.762 -0.1481  0.1652 -0.3776
  581MOL0     C78302   0.265   5.613   8.861  0.3517  0.5553  0.8174
  581MOL0     O78303   0.245   5.711   8.953  0.0749  0.1542 -0.0003
  581MOL0     C78304   0.134   5.773   8.933 -0.2007 -0.8047 -0.1389
  581MOL0     C78305   0.014   5.717   8.945  1.0348  0.4143 -1.0406
  581MOL0     C78306  -0.110   5.783   8.926 -0.3267  0.1159  0.3917
  581MOL0     C78307  -0.099   5.914   8.878  0.1939 -0.0732  0.0657
  581MOL0     O78308  -0.218   5.970   8.833 -0.6284  0.1262 -0.0371
  581MOL0     C78309  -0.222   5.996   8.689  0.3280 -0.3949  0.0974
  581MOL0     C78310  -0.271   6.141   8.662 -0.3714  0.0412  0.6641
  581MOL0     C78311  -0.415   6.159   8.678 -0.2666  0.2238  0.0804
  581MOL0     C78312  -0.476   6.188   8.544 -0.4357 -0.1511 -0.2037
  581MOL0     C78313  -0.634   6.189   8.541 -0.1434  0.4140  0.0662
  581MOL0     C78314  -0.681   6.215   8.401  0.6680  0.3650  0.2465
  581MOL0     C78315  -0.827   6.155   8.385 -0.8108 -0.5246 -0.4385
  581MOL0     C78316  -0.938   6.225   8.463 -0.0010  0.2923  0.3226
  581MOL0     N78317  -1.070   6.178   8.413 -0.2151  0.5110  0.4898
  581MOL0     C78318  -1.174   6.148   8.494  0.1415  0.8168 -0.3333
  581MOL0     C78319  -1.272   6.103   8.406  0.3376 -0.6087 -0.1162
  581MOL0     C78320  -1.401   6.058   8.456  0.7506  0.2972  0.2620
  581MOL0     C78321  -1.507   6.049   8.345 -0.3407  0.3775  0.4596
  581MOL0     C78322  -1.464   5.936   8.235 -0.2219 -0.0018 -1.0498
  581MOL0     C78323  -1.541   5.943   8.103 -0.4120  0.7647 -0.0422
  581MOL0     O78324  -1.690   5.949   8.121 -0.2589  0.4201  0.5058
  581MOL0     C78325  -1.752   5.997   8.011  0.6968  0.8431  0.1492
  581MOL0     C78326  -1.738   6.130   7.971 -0.6662 -0.2659 -0.4543
  581MOL0     C78327  -1.801   6.183   7.858  0.1742  1.4494  0.3175
  581MOL0     C78328  -1.788   6.335   7.825 -0.6432 -1.1476  0.4659
  581MOL0     C78329  -1.881   6.095   7.790  0.5810  0.3576  0.6703
  581MOL0     C78330  -1.977   6.144   7.689  0.0147 -0.2108 -1.0567
  581MOL0     O78331  -2.112   6.136   7.723 -0.6062 -0.0586 -0.4611
  581MOL0     C78332  -2.210   6.190   7.650 -0.1967  0.3695 -0.1067
  581MOL0     C78333  -2.202   6.299   7.556  0.0797 -0.1755  0.2902
  581MOL0     C78334  -2.308   6.341   7.481 -0.0744 -0.5819 -0.1754
  581MOL0     C78335  -2.430   6.285   7.503 -0.3709  1.6720  0.0148
  581MOL0     O78336  -2.532   6.341   7.430  0.3958  0.3968 -0.0278
  581MOL0     C78337  -2.636   6.265   7.382  0.4230  0.0527 -0.0326
  581MOL0     C78338  -2.728   6.366   7.307 -0.0064 -0.2703 -0.7916
  581MOL0     C78339  -2.671   6.419   7.178  0.4003 -1.4080  0.7605
  581MOL0     C78340  -2.752   6.518   7.093  0.5397  0.2132 -0.3601
  581MOL0     C78341  -2.663   6.567   6.973  0.2572 -0.0039 -0.1486
  581MOL0     C78342  -2.761   6.610   6.864 -0.2997  0.0559 -0.1789
  581MOL0     C78343  -2.784   6.493   6.765 -0.3494 -0.4459  0.2498
  581MOL0     C78344  -2.936   6.491   6.727 -0.1376  0.2796  0.5311
  581MOL0    Cl78345  -3.051   6.491   6.863  0.1051 -0.1362 -0.1004
  581MOL0     C78346  -2.451   6.182   7.594 -0.0114 -0.4884 -0.7922
  581MOL0     C78347  -2.337   6.136   7.667  0.5224 -0.0931  0.1462
  581MOL0     O78348  -1.933   6.187   7.585 -0.0076  0.4165  0.0337
  581MOL0     C78349  -1.890   5.956   7.819  0.3688 -1.0179  0.0429
  581MOL0     C78350  -1.823   5.908   7.926 -0.7964  0.0552  0.8750
  581MOL0     N78351  -1.228   6.147   8.281 -0.2894 -0.3096  0.3170
  581MOL0     N78352  -1.112   6.190   8.288 -0.1835  0.6247 -0.0121
  581MOL0     C78353   0.023   5.980   8.867  0.0973  0.3124  0.1574
  581MOL0     C78354   0.136   5.903   8.879 -0.9936 -0.7948 -0.1703
  581MOL0     C78355   0.390   5.540   8.883 -0.2387 -0.7274 -0.0641
  581MOL0     C78356   0.453   5.566   8.999 -0.5085 -0.0378 -1.1120
  581MOL0     C78357   0.577   5.492   9.029  0.8732  0.1211 -0.5925
  581MOL0     C78358   0.618   5.383   8.947 -0.4837 -0.2284 -0.6347
  581MOL0     O78359   0.728   5.310   8.995  0.1985  0.2791  0.9045
  581MOL0     C78360   0.770   5.205   8.902 -1.2872  0.2097  0.1999
  581MOL0     C78361   0.899   5.142   8.966  1.1740 -0.4684 -0.0661
  581MOL0     C78362   0.858   5.075   9.095  0.7378 -0.2585  0.6961
  581MOL0     C78363   0.963   4.979   9.149 -0.1209  0.4092 -0.3506
  581MOL0     C78364   1.070   5.066   9.192 -0.0327 -0.4789  0.9559
  581MOL0     C78365   1.165   5.133   9.223 -0.5866 -0.0666  0.0265
  581MOL0     C78366   0.542   5.360   8.835  0.3739 -0.4044 -0.1754
  581MOL0     C78367   0.432   5.440   8.797  0.3142 -0.1673  0.9951
  581MOL0     H78368   0.011   5.612   8.970 -0.8620  0.8021  0.6552
  581MOL0     H78369  -0.203   5.733   8.947  0.7769 -1.0381  3.0373
  581MOL0     H78370  -0.121   5.986   8.649  1.7470  0.9365  3.0764
  581MOL0     H78371  -0.288   5.927   8.635  1.0695 -0.9606 -0.0971
  581MOL0     H78372  -0.221   6.202   8.738 -0.0750  5.5064 -3.3733
  581MOL0     H78373  -0.228   6.181   8.570  1.5896  2.3886  2.4353
  581MOL0     H78374  -0.456   6.070   8.725  1.1834  0.6995  2.4032
  581MOL0     H78375  -0.419   6.252   8.736  4.5545 -0.0062  1.2490
  581MOL0     H78376  -0.444   6.288   8.514 -0.5701  0.1146  0.5042
  581MOL0     H78377  -0.436   6.114   8.474  0.0728 -1.3896  1.3450
  581MOL0     H78378  -0.672   6.091   8.570 -3.1657  0.7051 -2.4110
  581MOL0     H78379  -0.681   6.267   8.602 -1.0515  0.2202 -0.3855
  581MOL0     H78380  -0.665   6.320   8.374  1.2013 -0.1246 -1.4143
  581MOL0     H78381  -0.624   6.148   8.337 -0.4459  1.2267 -1.7323
  581MOL0     H78382  -0.860   6.163   8.281 -2.8141  0.1957  0.1959
  581MOL0     H78383  -0.822   6.053   8.422 -1.1894  0.0464  1.2643
  581MOL0     H78384  -0.934   6.334   8.455 -0.3501  0.1995 -1.6211
  581MOL0     H78385  -0.924   6.201   8.569  0.4830 -2.9119 -0.3718
  581MOL0     H78386  -1.179   6.152   8.602 -0.4290  2.8834 -0.4003
  581MOL0     H78387  -1.398   5.963   8.510  2.5993 -0.0791 -0.4496
  581MOL0     H78388  -1.443   6.120   8.536 -0.4003  0.2541 -0.2856
  581MOL0     H78389  -1.499   6.143   8.289  1.9745  1.0368  1.7526
  581MOL0     H78390  -1.612   6.032   8.366 -1.2991 -0.1747 -3.7992
  581MOL0     H78391  -1.471   5.835   8.275  0.7331 -0.3205 -1.6594
  581MOL0     H78392  -1.361   5.957   8.206 -0.5026  1.8291 -0.8345
  581MOL0     H78393  -1.523   5.857   8.038 -1.2538  1.1649 -0.8310
  581MOL0     H78394  -1.505   6.031   8.048  1.5136  0.5558  0.7769
  581MOL0     H78395  -1.672   6.191   8.032 -0.6002 -0.5739 -0.2167
  581MOL0     H78396  -1.737   6.396   7.900 -0.8167 -2.4783  1.7205
  581MOL0     H78397  -1.729   6.342   7.733 -1.2456 -1.6506  0.0331
  581MOL0     H78398  -1.888   6.375   7.809 -1.4270 -2.8615  0.8617
  581MOL0     H78399  -2.112   6.360   7.550  0.6249 -1.0540 -1.0643
  581MOL0     H78400  -2.299   6.424   7.413 -0.0821 -1.1403 -0.8733
  581MOL0     H78401  -2.619   6.176   7.321 -1.9436 -0.2699 -0.3255
  581MOL0     H78402  -2.689   6.222   7.468 -1.1068 -0.0865 -1.0105
  581MOL0     H78403  -2.823   6.316   7.287 -1.2351  0.8056  1.7976
  581MOL0     H78404  -2.755   6.448   7.375  3.7656  1.3696 -1.0248
  581MOL0     H78405  -2.658   6.332   7.114  1.1938 -0.1278 -0.9072
  581MOL0     H78406  -2.574   6.464   7.200 -1.2269  2.2482  1.3440
  581MOL0     H78407  -2.847   6.472   7.063  0.7447 -1.2044  1.0397
  581MOL0     H78408  -2.773   6.614   7.141  3.0123 -0.0206  1.3573
  581MOL0     H78409  -2.588   6.495   6.941 -0.1917  0.2542 -1.9003
  581MOL0     H78410  -2.602   6.651   7.006  1.8123 -1.0489 -0.2994
  581MOL0     H78411  -2.849   6.652   6.914  1.9195  3.3626  1.2586
  581MOL0     H78412  -2.712   6.691   6.809  3.3870 -2.2580 -0.6474
  581MOL0     H78413  -2.740   6.400   6.803  0.0443 -0.6028 -0.5688
  581MOL0     H78414  -2.720   6.530   6.684  0.8770  0.8042  1.7121
  581MOL0     H78415  -2.953   6.400   6.669  1.3411 -0.1460  0.7264
  581MOL0     H78416  -2.952   6.586   6.676  1.2342  1.2180  1.7339
  581MOL0     H78417  -2.550   6.141   7.610  0.2477 -1.5622 -1.8096
  581MOL0     H78418  -2.355   6.061   7.743  0.0475  1.4264  1.5982
  581MOL0     H78419  -1.947   5.879   7.768  1.8164 -1.4388 -1.0228
  581MOL0     H78420  -1.835   5.804   7.952 -0.4771  0.3672  2.3571
  581MOL0     H78421   0.024   6.081   8.828 -2.6526  0.1657 -0.5379
  581MOL0     H78422   0.230   5.940   8.839  0.2947 -1.2468  2.2252
  581MOL0     H78423   0.438   5.651   9.065  2.4257  0.3645 -0.8297
  581MOL0     H78424   0.631   5.497   9.123  1.0352  1.6921 -0.7457
  581MOL0     H78425   0.690   5.132   8.883  1.5968 -2.4416 -3.0336
  581MOL0     H78426   0.794   5.245   8.803  1.4804 -2.5398 -0.3835
  581MOL0     H78427   0.983   5.212   8.967  0.1389  0.7904  0.1119
  581MOL0     H78428   0.925   5.052   8.909 -2.0315 -3.0819  2.1743
  581MOL0     H78429   0.778   5.002   9.078  0.2935  0.3557  0.1142
  581MOL0     H78430   0.822   5.144   9.172 -0.4860  2.2407 -1.9635
  581MOL0     H78431   0.993   4.902   9.078  0.3671  0.3023 -0.0294
  581MOL0     H78432   0.934   4.926   9.241  2.8520  1.4533  1.3127
  581MOL0     H78433   1.238   5.206   9.251 -1.9401  1.5598 -0.5394
  581MOL0     H78434   0.569   5.278   8.769  2.7824 -0.0460  0.2790
  581MOL0     H78435   0.366   5.424   8.713 -0.8806  0.9026  1.6810
  582MOL0     O78436   3.497   1.141   9.790  0.3019 -0.1837 -0.7398
  582MOL0     C78437   3.603   1.090   9.758 -0.1107 -0.3783 -0.0771
  582MOL0     O78438   3.625   0.996   9.659 -0.1690 -0.0618  0.8897
  582MOL0     C78439   3.512   0.945   9.601  0.6799  0.0945 -0.0351
  582MOL0     C78440   3.434   1.032   9.519  0.5042  0.4076 -0.3198
  582MOL0     C78441   3.316   0.983   9.467  0.8561 -0.6448 -0.5572
  582MOL0     C78442   3.281   0.848   9.481 -0.7655  0.7254 -0.4279
  582MOL0     O78443   3.163   0.807   9.435 -0.4939  0.5311  0.8779
  582MOL0     C78444   3.098   0.694   9.487 -0.0321 -0.8728 -0.3130
  582MOL0     C78445   2.960   0.684   9.424 -0.1283  0.0326  0.3775
  582MOL0     C78446   2.866   0.592   9.503  0.4240 -1.1712 -0.1213
  582MOL0     C78447   2.832   0.667   9.636 -0.4032 -0.3199 -0.3942
  582MOL0     C78448   2.716   0.606   9.712  0.1410  0.3801 -0.0370
  582MOL0     C78449   2.589   0.650   9.642 -0.4933 -0.5038  0.2804
  582MOL0     C78450   2.467   0.598   9.725  0.3164 -0.7306  0.0145
  582MOL0     C78451   2.421   0.467   9.676 -0.8174  0.2903 -0.8855
  582MOL0     N78452   2.300   0.414   9.728  0.1873 -0.0289  0.1865
  582MOL0     C78453   2.175   0.429   9.676 -1.1214 -1.1715  0.8461
  582MOL0     C78454   2.101   0.365   9.763  0.1736  0.8507 -0.3064
  582MOL0     C78455   1.949   0.341   9.752 -0.3229  0.6317 -0.4907
  582MOL0     C78456   1.903   0.262   9.627 -0.5887 -0.3187  0.0154
  582MOL0     C78457   1.754   0.256   9.619 -0.5569  0.3929 -0.5637
  582MOL0     C78458   1.685   0.181   9.510  0.8886 -0.3660  1.0840
  582MOL0     O78459   1.547   0.219   9.524 -0.4952  0.7742 -0.1420
  582MOL0     C78460   1.457   0.152   9.443  1.1304 -0.3700 -0.6807
  582MOL0     C78461   1.488   0.096   9.324  0.7421  1.0433  0.0628
  582MOL0     C78462   1.385   0.039   9.229 -0.0202 -0.0333 -0.0482
  582MOL0     C78463   1.430  -0.010   9.098  0.3402  1.1909  0.1107
  582MOL0     C78464   1.250   0.058   9.261 -0.2225  0.1181  0.3520
  582MOL0     C78465   1.134   0.027   9.169  0.1502 -0.0156  0.3773
  582MOL0     O78466   1.012   0.010   9.223 -0.0395 -0.2482  0.1246
  582MOL0     C78467   0.904  -0.014   9.143  0.0706 -0.0129 -0.8666
  582MOL0     C78468   0.883  -0.140   9.081 -0.6191 -0.4391  0.2361
  582MOL0     C78469   0.754  -0.165   9.020 -0.4329 -0.6363 -0.4912
  582MOL0     C78470   0.654  -0.075   9.020  0.2284 -0.7181 -0.0181
  582MOL0     O78471   0.538  -0.107   8.960  0.5271 -0.4647  0.4018
  582MOL0     C78472   0.442  -0.012   8.920 -0.2611 -0.1457  0.5547
  582MOL0     C78473   0.349   0.025   9.036  0.0840  0.3451 -0.2431
  582MOL0     C78474   0.252  -0.086   9.088 -1.1265  0.2821  0.6247
  582MOL0     C78475   0.166  -0.133   8.963  0.6067 -0.2795 -0.8002
  582MOL0     C78476   0.081  -0.237   9.009 -0.1106  0.7847  0.1987
  582MOL0     C78477  -0.008  -0.306   8.902 -0.2284  0.1550 -0.3244
  582MOL0     C78478  -0.123  -0.220   8.861  1.0020  0.1427 -0.3837
  582MOL0     C78479  -0.242  -0.313   8.865 -0.0385  0.2421 -1.1467
  582MOL0    Cl78480  -0.324  -0.346   9.018  0.1024 -0.4031  0.0813
  582MOL0     C78481   0.684   0.050   9.091  0.5756  0.7258  0.2827
  582MOL0     C78482   0.807   0.082   9.152 -0.6426 -0.9844 -0.5626
  582MOL0     O78483   1.161  -0.001   9.045 -0.4018 -0.1471 -0.4020
  582MOL0     C78484   1.221   0.118   9.390 -0.5384 -0.2801 -0.0615
  582MOL0     C78485   1.322   0.170   9.473 -0.2567 -0.5008  0.3974
  582MOL0     N78486   2.181   0.327   9.874 -0.1984  0.7727  0.7053
  582MOL0     N78487   2.298   0.361   9.853 -0.8480 -0.2719  0.0743
  582MOL0     C78488   3.366   0.763   9.557 -0.7795  0.7025  0.2801
  582MOL0     C78489   3.484   0.809   9.611  0.6841 -0.2753  0.3371
  582MOL0     C78490   3.724   1.153   9.814 -0.3665  1.1013  0.4223
  582MOL0     C78491   3.851   1.111   9.762 -0.2243  0.8469 -0.4746
  582MOL0     C78492   3.964   1.157   9.825 -0.9125  0.5568 -0.0645
  582MOL0     C78493   3.953   1.251   9.929 -0.5877  0.3011  0.6566
  582MOL0     O78494   4.076   1.285   9.984 -0.5405  0.4074 -0.0257
  582MOL0     C78495   4.081   1.362  10.109 -0.0577  0.8462  0.0464
  582MOL0     C78496   4.119   1.497  10.081  0.0377  0.1773  0.2417
  582MOL0     C78497   4.035   1.578   9.985  0.5761 -0.2664 -0.0972
  582MOL0     C78498   4.049   1.728  10.007  0.1697  0.0569  0.1835
  582MOL0     C78499   3.974   1.773  10.122 -0.1598 -0.1742 -0.2312
  582MOL0     C78500   3.914   1.806  10.218  0.4371  0.7630 -0.5791
  582MOL0     C78501   3.833   1.294   9.972 -0.2853  0.3761  0.3469
  582MOL0     C78502   3.718   1.249   9.911 -0.1755 -0.0602  0.1354
  582MOL0     H78503   3.469   1.134   9.508  3.1768 -0.3365  0.5786
  582MOL0     H78504   3.255   1.049   9.406 -0.6093 -4.0224 -3.0587
  582MOL0     H78505   3.150   0.599   9.469  0.6838 -0.6935  0.7315
  582MOL0     H78506   3.102   0.710   9.595  1.3592 -2.5644 -0.0570
  582MOL0     H78507   2.917   0.782   9.402  0.6133 -0.3946 -3.8814
  582MOL0     H78508   2.979   0.634   9.329  2.0829  1.3685  0.0317
  582MOL0     H78509   2.776   0.562   9.448 -1.3818  0.8930  1.5175
  582MOL0     H78510   2.914   0.497   9.528  2.4437 -0.2246 -0.2189
  582MOL0     H78511   2.922   0.664   9.699 -0.2368 -0.8998 -0.6557
  582MOL0     H78512   2.815   0.774   9.619  1.0474 -0.1341 -0.8102
  582MOL0     H78513   2.733   0.498   9.708 -1.8681  0.0688 -1.4391
  582MOL0     H78514   2.713   0.641   9.816 -2.6155 -1.0606  0.4559
  582MOL0     H78515   2.585   0.758   9.654  1.5582 -0.6215  2.6805
  582MOL0     H78516   2.579   0.625   9.536  0.2722  3.2141 -0.7853
  582MOL0     H78517   2.472   0.602   9.834  2.2249  1.8034 -0.0677
  582MOL0     H78518   2.396   0.681   9.721  2.3624  1.2824  2.2734
  582MOL0     H78519   2.500   0.395   9.701 -1.0087  0.4284  0.1752
  582MOL0     H78520   2.406   0.457   9.569 -0.1762  0.5189 -1.0045
  582MOL0     H78521   2.150   0.474   9.580  1.1046 -1.7734 -0.0860
  582MOL0     H78522   1.923   0.290   9.845 -1.5555  0.4099 -0.9459
  582MOL0     H78523   1.904   0.440   9.738 -1.7634 -0.1863 -1.9667
  582MOL0     H78524   1.938   0.159   9.635 -0.4201 -0.0805  3.4197
  582MOL0     H78525   1.946   0.305   9.536  0.4210 -0.9384  0.1945
  582MOL0     H78526   1.719   0.359   9.615 -0.5181  0.4398  0.2136
  582MOL0     H78527   1.723   0.214   9.716 -0.0411 -3.6799 -1.9507
  582MOL0     H78528   1.686   0.072   9.514 -1.1924 -0.6191 -2.0035
  582MOL0     H78529   1.715   0.216   9.410 -0.3065 -0.0943  0.8094
  582MOL0     H78530   1.589   0.098   9.285  1.9270  3.0885  2.8351
  582MOL0     H78531   1.390  -0.109   9.076  0.9966  1.0461 -0.4460
  582MOL0     H78532   1.401   0.056   9.016  1.8380  0.5697 -0.9387
  582MOL0     H78533   1.538  -0.023   9.088 -0.1879 -1.7539 -3.9059
  582MOL0     H78534   0.960  -0.216   9.091 -0.9992 -0.7770  0.6360
  582MOL0     H78535   0.739  -0.258   8.965 -0.8685  0.0738 -1.6146
  582MOL0     H78536   0.481   0.079   8.873  0.1195 -1.1660 -1.1882
  582MOL0     H78537   0.398  -0.066   8.836  0.8553 -3.2272  1.8055
  582MOL0     H78538   0.411   0.064   9.117  0.8855  2.2818 -1.7019
  582MOL0     H78539   0.292   0.113   9.003  0.6270  0.4666 -0.8708
  582MOL0     H78540   0.193  -0.045   9.171 -1.2038 -0.0315  0.7258
  582MOL0     H78541   0.323  -0.161   9.124 -0.0888  0.6474 -0.5757
  582MOL0     H78542   0.109  -0.045   8.930 -1.0224 -1.8906 -2.5603
  582MOL0     H78543   0.229  -0.169   8.881  0.6150  0.6149 -1.1934
  582MOL0     H78544   0.015  -0.203   9.090 -1.4920 -2.3493  0.5324
  582MOL0     H78545   0.147  -0.315   9.050 -0.6807  1.0378  1.6487
  582MOL0     H78546   0.060  -0.333   8.820 -0.4626 -1.6958  0.0475
  582MOL0     H78547  -0.042  -0.398   8.949  0.6423  0.1578  0.3376
  582MOL0     H78548  -0.115  -0.184   8.758  0.2738 -2.2244 -1.3364
  582MOL0     H78549  -0.144  -0.134   8.926 -2.6274 -0.0645 -1.0981
  582MOL0     H78550  -0.208  -0.401   8.811  1.4680 -0.0364  0.1887
  582MOL0     H78551  -0.322  -0.276   8.799  0.3574  1.6249 -0.8887
  582MOL0     H78552   0.610   0.129   9.082 -2.5608 -2.0613 -0.4518
  582MOL0     H78553   0.813   0.184   9.187 -1.8674 -0.8374 -0.7385
  582MOL0     H78554   1.123   0.107   9.435 -0.8938  1.3568 -0.3645
  582MOL0     H78555   1.296   0.222   9.565  0.5419 -0.6375  0.7139
  582MOL0     H78556   3.338   0.662   9.586 -4.0352  1.2830 -0.3844
  582MOL0     H78557   3.548   0.744   9.671  3.4573 -1.6901 -3.7035
  582MOL0     H78558   3.864   1.046   9.675  0.0758  2.1606 -1.4426
  582MOL0     H78559   4.061   1.109   9.817 -0.5957  0.8319  1.6867
  582MOL0     H78560   3.986   1.358  10.163 -0.2072  0.6976 -0.2239
  582MOL0     H78561   4.158   1.314  10.171  0.2800  1.5123  0.1435
  582MOL0     H78562   4.211   1.478  10.026  0.7150  1.6643  0.8029
  582MOL0     H78563   4.141   1.555  10.172 -0.0807  0.8242 -0.1343
  582MOL0     H78564   3.930   1.554  10.004  0.9458 -0.7144  1.5176
  582MOL0     H78565   4.062   1.555   9.881 -2.5309 -1.9046 -0.6800
  582MOL0     H78566   4.021   1.767   9.908  0.5232 -1.0009 -0.3461
  582MOL0     H78567   4.152   1.764  10.021 -0.5923  2.0108  1.1303
  582MOL0     H78568   3.855   1.823  10.306 -0.6231  1.1136 -1.3370
  582MOL0     H78569   3.811   1.359  10.056 -1.0190  0.4491  0.1056
  582MOL0     H78570   3.624   1.297   9.934 -0.2709 -0.2274  0.0965
  583MOL0     O78571   0.028   0.654   3.877 -0.9660 -0.5646  0.4757
  583MOL0     C78572   0.024   0.720   3.981  0.2490  0.0843 -0.4260
  583MOL0     O78573  -0.079   0.735   4.075  1.1996  0.5019  0.2455
  583MOL0     C78574  -0.199   0.672   4.031 -0.3929  0.1973  0.6411
  583MOL0     C78575  -0.255   0.560   4.099 -1.2076 -0.3794 -0.0179
  583MOL0     C78576  -0.366   0.493   4.057 -0.1628  0.0712 -0.1298
  583MOL0     C78577  -0.443   0.542   3.955  0.3791  0.4155  0.4044
  583MOL0     O78578  -0.549   0.462   3.917 -0.6662  0.0775 -0.1205
  583MOL0     C78579  -0.665   0.519   3.848 -0.5020 -0.2560 -0.3728
  583MOL0     C78580  -0.767   0.568   3.956  0.1503  0.0149  0.5954
  583MOL0     C78581  -0.835   0.453   4.030 -0.1033  0.4472  0.2604
  583MOL0     C78582  -0.921   0.507   4.143 -0.1060  0.3275  0.5056
  583MOL0     C78583  -1.012   0.400   4.210  0.5080  0.5404 -0.5924
  583MOL0     C78584  -1.112   0.448   4.320 -0.3381  0.2088  0.3896
  583MOL0     C78585  -1.167   0.321   4.378 -0.4199 -0.4468  0.0873
  583MOL0     C78586  -1.235   0.343   4.514 -0.4879 -0.1959  0.0516
  583MOL0     N78587  -1.145   0.348   4.631  0.6625  0.2476  1.0539
  583MOL0     C78588  -1.019   0.300   4.644  0.0861 -0.1479  0.1716
  583MOL0     C78589  -0.976   0.348   4.770 -0.4453  0.8662  0.5420
  583MOL0     C78590  -0.845   0.312   4.814  0.5194 -0.7302  0.4961
  583MOL0     C78591  -0.839   0.166   4.847 -0.2696 -0.5526 -0.1733
  583MOL0     C78592  -0.941   0.127   4.960 -0.0273 -0.7525 -0.0986
  583MOL0     C78593  -0.983  -0.021   4.952 -0.1274 -0.3028 -0.6516
  583MOL0     O78594  -1.069  -0.043   5.070  0.9885 -0.3646  0.1390
  583MOL0     C78595  -1.200  -0.012   5.061 -0.2589 -0.3443 -1.4628
  583MOL0     C78596  -1.279  -0.061   5.165 -0.0677  0.5521  0.0695
  583MOL0     C78597  -1.417  -0.033   5.176 -0.0403 -0.0251 -0.2961
  583MOL0     C78598  -1.488  -0.092   5.290  0.4321  0.2992 -0.9732
  583MOL0     C78599  -1.477   0.061   5.086  0.6190  0.3486 -0.0583
  583MOL0     C78600  -1.622   0.114   5.093 -0.5239 -0.4970  0.8984
  583MOL0     O78601  -1.633   0.243   5.160 -0.4911  0.0133  0.1894
  583MOL0     C78602  -1.757   0.312   5.162  0.5782 -0.1697  0.8814
  583MOL0     C78603  -1.887   0.269   5.192  0.1818 -0.0341 -0.4977
  583MOL0     C78604  -1.997   0.366   5.213  0.0614 -0.3750  0.4046
  583MOL0     C78605  -1.985   0.502   5.168 -0.3394 -0.3464  0.2622
  583MOL0     O78606  -2.081   0.600   5.158  0.0376 -0.1081  0.2275
  583MOL0     C78607  -2.220   0.574   5.183 -0.0897  0.8712 -0.1741
  583MOL0     C78608  -2.300   0.701   5.138  0.6443 -0.0515  0.0726
  583MOL0     C78609  -2.256   0.822   5.213  0.2995 -0.6180 -0.1856
  583MOL0     C78610  -2.331   0.944   5.163 -1.1520 -0.6725  1.2269
  583MOL0     C78611  -2.485   0.953   5.201 -0.2686  0.1349  0.1498
  583MOL0     C78612  -2.532   1.095   5.170 -0.4599  0.0943  0.1095
  583MOL0     C78613  -2.674   1.119   5.185  0.1919  0.4381  0.1439
  583MOL0     C78614  -2.717   1.269   5.163 -0.1846  0.2699 -0.9354
  583MOL0    Cl78615  -2.646   1.368   5.296  0.9044 -0.4003 -0.2216
  583MOL0     C78616  -1.850   0.543   5.131 -0.1462 -0.7349  0.5082
  583MOL0     C78617  -1.741   0.449   5.129  0.5495 -0.1736  0.2153
  583MOL0     O78618  -1.715   0.039   5.062  0.6190 -1.0791 -0.4725
  583MOL0     C78619  -1.393   0.112   4.984  0.6304 -0.1009 -0.9155
  583MOL0     C78620  -1.264   0.075   4.974 -0.8497  0.1436 -0.1613
  583MOL0     N78621  -1.077   0.424   4.830 -0.5385  0.5838  0.9733
  583MOL0     N78622  -1.176   0.417   4.745  0.3239  0.0561  0.5903
  583MOL0     C78623  -0.394   0.657   3.889  0.3772 -0.4171 -0.2334
  583MOL0     C78624  -0.273   0.722   3.921 -0.2249 -0.0261 -0.4714
  583MOL0     C78625   0.153   0.796   4.003  0.4553 -0.0040 -0.9797
  583MOL0     C78626   0.264   0.791   3.910 -0.1813 -0.3912  0.4929
  583MOL0     C78627   0.378   0.855   3.932 -0.3558 -0.1014  0.2946
  583MOL0     C78628   0.401   0.938   4.036 -0.5902 -0.0400 -0.7523
  583MOL0     O78629   0.514   1.011   4.057 -0.4832  0.4719  0.0144
  583MOL0     C78630   0.640   0.975   3.995  0.1605 -0.0442  0.5862
  583MOL0     C78631   0.739   1.083   4.030  0.3097 -0.6189 -0.3525
  583MOL0     C78632   0.697   1.218   3.965 -0.3504  0.4343 -0.2104
  583MOL0     C78633   0.782   1.332   4.025 -0.2617 -0.5239  0.2635
  583MOL0     C78634   0.918   1.318   3.970 -0.3539 -0.1026 -1.0986
  583MOL0     C78635   1.025   1.316   3.912  0.0200 -0.0006  0.4753
  583MOL0     C78636   0.295   0.949   4.126 -0.0879  0.4122  0.7697
  583MOL0     C78637   0.175   0.877   4.116 -0.3864 -0.2472 -0.1828
  583MOL0     H78638  -0.218   0.520   4.192 -5.1505 -1.6031  1.2545
  583MOL0     H78639  -0.388   0.401   4.111  1.6687 -0.0168  0.5106
  583MOL0     H78640  -0.626   0.602   3.790 -1.2981  0.5362  0.1965
  583MOL0     H78641  -0.727   0.460   3.780 -0.4565 -0.0095 -0.6305
  583MOL0     H78642  -0.727   0.645   4.022 -2.6871  1.2452  1.0302
  583MOL0     H78643  -0.852   0.615   3.905  0.3380  1.8881  1.9404
  583MOL0     H78644  -0.885   0.399   3.948 -2.2673  0.3652  1.5456
  583MOL0     H78645  -0.757   0.384   4.064 -1.7231 -1.1879  0.8404
  583MOL0     H78646  -0.866   0.556   4.224 -0.6941  0.8302  0.6053
  583MOL0     H78647  -0.982   0.590   4.107 -4.0039 -1.6599  1.9345
  583MOL0     H78648  -1.070   0.351   4.131 -1.6079 -1.0728  1.7998
  583MOL0     H78649  -0.946   0.318   4.240  0.1723  0.3324 -0.4258
  583MOL0     H78650  -1.064   0.512   4.395 -0.2716  1.4780 -0.6960
  583MOL0     H78651  -1.193   0.507   4.276 -0.2951  1.9980  2.5100
  583MOL0     H78652  -1.240   0.277   4.309 -1.6374 -3.4493  3.0097
  583MOL0     H78653  -1.094   0.241   4.390  0.6482  0.7450  1.8915
  583MOL0     H78654  -1.313   0.268   4.528 -1.6622  1.2347  1.5751
  583MOL0     H78655  -1.281   0.442   4.508  0.5776  0.2489 -1.9308
  583MOL0     H78656  -0.962   0.263   4.559 -2.6807  0.2201 -1.9898
  583MOL0     H78657  -0.778   0.324   4.728  0.0222 -1.2732  0.0250
  583MOL0     H78658  -0.809   0.369   4.900 -1.2991  0.1437  0.7333
  583MOL0     H78659  -0.742   0.144   4.893 -0.4252 -0.0531  0.4032
  583MOL0     H78660  -0.840   0.103   4.758 -0.7736  1.9941 -2.0788
  583MOL0     H78661  -1.030   0.190   4.953  1.2266  0.9763 -1.4752
  583MOL0     H78662  -0.905   0.156   5.059  3.3097  1.3189 -1.7251
  583MOL0     H78663  -0.895  -0.087   4.955 -1.3747 -2.0644 -0.9514
  583MOL0     H78664  -1.035  -0.057   4.862 -0.5422 -3.9080  0.8384
  583MOL0     H78665  -1.236  -0.115   5.248 -0.1334  1.8311  0.9537
  583MOL0     H78666  -1.556  -0.172   5.261  0.5940  0.7050 -2.5464
  583MOL0     H78667  -1.425  -0.130   5.371 -2.3376 -1.8149  0.3519
  583MOL0     H78668  -1.542  -0.011   5.341  2.6046  0.6316  0.9887
  583MOL0     H78669  -1.907   0.163   5.210 -1.0332  0.3334  0.4375
  583MOL0     H78670  -2.091   0.323   5.248  0.5073 -1.8059 -0.1083
  583MOL0     H78671  -2.244   0.484   5.126 -0.7781  0.7243  0.3290
  583MOL0     H78672  -2.225   0.547   5.289 -3.1733  3.2569  0.4579
  583MOL0     H78673  -2.284   0.719   5.032  1.8336 -0.7544  0.1126
  583MOL0     H78674  -2.407   0.681   5.156  1.3964 -1.7920  3.4565
  583MOL0     H78675  -2.149   0.841   5.201  0.6447 -0.8242  2.1313
  583MOL0     H78676  -2.272   0.804   5.320  1.4055  1.4687  0.3950
  583MOL0     H78677  -2.276   1.035   5.190  0.9965 -1.3284 -0.5894
  583MOL0     H78678  -2.332   0.949   5.054 -3.2877  2.3446  1.2525
  583MOL0     H78679  -2.504   0.927   5.305 -1.7761  0.5140 -0.0040
  583MOL0     H78680  -2.552   0.883   5.150 -2.6857  0.9561  2.0063
  583MOL0     H78681  -2.478   1.165   5.234  0.0576 -1.7414  1.7861
  583MOL0     H78682  -2.504   1.115   5.066  3.9161 -2.4241  0.5352
  583MOL0     H78683  -2.709   1.095   5.286  0.7307 -2.1303 -0.2077
  583MOL0     H78684  -2.730   1.062   5.111  1.3889  2.2777 -2.3165
  583MOL0     H78685  -2.826   1.271   5.153 -0.0237  1.7950 -3.4311
  583MOL0     H78686  -2.671   1.296   5.067  2.1162 -1.8571 -0.5262
  583MOL0     H78687  -1.831   0.640   5.086  1.2110 -0.0791  2.3610
  583MOL0     H78688  -1.643   0.493   5.114  0.0066  1.0832  0.2679
  583MOL0     H78689  -1.422   0.180   4.904  2.9522  1.7199 -0.3227
  583MOL0     H78690  -1.214   0.120   4.890 -0.2098  0.2328  0.2624
  583MOL0     H78691  -0.454   0.694   3.806 -2.7597  2.3295  2.9392
  583MOL0     H78692  -0.238   0.822   3.895  0.3021  0.7610  2.8353
  583MOL0     H78693   0.255   0.745   3.812  0.1162 -0.2733  0.4084
  583MOL0     H78694   0.452   0.852   3.853 -2.3827 -0.3170 -1.6970
  583MOL0     H78695   0.671   0.876   4.031 -1.2571 -0.0354  1.9843
  583MOL0     H78696   0.650   0.980   3.887  4.1516 -0.5307  0.8089
  583MOL0     H78697   0.837   1.043   4.002 -0.4879 -3.9468  1.0693
  583MOL0     H78698   0.724   1.085   4.138 -0.4020 -0.2021 -0.4578
  583MOL0     H78699   0.589   1.230   3.980 -0.0430  0.8527  2.0405
  583MOL0     H78700   0.714   1.213   3.857  1.5045 -0.5673  0.0834
  583MOL0     H78701   0.786   1.329   4.134  0.2753 -2.5340  0.2373
  583MOL0     H78702   0.751   1.428   3.984  0.8655 -0.0108  0.5866
  583MOL0     H78703   1.110   1.290   3.852 -1.1517  0.5689 -1.4868
  583MOL0     H78704   0.310   1.024   4.203  0.8883  1.4930 -0.4292
  583MOL0     H78705   0.089   0.874   4.183 -1.5900 -2.5834 -1.6729
  584MOL0     O78706   9.708   1.269   8.346  0.2257  0.0945  0.8175
  584MOL0     C78707   9.757   1.278   8.455 -0.6925 -0.2095 -0.2679
  584MOL0     O78708   9.740   1.383   8.547 -0.0827  0.1968  0.7439
  584MOL0     C78709   9.673   1.488   8.511  0.3940  0.1560  0.4131
  584MOL0     C78710   9.547   1.520   8.556 -0.1498  0.5034 -0.5691
  584MOL0     C78711   9.485   1.641   8.523 -0.2818  0.4634  0.0866
  584MOL0     C78712   9.537   1.726   8.424 -0.7517  0.0804  0.4515
  584MOL0     O78713   9.487   1.830   8.359  0.5392  0.0444  0.0832
  584MOL0     C78714   9.370   1.885   8.413  0.9269 -0.1540 -0.2623
  584MOL0     C78715   9.295   1.992   8.326  0.4202  0.8601 -0.3061
  584MOL0     C78716   9.172   2.051   8.404 -0.2841  1.0345  0.3871
  584MOL0     C78717   9.071   2.121   8.322  1.0619 -0.1432  0.4359
  584MOL0     C78718   8.986   2.032   8.231 -0.1894  0.6666 -0.4172
  584MOL0     C78719   8.923   2.116   8.116 -1.1627  1.0161 -0.3356
  584MOL0     C78720   8.793   2.068   8.056 -0.5929 -0.1263  0.6022
  584MOL0     C78721   8.671   2.051   8.154  0.1053 -0.5740  0.0694
  584MOL0     N78722   8.545   2.045   8.086  0.3810 -0.2290  0.6180
  584MOL0     C78723   8.429   2.091   8.142  0.1955  0.2236  0.1526
  584MOL0     C78724   8.327   2.082   8.046  0.4181 -0.0276 -0.4536
  584MOL0     C78725   8.186   2.082   8.094 -0.2049  0.1067  0.4838
  584MOL0     C78726   8.089   2.116   7.977  0.9564  0.3850  0.5066
  584MOL0     C78727   7.946   2.084   8.033  0.6754  0.2187 -0.2093
  584MOL0     C78728   7.840   2.119   7.924 -0.2885  0.1581 -1.0724
  584MOL0     O78729   7.716   2.061   7.966 -0.5401 -0.3467  0.3366
  584MOL0     C78730   7.604   2.082   7.884 -0.3720  0.5710  0.7080
  584MOL0     C78731   7.479   2.013   7.910 -0.5596  0.1642 -0.7587
  584MOL0     C78732   7.368   2.024   7.834  0.0961  0.1497 -0.0985
  584MOL0     C78733   7.242   1.952   7.881 -0.0848 -1.6558  0.7815
  584MOL0     C78734   7.368   2.117   7.726 -0.3918 -0.4798 -0.0956
  584MOL0     C78735   7.252   2.147   7.643 -0.5497 -0.8853  0.3841
  584MOL0     O78736   7.244   2.271   7.585 -0.0002 -0.4007 -0.0504
  584MOL0     C78737   7.164   2.279   7.474  0.3812  0.2440 -0.0797
  584MOL0     C78738   7.223   2.261   7.347  0.3350 -0.2037  0.4882
  584MOL0     C78739   7.141   2.249   7.233 -0.1484 -0.1080 -0.1418
  584MOL0     C78740   7.008   2.282   7.239 -0.0369  0.0908 -0.5938
  584MOL0     O78741   6.937   2.261   7.121  0.4098  0.1160  0.3491
  584MOL0     C78742   6.795   2.234   7.133  0.4568  0.0217 -0.2007
  584MOL0     C78743   6.741   2.207   6.994 -1.4753  0.8874  0.2620
  584MOL0     C78744   6.733   2.343   6.913 -0.3205 -0.0089 -0.4517
  584MOL0     C78745   6.687   2.305   6.770  0.5606 -0.2038 -1.1117
  584MOL0     C78746   6.605   2.410   6.696 -0.0718 -0.7497  0.5983
  584MOL0     C78747   6.536   2.350   6.570  0.7216 -0.0028  0.2268
  584MOL0     C78748   6.452   2.468   6.509 -0.5705 -0.3024 -0.4341
  584MOL0     C78749   6.339   2.421   6.426  0.4074  0.6827 -0.2353
  584MOL0    Cl78750   6.397   2.323   6.284  0.0350  0.2563 -0.1790
  584MOL0     C78751   6.957   2.323   7.358  0.2397 -0.7825 -1.0329
  584MOL0     C78752   7.031   2.315   7.481  0.0443  0.2302  0.0021
  584MOL0     O78753   7.172   2.064   7.611 -0.5256  0.5759 -0.6582
  584MOL0     C78754   7.492   2.189   7.704  0.1421  0.1879  1.3891
  584MOL0     C78755   7.608   2.182   7.777  0.4755  0.4444 -0.6688
  584MOL0     N78756   8.389   2.037   7.932 -0.2708 -0.6697  0.5471
  584MOL0     N78757   8.516   2.006   7.956  0.0555 -0.2823  0.1587
  584MOL0     C78758   9.669   1.699   8.384 -0.3513 -0.2251 -0.5930
  584MOL0     C78759   9.735   1.591   8.441  0.6666  0.0263 -0.9056
  584MOL0     C78760   9.837   1.164   8.505 -0.3631 -0.8062 -0.2643
  584MOL0     C78761   9.903   1.172   8.633 -0.7653 -0.1667  0.0625
  584MOL0     C78762   9.978   1.065   8.673 -0.6127  0.2227 -0.1668
  584MOL0     C78763   9.990   0.944   8.594 -0.2952 -0.1505  0.2384
  584MOL0     O78764  10.061   0.838   8.648  0.0227  0.3864  0.4154
  584MOL0     C78765  10.097   0.730   8.549  0.0110 -0.0385 -0.5267
  584MOL0     C78766  10.191   0.621   8.605  0.0510 -0.3101  0.5733
  584MOL0     C78767  10.317   0.682   8.654  0.0658 -0.6930 -0.0535
  584MOL0     C78768  10.408   0.591   8.744  0.1501 -0.1434  0.2182
  584MOL0     C78769  10.426   0.460   8.678 -0.2535  0.8306 -0.7888
  584MOL0     C78770  10.434   0.354   8.613 -1.0615 -0.0151  0.5117
  584MOL0     C78771   9.924   0.940   8.471  0.2446 -0.4016  0.4895
  584MOL0     C78772   9.851   1.044   8.432 -0.2945  0.6065 -0.3701
  584MOL0     H78773   9.488   1.452   8.616 -1.0562  2.6667  1.1008
  584MOL0     H78774   9.389   1.668   8.566 -0.2803  1.0271 -0.2414
  584MOL0     H78775   9.301   1.802   8.431 -2.3365  2.7473  1.8960
  584MOL0     H78776   9.395   1.931   8.509 -0.8003  1.3583 -0.4760
  584MOL0     H78777   9.371   2.070   8.313  4.5804 -2.4523  1.8266
  584MOL0     H78778   9.275   1.945   8.230 -1.0867 -2.5628  1.4866
  584MOL0     H78779   9.130   1.964   8.456  1.7569  0.2432  0.7970
  584MOL0     H78780   9.211   2.129   8.469  3.5373 -0.8829  0.6863
  584MOL0     H78781   9.000   2.175   8.385  0.5123  1.0440 -1.1538
  584MOL0     H78782   9.129   2.191   8.263  0.0302 -0.4559 -0.9922
  584MOL0     H78783   9.057   1.956   8.198  0.0286  0.1929  1.0587
  584MOL0     H78784   8.901   1.985   8.282  0.5641 -0.0133  0.2376
  584MOL0     H78785   8.901   2.213   8.160  0.9208  1.0872  0.7081
  584MOL0     H78786   8.991   2.118   8.031 -2.0774  2.3807 -1.0602
  584MOL0     H78787   8.763   2.140   7.979  0.0355  0.5684  0.9930
  584MOL0     H78788   8.814   1.976   8.001  0.6342  0.5905 -0.1679
  584MOL0     H78789   8.667   2.132   8.227  0.5608  1.9148 -2.5193
  584MOL0     H78790   8.685   1.955   8.205  0.3531 -0.9616 -0.7068
  584MOL0     H78791   8.427   2.113   8.248 -0.5327  1.8436 -0.1567
  584MOL0     H78792   8.165   1.983   8.135  3.3048 -1.1870 -0.5044
  584MOL0     H78793   8.180   2.167   8.163 -2.3027 -0.2189  0.7822
  584MOL0     H78794   8.112   2.057   7.887 -1.6739  1.2668 -0.8327
  584MOL0     H78795   8.095   2.219   7.940 -4.6745  0.6213 -0.7242
  584MOL0     H78796   7.918   2.121   8.132  1.1263  2.0692 -0.7441
  584MOL0     H78797   7.936   1.976   8.050  2.8927  0.2204  1.6395
  584MOL0     H78798   7.871   2.070   7.831  0.1563 -1.0655 -0.3008
  584MOL0     H78799   7.836   2.226   7.903  0.4852 -0.1111 -2.7503
  584MOL0     H78800   7.476   1.941   7.992  1.4929 -0.7307 -1.4065
  584MOL0     H78801   7.154   2.015   7.899 -0.2250 -2.3797  2.9041
  584MOL0     H78802   7.225   1.872   7.809  2.0429 -1.6638  0.2113
  584MOL0     H78803   7.264   1.910   7.979  0.3577 -3.9227 -0.2181
  584MOL0     H78804   7.330   2.243   7.344  0.8339  2.1815  1.5047
  584MOL0     H78805   7.186   2.215   7.140  0.7638 -0.3640  0.3867
  584MOL0     H78806   6.787   2.145   7.196 -0.4668  0.8407  0.8871
  584MOL0     H78807   6.743   2.318   7.180  0.3308  0.8674 -1.7681
  584MOL0     H78808   6.806   2.137   6.940 -1.4860  0.8654  0.2777
  584MOL0     H78809   6.643   2.160   7.005 -0.9619 -1.3472 -3.0950
  584MOL0     H78810   6.834   2.385   6.905 -0.0060 -0.8114 -0.8748
  584MOL0     H78811   6.664   2.408   6.967  0.3552 -0.0745  0.5145
  584MOL0     H78812   6.782   2.286   6.719  1.8015 -0.0927  1.0409
  584MOL0     H78813   6.624   2.216   6.764 -1.0884  0.9857 -2.5740
  584MOL0     H78814   6.669   2.496   6.675  0.5369 -1.2488  0.3673
  584MOL0     H78815   6.521   2.447   6.755  0.3782 -1.8875  2.0336
  584MOL0     H78816   6.606   2.314   6.494  0.7428 -0.2702  0.3721
  584MOL0     H78817   6.475   2.264   6.598 -0.0167  0.5712  0.4021
  584MOL0     H78818   6.519   2.529   6.448 -1.8488  0.5052 -1.0907
  584MOL0     H78819   6.415   2.526   6.594  2.1835 -0.4341  0.9658
  584MOL0     H78820   6.279   2.505   6.391  2.0532  2.6688  1.4361
  584MOL0     H78821   6.271   2.359   6.486  1.3984  0.6263  0.8912
  584MOL0     H78822   6.852   2.349   7.360  0.2168 -0.8429  1.2831
  584MOL0     H78823   6.987   2.334   7.579 -0.0471  0.3654 -0.0645
  584MOL0     H78824   7.491   2.258   7.620 -0.5457  2.8377  3.4346
  584MOL0     H78825   7.704   2.218   7.741  1.1401 -2.1457 -1.6784
  584MOL0     H78826   9.721   1.772   8.323  0.1294  0.3679  0.5089
  584MOL0     H78827   9.836   1.569   8.406  2.0608  1.3156  1.9335
  584MOL0     H78828   9.895   1.261   8.695  1.5122 -0.6353  1.1066
  584MOL0     H78829  10.016   1.056   8.774 -1.7761 -1.1117  0.1839
  584MOL0     H78830  10.009   0.672   8.524  1.1495 -1.4372 -1.4435
  584MOL0     H78831  10.129   0.773   8.454 -2.5442  3.6803  0.0755
  584MOL0     H78832  10.209   0.540   8.534  0.3677 -2.7346  3.1897
  584MOL0     H78833  10.135   0.568   8.683 -0.3551 -4.9462 -2.4652
  584MOL0     H78834  10.291   0.768   8.715  3.2985 -0.1261  0.7228
  584MOL0     H78835  10.380   0.722   8.573 -0.1243  1.1267  0.6533
  584MOL0     H78836  10.359   0.579   8.841  0.1449  1.0749  0.3890
  584MOL0     H78837  10.508   0.636   8.749 -0.9078  2.4245 -0.3067
  584MOL0     H78838  10.449   0.276   8.541  0.2748 -0.5994  1.3950
  584MOL0     H78839   9.920   0.854   8.405  0.0927  1.2847 -1.8387
  584MOL0     H78840   9.804   1.039   8.334 -0.4082  0.7220 -0.3225
  585MOL0     O78841  10.606  10.497   4.036 -0.0497  0.6223  0.2967
  585MOL0     C78842  10.651  10.604   4.068  0.9636 -0.2966 -0.3102
  585MOL0     O78843  10.615  10.676   4.180 -0.5393 -0.6945 -0.1639
  585MOL0     C78844  10.531  10.616   4.252  0.7842  0.0543 -0.0728
  585MOL0     C78845  10.399  10.658   4.230 -0.2434 -0.1416  0.6106
  585MOL0     C78846  10.292  10.600   4.299  0.1896 -0.4414  0.1784
  585MOL0     C78847  10.311  10.516   4.405 -0.0895 -0.0492  0.1080
  585MOL0     O78848  10.220  10.457   4.483 -0.6199 -0.0880 -0.9961
  585MOL0     C78849  10.088  10.504   4.471 -0.5431  0.6480  1.0530
  585MOL0     C78850  10.002  10.424   4.569  0.1195 -0.5924  0.8236
  585MOL0     C78851  10.022  10.272   4.580  0.3854  0.8944  0.1943
  585MOL0     C78852   9.899  10.214   4.655 -0.5036 -0.0700 -1.2241
  585MOL0     C78853   9.910  10.060   4.671  0.2318  0.5311 -0.6693
  585MOL0     C78854   9.963  10.024   4.808 -0.0649 -0.3152  0.3465
  585MOL0     C78855   9.929   9.880   4.848 -0.7682 -1.3791 -0.3658
  585MOL0     C78856   9.784   9.865   4.902 -0.2123  0.8322 -0.1990
  585MOL0     N78857   9.741   9.947   5.017  0.2353 -0.1237 -0.8878
  585MOL0     C78858   9.634  10.042   5.023 -0.0801  0.2147  0.0584
  585MOL0     C78859   9.608  10.080   5.149 -0.0749 -0.0585  0.2323
  585MOL0     C78860   9.505  10.186   5.192 -0.4260 -0.7399 -0.5275
  585MOL0     C78861   9.458  10.154   5.337  0.4906  0.0801 -0.9899
  585MOL0     C78862   9.342  10.238   5.397  0.0337  1.5400 -0.2707
  585MOL0     C78863   9.385  10.381   5.428 -0.7651 -0.2529 -0.6516
  585MOL0     O78864   9.279  10.474   5.400  0.5440  0.6178  0.1160
  585MOL0     C78865   9.166  10.469   5.485 -1.1310  0.4652  0.0081
  585MOL0     C78866   9.069  10.565   5.441  0.5236  0.3536 -0.8592
  585MOL0     C78867   8.955  10.596   5.512 -0.3282  0.3483 -0.1780
  585MOL0     C78868   8.876  10.714   5.468 -0.0130 -0.1547  0.1127
  585MOL0     C78869   8.918  10.512   5.621 -1.3218  0.7029 -0.4499
  585MOL0     C78870   8.802  10.531   5.706  0.0941  0.7880 -1.0009
  585MOL0     O78871   8.681  10.561   5.653  0.0686  0.3166  0.1260
  585MOL0     C78872   8.580  10.626   5.721 -0.3531 -0.3089  0.0060
  585MOL0     C78873   8.525  10.586   5.842 -0.6865  0.2975  0.0351
  585MOL0     C78874   8.425  10.666   5.906  0.3718  0.1440 -0.4430
  585MOL0     C78875   8.382  10.782   5.853  0.2661  0.2560 -0.3179
  585MOL0     O78876   8.282  10.860   5.901 -0.1957  0.2217  0.4780
  585MOL0     C78877   8.285  10.903   6.039 -0.4652  1.0439 -0.3993
  585MOL0     C78878   8.177  10.820   6.113 -0.7470  0.4598  0.0678
  585MOL0     C78879   8.222  10.792   6.259 -0.8645 -0.9449 -0.4945
  585MOL0     C78880   8.239  10.914   6.344 -0.6684 -1.1320  0.1075
  585MOL0     C78881   8.300  10.872   6.489 -0.0137  0.2764  0.4187
  585MOL0     C78882   8.184  10.845   6.584 -0.6014 -0.3671  0.8558
  585MOL0     C78883   8.239  10.809   6.727  0.0298 -0.1184  0.3074
  585MOL0     C78884   8.134  10.769   6.834 -1.0151  0.4433  0.4322
  585MOL0    Cl78885   8.215  10.773   6.995 -0.5373 -0.0021  0.6054
  585MOL0     C78886   8.446  10.823   5.738 -0.1094  1.1700  1.1553
  585MOL0     C78887   8.538  10.747   5.664  0.1195 -0.1014  1.1848
  585MOL0     O78888   8.815  10.493   5.827  0.0235  0.2386  0.2469
  585MOL0     C78889   9.014  10.409   5.665 -0.7089 -0.2853 -0.1248
  585MOL0     C78890   9.142  10.395   5.598 -0.2423 -0.7136 -0.1983
  585MOL0     N78891   9.698  10.010   5.225  0.0473  0.0886  0.1878
  585MOL0     N78892   9.776   9.938   5.150 -0.5245  0.9246 -0.2664
  585MOL0     C78893  10.445  10.486   4.435 -0.4067  0.1408  1.1552
  585MOL0     C78894  10.553  10.533   4.360  0.5415  0.0536  0.0181
  585MOL0     C78895  10.757  10.659   3.986  0.5137  0.9455 -0.1568
  585MOL0     C78896  10.780  10.601   3.857  1.0159  0.1653 -0.3317
  585MOL0     C78897  10.878  10.652   3.766 -0.2414 -0.3556  0.1629
  585MOL0     C78898  10.960  10.760   3.810  0.0980  0.1196  0.5766
  585MOL0     O78899  11.053  10.811   3.716  0.6416 -0.0843  0.4814
  585MOL0     C78900  11.177  10.873   3.764 -0.0387 -0.2132 -0.3910
  585MOL0     C78901  11.243  10.924   3.635 -0.3933 -0.2972 -0.3752
  585MOL0     C78902  11.387  10.970   3.666 -0.7528  0.3000  1.2411
  585MOL0     C78903  11.490  10.857   3.709 -0.0385  0.3452 -0.3824
  585MOL0     C78904  11.625  10.915   3.735 -0.3153  0.2964  0.6631
  585MOL0     C78905  11.724  10.968   3.749  0.4126 -0.0078 -0.4705
  585MOL0     C78906  10.932  10.820   3.929 -0.4436 -0.8700  1.0605
  585MOL0     C78907  10.836  10.770   4.022  0.5459  0.7027  0.2898
  585MOL0     H78908  10.383  10.721   4.143  1.2114  0.5229  0.8026
  585MOL0     H78909  10.190  10.622   4.270 -0.2172 -2.8950 -0.5141
  585MOL0     H78910  10.082  10.612   4.483 -0.0333  1.0455 -1.5396
  585MOL0     H78911  10.045  10.474   4.375 -1.2644  2.1961  0.8635
  585MOL0     H78912  10.027  10.455   4.671 -1.8292  1.0209  0.8668
  585MOL0     H78913   9.899  10.458   4.556  1.6943  4.1787 -1.5600
  585MOL0     H78914  10.023  10.234   4.477 -0.2235  1.5113 -0.0431
  585MOL0     H78915  10.112  10.242   4.634  0.4769 -0.2167 -0.5193
  585MOL0     H78916   9.894  10.268   4.751  0.2483  0.9253 -1.7252
  585MOL0     H78917   9.805  10.233   4.603 -0.0718 -1.2062 -2.4792
  585MOL0     H78918   9.812  10.012   4.670  0.5589 -0.1956  0.4791
  585MOL0     H78919   9.971  10.016   4.591  1.4591  2.8623 -1.1000
  585MOL0     H78920  10.069  10.049   4.813 -0.2863  1.8689 -2.9898
  585MOL0     H78921   9.914  10.083   4.886 -0.1916 -0.9976  0.7971
  585MOL0     H78922   9.956   9.806   4.772  2.4727 -1.6892  0.9242
  585MOL0     H78923   9.999   9.857   4.929 -0.9220  4.5845  1.9935
  585MOL0     H78924   9.774   9.759   4.925 -2.7196  0.2095 -3.4450
  585MOL0     H78925   9.713   9.873   4.819 -0.1001  1.8508 -0.2110
  585MOL0     H78926   9.585  10.088   4.938  0.8712 -0.2056 -0.7335
  585MOL0     H78927   9.545  10.287   5.177 -0.9194 -0.2664  1.1703
  585MOL0     H78928   9.419  10.174   5.125 -0.0847 -1.3514 -0.8728
  585MOL0     H78929   9.546  10.170   5.401 -0.3670  0.1123  0.2184
  585MOL0     H78930   9.421  10.051   5.330 -0.1563  0.3674 -1.9052
  585MOL0     H78931   9.322  10.176   5.485  1.1408 -1.4586 -1.9512
  585MOL0     H78932   9.253  10.233   5.334 -0.4417  2.0120  0.3509
  585MOL0     H78933   9.463  10.410   5.357  0.4151  1.4159  1.2106
  585MOL0     H78934   9.427  10.391   5.529  2.1955  1.0483 -1.8999
  585MOL0     H78935   9.103  10.628   5.360  3.3940 -0.2896 -0.2363
  585MOL0     H78936   8.914  10.746   5.370  2.6894 -2.0671  0.4227
  585MOL0     H78937   8.768  10.696   5.459 -0.0443 -0.9427  1.7468
  585MOL0     H78938   8.884  10.791   5.545 -3.2348  1.2255 -0.7661
  585MOL0     H78939   8.557  10.489   5.880 -1.7450  0.0272  0.2867
  585MOL0     H78940   8.370  10.631   5.992  1.0758  0.0624 -0.0196
  585MOL0     H78941   8.381  10.902   6.091 -0.5991  0.4748 -0.1560
  585MOL0     H78942   8.263  11.009   6.026  0.6530  1.2694 -0.5233
  585MOL0     H78943   8.090  10.887   6.103 -1.5738 -0.4338  1.1185
  585MOL0     H78944   8.149  10.734   6.052 -0.7303  0.6309 -0.1841
  585MOL0     H78945   8.307  10.723   6.256 -1.9842 -2.4437  0.8607
  585MOL0     H78946   8.144  10.729   6.301 -2.3436  0.4999 -0.9783
  585MOL0     H78947   8.314  10.969   6.286 -3.4093  1.1950 -1.4924
  585MOL0     H78948   8.147  10.973   6.340  1.4400  2.4034 -0.6136
  585MOL0     H78949   8.375  10.947   6.515 -0.4159  0.7344  0.2548
  585MOL0     H78950   8.352  10.775   6.491  0.3262  0.4454  3.3507
  585MOL0     H78951   8.114  10.929   6.579 -1.0501 -0.7921 -0.2849
  585MOL0     H78952   8.139  10.755   6.542  2.9810 -1.0375 -1.9940
  585MOL0     H78953   8.292  10.898   6.761  1.4202 -1.1011  0.7898
  585MOL0     H78954   8.304  10.724   6.706  2.2811  1.1138  1.8822
  585MOL0     H78955   8.099  10.667   6.815 -2.8841  1.0981  0.0935
  585MOL0     H78956   8.051  10.840   6.831  0.3014  2.0309 -0.0772
  585MOL0     H78957   8.429  10.925   5.704  0.1638 -0.1562 -3.7286
  585MOL0     H78958   8.584  10.769   5.568  1.3695  0.4438  1.8812
  585MOL0     H78959   8.988  10.350   5.753 -0.3384 -0.6663 -0.2676
  585MOL0     H78960   9.212  10.331   5.650 -1.9034 -1.8988  0.6901
  585MOL0     H78961  10.463  10.407   4.507  2.2604 -0.7641 -0.3635
  585MOL0     H78962  10.656  10.501   4.373  1.9596  2.5251 -3.5055
  585MOL0     H78963  10.728  10.510   3.831 -0.4351  1.2708 -1.5057
  585MOL0     H78964  10.907  10.612   3.670  3.3997  1.4405  0.3673
  585MOL0     H78965  11.156  10.951   3.837 -1.1872 -2.4670  1.8524
  585MOL0     H78966  11.229  10.794   3.819  0.8323 -0.9408 -2.1695
  585MOL0     H78967  11.184  11.006   3.594 -1.5338  0.1516  1.9821
  585MOL0     H78968  11.246  10.837   3.569  4.6537 -3.1278  2.9370
  585MOL0     H78969  11.398  11.056   3.732  0.8106  2.6883 -1.8631
  585MOL0     H78970  11.432  11.000   3.571  2.9983  0.3757  2.8915
  585MOL0     H78971  11.507  10.789   3.625 -1.6970 -1.8342  0.9449
  585MOL0     H78972  11.455  10.797   3.793  2.5820 -0.5685  0.1611
  585MOL0     H78973  11.823  11.004   3.772  1.5627 -3.4942  0.7433
  585MOL0     H78974  10.986  10.906   3.967  1.4052 -1.9029  0.8987
  585MOL0     H78975  10.811  10.813   4.119 -2.5985  0.8813 -0.5020
  586MOL0     O78976   4.573   7.611   6.493 -0.1957 -1.1236 -1.0436
  586MOL0     C78977   4.682   7.633   6.443 -0.6113 -0.0134 -0.3487
  586MOL0     O78978   4.702   7.667   6.315  0.2971 -0.0189 -0.3052
  586MOL0     C78979   4.595   7.684   6.231  0.3963 -1.2014  0.4133
  586MOL0     C78980   4.596   7.794   6.142  0.1478  0.2350  0.1709
  586MOL0     C78981   4.502   7.816   6.047  0.2723  0.1889 -0.5141
  586MOL0     C78982   4.399   7.726   6.029  0.4204  0.4791 -0.2061
  586MOL0     O78983   4.305   7.756   5.927 -0.2564  0.1949  0.3314
  586MOL0     C78984   4.307   7.653   5.825  0.1554 -0.5226 -0.1607
  586MOL0     C78985   4.167   7.648   5.758 -1.1673 -0.2965  0.5397
  586MOL0     C78986   4.163   7.507   5.697 -1.0301 -0.2244  0.2534
  586MOL0     C78987   4.046   7.472   5.607  0.7970  0.4216  0.0863
  586MOL0     C78988   3.913   7.507   5.676  0.1221  0.3834 -0.5558
  586MOL0     C78989   3.796   7.468   5.584 -0.1088  0.6367 -0.9307
  586MOL0     C78990   3.667   7.513   5.648 -0.4204 -0.2741 -0.0969
  586MOL0     C78991   3.553   7.476   5.549  0.3628 -0.2743 -0.7443
  586MOL0     N78992   3.413   7.507   5.596 -0.2942  0.1758 -0.0374
  586MOL0     C78993   3.315   7.412   5.627  0.4214  0.1546  0.3020
  586MOL0     C78994   3.216   7.490   5.669  0.0067 -0.1903  0.6892
  586MOL0     C78995   3.086   7.443   5.722  0.3566  0.3675  0.4601
  586MOL0     C78996   2.977   7.538   5.686  0.2563 -0.6999  0.0665
  586MOL0     C78997   2.840   7.474   5.665 -0.3018 -0.3820 -0.2815
  586MOL0     C78998   2.728   7.566   5.652  0.4968 -0.0678 -0.7824
  586MOL0     O78999   2.711   7.649   5.778  0.2900 -0.1789  0.4574
  586MOL0     C79000   2.599   7.720   5.811 -0.4141 -0.0934 -0.2111
  586MOL0     C79001   2.476   7.700   5.762  0.3973  1.4284  0.3168
  586MOL0     C79002   2.361   7.777   5.795  0.5892 -0.1008 -0.0871
  586MOL0     C79003   2.227   7.740   5.734  0.0980  0.2708 -0.3664
  586MOL0     C79004   2.378   7.883   5.883  0.3204 -0.2203 -0.6688
  586MOL0     C79005   2.273   7.994   5.912  0.3913  0.8225 -0.1697
  586MOL0     O79006   2.143   7.970   5.876 -0.1860  0.3238 -0.0210
  586MOL0     C79007   2.038   8.057   5.898  1.0766 -0.3273  0.3679
  586MOL0     C79008   1.926   8.073   5.814 -0.1539 -0.8571  0.1547
  586MOL0     C79009   1.821   8.175   5.836 -0.2671  0.1740 -0.1511
  586MOL0     C79010   1.833   8.264   5.943  0.3652 -0.5562 -0.7104
  586MOL0     O79011   1.725   8.352   5.953 -0.0987 -0.1136 -1.2786
  586MOL0     C79012   1.752   8.492   5.984 -0.1928  0.8436 -0.5056
  586MOL0     C79013   1.626   8.566   5.944  0.4296 -0.0655 -0.5729
  586MOL0     C79014   1.621   8.609   5.799  0.0607  0.3740  0.2615
  586MOL0     C79015   1.576   8.498   5.704  0.2848  1.0466  0.2137
  586MOL0     C79016   1.557   8.541   5.552 -0.6351  0.2804 -0.6461
  586MOL0     C79017   1.562   8.413   5.462  0.2400 -0.1594  0.2759
  586MOL0     C79018   1.482   8.445   5.331 -0.1495 -0.9360  0.3853
  586MOL0     C79019   1.535   8.367   5.207 -0.1527  0.1367  0.0841
  586MOL0    Cl79020   1.410   8.369   5.086 -0.6059  0.2222 -0.2787
  586MOL0     C79021   1.936   8.243   6.036 -0.6657  0.2550  0.4989
  586MOL0     C79022   2.030   8.144   6.009  0.0682  0.0981 -0.4421
  586MOL0     O79023   2.309   8.090   5.966 -0.2378 -0.0142 -0.1206
  586MOL0     C79024   2.509   7.904   5.933 -0.0702 -0.4277  0.4730
  586MOL0     C79025   2.612   7.820   5.905  0.0033 -0.2843 -0.2574
  586MOL0     N79026   3.259   7.621   5.664 -0.4319 -0.0744 -0.5207
  586MOL0     N79027   3.383   7.631   5.633 -0.2501 -0.9113 -0.0984
  586MOL0     C79028   4.396   7.611   6.113  1.2397 -0.5662  0.2095
  586MOL0     C79029   4.490   7.593   6.210 -1.1202  0.7506  0.6380
  586MOL0     C79030   4.803   7.624   6.541  0.9732  0.2151 -0.2931
  586MOL0     C79031   4.797   7.561   6.669 -0.9007 -0.2265  0.2134
  586MOL0     C79032   4.912   7.558   6.745 -0.4056  0.4168 -0.0257
  586MOL0     C79033   5.027   7.634   6.721  0.6260 -0.1312 -0.0240
  586MOL0     O79034   5.128   7.643   6.811  0.5265 -0.3989  0.7867
  586MOL0     C79035   5.115   7.585   6.935 -0.5922  0.1831  0.3213
  586MOL0     C79036   5.239   7.619   7.011 -0.4745  0.1652 -0.3186
  586MOL0     C79037   5.225   7.543   7.141 -0.8570 -0.0365 -0.2207
  586MOL0     C79038   5.354   7.455   7.165  0.7825  1.1906  0.0925
  586MOL0     C79039   5.459   7.536   7.215  0.0048 -0.0084  0.1606
  586MOL0     C79040   5.528   7.622   7.256 -0.5853 -0.7040 -1.0183
  586MOL0     C79041   5.035   7.700   6.596 -0.0132 -0.0072  0.7152
  586MOL0     C79042   4.927   7.696   6.510  0.4968  0.2272 -0.0391
  586MOL0     H79043   4.670   7.873   6.148  1.9204 -1.4379  1.7976
  586MOL0     H79044   4.517   7.904   5.986  2.0582  1.4591  1.6105
  586MOL0     H79045   4.376   7.688   5.748 -2.0967  3.2757 -0.7158
  586MOL0     H79046   4.347   7.561   5.867  1.9646  1.1228  1.9723
  586MOL0     H79047   4.096   7.667   5.839 -0.0853 -0.4263  1.5532
  586MOL0     H79048   4.146   7.728   5.687  4.7853  2.6954  1.4471
  586MOL0     H79049   4.256   7.483   5.644 -0.1273  1.7578  0.8213
  586MOL0     H79050   4.153   7.448   5.789 -0.7878 -0.5779  0.0553
  586MOL0     H79051   4.070   7.519   5.511  3.2441 -0.6166  0.1276
  586MOL0     H79052   4.057   7.364   5.594 -0.3533 -0.1213  2.9706
  586MOL0     H79053   3.892   7.446   5.764 -0.3593 -0.2465 -1.0986
  586MOL0     H79054   3.924   7.612   5.705  2.0469  0.1305 -0.2176
  586MOL0     H79055   3.801   7.500   5.480  1.4058 -0.7049 -1.3173
  586MOL0     H79056   3.805   7.359   5.585  2.7197  0.8059 -0.9465
  586MOL0     H79057   3.657   7.469   5.748  1.4587  2.1180  1.2644
  586MOL0     H79058   3.666   7.621   5.663 -3.4540 -0.3213  0.7718
  586MOL0     H79059   3.562   7.376   5.507  0.8382 -0.1138 -1.0451
  586MOL0     H79060   3.570   7.542   5.463 -3.3742 -0.0134 -1.4417
  586MOL0     H79061   3.304   7.305   5.617 -0.3947  0.3637 -1.6033
  586MOL0     H79062   3.059   7.346   5.681  0.0530  1.0325 -0.9986
  586MOL0     H79063   3.098   7.432   5.830  1.8383  0.3463  0.3255
  586MOL0     H79064   2.991   7.597   5.595  0.6119  0.6420  0.9583
  586MOL0     H79065   2.971   7.608   5.770 -0.1256  1.8634 -1.9829
  586MOL0     H79066   2.819   7.415   5.755  0.3259  2.1810  1.6509
  586MOL0     H79067   2.852   7.411   5.576  0.8953  1.6726 -1.6471
  586MOL0     H79068   2.636   7.507   5.654 -0.1225  0.8848  1.0881
  586MOL0     H79069   2.741   7.634   5.568 -0.4020 -0.9483 -1.6573
  586MOL0     H79070   2.462   7.616   5.694 -1.0203 -0.1499  2.4406
  586MOL0     H79071   2.244   7.675   5.648  0.0695  1.8650 -1.6011
  586MOL0     H79072   2.176   7.674   5.805 -0.5248  0.6895 -0.4251
  586MOL0     H79073   2.154   7.816   5.708  1.6051  1.3905 -1.4840
  586MOL0     H79074   1.912   8.000   5.735  1.8352 -0.8778 -0.2296
  586MOL0     H79075   1.735   8.188   5.771 -0.2744  0.7627 -0.0259
  586MOL0     H79076   1.773   8.493   6.092 -1.7401 -0.3505 -0.1497
  586MOL0     H79077   1.840   8.532   5.932 -1.3233  0.8698 -2.5018
  586MOL0     H79078   1.535   8.513   5.973  1.4321 -0.4998  2.0717
  586MOL0     H79079   1.612   8.655   6.007 -1.4856  0.0385 -1.0753
  586MOL0     H79080   1.715   8.650   5.759 -1.4564  1.8670 -2.1067
  586MOL0     H79081   1.541   8.684   5.791  0.9827  1.5278  1.4350
  586MOL0     H79082   1.657   8.425   5.699  2.2775  3.1718 -0.2563
  586MOL0     H79083   1.483   8.457   5.744 -0.1281  3.3853  1.8305
  586MOL0     H79084   1.645   8.599   5.524  1.3877 -2.9806 -1.6485
  586MOL0     H79085   1.467   8.603   5.547 -1.6406 -0.8535  1.8470
  586MOL0     H79086   1.667   8.391   5.441  0.2116 -1.7869  1.6778
  586MOL0     H79087   1.519   8.321   5.500  1.2461 -1.3063 -1.2373
  586MOL0     H79088   1.487   8.549   5.297  1.8578 -1.8747 -2.6523
  586MOL0     H79089   1.380   8.408   5.344 -0.7353  0.0458 -1.2290
  586MOL0     H79090   1.560   8.262   5.226 -0.8814  0.1483  1.2246
  586MOL0     H79091   1.630   8.413   5.178 -0.7010  1.1207 -0.1887
  586MOL0     H79092   1.934   8.312   6.120 -1.8245  2.6167 -1.3336
  586MOL0     H79093   2.110   8.146   6.082  0.4739  2.6673 -0.8910
  586MOL0     H79094   2.523   7.989   6.000 -0.0373 -0.4676  0.5172
  586MOL0     H79095   2.711   7.844   5.942  0.4504  0.0229 -1.5726
  586MOL0     H79096   4.307   7.550   6.104 -0.1002  1.2968  0.2106
  586MOL0     H79097   4.475   7.504   6.271  3.1652 -0.3854  0.3492
  586MOL0     H79098   4.705   7.509   6.694 -2.3940  1.2088 -1.8595
  586MOL0     H79099   4.913   7.488   6.828  1.8292  1.6661  1.0878
  586MOL0     H79100   5.028   7.624   6.989  0.3355  1.8361  0.6934
  586MOL0     H79101   5.097   7.477   6.927 -0.6853  0.3177 -2.4818
  586MOL0     H79102   5.253   7.725   7.035  1.9061  0.4425 -2.5506
  586MOL0     H79103   5.328   7.590   6.954  0.8569 -0.1238  1.7845
  586MOL0     H79104   5.142   7.471   7.142  2.3377 -4.0991  1.7631
  586MOL0     H79105   5.203   7.610   7.224  1.6755  0.2083  0.3378
  586MOL0     H79106   5.390   7.396   7.080 -1.7525 -0.8882  0.3410
  586MOL0     H79107   5.333   7.379   7.241  2.1475  1.8437  1.1838
  586MOL0     H79108   5.605   7.696   7.265 -1.5715  0.1316  1.1676
  586MOL0     H79109   5.131   7.748   6.578 -0.8508  1.2405 -0.6685
  586MOL0     H79110   4.926   7.749   6.415  0.7199 -1.8066 -1.2272
  587MOL0     O79111   0.642   3.997   9.001  0.0114  0.0043 -0.1391
  587MOL0     C79112   0.730   4.027   9.083  0.0234  0.8700  0.5475
  587MOL0     O79113   0.742   4.146   9.150  0.6560  0.0872 -0.1358
  587MOL0     C79114   0.637   4.226   9.124  0.0000  0.3880 -0.0317
  587MOL0     C79115   0.639   4.319   9.022  1.2371 -0.1951 -0.0129
  587MOL0     C79116   0.523   4.395   8.998  0.0946 -0.8557  0.8622
  587MOL0     C79117   0.402   4.366   9.059 -1.3634 -0.1213 -0.0381
  587MOL0     O79118   0.291   4.446   9.020 -0.9545 -0.1928  0.3625
  587MOL0     C79119   0.176   4.423   9.098 -1.1126  0.3144 -0.1299
  587MOL0     C79120   0.064   4.517   9.044  0.4697 -0.4832  0.6658
  587MOL0     C79121  -0.071   4.505   9.118  0.3687  0.9864  0.4985
  587MOL0     C79122  -0.063   4.518   9.269  0.1458 -0.0463 -0.4969
  587MOL0     C79123  -0.197   4.518   9.348  1.0154 -0.4470 -0.1653
  587MOL0     C79124  -0.281   4.393   9.317  0.0241  0.5008 -0.6039
  587MOL0     C79125  -0.203   4.258   9.334 -0.2289 -0.7139  0.6827
  587MOL0     C79126  -0.299   4.144   9.330  0.4500  0.1094 -1.5196
  587MOL0     N79127  -0.398   4.154   9.222 -0.0142 -0.6466  0.7334
  587MOL0     C79128  -0.535   4.184   9.231  0.3013 -0.5875  0.8270
  587MOL0     C79129  -0.573   4.215   9.107  0.5774  0.2192  0.6970
  587MOL0     C79130  -0.716   4.244   9.071 -0.3035  0.2083 -0.4370
  587MOL0     C79131  -0.772   4.378   9.128 -0.2895  0.6669 -0.1059
  587MOL0     C79132  -0.919   4.376   9.114  0.2026  0.3162 -0.3458
  587MOL0     C79133  -0.979   4.518   9.146  0.7447 -0.2282  0.0718
  587MOL0     O79134  -1.118   4.494   9.161  0.3842 -0.2001 -0.4247
  587MOL0     C79135  -1.179   4.490   9.280  0.0533  0.3389  0.1346
  587MOL0     C79136  -1.311   4.516   9.280  0.2349  0.2822  0.1275
  587MOL0     C79137  -1.387   4.506   9.398 -0.4319 -0.1044  1.0984
  587MOL0     C79138  -1.531   4.515   9.381 -0.3255  0.4865 -0.1107
  587MOL0     C79139  -1.318   4.473   9.515  0.7426  1.2347 -0.3274
  587MOL0     C79140  -1.401   4.442   9.632 -0.7929  0.2002  0.7957
  587MOL0     O79141  -1.356   4.322   9.685  0.1220 -0.5342 -0.2357
  587MOL0     C79142  -1.415   4.282   9.804  1.3003 -0.6939  0.5882
  587MOL0     C79143  -1.478   4.158   9.827 -1.1309  0.3695  0.0040
  587MOL0     C79144  -1.533   4.132   9.946 -0.6483  0.2987  0.7135
  587MOL0     C79145  -1.523   4.225  10.051  0.7853  0.3788  0.9087
  587MOL0     O79146  -1.583   4.211  10.174  0.6267 -0.7673 -0.7643
  587MOL0     C79147  -1.658   4.093  10.211  0.1744 -0.0488  0.3225
  587MOL0     C79148  -1.690   4.094  10.362  0.0995 -0.3853  0.0213
  587MOL0     C79149  -1.774   3.985  10.418 -0.2177  0.1087 -0.0309
  587MOL0     C79150  -1.808   4.010  10.569  0.5629  0.4092 -0.0326
  587MOL0     C79151  -1.879   3.890  10.627 -0.0797  0.4109  0.6826
  587MOL0     C79152  -2.028   3.884  10.589 -0.2791 -0.7489  0.3259
  587MOL0     C79153  -2.110   3.987  10.662 -0.1459  0.5538 -0.4484
  587MOL0     C79154  -2.258   3.943  10.669 -0.2643  0.3451  0.6126
  587MOL0    Cl79155  -2.340   3.868  10.518 -0.8196  0.4340 -0.0833
  587MOL0     C79156  -1.464   4.343  10.037 -0.3866 -0.7506 -0.3729
  587MOL0     C79157  -1.402   4.374   9.919 -0.3144  0.7340  0.7154
  587MOL0     O79158  -1.487   4.515   9.674 -0.3615  0.2368  0.2703
  587MOL0     C79159  -1.184   4.460   9.519  0.0109 -0.1591  0.5374
  587MOL0     C79160  -1.105   4.467   9.401  0.5168 -0.6168 -0.2820
  587MOL0     N79161  -0.467   4.206   9.017  0.2585 -0.3575  0.4233
  587MOL0     N79162  -0.365   4.168   9.089 -0.0106 -0.3500  0.7217
  587MOL0     C79163   0.405   4.267   9.165  0.3887 -0.9645 -0.3352
  587MOL0     C79164   0.522   4.203   9.198 -0.1290 -0.0959  1.1282
  587MOL0     C79165   0.825   3.922   9.126  0.1212 -0.6701 -0.4349
  587MOL0     C79166   0.834   3.805   9.055  0.9067 -0.2708  0.6618
  587MOL0     C79167   0.923   3.698   9.084  0.2626 -0.9637 -0.4503
  587MOL0     C79168   0.997   3.705   9.201 -0.2862  0.0919  0.6788
  587MOL0     O79169   1.073   3.609   9.250 -0.3767  0.1867 -0.3994
  587MOL0     C79170   1.092   3.492   9.165 -0.9234  0.2223  0.1610
  587MOL0     C79171   1.182   3.394   9.230  0.0170  0.4488 -0.0461
  587MOL0     C79172   1.126   3.363   9.373 -0.3378  0.3559  0.2568
  587MOL0     C79173   1.227   3.267   9.438  0.3543  0.4524  0.3656
  587MOL0     C79174   1.170   3.171   9.532 -0.0397  0.2301 -0.4036
  587MOL0     C79175   1.143   3.088   9.611  0.1945  0.0177 -0.0295
  587MOL0     C79176   0.991   3.825   9.277 -0.1935 -0.9545  0.1261
  587MOL0     C79177   0.895   3.924   9.246 -0.4183 -0.9079  1.1555
  587MOL0     H79178   0.732   4.337   8.970  1.0068  0.3218 -0.2547
  587MOL0     H79179   0.520   4.465   8.914  0.2193 -0.0553  1.5101
  587MOL0     H79180   0.143   4.318   9.101  1.2840 -0.4718  1.1206
  587MOL0     H79181   0.205   4.445   9.201 -0.5607  2.9952 -0.7967
  587MOL0     H79182   0.097   4.621   9.057  1.2141 -0.5051 -0.8579
  587MOL0     H79183   0.041   4.510   8.938  2.5378 -0.1940  0.1604
  587MOL0     H79184  -0.137   4.580   9.075 -1.4245 -0.5433  0.4542
  587MOL0     H79185  -0.119   4.411   9.089  0.9562  1.3866 -1.9516
  587MOL0     H79186  -0.005   4.437   9.315 -0.9434  0.9724  2.9209
  587MOL0     H79187  -0.000   4.604   9.294 -1.8526  1.8235 -1.5843
  587MOL0     H79188  -0.172   4.516   9.454 -0.1253  1.3850  0.1748
  587MOL0     H79189  -0.260   4.606   9.332  1.6061 -0.1912 -1.2301
  587MOL0     H79190  -0.365   4.397   9.386  1.4853 -3.0927  1.6851
  587MOL0     H79191  -0.317   4.402   9.214 -2.0798 -0.2705  0.0208
  587MOL0     H79192  -0.133   4.247   9.251 -2.8256 -1.8706 -1.5117
  587MOL0     H79193  -0.160   4.249   9.435 -0.6214 -1.6129  0.7738
  587MOL0     H79194  -0.342   4.145   9.431 -1.8452  0.5478 -2.4406
  587MOL0     H79195  -0.242   4.051   9.321 -0.5816 -0.7103 -0.0616
  587MOL0     H79196  -0.600   4.181   9.317  0.6577 -1.3409  1.0795
  587MOL0     H79197  -0.725   4.234   8.962  1.2251 -0.3758 -0.5225
  587MOL0     H79198  -0.776   4.164   9.115 -1.3582  1.8298  1.2120
  587MOL0     H79199  -0.732   4.467   9.079 -3.0059  2.4930  0.7593
  587MOL0     H79200  -0.741   4.382   9.233  1.0652  5.4401 -0.4623
  587MOL0     H79201  -0.959   4.311   9.192 -2.0478 -2.4735 -3.5078
  587MOL0     H79202  -0.954   4.343   9.015 -0.3819  0.6592 -0.2598
  587MOL0     H79203  -0.959   4.603   9.080 -1.1364  3.4072  3.7627
  587MOL0     H79204  -0.938   4.563   9.236  0.5084  2.3988 -1.0427
  587MOL0     H79205  -1.354   4.538   9.183  1.2270 -0.7928 -0.5803
  587MOL0     H79206  -1.582   4.568   9.461 -2.3880 -0.0771 -0.9834
  587MOL0     H79207  -1.567   4.559   9.288 -3.2341 -1.0853  0.1386
  587MOL0     H79208  -1.572   4.414   9.388  2.6491 -0.7853  0.5323
  587MOL0     H79209  -1.483   4.076   9.756  1.9039  1.1045 -1.2146
  587MOL0     H79210  -1.597   4.045   9.958 -2.4278  1.6255  1.0837
  587MOL0     H79211  -1.750   4.077  10.154  0.2593  0.3805  0.0624
  587MOL0     H79212  -1.588   4.011  10.199  1.2316  0.9253 -0.3318
  587MOL0     H79213  -1.596   4.096  10.418 -1.0692 -0.9610  2.1294
  587MOL0     H79214  -1.746   4.185  10.385 -3.0947 -2.2885  0.3685
  587MOL0     H79215  -1.711   3.895  10.407 -0.4896 -0.1935  0.7950
  587MOL0     H79216  -1.862   3.967  10.356  0.5237 -3.4014 -0.2875
  587MOL0     H79217  -1.718   4.019  10.629  1.0737 -0.0929 -0.7075
  587MOL0     H79218  -1.870   4.099  10.582  0.3117  1.1816 -4.7550
  587MOL0     H79219  -1.857   3.882  10.734  0.8027  1.7595  0.6238
  587MOL0     H79220  -1.845   3.796  10.584 -0.8605 -0.3211  1.6007
  587MOL0     H79221  -2.058   3.894  10.484  0.8666  1.6177  0.1602
  587MOL0     H79222  -2.059   3.782  10.615 -0.9494 -1.5159 -3.0421
  587MOL0     H79223  -2.106   4.077  10.600 -1.8372  0.1990 -1.1455
  587MOL0     H79224  -2.070   4.009  10.761 -0.2009 -1.0950 -0.0311
  587MOL0     H79225  -2.329   4.026  10.678  0.3763  0.9962 -0.2879
  587MOL0     H79226  -2.274   3.872  10.751 -1.6541 -0.3335 -0.2095
  587MOL0     H79227  -1.470   4.407  10.125 -0.2228  0.3067 -1.1092
  587MOL0     H79228  -1.344   4.466   9.910 -0.4934  0.6431 -2.4552
  587MOL0     H79229  -1.142   4.426   9.613 -2.0405 -0.0295  1.5562
  587MOL0     H79230  -0.999   4.443   9.397  1.3989  2.8810 -2.8422
  587MOL0     H79231   0.314   4.227   9.209  0.4041 -2.9064 -1.9701
  587MOL0     H79232   0.531   4.115   9.260  1.5852 -2.0045 -1.6014
  587MOL0     H79233   0.767   3.789   8.971  0.9063  0.8087  0.4390
  587MOL0     H79234   0.925   3.609   9.022  0.2603 -1.2393 -0.0533
  587MOL0     H79235   1.000   3.443   9.131 -0.0817 -0.4390 -1.2798
  587MOL0     H79236   1.149   3.515   9.074 -1.4855  2.3851  0.2952
  587MOL0     H79237   1.278   3.445   9.237 -0.0836  0.7301 -0.6020
  587MOL0     H79238   1.181   3.311   9.159 -2.9264 -0.1987  0.6322
  587MOL0     H79239   1.025   3.323   9.382 -1.0850  2.2345  0.9419
  587MOL0     H79240   1.132   3.450   9.439  1.8017  0.0155  0.5931
  587MOL0     H79241   1.311   3.322   9.479 -0.0327  1.6697 -0.4085
  587MOL0     H79242   1.276   3.200   9.367 -2.5381 -2.5237  0.8840
  587MOL0     H79243   1.116   3.007   9.675 -4.3767  0.2241 -1.3444
  587MOL0     H79244   1.055   3.840   9.364 -0.6538 -2.2735  0.7123
  587MOL0     H79245   0.887   4.008   9.314  0.9171 -0.0904  0.3523
  588MOL0     O79246   5.836   4.219   9.763  0.5762  0.2453 -0.3702
  588MOL0     C79247   5.857   4.115   9.823 -0.2335 -0.0064 -0.1159
  588MOL0     O79248   5.763   4.017   9.824  0.2952 -0.1754 -0.0768
  588MOL0     C79249   5.627   4.034   9.789 -0.3729 -0.3857 -0.0877
  588MOL0     C79250   5.553   4.126   9.863  0.1460  0.2604  0.7163
  588MOL0     C79251   5.418   4.131   9.847  0.7106 -0.3143  0.3214
  588MOL0     C79252   5.349   4.061   9.744 -0.2328 -0.4975  0.3377
  588MOL0     O79253   5.207   4.073   9.739  0.6548 -0.2151  0.3488
  588MOL0     C79254   5.119   3.976   9.678 -0.3873  0.8066  0.8765
  588MOL0     C79255   5.118   3.846   9.754  0.6148 -0.5359  0.5164
  588MOL0     C79256   4.992   3.750   9.727  0.0226 -0.4748 -0.7825
  588MOL0     C79257   4.886   3.758   9.839 -0.1300  0.4257 -0.1838
  588MOL0     C79258   4.790   3.886   9.854 -0.1754  0.6627 -0.0156
  588MOL0     C79259   4.664   3.869   9.775 -0.0642  0.2590 -0.3651
  588MOL0     C79260   4.553   3.769   9.836 -0.0757 -0.6706  0.3720
  588MOL0     C79261   4.500   3.836   9.969  0.7791  0.4326  0.0336
  588MOL0     N79262   4.375   3.769  10.004  0.0282 -0.1799  0.0505
  588MOL0     C79263   4.355   3.636   9.971  0.9142 -0.8878 -0.2308
  588MOL0     C79264   4.227   3.626  10.015 -0.7871  0.0830  0.4021
  588MOL0     C79265   4.138   3.513  10.010  0.2714  0.2254 -0.2450
  588MOL0     C79266   4.002   3.545   9.953 -0.3919  0.8406  0.9572
  588MOL0     C79267   3.927   3.407   9.941  0.6323 -0.6665  0.2992
  588MOL0     C79268   3.787   3.434   9.898 -0.1372  0.2383 -0.3013
  588MOL0     O79269   3.741   3.307   9.842 -0.5330  0.8486 -0.1413
  588MOL0     C79270   3.603   3.287   9.839 -0.6396  0.3041  0.7682
  588MOL0     C79271   3.507   3.387   9.846  0.0242  0.3503 -0.6721
  588MOL0     C79272   3.372   3.361   9.848  0.2122 -0.4607  0.0811
  588MOL0     C79273   3.282   3.482   9.859  0.3456 -0.0921 -0.5418
  588MOL0     C79274   3.325   3.228   9.826  0.2125 -0.2205 -0.3858
  588MOL0     C79275   3.182   3.189   9.802  0.5021 -0.0035  1.1003
  588MOL0     O79276   3.086   3.259   9.857 -0.7787 -0.2368 -0.0390
  588MOL0     C79277   2.960   3.214   9.845  0.8374 -0.5622 -0.2356
  588MOL0     C79278   2.900   3.168   9.725 -0.0254  0.5316  0.8448
  588MOL0     C79279   2.768   3.127   9.735 -0.5392  0.1691  0.1527
  588MOL0     C79280   2.689   3.139   9.851  0.1256  0.5284 -0.0373
  588MOL0     O79281   2.567   3.080   9.864  0.5520 -0.3447 -0.5117
  588MOL0     C79282   2.489   3.069   9.746 -0.2030  0.0942  0.6127
  588MOL0     C79283   2.343   3.080   9.798 -0.5146 -0.2213  0.3523
  588MOL0     C79284   2.243   3.110   9.677 -1.0548  0.1334 -0.5202
  588MOL0     C79285   2.106   3.114   9.725 -0.0838  0.8112  0.4165
  588MOL0     C79286   2.005   3.128   9.613  0.4342 -0.2959  0.4266
  588MOL0     C79287   1.865   3.133   9.666  0.1114  0.0974 -0.8651
  588MOL0     C79288   1.752   3.156   9.566  0.6401 -0.4510  0.2330
  588MOL0     C79289   1.716   3.307   9.560  0.7940  0.0258 -0.2070
  588MOL0    Cl79290   1.651   3.376   9.706  0.2540  0.1808 -0.0282
  588MOL0     C79291   2.752   3.186   9.964  0.4805 -0.7782  0.2876
  588MOL0     C79292   2.884   3.228   9.958 -0.0477  0.1715 -0.1212
  588MOL0     O79293   3.165   3.084   9.743  0.2895 -0.3901  0.2028
  588MOL0     C79294   3.428   3.131   9.825  0.1005 -0.1188  0.7426
  588MOL0     C79295   3.567   3.154   9.832  0.1155 -0.0022 -0.6076
  588MOL0     N79296   4.181   3.741  10.077 -1.2654  0.2980 -0.3945
  588MOL0     N79297   4.275   3.830  10.063  0.6166 -0.0729  0.2448
  588MOL0     C79298   5.425   3.968   9.674  0.2326 -1.1719 -0.5977
  588MOL0     C79299   5.561   3.949   9.700 -0.5604  0.0267 -0.0671
  588MOL0     C79300   5.982   4.089   9.893 -0.2832 -0.8052  0.2925
  588MOL0     C79301   6.015   3.954   9.920  0.5494  0.4773  0.4525
  588MOL0     C79302   6.134   3.920   9.977 -0.0852 -0.3250 -0.5682
  588MOL0     C79303   6.229   4.024   9.999 -0.3589  0.5766  0.0487
  588MOL0     O79304   6.355   3.978  10.042 -0.1268 -0.2143  0.0046
  588MOL0     C79305   6.462   4.073  10.041 -0.7035  0.9550  0.2258
  588MOL0     C79306   6.525   4.097   9.900 -0.4462 -1.1804 -0.3231
  588MOL0     C79307   6.652   4.194   9.902  0.5515  0.3468  0.0882
  588MOL0     C79308   6.621   4.338   9.955 -1.5248 -0.7638 -0.9211
  588MOL0     C79309   6.512   4.408   9.878 -0.0435  0.5815 -0.2027
  588MOL0     C79310   6.416   4.466   9.817 -0.4089  0.8461 -0.4982
  588MOL0     C79311   6.205   4.160   9.961 -0.0996 -0.1150  0.9009
  588MOL0     C79312   6.083   4.192   9.905 -0.4653  0.1055 -0.6136
  588MOL0     H79313   5.594   4.192   9.939 -1.1335  4.1332 -1.6716
  588MOL0     H79314   5.370   4.208   9.907 -1.7756 -1.9325  0.5604
  588MOL0     H79315   5.021   4.025   9.676 -0.7818  0.0262 -1.0080
  588MOL0     H79316   5.152   3.956   9.576 -0.6366 -0.2487  0.9941
  588MOL0     H79317   5.203   3.786   9.718  1.3301  1.0520 -0.5438
  588MOL0     H79318   5.138   3.861   9.861  2.4241 -1.0924  0.2925
  588MOL0     H79319   4.933   3.772   9.637 -0.5480  0.8335 -0.1117
  588MOL0     H79320   5.019   3.645   9.736 -0.9327 -0.7178 -0.6841
  588MOL0     H79321   4.823   3.669   9.827 -3.3674  2.6081 -0.6926
  588MOL0     H79322   4.935   3.745   9.936  1.7749 -0.4853 -1.2304
  588MOL0     H79323   4.776   3.908   9.960  2.0623  3.2684 -0.1542
  588MOL0     H79324   4.845   3.972   9.814  1.6976  1.0166  3.0474
  588MOL0     H79325   4.633   3.974   9.766  2.1543  1.0119  0.1467
  588MOL0     H79326   4.686   3.829   9.675 -0.9593 -1.9113  0.2462
  588MOL0     H79327   4.470   3.746   9.768 -0.6477 -1.1283  1.2076
  588MOL0     H79328   4.591   3.669   9.855 -1.1229 -1.1004  0.2607
  588MOL0     H79329   4.499   3.945   9.961  2.6218  0.7035  2.3544
  588MOL0     H79330   4.569   3.818  10.052  0.6387  0.2879  0.1183
  588MOL0     H79331   4.431   3.570   9.929  0.3443 -0.7651 -1.5251
  588MOL0     H79332   4.191   3.431   9.959 -0.3826 -1.0076  0.9988
  588MOL0     H79333   4.108   3.478  10.109 -0.8458 -0.1763 -0.7166
  588MOL0     H79334   4.000   3.592   9.854  1.9226  0.8784  0.8835
  588MOL0     H79335   3.947   3.598  10.032 -2.1216 -0.8457  0.9603
  588MOL0     H79336   3.921   3.375  10.045  0.5433 -0.1516  0.4528
  588MOL0     H79337   3.981   3.337   9.876 -2.1784  0.3335 -3.4600
  588MOL0     H79338   3.782   3.511   9.820 -0.5584 -0.1215 -0.6345
  588MOL0     H79339   3.738   3.466   9.990  1.0022  0.9285  0.0841
  588MOL0     H79340   3.545   3.486   9.870 -0.6351 -0.1555  3.0685
  588MOL0     H79341   3.220   3.493   9.770 -0.0102  3.7172  0.0125
  588MOL0     H79342   3.220   3.483   9.949  2.4165  0.2461  0.9815
  588MOL0     H79343   3.337   3.577   9.866 -0.2876  0.2253  0.2767
  588MOL0     H79344   2.952   3.149   9.631 -1.2435  0.4885  0.1689
  588MOL0     H79345   2.720   3.072   9.654  1.1827 -0.7568 -0.2927
  588MOL0     H79346   2.503   3.153   9.678  2.1924 -0.2007  0.6592
  588MOL0     H79347   2.512   2.978   9.689  1.7830  1.1896 -0.4536
  588MOL0     H79348   2.315   2.994   9.860 -1.3269  0.6008  1.1504
  588MOL0     H79349   2.346   3.170   9.860  1.0654 -0.9521  1.4033
  588MOL0     H79350   2.245   3.034   9.599 -0.3324 -0.1030 -0.2808
  588MOL0     H79351   2.264   3.207   9.631  2.4070 -0.7703 -1.1417
  588MOL0     H79352   2.092   3.014   9.766 -0.6154  0.3117 -0.9410
  588MOL0     H79353   2.094   3.194   9.799  1.4711  0.1790  1.3844
  588MOL0     H79354   2.020   3.039   9.552  0.7663  0.0345  0.0210
  588MOL0     H79355   2.032   3.210   9.546  4.3458 -1.3067  0.4793
  588MOL0     H79356   1.846   3.034   9.707  0.8683 -0.1644 -1.1361
  588MOL0     H79357   1.861   3.198   9.754  2.6655  2.1132 -2.0732
  588MOL0     H79358   1.665   3.094   9.591 -0.0173  0.7698  1.1286
  588MOL0     H79359   1.782   3.112   9.471 -0.8188 -2.1733  0.5110
  588MOL0     H79360   1.660   3.350   9.476  0.7870 -2.9822 -1.8863
  588MOL0     H79361   1.814   3.354   9.545  0.6823  0.0284 -0.9953
  588MOL0     H79362   2.705   3.191  10.062  2.3082 -4.6206  1.5442
  588MOL0     H79363   2.927   3.273  10.047  1.7514 -0.6494 -0.5368
  588MOL0     H79364   3.401   3.031   9.790 -0.6287  1.4045 -3.7431
  588MOL0     H79365   3.649   3.084   9.814  0.3144  0.2723 -0.7832
  588MOL0     H79366   5.367   3.903   9.609 -2.4056  0.0875  0.3256
  588MOL0     H79367   5.613   3.867   9.651 -1.8813 -2.4097  2.2995
  588MOL0     H79368   5.938   3.880   9.902  1.0792  0.2721 -1.1418
  588MOL0     H79369   6.169   3.819   9.996  2.5302  0.4184 -0.9196
  588MOL0     H79370   6.430   4.169  10.084 -4.9214  0.0360 -0.3927
  588MOL0     H79371   6.531   4.043  10.120 -0.7492  0.8424  0.2238
  588MOL0     H79372   6.450   4.140   9.834 -3.6898 -0.1199  3.6651
  588MOL0     H79373   6.560   4.000   9.861 -2.1799 -1.6052 -0.8978
  588MOL0     H79374   6.671   4.210   9.795 -1.4577  1.3560 -0.1680
  588MOL0     H79375   6.729   4.139   9.956 -1.4616  0.2985  3.1173
  588MOL0     H79376   6.716   4.391   9.944 -2.6796  1.1072 -2.6202
  588MOL0     H79377   6.603   4.342  10.063  3.0061 -0.1128  0.0121
  588MOL0     H79378   6.344   4.525   9.765 -0.2573 -2.4383 -4.9873
  588MOL0     H79379   6.280   4.237   9.973 -1.9008  2.2956 -1.9860
  588MOL0     H79380   6.065   4.293   9.872  1.8364  1.0200  0.6990
  589MOL0     O79381   4.429   7.341   3.442  0.3514 -0.4679 -0.0853
  589MOL0     C79382   4.412   7.405   3.555 -0.8513  0.3861 -0.4430
  589MOL0     O79383   4.514   7.446   3.629  0.0966 -0.2378 -1.0748
  589MOL0     C79384   4.638   7.397   3.608 -0.6736  0.6051  0.3536
  589MOL0     C79385   4.680   7.274   3.664 -0.5945  0.8359 -0.2472
  589MOL0     C79386   4.814   7.225   3.643 -0.1778  0.1497  0.1021
  589MOL0     C79387   4.906   7.295   3.563  0.4469 -0.5195 -0.1408
  589MOL0     O79388   5.035   7.261   3.533 -0.2035 -0.0096 -0.3405
  589MOL0     C79389   5.087   7.142   3.607 -0.1406  0.0035  0.5072
  589MOL0     C79390   5.233   7.113   3.566  0.3358 -1.5700  0.2257
  589MOL0     C79391   5.309   7.246   3.561 -0.8547 -0.6562 -0.4163
  589MOL0     C79392   5.456   7.233   3.608  0.5708 -0.0150 -0.5214
  589MOL0     C79393   5.476   7.267   3.757 -0.8805  0.7884  0.8138
  589MOL0     C79394   5.623   7.260   3.797  0.2015 -0.8252  0.2635
  589MOL0     C79395   5.638   7.264   3.951 -0.2313 -0.0360 -0.4748
  589MOL0     C79396   5.663   7.406   3.996  0.1412  0.0045 -0.3720
  589MOL0     N79397   5.643   7.448   4.145 -0.1388 -0.3689  0.4467
  589MOL0     C79398   5.734   7.473   4.251  0.4246  0.3956  0.2783
  589MOL0     C79399   5.653   7.490   4.362  0.6154 -0.0475  0.6572
  589MOL0     C79400   5.702   7.491   4.509 -0.5579  0.3946  0.0457
  589MOL0     C79401   5.581   7.502   4.601  0.3259  0.4825  0.0240
  589MOL0     C79402   5.496   7.374   4.631  0.7949 -0.1721  0.7279
  589MOL0     C79403   5.346   7.399   4.622  0.2490  0.8036  0.5621
  589MOL0     O79404   5.319   7.482   4.734  0.3777  0.5269  0.4671
  589MOL0     C79405   5.197   7.506   4.786  0.2583  0.0851  0.3657
  589MOL0     C79406   5.078   7.455   4.724 -0.2004  0.0649  0.2657
  589MOL0     C79407   4.953   7.486   4.777  0.7440 -0.1832 -0.3565
  589MOL0     C79408   4.836   7.426   4.704  0.0991 -0.5487  0.1330
  589MOL0     C79409   4.936   7.586   4.876 -0.1846 -1.1062 -0.1592
  589MOL0     C79410   4.813   7.663   4.917 -0.3121  0.1296  0.6049
  589MOL0     O79411   4.697   7.618   4.871 -0.1031  0.1709  0.4484
  589MOL0     C79412   4.574   7.673   4.881 -0.0801  0.4839 -0.0138
  589MOL0     C79413   4.524   7.786   4.956 -0.2142 -0.3199  0.2867
  589MOL0     C79414   4.394   7.828   4.943  0.3335 -1.2126  0.1127
  589MOL0     C79415   4.298   7.758   4.874  0.7408  0.2577  0.0135
  589MOL0     O79416   4.166   7.801   4.850 -0.3732 -1.2403  0.5552
  589MOL0     C79417   4.071   7.799   4.956 -0.6698  0.5097 -0.7117
  589MOL0     C79418   3.972   7.911   4.943 -0.5427 -0.2602 -0.1460
  589MOL0     C79419   3.847   7.856   4.874  0.4780 -0.0323 -0.1051
  589MOL0     C79420   3.743   7.965   4.822 -0.4686  1.1754  0.0255
  589MOL0     C79421   3.718   8.075   4.916 -0.0176  0.0744 -0.8777
  589MOL0     C79422   3.614   8.171   4.872  0.7211 -0.3347  0.3968
  589MOL0     C79423   3.479   8.088   4.851  0.1846 -0.1275 -0.3719
  589MOL0     C79424   3.351   8.176   4.889  0.2069  0.1738 -0.2258
  589MOL0    Cl79425   3.364   8.235   5.052  0.3916  0.1158 -0.0237
  589MOL0     C79426   4.343   7.651   4.799 -0.5679  0.5272  0.2501
  589MOL0     C79427   4.473   7.604   4.810  0.0056 -0.2127 -0.2331
  589MOL0     O79428   4.826   7.753   4.996  0.6785 -0.4842 -0.6537
  589MOL0     C79429   5.060   7.640   4.928 -0.8568  0.1393  0.0564
  589MOL0     C79430   5.186   7.597   4.881  0.1356  0.3258  1.0342
  589MOL0     N79431   5.522   7.484   4.320  0.3683  0.2755  0.6354
  589MOL0     N79432   5.517   7.458   4.196 -0.5600  0.5677  0.2624
  589MOL0     C79433   4.862   7.414   3.503 -0.0694  0.3387  0.0391
  589MOL0     C79434   4.726   7.463   3.516 -0.6395  0.3239 -0.5926
  589MOL0     C79435   4.280   7.422   3.619 -0.9245 -0.2749 -0.2467
  589MOL0     C79436   4.254   7.552   3.669  0.6309 -0.4088  0.2497
  589MOL0     C79437   4.138   7.582   3.746  1.0484 -0.0930 -0.0948
  589MOL0     C79438   4.030   7.475   3.763 -0.3272 -0.7610  0.0240
  589MOL0     O79439   3.908   7.505   3.820 -0.2328 -1.1780 -0.0243
  589MOL0     C79440   3.810   7.408   3.856  0.3431  0.5438 -0.1207
  589MOL0     C79441   3.709   7.471   3.947  0.5146 -0.2467 -0.0532
  589MOL0     C79442   3.620   7.350   4.008  0.7127  0.0938  0.1262
  589MOL0     C79443   3.468   7.390   4.015 -0.0740 -0.7171  0.5541
  589MOL0     C79444   3.400   7.301   4.101 -0.0461  0.3016  0.3441
  589MOL0     C79445   3.308   7.239   4.157 -0.4264 -0.1016 -0.3259
  589MOL0     C79446   4.065   7.349   3.708  0.1539 -0.4461 -0.7048
  589MOL0     C79447   4.185   7.319   3.643  0.1671  0.5251 -0.7647
  589MOL0     H79448   4.618   7.219   3.733  2.1410  0.2336  1.9277
  589MOL0     H79449   4.848   7.132   3.687  0.0712 -0.6150 -1.6358
  589MOL0     H79450   5.084   7.167   3.713  2.3578  0.1589  0.6099
  589MOL0     H79451   5.041   7.046   3.583  1.6238 -0.5038 -1.1333
  589MOL0     H79452   5.262   7.035   3.637  0.1343 -1.1266  0.8105
  589MOL0     H79453   5.224   7.079   3.463  0.5939  2.7118 -1.4148
  589MOL0     H79454   5.314   7.275   3.455 -1.3539 -0.8941 -0.5096
  589MOL0     H79455   5.264   7.321   3.626  0.3495 -0.7868  0.5912
  589MOL0     H79456   5.489   7.131   3.586 -2.2442 -2.0047  3.1691
  589MOL0     H79457   5.510   7.299   3.540  1.4951 -2.4433 -2.2681
  589MOL0     H79458   5.435   7.365   3.784 -0.0219  1.0696  1.1303
  589MOL0     H79459   5.419   7.189   3.809 -1.7163  1.1803  0.5026
  589MOL0     H79460   5.666   7.165   3.765  7.0393  1.2464  1.4726
  589MOL0     H79461   5.679   7.342   3.750 -0.8481  0.9391  1.9454
  589MOL0     H79462   5.544   7.229   3.994 -1.1916  2.6576 -0.1680
  589MOL0     H79463   5.725   7.199   3.965  0.1170  0.0498 -2.0148
  589MOL0     H79464   5.595   7.472   3.942 -0.3479  0.5098  0.8217
  589MOL0     H79465   5.763   7.434   3.961  1.7190 -1.0327  2.8780
  589MOL0     H79466   5.842   7.476   4.245  0.5096 -1.9498 -0.4834
  589MOL0     H79467   5.763   7.402   4.522  2.7624  2.4011 -0.6398
  589MOL0     H79468   5.772   7.573   4.525  0.9517 -0.3642 -2.2596
  589MOL0     H79469   5.523   7.592   4.580  2.8309  1.6053 -2.8467
  589MOL0     H79470   5.631   7.529   4.694  2.2818 -2.3273 -0.0887
  589MOL0     H79471   5.511   7.332   4.731 -0.4722  1.3583  1.6112
  589MOL0     H79472   5.520   7.308   4.547  2.0559  2.4148 -1.1183
  589MOL0     H79473   5.297   7.302   4.634 -0.5633  1.0369 -0.6989
  589MOL0     H79474   5.315   7.436   4.524  2.4321 -0.3188 -0.6290
  589MOL0     H79475   5.098   7.406   4.630  0.9636  0.4986  0.2767
  589MOL0     H79476   4.800   7.496   4.628  1.3446 -0.3963 -0.3303
  589MOL0     H79477   4.871   7.336   4.652  3.8517 -0.3068  1.9574
  589MOL0     H79478   4.760   7.392   4.775  0.7786 -0.4060  0.9440
  589MOL0     H79479   4.583   7.844   5.025  2.5316 -1.7742 -0.6504
  589MOL0     H79480   4.352   7.919   4.987  0.2273 -0.2302 -1.9122
  589MOL0     H79481   4.020   7.702   4.957  1.2640 -0.6075  2.3486
  589MOL0     H79482   4.129   7.800   5.048 -0.7032 -0.5404 -0.6594
  589MOL0     H79483   3.946   7.939   5.045 -1.5764  0.1395 -0.5090
  589MOL0     H79484   4.018   7.999   4.897 -1.7125  1.3953  1.7033
  589MOL0     H79485   3.798   7.786   4.941  1.0194 -0.2086  0.1134
  589MOL0     H79486   3.874   7.790   4.790 -2.5023 -0.3681 -0.9292
  589MOL0     H79487   3.787   8.005   4.730  0.5176  0.2566  0.0703
  589MOL0     H79488   3.655   7.912   4.784  1.3167 -0.5265 -2.0581
  589MOL0     H79489   3.800   8.146   4.922 -0.0971  0.1858 -1.0774
  589MOL0     H79490   3.690   8.045   5.017 -1.3519  3.4724 -0.1076
  589MOL0     H79491   3.588   8.232   4.958 -2.5053 -2.3664  1.0471
  589MOL0     H79492   3.635   8.239   4.789 -4.1629 -0.2935 -1.1145
  589MOL0     H79493   3.469   8.007   4.925 -0.8592  1.7567  1.6878
  589MOL0     H79494   3.467   8.053   4.748 -1.0487 -0.2308 -0.2154
  589MOL0     H79495   3.259   8.117   4.881 -0.9051  0.0748  6.7137
  589MOL0     H79496   3.349   8.259   4.819 -0.6453 -0.0634 -0.4966
  589MOL0     H79497   4.270   7.604   4.734 -0.7138  2.5476 -1.1405
  589MOL0     H79498   4.494   7.516   4.750  1.9144 -0.0681  0.1450
  589MOL0     H79499   5.057   7.716   5.006 -0.9011 -0.5564  0.7380
  589MOL0     H79500   5.273   7.657   4.908 -0.3737  0.4326  2.5184
  589MOL0     H79501   4.931   7.469   3.440  1.3011 -1.8650 -0.4676
  589MOL0     H79502   4.696   7.552   3.462 -2.5589 -0.8648 -1.6001
  589MOL0     H79503   4.335   7.621   3.649  1.3183 -0.5315  2.3900
  589MOL0     H79504   4.116   7.683   3.780 -0.8741  0.0167 -1.5019
  589MOL0     H79505   3.763   7.365   3.767 -1.2488  2.7762 -0.4447
  589MOL0     H79506   3.854   7.325   3.912  2.5118  1.9167  0.3313
  589MOL0     H79507   3.648   7.549   3.899  2.5847  0.3192 -1.9338
  589MOL0     H79508   3.760   7.516   4.032 -0.7001 -0.5744  0.8811
  589MOL0     H79509   3.657   7.315   4.105 -1.3020 -0.1192  0.8742
  589MOL0     H79510   3.631   7.263   3.942  4.3026 -0.0503  0.6838
  589MOL0     H79511   3.430   7.390   3.912  1.3053 -1.4963  0.0198
  589MOL0     H79512   3.462   7.492   4.055  0.4369 -0.5207  0.1551
  589MOL0     H79513   3.230   7.186   4.207  2.1995 -1.5443  2.6111
  589MOL0     H79514   3.991   7.272   3.728  0.2711 -0.0588  1.3726
  589MOL0     H79515   4.213   7.221   3.607  0.0076 -0.2416  1.0896
  590MOL0     O79516  11.156  10.079   9.882 -0.7954  0.2863 -0.1606
  590MOL0     C79517  11.152  10.202   9.889  0.4957  0.2000 -0.1690
  590MOL0     O79518  11.052  10.265   9.948  0.5253  0.2769 -0.1533
  590MOL0     C79519  10.946  10.211  10.015  0.2041 -0.8192 -0.0439
  590MOL0     C79520  10.862  10.116   9.953  0.0101  0.1191  0.0558
  590MOL0     C79521  10.750  10.053  10.018 -0.6026  0.4484  0.6593
  590MOL0     C79522  10.717  10.096  10.149  0.1379 -0.9061  0.0171
  590MOL0     O79523  10.602  10.057  10.209  0.9725 -0.6525 -0.2943
  590MOL0     C79524  10.583  10.044  10.353 -0.0174  0.2680  1.0518
  590MOL0     C79525  10.463   9.957  10.377 -0.4193 -0.5417 -0.8954
  590MOL0     C79526  10.328  10.014  10.342 -0.3837  0.2925 -0.0245
  590MOL0     C79527  10.208   9.928  10.406  0.2449 -0.4779  0.5894
  590MOL0     C79528  10.098  10.034  10.438 -0.1081  0.4553 -0.1019
  590MOL0     C79529   9.991   9.958  10.520  0.1712  0.0703 -1.1349
  590MOL0     C79530   9.870  10.044  10.543  0.2302  1.0287  0.1391
  590MOL0     C79531   9.866  10.117  10.680 -0.6574 -0.1331  0.1483
  590MOL0     N79532   9.734  10.174  10.721  0.5502 -0.2393  0.1188
  590MOL0     C79533   9.698  10.310  10.723 -0.1317  0.0490 -0.2724
  590MOL0     C79534   9.571  10.305  10.771  0.7796 -0.0259 -0.2091
  590MOL0     C79535   9.482  10.427  10.778 -0.4094 -0.0683  0.8331
  590MOL0     C79536   9.458  10.478  10.637  0.3209 -0.3697 -0.1180
  590MOL0     C79537   9.391  10.611  10.631  0.3571  0.0913 -0.0923
  590MOL0     C79538   9.265  10.614  10.717 -0.3290 -0.1655 -0.1465
  590MOL0     O79539   9.221  10.748  10.681  0.1671 -0.0275  0.2563
  590MOL0     C79540   9.098  10.780  10.737  0.1878 -1.0561  0.2178
  590MOL0     C79541   8.993  10.697  10.768 -0.1089  0.4618  0.0168
  590MOL0     C79542   8.866  10.744  10.812 -1.2737 -0.2083 -0.4757
  590MOL0     C79543   8.760  10.645  10.857 -0.1050 -0.2976 -1.0160
  590MOL0     C79544   8.852  10.886  10.825  0.5306 -0.2615 -0.6405
  590MOL0     C79545   8.733  10.939  10.897 -0.4654  0.0715  0.1391
  590MOL0     O79546   8.622  10.883  10.857  0.3685 -0.6464 -0.0106
  590MOL0     C79547   8.500  10.918  10.904  0.3593 -0.3808  0.2240
  590MOL0     C79548   8.405  10.871  10.814  0.8750  0.9890  0.2082
  590MOL0     C79549   8.272  10.874  10.849 -0.2852 -0.3581 -0.5046
  590MOL0     C79550   8.234  10.918  10.986  0.1767  0.8219  0.6092
  590MOL0     O79551   8.107  10.921  11.039 -0.2224 -0.4458 -0.3258
  590MOL0     C79552   8.011  10.829  10.979 -0.4135  0.4409 -1.0152
  590MOL0     C79553   7.885  10.806  11.063  0.1698  0.5784 -0.2779
  590MOL0     C79554   7.770  10.718  11.003 -0.3462  0.5178  1.3419
  590MOL0     C79555   7.633  10.723  11.077 -0.4126  0.5496  0.4563
  590MOL0     C79556   7.537  10.635  10.987  0.8687 -0.2110  0.1846
  590MOL0     C79557   7.384  10.649  11.021 -1.2166  0.1983 -0.2412
  590MOL0     C79558   7.299  10.563  10.936 -0.1039  0.4397  0.3670
  590MOL0     C79559   7.145  10.594  10.930 -0.9291  0.3626  0.4526
  590MOL0    Cl79560   7.076  10.559  11.088  0.0696  0.2751  0.2816
  590MOL0     C79561   8.335  10.959  11.077  0.2773 -0.3108 -0.0589
  590MOL0     C79562   8.468  10.963  11.038  0.7637  0.4734  0.1370
  590MOL0     O79563   8.741  11.040  10.971 -0.2955  0.1533 -0.1793
  590MOL0     C79564   8.960  10.970  10.785  0.1792 -0.5739  0.6450
  590MOL0     C79565   9.075  10.914  10.735  0.1372 -0.5784  1.0791
  590MOL0     N79566   9.532  10.174  10.796 -0.3632 -0.1580 -0.8151
  590MOL0     N79567   9.628  10.096  10.771  0.1357  0.0515  0.1170
  590MOL0     C79568  10.803  10.193  10.208  0.2247  0.4623  0.3115
  590MOL0     C79569  10.915  10.247  10.148  0.1953 -0.0738  0.3954
  590MOL0     C79570  11.271  10.284   9.848 -0.4991 -0.6553 -0.4900
  590MOL0     C79571  11.293  10.411   9.910  0.0727  0.5434 -0.7560
  590MOL0     C79572  11.404  10.479   9.875  0.2199  0.1372 -0.0404
  590MOL0     C79573  11.492  10.435   9.779 -0.9855  0.3936 -0.0854
  590MOL0     O79574  11.595  10.513   9.737 -0.6367 -0.3632  0.4775
  590MOL0     C79575  11.652  10.496   9.608 -0.2599 -0.0010  0.0088
  590MOL0     C79576  11.771  10.587   9.582  0.1037 -0.3805  0.5507
  590MOL0     C79577  11.883  10.566   9.688 -0.5340 -0.0542  0.4522
  590MOL0     C79578  12.014  10.636   9.649  0.4318  0.6506  0.6055
  590MOL0     C79579  11.988  10.776   9.608 -0.6187  0.5233 -0.0813
  590MOL0     C79580  11.952  10.894   9.587 -0.0586 -0.2086 -0.2072
  590MOL0     C79581  11.471  10.309   9.723 -0.4759  0.1243 -0.1138
  590MOL0     C79582  11.365  10.235   9.760 -0.2707  0.0110 -0.0142
  590MOL0     H79583  10.899  10.085   9.856 -0.2678  0.0373 -0.0243
  590MOL0     H79584  10.681   9.988   9.964  1.3617 -1.8610  0.7370
  590MOL0     H79585  10.664   9.992  10.405  0.8431  1.4945  0.9608
  590MOL0     H79586  10.574  10.140  10.404  3.4678  1.8248 -0.9027
  590MOL0     H79587  10.472   9.865  10.319 -0.6643 -0.9062 -0.3615
  590MOL0     H79588  10.472   9.925  10.481  1.6607  0.1521 -0.8066
  590MOL0     H79589  10.332  10.117  10.379  1.7393 -0.1684  1.1947
  590MOL0     H79590  10.312  10.015  10.234 -1.0812  1.2562  0.0733
  590MOL0     H79591  10.177   9.849  10.337  0.9575  0.4099 -0.8067
  590MOL0     H79592  10.233   9.874  10.498 -2.2370 -0.8394  1.1249
  590MOL0     H79593  10.139  10.119  10.493 -2.0495  1.2956  0.1277
  590MOL0     H79594  10.054  10.058  10.341 -0.5936  0.9395  0.2388
  590MOL0     H79595   9.963   9.869  10.465  0.7562  0.4320 -2.0384
  590MOL0     H79596  10.034   9.934  10.618 -1.7285 -1.0385 -0.5416
  590MOL0     H79597   9.842  10.110  10.461 -0.1249  1.7555  0.8372
  590MOL0     H79598   9.796   9.963  10.549  0.1746  1.0679 -0.0178
  590MOL0     H79599   9.931  10.206  10.678 -1.3333  0.5651  3.3202
  590MOL0     H79600   9.897  10.053  10.763  0.8143  4.5559  3.7111
  590MOL0     H79601   9.752  10.394  10.679  2.4797 -0.5120  1.5737
  590MOL0     H79602   9.391  10.385  10.822 -0.6889  0.1372  0.4582
  590MOL0     H79603   9.534  10.504  10.835 -3.0166  0.1010  3.1233
  590MOL0     H79604   9.391  10.403  10.593 -0.2706  0.4580 -0.6450
  590MOL0     H79605   9.551  10.497  10.582  2.2635  2.3469  3.6436
  590MOL0     H79606   9.354  10.638  10.532 -1.8545 -0.0624  0.6361
  590MOL0     H79607   9.459  10.688  10.669  0.9507 -1.4640  2.2816
  590MOL0     H79608   9.275  10.588  10.823 -0.7083 -1.4891 -0.4174
  590MOL0     H79609   9.195  10.540  10.677 -0.1628  1.2947 -3.4947
  590MOL0     H79610   8.997  10.592  10.742  1.3775  0.4601  0.1594
  590MOL0     H79611   8.678  10.647  10.786 -3.7531  1.6033  2.8066
  590MOL0     H79612   8.799  10.544  10.873  3.3642  1.0523  0.0584
  590MOL0     H79613   8.723  10.673  10.956  0.3724 -0.0584 -0.8988
  590MOL0     H79614   8.435  10.842  10.714  1.5090  2.2781 -0.0031
  590MOL0     H79615   8.204  10.844  10.770 -1.1733  1.4865 -0.4963
  590MOL0     H79616   7.971  10.868  10.885  2.0851  0.7162 -2.0186
  590MOL0     H79617   8.055  10.731  10.957  0.2172  0.3057  0.6733
  590MOL0     H79618   7.911  10.755  11.157 -2.8720 -0.8335 -0.0563
  590MOL0     H79619   7.861  10.911  11.078  1.6371  0.9062 -0.1024
  590MOL0     H79620   7.809  10.618  10.982 -0.4200  0.6750  0.4286
  590MOL0     H79621   7.757  10.755  10.901 -1.5497  1.6688  1.8872
  590MOL0     H79622   7.632  10.695  11.182 -0.3215 -2.7865 -0.3293
  590MOL0     H79623   7.604  10.829  11.068  0.5816  0.8259  0.4236
  590MOL0     H79624   7.562  10.529  11.002  0.3988 -0.1995  1.0830
  590MOL0     H79625   7.559  10.670  10.886 -0.5237 -0.0566 -0.0827
  590MOL0     H79626   7.370  10.625  11.127 -1.1470 -0.2382 -0.3293
  590MOL0     H79627   7.354  10.754  11.014 -0.6807  0.4190  0.6759
  590MOL0     H79628   7.314  10.459  10.966 -1.5589 -0.1342 -0.7106
  590MOL0     H79629   7.334  10.585  10.834 -0.8353  0.0113  0.0088
  590MOL0     H79630   7.105  10.519  10.861  0.6553  1.1539 -1.4380
  590MOL0     H79631   7.126  10.699  10.906 -0.2525  0.8120  1.8040
  590MOL0     H79632   8.319  10.984  11.182  2.8929 -2.8811  1.0953
  590MOL0     H79633   8.537  10.999  11.114  1.2546 -2.7484  1.3722
  590MOL0     H79634   8.943  11.077  10.776 -3.9330 -1.2540 -2.6151
  590MOL0     H79635   9.149  10.981  10.692  0.0934 -1.5049 -0.5092
  590MOL0     H79636  10.767  10.226  10.305 -0.8546 -3.1304  1.2852
  590MOL0     H79637  10.972  10.326  10.194  0.1429  0.4094 -0.3466
  590MOL0     H79638  11.215  10.454   9.972  0.8373  2.0909 -0.8219
  590MOL0     H79639  11.420  10.581   9.908 -2.2819  1.9561 -3.7073
  590MOL0     H79640  11.672  10.391   9.587 -1.8791 -0.2552 -0.4300
  590MOL0     H79641  11.567  10.526   9.545 -0.9249 -2.0090 -0.1265
  590MOL0     H79642  11.734  10.689   9.592  0.8687  0.3194 -2.6638
  590MOL0     H79643  11.805  10.561   9.482  0.7278 -2.7757  1.3145
  590MOL0     H79644  11.906  10.460   9.702 -1.1272 -0.2085  0.2951
  590MOL0     H79645  11.848  10.604   9.784  0.5297  3.1148 -0.2837
  590MOL0     H79646  12.072  10.590   9.569  0.0705  0.7214  0.2994
  590MOL0     H79647  12.083  10.635   9.734 -0.0113 -0.3848  0.9704
  590MOL0     H79648  11.923  10.997   9.586 -1.8903 -0.6165  2.3614
  590MOL0     H79649  11.526  10.255   9.646  0.9389 -1.7800  2.1325
  590MOL0     H79650  11.364  10.137   9.713  1.1810 -0.6128  1.1635
  591MOL0     O79651   4.625   3.592   6.892  0.5686 -0.4439  0.1120
  591MOL0     C79652   4.586   3.594   6.779 -0.2869  0.0713  0.2932
  591MOL0     O79653   4.463   3.593   6.737 -0.1043 -0.9889  0.0872
  591MOL0     C79654   4.358   3.609   6.827 -1.2039  0.2375 -0.9223
  591MOL0     C79655   4.330   3.514   6.926 -0.3310 -0.3966  0.9011
  591MOL0     C79656   4.218   3.526   7.010  0.3345  0.6481 -0.3218
  591MOL0     C79657   4.120   3.628   7.000 -0.1362  0.0460  0.2192
  591MOL0     O79658   4.002   3.641   7.069 -0.1974  0.0410  0.1515
  591MOL0     C79659   3.968   3.539   7.164  0.5087  0.4148 -0.1268
  591MOL0     C79660   3.824   3.553   7.210 -0.1488  0.0446  0.1549
  591MOL0     C79661   3.793   3.663   7.298 -0.1945 -0.8022 -0.7119
  591MOL0     C79662   3.642   3.690   7.320 -0.4826  0.1555 -0.7103
  591MOL0     C79663   3.552   3.580   7.378  0.8448 -0.0124  0.9174
  591MOL0     C79664   3.558   3.550   7.523  0.2021  0.3223  0.7946
  591MOL0     C79665   3.492   3.656   7.620  0.5347 -0.5419 -0.3169
  591MOL0     C79666   3.430   3.607   7.756 -0.4697 -0.5023 -0.4185
  591MOL0     N79667   3.309   3.527   7.750 -0.2449  0.0173  0.8583
  591MOL0     C79668   3.243   3.486   7.636 -0.5303  0.3877  0.5409
  591MOL0     C79669   3.118   3.452   7.678  0.1377 -0.6969 -0.0114
  591MOL0     C79670   2.998   3.411   7.607 -0.3915  0.1440 -0.8520
  591MOL0     C79671   2.872   3.417   7.684  1.0356  0.6970 -0.1324
  591MOL0     C79672   2.754   3.380   7.597  0.4414  0.5168 -0.0040
  591MOL0     C79673   2.707   3.488   7.495  0.1277  0.7916 -0.4581
  591MOL0     O79674   2.569   3.470   7.452 -0.0956  0.0058 -0.3972
  591MOL0     C79675   2.466   3.502   7.541  0.7796  0.5545 -0.1406
  591MOL0     C79676   2.470   3.535   7.678 -0.9321  0.7097  0.3114
  591MOL0     C79677   2.350   3.557   7.755 -0.0560 -0.6930 -0.0950
  591MOL0     C79678   2.368   3.595   7.893 -0.4518  0.0280  0.2922
  591MOL0     C79679   2.221   3.534   7.692 -0.1500 -0.2658  0.7906
  591MOL0     C79680   2.090   3.534   7.771 -1.3466  0.4800  0.4835
  591MOL0     O79681   2.090   3.555   7.899  0.0873 -0.0473 -0.0786
  591MOL0     C79682   1.965   3.557   7.965 -0.2808 -0.2103 -0.3181
  591MOL0     C79683   1.863   3.650   7.935  0.2894  0.2043 -0.5455
  591MOL0     C79684   1.749   3.656   8.012  1.0536  0.1814 -0.5344
  591MOL0     C79685   1.732   3.563   8.118  0.5713  0.1258  0.2161
  591MOL0     O79686   1.606   3.556   8.165  0.1223  0.8279 -0.1620
  591MOL0     C79687   1.606   3.539   8.305  0.6306  0.8724 -0.3315
  591MOL0     C79688   1.471   3.576   8.352  0.4042 -0.9628  0.0529
  591MOL0     C79689   1.350   3.483   8.315  1.0251  0.9551 -0.1847
  591MOL0     C79690   1.220   3.505   8.410 -0.0027  0.1939  0.0683
  591MOL0     C79691   1.156   3.385   8.473  0.1510  0.3670  0.3131
  591MOL0     C79692   1.263   3.299   8.566 -0.1028  0.3676  0.1231
  591MOL0     C79693   1.200   3.183   8.637 -0.6824 -0.8820  0.1741
  591MOL0     C79694   1.259   3.145   8.780  0.0715 -0.6622  0.1084
  591MOL0    Cl79695   1.208   3.284   8.894 -0.0625  0.3120  0.1340
  591MOL0     C79696   1.838   3.473   8.154  0.8297 -0.9175 -0.4339
  591MOL0     C79697   1.958   3.477   8.082  0.7484  0.0919  0.3653
  591MOL0     O79698   1.997   3.493   7.709 -0.0889 -0.5749  0.8988
  591MOL0     C79699   2.230   3.514   7.552 -0.7211 -0.5204  0.0960
  591MOL0     C79700   2.344   3.493   7.481 -0.4777  0.0534  0.4107
  591MOL0     N79701   3.111   3.466   7.814 -0.3765 -0.7274  0.0551
  591MOL0     N79702   3.227   3.510   7.858  0.0230 -0.6829  0.4242
  591MOL0     C79703   4.152   3.727   6.898  0.3903  0.4839  0.8566
  591MOL0     C79704   4.270   3.719   6.816  1.2663 -0.2877 -0.6334
  591MOL0     C79705   4.692   3.591   6.673  0.0572 -0.4157  0.0247
  591MOL0     C79706   4.666   3.572   6.537  0.3404  0.8709  0.2976
  591MOL0     C79707   4.767   3.552   6.447 -0.2263  0.4606 -1.0899
  591MOL0     C79708   4.900   3.565   6.493 -0.5680  0.1840 -0.2120
  591MOL0     O79709   4.995   3.557   6.395 -0.3755 -0.0454 -0.1526
  591MOL0     C79710   5.126   3.600   6.421 -0.7438  0.0787  0.0540
  591MOL0     C79711   5.204   3.617   6.287  0.7501  0.8018 -0.3130
  591MOL0     C79712   5.335   3.697   6.308 -0.7957 -0.3939  0.3003
  591MOL0     C79713   5.421   3.720   6.175  0.2002  0.7582 -0.6662
  591MOL0     C79714   5.522   3.614   6.158  0.8665 -0.7317 -0.4545
  591MOL0     C79715   5.613   3.534   6.134 -0.1156  0.0892  0.4560
  591MOL0     C79716   4.929   3.613   6.620  0.1288  0.1958 -0.3814
  591MOL0     C79717   4.824   3.618   6.707  0.1897  0.0853 -0.0852
  591MOL0     H79718   4.391   3.424   6.927  1.6616  0.8326 -1.0130
  591MOL0     H79719   4.193   3.442   7.074  0.8258 -0.1613 -1.1658
  591MOL0     H79720   3.985   3.438   7.127  0.2236  1.4949 -3.5024
  591MOL0     H79721   4.024   3.546   7.258  0.9577  0.9629 -0.4298
  591MOL0     H79722   3.756   3.559   7.125  0.2583  2.6142 -0.0941
  591MOL0     H79723   3.792   3.458   7.253  2.2237 -0.5579  0.7552
  591MOL0     H79724   3.848   3.643   7.391  0.0481  0.6910 -0.5136
  591MOL0     H79725   3.835   3.756   7.259  1.2649 -1.6651 -1.3196
  591MOL0     H79726   3.639   3.777   7.386  1.0523 -1.2180  1.2797
  591MOL0     H79727   3.598   3.716   7.223 -3.9467  1.7315  1.0919
  591MOL0     H79728   3.447   3.601   7.352  1.4376  1.0722 -0.7687
  591MOL0     H79729   3.580   3.489   7.325  1.1796 -0.3924  1.7225
  591MOL0     H79730   3.503   3.455   7.527  1.6744 -0.6936 -1.2182
  591MOL0     H79731   3.659   3.524   7.556  0.2465  0.1058  0.4938
  591MOL0     H79732   3.571   3.722   7.658  2.0919 -2.4347 -0.1117
  591MOL0     H79733   3.421   3.720   7.567  0.0456  0.3959  1.3989
  591MOL0     H79734   3.410   3.696   7.817 -3.6812 -1.7763  0.5644
  591MOL0     H79735   3.506   3.547   7.807  0.2470 -1.3625 -2.4108
  591MOL0     H79736   3.264   3.490   7.529  2.5328 -3.6100  0.7169
  591MOL0     H79737   2.996   3.477   7.520  3.3833  0.7954 -0.6186
  591MOL0     H79738   3.014   3.320   7.548 -0.4766  0.9648 -2.1961
  591MOL0     H79739   2.847   3.519   7.712 -0.0041  0.4428 -0.1025
  591MOL0     H79740   2.890   3.349   7.768  3.6640  0.7280 -0.5748
  591MOL0     H79741   2.667   3.361   7.662 -0.7153  1.7700 -1.1360
  591MOL0     H79742   2.785   3.287   7.548  1.9328 -0.1462  2.0568
  591MOL0     H79743   2.773   3.493   7.408 -0.8577  1.7767 -1.1713
  591MOL0     H79744   2.714   3.588   7.538  2.5733  0.0545  1.0833
  591MOL0     H79745   2.563   3.550   7.731 -0.2060 -1.5834 -0.2002
  591MOL0     H79746   2.335   3.522   7.967  0.6248  2.3387  3.2529
  591MOL0     H79747   2.475   3.610   7.911 -0.9145  1.5215  2.1079
  591MOL0     H79748   2.322   3.692   7.911  1.8514  0.7592  2.7644
  591MOL0     H79749   1.884   3.718   7.853  1.4898  2.1822  1.2958
  591MOL0     H79750   1.679   3.734   7.983  0.9682 -0.5296 -2.4033
  591MOL0     H79751   1.626   3.436   8.334 -0.7753  0.9509  1.0666
  591MOL0     H79752   1.672   3.612   8.354 -0.8763  1.2557  1.1951
  591MOL0     H79753   1.481   3.571   8.461 -0.6744  1.2454  0.2934
  591MOL0     H79754   1.447   3.680   8.332 -2.2016 -1.6582 -0.8086
  591MOL0     H79755   1.375   3.376   8.319 -3.6106 -0.4517 -2.3739
  591MOL0     H79756   1.332   3.510   8.211  2.3348 -1.5041 -1.1460
  591MOL0     H79757   1.238   3.574   8.493 -3.8203 -1.9801  3.0311
  591MOL0     H79758   1.141   3.547   8.348 -1.8776 -1.4936  1.1887
  591MOL0     H79759   1.112   3.328   8.391 -1.5624 -0.0277  1.4531
  591MOL0     H79760   1.067   3.407   8.533 -0.9799 -0.8896 -0.8396
  591MOL0     H79761   1.343   3.257   8.504 -0.6102  0.9947 -0.9887
  591MOL0     H79762   1.303   3.365   8.644 -0.5450  1.0248 -0.1963
  591MOL0     H79763   1.207   3.100   8.567  0.6538  2.5319 -4.2030
  591MOL0     H79764   1.092   3.193   8.655 -0.7850 -2.0671  0.2813
  591MOL0     H79765   1.366   3.161   8.766  0.2365  0.0476  1.8739
  591MOL0     H79766   1.227   3.045   8.808  1.5263 -1.5040 -1.1097
  591MOL0     H79767   1.851   3.408   8.240  3.4808  0.9626  0.7190
  591MOL0     H79768   2.048   3.422   8.108  2.3473 -0.6651 -5.4937
  591MOL0     H79769   2.141   3.520   7.491  1.0861  1.2366 -2.5855
  591MOL0     H79770   2.324   3.462   7.379  0.1013 -1.8143  0.8368
  591MOL0     H79771   4.088   3.813   6.878 -1.2878 -0.4959  1.8551
  591MOL0     H79772   4.280   3.800   6.743 -1.0492  0.1345 -0.5771
  591MOL0     H79773   4.565   3.583   6.498  0.8181  0.3317 -1.1526
  591MOL0     H79774   4.738   3.530   6.345  3.2467 -0.8681 -1.9281
  591MOL0     H79775   5.131   3.698   6.471  3.3547 -0.2179  0.5445
  591MOL0     H79776   5.177   3.537   6.494  0.7986  2.3556  1.0693
  591MOL0     H79777   5.135   3.666   6.217 -1.2756  0.4272  1.3200
  591MOL0     H79778   5.234   3.520   6.246  2.8177  0.4464  1.8495
  591MOL0     H79779   5.404   3.653   6.380  1.3528 -0.6612 -1.7834
  591MOL0     H79780   5.302   3.789   6.357  1.0920  1.1386 -1.0947
  591MOL0     H79781   5.470   3.818   6.172  0.8681  0.4873  0.4972
  591MOL0     H79782   5.362   3.720   6.083  0.5421 -0.4721 -0.9061
  591MOL0     H79783   5.692   3.463   6.123 -0.2720 -0.3676  2.1130
  591MOL0     H79784   5.026   3.655   6.648 -0.6963  0.7233  1.9154
  591MOL0     H79785   4.847   3.640   6.811 -0.9931 -0.4775  0.3144
  592MOL0     O79786   4.578   1.442   3.444 -0.3517 -0.0258  0.3337
  592MOL0     C79787   4.533   1.336   3.407 -0.1134  0.4064 -0.7791
  592MOL0     O79788   4.408   1.305   3.375 -0.2946  0.4411 -0.3757
  592MOL0     C79789   4.322   1.404   3.371 -0.5576  0.4322  0.7621
  592MOL0     C79790   4.197   1.361   3.408  0.2334  0.3473  0.2578
  592MOL0     C79791   4.091   1.455   3.414  0.0536  0.6250  0.2296
  592MOL0     C79792   4.107   1.590   3.373 -0.9196 -0.5529 -0.0381
  592MOL0     O79793   3.992   1.671   3.372 -0.0079  0.0273 -0.6416
  592MOL0     C79794   4.007   1.816   3.381 -1.2631 -0.3315  0.0833
  592MOL0     C79795   3.874   1.877   3.422 -0.5022  0.5574  0.0129
  592MOL0     C79796   3.751   1.845   3.333  0.6460  0.9342 -0.5937
  592MOL0     C79797   3.653   1.733   3.383 -0.8211  0.0238 -0.0794
  592MOL0     C79798   3.525   1.710   3.308  0.9529 -1.0272 -0.3429
  592MOL0     C79799   3.429   1.838   3.339 -0.5001  0.3940 -0.2238
  592MOL0     C79800   3.286   1.791   3.340  0.0050  0.0049 -0.9835
  592MOL0     C79801   3.198   1.906   3.399  0.5007 -0.7378  0.3977
  592MOL0     N79802   3.068   1.902   3.330 -0.0509  0.7152 -0.2979
  592MOL0     C79803   3.056   1.935   3.195 -0.9412 -0.1739 -0.5234
  592MOL0     C79804   2.923   1.940   3.169  0.2983 -0.2729 -0.4446
  592MOL0     C79805   2.868   1.949   3.033  0.1086  0.0300  0.4044
  592MOL0     C79806   2.848   1.814   2.955 -0.0816  0.0013 -1.2502
  592MOL0     C79807   2.713   1.754   2.973  1.6023  0.2649  0.2974
  592MOL0     C79808   2.615   1.822   2.885  0.4274 -0.2877  0.4544
  592MOL0     O79809   2.474   1.779   2.922 -0.0840 -0.5270  0.0760
  592MOL0     C79810   2.374   1.788   2.833 -0.5603 -0.2426  1.4612
  592MOL0     C79811   2.376   1.850   2.703  0.2392  0.2856  0.7154
  592MOL0     C79812   2.253   1.860   2.631 -0.0843  0.5561  0.5342
  592MOL0     C79813   2.249   1.943   2.507 -0.0784 -0.1429 -0.0400
  592MOL0     C79814   2.137   1.787   2.680 -0.2394  0.2786 -0.2183
  592MOL0     C79815   2.000   1.784   2.616 -0.6931  1.0872 -0.3128
  592MOL0     O79816   1.906   1.697   2.671 -0.0598  0.0645  0.7408
  592MOL0     C79817   1.796   1.681   2.590 -0.1552  0.5328 -0.5556
  592MOL0     C79818   1.782   1.555   2.527 -0.5520 -0.1596  0.6371
  592MOL0     C79819   1.653   1.512   2.484  0.1308  0.2321 -0.7924
  592MOL0     C79820   1.545   1.600   2.488 -0.4085  0.2666 -0.2729
  592MOL0     O79821   1.427   1.557   2.446  0.5076  0.8169 -0.4592
  592MOL0     C79822   1.301   1.616   2.474 -0.2572 -0.2182 -1.3664
  592MOL0     C79823   1.266   1.592   2.623 -0.1153 -0.3787 -1.0696
  592MOL0     C79824   1.119   1.620   2.658  0.3841 -0.6627 -0.1675
  592MOL0     C79825   1.095   1.611   2.810 -0.0103  0.0729  0.2945
  592MOL0     C79826   0.943   1.634   2.826 -0.1090  0.7815  0.4342
  592MOL0     C79827   0.898   1.662   2.967  0.5278 -0.1718 -0.4193
  592MOL0     C79828   0.743   1.659   2.989 -0.0097  0.2594  0.7117
  592MOL0     C79829   0.671   1.775   2.914  0.2482 -0.1318  0.5770
  592MOL0    Cl79830   0.492   1.757   2.941 -0.1917  0.1177  0.5673
  592MOL0     C79831   1.564   1.726   2.551  0.0575 -0.0492  0.2061
  592MOL0     C79832   1.685   1.766   2.606 -0.1291  0.5048  0.3639
  592MOL0     O79833   1.979   1.864   2.529  0.6609  0.2961  0.4125
  592MOL0     C79834   2.149   1.714   2.798 -0.1871  0.1366 -0.1579
  592MOL0     C79835   2.260   1.714   2.873 -0.7716 -0.1336 -0.2623
  592MOL0     N79836   2.861   1.925   3.292  0.4903 -0.0183  0.2778
  592MOL0     N79837   2.943   1.900   3.387 -0.3256  0.1429  0.5631
  592MOL0     C79838   4.231   1.631   3.334  0.1115 -1.2410 -0.4533
  592MOL0     C79839   4.345   1.543   3.328 -0.8167  0.7531 -0.3517
  592MOL0     C79840   4.629   1.227   3.375 -1.2108  0.0896  0.3010
  592MOL0     C79841   4.593   1.093   3.364 -0.2968  0.3097  0.5534
  592MOL0     C79842   4.681   1.000   3.327 -0.4316 -0.2089  1.1103
  592MOL0     C79843   4.821   1.026   3.317  0.3430 -0.2877  0.1896
  592MOL0     O79844   4.910   0.929   3.279 -0.8193 -0.0346 -0.0081
  592MOL0     C79845   4.923   0.804   3.349 -0.7527  0.3233  0.7435
  592MOL0     C79846   4.958   0.694   3.261 -1.2666 -0.8971 -0.2896
  592MOL0     C79847   5.011   0.577   3.345  0.3687 -0.3940 -0.3002
  592MOL0     C79848   5.054   0.456   3.261 -0.4588 -0.2702  0.0665
  592MOL0     C79849   5.158   0.491   3.163 -0.3470 -0.0244  0.7471
  592MOL0     C79850   5.266   0.514   3.110 -0.5482  0.0673  1.0507
  592MOL0     C79851   4.863   1.160   3.341 -0.8895 -0.4075 -0.3037
  592MOL0     C79852   4.766   1.260   3.360  0.1771 -0.5122 -0.3455
  592MOL0     H79853   4.179   1.256   3.428 -2.3522  0.8305  0.8089
  592MOL0     H79854   3.987   1.423   3.420  0.0029  0.5860 -0.6220
  592MOL0     H79855   4.083   1.848   3.453 -0.3487 -1.3817 -0.3899
  592MOL0     H79856   4.037   1.854   3.283  0.8418 -1.3966  0.2663
  592MOL0     H79857   3.860   1.849   3.527  1.2507  0.4158  0.2449
  592MOL0     H79858   3.906   1.981   3.409 -0.7172  0.5404 -0.6712
  592MOL0     H79859   3.691   1.935   3.318 -4.2170 -1.8225  0.3165
  592MOL0     H79860   3.792   1.819   3.235 -0.2050 -1.3933 -0.3825
  592MOL0     H79861   3.715   1.647   3.356 -0.2392  0.0996  0.9893
  592MOL0     H79862   3.643   1.748   3.490 -2.9713 -1.7751  0.0580
  592MOL0     H79863   3.540   1.692   3.202 -0.0090 -1.5914 -0.3862
  592MOL0     H79864   3.467   1.632   3.357 -2.9601  1.6517 -0.2394
  592MOL0     H79865   3.453   1.891   3.431 -2.8999  0.0443  0.6675
  592MOL0     H79866   3.438   1.912   3.259  1.8764  0.9890  0.5129
  592MOL0     H79867   3.258   1.743   3.246 -0.0853 -1.1087 -0.4106
  592MOL0     H79868   3.265   1.712   3.413 -1.6532  0.5082 -0.8880
  592MOL0     H79869   3.243   2.003   3.374 -1.8166  0.0049 -1.3029
  592MOL0     H79870   3.193   1.904   3.508  0.7492  2.3893  0.5782
  592MOL0     H79871   3.144   1.945   3.132  0.9356 -1.7110  1.7260
  592MOL0     H79872   2.777   2.009   3.032 -0.2462 -0.4617 -1.6528
  592MOL0     H79873   2.938   2.014   2.979  1.7552 -0.5086  1.7863
  592MOL0     H79874   2.926   1.746   2.990  0.4878  1.7515  1.1077
  592MOL0     H79875   2.867   1.827   2.848 -2.1696 -1.3445 -1.8342
  592MOL0     H79876   2.682   1.766   3.078  1.9704  0.0183  0.4350
  592MOL0     H79877   2.713   1.650   2.942 -0.1407  0.4798 -0.5423
  592MOL0     H79878   2.637   1.795   2.781  1.2037 -1.1790  0.8393
  592MOL0     H79879   2.623   1.931   2.894 -0.5174 -0.1561 -0.1515
  592MOL0     H79880   2.460   1.907   2.665  1.2479 -2.1745 -1.0509
  592MOL0     H79881   2.229   1.882   2.418 -0.4432 -1.3081  0.8244
  592MOL0     H79882   2.173   2.021   2.513  0.2555  0.2924 -1.0862
  592MOL0     H79883   2.341   1.999   2.487 -0.6290  0.4668 -0.9618
  592MOL0     H79884   1.855   1.475   2.519 -0.8620 -0.2438 -3.2115
  592MOL0     H79885   1.636   1.409   2.457  0.7038  0.2197 -1.1074
  592MOL0     H79886   1.294   1.724   2.458 -1.5172  0.0130  0.4051
  592MOL0     H79887   1.224   1.567   2.414  0.2783 -0.7349 -1.6482
  592MOL0     H79888   1.279   1.487   2.649 -1.1857 -0.0575  0.9362
  592MOL0     H79889   1.332   1.648   2.689 -1.4368  0.7162 -0.6405
  592MOL0     H79890   1.059   1.542   2.610  1.2179 -1.5536  0.1972
  592MOL0     H79891   1.094   1.723   2.632  1.0541 -0.5577 -0.4335
  592MOL0     H79892   1.140   1.520   2.849  1.8736  0.0600 -1.6873
  592MOL0     H79893   1.148   1.695   2.855 -0.2492  0.5337 -0.2724
  592MOL0     H79894   0.888   1.545   2.791  0.4865 -0.4899  2.5620
  592MOL0     H79895   0.898   1.716   2.769 -1.6391  1.1264  2.0466
  592MOL0     H79896   0.942   1.586   3.032  1.9938  1.5635  0.7142
  592MOL0     H79897   0.937   1.757   3.005 -2.5037  2.2468 -2.8744
  592MOL0     H79898   0.728   1.672   3.096 -1.5467  0.4281  0.4963
  592MOL0     H79899   0.697   1.564   2.960 -0.9518  1.1937 -0.9922
  592MOL0     H79900   0.694   1.784   2.808  0.4583  1.7958  0.7564
  592MOL0     H79901   0.690   1.873   2.959 -1.6255  1.0327 -0.9963
  592MOL0     H79902   1.477   1.791   2.541 -0.5953 -1.2116 -2.7647
  592MOL0     H79903   1.665   1.856   2.662  1.9688  0.2675  1.5949
  592MOL0     H79904   2.057   1.674   2.840 -0.3424 -1.2695 -1.7268
  592MOL0     H79905   2.266   1.669   2.972 -2.3664 -0.1756 -0.1620
  592MOL0     H79906   4.240   1.738   3.313 -2.7108 -0.4073  1.9596
  592MOL0     H79907   4.440   1.572   3.286 -0.1313  0.6990  1.1021
  592MOL0     H79908   4.491   1.058   3.377  0.0582 -0.3033  1.8357
  592MOL0     H79909   4.629   0.906   3.310  3.3435 -2.2365 -0.4460
  592MOL0     H79910   4.995   0.816   3.430 -1.6211 -0.8673  1.7404
  592MOL0     H79911   4.831   0.775   3.402 -1.3509  2.6788  1.0941
  592MOL0     H79912   5.038   0.740   3.202 -0.6659  0.9711  1.8409
  592MOL0     H79913   4.892   0.661   3.181  1.4391  3.0309 -4.6385
  592MOL0     H79914   4.931   0.538   3.409  0.2318 -1.3663 -1.0336
  592MOL0     H79915   5.103   0.611   3.394  0.4486 -1.6757  0.4742
  592MOL0     H79916   4.965   0.416   3.211  1.1669  0.5007 -3.8237
  592MOL0     H79917   5.088   0.382   3.335 -3.4449 -1.7067  0.1332
  592MOL0     H79918   5.359   0.532   3.060 -0.2214  0.1573  1.6862
  592MOL0     H79919   4.970   1.177   3.337 -0.3867 -2.9045  0.6722
  592MOL0     H79920   4.791   1.364   3.379 -3.6071  0.3192  0.9012
  593MOL0     O79921   7.664   4.103   8.766  0.4136 -0.7254 -0.0089
  593MOL0     C79922   7.700   4.024   8.858 -0.3051 -0.2927  0.6851
  593MOL0     O79923   7.826   3.984   8.877  0.0368  0.5872 -0.1378
  593MOL0     C79924   7.916   4.000   8.770 -0.2315  1.2061 -0.3438
  593MOL0     C79925   7.905   3.946   8.644  0.3751 -0.9899  0.1091
  593MOL0     C79926   7.998   3.965   8.541 -0.3778 -0.4789 -0.1457
  593MOL0     C79927   8.123   4.029   8.557  0.3825  0.4653  0.3098
  593MOL0     O79928   8.202   4.053   8.443  0.1672  0.4073  0.2142
  593MOL0     C79929   8.321   4.124   8.476  0.2079  0.0678 -0.4164
  593MOL0     C79930   8.423   4.137   8.366 -0.0431  0.4626  0.8493
  593MOL0     C79931   8.502   4.011   8.327  0.8044 -0.5580 -0.1710
  593MOL0     C79932   8.594   3.951   8.426 -1.0356  0.8354  0.1037
  593MOL0     C79933   8.699   4.045   8.482 -0.4213  0.0671 -0.9056
  593MOL0     C79934   8.780   4.131   8.381 -0.8154  0.0445  0.1473
  593MOL0     C79935   8.879   4.039   8.293  0.4956 -0.1638 -0.3620
  593MOL0     C79936   8.955   4.108   8.186 -0.0464  1.1045  0.5932
  593MOL0     N79937   8.855   4.171   8.098  0.9036 -0.3527  0.3605
  593MOL0     C79938   8.788   4.099   7.999  0.5793  0.5788  0.0521
  593MOL0     C79939   8.740   4.209   7.923  0.4326 -0.3958 -0.4688
  593MOL0     C79940   8.661   4.180   7.802 -0.0122 -0.9607 -0.7464
  593MOL0     C79941   8.517   4.135   7.821  0.0421  0.0232 -0.2593
  593MOL0     C79942   8.451   4.143   7.965 -0.4276  0.7747  0.5011
  593MOL0     C79943   8.292   4.130   7.959  0.5498 -0.3736 -0.3336
  593MOL0     O79944   8.255   4.032   7.866 -0.0438  0.3590  0.5626
  593MOL0     C79945   8.122   4.007   7.835  0.4944 -0.7973 -0.1363
  593MOL0     C79946   8.092   3.886   7.766  0.2150 -0.2986  0.6460
  593MOL0     C79947   7.965   3.837   7.764  1.0156 -0.4418  0.1239
  593MOL0     C79948   7.957   3.697   7.710 -0.1493  0.8011  0.8866
  593MOL0     C79949   7.858   3.923   7.798  0.4255 -0.5657 -0.1513
  593MOL0     C79950   7.715   3.893   7.781  0.4161  0.5017  0.2745
  593MOL0     O79951   7.616   3.990   7.806  0.3125 -0.6348  0.5661
  593MOL0     C79952   7.484   3.953   7.796  1.0787  0.5211  0.6941
  593MOL0     C79953   7.382   4.055   7.775 -0.6342 -0.3268  0.4761
  593MOL0     C79954   7.246   4.013   7.770  0.8745 -0.4418 -0.7264
  593MOL0     C79955   7.205   3.885   7.810 -0.1195 -0.3450  0.2766
  593MOL0     O79956   7.074   3.851   7.824  0.2215 -0.2825  1.0412
  593MOL0     C79957   6.970   3.928   7.753 -0.1902 -0.3097 -0.2737
  593MOL0     C79958   6.829   3.878   7.780 -0.1220 -0.0904  0.5107
  593MOL0     C79959   6.802   3.861   7.927  0.3030  0.3005  0.8563
  593MOL0     C79960   6.656   3.816   7.947  0.7636 -0.0212  0.4379
  593MOL0     C79961   6.607   3.811   8.092  1.3330  0.0525 -1.0332
  593MOL0     C79962   6.503   3.923   8.115 -0.4645 -0.3269  0.2414
  593MOL0     C79963   6.562   4.069   8.115  0.8893  0.3334  0.4658
  593MOL0     C79964   6.470   4.178   8.144 -0.7222  0.3974 -0.0809
  593MOL0    Cl79965   6.545   4.334   8.123 -0.2102  0.0797  0.0073
  593MOL0     C79966   7.300   3.802   7.847  0.2711  0.3553  0.1483
  593MOL0     C79967   7.433   3.824   7.830 -0.3368 -0.1830  0.0710
  593MOL0     O79968   7.690   3.786   7.722 -0.2806 -0.5226  0.1425
  593MOL0     C79969   7.883   4.036   7.883 -0.9658  0.2944  0.7316
  593MOL0     C79970   8.019   4.081   7.900  0.1062  0.3337  0.0509
  593MOL0     N79971   8.777   4.334   7.976 -0.1441  1.3310 -0.0576
  593MOL0     N79972   8.849   4.304   8.078 -0.2997 -0.2296  0.6261
  593MOL0     C79973   8.142   4.069   8.689 -0.2674 -0.8965 -0.6682
  593MOL0     C79974   8.041   4.063   8.795  0.3499 -0.1824  0.2396
  593MOL0     C79975   7.606   3.982   8.966 -0.1438 -0.4779 -0.5994
  593MOL0     C79976   7.475   4.035   8.959  0.0830 -0.1053  0.3442
  593MOL0     C79977   7.375   4.008   9.052 -0.9328 -0.4360 -0.3061
  593MOL0     C79978   7.410   3.929   9.164  0.5657 -0.2129 -0.2427
  593MOL0     O79979   7.317   3.899   9.248  0.8295  0.1930 -0.8771
  593MOL0     C79980   7.271   3.756   9.243  0.0725  0.6772 -0.5766
  593MOL0     C79981   7.131   3.739   9.305  0.0810  0.5159  1.0019
  593MOL0     C79982   7.060   3.612   9.250  0.0804  1.1960 -0.3061
  593MOL0     C79983   6.935   3.569   9.337 -0.1607  0.6307  0.2281
  593MOL0     C79984   6.808   3.612   9.275 -0.6202 -0.4853  0.2679
  593MOL0     C79985   6.711   3.663   9.217  0.9237 -0.0030  0.5434
  593MOL0     C79986   7.539   3.881   9.176 -0.4372  0.7425  0.2017
  593MOL0     C79987   7.637   3.907   9.083 -0.6470 -0.1325  0.0820
  593MOL0     H79988   7.813   3.896   8.615 -0.0863 -1.2121  1.8869
  593MOL0     H79989   7.962   3.940   8.442  1.2735 -0.6489 -0.7313
  593MOL0     H79990   8.297   4.227   8.506 -0.1021 -0.1059 -0.0605
  593MOL0     H79991   8.370   4.075   8.560 -2.4319 -1.5852  0.2880
  593MOL0     H79992   8.382   4.182   8.274  1.3053  1.7249  0.8324
  593MOL0     H79993   8.492   4.216   8.395 -0.5236  2.5334 -2.9946
  593MOL0     H79994   8.435   3.938   8.279  0.5062  0.0290 -0.6559
  593MOL0     H79995   8.571   4.039   8.247  0.3350  1.4415  0.0785
  593MOL0     H79996   8.536   3.900   8.504 -0.9842  0.2274 -0.2541
  593MOL0     H79997   8.654   3.881   8.367  0.8668  1.9708  0.6091
  593MOL0     H79998   8.648   4.099   8.562 -3.3668 -2.8959 -0.5538
  593MOL0     H79999   8.774   3.976   8.523  0.6086  0.7854 -1.5391
  593MOL0     H80000   8.721   4.197   8.316 -0.2265  0.3941 -0.0311
  593MOL0     H80001   8.843   4.192   8.446  0.0569  0.4900 -1.0698
  593MOL0     H80002   8.963   4.009   8.356  0.6032 -0.3658 -0.5994
  593MOL0     H80003   8.829   3.952   8.249  0.7195  1.5928 -4.5627
  593MOL0     H80004   9.017   4.027   8.147  1.6406  2.4693  0.3335
  593MOL0     H80005   9.028   4.184   8.215  0.7401  1.6707 -2.4924
  593MOL0     H80006   8.784   3.991   7.989 -2.9608  0.2698  2.8273
  593MOL0     H80007   8.655   4.275   7.747  0.3155 -0.4066  0.1451
  593MOL0     H80008   8.714   4.112   7.734  0.3328  0.4606 -1.9553
  593MOL0     H80009   8.504   4.031   7.789 -4.1939 -0.1231  1.3633
  593MOL0     H80010   8.450   4.187   7.752  1.4992  0.3883 -1.4498
  593MOL0     H80011   8.500   4.231   8.009  1.3090  0.1724 -0.1277
  593MOL0     H80012   8.494   4.056   8.015 -2.5402  0.6545  2.2352
  593MOL0     H80013   8.249   4.225   7.926 -0.6236  0.0100  2.0281
  593MOL0     H80014   8.259   4.113   8.062  2.7605 -0.0176  0.4958
  593MOL0     H80015   8.187   3.842   7.737 -0.0103 -0.2257 -0.2524
  593MOL0     H80016   7.925   3.621   7.782  2.1357 -0.2312  0.9208
  593MOL0     H80017   7.893   3.697   7.621  1.1548  0.6458 -0.0773
  593MOL0     H80018   8.053   3.659   7.672  0.1185  3.4780 -1.4381
  593MOL0     H80019   7.415   4.157   7.760 -0.2348 -0.4190  0.6919
  593MOL0     H80020   7.172   4.084   7.735  0.4612  0.0565  1.0771
  593MOL0     H80021   6.979   4.032   7.786  2.3401 -0.3864 -0.5202
  593MOL0     H80022   6.992   3.920   7.646  0.7111 -1.2818 -0.0327
  593MOL0     H80023   6.752   3.938   7.729  1.5921  1.0821 -0.8428
  593MOL0     H80024   6.825   3.781   7.730  1.1923 -0.6626  1.4565
  593MOL0     H80025   6.817   3.946   7.995 -0.7401 -1.3192  3.2420
  593MOL0     H80026   6.881   3.797   7.968  1.6574 -0.1936 -2.2434
  593MOL0     H80027   6.590   3.878   7.886  0.8605  0.7047  1.0605
  593MOL0     H80028   6.649   3.715   7.905  0.6358  0.1019  0.1603
  593MOL0     H80029   6.691   3.799   8.161  1.7603 -0.4620 -1.6354
  593MOL0     H80030   6.543   3.723   8.109  1.2983  0.3988  0.9224
  593MOL0     H80031   6.425   3.911   8.039  0.3589 -0.9672 -0.5182
  593MOL0     H80032   6.465   3.907   8.216  1.2309  0.0233  0.9802
  593MOL0     H80033   6.596   4.093   8.014  0.6185 -2.3959 -0.3488
  593MOL0     H80034   6.649   4.071   8.181  1.8566  3.3590 -0.7231
  593MOL0     H80035   6.424   4.169   8.243 -3.2434 -2.9239 -1.3722
  593MOL0     H80036   6.391   4.177   8.069 -0.7709  2.2862 -0.1040
  593MOL0     H80037   7.261   3.708   7.884  0.9662 -0.2412 -0.6076
  593MOL0     H80038   7.488   3.737   7.863  0.1867  0.4181  0.8277
  593MOL0     H80039   7.798   4.090   7.923 -1.0213  0.4418  0.4157
  593MOL0     H80040   8.040   4.173   7.954 -0.5050 -0.0729  1.0116
  593MOL0     H80041   8.237   4.114   8.717  0.5801 -1.9678 -1.7275
  593MOL0     H80042   8.061   4.096   8.897 -1.6655 -2.0882  1.3224
  593MOL0     H80043   7.455   4.086   8.866  2.3676 -1.4893 -0.9901
  593MOL0     H80044   7.279   4.054   9.035 -0.2353  0.9092 -0.7847
  593MOL0     H80045   7.273   3.719   9.141 -2.2106 -1.3717  0.0358
  593MOL0     H80046   7.343   3.696   9.300  0.6425  1.7367 -0.1525
  593MOL0     H80047   7.080   3.835   9.294  1.1734  1.3160  2.6016
  593MOL0     H80048   7.147   3.723   9.412 -0.7712 -0.1174  1.0466
  593MOL0     H80049   7.131   3.530   9.245 -0.5900  0.5187  0.7249
  593MOL0     H80050   7.026   3.631   9.148 -1.5434 -1.4380 -0.3533
  593MOL0     H80051   6.950   3.596   9.442  0.5014  0.2179  0.2459
  593MOL0     H80052   6.937   3.459   9.344 -2.1716  0.6417  2.1651
  593MOL0     H80053   6.626   3.703   9.165 -1.4645 -2.3717  2.3752
  593MOL0     H80054   7.566   3.806   9.250  2.3688  0.8623 -0.6002
  593MOL0     H80055   7.729   3.850   9.093 -0.9211 -0.6778 -0.4192
  594MOL0     O80056   8.503   5.726  10.835 -0.3906  0.3410  0.2404
  594MOL0     C80057   8.576   5.700  10.736  0.9768  0.3423 -0.8491
  594MOL0     O80058   8.538   5.623  10.631  0.2480  0.2958 -0.4192
  594MOL0     C80059   8.409   5.579  10.632  0.8578  0.4965 -0.4424
  594MOL0     C80060   8.360   5.467  10.696  0.2315 -0.5002 -0.4103
  594MOL0     C80061   8.223   5.437  10.694  0.4683 -0.2304  0.2855
  594MOL0     C80062   8.132   5.523  10.622  0.0585 -0.3987  0.1902
  594MOL0     O80063   7.993   5.500  10.619 -0.6040 -0.5664 -0.0589
  594MOL0     C80064   7.908   5.609  10.568  0.3058  0.4917 -0.7514
  594MOL0     C80065   7.763   5.598  10.611 -0.2533 -0.5986 -0.1397
  594MOL0     C80066   7.746   5.609  10.765 -0.5660  0.2179  0.2591
  594MOL0     C80067   7.636   5.527  10.831  0.0561 -0.1870  0.2825
  594MOL0     C80068   7.488   5.568  10.792  0.2710  0.2722  0.0764
  594MOL0     C80069   7.397   5.506  10.890 -0.5796 -0.0884  0.0678
  594MOL0     C80070   7.254   5.551  10.872 -0.6734 -0.4747  0.3486
  594MOL0     C80071   7.173   5.499  10.750  0.1455  0.1520 -0.3866
  594MOL0     N80072   7.109   5.363  10.771 -0.2802  0.5684  0.6342
  594MOL0     C80073   7.005   5.339  10.869 -0.8588  1.0278 -0.0478
  594MOL0     C80074   6.973   5.215  10.846 -1.1757  0.4407 -0.9886
  594MOL0     C80075   6.864   5.134  10.904  0.4097 -0.1754 -0.7997
  594MOL0     C80076   6.904   5.056  11.038  0.5683  0.8191  0.2204
  594MOL0     C80077   6.897   5.154  11.152  0.5967 -0.0437 -0.6332
  594MOL0     C80078   6.936   5.100  11.291 -0.1830 -1.0950 -0.4780
  594MOL0     O80079   6.857   4.994  11.342  0.4543  0.1305  0.5687
  594MOL0     C80080   6.720   5.026  11.385 -0.5425  0.3721 -0.3913
  594MOL0     C80081   6.676   5.156  11.415  0.9145 -1.5982 -0.3580
  594MOL0     C80082   6.547   5.188  11.459  0.1888  0.7547 -0.6371
  594MOL0     C80083   6.508   5.333  11.489 -0.1730  0.9828  0.4463
  594MOL0     C80084   6.452   5.080  11.472 -0.8299 -0.2278  0.2150
  594MOL0     C80085   6.300   5.106  11.503  0.1854 -0.1997  0.5833
  594MOL0     O80086   6.233   4.997  11.549 -0.5206 -0.5003  0.5502
  594MOL0     C80087   6.100   4.986  11.538  0.2165 -0.5459 -0.2090
  594MOL0     C80088   6.026   4.937  11.639  1.1332 -0.2770 -0.1291
  594MOL0     C80089   5.890   4.917  11.619 -0.4382  0.0414  0.1661
  594MOL0     C80090   5.818   4.944  11.505 -0.1004  0.1112  0.4809
  594MOL0     O80091   5.684   4.912  11.507  0.4960  0.0473  0.5322
  594MOL0     C80092   5.613   4.939  11.381  0.0653 -0.0768 -0.2242
  594MOL0     C80093   5.463   4.936  11.405  0.4779  0.0385 -0.9318
  594MOL0     C80094   5.376   4.963  11.290  0.2271 -0.3656 -0.1535
  594MOL0     C80095   5.228   4.968  11.337  0.1339 -0.3019 -0.6752
  594MOL0     C80096   5.142   4.995  11.209  0.2536 -0.6435 -0.3099
  594MOL0     C80097   4.994   4.998  11.255 -1.1222  0.4777 -0.1919
  594MOL0     C80098   4.894   5.003  11.135 -1.1044 -0.3961 -0.6682
  594MOL0     C80099   4.906   5.119  11.042  0.4989 -0.3186  1.1789
  594MOL0    Cl80100   4.926   5.268  11.129 -0.1810 -0.2034  0.6279
  594MOL0     C80101   5.896   4.996  11.403  0.3915 -0.2072 -1.0250
  594MOL0     C80102   6.036   5.022  11.417  0.4760  0.8543 -0.9832
  594MOL0     O80103   6.243   5.216  11.485  0.2888  0.0100 -0.4210
  594MOL0     C80104   6.497   4.950  11.432 -0.4633  0.2603  0.5178
  594MOL0     C80105   6.627   4.924  11.405 -0.3119  0.7379  0.0095
  594MOL0     N80106   7.067   5.159  10.766  0.6028 -0.7658  0.1184
  594MOL0     N80107   7.149   5.242  10.727 -0.4446 -0.4071  0.0694
  594MOL0     C80108   8.195   5.625  10.533  1.0468  0.5353  0.2109
  594MOL0     C80109   8.327   5.646  10.539 -0.0638 -0.0667 -0.3383
  594MOL0     C80110   8.712   5.758  10.739 -0.0471  0.2935 -0.2249
  594MOL0     C80111   8.746   5.860  10.829  0.2110  0.0931  0.0590
  594MOL0     C80112   8.875   5.916  10.840  0.0179 -0.2861 -1.3704
  594MOL0     C80113   8.975   5.876  10.744  1.3634  0.9798  0.1230
  594MOL0     O80114   9.100   5.923  10.728 -0.1423  0.3513 -0.3593
  594MOL0     C80115   9.123   6.046  10.796  0.3271  1.5031 -0.0328
  594MOL0     C80116   9.253   6.102  10.741  0.4762  0.2706  0.0121
  594MOL0     C80117   9.241   6.137  10.587  0.5907 -0.6309 -0.6819
  594MOL0     C80118   9.154   6.265  10.554 -0.6790  1.0327  0.2808
  594MOL0     C80119   9.210   6.390  10.603 -0.3453 -0.6226 -0.0080
  594MOL0     C80120   9.270   6.491  10.602 -0.4228 -0.1452  0.2172
  594MOL0     C80121   8.937   5.773  10.648  0.6066 -0.4803  0.7209
  594MOL0     C80122   8.806   5.719  10.643  0.1085 -0.0565 -0.6527
  594MOL0     H80123   8.434   5.404  10.744  1.5344  1.0346 -0.3444
  594MOL0     H80124   8.185   5.354  10.753 -2.5646  2.3134  2.1933
  594MOL0     H80125   7.950   5.707  10.594  1.2293  1.0682 -3.8991
  594MOL0     H80126   7.899   5.611  10.459  0.2256 -0.0404 -0.7549
  594MOL0     H80127   7.721   5.681  10.554 -0.3271 -0.9711 -0.6399
  594MOL0     H80128   7.718   5.503  10.579  1.0775 -1.7110  1.1054
  594MOL0     H80129   7.837   5.573  10.813 -0.7602  0.6103  0.9246
  594MOL0     H80130   7.728   5.714  10.791 -0.8330 -0.1102  1.4555
  594MOL0     H80131   7.646   5.420  10.816  0.9724  0.1323 -1.7077
  594MOL0     H80132   7.642   5.546  10.939 -0.0851 -1.5864  0.5518
  594MOL0     H80133   7.480   5.677  10.801 -1.4449  0.0445  2.3492
  594MOL0     H80134   7.454   5.530  10.696 -1.2538  0.6116  0.4529
  594MOL0     H80135   7.412   5.398  10.882  1.6840  0.1125  0.8308
  594MOL0     H80136   7.430   5.531  10.991  0.0469  0.1502 -0.1890
  594MOL0     H80137   7.203   5.527  10.966  1.1745 -1.0626  1.2600
  594MOL0     H80138   7.255   5.660  10.866 -0.2597 -0.4222  1.1899
  594MOL0     H80139   7.243   5.499  10.666 -0.2984 -1.9382 -0.8141
  594MOL0     H80140   7.084   5.561  10.736 -1.3473 -1.5055  1.1600
  594MOL0     H80141   6.953   5.417  10.924  0.9598  0.3936  2.7396
  594MOL0     H80142   6.780   5.197  10.935  1.1084  1.0726 -1.3692
  594MOL0     H80143   6.816   5.065  10.834 -2.9690  1.0222  0.1521
  594MOL0     H80144   7.009   5.029  11.030  0.0172 -1.0765 -1.3618
  594MOL0     H80145   6.847   4.963  11.049  2.1026 -0.1177  0.6044
  594MOL0     H80146   6.795   5.194  11.157  0.0639 -1.4909  2.4595
  594MOL0     H80147   6.964   5.236  11.123  0.1320  0.3163 -0.7019
  594MOL0     H80148   6.944   5.179  11.366  0.1483 -2.4291  0.9276
  594MOL0     H80149   7.038   5.060  11.282  0.5921  0.7032 -0.0922
  594MOL0     H80150   6.745   5.239  11.410  2.3934 -2.5678  2.1868
  594MOL0     H80151   6.431   5.334  11.567 -0.6936  0.4781 -0.0517
  594MOL0     H80152   6.600   5.389  11.509  0.8078 -0.6129  0.5039
  594MOL0     H80153   6.462   5.377  11.400 -1.4014 -2.3849 -0.7001
  594MOL0     H80154   6.068   4.898  11.731 -0.4192 -2.4952 -0.2751
  594MOL0     H80155   5.825   4.876  11.696 -0.4772  0.6458  0.4570
  594MOL0     H80156   5.632   5.041  11.348  1.3322  0.0454  0.8115
  594MOL0     H80157   5.648   4.873  11.301  2.9603  0.2842  0.6368
  594MOL0     H80158   5.434   4.838  11.445  0.3915 -0.0623 -1.2294
  594MOL0     H80159   5.442   5.008  11.484 -1.2173 -0.8363 -0.5212
  594MOL0     H80160   5.396   4.892  11.210  2.1246 -1.7533  1.4560
  594MOL0     H80161   5.395   5.065  11.253 -1.1065 -0.1318 -0.2599
  594MOL0     H80162   5.205   4.869  11.378  0.8947  0.4911  1.8636
  594MOL0     H80163   5.211   5.048  11.410  0.1333  0.9520 -2.0088
  594MOL0     H80164   5.146   4.918  11.131 -4.6618  0.6690 -2.2248
  594MOL0     H80165   5.176   5.094  11.179  1.4202  0.0605  2.9309
  594MOL0     H80166   4.980   4.907  11.314 -3.5597  1.2670  0.5871
  594MOL0     H80167   4.973   5.085  11.318 -2.2637  0.0719  0.0148
  594MOL0     H80168   4.799   5.010  11.190 -0.2237 -0.1768  0.8934
  594MOL0     H80169   4.897   4.911  11.076  0.7894 -1.8110  1.4516
  594MOL0     H80170   4.812   5.124  10.986  0.4859 -3.8270  0.6414
  594MOL0     H80171   4.986   5.099  10.971  0.0409  3.2961 -0.5414
  594MOL0     H80172   5.853   4.999  11.304  1.8912 -2.5243 -1.8540
  594MOL0     H80173   6.101   5.058  11.337  1.2866  1.2918 -0.1390
  594MOL0     H80174   6.427   4.867  11.429  0.1535 -0.2391 -1.6570
  594MOL0     H80175   6.656   4.821  11.389 -0.1321  0.6893  0.6376
  594MOL0     H80176   8.134   5.681  10.463  1.2179  0.3016 -0.1223
  594MOL0     H80177   8.372   5.719  10.472  0.9590 -0.4280 -0.0630
  594MOL0     H80178   8.687   5.904  10.908  1.2083  0.2965  0.7102
  594MOL0     H80179   8.895   6.002  10.904 -0.2175 -1.2682  0.0792
  594MOL0     H80180   9.040   6.116  10.780 -2.4096 -1.5521 -0.1890
  594MOL0     H80181   9.135   6.027  10.903 -1.4994 -0.1034 -0.0414
  594MOL0     H80182   9.331   6.027  10.750  0.3363 -0.0153 -0.9940
  594MOL0     H80183   9.280   6.188  10.804 -2.8954  0.5555  1.3002
  594MOL0     H80184   9.210   6.062  10.514  0.4941  1.2918 -2.7181
  594MOL0     H80185   9.344   6.158  10.558  1.3427 -0.5256  1.8297
  594MOL0     H80186   9.056   6.247  10.598 -0.3253 -4.0193 -0.4447
  594MOL0     H80187   9.141   6.274  10.446  1.2603 -1.8454 -0.2988
  594MOL0     H80188   9.315   6.586  10.622  1.8284 -0.5870 -2.2857
  594MOL0     H80189   9.013   5.731  10.582 -0.6035 -2.3682  0.4418
  594MOL0     H80190   8.773   5.644  10.572 -2.1327 -1.6120  1.8483
  595MOL0     O80191   3.707   1.333   6.991  0.0332 -0.6782  0.0103
  595MOL0     C80192   3.756   1.371   7.098  0.1950  1.0221 -0.0821
  595MOL0     O80193   3.698   1.447   7.201  0.1687  0.6461 -0.3928
  595MOL0     C80194   3.591   1.537   7.182 -0.0726  0.1231  0.7622
  595MOL0     C80195   3.527   1.564   7.065 -0.0917  0.0904  0.4205
  595MOL0     C80196   3.430   1.658   7.056 -0.0379  0.0919 -0.3930
  595MOL0     C80197   3.381   1.731   7.170 -0.3074  0.0119  0.4012
  595MOL0     O80198   3.270   1.812   7.151 -0.0395 -0.0764 -0.4295
  595MOL0     C80199   3.185   1.844   7.260  0.0267  0.5201 -0.0624
  595MOL0     C80200   3.048   1.896   7.222 -0.4100 -0.2970  0.1754
  595MOL0     C80201   3.033   2.015   7.136 -0.0360  1.0555 -0.8590
  595MOL0     C80202   2.894   2.036   7.105  0.1835  0.4176 -0.0886
  595MOL0     C80203   2.886   2.160   7.010  0.0757 -0.7039 -0.5708
  595MOL0     C80204   2.734   2.182   6.994 -0.8864  0.1409 -0.1652
  595MOL0     C80205   2.721   2.319   6.927  0.2187  0.1298 -0.2185
  595MOL0     C80206   2.574   2.327   6.895  0.4477 -0.1365  0.0693
  595MOL0     N80207   2.531   2.462   6.838 -0.1511 -0.6267  0.1156
  595MOL0     C80208   2.442   2.485   6.731  0.3240  0.6511 -0.3249
  595MOL0     C80209   2.449   2.615   6.707 -0.4221  0.7437  0.9233
  595MOL0     C80210   2.379   2.689   6.595  0.3904  0.0279 -0.2022
  595MOL0     C80211   2.229   2.681   6.591  0.9605 -0.8977 -0.6688
  595MOL0     C80212   2.161   2.762   6.485  0.1950  0.3558 -0.5096
  595MOL0     C80213   2.006   2.772   6.500  0.4642 -0.8215 -0.0597
  595MOL0     O80214   1.981   2.889   6.585  0.0827  0.3963 -0.2828
  595MOL0     C80215   1.853   2.941   6.578 -0.1442 -0.2386  0.0939
  595MOL0     C80216   1.777   2.949   6.465  0.4380 -0.0392 -0.4970
  595MOL0     C80217   1.651   3.021   6.457 -0.2925 -0.7298  0.1187
  595MOL0     C80218   1.583   3.025   6.320 -0.2207  0.0540  0.1121
  595MOL0     C80219   1.604   3.086   6.577 -0.0826 -0.4126 -0.4263
  595MOL0     C80220   1.472   3.158   6.575  0.6336  0.7357 -0.3482
  595MOL0     O80221   1.479   3.280   6.641 -0.3862 -0.7163 -0.0435
  595MOL0     C80222   1.357   3.331   6.662  0.5543  0.1406  0.9008
  595MOL0     C80223   1.315   3.422   6.568  0.1660  0.1608  0.4565
  595MOL0     C80224   1.186   3.476   6.585  0.3628 -0.7110 -0.6342
  595MOL0     C80225   1.103   3.454   6.696 -0.5789 -0.1756 -1.0028
  595MOL0     O80226   0.987   3.522   6.701  0.3118  0.3566 -0.0629
  595MOL0     C80227   0.886   3.463   6.792 -0.3914 -0.4495 -0.1775
  595MOL0     C80228   0.752   3.498   6.758 -0.0567  0.7228  0.2704
  595MOL0     C80229   0.711   3.634   6.805  0.5293 -0.2786  0.2877
  595MOL0     C80230   0.578   3.674   6.741 -1.3887  0.2914  0.2352
  595MOL0     C80231   0.558   3.830   6.755  0.4363  0.1358  0.1439
  595MOL0     C80232   0.542   3.887   6.899  1.1422 -0.0781 -0.2650
  595MOL0     C80233   0.466   4.030   6.914  0.0376  0.2610 -0.9107
  595MOL0     C80234   0.313   4.008   6.914  0.5866  0.2350  0.3191
  595MOL0    Cl80235   0.238   4.165   6.928  0.6565  0.1017 -0.5127
  595MOL0     C80236   1.159   3.361   6.796 -0.5012  0.3505 -0.0196
  595MOL0     C80237   1.284   3.303   6.788 -0.5170 -0.6405  1.3061
  595MOL0     O80238   1.365   3.108   6.539 -0.9623 -0.4527  0.0540
  595MOL0     C80239   1.679   3.071   6.693 -0.2583 -0.6749  0.6073
  595MOL0     C80240   1.800   3.002   6.696 -0.5856  0.8112 -0.5206
  595MOL0     N80241   2.544   2.670   6.791 -0.1441  0.1048 -0.1121
  595MOL0     N80242   2.601   2.584   6.859 -0.4558  0.3233  0.4558
  595MOL0     C80243   3.450   1.711   7.286  1.2625  0.5068  0.4087
  595MOL0     C80244   3.555   1.614   7.294 -0.5244  0.2810  0.7944
  595MOL0     C80245   3.901   1.351   7.104  0.1809  0.2809  0.6715
  595MOL0     C80246   3.967   1.241   7.052 -0.7067  0.3393 -0.3266
  595MOL0     C80247   4.107   1.225   7.075  0.4241  0.6046  0.0795
  595MOL0     C80248   4.177   1.306   7.168 -0.2283  0.3262 -0.5629
  595MOL0     O80249   4.305   1.268   7.177 -0.3185 -0.0285  0.1348
  595MOL0     C80250   4.382   1.324   7.290  0.1762 -0.1966  0.7497
  595MOL0     C80251   4.449   1.466   7.267  1.0416  0.9720  0.7267
  595MOL0     C80252   4.574   1.503   7.345  0.3734 -0.3959  0.7995
  595MOL0     C80253   4.558   1.507   7.496 -0.3674  0.5830 -0.9187
  595MOL0     C80254   4.680   1.562   7.559  0.8001  0.7077 -0.4547
  595MOL0     C80255   4.778   1.623   7.597 -0.1475  0.9397 -0.1906
  595MOL0     C80256   4.105   1.424   7.212 -0.3414 -0.3046  0.2221
  595MOL0     C80257   3.971   1.442   7.176  0.0516  0.8791 -0.3319
  595MOL0     H80258   3.538   1.508   6.973 -2.1900 -0.3938  0.4113
  595MOL0     H80259   3.387   1.665   6.956  0.1115  0.3481 -0.4402
  595MOL0     H80260   3.159   1.759   7.324 -4.7658  1.3191 -0.5516
  595MOL0     H80261   3.236   1.916   7.325 -2.0154  1.8972  0.1345
  595MOL0     H80262   2.987   1.813   7.187 -0.0898 -2.1475  3.5500
  595MOL0     H80263   3.008   1.926   7.319 -3.7925  0.7209 -1.3974
  595MOL0     H80264   3.074   2.107   7.179 -0.5384  2.4947 -3.2894
  595MOL0     H80265   3.093   2.001   7.046 -2.1582 -1.2393 -2.0147
  595MOL0     H80266   2.853   1.946   7.058  0.5584  0.6878 -0.9430
  595MOL0     H80267   2.842   2.056   7.199  2.9733  0.9689  1.4453
  595MOL0     H80268   2.939   2.237   7.067 -0.4264 -2.0163  1.7721
  595MOL0     H80269   2.929   2.138   6.912  1.4400 -1.1591  0.1126
  595MOL0     H80270   2.694   2.101   6.933  1.9794 -1.3016 -0.2981
  595MOL0     H80271   2.684   2.191   7.091 -1.5084  1.8652 -0.6107
  595MOL0     H80272   2.742   2.394   7.004 -0.3709  1.8916 -1.6905
  595MOL0     H80273   2.785   2.332   6.839 -1.0425  0.8657 -1.0624
  595MOL0     H80274   2.520   2.311   6.989 -0.6588 -0.3097 -0.5711
  595MOL0     H80275   2.544   2.251   6.822  2.1708 -0.2439 -0.5572
  595MOL0     H80276   2.385   2.416   6.670  2.8932 -1.1621 -0.8372
  595MOL0     H80277   2.414   2.792   6.594  1.1991 -0.1998  1.1434
  595MOL0     H80278   2.407   2.634   6.505 -0.4495 -0.2670 -0.2922
  595MOL0     H80279   2.190   2.709   6.689 -2.1387 -1.7027 -1.5485
  595MOL0     H80280   2.204   2.575   6.580 -1.4200 -0.5427  0.5624
  595MOL0     H80281   2.191   2.727   6.386 -1.1529  1.8134 -1.5018
  595MOL0     H80282   2.193   2.866   6.497  1.1941 -0.0579  0.5216
  595MOL0     H80283   1.964   2.682   6.546  0.2549  0.3228  2.1472
  595MOL0     H80284   1.958   2.781   6.402 -3.6306 -0.0793  1.7883
  595MOL0     H80285   1.815   2.915   6.369  1.7415 -1.1818  0.3867
  595MOL0     H80286   1.528   2.931   6.305 -0.6637  0.1601  1.0388
  595MOL0     H80287   1.522   3.111   6.294 -1.7969 -1.0749 -0.0368
  595MOL0     H80288   1.667   3.023   6.250  0.5747  1.0564  1.0021
  595MOL0     H80289   1.379   3.441   6.482 -0.7672 -1.2339 -0.5907
  595MOL0     H80290   1.170   3.551   6.508 -3.4059 -1.8733 -1.1771
  595MOL0     H80291   0.896   3.354   6.788 -0.2183 -0.3998 -1.2530
  595MOL0     H80292   0.901   3.500   6.894 -1.3240  1.9508 -0.8435
  595MOL0     H80293   0.717   3.463   6.660 -0.4107 -2.2916  1.3536
  595MOL0     H80294   0.698   3.431   6.826  1.4607 -0.7181  0.1400
  595MOL0     H80295   0.784   3.712   6.784 -1.9831  1.4217 -3.1561
  595MOL0     H80296   0.698   3.632   6.914 -3.1396  0.9852  0.0159
  595MOL0     H80297   0.572   3.660   6.632 -1.3465 -0.9381  0.3756
  595MOL0     H80298   0.500   3.612   6.786 -1.2959 -1.2517 -1.5819
  595MOL0     H80299   0.463   3.853   6.706 -0.5175 -0.6020  1.5397
  595MOL0     H80300   0.635   3.889   6.705 -0.7677  1.8266  0.1984
  595MOL0     H80301   0.502   3.809   6.964  4.1622 -1.7400 -0.2503
  595MOL0     H80302   0.643   3.906   6.936  1.2378 -2.3315  0.7750
  595MOL0     H80303   0.501   4.098   6.836 -2.9938  2.2352 -0.7089
  595MOL0     H80304   0.489   4.072   7.012 -3.4724 -0.0047  0.1767
  595MOL0     H80305   0.277   3.952   7.001  0.2570  0.7529  0.5268
  595MOL0     H80306   0.277   3.967   6.820 -3.1363  0.8562  1.2922
  595MOL0     H80307   1.100   3.333   6.883  2.0784 -3.2220  0.7736
  595MOL0     H80308   1.346   3.237   6.848  1.3124 -0.1865  0.0319
  595MOL0     H80309   1.635   3.115   6.782 -1.5618 -0.2919 -0.1934
  595MOL0     H80310   1.853   2.988   6.790  0.4467 -1.1598 -1.3375
  595MOL0     H80311   3.433   1.774   7.373  4.0218  1.0033  0.6779
  595MOL0     H80312   3.607   1.609   7.389  1.2706  2.8076  0.0523
  595MOL0     H80313   3.916   1.168   6.990 -3.8318  0.0190  2.3402
  595MOL0     H80314   4.167   1.150   7.024  0.6908  0.5884  0.4128
  595MOL0     H80315   4.320   1.328   7.380 -0.4328  0.1122  0.3192
  595MOL0     H80316   4.462   1.250   7.301  1.0947  0.1988 -2.3854
  595MOL0     H80317   4.373   1.545   7.268 -0.8757 -0.6947 -1.3688
  595MOL0     H80318   4.487   1.457   7.165  2.5562 -0.2765  1.3472
  595MOL0     H80319   4.596   1.606   7.315 -0.1600 -0.7117 -0.7907
  595MOL0     H80320   4.656   1.446   7.301  1.0797  1.8538 -0.9610
  595MOL0     H80321   4.545   1.407   7.538  4.2710  1.3356  3.2941
  595MOL0     H80322   4.473   1.570   7.523 -0.2064  1.4746 -2.3579
  595MOL0     H80323   4.864   1.676   7.634 -0.9607 -0.0572  3.5513
  595MOL0     H80324   4.170   1.492   7.267  1.3982 -1.7904  0.1184
  595MOL0     H80325   3.941   1.541   7.207  1.2433  1.6936 -1.6333
  596MOL0     O80326   3.075   0.841   8.853  0.4607  0.3513  0.3101
  596MOL0     C80327   3.124   0.817   8.965 -1.0031  0.1368  0.1094
  596MOL0     O80328   3.067   0.758   9.067  0.8766 -1.0052  0.5226
  596MOL0     C80329   2.958   0.684   9.040  0.1703  0.1793 -0.4111
  596MOL0     C80330   2.840   0.760   9.026 -0.5205  0.0643  0.2027
  596MOL0     C80331   2.718   0.685   9.008 -0.6510  0.7003 -0.3453
  596MOL0     C80332   2.717   0.542   9.026  0.6811 -0.4191 -0.1561
  596MOL0     O80333   2.590   0.477   9.028 -0.2184 -0.4745  0.9083
  596MOL0     C80334   2.580   0.341   9.056 -0.1458  0.1891  0.3594
  596MOL0     C80335   2.449   0.308   9.128 -0.6599 -0.3218  0.4532
  596MOL0     C80336   2.323   0.350   9.048 -0.6366 -0.0463 -0.1763
  596MOL0     C80337   2.207   0.368   9.136  0.0008  0.1023 -0.4525
  596MOL0     C80338   2.076   0.343   9.060  0.2663  0.7956 -0.9201
  596MOL0     C80339   1.954   0.360   9.155 -0.7133  0.3178  0.2980
  596MOL0     C80340   1.828   0.310   9.080  0.0644  0.1939  0.4595
  596MOL0     C80341   1.783   0.394   8.961 -0.3489  0.2839 -0.0871
  596MOL0     N80342   1.633   0.402   8.976  0.3365 -1.0678  0.1749
  596MOL0     C80343   1.545   0.301   8.955  0.0692 -1.0164  0.2340
  596MOL0     C80344   1.417   0.358   8.977  0.2000 -0.4354 -0.8894
  596MOL0     C80345   1.284   0.285   8.954 -0.2700 -0.2252  0.3721
  596MOL0     C80346   1.185   0.356   8.861  0.2758  0.2963  0.4115
  596MOL0     C80347   1.245   0.372   8.720  0.0149  0.3183 -0.7912
  596MOL0     C80348   1.143   0.448   8.631  0.2985  0.0566  0.2083
  596MOL0     O80349   1.018   0.374   8.630 -0.4145 -0.7775  0.0461
  596MOL0     C80350   0.931   0.412   8.527 -0.3244 -0.8104 -0.9114
  596MOL0     C80351   0.939   0.529   8.448 -0.5329 -1.2583  0.2077
  596MOL0     C80352   0.853   0.571   8.347  0.1440 -0.3579  0.2988
  596MOL0     C80353   0.886   0.702   8.298 -0.1396  0.4059  0.6101
  596MOL0     C80354   0.745   0.493   8.314 -0.1353  0.0692 -0.0149
  596MOL0     C80355   0.641   0.523   8.208  0.0021 -0.2961  0.6052
  596MOL0     O80356   0.672   0.621   8.122  0.8496  0.0020  0.3417
  596MOL0     C80357   0.638   0.604   7.991  0.0126  0.0935 -0.6226
  596MOL0     C80358   0.601   0.480   7.930 -0.1842  0.0670 -0.6612
  596MOL0     C80359   0.564   0.495   7.795  0.4047  0.8786  0.0227
  596MOL0     C80360   0.568   0.612   7.718  0.0913  0.2165  0.3629
  596MOL0     O80361   0.537   0.603   7.587 -0.3202 -0.1068  0.2501
  596MOL0     C80362   0.565   0.706   7.491 -0.0804 -0.5323  0.1364
  596MOL0     C80363   0.526   0.677   7.352 -1.1037  0.5118 -0.3070
  596MOL0     C80364   0.613   0.559   7.301  0.6248 -1.0437  0.1854
  596MOL0     C80365   0.564   0.495   7.172  0.9593 -0.2868 -0.1266
  596MOL0     C80366   0.643   0.369   7.134 -0.3062  0.6972  0.2141
  596MOL0     C80367   0.786   0.413   7.090 -0.1555 -0.6994  0.7430
  596MOL0     C80368   0.864   0.306   7.010 -0.0347 -0.4309 -0.2877
  596MOL0     C80369   1.005   0.337   6.972  0.1973 -0.9765 -0.5877
  596MOL0    Cl80370   1.093   0.428   7.104  0.1504  0.1685 -0.4773
  596MOL0     C80371   0.621   0.730   7.775 -0.4593 -0.1473 -0.1878
  596MOL0     C80372   0.647   0.720   7.911  0.6364 -0.5104 -0.9360
  596MOL0     O80373   0.537   0.455   8.216 -0.7615 -0.0697  0.0061
  596MOL0     C80374   0.721   0.382   8.396  0.0416  0.1186  0.0761
  596MOL0     C80375   0.816   0.346   8.497 -0.1457 -0.9204  0.1793
  596MOL0     N80376   1.438   0.484   9.038 -0.5025 -0.4219 -0.2692
  596MOL0     N80377   1.563   0.506   9.027  0.0811  0.5439 -0.2301
  596MOL0     C80378   2.838   0.477   9.055 -0.1684  0.8342 -0.0144
  596MOL0     C80379   2.960   0.549   9.048 -0.1032  0.3386  0.0099
  596MOL0     C80380   3.257   0.870   8.992 -0.5382  0.4146 -0.6050
  596MOL0     C80381   3.336   0.938   8.900  0.1799  0.0075 -0.2606
  596MOL0     C80382   3.462   0.986   8.928 -0.1614  0.8934 -0.2901
  596MOL0     C80383   3.511   0.988   9.053 -1.0872  0.9550  0.9205
  596MOL0     O80384   3.630   1.052   9.070  0.5499 -0.5458  1.2909
  596MOL0     C80385   3.685   1.066   9.204  0.2350  0.7467 -0.4765
  596MOL0     C80386   3.823   1.140   9.206  1.2215 -0.4724 -0.5538
  596MOL0     C80387   3.954   1.059   9.230 -0.3431 -0.0659  0.3090
  596MOL0     C80388   3.951   0.962   9.350  0.1261 -0.6800 -0.7126
  596MOL0     C80389   4.076   0.880   9.354 -0.6635  0.5397 -0.2374
  596MOL0     C80390   4.180   0.816   9.341 -0.1920 -0.8894  0.9354
  596MOL0     C80391   3.438   0.918   9.149  0.6466 -0.0215  0.1529
  596MOL0     C80392   3.319   0.854   9.114  0.3444 -0.1629 -0.1291
  596MOL0     H80393   2.845   0.869   9.021  2.7787 -0.0091  0.1209
  596MOL0     H80394   2.620   0.731   8.998 -0.1483  1.3786 -2.6135
  596MOL0     H80395   2.596   0.273   8.972  2.1590  0.9309  0.1349
  596MOL0     H80396   2.652   0.318   9.134  0.9997  0.1084 -0.6826
  596MOL0     H80397   2.447   0.202   9.157  2.1494 -0.6006 -0.0507
  596MOL0     H80398   2.461   0.369   9.218  3.0393  1.3105 -0.9620
  596MOL0     H80399   2.332   0.442   8.988  0.7919  1.2693  1.9099
  596MOL0     H80400   2.301   0.263   8.986 -2.0718  0.2803 -0.1571
  596MOL0     H80401   2.215   0.290   9.213  0.4165  1.6489  1.1538
  596MOL0     H80402   2.205   0.457   9.200  1.6908 -0.9032  1.1381
  596MOL0     H80403   2.085   0.420   8.983  1.3730  0.2436 -1.3722
  596MOL0     H80404   2.083   0.247   9.006  0.4491  1.9279 -3.0211
  596MOL0     H80405   1.986   0.291   9.234  1.1063 -0.5581 -1.1396
  596MOL0     H80406   1.958   0.458   9.205  1.7828 -0.2168  1.2849
  596MOL0     H80407   1.832   0.205   9.052  1.0842  0.6830 -1.4515
  596MOL0     H80408   1.751   0.323   9.157  0.5473 -0.5683  1.0763
  596MOL0     H80409   1.812   0.348   8.867  0.4648 -2.1584  1.2778
  596MOL0     H80410   1.832   0.492   8.958  0.8142 -0.2937 -0.1475
  596MOL0     H80411   1.572   0.201   8.925  1.2466 -0.7016  0.1958
  596MOL0     H80412   1.319   0.190   8.911 -2.0338 -0.4395 -0.6796
  596MOL0     H80413   1.241   0.267   9.053 -0.9575  0.6577  0.2443
  596MOL0     H80414   1.153   0.452   8.902  0.3940  0.6655 -0.3500
  596MOL0     H80415   1.097   0.293   8.848 -2.5182  3.5743  1.9916
  596MOL0     H80416   1.250   0.266   8.696 -4.0326 -0.5651  1.4700
  596MOL0     H80417   1.340   0.427   8.720 -0.0303  0.6101 -4.0386
  596MOL0     H80418   1.186   0.463   8.532 -1.1643 -0.9205 -0.6073
  596MOL0     H80419   1.133   0.548   8.673  0.6562 -0.6829  2.1960
  596MOL0     H80420   1.035   0.579   8.450 -2.4448  2.7403  0.9948
  596MOL0     H80421   0.943   0.764   8.368 -0.1447  0.2146  0.7858
  596MOL0     H80422   0.943   0.679   8.208  1.7385 -1.8651  2.2425
  596MOL0     H80423   0.794   0.754   8.270 -1.3796 -1.5992  0.6865
  596MOL0     H80424   0.585   0.383   7.974  2.4506 -1.7306 -3.3279
  596MOL0     H80425   0.521   0.408   7.746 -3.0995  1.0791  2.3392
  596MOL0     H80426   0.513   0.799   7.513  1.9138  0.2618  1.8266
  596MOL0     H80427   0.671   0.725   7.510 -0.3501  0.1184  1.0362
  596MOL0     H80428   0.422   0.645   7.341 -1.2060  0.7605 -0.0601
  596MOL0     H80429   0.541   0.763   7.287  2.8461  0.3120  0.0897
  596MOL0     H80430   0.598   0.478   7.374 -1.9928 -0.6529  0.1903
  596MOL0     H80431   0.720   0.582   7.296  0.7121 -1.6354 -1.5905
  596MOL0     H80432   0.470   0.449   7.204  0.7312  0.5666  0.4615
  596MOL0     H80433   0.560   0.563   7.086 -1.1882 -1.6420 -1.2079
  596MOL0     H80434   0.599   0.311   7.052  1.8626 -0.1475 -0.4251
  596MOL0     H80435   0.638   0.296   7.216 -1.3620  1.2943  0.6985
  596MOL0     H80436   0.763   0.498   7.025 -1.2576  0.3843  2.4785
  596MOL0     H80437   0.843   0.451   7.175  2.3813 -2.1697 -0.1982
  596MOL0     H80438   0.809   0.275   6.921 -2.8585 -1.2735  1.6062
  596MOL0     H80439   0.871   0.212   7.066  0.4595  0.9236  2.0814
  596MOL0     H80440   0.997   0.386   6.875  4.5086 -3.1865 -2.2995
  596MOL0     H80441   1.060   0.245   6.952 -1.2993 -1.9024 -0.6066
  596MOL0     H80442   0.639   0.819   7.717  0.8346 -0.9395 -1.0549
  596MOL0     H80443   0.668   0.808   7.970 -0.1249 -2.2276  2.1288
  596MOL0     H80444   0.634   0.317   8.392 -0.1024  0.3313 -0.2586
  596MOL0     H80445   0.777   0.276   8.571  0.6183 -1.0359  0.4819
  596MOL0     H80446   2.847   0.370   9.073  0.0834  0.8810  0.1395
  596MOL0     H80447   3.051   0.490   9.047 -0.6860 -0.5864  0.3964
  596MOL0     H80448   3.287   0.951   8.804 -0.0356 -3.8750 -0.8459
  596MOL0     H80449   3.503   1.043   8.846  1.3612 -1.6921 -1.4402
  596MOL0     H80450   3.617   1.125   9.267  1.5529  2.7483 -0.8246
  596MOL0     H80451   3.694   0.970   9.254 -0.3522  1.0135  0.1618
  596MOL0     H80452   3.802   1.214   9.284 -1.5779 -1.6935 -0.0119
  596MOL0     H80453   3.831   1.207   9.121  1.3108  0.3056  0.0588
  596MOL0     H80454   4.040   1.126   9.242 -0.8699  0.3483  1.9306
  596MOL0     H80455   3.986   1.013   9.136 -4.1263 -1.3967 -0.4703
  596MOL0     H80456   3.862   0.899   9.339  0.4196 -1.5186  1.3133
  596MOL0     H80457   3.935   1.020   9.441 -0.4677 -1.0777 -0.5592
  596MOL0     H80458   4.267   0.755   9.333  0.4100  0.1569 -3.9241
  596MOL0     H80459   3.467   0.902   9.252 -2.6444  0.8386  1.3502
  596MOL0     H80460   3.283   0.782   9.188  2.0862  1.0150  1.9867
  597MOL0     O80461   5.127   1.175   6.490 -0.0831 -0.2135 -0.3111
  597MOL0     C80462   5.224   1.152   6.557 -0.3716  0.0720  0.0960
  597MOL0     O80463   5.234   1.054   6.654  0.2990  0.2832  0.2882
  597MOL0     C80464   5.125   0.980   6.675  0.3497 -1.2822  0.6539
  597MOL0     C80465   4.996   1.034   6.704 -0.7143  0.4957 -0.1203
  597MOL0     C80466   4.889   0.956   6.721  0.2374 -0.5024  1.0551
  597MOL0     C80467   4.903   0.818   6.693 -0.6847  0.2645  0.2762
  597MOL0     O80468   4.792   0.739   6.725 -0.4501  0.1772  0.6834
  597MOL0     C80469   4.726   0.668   6.622 -0.0291  0.6934  1.0592
  597MOL0     C80470   4.649   0.764   6.539 -0.5414 -0.8492 -0.3220
  597MOL0     C80471   4.551   0.687   6.442  0.1654 -0.4012 -0.5077
  597MOL0     C80472   4.459   0.790   6.367 -0.6006  0.5127 -0.0517
  597MOL0     C80473   4.387   0.880   6.466 -0.2406  0.2190  0.8464
  597MOL0     C80474   4.280   0.950   6.389 -0.5352 -0.1092  0.6779
  597MOL0     C80475   4.185   1.029   6.482  0.2127 -0.0266  0.1050
  597MOL0     C80476   4.107   1.139   6.409 -0.0956 -0.6522 -0.1987
  597MOL0     N80477   4.022   1.211   6.502 -0.6425  0.6258  0.0420
  597MOL0     C80478   4.040   1.324   6.570  0.3533  1.2912  1.0508
  597MOL0     C80479   3.930   1.346   6.635  0.3683 -0.5200 -0.3068
  597MOL0     C80480   3.890   1.470   6.704  0.1410  0.1389  0.3057
  597MOL0     C80481   3.810   1.568   6.624  0.8963 -0.0127  0.2739
  597MOL0     C80482   3.735   1.654   6.724  0.1073  1.1090 -0.2133
  597MOL0     C80483   3.697   1.789   6.662 -0.6913  0.4140 -0.7771
  597MOL0     O80484   3.597   1.861   6.722 -0.1339 -1.0942 -0.1764
  597MOL0     C80485   3.462   1.848   6.707 -0.1286  0.0134  0.7992
  597MOL0     C80486   3.408   1.763   6.614 -0.8967 -0.1052  0.3731
  597MOL0     C80487   3.266   1.749   6.605  0.6113  0.6305  0.5884
  597MOL0     C80488   3.216   1.631   6.531  0.5190  0.1563  0.0127
  597MOL0     C80489   3.178   1.818   6.686  0.5741  0.3438 -0.3438
  597MOL0     C80490   3.033   1.802   6.683 -0.1369 -0.0637 -0.1214
  597MOL0     O80491   2.962   1.812   6.805 -0.0936  0.7186 -0.2245
  597MOL0     C80492   2.829   1.783   6.792  0.2512 -0.0056 -0.6245
  597MOL0     C80493   2.724   1.880   6.769 -0.8494  0.2963 -0.2017
  597MOL0     C80494   2.593   1.845   6.760  0.0732  1.1575  0.6702
  597MOL0     C80495   2.556   1.711   6.776  0.1508  0.4921 -0.9033
  597MOL0     O80496   2.423   1.667   6.777 -0.1327  0.9783  0.0967
  597MOL0     C80497   2.336   1.710   6.675  0.4774 -0.1242  0.7885
  597MOL0     C80498   2.235   1.595   6.655  0.2771 -0.1190 -0.3935
  597MOL0     C80499   2.305   1.465   6.612  0.6116 -0.4994 -0.0376
  597MOL0     C80500   2.198   1.355   6.590  1.1238 -0.0530  0.0925
  597MOL0     C80501   2.246   1.217   6.543  0.5457 -0.7382 -0.0993
  597MOL0     C80502   2.347   1.225   6.435  0.0452  0.2382  0.5475
  597MOL0     C80503   2.346   1.100   6.341 -0.2900  0.7784  0.2935
  597MOL0     C80504   2.447   1.101   6.224  0.3286 -0.1497 -0.3070
  597MOL0    Cl80505   2.612   1.096   6.289 -0.1675  0.0710 -0.1488
  597MOL0     C80506   2.658   1.610   6.792 -0.4737  0.3462 -0.0089
  597MOL0     C80507   2.791   1.650   6.796 -0.6828  0.2553 -0.4046
  597MOL0     O80508   2.977   1.797   6.572  0.0628  0.0150  0.5454
  597MOL0     C80509   3.238   1.909   6.773 -0.1582  0.5814 -0.1299
  597MOL0     C80510   3.377   1.928   6.787  0.7652  0.2105  0.0442
  597MOL0     N80511   3.856   1.236   6.613 -0.7485  1.1768 -0.9968
  597MOL0     N80512   3.902   1.147   6.537 -0.5230 -0.4673  0.2944
  597MOL0     C80513   5.028   0.758   6.666 -0.5646 -0.2839  0.2928
  597MOL0     C80514   5.139   0.840   6.660  0.9632  0.3825  0.2355
  597MOL0     C80515   5.348   1.227   6.549 -0.2425 -0.0105  0.0259
  597MOL0     C80516   5.349   1.339   6.469  0.9714 -0.1493  0.3670
  597MOL0     C80517   5.455   1.434   6.470  0.1730 -0.2223  0.9244
  597MOL0     C80518   5.575   1.403   6.540 -0.2979  0.2693 -0.5907
  597MOL0     O80519   5.688   1.479   6.545  0.7647  0.6710  0.1623
  597MOL0     C80520   5.680   1.614   6.489  0.2660  0.1741  0.1896
  597MOL0     C80521   5.809   1.689   6.535 -0.0271 -0.5317  0.0496
  597MOL0     C80522   5.953   1.624   6.509 -0.0211  0.6162 -0.4504
  597MOL0     C80523   6.078   1.708   6.558  0.3824  0.1818  0.5929
  597MOL0     C80524   6.109   1.807   6.455  0.6976 -0.5941 -0.1010
  597MOL0     C80525   6.136   1.900   6.383 -0.6489 -0.2971 -0.1241
  597MOL0     C80526   5.575   1.288   6.618  0.4577 -0.5296 -0.0328
  597MOL0     C80527   5.470   1.202   6.611  0.3153  0.1336  0.4141
  597MOL0     H80528   4.976   1.139   6.725  1.8021  0.9575  0.3636
  597MOL0     H80529   4.800   1.008   6.756 -0.7050 -1.5194  0.2648
  597MOL0     H80530   4.800   0.613   6.564 -0.7647  0.4356  0.3542
  597MOL0     H80531   4.657   0.588   6.652  0.7713 -0.9404 -1.1898
  597MOL0     H80532   4.595   0.827   6.609 -1.5193  0.3156 -2.0394
  597MOL0     H80533   4.722   0.825   6.485 -0.9915 -1.5193 -1.7503
  597MOL0     H80534   4.609   0.637   6.363 -1.3443 -0.9523 -1.3134
  597MOL0     H80535   4.504   0.610   6.503  2.9059 -1.8023  0.0046
  597MOL0     H80536   4.528   0.850   6.307  0.3058 -2.3093 -2.0256
  597MOL0     H80537   4.393   0.741   6.295 -2.2939  2.3610  0.1615
  597MOL0     H80538   4.341   0.821   6.547  0.0310 -0.4754  0.5056
  597MOL0     H80539   4.457   0.949   6.514 -1.0340  1.1664  0.6731
  597MOL0     H80540   4.330   1.026   6.328 -2.2749  0.8043  0.3234
  597MOL0     H80541   4.230   0.873   6.330 -1.4182  0.2991  0.8684
  597MOL0     H80542   4.117   0.955   6.525 -0.5496  1.1971  1.0968
  597MOL0     H80543   4.244   1.066   6.567  1.5447 -1.7247 -0.0386
  597MOL0     H80544   4.041   1.096   6.333 -0.2060 -1.5413  0.3784
  597MOL0     H80545   4.181   1.203   6.360  1.1797 -0.4336  1.8831
  597MOL0     H80546   4.112   1.402   6.546  0.0906  0.6576 -2.3435
  597MOL0     H80547   3.818   1.434   6.779  1.2834 -0.8607  0.9568
  597MOL0     H80548   3.965   1.525   6.761 -0.5791 -0.2410  1.6854
  597MOL0     H80549   3.739   1.512   6.562 -0.5298  1.8835  0.1042
  597MOL0     H80550   3.883   1.628   6.569  2.0998 -1.4992  0.1895
  597MOL0     H80551   3.786   1.671   6.819 -1.8691 -0.1062  1.1337
  597MOL0     H80552   3.641   1.601   6.743 -1.3209  2.8163 -2.1047
  597MOL0     H80553   3.684   1.784   6.554 -0.0465  1.8837 -0.9459
  597MOL0     H80554   3.792   1.843   6.672 -1.3911  1.7470 -1.0210
  597MOL0     H80555   3.479   1.699   6.562 -0.6664 -1.7268  2.5837
  597MOL0     H80556   3.172   1.555   6.596  1.4813 -1.8854 -1.5959
  597MOL0     H80557   3.134   1.658   6.463 -1.7802 -1.9827  1.7416
  597MOL0     H80558   3.292   1.579   6.472 -0.2853 -1.4158  0.3007
  597MOL0     H80559   2.761   1.981   6.761 -0.0084  0.0663  0.5376
  597MOL0     H80560   2.517   1.919   6.734 -2.3396 -2.0044 -2.4236
  597MOL0     H80561   2.289   1.805   6.700  2.8134  0.7223  2.3546
  597MOL0     H80562   2.402   1.728   6.590  0.3727 -1.2739  0.4480
  597MOL0     H80563   2.204   1.577   6.758 -2.3785  2.0617 -0.7040
  597MOL0     H80564   2.151   1.619   6.590  0.2711  1.1060  0.0441
  597MOL0     H80565   2.379   1.441   6.689 -0.2743 -0.7955  0.7378
  597MOL0     H80566   2.350   1.487   6.514  0.4548  0.9466  0.2028
  597MOL0     H80567   2.140   1.352   6.683 -1.7107  1.1002 -1.5017
  597MOL0     H80568   2.130   1.395   6.514 -0.5381 -0.3279  1.3585
  597MOL0     H80569   2.163   1.149   6.522 -0.7521 -0.5254  3.5298
  597MOL0     H80570   2.295   1.159   6.621  0.5997 -1.1521 -0.4379
  597MOL0     H80571   2.321   1.310   6.371 -2.8374 -1.0851 -0.2061
  597MOL0     H80572   2.448   1.233   6.478 -0.9886  0.8494  3.0669
  597MOL0     H80573   2.243   1.096   6.304 -0.3166  2.6109  0.0926
  597MOL0     H80574   2.365   1.010   6.401  3.1665  0.1648 -1.4315
  597MOL0     H80575   2.434   1.194   6.168  0.8617  0.0918 -0.0310
  597MOL0     H80576   2.439   1.020   6.150 -0.7961  0.5218 -0.9375
  597MOL0     H80577   2.631   1.505   6.789 -1.0067  0.4098  1.5250
  597MOL0     H80578   2.860   1.566   6.795  0.9452  1.5653 -0.9661
  597MOL0     H80579   3.171   1.976   6.826  0.5924  1.5465 -0.3892
  597MOL0     H80580   3.415   1.988   6.869 -0.1535 -2.0750  2.2813
  597MOL0     H80581   5.036   0.650   6.655 -2.0204 -0.4779  0.8273
  597MOL0     H80582   5.235   0.796   6.637  0.0148 -0.9710 -1.3841
  597MOL0     H80583   5.259   1.364   6.415  0.9297  4.4297  2.1147
  597MOL0     H80584   5.451   1.530   6.418  4.1905  0.5961  1.8391
  597MOL0     H80585   5.691   1.618   6.380  1.9393  2.2736  0.3681
  597MOL0     H80586   5.589   1.662   6.526 -0.6750 -1.9071  0.7203
  597MOL0     H80587   5.779   1.703   6.639  1.0987 -2.7307  0.7488
  597MOL0     H80588   5.812   1.788   6.488  1.6664  0.3713  1.9032
  597MOL0     H80589   5.970   1.610   6.402  3.1040 -0.9136  0.1297
  597MOL0     H80590   5.952   1.525   6.554 -3.4753  0.9665  0.5510
  597MOL0     H80591   6.157   1.636   6.581  1.9979  1.8476  0.5036
  597MOL0     H80592   6.049   1.766   6.646 -2.4714  0.3582 -0.3364
  597MOL0     H80593   6.179   1.968   6.312  2.4648 -2.2609 -0.3133
  597MOL0     H80594   5.653   1.261   6.689 -0.6074 -0.1759  1.3301
  597MOL0     H80595   5.482   1.124   6.686 -0.7108  2.2898  3.0285
  598MOL0     O80596   4.714   8.767   6.828  0.7754 -0.3601 -0.9596
  598MOL0     C80597   4.816   8.742   6.893 -1.1267 -0.2498  0.1624
  598MOL0     O80598   4.844   8.635   6.960  0.5636  0.2790 -0.3056
  598MOL0     C80599   4.880   8.520   6.897  0.9939 -0.1873  0.1651
  598MOL0     C80600   4.838   8.489   6.768 -0.4851 -0.5931 -0.2113
  598MOL0     C80601   4.860   8.366   6.708  0.9084 -0.0568 -0.2771
  598MOL0     C80602   4.932   8.266   6.774  1.0798 -0.1568 -0.0823
  598MOL0     O80603   4.953   8.136   6.725  0.5189 -0.2039  0.5877
  598MOL0     C80604   4.857   8.073   6.636  1.1589 -0.7313  0.2770
  598MOL0     C80605   4.744   8.020   6.729  1.2925 -0.0686  0.2785
  598MOL0     C80606   4.637   7.931   6.671  0.0262  0.2506 -0.9856
  598MOL0     C80607   4.517   7.925   6.765  0.4033  0.2149 -0.3910
  598MOL0     C80608   4.412   7.819   6.723  0.5631  0.4849  0.0640
  598MOL0     C80609   4.330   7.870   6.602  0.6603 -0.0750 -0.4814
  598MOL0     C80610   4.220   7.774   6.550  0.7332 -0.8381 -0.1049
  598MOL0     C80611   4.257   7.695   6.425  0.1103 -0.1598  0.5329
  598MOL0     N80612   4.140   7.658   6.343  0.0089  0.8777 -0.0035
  598MOL0     C80613   4.079   7.729   6.247 -0.5855  0.6130  0.6771
  598MOL0     C80614   4.002   7.643   6.177 -0.6198  0.7181  0.7674
  598MOL0     C80615   3.924   7.683   6.053  0.2484  0.2650 -0.2479
  598MOL0     C80616   3.778   7.687   6.088  0.9010  1.0315 -0.0814
  598MOL0     C80617   3.701   7.725   5.960  0.3271 -0.0051  0.9839
  598MOL0     C80618   3.551   7.728   5.985  0.9458 -0.1986  0.0466
  598MOL0     O80619   3.525   7.821   6.083  0.5232 -0.4224  0.5583
  598MOL0     C80620   3.424   7.909   6.069 -0.2211  0.3335  0.2572
  598MOL0     C80621   3.293   7.866   6.028 -0.7351  0.1573 -0.4172
  598MOL0     C80622   3.177   7.955   6.025  0.5575 -0.1880 -0.1178
  598MOL0     C80623   3.044   7.890   6.000  0.4354 -1.0098 -0.3524
  598MOL0     C80624   3.190   8.083   6.084  0.1883  0.3757 -0.1111
  598MOL0     C80625   3.080   8.185   6.094 -0.4333 -0.3430 -0.3735
  598MOL0     O80626   2.954   8.162   6.057  1.1427  0.0390 -0.3487
  598MOL0     C80627   2.855   8.261   6.033 -0.2687 -0.1463  0.9246
  598MOL0     C80628   2.889   8.394   5.978  0.4882 -0.1326  0.6882
  598MOL0     C80629   2.791   8.490   5.944  0.6716 -0.2221  0.9587
  598MOL0     C80630   2.654   8.455   5.970 -0.6727  0.3049 -0.7511
  598MOL0     O80631   2.558   8.539   5.927 -0.2694  0.0679 -0.2730
  598MOL0     C80632   2.476   8.495   5.823 -1.1921 -0.6164  0.4238
  598MOL0     C80633   2.327   8.511   5.860 -0.2202  0.1042 -0.0488
  598MOL0     C80634   2.246   8.450   5.747 -0.1821 -0.6242  0.0448
  598MOL0     C80635   2.094   8.481   5.760 -0.0679 -0.1425 -0.2794
  598MOL0     C80636   2.009   8.428   5.648  0.6419  0.3410 -0.0575
  598MOL0     C80637   2.059   8.471   5.517  0.4413  0.5012  0.5112
  598MOL0     C80638   1.981   8.395   5.401 -0.6877 -0.5579  0.0892
  598MOL0     C80639   2.077   8.296   5.328 -0.2309 -0.1532 -0.2764
  598MOL0    Cl80640   1.992   8.230   5.180  0.2155  0.2763  0.3575
  598MOL0     C80641   2.625   8.325   6.026  0.2282  0.0626  0.1477
  598MOL0     C80642   2.721   8.232   6.060 -0.8899 -0.1428  0.8112
  598MOL0     O80643   3.118   8.295   6.135  0.0773 -0.1333 -0.0333
  598MOL0     C80644   3.325   8.117   6.121 -0.7732 -0.6596 -0.7860
  598MOL0     C80645   3.431   8.029   6.126  0.5792 -0.6127 -0.0810
  598MOL0     N80646   4.017   7.518   6.230 -0.1938  0.0544  0.5444
  598MOL0     N80647   4.100   7.532   6.329 -0.0312  0.4566  0.2616
  598MOL0     C80648   4.969   8.296   6.904 -0.5627  0.4428 -0.5026
  598MOL0     C80649   4.950   8.418   6.966 -0.3551 -0.7904 -0.0337
  598MOL0     C80650   4.910   8.850   6.895 -0.2534  0.1983  0.8954
  598MOL0     C80651   4.913   8.963   6.804 -0.5352  0.9627  0.3568
  598MOL0     C80652   5.010   9.061   6.794  0.3918  0.2933 -0.3038
  598MOL0     C80653   5.113   9.051   6.884  1.0291  0.0530 -0.2569
  598MOL0     O80654   5.201   9.150   6.867 -0.0316  0.0121  0.0217
  598MOL0     C80655   5.265   9.203   6.985  0.1393 -0.3868 -0.7412
  598MOL0     C80656   5.383   9.297   6.943  0.4475  0.0588 -0.9422
  598MOL0     C80657   5.485   9.326   7.059  0.3491  0.6672  0.4587
  598MOL0     C80658   5.559   9.454   7.020 -0.4522  0.1681 -0.9186
  598MOL0     C80659   5.668   9.467   7.118 -0.4791  0.1410 -0.1829
  598MOL0     C80660   5.749   9.483   7.205 -0.2760  0.3523 -0.8198
  598MOL0     C80661   5.120   8.943   6.980 -0.1145 -0.6733 -0.0018
  598MOL0     C80662   5.016   8.849   6.988 -0.7678  0.8036  0.7504
  598MOL0     H80663   4.772   8.546   6.705  0.5444 -2.0147 -2.7345
  598MOL0     H80664   4.819   8.339   6.611  0.6304 -0.4926 -0.0424
  598MOL0     H80665   4.823   8.133   6.552 -1.0701 -1.1899  0.7948
  598MOL0     H80666   4.911   7.991   6.588  2.0873  0.5762 -0.9924
  598MOL0     H80667   4.804   7.966   6.804 -1.7505 -2.3225  1.3368
  598MOL0     H80668   4.678   8.099   6.766  0.2457  1.1840 -3.8214
  598MOL0     H80669   4.603   7.970   6.574  1.8735  2.5863 -0.7665
  598MOL0     H80670   4.676   7.829   6.671 -1.0949 -0.2375  1.3641
  598MOL0     H80671   4.545   7.897   6.867 -1.3641 -0.8006 -0.1439
  598MOL0     H80672   4.464   8.020   6.771 -1.3174 -0.6478 -1.2864
  598MOL0     H80673   4.462   7.729   6.688  0.6337 -0.2165  1.8689
  598MOL0     H80674   4.350   7.798   6.810  2.0332 -1.1448  0.7666
  598MOL0     H80675   4.280   7.963   6.631  0.3105 -1.6531  5.0127
  598MOL0     H80676   4.397   7.888   6.517 -1.4486 -2.6529 -2.8758
  598MOL0     H80677   4.188   7.693   6.616  1.9351 -1.6172 -0.4446
  598MOL0     H80678   4.130   7.831   6.523  1.6763 -0.2414 -2.1102
  598MOL0     H80679   4.317   7.605   6.442  0.1799 -0.2592 -0.2245
  598MOL0     H80680   4.321   7.755   6.359  0.1290 -2.1932 -1.4020
  598MOL0     H80681   4.088   7.836   6.237  0.6362  0.6516  1.9432
  598MOL0     H80682   3.957   7.782   6.019 -0.7908  1.3025  1.6063
  598MOL0     H80683   3.950   7.610   5.976 -1.3013 -1.5888  0.9126
  598MOL0     H80684   3.754   7.756   6.169 -0.6971 -0.9717  1.2605
  598MOL0     H80685   3.746   7.589   6.126  2.5125  0.3880 -0.2995
  598MOL0     H80686   3.718   7.640   5.893  0.4798  1.3748 -0.7785
  598MOL0     H80687   3.744   7.815   5.915 -0.1517  0.7492  1.9959
  598MOL0     H80688   3.528   7.632   6.032  0.0425 -0.2988 -0.5815
  598MOL0     H80689   3.491   7.740   5.895  1.1439  2.9135  0.2296
  598MOL0     H80690   3.285   7.759   6.014  2.5744 -0.5736  2.0320
  598MOL0     H80691   3.057   7.787   5.963  2.3664 -1.8361  2.3267
  598MOL0     H80692   2.982   7.894   6.090  0.4394  2.0086 -0.4070
  598MOL0     H80693   2.996   7.953   5.925 -1.5785  1.2074  2.5741
  598MOL0     H80694   2.991   8.395   5.941  0.1587 -3.1880 -0.5440
  598MOL0     H80695   2.831   8.579   5.896 -1.2207  0.7370  1.0684
  598MOL0     H80696   2.504   8.550   5.732 -2.1217  0.5013  0.7986
  598MOL0     H80697   2.485   8.387   5.805 -1.9387 -0.3682 -1.7940
  598MOL0     H80698   2.303   8.474   5.959  1.3582  0.7912  0.6332
  598MOL0     H80699   2.319   8.620   5.870  1.7345  0.5817 -2.6192
  598MOL0     H80700   2.243   8.341   5.762 -4.4432 -0.6031  0.6830
  598MOL0     H80701   2.287   8.479   5.650  2.4652  1.2603  1.6131
  598MOL0     H80702   2.059   8.428   5.849  0.5292 -2.0124 -1.1017
  598MOL0     H80703   2.070   8.587   5.767 -1.2637 -0.2543 -2.0514
  598MOL0     H80704   1.906   8.461   5.666  0.6035  3.0650 -3.9228
  598MOL0     H80705   2.000   8.320   5.655 -2.6510  0.5654  0.8956
  598MOL0     H80706   2.039   8.577   5.503 -1.4880  0.4065  2.0461
  598MOL0     H80707   2.164   8.443   5.503  0.2272  0.9456 -2.5894
  598MOL0     H80708   1.941   8.466   5.329 -2.4295  0.2715  1.7698
  598MOL0     H80709   1.899   8.345   5.454 -0.4980  1.5770  2.6130
  598MOL0     H80710   2.111   8.211   5.388  2.3779  1.2411  0.3744
  598MOL0     H80711   2.165   8.355   5.298 -1.0068  0.2545 -1.8263
  598MOL0     H80712   2.520   8.301   6.041  0.0709 -0.1013 -1.0892
  598MOL0     H80713   2.691   8.147   6.121 -2.3199 -1.6888 -1.8545
  598MOL0     H80714   3.340   8.220   6.151  0.3057 -0.8403 -0.6683
  598MOL0     H80715   3.532   8.052   6.159  0.5885 -0.4513 -0.2182
  598MOL0     H80716   5.010   8.214   6.962  0.0425  0.7832 -0.4341
  598MOL0     H80717   5.001   8.430   7.061  1.0311 -0.6702 -0.7676
  598MOL0     H80718   4.839   8.958   6.724 -0.7923 -0.0715  0.6372
  598MOL0     H80719   4.996   9.144   6.726  1.3192  1.7326  1.1780
  598MOL0     H80720   5.196   9.261   7.046 -0.3335  0.1104 -1.7276
  598MOL0     H80721   5.305   9.117   7.040  0.6501 -0.3641 -1.0681
  598MOL0     H80722   5.347   9.394   6.908 -0.7238  0.7613  1.8864
  598MOL0     H80723   5.449   9.242   6.876  2.6490  0.2526  0.9309
  598MOL0     H80724   5.559   9.245   7.067  0.5647  0.5427 -2.1494
  598MOL0     H80725   5.440   9.352   7.155 -0.5145  1.9104 -0.2586
  598MOL0     H80726   5.499   9.545   7.028 -0.4983  0.1013 -0.4675
  598MOL0     H80727   5.598   9.453   6.917 -4.8144  0.8663 -2.7980
  598MOL0     H80728   5.825   9.497   7.279  1.1369 -0.0425 -2.1613
  598MOL0     H80729   5.210   8.926   7.039 -0.5370 -1.2340  0.4927
  598MOL0     H80730   5.032   8.773   7.064  1.6989 -0.9729 -1.3571
  599MOL0     O80731  10.736  10.404  11.090 -0.2542  0.1091  0.5621
  599MOL0     C80732  10.805  10.505  11.073 -0.5343 -0.3230  1.1099
  599MOL0     O80733  10.768  10.641  11.092 -0.6678 -0.7391  0.2336
  599MOL0     C80734  10.653  10.674  11.145 -0.1186 -0.1221 -0.0758
  599MOL0     C80735  10.599  10.797  11.097  0.5933 -0.6136 -0.9470
  599MOL0     C80736  10.490  10.853  11.157  0.0224  0.7229 -0.2756
  599MOL0     C80737  10.421  10.794  11.260  0.9014 -0.1910  0.3768
  599MOL0     O80738  10.302  10.843  11.314  1.3931 -0.2656  0.2542
  599MOL0     C80739  10.180  10.851  11.231  0.6944  0.1501  0.0535
  599MOL0     C80740  10.107  10.713  11.204  0.0862 -0.2093 -0.5246
  599MOL0     C80741  10.054  10.651  11.340 -0.4033  0.0006 -0.6718
  599MOL0     C80742   9.963  10.740  11.423  0.6137 -0.8532  0.5553
  599MOL0     C80743   9.905  10.672  11.540  0.1780 -1.1062 -0.0913
  599MOL0     C80744   9.836  10.773  11.639  0.8250 -0.6384 -0.6467
  599MOL0     C80745   9.813  10.706  11.774  0.0741 -0.1490 -0.2541
  599MOL0     C80746   9.722  10.783  11.865 -0.0236  0.1306 -0.4099
  599MOL0     N80747   9.592  10.811  11.813  0.3112 -0.6450  0.9721
  599MOL0     C80748   9.499  10.717  11.781  0.3530 -0.7757 -0.6290
  599MOL0     C80749   9.395  10.784  11.729  0.4681  0.0540 -0.0404
  599MOL0     C80750   9.253  10.744  11.689 -0.2442  0.1719  0.2946
  599MOL0     C80751   9.225  10.599  11.647  0.4702  0.6505 -0.1720
  599MOL0     C80752   9.197  10.518  11.769 -0.1039  0.4879  0.8107
  599MOL0     C80753   9.204  10.370  11.750  0.2746  0.2729  0.9171
  599MOL0     O80754   9.114  10.321  11.646  0.3101 -0.4700 -0.1936
  599MOL0     C80755   8.980  10.321  11.663  0.2541  0.3404 -0.2259
  599MOL0     C80756   8.907  10.320  11.784  0.1549 -0.5466 -0.1547
  599MOL0     C80757   8.769  10.309  11.793 -0.5128  0.5225  0.1611
  599MOL0     C80758   8.706  10.319  11.929  0.3778  0.1317  0.1063
  599MOL0     C80759   8.705  10.276  11.667 -0.2313  0.2610 -0.1417
  599MOL0     C80760   8.557  10.266  11.653 -0.0973  0.0806  0.1154
  599MOL0     O80761   8.497  10.202  11.538 -0.6473 -0.2443 -0.2943
  599MOL0     C80762   8.369  10.171  11.549  1.2263 -0.1329  0.2636
  599MOL0     C80763   8.324  10.079  11.637  0.5387 -0.9765  0.0588
  599MOL0     C80764   8.195  10.042  11.643  0.9248  0.4161 -0.0508
  599MOL0     C80765   8.097  10.096  11.555  0.1813 -0.1273 -0.1239
  599MOL0     O80766   7.967  10.048  11.553 -0.4208  0.4107  0.4885
  599MOL0     C80767   7.944   9.920  11.613 -0.2048 -0.3288  0.6860
  599MOL0     C80768   7.841   9.836  11.532 -0.8594  0.3497 -0.1475
  599MOL0     C80769   7.700   9.897  11.541 -0.4025  0.4834 -0.4629
  599MOL0     C80770   7.612   9.807  11.459  0.8003  0.9216 -1.1158
  599MOL0     C80771   7.470   9.860  11.471 -0.0851 -0.6935 -0.6223
  599MOL0     C80772   7.381   9.801  11.365 -0.7071  0.4158  0.3951
  599MOL0     C80773   7.241   9.868  11.374  0.0495 -0.4187 -0.1474
  599MOL0     C80774   7.176   9.852  11.510  0.5858 -0.3493  0.0252
  599MOL0    Cl80775   7.017   9.935  11.499  0.3531  0.0133 -0.0914
  599MOL0     C80776   8.136  10.201  11.476 -0.6217 -0.2714 -0.0958
  599MOL0     C80777   8.271  10.228  11.467  0.0470  0.9473  0.2366
  599MOL0     O80778   8.488  10.297  11.750  0.1647 -0.1357 -0.5889
  599MOL0     C80779   8.773  10.272  11.539 -0.2316 -0.1752 -0.3812
  599MOL0     C80780   8.907  10.305  11.541  0.1233  0.5960  0.7775
  599MOL0     N80781   9.432  10.921  11.737  0.4270  0.4117  0.0914
  599MOL0     N80782   9.552  10.939  11.782  1.1419 -0.1514 -0.0405
  599MOL0     C80783  10.475  10.669  11.312  0.3963 -0.1438 -0.5557
  599MOL0     C80784  10.585  10.610  11.249  0.7937  0.3422 -0.9006
  599MOL0     C80785  10.949  10.485  11.034  0.2537  0.2799 -1.2477
  599MOL0     C80786  11.015  10.367  11.066  0.3951  0.1392  0.0920
  599MOL0     C80787  11.149  10.349  11.026 -0.3487  0.0187 -1.2501
  599MOL0     C80788  11.220  10.447  10.957 -1.2467 -0.0070  0.2337
  599MOL0     O80789  11.346  10.432  10.903  0.0528 -0.2015 -0.3277
  599MOL0     C80790  11.438  10.333  10.946 -0.0068 -0.3728 -0.0859
  599MOL0     C80791  11.586  10.366  10.970  0.6446 -1.4218  0.5249
  599MOL0     C80792  11.611  10.485  11.065  0.8934  0.2031  0.4294
  599MOL0     C80793  11.752  10.518  11.094  0.2921  0.2861 -0.7349
  599MOL0     C80794  11.829  10.549  10.975 -0.5086 -0.0073 -0.7452
  599MOL0     C80795  11.899  10.581  10.879 -0.5002  1.4360  0.4180
  599MOL0     C80796  11.155  10.569  10.933  0.0764  0.1079  0.4052
  599MOL0     C80797  11.022  10.588  10.976 -0.3556  0.3129  0.7977
  599MOL0     H80798  10.659  10.854  11.027 -1.4015  2.8011 -0.1390
  599MOL0     H80799  10.437  10.946  11.138 -2.8700 -0.5479  1.0238
  599MOL0     H80800  10.108  10.921  11.274 -0.1995  0.3678 -1.7156
  599MOL0     H80801  10.210  10.895  11.136  0.6144  1.1709  0.4904
  599MOL0     H80802  10.020  10.735  11.142  1.9362 -1.3490 -3.7541
  599MOL0     H80803  10.180  10.649  11.155  1.7891 -0.1123  1.7215
  599MOL0     H80804   9.997  10.561  11.311  3.1702 -2.2421 -1.3663
  599MOL0     H80805  10.144  10.643  11.401 -0.6828  0.2895 -0.2137
  599MOL0     H80806  10.020  10.825  11.462  1.0229 -0.5504 -0.6570
  599MOL0     H80807   9.880  10.780  11.365 -0.0789  2.4131  3.4892
  599MOL0     H80808   9.843  10.587  11.510 -1.3099 -0.4286  0.9284
  599MOL0     H80809   9.988  10.625  11.595  3.2452  3.2211 -0.5439
  599MOL0     H80810   9.899  10.862  11.643 -0.5224  0.4729 -2.6666
  599MOL0     H80811   9.741  10.799  11.591  0.9344  2.0981  0.4484
  599MOL0     H80812   9.782  10.603  11.756 -1.1071  0.1547 -0.0517
  599MOL0     H80813   9.911  10.698  11.823 -1.1033 -1.3228  2.0789
  599MOL0     H80814   9.765  10.877  11.898 -2.4492  0.3962  2.3558
  599MOL0     H80815   9.709  10.712  11.947 -0.0650 -4.5617 -3.9814
  599MOL0     H80816   9.496  10.609  11.798  1.6151 -0.4299  2.3848
  599MOL0     H80817   9.180  10.778  11.763 -1.0173  0.8246 -0.7354
  599MOL0     H80818   9.224  10.811  11.608 -1.9129  1.1958  1.6499
  599MOL0     H80819   9.309  10.557  11.590  0.5025 -0.7977  0.8731
  599MOL0     H80820   9.139  10.588  11.581 -0.9235  2.6671  1.2018
  599MOL0     H80821   9.095  10.535  11.805  0.5481  2.1447  1.9795
  599MOL0     H80822   9.264  10.551  11.848  0.0118 -0.7927  1.2736
  599MOL0     H80823   9.191  10.333  11.851  0.8404 -1.3057  0.4412
  599MOL0     H80824   9.308  10.358  11.718 -0.2578  0.9020 -1.2031
  599MOL0     H80825   8.966  10.346  11.872 -0.6193  0.6355  0.0398
  599MOL0     H80826   8.773  10.313  12.014  0.5136  0.9564  0.0689
  599MOL0     H80827   8.643  10.408  11.938 -0.6470 -0.7457  2.0042
  599MOL0     H80828   8.636  10.235  11.936  0.7832 -0.2317 -0.1671
  599MOL0     H80829   8.393  10.021  11.697 -0.0483 -1.8405 -0.0749
  599MOL0     H80830   8.170   9.971  11.722 -1.0197  0.7794 -0.3076
  599MOL0     H80831   8.034   9.858  11.604  1.0842  1.7571 -2.1629
  599MOL0     H80832   7.917   9.931  11.719  1.0385  2.9523  0.7788
  599MOL0     H80833   7.873   9.812  11.430 -1.1578 -0.0842 -0.1436
  599MOL0     H80834   7.840   9.741  11.586 -1.1542 -0.4926 -1.5843
  599MOL0     H80835   7.706   9.993  11.489 -0.7954  0.3526 -0.7564
  599MOL0     H80836   7.652   9.909  11.639 -0.6691 -0.7966 -0.4176
  599MOL0     H80837   7.632   9.811  11.352  3.1003  0.2054 -0.7568
  599MOL0     H80838   7.610   9.702  11.491 -0.4701  1.1578 -0.3312
  599MOL0     H80839   7.467   9.968  11.457 -2.5937 -0.5967  0.1067
  599MOL0     H80840   7.426   9.822  11.564 -0.7450  1.2400 -0.0946
  599MOL0     H80841   7.425   9.815  11.266 -0.8836 -0.1263  0.2359
  599MOL0     H80842   7.377   9.692  11.371 -0.9414  0.2044 -2.3527
  599MOL0     H80843   7.169   9.827  11.302 -0.3468  0.9154 -0.5550
  599MOL0     H80844   7.255   9.974  11.349  1.5267 -0.2354  1.3231
  599MOL0     H80845   7.232   9.909  11.584 -2.3995  3.4149 -0.2716
  599MOL0     H80846   7.158   9.749  11.541  1.3254  0.2212  2.6367
  599MOL0     H80847   8.066  10.254  11.413  1.8971  1.7072 -1.4346
  599MOL0     H80848   8.305  10.303  11.396  1.2683 -0.3919 -0.6431
  599MOL0     H80849   8.712  10.274  11.449 -1.2231  2.2056  0.2854
  599MOL0     H80850   8.962  10.312  11.448 -0.1175  1.2049  0.6789
  599MOL0     H80851  10.431  10.621  11.399  1.8485 -0.3082  0.1276
  599MOL0     H80852  10.620  10.512  11.282  1.0751 -0.0802 -2.3452
  599MOL0     H80853  10.965  10.278  11.104 -0.0892 -0.6910 -2.2998
  599MOL0     H80854  11.192  10.257  11.064 -0.0677  0.3196 -0.8384
  599MOL0     H80855  11.399  10.287  11.037 -1.6089  1.3218  0.1529
  599MOL0     H80856  11.449  10.264  10.862 -2.9488 -0.6577 -0.3633
  599MOL0     H80857  11.649  10.391  10.884  0.7228  1.4075  1.2799
  599MOL0     H80858  11.633  10.281  11.018  1.2540 -1.5202 -0.2364
  599MOL0     H80859  11.563  10.469  11.162  2.3190  1.7238  1.4472
  599MOL0     H80860  11.558  10.572  11.024  1.3323 -0.7330 -2.3300
  599MOL0     H80861  11.793  10.428  11.141  0.9203  0.8322 -0.1984
  599MOL0     H80862  11.749  10.603  11.164 -0.5308  0.2877 -0.7596
  599MOL0     H80863  11.967  10.608  10.802  1.7119  0.5810  1.9640
  599MOL0     H80864  11.213  10.640  10.875  0.3682  0.2493  0.8708
  599MOL0     H80865  10.975  10.684  10.957 -2.4265 -1.3228 -3.5348
  600MOL0     O80866   6.218  11.182   4.456  0.8859  0.1328  0.6142
  600MOL0     C80867   6.342  11.206   4.474  0.5435  0.1026 -0.9422
  600MOL0     O80868   6.416  11.311   4.413 -0.3413 -0.1677 -0.5059
  600MOL0     C80869   6.358  11.380   4.310  0.7066 -0.5026  0.1386
  600MOL0     C80870   6.433  11.401   4.191 -0.2874 -0.3704  0.9479
  600MOL0     C80871   6.399  11.497   4.105 -0.0370 -0.6420 -0.4198
  600MOL0     C80872   6.280  11.570   4.126 -0.5639  0.2856  0.1062
  600MOL0     O80873   6.255  11.665   4.032  0.3001 -0.1162 -0.0890
  600MOL0     C80874   6.122  11.743   4.036  0.2524 -0.0695  0.0997
  600MOL0     C80875   6.099  11.803   3.899 -0.0562  0.4357 -0.0097
  600MOL0     C80876   6.195  11.925   3.871  0.6287  0.9730  1.4317
  600MOL0     C80877   6.140  11.998   3.746  0.3478 -0.0830 -0.3350
  600MOL0     C80878   6.255  12.068   3.668 -0.0492 -0.7551 -0.6346
  600MOL0     C80879   6.202  12.130   3.543  0.8508 -0.5774 -0.2594
  600MOL0     C80880   6.324  12.180   3.458 -0.0581 -0.5494  0.2383
  600MOL0     C80881   6.310  12.157   3.305 -0.2050  0.2683 -1.0184
  600MOL0     N80882   6.391  12.259   3.235  0.9088  0.1075  0.4557
  600MOL0     C80883   6.523  12.288   3.254  0.3721 -0.4960 -0.8902
  600MOL0     C80884   6.522  12.412   3.203 -0.7307  0.4755  0.7859
  600MOL0     C80885   6.634  12.516   3.204  0.4540  0.4486  1.1979
  600MOL0     C80886   6.613  12.612   3.318  0.3742  0.3661  0.1823
  600MOL0     C80887   6.728  12.719   3.334  0.4947  0.2372  0.1788
  600MOL0     C80888   6.872  12.673   3.360 -1.0500  0.5716  0.4822
  600MOL0     O80889   6.963  12.775   3.401 -1.1235 -0.2123  1.0236
  600MOL0     C80890   6.980  12.803   3.533 -0.5455  0.6389  0.5694
  600MOL0     C80891   6.944  12.728   3.641 -1.0787 -0.3799 -0.5488
  600MOL0     C80892   6.998  12.752   3.768  0.6615 -1.3431  0.3110
  600MOL0     C80893   6.950  12.679   3.892 -0.5137  0.0297  0.5247
  600MOL0     C80894   7.061  12.880   3.788  0.2001  1.0625  0.3798
  600MOL0     C80895   7.107  12.932   3.916  0.5115  0.5104 -0.2914
  600MOL0     O80896   7.088  13.066   3.934 -0.6963 -0.1762 -0.4894
  600MOL0     C80897   7.119  13.131   4.053  0.1323 -0.1807 -0.4386
  600MOL0     C80898   7.081  13.082   4.178 -0.3890  0.0268 -0.4529
  600MOL0     C80899   7.131  13.144   4.296 -0.6219  0.0113  0.8275
  600MOL0     C80900   7.215  13.253   4.282  0.4039  0.6059 -0.4934
  600MOL0     O80901   7.262  13.322   4.387  0.0389 -0.0535  0.6873
  600MOL0     C80902   7.276  13.259   4.511  0.7202  0.0322 -0.2437
  600MOL0     C80903   7.386  13.332   4.595  0.4118 -0.3014  0.5985
  600MOL0     C80904   7.340  13.456   4.661  0.9015 -0.4818 -1.0320
  600MOL0     C80905   7.470  13.513   4.715 -0.7270 -0.0589  0.4675
  600MOL0     C80906   7.443  13.639   4.789 -0.1923  0.6365  0.7265
  600MOL0     C80907   7.566  13.714   4.831 -0.2423 -0.4430  0.4978
  600MOL0     C80908   7.659  13.633   4.919  0.3940  0.0123  1.3657
  600MOL0     C80909   7.773  13.717   4.984 -0.2834  0.5430 -0.3893
  600MOL0    Cl80910   7.840  13.825   4.862  0.1753  0.4060 -0.2211
  600MOL0     C80911   7.244  13.307   4.158 -0.0249 -0.4165  0.3837
  600MOL0     C80912   7.198  13.243   4.047 -0.4887 -0.4614  0.3555
  600MOL0     O80913   7.143  12.853   3.997  0.4471 -0.5143 -0.2011
  600MOL0     C80914   7.094  12.954   3.680 -0.2852  0.1757 -0.1543
  600MOL0     C80915   7.053  12.917   3.554  1.4088  0.4803  0.2943
  600MOL0     N80916   6.409  12.448   3.145  1.2162 -0.0339 -0.4656
  600MOL0     N80917   6.331  12.352   3.158  0.4473  1.0906  0.2371
  600MOL0     C80918   6.199  11.551   4.241  0.3165 -0.2042 -0.5235
  600MOL0     C80919   6.240  11.450   4.330 -0.5904  0.8787 -0.2805
  600MOL0     C80920   6.424  11.114   4.566  0.3826 -0.0491  0.4122
  600MOL0     C80921   6.557  11.149   4.600  0.0017  0.6173 -0.0229
  600MOL0     C80922   6.637  11.056   4.662 -0.9892 -0.2915  0.1445
  600MOL0     C80923   6.592  10.928   4.695 -0.3422 -0.6923 -0.4645
  600MOL0     O80924   6.662  10.835   4.755 -0.7840 -0.3059  0.0893
  600MOL0     C80925   6.746  10.874   4.865  0.1445 -0.2621 -0.1269
  600MOL0     C80926   6.797  10.764   4.944  0.8899 -0.5738  0.0668
  600MOL0     C80927   6.872  10.655   4.864 -0.1979 -0.8833  0.1473
  600MOL0     C80928   6.918  10.550   4.968  0.1714 -0.1774 -0.2232
  600MOL0     C80929   7.047  10.503   4.950  0.6219  0.1117  0.1539
  600MOL0     C80930   7.158  10.454   4.955  0.3723 -0.2601 -0.6167
  600MOL0     C80931   6.460  10.899   4.667  0.2155 -0.4631  0.1179
  600MOL0     C80932   6.373  10.992   4.605 -0.5447 -0.2964  0.3778
  600MOL0     H80933   6.529  11.351   4.185  0.0061  0.3620 -0.9358
  600MOL0     H80934   6.452  11.512   4.012 -0.7623  0.1923 -0.7195
  600MOL0     H80935   6.035  11.682   4.064 -1.3231  0.6517 -2.8290
  600MOL0     H80936   6.113  11.823   4.109  1.1713 -1.0342  1.3165
  600MOL0     H80937   6.111  11.725   3.823  2.3642  2.1111 -1.4833
  600MOL0     H80938   5.994  11.835   3.899 -0.7762 -1.7252 -0.2199
  600MOL0     H80939   6.180  11.996   3.953 -1.3021  2.3085  0.0047
  600MOL0     H80940   6.299  11.890   3.872 -0.3044 -2.1500 -0.0109
  600MOL0     H80941   6.087  11.928   3.680 -0.7737  0.6145 -0.1959
  600MOL0     H80942   6.060  12.068   3.774 -0.4239 -1.4538  1.0423
  600MOL0     H80943   6.294  12.143   3.737 -0.8245 -1.5735  0.7337
  600MOL0     H80944   6.349  12.014   3.653  1.8796  2.0855  0.2634
  600MOL0     H80945   6.145  12.055   3.487  0.6870 -5.6564  5.6190
  600MOL0     H80946   6.141  12.213   3.579  2.2276  0.9812 -1.4068
  600MOL0     H80947   6.344  12.285   3.481  0.4707 -1.0382  2.2880
  600MOL0     H80948   6.417  12.134   3.492 -0.7375 -1.1566  1.3234
  600MOL0     H80949   6.206  12.178   3.279 -0.5563  2.5993  1.7959
  600MOL0     H80950   6.350  12.057   3.285  1.9352  0.9683 -0.5285
  600MOL0     H80951   6.613  12.241   3.294 -0.0809  0.3031  1.1861
  600MOL0     H80952   6.729  12.463   3.208  0.1202 -0.1686  0.9608
  600MOL0     H80953   6.628  12.566   3.107 -1.7032  0.0543  1.0669
  600MOL0     H80954   6.597  12.552   3.408 -2.1495  0.6557 -0.0050
  600MOL0     H80955   6.519  12.666   3.304  0.8972  0.8185 -2.0074
  600MOL0     H80956   6.709  12.788   3.417  2.7082  0.4956  0.5209
  600MOL0     H80957   6.732  12.777   3.241 -1.6339 -1.4296 -1.0586
  600MOL0     H80958   6.912  12.635   3.265  0.2479  0.9879  0.8466
  600MOL0     H80959   6.887  12.594   3.433  0.6266  0.7798  0.3951
  600MOL0     H80960   6.886  12.637   3.629 -1.9605  0.1590 -0.4438
  600MOL0     H80961   6.881  12.599   3.862  0.1067  0.5698 -2.7942
  600MOL0     H80962   7.033  12.633   3.947  1.2444  0.2290 -1.7909
  600MOL0     H80963   6.900  12.745   3.963 -1.2274  1.9853 -1.6924
  600MOL0     H80964   7.008  13.003   4.190 -2.1416  1.1722 -2.6514
  600MOL0     H80965   7.097  13.119   4.396 -1.2527  1.4814  0.9954
  600MOL0     H80966   7.183  13.259   4.569  0.0847  2.7005 -1.1489
  600MOL0     H80967   7.300  13.154   4.492 -2.6670 -1.0167  0.6384
  600MOL0     H80968   7.424  13.264   4.672  2.3439  0.9169  0.7684
  600MOL0     H80969   7.464  13.356   4.523  1.2203  3.2128  2.4075
  600MOL0     H80970   7.280  13.429   4.748 -0.0504 -3.5189 -2.4833
  600MOL0     H80971   7.296  13.535   4.599 -0.6911 -0.1769  0.4046
  600MOL0     H80972   7.530  13.435   4.763  1.0236  1.4645  0.8517
  600MOL0     H80973   7.535  13.546   4.634 -1.9706  1.9697  0.2140
  600MOL0     H80974   7.375  13.607   4.868 -0.6047  2.2479  1.0620
  600MOL0     H80975   7.379  13.704   4.728  0.1442  2.5483  2.2984
  600MOL0     H80976   7.622  13.756   4.746 -0.2178 -0.0855  0.6887
  600MOL0     H80977   7.527  13.792   4.897  0.2291  0.4929 -0.2931
  600MOL0     H80978   7.708  13.562   4.852  1.4419  0.8969  1.1675
  600MOL0     H80979   7.600  13.580   4.995 -0.8437  0.8161  1.0069
  600MOL0     H80980   7.855  13.666   5.034  0.1148  0.4848 -1.0891
  600MOL0     H80981   7.734  13.783   5.062 -0.3079 -0.7465  0.7267
  600MOL0     H80982   7.297  13.402   4.152  2.3418 -1.6263  0.8596
  600MOL0     H80983   7.222  13.276   3.946  2.1295 -6.0116 -1.2496
  600MOL0     H80984   7.146  13.049   3.674  0.9179 -0.3965  0.9197
  600MOL0     H80985   7.072  12.973   3.463 -0.5355 -0.8136 -0.9707
  600MOL0     H80986   6.108  11.607   4.260 -0.2638 -1.8150  2.0350
  600MOL0     H80987   6.182  11.414   4.414 -0.1832 -3.6095 -1.6714
  600MOL0     H80988   6.591  11.248   4.569  2.1328  0.7448  2.4775
  600MOL0     H80989   6.737  11.089   4.688 -0.4681 -2.4741  1.1081
  600MOL0     H80990   6.830  10.933   4.826  0.3454  1.7261  2.9388
  600MOL0     H80991   6.692  10.944   4.929  2.7663  0.2103  1.7277
  600MOL0     H80992   6.716  10.713   4.995 -2.7769  2.0265 -2.5974
  600MOL0     H80993   6.867  10.811   5.014  0.2044  1.3962 -0.5031
  600MOL0     H80994   6.955  10.696   4.806 -1.9749 -0.5028 -2.3156
  600MOL0     H80995   6.800  10.616   4.792  0.5779  0.5901 -1.4902
  600MOL0     H80996   6.849  10.465   4.968 -2.1042  1.5622  0.1632
  600MOL0     H80997   6.901  10.588   5.069 -2.7955  0.0251 -0.6947
  600MOL0     H80998   7.255  10.407   4.959  0.2838 -0.5467 -1.5801
  600MOL0     H80999   6.410  10.812   4.707 -0.7101  0.1754  0.3928
  600MOL0     H81000   6.273  10.967   4.571 -0.9103  0.7195  0.6792
  601MOL0     O81001   1.289   5.124  11.041  0.4869  0.5815 -0.8572
  601MOL0     C81002   1.262   5.048  11.136  0.4757 -0.7269  0.1591
  601MOL0     O81003   1.302   5.069  11.268 -0.4174 -0.3632  0.0844
  601MOL0     C81004   1.402   5.162  11.299  0.3252 -0.7453 -0.1086
  601MOL0     C81005   1.513   5.194  11.226 -0.2237 -0.9035 -0.4485
  601MOL0     C81006   1.603   5.300  11.268 -0.2420 -0.4114  1.5813
  601MOL0     C81007   1.597   5.361  11.393  0.9515  0.1226  0.2599
  601MOL0     O81008   1.692   5.458  11.403  0.3518 -0.2252  0.4443
  601MOL0     C81009   1.664   5.554  11.501  0.2879 -0.4077  0.1678
  601MOL0     C81010   1.791   5.631  11.527 -0.7521  0.5395  0.0401
  601MOL0     C81011   1.870   5.585  11.645 -0.0279  0.3728 -0.1919
  601MOL0     C81012   1.944   5.455  11.619  0.0358  0.1327  0.4609
  601MOL0     C81013   2.011   5.395  11.742 -0.2285 -0.3235  1.3121
  601MOL0     C81014   2.121   5.490  11.789 -0.1304  0.4188 -0.6048
  601MOL0     C81015   2.209   5.423  11.900  0.5703  0.2240  0.4525
  601MOL0     C81016   2.308   5.531  11.949 -0.2494  0.3288  0.8336
  601MOL0     N81017   2.248   5.607  12.065 -0.5870 -0.1809 -0.1810
  601MOL0     C81018   2.215   5.561  12.191 -0.4210 -0.8519  0.2933
  601MOL0     C81019   2.189   5.669  12.270 -0.0897  0.5175 -0.2203
  601MOL0     C81020   2.139   5.664  12.418  0.1120 -0.1074  0.5231
  601MOL0     C81021   1.993   5.636  12.432 -0.0320 -0.3413  0.1919
  601MOL0     C81022   1.939   5.593  12.568  0.0252  0.2714 -0.6361
  601MOL0     C81023   1.789   5.606  12.608  0.2499 -0.4410  0.9889
  601MOL0     O81024   1.710   5.533  12.515 -0.2739  0.0874  0.4154
  601MOL0     C81025   1.566   5.521  12.528  0.1465 -0.6812  0.6491
  601MOL0     C81026   1.514   5.412  12.458 -0.7053  0.2381  1.4030
  601MOL0     C81027   1.381   5.377  12.469 -0.1235 -1.1180  0.2586
  601MOL0     C81028   1.333   5.258  12.392  0.0597  0.4978 -0.5796
  601MOL0     C81029   1.301   5.464  12.543 -0.7414 -0.2065 -0.5448
  601MOL0     C81030   1.157   5.436  12.565  0.8926 -0.2693 -0.8958
  601MOL0     O81031   1.084   5.524  12.642  0.5256  0.6423 -0.3306
  601MOL0     C81032   0.949   5.515  12.666  0.1481  0.4816  0.5621
  601MOL0     C81033   0.904   5.422  12.751 -0.3869  0.0664 -0.7988
  601MOL0     C81034   0.769   5.417  12.786 -0.1049  0.0221  0.0175
  601MOL0     C81035   0.672   5.511  12.739 -0.1008  0.2467 -0.1524
  601MOL0     O81036   0.538   5.494  12.782  0.2993 -0.1780  0.0514
  601MOL0     C81037   0.443   5.580  12.714  0.3210 -0.1443  0.6489
  601MOL0     C81038   0.301   5.560  12.755  0.2251 -0.3970 -0.5428
  601MOL0     C81039   0.239   5.436  12.718  0.3202 -0.2033  0.6566
  601MOL0     C81040   0.105   5.430  12.776  0.2685 -0.0937  0.1290
  601MOL0     C81041   0.090   5.389  12.922 -0.1666 -0.2216 -0.9467
  601MOL0     C81042  -0.069   5.344  12.942 -0.0621  0.6032  0.5118
  601MOL0     C81043  -0.095   5.301  13.096 -0.7883 -0.3962  0.3531
  601MOL0     C81044  -0.250   5.293  13.119 -0.1898 -1.1459 -0.7892
  601MOL0    Cl81045  -0.284   5.212  13.282 -0.3100 -0.4599 -0.1039
  601MOL0     C81046   0.717   5.604  12.643 -0.1203 -0.0300 -0.3874
  601MOL0     C81047   0.858   5.606  12.614  0.3561 -0.2899  0.7767
  601MOL0     O81048   1.102   5.337  12.517  1.6170  0.4029  0.1235
  601MOL0     C81049   1.349   5.584  12.609  0.4088  0.1775 -0.5400
  601MOL0     C81050   1.482   5.611  12.598 -1.5188 -0.2410  0.1014
  601MOL0     N81051   2.199   5.778  12.182 -0.8603 -0.4228 -0.7347
  601MOL0     N81052   2.226   5.740  12.064 -0.0472 -0.2969 -0.0515
  601MOL0     C81053   1.495   5.318  11.477 -0.2000  0.0710 -0.6607
  601MOL0     C81054   1.398   5.222  11.424 -0.6778 -1.1652  0.1955
  601MOL0     C81055   1.153   4.957  11.113  0.0868 -0.6372 -0.1100
  601MOL0     C81056   1.130   4.917  10.975 -0.9324 -0.1220 -0.9377
  601MOL0     C81057   1.021   4.843  10.947 -1.0858  0.1026  0.0874
  601MOL0     C81058   0.921   4.814  11.045 -0.2991  0.0294  0.5502
  601MOL0     O81059   0.808   4.756  10.990  0.1812  0.2381 -0.2675
  601MOL0     C81060   0.694   4.725  11.075  0.4809  0.6966 -0.0341
  601MOL0     C81061   0.605   4.639  10.992  0.4380 -0.1963 -0.6145
  601MOL0     C81062   0.653   4.493  10.971  0.6662  0.1344  0.0631
  601MOL0     C81063   0.617   4.384  11.079  0.6779  0.7639 -0.7085
  601MOL0     C81064   0.477   4.336  11.076  0.2879  0.1258 -0.0943
  601MOL0     C81065   0.358   4.316  11.064 -0.4467  0.3986  0.1488
  601MOL0     C81066   0.950   4.838  11.186  0.0683 -0.0482  0.7570
  601MOL0     C81067   1.069   4.906  11.213 -0.8146  0.0778 -0.1822
  601MOL0     H81068   1.527   5.137  11.134 -1.7835 -1.8814 -0.1166
  601MOL0     H81069   1.682   5.328  11.199 -1.2984 -0.0085  0.4995
  601MOL0     H81070   1.587   5.621  11.460  0.1528 -0.7631 -0.1696
  601MOL0     H81071   1.617   5.515  11.592  1.5122 -2.9872 -0.2212
  601MOL0     H81072   1.847   5.639  11.433  0.0782 -1.1462  0.3474
  601MOL0     H81073   1.757   5.734  11.543 -0.5413  0.4278  1.3267
  601MOL0     H81074   1.948   5.656  11.675  0.7255 -0.0807 -1.0093
  601MOL0     H81075   1.805   5.565  11.731  1.5716 -0.9745  0.7775
  601MOL0     H81076   1.870   5.388  11.575  0.8900  1.1072 -2.6903
  601MOL0     H81077   2.012   5.478  11.537 -3.6358 -2.8824 -3.9057
  601MOL0     H81078   1.948   5.387  11.831 -0.5251 -2.2146  0.9816
  601MOL0     H81079   2.054   5.296  11.723 -0.3505 -0.2885  0.8232
  601MOL0     H81080   2.175   5.504  11.695 -0.9393 -0.4195 -1.2150
  601MOL0     H81081   2.082   5.583  11.829 -0.7142  0.6950 -1.7725
  601MOL0     H81082   2.154   5.375  11.982 -0.2219  1.0552  0.4211
  601MOL0     H81083   2.263   5.347  11.842  2.9344 -0.0340  2.7759
  601MOL0     H81084   2.338   5.595  11.866 -0.7378  1.7901  1.7439
  601MOL0     H81085   2.392   5.476  11.993 -0.5889 -0.7253  0.1930
  601MOL0     H81086   2.199   5.464  12.238  3.3183 -1.9671 -0.3621
  601MOL0     H81087   2.188   5.585  12.477 -1.5773 -0.0649  2.0747
  601MOL0     H81088   2.165   5.757  12.468  3.7470  0.0399 -1.3059
  601MOL0     H81089   1.966   5.560  12.359  1.8593 -1.5514  0.6898
  601MOL0     H81090   1.941   5.731  12.415 -1.3503 -1.0470  0.0961
  601MOL0     H81091   1.986   5.655  12.645 -1.4127  0.7904 -0.1440
  601MOL0     H81092   1.979   5.492  12.573  2.7667  1.2903  0.1638
  601MOL0     H81093   1.774   5.714  12.605  2.3615 -0.1268  0.4635
  601MOL0     H81094   1.762   5.576  12.710  2.0942  1.4953  2.1526
  601MOL0     H81095   1.588   5.357  12.401  2.0721  1.4799  3.5756
  601MOL0     H81096   1.263   5.280  12.310 -1.7159 -2.5458 -0.0489
  601MOL0     H81097   1.423   5.216  12.345 -0.4538  1.9662 -3.0738
  601MOL0     H81098   1.294   5.179  12.458 -0.8295  0.5475 -1.0300
  601MOL0     H81099   0.977   5.347  12.778 -0.7215 -1.4375 -3.6812
  601MOL0     H81100   0.746   5.343  12.862 -1.2763 -0.5073 -0.8241
  601MOL0     H81101   0.468   5.686  12.726  2.7059 -0.4907 -0.6446
  601MOL0     H81102   0.435   5.549  12.609  1.4334  1.0195  0.2007
  601MOL0     H81103   0.304   5.567  12.864  1.3537 -4.1407 -0.1961
  601MOL0     H81104   0.242   5.645  12.719  0.4993  1.4066  2.8463
  601MOL0     H81105   0.296   5.347  12.748  0.8432  0.6974  2.5041
  601MOL0     H81106   0.229   5.427  12.610 -0.7211  1.6464  0.5541
  601MOL0     H81107   0.047   5.520  12.753 -0.4984 -0.1083  1.8521
  601MOL0     H81108   0.058   5.355  12.712  1.2151 -2.3377  1.8922
  601MOL0     H81109   0.130   5.461  12.994 -0.6326 -0.3126 -0.5849
  601MOL0     H81110   0.150   5.299  12.938  0.0658  0.3927  2.5850
  601MOL0     H81111  -0.136   5.423  12.908  0.7032  1.0397 -0.0379
  601MOL0     H81112  -0.078   5.262  12.870 -2.0680  3.1487 -2.3691
  601MOL0     H81113  -0.039   5.382  13.145 -0.2731 -0.1277 -0.6482
  601MOL0     H81114  -0.048   5.205  13.121  0.0908  0.3337  1.6689
  601MOL0     H81115  -0.308   5.243  13.040 -1.7496 -1.7929  0.6892
  601MOL0     H81116  -0.285   5.396  13.120 -0.5706 -1.2414 -2.2196
  601MOL0     H81117   0.647   5.670  12.593  0.1068  1.0820  0.7143
  601MOL0     H81118   0.885   5.685  12.544 -2.6789  1.9274  1.8837
  601MOL0     H81119   1.293   5.654  12.670  0.4110 -0.3025  0.0282
  601MOL0     H81120   1.532   5.694  12.647 -0.2310 -0.0578 -1.4468
  601MOL0     H81121   1.478   5.357  11.577 -1.3809  2.3030 -1.6415
  601MOL0     H81122   1.311   5.196  11.483 -3.2742  1.6372 -2.0584
  601MOL0     H81123   1.208   4.935  10.903  2.3084 -0.3015  2.2353
  601MOL0     H81124   1.000   4.814  10.844  4.7460 -1.9170 -0.9118
  601MOL0     H81125   0.728   4.673  11.165  0.2452  0.9948  0.2254
  601MOL0     H81126   0.645   4.820  11.096 -2.0456 -0.9628  2.3535
  601MOL0     H81127   0.587   4.691  10.897  1.8751 -0.7251 -1.2077
  601MOL0     H81128   0.518   4.621  11.056  1.2582 -0.6443  0.4037
  601MOL0     H81129   0.762   4.489  10.962  0.5945  1.3547 -2.2518
  601MOL0     H81130   0.603   4.464  10.878 -1.9425  3.1987  0.3317
  601MOL0     H81131   0.633   4.425  11.179 -0.5904 -1.3920  0.4574
  601MOL0     H81132   0.676   4.293  11.066 -0.4208  0.0323 -0.6442
  601MOL0     H81133   0.253   4.307  11.045 -0.1539 -0.0498 -1.4166
  601MOL0     H81134   0.875   4.815  11.261 -1.5990  1.7758 -0.2794
  601MOL0     H81135   1.097   4.943  11.311  0.1287  0.8600 -0.7275
  602MOL0     O81136   9.914   5.223   8.107 -0.1551 -0.1923 -0.5389
  602MOL0     C81137   9.822   5.190   8.034  0.1187 -0.0653  0.0837
  602MOL0     O81138   9.831   5.181   7.898  0.3369  0.1881  0.2493
  602MOL0     C81139   9.961   5.149   7.862 -0.3224 -0.6157 -0.2579
  602MOL0     C81140  10.002   5.014   7.846 -0.5867  0.4092  0.4418
  602MOL0     C81141  10.122   4.978   7.778 -0.0475 -0.0841  0.4835
  602MOL0     C81142  10.203   5.086   7.741 -0.7097 -0.4422 -0.1286
  602MOL0     O81143  10.331   5.067   7.695  0.5990 -0.2932 -0.4750
  602MOL0     C81144  10.335   4.992   7.575  0.0393  0.7594 -0.2827
  602MOL0     C81145  10.419   4.860   7.599  0.7972  0.2267  0.3211
  602MOL0     C81146  10.556   4.896   7.646  0.3792 -0.9108 -0.1669
  602MOL0     C81147  10.638   5.003   7.562  0.4118 -1.0270 -0.3482
  602MOL0     C81148  10.761   5.039   7.642 -0.3615 -0.4549  0.3039
  602MOL0     C81149  10.862   5.116   7.563  0.5323  0.6465  0.2955
  602MOL0     C81150  10.984   5.149   7.658  0.8007  0.5027 -0.9253
  602MOL0     C81151  11.091   5.217   7.580  0.7388 -0.5700  0.2695
  602MOL0     N81152  11.143   5.128   7.468  0.1683 -0.3437  0.2444
  602MOL0     C81153  11.251   5.047   7.475  0.0622  0.0504  0.1954
  602MOL0     C81154  11.258   4.992   7.356 -0.1111 -1.3905  0.0751
  602MOL0     C81155  11.366   4.893   7.318 -0.8140  0.4841 -1.0215
  602MOL0     C81156  11.488   4.962   7.250  1.4516 -0.4113  0.5896
  602MOL0     C81157  11.601   5.006   7.343  0.2277  0.2406 -0.0842
  602MOL0     C81158  11.725   5.058   7.268 -0.2137  0.1701  0.3209
  602MOL0     O81159  11.783   5.157   7.356 -0.9123  0.5166  0.0179
  602MOL0     C81160  11.925   5.170   7.329  0.2984 -0.5423  0.0425
  602MOL0     C81161  11.983   5.155   7.205  0.7948 -0.0568  0.3003
  602MOL0     C81162  12.120   5.186   7.185 -0.3204 -0.2188 -0.7176
  602MOL0     C81163  12.176   5.167   7.046 -0.5893  0.6731  0.5796
  602MOL0     C81164  12.208   5.220   7.298  0.3478 -0.1148 -1.0510
  602MOL0     C81165  12.355   5.236   7.297  0.2617  0.0124 -0.4514
  602MOL0     O81166  12.414   5.247   7.417 -0.5368  0.1356  0.1247
  602MOL0     C81167  12.546   5.264   7.431  0.2690 -1.3545 -0.6670
  602MOL0     C81168  12.591   5.194   7.550  0.3220 -0.6584  0.1617
  602MOL0     C81169  12.727   5.195   7.580 -0.9554  1.4680  0.2046
  602MOL0     C81170  12.817   5.267   7.497  0.1906 -0.4746  0.3154
  602MOL0     O81171  12.954   5.263   7.512  0.5912  0.5538  0.7322
  602MOL0     C81172  13.011   5.385   7.558  0.1301 -0.5088  0.5076
  602MOL0     C81173  13.142   5.371   7.628 -1.1031 -0.1533 -0.7101
  602MOL0     C81174  13.135   5.264   7.736  0.1365 -0.4560 -0.2896
  602MOL0     C81175  13.276   5.233   7.787 -0.2557 -0.6950 -0.8517
  602MOL0     C81176  13.259   5.130   7.907 -0.4581 -0.8733 -0.1816
  602MOL0     C81177  13.392   5.087   7.971  0.1740  0.4478  1.0371
  602MOL0     C81178  13.459   4.976   7.891 -0.1825  0.4768 -0.2779
  602MOL0     C81179  13.610   4.950   7.926  0.3622 -0.1087  0.3715
  602MOL0    Cl81180  13.702   5.095   7.924 -0.1585 -0.2411 -0.0869
  602MOL0     C81181  12.767   5.327   7.383  0.0835  0.0948  0.3536
  602MOL0     C81182  12.627   5.349   7.359 -0.1066 -0.5220 -0.2369
  602MOL0     O81183  12.413   5.228   7.190 -0.0616  0.1269  0.1624
  602MOL0     C81184  12.136   5.237   7.418 -0.0289  0.0233  0.0215
  602MOL0     C81185  12.002   5.222   7.432  0.0642  1.3282 -0.4911
  602MOL0     N81186  11.162   5.049   7.273  0.5659 -0.2034  0.0616
  602MOL0     N81187  11.099   5.143   7.337  0.7045  0.4034 -0.4071
  602MOL0     C81188  10.166   5.222   7.745  0.1756 -0.3149 -0.1042
  602MOL0     C81189  10.048   5.252   7.818  0.7130 -0.3423 -0.1602
  602MOL0     C81190   9.681   5.187   8.090  1.2846  0.7420  0.2458
  602MOL0     C81191   9.656   5.205   8.223  0.3042 -0.2445 -1.3958
  602MOL0     C81192   9.523   5.192   8.277  0.3047 -0.2556 -0.3578
  602MOL0     C81193   9.417   5.171   8.190 -0.1838 -0.1235  0.1055
  602MOL0     O81194   9.307   5.140   8.261  0.0108  0.8137  0.3914
  602MOL0     C81195   9.179   5.130   8.198 -0.2733 -0.4348  0.3963
  602MOL0     C81196   9.136   5.280   8.154 -0.3449 -0.2529  0.1160
  602MOL0     C81197   9.152   5.387   8.257 -0.3857 -0.2181  0.0897
  602MOL0     C81198   9.084   5.515   8.203  0.5682  0.2443  0.2334
  602MOL0     C81199   8.943   5.519   8.252 -0.4644 -0.3427  0.0923
  602MOL0     C81200   8.834   5.505   8.290  0.5102  0.4537 -0.2158
  602MOL0     C81201   9.438   5.153   8.059 -0.0260 -0.4408  0.3974
  602MOL0     C81202   9.571   5.171   8.006  0.4570  0.6040  0.3722
  602MOL0     H81203   9.931   4.933   7.854  1.0702 -0.9855  2.0853
  602MOL0     H81204  10.140   4.873   7.759 -2.1146 -0.1595 -1.3958
  602MOL0     H81205  10.241   4.960   7.531 -0.1840  0.4154  0.4329
  602MOL0     H81206  10.385   5.060   7.506  2.2886 -1.6268 -1.1464
  602MOL0     H81207  10.367   4.800   7.673 -1.7485  0.7794 -0.9282
  602MOL0     H81208  10.432   4.802   7.506  0.8412 -1.1290  1.1445
  602MOL0     H81209  10.546   4.922   7.751  0.2426 -0.3003 -0.3283
  602MOL0     H81210  10.623   4.809   7.642  5.1146  2.2431  1.8628
  602MOL0     H81211  10.667   4.959   7.466  0.7569  1.0094 -1.2129
  602MOL0     H81212  10.583   5.094   7.539  0.1457 -0.7754  1.1652
  602MOL0     H81213  10.736   5.107   7.725 -0.3075  1.6366 -1.3098
  602MOL0     H81214  10.802   4.943   7.674  0.5706 -0.4401 -0.7809
  602MOL0     H81215  10.891   5.054   7.479 -0.3979 -0.0973  0.5081
  602MOL0     H81216  10.805   5.199   7.518 -1.5322 -0.8876 -0.0749
  602MOL0     H81217  10.950   5.214   7.738  0.8592  0.5036 -0.9014
  602MOL0     H81218  11.013   5.057   7.709  1.4298  1.8763  1.3171
  602MOL0     H81219  11.173   5.246   7.647  0.6454  0.9111 -0.2172
  602MOL0     H81220  11.047   5.311   7.544 -1.0851 -1.5388 -0.1176
  602MOL0     H81221  11.312   5.029   7.563  2.1104  0.3379 -1.1000
  602MOL0     H81222  11.395   4.837   7.407 -2.4368  0.4156 -0.5057
  602MOL0     H81223  11.311   4.828   7.248 -1.5809  2.6578 -2.5483
  602MOL0     H81224  11.457   5.057   7.205  3.0197 -0.5520 -0.9017
  602MOL0     H81225  11.517   4.901   7.163 -0.4188  0.7722 -0.9494
  602MOL0     H81226  11.644   4.918   7.392  4.1714  1.3322 -1.2043
  602MOL0     H81227  11.551   5.072   7.414  1.0485 -0.8733  1.5929
  602MOL0     H81228  11.680   5.093   7.174 -1.5845 -0.7890  0.5771
  602MOL0     H81229  11.795   4.976   7.252 -2.3409 -1.8963  1.0086
  602MOL0     H81230  11.923   5.112   7.126  1.2880 -0.8336  0.3349
  602MOL0     H81231  12.105   5.167   6.963  2.5364 -0.8936 -2.3793
  602MOL0     H81232  12.247   5.247   7.023  0.5877 -0.7356 -0.9506
  602MOL0     H81233  12.231   5.072   7.037  1.1907  1.8004 -1.2498
  602MOL0     H81234  12.532   5.125   7.610 -1.7104 -1.1508 -2.2257
  602MOL0     H81235  12.752   5.137   7.668 -0.6761 -0.2749 -0.9617
  602MOL0     H81236  13.025   5.449   7.470 -0.6253  3.3232  2.9112
  602MOL0     H81237  12.944   5.445   7.620  1.2285  0.5499  0.7260
  602MOL0     H81238  13.215   5.340   7.553  2.2269  0.4998  2.0426
  602MOL0     H81239  13.166   5.469   7.670 -0.5371 -0.5787 -0.0377
  602MOL0     H81240  13.098   5.168   7.697  1.1019 -2.1738  2.6853
  602MOL0     H81241  13.070   5.288   7.821 -0.3116 -2.2626 -0.0658
  602MOL0     H81242  13.337   5.195   7.705 -1.6731  0.2729 -2.4524
  602MOL0     H81243  13.322   5.326   7.821  0.7709 -1.7532  0.7612
  602MOL0     H81244  13.193   5.048   7.879 -5.1974  2.2756  0.5443
  602MOL0     H81245  13.209   5.181   7.990  2.6125  2.2919 -0.0062
  602MOL0     H81246  13.458   5.174   7.970 -1.4343  1.7509 -0.6316
  602MOL0     H81247  13.388   5.045   8.072  1.8311 -2.9198 -0.1466
  602MOL0     H81248  13.449   5.010   7.788 -0.3146  0.4260 -0.2816
  602MOL0     H81249  13.395   4.890   7.908 -2.6282  1.8370 -2.0108
  602MOL0     H81250  13.650   4.868   7.865 -2.6985 -1.1783 -0.3334
  602MOL0     H81251  13.605   4.893   8.019  1.8524 -3.4714 -1.4154
  602MOL0     H81252  12.834   5.388   7.322 -1.1253  0.8863 -0.2163
  602MOL0     H81253  12.587   5.414   7.282  0.2493 -2.4751 -2.1532
  602MOL0     H81254  12.180   5.252   7.516 -1.3071  1.2086  0.4494
  602MOL0     H81255  11.960   5.261   7.524  0.5358 -2.5767  1.6104
  602MOL0     H81256  10.228   5.294   7.692  1.4903 -1.5009 -0.2318
  602MOL0     H81257  10.012   5.355   7.820 -0.0420 -0.5995 -0.0791
  602MOL0     H81258   9.732   5.237   8.294 -1.3611  2.5725 -0.7269
  602MOL0     H81259   9.510   5.195   8.384  0.8235 -2.6083 -0.1685
  602MOL0     H81260   9.189   5.059   8.115  2.5475 -3.0398  2.7429
  602MOL0     H81261   9.103   5.104   8.272 -0.5878  0.9125  0.5746
  602MOL0     H81262   9.034   5.271   8.114  0.2720 -3.1595 -1.0938
  602MOL0     H81263   9.202   5.300   8.069  0.4145 -1.1526  0.4778
  602MOL0     H81264   9.260   5.393   8.277 -0.5801 -0.5677  1.2979
  602MOL0     H81265   9.099   5.359   8.348  2.0739 -2.7286  0.8776
  602MOL0     H81266   9.094   5.526   8.095  2.0642  2.3649  0.5204
  602MOL0     H81267   9.149   5.595   8.240  4.3753 -1.7095 -1.5826
  602MOL0     H81268   8.734   5.503   8.330  0.5551 -1.6250 -0.0753
  602MOL0     H81269   9.352   5.135   7.996 -0.3949  3.3116 -0.4291
  602MOL0     H81270   9.584   5.132   7.906 -1.9625 -2.3791  1.0445
  603MOL0     O81271   2.157   9.367   0.435  0.1934  0.2735  0.4589
  603MOL0     C81272   2.256   9.325   0.492 -0.3272 -0.0610 -0.4044
  603MOL0     O81273   2.287   9.195   0.503 -0.1107 -0.1526  0.6006
  603MOL0     C81274   2.186   9.108   0.463 -0.3611  0.2774  0.4139
  603MOL0     C81275   2.114   9.046   0.567  0.6357  0.2252  0.3041
  603MOL0     C81276   2.008   8.955   0.538 -0.2987  0.2246 -0.5883
  603MOL0     C81277   1.977   8.932   0.400 -0.4471  0.7650 -0.3022
  603MOL0     O81278   1.864   8.856   0.360  0.4996  0.2529  0.6908
  603MOL0     C81279   1.782   8.791   0.459 -0.0076  0.9037  0.0077
  603MOL0     C81280   1.686   8.876   0.526  0.4412 -0.1941  0.3173
  603MOL0     C81281   1.546   8.823   0.516  0.6095 -0.0667 -0.5377
  603MOL0     C81282   1.461   8.899   0.410  0.8510  0.1544 -0.7280
  603MOL0     C81283   1.416   9.046   0.432 -0.8622 -0.1207 -0.3570
  603MOL0     C81284   1.321   9.058   0.540 -0.4457 -0.6802  0.0746
  603MOL0     C81285   1.273   9.199   0.545  0.0070  0.0048 -0.0327
  603MOL0     C81286   1.157   9.239   0.634  1.1392 -0.2591  0.1847
  603MOL0     N81287   1.026   9.175   0.598 -0.2443 -0.0273 -1.0372
  603MOL0     C81288   0.924   9.236   0.538  1.0299 -0.0291  0.0196
  603MOL0     C81289   0.829   9.140   0.530 -0.1239  0.3423 -0.0733
  603MOL0     C81290   0.692   9.158   0.485 -0.2418  1.2981  0.4570
  603MOL0     C81291   0.592   9.054   0.531 -0.0815 -0.0193  0.5687
  603MOL0     C81292   0.492   9.112   0.639  0.2444  0.5842 -0.6179
  603MOL0     C81293   0.412   8.989   0.698 -0.4316  0.2824  0.2583
  603MOL0     O81294   0.338   8.923   0.591 -0.2941  0.4003 -0.7270
  603MOL0     C81295   0.291   8.795   0.613  0.1360  0.1769  0.4394
  603MOL0     C81296   0.273   8.740   0.739  0.4657  0.4171  0.4690
  603MOL0     C81297   0.192   8.625   0.761 -0.2393  0.0372 -0.2233
  603MOL0     C81298   0.159   8.597   0.908 -0.6409  0.8270 -0.7730
  603MOL0     C81299   0.147   8.551   0.643  0.2096 -1.1019  0.6985
  603MOL0     C81300   0.061   8.435   0.652 -0.4384 -0.7694  0.2248
  603MOL0     O81301   0.069   8.368   0.536 -0.2952 -0.3493 -0.5410
  603MOL0     C81302   0.054   8.236   0.532 -0.5318  0.8706 -0.9452
  603MOL0     C81303  -0.055   8.152   0.568  0.4597 -0.1153 -0.7762
  603MOL0     C81304  -0.051   8.018   0.556  0.2237  0.4879  0.4157
  603MOL0     C81305   0.055   7.956   0.489 -0.4701  0.2044  0.4706
  603MOL0     O81306   0.064   7.825   0.457  0.5643 -0.7182 -0.7448
  603MOL0     C81307  -0.016   7.739   0.540  0.4266  0.3912  0.1114
  603MOL0     C81308   0.033   7.598   0.520 -0.2973  0.9283 -0.1158
  603MOL0     C81309  -0.067   7.497   0.573  0.3068 -0.3018 -0.0174
  603MOL0     C81310   0.000   7.360   0.585  0.1590  0.2601  0.8067
  603MOL0     C81311  -0.085   7.247   0.644 -0.8163  0.2890  0.3257
  603MOL0     C81312  -0.140   7.284   0.777  0.4635  0.2671 -0.1426
  603MOL0     C81313  -0.187   7.162   0.848 -1.1165 -0.2539 -0.3938
  603MOL0     C81314  -0.254   7.204   0.977 -0.0152  0.3748 -0.7638
  603MOL0    Cl81315  -0.292   7.062   1.074 -0.1178  0.1107 -0.0693
  603MOL0     C81316   0.157   8.034   0.444  0.3693 -0.0203 -0.7540
  603MOL0     C81317   0.158   8.170   0.461  0.3574 -0.4551  0.8722
  603MOL0     O81318  -0.013   8.412   0.742  0.1462  0.3649 -0.1332
  603MOL0     C81319   0.171   8.610   0.515 -0.2989 -0.2939  0.0535
  603MOL0     C81320   0.247   8.728   0.501 -0.5208 -0.6117 -0.6773
  603MOL0     N81321   0.882   9.022   0.588 -0.2787  0.5489  0.4008
  603MOL0     N81322   1.000   9.047   0.621 -0.3529 -1.0121  0.4853
  603MOL0     C81323   2.041   9.001   0.300  0.3613 -0.0328  0.8309
  603MOL0     C81324   2.147   9.082   0.325  0.1740 -0.1841 -0.2322
  603MOL0     C81325   2.349   9.431   0.549 -0.3919  0.0678 -0.0031
  603MOL0     C81326   2.344   9.578   0.541  0.2553 -0.2305  1.2640
  603MOL0     C81327   2.438   9.651   0.601 -0.2076 -0.1915  0.1601
  603MOL0     C81328   2.524   9.593   0.692 -0.4664 -0.7003 -0.1613
  603MOL0     O81329   2.611   9.664   0.768 -0.0645 -0.2754  0.1646
  603MOL0     C81330   2.756   9.672   0.744 -0.1731  1.0180  0.2261
  603MOL0     C81331   2.827   9.735   0.858  0.6080 -0.0564 -0.6640
  603MOL0     C81332   2.973   9.703   0.864 -0.0955 -0.4570  0.1120
  603MOL0     C81333   3.039   9.768   0.738 -0.6583  0.6676 -0.4726
  603MOL0     C81334   3.185   9.748   0.739 -0.6589 -0.5621  0.9052
  603MOL0     C81335   3.307   9.737   0.742 -0.4145  0.8240 -0.2852
  603MOL0     C81336   2.531   9.458   0.702  1.2388  0.1250  1.1451
  603MOL0     C81337   2.445   9.379   0.638 -0.1388 -0.8176  0.7781
  603MOL0     H81338   2.143   9.058   0.670  0.6702 -0.1910  0.3442
  603MOL0     H81339   1.948   8.929   0.624  1.4331  1.0459  0.9484
  603MOL0     H81340   1.733   8.710   0.404  2.8006  0.6555 -2.3136
  603MOL0     H81341   1.835   8.742   0.542 -0.4333 -1.2757 -0.9379
  603MOL0     H81342   1.703   8.874   0.634  0.5191 -0.9547  0.2923
  603MOL0     H81343   1.699   8.981   0.495  0.1201 -0.0444  0.6853
  603MOL0     H81344   1.554   8.714   0.506 -1.5044 -0.7221  3.0848
  603MOL0     H81345   1.497   8.829   0.614 -0.1592  4.0878 -0.9781
  603MOL0     H81346   1.512   8.878   0.316  0.3654 -1.3657 -0.6770
  603MOL0     H81347   1.367   8.844   0.400  0.2974  0.6416  1.2548
  603MOL0     H81348   1.504   9.109   0.448 -0.7506 -0.7632  1.8270
  603MOL0     H81349   1.366   9.073   0.339  2.3120  0.1990 -2.1377
  603MOL0     H81350   1.229   9.000   0.531 -0.0288 -1.3272 -0.0732
  603MOL0     H81351   1.376   9.022   0.628 -1.1884 -4.1342 -0.7364
  603MOL0     H81352   1.358   9.259   0.578 -1.8795  1.6289  2.3005
  603MOL0     H81353   1.243   9.221   0.442 -0.3284 -1.3063 -0.2248
  603MOL0     H81354   1.150   9.347   0.620 -2.1528 -0.6737 -2.5963
  603MOL0     H81355   1.190   9.221   0.737  0.9535 -0.1294  0.2695
  603MOL0     H81356   0.920   9.337   0.501  0.6665 -1.0090 -2.9040
  603MOL0     H81357   0.653   9.256   0.511 -2.0685  0.6476  0.3023
  603MOL0     H81358   0.686   9.144   0.377  1.3052  1.5680  0.3098
  603MOL0     H81359   0.629   8.955   0.560  1.3780  0.3459  0.0332
  603MOL0     H81360   0.531   9.034   0.443  1.2342 -0.2268 -0.3254
  603MOL0     H81361   0.436   9.201   0.608  3.5938  3.0710 -0.2352
  603MOL0     H81362   0.560   9.151   0.716 -2.2041 -0.6867  2.3690
  603MOL0     H81363   0.348   9.032   0.775 -0.8281  2.5594 -1.2278
  603MOL0     H81364   0.483   8.922   0.746  0.1993  2.5004  2.6547
  603MOL0     H81365   0.304   8.793   0.829 -0.1990  3.5939 -1.0141
  603MOL0     H81366   0.212   8.657   0.982  0.3312  1.0457 -1.6246
  603MOL0     H81367   0.051   8.591   0.928 -0.7196 -2.3717 -1.5825
  603MOL0     H81368   0.191   8.494   0.925  0.8683  1.5204  0.9245
  603MOL0     H81369  -0.140   8.192   0.622  0.0851 -2.8151  0.8411
  603MOL0     H81370  -0.142   7.968   0.586 -0.5432  1.8538  0.4382
  603MOL0     H81371  -0.010   7.768   0.645 -0.2102 -0.4242  0.3827
  603MOL0     H81372  -0.120   7.757   0.511  1.0520  1.3919 -1.6810
  603MOL0     H81373   0.061   7.579   0.416  1.2249  1.6872  0.1259
  603MOL0     H81374   0.127   7.582   0.572 -1.2273  0.5647  1.4984
  603MOL0     H81375  -0.150   7.489   0.502 -1.2256 -1.7444  1.8506
  603MOL0     H81376  -0.108   7.520   0.672 -0.6041 -1.8916  0.0175
  603MOL0     H81377   0.032   7.322   0.487  0.7467 -4.0014  2.4587
  603MOL0     H81378   0.083   7.382   0.653  0.9174 -0.9380  0.2947
  603MOL0     H81379  -0.014   7.165   0.656  0.0002  0.8795 -0.3384
  603MOL0     H81380  -0.168   7.220   0.577 -1.2854 -0.1949  1.0784
  603MOL0     H81381  -0.060   7.326   0.839  0.5286 -1.5060  1.0507
  603MOL0     H81382  -0.221   7.355   0.761  0.2600  0.5787  1.9905
  603MOL0     H81383  -0.097   7.101   0.862 -0.3825 -0.2599 -4.1592
  603MOL0     H81384  -0.260   7.106   0.789  0.0827 -1.0834 -1.1388
  603MOL0     H81385  -0.342   7.258   0.941 -0.8016 -0.4813 -0.1862
  603MOL0     H81386  -0.193   7.276   1.032  3.1588 -3.2589  0.9737
  603MOL0     H81387   0.227   7.991   0.374  0.4648  2.9887 -2.6681
  603MOL0     H81388   0.241   8.229   0.424 -1.1314  0.6912 -0.7990
  603MOL0     H81389   0.136   8.574   0.419 -0.0860  2.4758 -1.1409
  603MOL0     H81390   0.268   8.764   0.401  3.2798 -0.1708  0.1308
  603MOL0     H81391   2.009   8.989   0.197  2.5260  0.8851 -0.0152
  603MOL0     H81392   2.207   9.135   0.252  0.1770  1.9334  1.2320
  603MOL0     H81393   2.264   9.620   0.481  0.8005  0.0242  0.6954
  603MOL0     H81394   2.422   9.758   0.597 -0.8234 -0.0326  3.5045
  603MOL0     H81395   2.802   9.574   0.725 -2.7707 -0.4385  0.9728
  603MOL0     H81396   2.766   9.726   0.650 -1.6384  0.3763 -0.3206
  603MOL0     H81397   2.782   9.697   0.951 -1.1510  0.3083 -1.3166
  603MOL0     H81398   2.810   9.843   0.854  0.5200 -0.0523 -0.2082
  603MOL0     H81399   2.995   9.596   0.876 -1.3971 -0.5757  1.9760
  603MOL0     H81400   3.011   9.749   0.955 -2.5434  2.5328 -0.2126
  603MOL0     H81401   3.009   9.873   0.737 -2.4498  0.1838 -1.5989
  603MOL0     H81402   2.996   9.721   0.649 -3.8801  0.5113  0.9811
  603MOL0     H81403   3.414   9.731   0.747 -0.4708  0.4776  0.9161
  603MOL0     H81404   2.576   9.415   0.791 -0.9929  0.2812  2.4088
  603MOL0     H81405   2.459   9.272   0.648  2.1044 -0.5590  0.9189
  604MOL0     O81406   1.554   9.430   3.701 -0.4268 -0.0289 -0.5469
  604MOL0     C81407   1.665   9.468   3.658 -0.2044  0.2470 -0.4343
  604MOL0     O81408   1.680   9.568   3.555  0.0167  0.5661  0.5566
  604MOL0     C81409   1.576   9.625   3.484 -0.4250 -0.3939 -0.4319
  604MOL0     C81410   1.599   9.758   3.445  0.7219 -0.4364 -0.1418
  604MOL0     C81411   1.515   9.840   3.376  0.3664 -0.8585 -0.1632
  604MOL0     C81412   1.390   9.782   3.350 -0.3798  0.6571  0.1035
  604MOL0     O81413   1.301   9.857   3.273 -0.0300  0.7685  0.6685
  604MOL0     C81414   1.210   9.780   3.186  0.2555  1.2294 -0.2227
  604MOL0     C81415   1.169   9.887   3.088  0.9674 -0.5616  0.2477
  604MOL0     C81416   1.063   9.829   2.986 -0.4615  1.0319  0.5333
  604MOL0     C81417   1.027   9.950   2.890 -0.4234  0.5816  0.3882
  604MOL0     C81418   0.928   9.904   2.785 -0.4809 -0.0244 -0.6558
  604MOL0     C81419   0.790   9.883   2.838  0.8001  0.1802  0.2867
  604MOL0     C81420   0.695   9.820   2.740  0.2740  0.2684  0.2821
  604MOL0     C81421   0.675   9.887   2.604 -0.0655  0.0149  0.2261
  604MOL0     N81422   0.549   9.859   2.535  0.4199  0.5217  0.1998
  604MOL0     C81423   0.528   9.786   2.417 -0.0153 -0.1980 -0.9631
  604MOL0     C81424   0.397   9.785   2.401 -0.2792  0.0694  0.3098
  604MOL0     C81425   0.317   9.726   2.290  0.5903  0.5867 -0.5632
  604MOL0     C81426   0.264   9.835   2.205 -0.4972  0.2071  0.1362
  604MOL0     C81427   0.156   9.917   2.272  0.4393  0.6573 -0.1600
  604MOL0     C81428   0.045   9.851   2.341  0.3400 -0.0090  0.5464
  604MOL0     O81429  -0.067   9.927   2.329 -0.1288 -0.1767  0.2981
  604MOL0     C81430  -0.184   9.880   2.372  0.9055 -0.0363 -0.0752
  604MOL0     C81431  -0.198   9.779   2.457 -0.5102  0.4281 -0.4654
  604MOL0     C81432  -0.325   9.746   2.521  0.1366 -1.0652  1.1429
  604MOL0     C81433  -0.324   9.630   2.621  0.0921 -0.6869  0.1648
  604MOL0     C81434  -0.446   9.818   2.489 -0.2027  0.0239  0.2797
  604MOL0     C81435  -0.583   9.782   2.536 -0.3079 -0.1095  0.5246
  604MOL0     O81436  -0.679   9.874   2.511  0.6367 -0.1699  0.4643
  604MOL0     C81437  -0.808   9.854   2.552 -0.2863  0.7283 -1.1527
  604MOL0     C81438  -0.879   9.738   2.537  0.5175  0.1323 -0.8751
  604MOL0     C81439  -1.009   9.726   2.584  0.3747  0.3696  0.4692
  604MOL0     C81440  -1.089   9.831   2.634 -0.3633  0.1313  0.5355
  604MOL0     O81441  -1.221   9.826   2.663 -0.0336 -0.1814  0.0986
  604MOL0     C81442  -1.293   9.700   2.670  0.4716 -0.4103 -0.6019
  604MOL0     C81443  -1.412   9.725   2.766 -0.7429 -0.7953 -0.2446
  604MOL0     C81444  -1.503   9.609   2.775  0.6405 -0.3160  0.4596
  604MOL0     C81445  -1.615   9.635   2.876 -0.4566 -0.3819  1.2397
  604MOL0     C81446  -1.698   9.499   2.889 -0.0673 -1.2636 -0.4478
  604MOL0     C81447  -1.823   9.522   2.978  0.1530  0.3240  0.3471
  604MOL0     C81448  -1.895   9.387   3.002  0.0997 -0.8952 -0.6501
  604MOL0     C81449  -1.996   9.419   3.113  0.4088 -0.3553  0.0020
  604MOL0    Cl81450  -1.937   9.447   3.278  0.1349  0.0035  0.4066
  604MOL0     C81451  -1.014   9.952   2.638  0.0669  0.0130  0.0158
  604MOL0     C81452  -0.875   9.961   2.604  0.1349 -1.1903  0.3613
  604MOL0     O81453  -0.607   9.677   2.599  0.0428 -0.1224  0.0340
  604MOL0     C81454  -0.423   9.927   2.393 -1.2040  0.4236 -0.7519
  604MOL0     C81455  -0.301   9.953   2.343 -0.9033 -0.1036 -0.4406
  604MOL0     N81456   0.340   9.851   2.505  0.1514 -0.4589 -0.2337
  604MOL0     N81457   0.430   9.904   2.587  0.3453 -0.1677 -0.1183
  604MOL0     C81458   1.350   9.648   3.395  0.1728 -0.1478 -0.6555
  604MOL0     C81459   1.453   9.566   3.458 -0.7229  0.6727  0.5355
  604MOL0     C81460   1.789   9.413   3.711  0.2631 -0.1370  0.2567
  604MOL0     C81461   1.805   9.318   3.813 -0.2462  0.1895  0.2865
  604MOL0     C81462   1.929   9.289   3.874  0.0640  0.0394 -0.4877
  604MOL0     C81463   2.049   9.334   3.816  0.5611 -0.1344  0.4737
  604MOL0     O81464   2.173   9.301   3.863  0.1531  0.1294 -0.1878
  604MOL0     C81465   2.259   9.401   3.915 -0.3940  0.9446  0.4608
  604MOL0     C81466   2.340   9.351   4.034  0.2835  0.6759 -0.6371
  604MOL0     C81467   2.259   9.359   4.165 -0.5308  0.1326 -0.1421
  604MOL0     C81468   2.334   9.290   4.284 -0.0165 -0.3350 -0.2628
  604MOL0     C81469   2.262   9.284   4.411 -0.8271 -1.0208  0.6661
  604MOL0     C81470   2.210   9.294   4.522 -0.3662  0.0895 -0.1785
  604MOL0     C81471   2.044   9.429   3.711  0.8537 -0.6943  0.4711
  604MOL0     C81472   1.909   9.470   3.667 -0.1124  0.9412 -0.6918
  604MOL0     H81473   1.698   9.792   3.473  0.1394 -1.0388  2.9583
  604MOL0     H81474   1.546   9.942   3.356 -1.4638 -0.0120  1.0169
  604MOL0     H81475   1.258   9.695   3.137 -0.8351  1.4745 -1.7748
  604MOL0     H81476   1.120   9.746   3.238  0.6659 -1.3687 -1.0634
  604MOL0     H81477   1.112   9.960   3.147 -1.1166  0.7042 -3.0253
  604MOL0     H81478   1.256   9.933   3.040  2.1722 -0.5364  2.3434
  604MOL0     H81479   1.092   9.740   2.931 -3.5177  0.1491  0.1292
  604MOL0     H81480   0.969   9.800   3.035  0.8097 -3.3397  0.7691
  604MOL0     H81481   0.990  10.037   2.946 -1.9043 -0.5757  1.2788
  604MOL0     H81482   1.117   9.988   2.841 -0.5410  1.6949  0.9809
  604MOL0     H81483   0.930   9.981   2.707 -0.2001 -1.7939 -2.4740
  604MOL0     H81484   0.969   9.813   2.740 -0.6438  0.9018 -2.8145
  604MOL0     H81485   0.794   9.814   2.924  0.0321 -0.7032 -0.3702
  604MOL0     H81486   0.753   9.977   2.879  2.2147  1.4557 -1.2067
  604MOL0     H81487   0.728   9.716   2.733  1.6993  0.6552  0.8998
  604MOL0     H81488   0.598   9.815   2.790 -0.9763 -0.4995 -2.0841
  604MOL0     H81489   0.763   9.861   2.544 -0.3975  0.1504 -0.3224
  604MOL0     H81490   0.685   9.992   2.629 -0.4353 -0.2016  1.3404
  604MOL0     H81491   0.601   9.742   2.350  1.1224 -0.0188  0.1178
  604MOL0     H81492   0.377   9.662   2.225 -2.6229 -0.4744 -2.6987
  604MOL0     H81493   0.233   9.670   2.331  2.7909 -1.1824  1.8146
  604MOL0     H81494   0.223   9.797   2.112 -0.3281  1.7117 -0.5848
  604MOL0     H81495   0.338   9.910   2.177 -1.1220 -0.2172 -2.9813
  604MOL0     H81496   0.113   9.982   2.195 -3.0528 -1.5022 -0.2711
  604MOL0     H81497   0.196   9.980   2.351  0.7274 -0.7143  0.8218
  604MOL0     H81498   0.068   9.848   2.448  1.5959  0.9573  0.3199
  604MOL0     H81499   0.030   9.750   2.300  0.0615  0.0111  0.6000
  604MOL0     H81500  -0.113   9.721   2.493 -1.4498 -0.0866  1.0608
  604MOL0     H81501  -0.226   9.583   2.608  2.1319  3.4211 -1.1213
  604MOL0     H81502  -0.337   9.676   2.719 -0.2572  0.6939 -0.5155
  604MOL0     H81503  -0.402   9.557   2.598  0.6869 -1.4702  0.5912
  604MOL0     H81504  -0.818   9.665   2.485  0.1508 -0.5523 -0.3485
  604MOL0     H81505  -1.054   9.628   2.570  0.9815 -0.0495  1.3580
  604MOL0     H81506  -1.325   9.674   2.569  0.4802 -2.1619 -0.1908
  604MOL0     H81507  -1.245   9.611   2.712 -0.0861 -0.9725 -1.1370
  604MOL0     H81508  -1.379   9.748   2.868 -3.5818 -1.5944  0.9630
  604MOL0     H81509  -1.461   9.816   2.728  0.6037  1.5104  3.0290
  604MOL0     H81510  -1.432   9.531   2.804  0.7455 -0.2048  0.5065
  604MOL0     H81511  -1.550   9.590   2.678  1.3257 -2.6644  0.5295
  604MOL0     H81512  -1.576   9.670   2.971 -0.3308  0.6656  0.8107
  604MOL0     H81513  -1.684   9.703   2.824  0.9974 -1.1407 -1.9680
  604MOL0     H81514  -1.631   9.423   2.930  1.2670  0.6786  1.2057
  604MOL0     H81515  -1.723   9.459   2.791 -1.0907 -2.2527  0.1866
  604MOL0     H81516  -1.794   9.572   3.071  0.3015  0.8510  0.0264
  604MOL0     H81517  -1.888   9.591   2.923 -0.0346  0.5740  0.8693
  604MOL0     H81518  -1.836   9.305   3.044  0.5282 -0.2001  0.1549
  604MOL0     H81519  -1.948   9.356   2.912 -1.4272 -3.6822  1.0640
  604MOL0     H81520  -2.076   9.344   3.121  1.5363 -1.4059  3.1110
  604MOL0     H81521  -2.034   9.519   3.091  1.0270 -0.3951 -1.3602
  604MOL0     H81522  -1.067  10.038   2.679  1.4703  0.2795  1.3888
  604MOL0     H81523  -0.824  10.055   2.622 -0.6037 -1.0558  1.9709
  604MOL0     H81524  -0.511   9.990   2.380  0.2816  2.3749 -1.8121
  604MOL0     H81525  -0.297  10.052   2.298 -0.6957  0.0518 -0.0781
  604MOL0     H81526   1.256   9.603   3.367 -0.7800  0.0171  1.9539
  604MOL0     H81527   1.430   9.463   3.484 -1.1892 -0.6834 -4.2251
  604MOL0     H81528   1.716   9.289   3.868  0.2425 -0.7833  0.5799
  604MOL0     H81529   1.926   9.224   3.961  1.5480  0.9725  0.3002
  604MOL0     H81530   2.331   9.419   3.835  0.8506 -3.1599  0.4388
  604MOL0     H81531   2.200   9.490   3.943 -1.9667 -0.1563  0.8052
  604MOL0     H81532   2.428   9.414   4.042 -1.8454  3.8496 -0.4777
  604MOL0     H81533   2.370   9.246   4.023 -0.3950  0.3434  0.4927
  604MOL0     H81534   2.163   9.310   4.146 -1.6085  2.6601 -1.6999
  604MOL0     H81535   2.244   9.466   4.181 -1.8204  0.5913 -3.7474
  604MOL0     H81536   2.426   9.346   4.302  0.4058 -1.1375  0.1748
  604MOL0     H81537   2.362   9.187   4.258  0.1690 -0.3274 -0.1038
  604MOL0     H81538   2.167   9.307   4.620 -2.9741 -1.2184 -1.0660
  604MOL0     H81539   2.130   9.482   3.671  0.0578 -0.2479 -0.6812
  604MOL0     H81540   1.914   9.553   3.597  0.0689  1.1757 -0.4000
  605MOL0     O81541   2.611   0.312   9.469 -0.4635 -0.3670  0.2139
  605MOL0     C81542   2.677   0.212   9.484 -0.8832  0.0416 -0.1064
  605MOL0     O81543   2.632   0.086   9.525  0.1082  0.4177 -0.6021
  605MOL0     C81544   2.500   0.044   9.526 -1.0520  0.2088  0.1624
  605MOL0     C81545   2.485  -0.083   9.574  0.3299 -0.9455 -0.6940
  605MOL0     C81546   2.355  -0.137   9.596  0.0293 -0.0409  0.6653
  605MOL0     C81547   2.241  -0.064   9.557 -0.0788  1.1935  0.1530
  605MOL0     O81548   2.110  -0.101   9.586 -0.1782  0.9966  0.0035
  605MOL0     C81549   2.084  -0.247   9.595  0.8456 -0.0332 -0.4039
  605MOL0     C81550   1.927  -0.275   9.616 -0.0469 -0.1862 -0.3735
  605MOL0     C81551   1.854  -0.198   9.731  1.0625  0.1360 -0.6131
  605MOL0     C81552   1.707  -0.215   9.719 -0.7955 -0.4089  0.1147
  605MOL0     C81553   1.617  -0.157   9.827 -0.4553 -0.0792  0.7139
  605MOL0     C81554   1.471  -0.192   9.791 -1.3345  0.1426  0.0834
  605MOL0     C81555   1.371  -0.115   9.868  0.5593  0.5009 -0.1162
  605MOL0     C81556   1.240  -0.178   9.857  0.4415 -0.1033  0.3208
  605MOL0     N81557   1.132  -0.106   9.925 -0.1697 -0.5752  0.4103
  605MOL0     C81558   1.062  -0.144  10.040  0.0431  0.2713 -0.1304
  605MOL0     C81559   0.965  -0.043  10.062 -0.3213  0.3624  0.6149
  605MOL0     C81560   0.864  -0.035  10.164  0.6469  0.6891  0.9295
  605MOL0     C81561   0.719  -0.055  10.116  0.5792  0.7380  0.1396
  605MOL0     C81562   0.677  -0.189  10.051  0.0658 -0.1209 -0.4219
  605MOL0     C81563   0.728  -0.309  10.131  0.4338  0.7025 -0.3935
  605MOL0     O81564   0.688  -0.434  10.071  0.0696  0.6247 -0.2307
  605MOL0     C81565   0.555  -0.457  10.097  0.0867  0.3135 -0.2377
  605MOL0     C81566   0.470  -0.407  10.195  0.6624  0.1037 -0.3182
  605MOL0     C81567   0.334  -0.421  10.196 -0.4077  0.2097  0.1943
  605MOL0     C81568   0.261  -0.361  10.311  0.2423  1.5479  0.1175
  605MOL0     C81569   0.270  -0.504  10.100  0.1133  0.1524 -0.0331
  605MOL0     C81570   0.131  -0.556  10.105  0.8843 -0.3636  1.3612
  605MOL0     O81571   0.023  -0.465  10.119  0.3365 -0.4867 -0.3434
  605MOL0     C81572  -0.103  -0.522  10.108  0.3116 -0.3994  1.0668
  605MOL0     C81573  -0.143  -0.593   9.991  0.1768 -0.4474 -0.8201
  605MOL0     C81574  -0.266  -0.664   9.997  0.3508 -0.7505 -0.8198
  605MOL0     C81575  -0.351  -0.650  10.109  0.4333  0.2081 -0.4395
  605MOL0     O81576  -0.465  -0.717  10.126  0.0365  0.1970 -0.9658
  605MOL0     C81577  -0.518  -0.799  10.019 -0.1948  0.2724  0.2773
  605MOL0     C81578  -0.672  -0.812  10.021 -0.4329 -0.3653  0.0726
  605MOL0     C81579  -0.737  -0.923   9.946  0.9301  0.8322  0.3204
  605MOL0     C81580  -0.857  -0.985  10.028 -0.0716  0.7594  0.2179
  605MOL0     C81581  -0.925  -1.089   9.943 -0.3683 -0.3882 -0.0093
  605MOL0     C81582  -1.046  -1.161  10.002 -0.3085 -0.1143 -0.3548
  605MOL0     C81583  -1.173  -1.068  10.015  0.0705  0.9022 -0.4103
  605MOL0     C81584  -1.296  -1.157  10.045 -1.2830  0.1028 -1.0171
  605MOL0    Cl81585  -1.445  -1.073  10.087 -0.2983 -0.7614 -0.1369
  605MOL0     C81586  -0.311  -0.576  10.217 -1.0614 -0.1312 -0.4384
  605MOL0     C81587  -0.190  -0.503  10.212  0.4374 -0.4191  0.0950
  605MOL0     O81588   0.121  -0.682  10.107  0.6535 -0.0940  0.5681
  605MOL0     C81589   0.358  -0.590  10.023 -0.6454  0.9620 -0.4266
  605MOL0     C81590   0.500  -0.559  10.023  0.6097  0.0833  1.3072
  605MOL0     N81591   0.972   0.046   9.953 -0.6552  0.0255 -0.2945
  605MOL0     N81592   1.074   0.015   9.878 -0.0020  0.4656 -0.2895
  605MOL0     C81593   2.263   0.059   9.504 -0.1605 -0.8859  0.1536
  605MOL0     C81594   2.384   0.113   9.477 -0.4872 -0.2675  0.0113
  605MOL0     C81595   2.818   0.209   9.448  0.2261 -0.1859  0.1073
  605MOL0     C81596   2.903   0.110   9.497 -0.0636  0.3317 -0.9447
  605MOL0     C81597   3.034   0.104   9.473 -0.4926  0.1237 -0.1965
  605MOL0     C81598   3.090   0.202   9.394 -0.3423  0.1456 -0.4030
  605MOL0     O81599   3.226   0.207   9.380  0.0849  0.8037  0.5085
  605MOL0     C81600   3.285   0.174   9.253  0.3426  0.0693 -0.1653
  605MOL0     C81601   3.332   0.035   9.262 -0.4546 -0.2464  0.7146
  605MOL0     C81602   3.428   0.004   9.368  1.0123 -0.6061 -0.5476
  605MOL0     C81603   3.553   0.086   9.361 -0.5489  0.4010 -0.0520
  605MOL0     C81604   3.639   0.027   9.464 -0.4475  0.7425  0.8129
  605MOL0     C81605   3.721  -0.007   9.543 -0.3781 -0.6672 -0.4746
  605MOL0     C81606   3.011   0.300   9.334 -0.3807  0.4914  0.4609
  605MOL0     C81607   2.875   0.297   9.354 -0.2163  0.1739  0.3269
  605MOL0     H81608   2.565  -0.136   9.624 -1.1285 -1.8531  0.7937
  605MOL0     H81609   2.345  -0.236   9.640 -1.4206 -0.4418 -0.4807
  605MOL0     H81610   2.115  -0.311   9.511  0.4888  0.2443 -0.7553
  605MOL0     H81611   2.122  -0.302   9.682 -2.4486 -2.5204 -0.3473
  605MOL0     H81612   1.879  -0.250   9.522 -1.4554  0.7490  0.5569
  605MOL0     H81613   1.924  -0.384   9.623  3.5084 -0.6509 -2.9412
  605MOL0     H81614   1.885  -0.229   9.832 -1.4434 -1.4511 -0.2341
  605MOL0     H81615   1.874  -0.091   9.717 -1.0566  0.6842  0.1630
  605MOL0     H81616   1.676  -0.170   9.624  3.6653  4.4514  0.5118
  605MOL0     H81617   1.693  -0.324   9.725 -1.6966 -0.2657  0.7206
  605MOL0     H81618   1.645  -0.187   9.929  0.5576 -1.7772 -0.0130
  605MOL0     H81619   1.638  -0.049   9.828  0.9076 -0.3200  1.6620
  605MOL0     H81620   1.456  -0.180   9.684  0.2734 -1.7711 -0.4078
  605MOL0     H81621   1.460  -0.300   9.809 -0.0078 -0.7835 -3.7159
  605MOL0     H81622   1.390  -0.112   9.976  0.1472 -3.8084  0.2385
  605MOL0     H81623   1.367  -0.013   9.829  1.2656  0.9538  0.9287
  605MOL0     H81624   1.250  -0.281   9.894  1.2667 -0.4721 -0.8499
  605MOL0     H81625   1.208  -0.199   9.755  0.4696 -0.8214  0.4530
  605MOL0     H81626   1.073  -0.234  10.100 -1.1871  1.7443  2.4557
  605MOL0     H81627   0.892  -0.109  10.239 -1.1552 -2.6256 -1.4263
  605MOL0     H81628   0.874   0.066  10.206 -1.9510  0.9299  1.1511
  605MOL0     H81629   0.701   0.026  10.045  1.2373  1.7523  1.0931
  605MOL0     H81630   0.649  -0.059  10.200  0.0958  0.1575 -0.2835
  605MOL0     H81631   0.717  -0.194   9.949  0.4284  3.5451 -0.6020
  605MOL0     H81632   0.568  -0.190  10.051  0.0598 -1.6704 -0.1112
  605MOL0     H81633   0.707  -0.302  10.238 -0.8830 -2.0990 -0.3750
  605MOL0     H81634   0.837  -0.309  10.121  0.6919 -4.0561  0.0761
  605MOL0     H81635   0.505  -0.342  10.275  2.7749 -0.6801 -0.5446
  605MOL0     H81636   0.261  -0.437  10.389 -0.1230  0.1562 -1.2003
  605MOL0     H81637   0.331  -0.289  10.355  1.9310 -1.8756  3.5647
  605MOL0     H81638   0.163  -0.315  10.293  1.1832  2.9777 -1.7569
  605MOL0     H81639  -0.085  -0.601   9.900 -1.0953 -1.4105 -1.5803
  605MOL0     H81640  -0.293  -0.713   9.904 -0.4287 -1.1862 -0.3808
  605MOL0     H81641  -0.499  -0.757   9.920  0.5389 -1.9483 -0.5847
  605MOL0     H81642  -0.469  -0.897  10.017 -1.0753 -0.1715  0.0563
  605MOL0     H81643  -0.701  -0.828  10.125  1.8535 -0.4946  0.7448
  605MOL0     H81644  -0.709  -0.716   9.982 -0.9526 -0.3487  0.5768
  605MOL0     H81645  -0.658  -0.990   9.912  1.7757  1.7030  0.4939
  605MOL0     H81646  -0.766  -0.884   9.848  2.1608 -0.6294 -0.6653
  605MOL0     H81647  -0.811  -1.036  10.112  0.7191 -2.4183 -1.9601
  605MOL0     H81648  -0.930  -0.909  10.056 -1.2612  0.2925 -1.4636
  605MOL0     H81649  -0.855  -1.171   9.927 -3.4475 -3.2054 -0.1103
  605MOL0     H81650  -0.954  -1.044   9.847 -1.0979  0.4064  0.5574
  605MOL0     H81651  -1.066  -1.254   9.948 -0.8471  0.3463 -0.9601
  605MOL0     H81652  -1.029  -1.202  10.102 -2.5747  1.3998  0.7436
  605MOL0     H81653  -1.189  -1.016   9.920 -0.3345 -0.8118 -1.3171
  605MOL0     H81654  -1.154  -0.995  10.094 -0.6525  0.8806 -0.2103
  605MOL0     H81655  -1.261  -1.212  10.133  0.8957  0.0227 -1.8680
  605MOL0     H81656  -1.326  -1.217   9.958 -1.8464  0.2067 -0.8974
  605MOL0     H81657  -0.382  -0.566  10.298 -1.8613  2.0050 -1.3321
  605MOL0     H81658  -0.169  -0.448  10.303  0.8744 -1.5570  0.7107
  605MOL0     H81659   0.315  -0.653   9.946 -1.3092 -0.4718  1.0447
  605MOL0     H81660   0.571  -0.614   9.962 -0.7484 -0.0950 -0.1576
  605MOL0     H81661   2.183   0.127   9.479  2.9936  2.6393 -1.4160
  605MOL0     H81662   2.390   0.218   9.452  0.5769 -0.0194  1.1856
  605MOL0     H81663   2.865   0.041   9.572  2.4268  2.1037  2.1779
  605MOL0     H81664   3.106   0.034   9.515 -0.8379 -1.0359 -1.4914
  605MOL0     H81665   3.213   0.195   9.172 -1.1425 -3.0177  0.1927
  605MOL0     H81666   3.369   0.241   9.234  1.1629 -0.9615 -0.2526
  605MOL0     H81667   3.380   0.019   9.165  1.2727  1.2032  1.2637
  605MOL0     H81668   3.257  -0.041   9.283  0.5410 -1.1409  1.1162
  605MOL0     H81669   3.451  -0.101   9.347  1.4167 -0.2506 -1.9409
  605MOL0     H81670   3.383   0.012   9.468  2.5420 -2.4783  0.3566
  605MOL0     H81671   3.534   0.192   9.378  0.4493  0.4366  0.9373
  605MOL0     H81672   3.601   0.069   9.264 -1.2941 -1.9149 -0.0880
  605MOL0     H81673   3.792  -0.026   9.621  0.6925  0.6694 -1.0785
  605MOL0     H81674   3.049   0.375   9.265 -1.3081 -0.9843 -1.7809
  605MOL0     H81675   2.805   0.357   9.297 -0.8045 -3.0948 -2.7452
  606MOL0     O81676   9.961   1.313   5.598 -1.3873  0.6837 -0.2419
  606MOL0     C81677   9.957   1.437   5.593 -0.2890 -0.0768 -0.3218
  606MOL0     O81678  10.058   1.520   5.563 -0.3917  0.0910  0.8543
  606MOL0     C81679  10.165   1.481   5.486  0.0786 -0.0603  0.4251
  606MOL0     C81680  10.155   1.385   5.380  0.7262 -0.6760  0.1230
  606MOL0     C81681  10.274   1.335   5.318  0.5969  0.2626 -1.4928
  606MOL0     C81682  10.398   1.384   5.352 -0.3831  0.2291  0.2815
  606MOL0     O81683  10.514   1.350   5.283  0.1249 -0.2123 -0.7050
  606MOL0     C81684  10.510   1.218   5.229  0.7647  0.5479 -0.2958
  606MOL0     C81685  10.647   1.191   5.176 -0.8598 -0.6398  1.0432
  606MOL0     C81686  10.667   1.048   5.128  0.4183  1.2934 -0.0302
  606MOL0     C81687  10.606   1.037   4.989  0.2765  0.1079 -0.0787
  606MOL0     C81688  10.619   0.898   4.930 -0.1356  0.1098 -0.2775
  606MOL0     C81689  10.550   0.903   4.789  0.6765  0.0165 -0.3124
  606MOL0     C81690  10.567   0.760   4.731 -0.0767  1.1216 -0.5389
  606MOL0     C81691  10.503   0.726   4.595 -1.0722 -0.5437 -0.7266
  606MOL0     N81692  10.365   0.778   4.584 -0.7539  0.7235 -0.8244
  606MOL0     C81693  10.266   0.738   4.663  0.4306  0.1628 -0.1729
  606MOL0     C81694  10.151   0.761   4.595  0.2290  0.4103 -0.1433
  606MOL0     C81695  10.008   0.729   4.648  0.2386 -0.0717 -0.5835
  606MOL0     C81696   9.956   0.859   4.718  0.2766 -1.0523 -0.6657
  606MOL0     C81697   9.840   0.827   4.815  0.3303 -0.2156  0.5740
  606MOL0     C81698   9.791   0.945   4.906  0.1231  0.1987 -0.5725
  606MOL0     O81699   9.683   0.904   4.996 -0.0220 -0.8416 -0.9389
  606MOL0     C81700   9.631   1.006   5.067  0.5601  0.5417  0.2131
  606MOL0     C81701   9.714   1.112   5.111  0.2399 -0.2093 -0.2458
  606MOL0     C81702   9.648   1.221   5.186  0.4232 -0.1489  0.1676
  606MOL0     C81703   9.728   1.338   5.247  0.3579  0.1259 -0.6705
  606MOL0     C81704   9.507   1.225   5.203  0.4634 -0.2113  0.0803
  606MOL0     C81705   9.435   1.339   5.270 -0.0931  0.6638 -0.0791
  606MOL0     O81706   9.358   1.309   5.379  0.7315  0.2559 -0.0114
  606MOL0     C81707   9.281   1.399   5.442 -0.8356 -0.0333 -0.8556
  606MOL0     C81708   9.144   1.390   5.431 -0.9582  0.2276  0.3817
  606MOL0     C81709   9.061   1.478   5.496  0.0430  0.6355  0.6398
  606MOL0     C81710   9.106   1.587   5.565 -0.1140  1.0737  0.0869
  606MOL0     O81711   9.027   1.674   5.640 -0.1371 -0.1463  0.3980
  606MOL0     C81712   8.939   1.753   5.553 -0.2199 -1.2209  0.4079
  606MOL0     C81713   8.794   1.710   5.554 -0.2411  0.2931  0.3172
  606MOL0     C81714   8.727   1.745   5.426  0.2669  0.1021  0.7824
  606MOL0     C81715   8.576   1.718   5.411  0.3532  0.2649  0.4622
  606MOL0     C81716   8.506   1.776   5.285 -1.1444  0.6493 -0.1945
  606MOL0     C81717   8.359   1.803   5.324  0.6965 -1.0680 -0.9754
  606MOL0     C81718   8.290   1.857   5.193  0.7566 -0.6727  0.0467
  606MOL0     C81719   8.166   1.927   5.221  0.3806 -0.1822 -0.7561
  606MOL0    Cl81720   8.207   2.098   5.266 -0.1652 -0.0249  0.0401
  606MOL0     C81721   9.241   1.599   5.585  0.1902  0.9193  0.0233
  606MOL0     C81722   9.330   1.515   5.517  0.0584  0.3239  0.9768
  606MOL0     O81723   9.452   1.452   5.226 -0.4464 -0.0824 -0.0067
  606MOL0     C81724   9.437   1.113   5.169  0.7644  0.5287 -0.1466
  606MOL0     C81725   9.497   1.010   5.099  0.1396  0.8198 -0.8523
  606MOL0     N81726  10.188   0.818   4.472 -0.0477 -0.0753 -0.0646
  606MOL0     N81727  10.313   0.833   4.471 -0.6029  0.6539 -0.2963
  606MOL0     C81728  10.407   1.490   5.451 -0.2205  0.2212 -0.2886
  606MOL0     C81729  10.292   1.530   5.520 -0.0856  0.7018  0.2667
  606MOL0     C81730   9.835   1.504   5.649  0.0451 -0.3879  0.4427
  606MOL0     C81731   9.734   1.426   5.699 -0.0262  0.8115  0.3555
  606MOL0     C81732   9.616   1.494   5.737 -0.4121  0.4541  0.0349
  606MOL0     C81733   9.601   1.629   5.742  0.0187  0.5356  0.8328
  606MOL0     O81734   9.480   1.686   5.785 -0.1845  1.0855  0.2075
  606MOL0     C81735   9.474   1.825   5.825  1.3467  1.1055 -0.4192
  606MOL0     C81736   9.360   1.847   5.929 -0.0802 -0.2705  0.2584
  606MOL0     C81737   9.228   1.864   5.866 -0.3316  0.3481 -0.6020
  606MOL0     C81738   9.128   1.917   5.966 -0.0642  0.0671 -0.7539
  606MOL0     C81739   9.004   1.952   5.910  0.1346  0.7027  1.2272
  606MOL0     C81740   8.896   1.986   5.860 -1.6359 -0.3338  0.3790
  606MOL0     C81741   9.702   1.711   5.688 -0.7437  0.7514 -0.6967
  606MOL0     C81742   9.817   1.648   5.633  0.3449 -0.1855  0.0610
  606MOL0     H81743  10.053   1.367   5.345  1.5169 -2.4094 -1.4506
  606MOL0     H81744  10.266   1.255   5.245  0.5049 -1.9496  0.8021
  606MOL0     H81745  10.491   1.144   5.307  1.3813 -0.7936 -1.3841
  606MOL0     H81746  10.437   1.195   5.151  2.6309  0.3926 -2.0770
  606MOL0     H81747  10.682   1.258   5.097  1.0482 -2.4961  0.2080
  606MOL0     H81748  10.712   1.212   5.260  0.4597 -0.2086 -0.0483
  606MOL0     H81749  10.774   1.027   5.122  0.4358  1.6035 -1.1809
  606MOL0     H81750  10.613   0.976   5.191  2.7545  0.1390  0.7672
  606MOL0     H81751  10.499   1.056   4.991 -0.1436 -2.1330  1.4113
  606MOL0     H81752  10.666   1.102   4.924 -0.3096  1.9464  1.1591
  606MOL0     H81753  10.725   0.873   4.917 -0.4433 -0.9925 -0.8056
  606MOL0     H81754  10.562   0.821   4.984  0.1187 -1.5367 -2.2181
  606MOL0     H81755  10.443   0.924   4.799  0.0626 -0.6592 -4.0654
  606MOL0     H81756  10.591   0.973   4.716 -0.1053  0.3082 -0.4722
  606MOL0     H81757  10.673   0.731   4.725 -0.3229 -1.1424  3.2145
  606MOL0     H81758  10.520   0.687   4.798  1.9193  0.1197 -0.1353
  606MOL0     H81759  10.490   0.618   4.584 -0.8264 -1.2373  3.9902
  606MOL0     H81760  10.551   0.764   4.504  1.0893 -1.0414  0.1584
  606MOL0     H81761  10.281   0.696   4.762 -1.1151 -2.3378 -0.9075
  606MOL0     H81762   9.941   0.698   4.567  1.4743 -0.5392 -1.4666
  606MOL0     H81763  10.008   0.650   4.724  1.8984 -0.0271 -0.4967
  606MOL0     H81764   9.920   0.938   4.652 -0.7721 -0.6188  0.3879
  606MOL0     H81765  10.030   0.905   4.785 -1.5206 -0.7085  1.1659
  606MOL0     H81766   9.856   0.737   4.876  0.5978 -1.1477 -0.8262
  606MOL0     H81767   9.764   0.798   4.742  1.2908  2.1215 -1.4853
  606MOL0     H81768   9.756   1.037   4.857 -0.4456  0.1031 -0.3555
  606MOL0     H81769   9.881   0.975   4.961  0.2844  1.1471 -1.3225
  606MOL0     H81770   9.821   1.112   5.094  0.0827  1.3243 -1.5327
  606MOL0     H81771   9.836   1.322   5.257  0.1998  0.2111  2.0006
  606MOL0     H81772   9.698   1.428   5.193 -0.0664 -0.3442 -1.2174
  606MOL0     H81773   9.704   1.357   5.352  2.3550 -0.5477 -0.0343
  606MOL0     H81774   9.099   1.332   5.351 -2.7075 -0.2283  1.6417
  606MOL0     H81775   8.959   1.441   5.503  0.5049 -0.4311  5.7731
  606MOL0     H81776   8.953   1.857   5.585  0.1517 -1.3164  0.5599
  606MOL0     H81777   8.973   1.741   5.450 -2.7477  2.9430 -1.1535
  606MOL0     H81778   8.787   1.602   5.571 -0.9246  0.5841  2.1826
  606MOL0     H81779   8.752   1.767   5.637 -1.4770 -0.1287  0.0033
  606MOL0     H81780   8.781   1.692   5.347 -0.3590  0.2959  0.2085
  606MOL0     H81781   8.738   1.854   5.415 -0.8400  0.2181  0.7053
  606MOL0     H81782   8.543   1.614   5.414 -4.3856  1.4524 -1.3615
  606MOL0     H81783   8.532   1.769   5.497 -1.8606  1.6525 -1.3775
  606MOL0     H81784   8.507   1.698   5.209 -1.6799  2.6752 -2.3754
  606MOL0     H81785   8.556   1.865   5.247  3.0999 -1.5290 -0.4070
  606MOL0     H81786   8.314   1.714   5.368 -0.9320 -0.1853 -0.7603
  606MOL0     H81787   8.345   1.888   5.393  1.4844 -0.6654 -1.2998
  606MOL0     H81788   8.269   1.766   5.138 -0.9873 -0.2595 -0.0095
  606MOL0     H81789   8.361   1.923   5.142 -2.3207  3.3863  0.5726
  606MOL0     H81790   8.101   1.888   5.300  1.7347  0.4994  0.7754
  606MOL0     H81791   8.112   1.934   5.127  2.8444  0.6339 -2.2240
  606MOL0     H81792   9.290   1.683   5.633  3.5732 -0.7353 -0.2154
  606MOL0     H81793   9.437   1.522   5.533 -0.1544 -1.3164  3.7201
  606MOL0     H81794   9.336   1.092   5.203  1.5446 -2.2067  0.7400
  606MOL0     H81795   9.432   0.926   5.075  0.6515  0.4352 -0.9037
  606MOL0     H81796  10.505   1.536   5.458 -0.3120  0.3056  0.5415
  606MOL0     H81797  10.308   1.616   5.584 -1.4937  0.1904  1.3717
  606MOL0     H81798   9.752   1.320   5.712 -0.0206  0.9744  1.8275
  606MOL0     H81799   9.530   1.430   5.756 -0.5367 -0.0358 -1.9189
  606MOL0     H81800   9.568   1.852   5.875  1.3191  2.9714 -1.3178
  606MOL0     H81801   9.462   1.896   5.743  0.6374  1.1344 -0.2990
  606MOL0     H81802   9.394   1.932   5.989  2.7880 -1.1457  0.0209
  606MOL0     H81803   9.346   1.774   6.008 -1.8488 -1.0672 -0.7388
  606MOL0     H81804   9.197   1.766   5.828 -1.2070  0.3136  0.1624
  606MOL0     H81805   9.231   1.931   5.779 -0.0101 -1.7085 -2.2482
  606MOL0     H81806   9.176   2.011   5.996  0.8525 -0.7107  0.3133
  606MOL0     H81807   9.112   1.851   6.052  0.7528 -0.8337 -1.2734
  606MOL0     H81808   8.814   2.047   5.827  1.2584  2.5471 -2.2599
  606MOL0     H81809   9.687   1.818   5.674 -1.0474  0.4774 -2.7493
  606MOL0     H81810   9.884   1.721   5.590 -0.9127  1.4269  0.7573
  607MOL0     O81811   7.437   1.986   0.968  0.5137 -0.1711 -0.0975
  607MOL0     C81812   7.445   2.025   0.853  1.1570  0.5208 -0.2598
  607MOL0     O81813   7.346   2.096   0.792  0.5017  0.8963 -0.0458
  607MOL0     C81814   7.271   2.170   0.887  0.0715 -0.5739  1.1317
  607MOL0     C81815   7.331   2.271   0.969  0.0227  0.1841  0.5128
  607MOL0     C81816   7.253   2.353   1.044  0.7977 -0.7159  0.9274
  607MOL0     C81817   7.123   2.350   1.038  0.6187 -0.5655 -0.1061
  607MOL0     O81818   7.059   2.452   1.102  0.2397 -0.6790  1.1705
  607MOL0     C81819   6.923   2.428   1.153 -0.1400  0.1480 -0.2210
  607MOL0     C81820   6.881   2.547   1.236 -0.6707 -0.8038  0.4393
  607MOL0     C81821   6.723   2.560   1.248  0.1163 -0.0194  0.0074
  607MOL0     C81822   6.684   2.704   1.264 -0.1583  0.0657 -0.0063
  607MOL0     C81823   6.543   2.709   1.319  0.0837  0.2626  0.7936
  607MOL0     C81824   6.482   2.847   1.281 -0.7293  0.0832 -0.7390
  607MOL0     C81825   6.355   2.857   1.357  0.3826 -0.5973 -0.2192
  607MOL0     C81826   6.242   2.777   1.283 -0.0796 -0.4907 -0.1621
  607MOL0     N81827   6.113   2.807   1.345 -0.4373 -0.3502  0.7692
  607MOL0     C81828   5.992   2.768   1.291 -0.1294 -0.0367 -0.1070
  607MOL0     C81829   5.895   2.815   1.379  0.4188  0.9886  1.1419
  607MOL0     C81830   5.748   2.786   1.378 -0.0888  0.6715  0.0230
  607MOL0     C81831   5.686   2.809   1.518  0.3919 -0.3383 -0.0629
  607MOL0     C81832   5.531   2.811   1.515 -0.0458  0.0955 -0.2955
  607MOL0     C81833   5.466   2.678   1.501  0.4652 -0.6420  0.3823
  607MOL0     O81834   5.337   2.709   1.515  0.5433 -0.3984  0.3352
  607MOL0     C81835   5.235   2.666   1.434 -0.0391  0.2242  0.2431
  607MOL0     C81836   5.210   2.535   1.410  0.7123 -0.6996 -0.2052
  607MOL0     C81837   5.098   2.496   1.342  0.0573  0.3493  0.6517
  607MOL0     C81838   5.070   2.349   1.331 -0.0635 -1.0192  0.8813
  607MOL0     C81839   5.001   2.593   1.301 -0.9209 -0.6363 -0.2558
  607MOL0     C81840   4.880   2.561   1.225  0.2170  0.1479 -0.8793
  607MOL0     O81841   4.774   2.639   1.258 -0.2470  0.2683 -0.2111
  607MOL0     C81842   4.637   2.600   1.245 -0.6455  0.2759 -0.8362
  607MOL0     C81843   4.607   2.473   1.278 -0.7302 -0.5643 -0.5154
  607MOL0     C81844   4.481   2.417   1.276  0.8314 -0.1218  0.0201
  607MOL0     C81845   4.373   2.503   1.250  0.2172 -0.2840  0.2612
  607MOL0     O81846   4.243   2.451   1.259  0.1215  0.2238  0.0081
  607MOL0     C81847   4.138   2.533   1.221  0.5155 -0.2395  0.0991
  607MOL0     C81848   4.011   2.458   1.190 -1.6061  0.9961 -0.8561
  607MOL0     C81849   3.935   2.423   1.318  0.0820  0.7195 -0.1884
  607MOL0     C81850   3.860   2.541   1.373 -0.1393 -0.4731  0.0851
  607MOL0     C81851   3.780   2.513   1.503 -0.2289 -0.7266  0.1527
  607MOL0     C81852   3.706   2.639   1.545  0.2116  0.7316 -0.2872
  607MOL0     C81853   3.604   2.610   1.657 -0.3019  0.2177 -0.6020
  607MOL0     C81854   3.671   2.636   1.800  0.4807 -0.0675 -0.1218
  607MOL0    Cl81855   3.543   2.634   1.930 -0.0551 -0.4852  0.4531
  607MOL0     C81856   4.401   2.637   1.211  0.3638  0.6049  0.7053
  607MOL0     C81857   4.531   2.683   1.211 -0.0578  0.0452  0.0502
  607MOL0     O81858   4.891   2.478   1.132  0.2444  0.5085 -0.1842
  607MOL0     C81859   5.044   2.725   1.303 -0.6936  0.4389 -1.1038
  607MOL0     C81860   5.147   2.765   1.385 -0.0966 -0.0296 -1.1592
  607MOL0     N81861   5.961   2.886   1.468 -0.0059  0.5056 -0.6676
  607MOL0     N81862   6.092   2.884   1.450 -0.0200 -0.8455  0.4266
  607MOL0     C81863   7.053   2.255   0.952 -0.5615 -0.2368 -0.5321
  607MOL0     C81864   7.131   2.164   0.881 -0.2096 -0.3413  0.2413
  607MOL0     C81865   7.552   1.985   0.776 -0.1754  0.3779 -0.1250
  607MOL0     C81866   7.548   1.994   0.634  0.0790 -0.2312 -0.2389
  607MOL0     C81867   7.649   1.952   0.552 -0.4396  0.9564 -0.0812
  607MOL0     C81868   7.769   1.902   0.610  0.4088  0.3396 -0.2426
  607MOL0     O81869   7.880   1.905   0.525 -0.3096  0.0212  0.1839
  607MOL0     C81870   7.983   1.803   0.553  0.9577 -0.2742  0.0667
  607MOL0     C81871   8.123   1.857   0.591 -0.3850 -0.3254  0.1868
  607MOL0     C81872   8.163   1.961   0.485 -0.1540  1.2166 -0.9106
  607MOL0     C81873   8.302   2.029   0.513  0.0526 -0.0505  0.1107
  607MOL0     C81874   8.337   2.116   0.401  0.3884 -0.1709  0.3827
  607MOL0     C81875   8.387   2.199   0.323  0.4815 -0.3425  0.0425
  607MOL0     C81876   7.775   1.903   0.751  0.1290 -0.2016 -0.1355
  607MOL0     C81877   7.665   1.929   0.832  0.3938 -0.8465 -0.3223
  607MOL0     H81878   7.437   2.291   0.983  0.4416 -0.0464 -1.9445
  607MOL0     H81879   7.302   2.432   1.099  0.0239 -0.8736  1.8598
  607MOL0     H81880   6.853   2.436   1.069 -1.0706  1.0224  0.6205
  607MOL0     H81881   6.923   2.331   1.204  0.9114  1.1083  1.7332
  607MOL0     H81882   6.929   2.536   1.334 -1.5337 -0.0919  0.9497
  607MOL0     H81883   6.922   2.638   1.192  0.4047 -1.8277 -0.7939
  607MOL0     H81884   6.676   2.518   1.159  0.5425 -1.4441  0.4266
  607MOL0     H81885   6.686   2.507   1.336 -1.7571 -2.5116 -2.1294
  607MOL0     H81886   6.741   2.767   1.332 -0.3256  0.7210 -0.4580
  607MOL0     H81887   6.692   2.745   1.163  0.8544  1.5457  0.6360
  607MOL0     H81888   6.478   2.633   1.273 -1.6277  2.8363 -1.4165
  607MOL0     H81889   6.544   2.690   1.426 -0.8781 -0.2027  0.7332
  607MOL0     H81890   6.550   2.924   1.318  1.6159 -3.1165  2.2349
  607MOL0     H81891   6.454   2.862   1.177 -0.6194  3.0215 -0.4416
  607MOL0     H81892   6.361   2.830   1.462 -1.5671  1.8331  0.6167
  607MOL0     H81893   6.320   2.961   1.355 -0.3524 -0.8212  0.4649
  607MOL0     H81894   6.259   2.669   1.290  0.0489 -0.5388 -1.0742
  607MOL0     H81895   6.245   2.799   1.176  2.1857  2.0189  0.3151
  607MOL0     H81896   5.979   2.710   1.200  0.5956  0.1333 -0.3275
  607MOL0     H81897   5.689   2.847   1.308  0.9110 -0.2200 -1.6580
  607MOL0     H81898   5.745   2.685   1.336  1.4902  0.4084  0.4974
  607MOL0     H81899   5.717   2.907   1.556 -0.0607  0.4614 -1.6584
  607MOL0     H81900   5.723   2.730   1.584 -0.7110  1.2897  2.6798
  607MOL0     H81901   5.501   2.873   1.430  1.1103 -0.2121 -0.9485
  607MOL0     H81902   5.490   2.847   1.610 -1.0533 -1.5035 -0.0906
  607MOL0     H81903   5.491   2.606   1.580 -1.2564 -2.4357 -0.6202
  607MOL0     H81904   5.483   2.641   1.400 -1.6454  2.2118 -1.1830
  607MOL0     H81905   5.285   2.463   1.442  1.5322  0.2083 -0.0053
  607MOL0     H81906   4.961   2.334   1.332 -0.6961  2.5395  2.9512
  607MOL0     H81907   5.103   2.319   1.231 -1.1908 -0.2030  0.2327
  607MOL0     H81908   5.115   2.287   1.408 -0.1711 -1.4129  0.6291
  607MOL0     H81909   4.691   2.409   1.303 -1.0005 -0.7731 -0.1366
  607MOL0     H81910   4.455   2.314   1.295 -2.8173  0.1297 -2.6459
  607MOL0     H81911   4.112   2.603   1.301  4.6635  0.8167  0.7934
  607MOL0     H81912   4.159   2.592   1.131 -3.0977 -0.3408 -0.9606
  607MOL0     H81913   3.951   2.519   1.122 -2.4508 -1.1714 -2.1683
  607MOL0     H81914   4.042   2.363   1.143  0.0722  0.3363  1.4002
  607MOL0     H81915   3.992   2.386   1.403 -0.0454  3.6837  1.3398
  607MOL0     H81916   3.857   2.355   1.282 -0.4030  1.4131 -0.4762
  607MOL0     H81917   3.924   2.628   1.393 -1.5910  0.6350  0.0323
  607MOL0     H81918   3.788   2.565   1.295 -0.6841 -0.7019  0.5151
  607MOL0     H81919   3.850   2.477   1.578 -0.4734 -2.5045 -0.4185
  607MOL0     H81920   3.698   2.446   1.475  0.6691 -0.8034 -2.5735
  607MOL0     H81921   3.771   2.717   1.586 -1.3993  1.7315  0.4194
  607MOL0     H81922   3.652   2.684   1.461 -1.9768  0.7726  1.0839
  607MOL0     H81923   3.554   2.513   1.654  0.0415  0.0045 -4.3609
  607MOL0     H81924   3.532   2.687   1.624  0.6307  0.9798 -0.9033
  607MOL0     H81925   3.726   2.731   1.790  1.1794 -0.3645  0.7518
  607MOL0     H81926   3.743   2.559   1.828 -0.0969 -0.6470 -0.2216
  607MOL0     H81927   4.315   2.702   1.193  0.1939  0.1264 -0.2391
  607MOL0     H81928   4.555   2.783   1.175  0.2024 -0.2651 -0.6609
  607MOL0     H81929   4.975   2.796   1.257 -0.6350  0.9840 -0.3810
  607MOL0     H81930   5.153   2.869   1.415 -0.7325 -0.7016  1.5367
  607MOL0     H81931   6.951   2.274   0.921 -0.2775  0.8513 -0.8303
  607MOL0     H81932   7.084   2.106   0.802 -0.5599  0.5081 -0.1834
  607MOL0     H81933   7.455   2.018   0.583  2.4579 -0.3506 -5.2735
  607MOL0     H81934   7.638   1.946   0.444  0.0883  1.2487 -0.1589
  607MOL0     H81935   7.950   1.730   0.627  1.7694 -1.0168 -0.2865
  607MOL0     H81936   7.997   1.764   0.451  0.9268  1.8476 -0.8168
  607MOL0     H81937   8.204   1.783   0.599 -0.4238 -0.3163  0.7350
  607MOL0     H81938   8.128   1.908   0.688  3.3661  1.6063 -0.8173
  607MOL0     H81939   8.078   2.029   0.480 -0.6512  0.5948 -0.9410
  607MOL0     H81940   8.174   1.898   0.396 -1.6210 -2.6009  1.3683
  607MOL0     H81941   8.373   1.946   0.525  0.3551  0.3125  0.9169
  607MOL0     H81942   8.296   2.085   0.607  0.1729 -3.4834  2.3288
  607MOL0     H81943   8.430   2.270   0.255  3.7984 -1.7763  0.4934
  607MOL0     H81944   7.863   1.865   0.802 -0.5171 -0.2895  0.9544
  607MOL0     H81945   7.659   1.926   0.941 -1.4257  2.5233 -0.2071
  608MOL0     O81946  10.167   0.575   5.730 -0.0469  0.0457 -0.1840
  608MOL0     C81947  10.202   0.681   5.679 -0.1493  0.1795 -0.4602
  608MOL0     O81948  10.121   0.793   5.672  0.5020  0.1760 -0.4515
  608MOL0     C81949   9.998   0.776   5.733  1.0089 -0.6032  0.4499
  608MOL0     C81950   9.887   0.723   5.670 -1.3092  0.4626  0.3783
  608MOL0     C81951   9.765   0.728   5.724 -0.1563  0.4644 -0.7840
  608MOL0     C81952   9.741   0.763   5.857 -0.3200 -0.4896  0.1923
  608MOL0     O81953   9.612   0.770   5.916 -0.2120 -0.2638  0.2727
  608MOL0     C81954   9.596   0.732   6.050 -0.5507 -0.5413  0.3969
  608MOL0     C81955   9.448   0.760   6.083  0.3487  0.2685 -0.0089
  608MOL0     C81956   9.415   0.798   6.233 -0.5339 -0.6645  0.3572
  608MOL0     C81957   9.272   0.829   6.256 -0.0890 -0.3457 -0.6544
  608MOL0     C81958   9.227   0.881   6.389  0.2261 -0.6310 -0.7062
  608MOL0     C81959   9.078   0.902   6.416 -0.9809  1.1277  1.2665
  608MOL0     C81960   9.013   0.981   6.309 -0.1594 -0.2910  0.4300
  608MOL0     C81961   8.862   1.007   6.329  0.4838  0.3928  0.5594
  608MOL0     N81962   8.784   0.877   6.311  0.7378  0.2762  0.1191
  608MOL0     C81963   8.743   0.826   6.191  0.7639  0.6931 -0.7039
  608MOL0     C81964   8.683   0.703   6.211  0.1053 -0.3390 -0.0913
  608MOL0     C81965   8.628   0.612   6.102 -0.5325  0.4152  0.2162
  608MOL0     C81966   8.729   0.495   6.069 -0.6215 -0.1211  0.5782
  608MOL0     C81967   8.835   0.556   5.979 -0.4642 -0.6053  1.3553
  608MOL0     C81968   8.957   0.468   5.959 -0.3315  0.3577  0.6349
  608MOL0     O81969   9.046   0.476   6.070 -0.5534  0.0043  0.1859
  608MOL0     C81970   9.169   0.422   6.061  0.1966  0.2017 -0.2820
  608MOL0     C81971   9.252   0.441   6.169  0.3504 -0.6974  0.4938
  608MOL0     C81972   9.381   0.390   6.182  1.3211 -0.3863  0.1180
  608MOL0     C81973   9.453   0.414   6.303 -0.2009 -0.5223  0.1234
  608MOL0     C81974   9.429   0.306   6.075  0.3175 -0.9070 -0.3559
  608MOL0     C81975   9.565   0.253   6.076 -0.7669  0.4962  0.1217
  608MOL0     O81976   9.664   0.328   6.140  0.6613  0.2810 -0.1553
  608MOL0     C81977   9.784   0.310   6.095 -0.2022  0.3160 -0.2348
  608MOL0     C81978   9.847   0.402   6.010 -0.8282 -0.3839 -0.9083
  608MOL0     C81979   9.982   0.388   5.967  0.1782 -0.1960 -0.0664
  608MOL0     C81980  10.042   0.267   6.004 -0.8321  0.4394  0.5490
  608MOL0     O81981  10.177   0.239   5.978 -0.3970  0.0511  0.4301
  608MOL0     C81982  10.230   0.266   5.849  0.5387  0.4226 -0.8277
  608MOL0     C81983  10.324   0.154   5.817 -0.0797  0.6738 -0.0906
  608MOL0     C81984  10.440   0.194   5.727 -0.5360  0.2226  0.8176
  608MOL0     C81985  10.517   0.067   5.687 -0.6258  0.4164 -0.2818
  608MOL0     C81986  10.654   0.101   5.618  0.0796  0.3549  0.5692
  608MOL0     C81987  10.655   0.077   5.470 -0.0937 -0.6789 -0.3178
  608MOL0     C81988  10.661  -0.072   5.454 -0.1887  0.6562 -0.5980
  608MOL0     C81989  10.595  -0.126   5.325  0.1425  0.7651 -0.3040
  608MOL0    Cl81990  10.661  -0.034   5.192 -0.1078 -0.1317 -0.1749
  608MOL0     C81991   9.978   0.172   6.085 -0.4646  0.5513 -0.7516
  608MOL0     C81992   9.847   0.191   6.129 -0.9170  0.2742  0.2859
  608MOL0     O81993   9.585   0.138   6.033  0.5359 -1.2816  0.1726
  608MOL0     C81994   9.343   0.281   5.967 -0.3918  0.5900 -0.7527
  608MOL0     C81995   9.219   0.349   5.956 -0.1026  0.7539 -0.3841
  608MOL0     N81996   8.678   0.689   6.355 -0.0280 -0.2880 -0.0038
  608MOL0     N81997   8.729   0.803   6.412  0.2189  0.5567  0.0719
  608MOL0     C81998   9.848   0.824   5.926  0.1554 -0.7038 -0.2736
  608MOL0     C81999   9.972   0.824   5.860  0.2858 -0.2486  0.1353
  608MOL0     C82000  10.333   0.677   5.612  0.3809  0.6975  0.2740
  608MOL0     C82001  10.380   0.788   5.545  0.0391  0.2113  0.3266
  608MOL0     C82002  10.510   0.792   5.489 -0.3093  0.2225 -0.0591
  608MOL0     C82003  10.589   0.674   5.487  0.2080  0.5610 -1.1697
  608MOL0     O82004  10.704   0.652   5.419 -1.0668 -0.0214 -0.5048
  608MOL0     C82005  10.724   0.729   5.302  0.1004  0.1464 -0.0647
  608MOL0     C82006  10.828   0.660   5.208 -1.2112 -0.2181  0.7877
  608MOL0     C82007  10.967   0.652   5.265 -0.5466  0.4392  0.6244
  608MOL0     C82008  11.068   0.741   5.195 -0.8712  0.6062 -0.6761
  608MOL0     C82009  11.192   0.747   5.270 -0.2956  0.5869 -0.0800
  608MOL0     C82010  11.294   0.750   5.334  0.8742 -0.4751 -0.1060
  608MOL0     C82011  10.531   0.561   5.548 -0.9011  0.4912 -0.5129
  608MOL0     C82012  10.406   0.557   5.608 -0.4191 -1.0035  0.6214
  608MOL0     H82013   9.898   0.684   5.570  1.4427  1.8050  0.0422
  608MOL0     H82014   9.683   0.699   5.659  1.5775  2.0084 -3.8631
  608MOL0     H82015   9.619   0.625   6.049  1.2153 -0.1874 -0.5073
  608MOL0     H82016   9.659   0.787   6.121  3.9744  0.0048 -3.5315
  608MOL0     H82017   9.415   0.844   6.021  2.7979  1.5457  0.2748
  608MOL0     H82018   9.389   0.670   6.065  1.7641 -0.8602  0.8211
  608MOL0     H82019   9.449   0.726   6.308  2.8149  0.1770 -0.1436
  608MOL0     H82020   9.475   0.888   6.253  0.5833 -1.3619  0.2283
  608MOL0     H82021   9.240   0.915   6.196  0.6007  1.5208  1.5167
  608MOL0     H82022   9.209   0.744   6.226  0.6807 -0.9229 -0.6623
  608MOL0     H82023   9.262   0.816   6.471 -0.0994 -1.6740 -1.3704
  608MOL0     H82024   9.278   0.976   6.404  1.6996 -1.3414 -0.9675
  608MOL0     H82025   9.031   0.803   6.423 -0.2361  0.6593 -0.0859
  608MOL0     H82026   9.066   0.952   6.513 -1.6329 -2.1493  3.0242
  608MOL0     H82027   9.055   1.082   6.309 -1.1001  0.1153  1.0941
  608MOL0     H82028   9.029   0.943   6.208  4.3946  0.9210  0.4520
  608MOL0     H82029   8.835   1.081   6.253 -0.1998 -1.1190 -0.7334
  608MOL0     H82030   8.849   1.053   6.427  0.5613 -0.2599  0.8814
  608MOL0     H82031   8.776   0.859   6.093  0.9800  1.4855 -0.3679
  608MOL0     H82032   8.543   0.548   6.131  0.0927 -0.6281 -0.2037
  608MOL0     H82033   8.595   0.663   6.011  2.0931 -3.6253 -3.4001
  608MOL0     H82034   8.681   0.411   6.018 -0.6617  1.0634 -1.4511
  608MOL0     H82035   8.769   0.461   6.164 -0.2311 -0.8023  0.1796
  608MOL0     H82036   8.865   0.652   6.022  1.3442 -0.9703  1.0144
  608MOL0     H82037   8.793   0.574   5.880  0.3988 -0.8881  0.9197
  608MOL0     H82038   9.004   0.509   5.869  2.1004 -1.4057  1.0163
  608MOL0     H82039   8.931   0.362   5.945 -3.2836  1.1969 -1.2804
  608MOL0     H82040   9.212   0.497   6.252 -2.7977 -1.2942 -0.5152
  608MOL0     H82041   9.522   0.495   6.283 -2.4574  2.2697  2.6619
  608MOL0     H82042   9.389   0.439   6.389  0.6965 -0.0062  0.6604
  608MOL0     H82043   9.511   0.326   6.332  2.9580  0.8681 -1.5552
  608MOL0     H82044   9.781   0.483   5.978 -1.4204 -0.3002  0.4414
  608MOL0     H82045  10.024   0.457   5.895  0.7093 -1.8158 -1.3726
  608MOL0     H82046  10.147   0.276   5.779  0.0834 -0.3419 -0.4159
  608MOL0     H82047  10.289   0.356   5.868  1.3198 -0.4276  1.0430
  608MOL0     H82048  10.370   0.115   5.908 -1.6145 -0.0384  0.4289
  608MOL0     H82049  10.263   0.078   5.767 -0.7400 -0.4106  2.2327
  608MOL0     H82050  10.505   0.259   5.787  1.2761 -0.8601  0.1178
  608MOL0     H82051  10.401   0.248   5.640 -0.0128  0.9213  1.0026
  608MOL0     H82052  10.546   0.012   5.777 -1.7534  1.1692  0.5733
  608MOL0     H82053  10.451   0.002   5.631 -0.5433 -0.7874  0.9648
  608MOL0     H82054  10.739   0.042   5.653  1.2593  2.3574  1.1936
  608MOL0     H82055  10.689   0.204   5.624  0.5893  0.2968 -0.9750
  608MOL0     H82056  10.566   0.111   5.416  0.2047 -1.1615 -1.1419
  608MOL0     H82057  10.744   0.121   5.425 -1.0168  0.0940 -1.4501
  608MOL0     H82058  10.598  -0.117   5.531  2.0070  2.2323  2.2777
  608MOL0     H82059  10.760  -0.116   5.462 -0.6059 -0.0069  1.5677
  608MOL0     H82060  10.487  -0.114   5.329 -0.5146 -3.5598 -1.0547
  608MOL0     H82061  10.611  -0.234   5.316  3.0795  1.2298 -2.0581
  608MOL0     H82062  10.024   0.076   6.107 -0.5186  1.3434  3.7533
  608MOL0     H82063   9.802   0.113   6.189  0.0114  1.0474  2.0396
  608MOL0     H82064   9.365   0.222   5.879 -2.4115  0.5877 -1.3094
  608MOL0     H82065   9.146   0.326   5.879 -1.1797 -1.7557  1.2613
  608MOL0     H82066   9.843   0.866   6.026  0.7826  1.6121 -1.1371
  608MOL0     H82067  10.061   0.859   5.912  0.9772  3.0533 -2.9205
  608MOL0     H82068  10.329   0.883   5.555 -1.4686 -0.7891  3.0331
  608MOL0     H82069  10.542   0.882   5.437  1.9270 -0.5302 -0.1090
  608MOL0     H82070  10.624   0.737   5.259  1.3927  1.7562 -3.0903
  608MOL0     H82071  10.756   0.831   5.327  2.7727 -1.1320  2.2075
  608MOL0     H82072  10.825   0.711   5.112  1.8790 -1.6140 -0.1805
  608MOL0     H82073  10.798   0.555   5.206 -2.0515  0.0138 -1.6101
  608MOL0     H82074  11.001   0.550   5.248 -1.2314  0.1736  0.8118
  608MOL0     H82075  10.959   0.668   5.373 -1.8072 -1.8211  0.9317
  608MOL0     H82076  11.031   0.844   5.192 -0.3644  0.7840 -0.9850
  608MOL0     H82077  11.087   0.711   5.091 -1.6229 -0.4431 -0.5247
  608MOL0     H82078  11.383   0.745   5.393  0.6149 -1.0335  0.2480
  608MOL0     H82079  10.595   0.474   5.564  0.9776  2.2391  2.3977
  608MOL0     H82080  10.370   0.468   5.657 -2.0474 -0.4778  0.4430
  609MOL0     O82081   4.952   1.340   4.286  0.4088  0.9298  0.3046
  609MOL0     C82082   4.992   1.226   4.258 -0.7521  0.5902  0.4962
  609MOL0     O82083   4.917   1.112   4.257 -0.0561 -0.2305 -0.0079
  609MOL0     C82084   4.776   1.114   4.267  0.2792 -0.4688 -0.4660
  609MOL0     C82085   4.703   1.102   4.148  0.6857  0.2235  0.1749
  609MOL0     C82086   4.563   1.084   4.152 -0.5416 -1.2852  0.5794
  609MOL0     C82087   4.499   1.103   4.281 -0.4685 -0.1912 -0.0160
  609MOL0     O82088   4.365   1.120   4.296  0.0180 -0.8028  0.1098
  609MOL0     C82089   4.256   1.090   4.205  0.3577  0.2370  0.3396
  609MOL0     C82090   4.182   0.974   4.266 -0.6641 -0.4681  0.5512
  609MOL0     C82091   4.043   0.951   4.214  0.6305  0.3997 -0.1324
  609MOL0     C82092   3.960   0.857   4.314  0.0620  0.1500  0.5432
  609MOL0     C82093   3.918   0.936   4.436 -0.2235  0.6164  0.0683
  609MOL0     C82094   3.786   0.891   4.511 -0.0798 -0.7974  0.0167
  609MOL0     C82095   3.764   0.744   4.549  0.0030  0.6180 -0.0211
  609MOL0     C82096   3.883   0.702   4.643 -0.7095 -0.4403  0.7142
  609MOL0     N82097   3.876   0.768   4.776 -0.3922 -0.2650  0.4117
  609MOL0     C82098   3.825   0.707   4.889  0.2216 -0.3190  1.1092
  609MOL0     C82099   3.830   0.798   4.985  0.8286  0.3237 -0.3443
  609MOL0     C82100   3.764   0.797   5.129 -0.0537  0.2158  0.0945
  609MOL0     C82101   3.615   0.764   5.130  1.5987  0.0916  0.1264
  609MOL0     C82102   3.522   0.885   5.093 -0.7607 -1.4148 -0.6909
  609MOL0     C82103   3.378   0.850   5.099 -0.5305  0.4243  0.2376
  609MOL0     O82104   3.305   0.970   5.104  0.0527 -0.0219 -0.0194
  609MOL0     C82105   3.169   0.972   5.075  0.2871 -0.3822 -0.3279
  609MOL0     C82106   3.101   0.863   5.014 -0.9419  0.6445  0.4288
  609MOL0     C82107   2.966   0.863   4.997  0.5532 -0.2403  0.2524
  609MOL0     C82108   2.910   0.733   4.945  0.1649 -0.3544 -0.1913
  609MOL0     C82109   2.892   0.976   5.042 -0.4246 -0.1561  0.1666
  609MOL0     C82110   2.738   0.981   5.038 -0.0776 -1.0832 -0.6178
  609MOL0     O82111   2.672   1.101   5.065 -1.4317 -0.3758  0.2985
  609MOL0     C82112   2.542   1.104   5.043 -0.6538  0.6000 -0.0452
  609MOL0     C82113   2.484   1.081   4.921 -0.3481  0.2313  0.3525
  609MOL0     C82114   2.348   1.091   4.900  0.8609 -0.8142 -0.6699
  609MOL0     C82115   2.258   1.106   5.008  0.6713 -0.3003 -0.3913
  609MOL0     O82116   2.124   1.105   5.004  0.2423  0.4464 -0.7481
  609MOL0     C82117   2.079   0.968   4.983 -0.8829 -1.3092  0.1950
  609MOL0     C82118   1.928   0.964   4.975  1.5335  0.3038 -0.7862
  609MOL0     C82119   1.871   0.817   4.960 -0.4653 -0.1960  0.6389
  609MOL0     C82120   1.732   0.815   5.020 -0.2649  0.4477  0.0459
  609MOL0     C82121   1.658   0.677   5.021 -0.3455 -0.4309  0.0757
  609MOL0     C82122   1.524   0.704   5.095 -0.2011 -0.4120 -0.2662
  609MOL0     C82123   1.424   0.764   4.994  0.0940 -0.7057 -0.5773
  609MOL0     C82124   1.282   0.752   5.050 -1.1877 -0.5795  0.0627
  609MOL0    Cl82125   1.229   0.861   5.188 -0.4713 -0.1789  0.2980
  609MOL0     C82126   2.315   1.131   5.135  0.1944  1.5345  0.6077
  609MOL0     C82127   2.454   1.142   5.149 -0.2301 -0.7555  0.0367
  609MOL0     O82128   2.682   0.872   5.012 -0.3637 -1.0482  0.1263
  609MOL0     C82129   2.962   1.089   5.088  0.2694  0.2511 -1.0330
  609MOL0     C82130   3.100   1.087   5.110  0.9041  0.9177  0.8083
  609MOL0     N82131   3.876   0.909   4.935 -0.4896  0.2350  0.7665
  609MOL0     N82132   3.903   0.897   4.816  0.5952  0.3474  0.0827
  609MOL0     C82133   4.578   1.112   4.395  0.6063 -0.5547 -0.4992
  609MOL0     C82134   4.714   1.119   4.397 -0.0693 -0.1789  0.4769
  609MOL0     C82135   5.136   1.226   4.230 -0.2723  0.3539  0.0465
  609MOL0     C82136   5.205   1.104   4.197 -0.5593  1.0557  0.3220
  609MOL0     C82137   5.344   1.102   4.159 -0.2662 -1.2256  0.3108
  609MOL0     C82138   5.404   1.229   4.157 -0.7889 -0.0054  0.5093
  609MOL0     O82139   5.531   1.217   4.120 -0.7700  0.0887  0.8281
  609MOL0     C82140   5.619   1.338   4.105  0.3394  0.0142 -0.4534
  609MOL0     C82141   5.762   1.283   4.079 -0.0250 -0.3997 -0.2225
  609MOL0     C82142   5.788   1.240   3.939  0.8143  0.8124  0.0452
  609MOL0     C82143   5.894   1.131   3.931  0.2451 -0.0915 -0.8403
  609MOL0     C82144   5.923   1.113   3.793  0.3042  0.4619  0.7175
  609MOL0     C82145   5.949   1.098   3.679 -0.2245 -0.3784 -0.8697
  609MOL0     C82146   5.336   1.352   4.176  0.8116  0.3631 -0.5823
  609MOL0     C82147   5.207   1.344   4.221  0.2018 -0.1843 -0.7306
  609MOL0     H82148   4.753   1.079   4.055 -0.2923  0.1186 -0.3451
  609MOL0     H82149   4.501   1.059   4.066 -1.4567 -0.8928  1.1118
  609MOL0     H82150   4.189   1.177   4.211  1.1499  0.8038  1.1674
  609MOL0     H82151   4.288   1.072   4.102 -0.0248 -5.2730  0.8772
  609MOL0     H82152   4.249   0.891   4.242  3.5703  2.7831 -0.1306
  609MOL0     H82153   4.184   0.981   4.375 -0.3583  1.0539  0.4658
  609MOL0     H82154   3.984   1.042   4.209 -0.1556 -0.1668 -2.0643
  609MOL0     H82155   4.049   0.901   4.117 -0.8610 -1.9693  0.9233
  609MOL0     H82156   3.866   0.827   4.265 -0.9133  0.5010  2.1372
  609MOL0     H82157   4.015   0.768   4.344 -1.1262 -2.3531 -3.7842
  609MOL0     H82158   4.000   0.937   4.509  0.7033 -1.7046 -0.8571
  609MOL0     H82159   3.909   1.040   4.404 -3.4729 -0.1262 -1.8796
  609MOL0     H82160   3.767   0.962   4.592  0.1902  1.5683 -1.8992
  609MOL0     H82161   3.705   0.913   4.441 -1.2794  0.0471  1.5926
  609MOL0     H82162   3.665   0.718   4.587 -0.7364  1.5378 -1.2355
  609MOL0     H82163   3.777   0.681   4.461 -0.4054  0.0561  0.3153
  609MOL0     H82164   3.977   0.732   4.595  0.3599  0.8292  3.4066
  609MOL0     H82165   3.885   0.594   4.659  2.7009 -0.3117  2.1201
  609MOL0     H82166   3.784   0.607   4.889  2.5096 -1.4256 -1.9568
  609MOL0     H82167   3.809   0.710   5.178  1.6726  0.3223 -1.2083
  609MOL0     H82168   3.780   0.892   5.182 -3.2408  2.8647 -3.1982
  609MOL0     H82169   3.588   0.736   5.232  2.2137 -1.4574 -0.1048
  609MOL0     H82170   3.605   0.678   5.063 -2.4364  0.2185  0.3597
  609MOL0     H82171   3.547   0.937   5.000 -3.8143  1.3927 -0.1203
  609MOL0     H82172   3.532   0.967   5.164 -2.7604 -2.2954  0.7077
  609MOL0     H82173   3.362   0.799   5.194  0.6282 -3.8053 -1.5760
  609MOL0     H82174   3.362   0.790   5.008  1.0180 -0.2768  0.3990
  609MOL0     H82175   3.156   0.777   4.977 -1.6722  0.1024  0.5781
  609MOL0     H82176   2.851   0.689   5.025  3.8404 -2.4192  1.6609
  609MOL0     H82177   2.846   0.761   4.861 -1.5982  0.3809  1.3393
  609MOL0     H82178   2.985   0.660   4.913 -1.2424 -2.0010  0.1071
  609MOL0     H82179   2.550   1.059   4.837 -0.5723  0.6580  0.0580
  609MOL0     H82180   2.308   1.075   4.800  0.3426  0.6344 -0.7248
  609MOL0     H82181   2.128   0.923   4.896  0.8509  0.2572  0.2702
  609MOL0     H82182   2.114   0.904   5.065  1.0638  0.4009  0.7898
  609MOL0     H82183   1.897   0.999   5.074  2.5532 -1.9543  0.3976
  609MOL0     H82184   1.878   1.025   4.899 -1.7514 -1.1497  0.0185
  609MOL0     H82185   1.944   0.751   5.008  1.2766  0.2503 -1.2295
  609MOL0     H82186   1.872   0.800   4.852  1.4511  4.0966 -0.2451
  609MOL0     H82187   1.734   0.852   5.123  3.0748 -1.8260  0.9428
  609MOL0     H82188   1.684   0.894   4.962  0.9700 -0.0204 -1.6702
  609MOL0     H82189   1.711   0.604   5.083 -1.9455 -3.1240 -1.4990
  609MOL0     H82190   1.637   0.640   4.920 -0.7128  1.2186 -0.4796
  609MOL0     H82191   1.484   0.611   5.138 -1.0450 -1.7152 -3.5483
  609MOL0     H82192   1.551   0.779   5.170  1.9378 -1.3484 -0.0319
  609MOL0     H82193   1.410   0.712   4.899  0.6035 -0.4222 -0.8115
  609MOL0     H82194   1.449   0.869   4.976 -2.7020  0.3424  0.9661
  609MOL0     H82195   1.258   0.648   5.073 -1.9579 -0.1032  1.5427
  609MOL0     H82196   1.221   0.781   4.964 -2.7073  1.3095  1.6732
  609MOL0     H82197   2.247   1.153   5.216 -0.2678 -1.9097  1.3013
  609MOL0     H82198   2.490   1.173   5.247  0.3030  0.7340 -0.6073
  609MOL0     H82199   2.901   1.171   5.125 -1.4628 -1.6875  0.6681
  609MOL0     H82200   3.167   1.157   5.159  4.0757 -3.6188  3.6993
  609MOL0     H82201   4.519   1.117   4.487 -1.6292 -0.2635 -1.8690
  609MOL0     H82202   4.764   1.134   4.492  0.7236 -0.6455  0.1398
  609MOL0     H82203   5.164   1.005   4.208  1.1718  0.4480  1.8388
  609MOL0     H82204   5.400   1.011   4.144 -0.1619 -1.0518 -0.3981
  609MOL0     H82205   5.575   1.412   4.038  1.3701 -0.1549 -1.3533
  609MOL0     H82206   5.618   1.382   4.205 -4.4781  0.8267 -0.6111
  609MOL0     H82207   5.791   1.208   4.152 -1.5284  0.1547  0.9813
  609MOL0     H82208   5.827   1.369   4.099  0.7860 -1.0471 -0.0200
  609MOL0     H82209   5.819   1.326   3.878  1.7836  0.4843  0.0614
  609MOL0     H82210   5.692   1.209   3.897  1.9452 -1.7921 -0.7886
  609MOL0     H82211   5.841   1.043   3.969 -1.1301  1.1343  0.2171
  609MOL0     H82212   5.986   1.156   3.984  0.3961  3.5457 -2.5407
  609MOL0     H82213   5.989   1.061   3.588  0.8587 -1.1273 -0.1097
  609MOL0     H82214   5.386   1.447   4.159  0.3501  0.3608 -2.0905
  609MOL0     H82215   5.163   1.438   4.253  0.8051 -0.1387 -0.0165
  610MOL0     O82216  10.578   0.189  10.636 -0.1351 -0.1233 -0.2729
  610MOL0     C82217  10.465   0.233  10.658  0.3938 -0.6542  0.8308
  610MOL0     O82218  10.403   0.335  10.586 -0.0357  0.1860 -0.1412
  610MOL0     C82219  10.456   0.378  10.464 -0.2021  0.5661 -0.6446
  610MOL0     C82220  10.373   0.378  10.353  0.6158  0.5769 -1.0991
  610MOL0     C82221  10.411   0.438  10.235 -0.3735 -0.3663  0.0227
  610MOL0     C82222  10.540   0.492  10.228 -0.3976  0.9390 -0.2213
  610MOL0     O82223  10.593   0.554  10.120 -0.2899 -0.2259 -0.3498
  610MOL0     C82224  10.576   0.482  10.003 -0.2173 -0.4564  0.5572
  610MOL0     C82225  10.646   0.579   9.901  0.1365  0.0550 -0.8399
  610MOL0     C82226  10.796   0.594   9.917 -1.0910  0.0707 -0.0476
  610MOL0     C82227  10.879   0.473   9.893 -1.2870  0.2240  0.5533
  610MOL0     C82228  11.026   0.494   9.948  0.3217 -0.5431  0.2059
  610MOL0     C82229  11.012   0.449  10.094 -0.6642  0.4358 -0.5790
  610MOL0     C82230  11.131   0.491  10.188  0.1055  0.2774  0.6301
  610MOL0     C82231  11.269   0.449  10.129 -0.7149  0.5205 -0.0720
  610MOL0     N82232  11.297   0.302  10.138 -0.8524 -0.7052 -0.3024
  610MOL0     C82233  11.332   0.238  10.249 -0.0244  0.1431 -0.2585
  610MOL0     C82234  11.323   0.102  10.222  0.1745 -0.7609 -0.8962
  610MOL0     C82235  11.353  -0.012  10.312  0.5782  0.5006 -0.2019
  610MOL0     C82236  11.212  -0.049  10.380  0.5083 -0.2600  0.8680
  610MOL0     C82237  11.194   0.029  10.517  0.6726 -0.1442  1.2485
  610MOL0     C82238  11.063  -0.015  10.579  0.3716 -0.1319  0.3652
  610MOL0     O82239  11.051  -0.156  10.590  0.0183 -0.3841  0.1498
  610MOL0     C82240  10.929  -0.210  10.631  0.1255 -0.2081 -0.0644
  610MOL0     C82241  10.919  -0.351  10.636  0.6214 -0.5772  0.1568
  610MOL0     C82242  10.799  -0.420  10.684  0.6618  0.1822 -0.6146
  610MOL0     C82243  10.811  -0.573  10.713 -0.1306  0.0641 -0.5492
  610MOL0     C82244  10.674  -0.346  10.705  0.8527  0.1218 -0.0385
  610MOL0     C82245  10.536  -0.405  10.735 -0.9415 -0.8844 -0.5991
  610MOL0     O82246  10.425  -0.325  10.732  0.6932  0.1688 -0.3440
  610MOL0     C82247  10.300  -0.366  10.785  0.0423 -0.7332  0.0971
  610MOL0     C82248  10.235  -0.483  10.761 -0.4939 -0.3728 -0.0373
  610MOL0     C82249  10.107  -0.518  10.810 -0.2033  0.1040 -0.6012
  610MOL0     C82250  10.035  -0.428  10.890  0.6822  0.1591  0.6370
  610MOL0     O82251   9.919  -0.469  10.945  0.7187  0.7018  0.2919
  610MOL0     C82252   9.818  -0.509  10.854 -0.4213  0.8457 -0.4799
  610MOL0     C82253   9.756  -0.650  10.897 -0.5787  0.9768 -0.2741
  610MOL0     C82254   9.630  -0.634  10.983  0.0827 -0.3801 -0.6007
  610MOL0     C82255   9.659  -0.597  11.128  0.5756  0.0349  0.7043
  610MOL0     C82256   9.536  -0.573  11.204  0.6495  0.1248  0.3054
  610MOL0     C82257   9.450  -0.698  11.241  0.1627 -0.9669 -0.2894
  610MOL0     C82258   9.533  -0.811  11.299  0.2772 -0.7303 -0.6803
  610MOL0     C82259   9.458  -0.937  11.316 -0.2261 -0.0169 -0.1765
  610MOL0    Cl82260   9.462  -1.039  11.174  0.0253 -0.4396 -0.2544
  610MOL0     C82261  10.091  -0.306  10.920 -0.9054  0.1250 -0.7222
  610MOL0     C82262  10.220  -0.280  10.864 -0.4659 -0.3549 -0.7590
  610MOL0     O82263  10.535  -0.524  10.760  0.2082 -0.5329 -0.3912
  610MOL0     C82264  10.689  -0.203  10.689  0.0563  0.0615 -0.3072
  610MOL0     C82265  10.814  -0.134  10.664 -0.6990  0.4004 -0.0663
  610MOL0     N82266  11.289   0.099  10.089  0.9470  0.5524  0.3643
  610MOL0     N82267  11.272   0.216  10.035  0.1997 -0.3260 -0.3388
  610MOL0     C82268  10.625   0.477  10.338 -0.7101  0.4907  0.0134
  610MOL0     C82269  10.587   0.433  10.465  0.5094  0.1168  0.2928
  610MOL0     C82270  10.404   0.201  10.791 -0.0552 -1.2647  0.4645
  610MOL0     C82271  10.475   0.157  10.900 -0.2048 -0.0035  0.7848
  610MOL0     C82272  10.420   0.111  11.014 -0.5462 -0.8584  0.1936
  610MOL0     C82273  10.278   0.123  11.026 -0.5919  0.2594 -0.4723
  610MOL0     O82274  10.211   0.066  11.137  0.3595 -0.3272  0.1089
  610MOL0     C82275  10.280  -0.010  11.234 -0.1890  0.3931 -0.2662
  610MOL0     C82276  10.198  -0.012  11.363 -0.7440  0.1282 -0.6051
  610MOL0     C82277  10.054  -0.066  11.325  0.2290 -0.3149  0.1069
  610MOL0     C82278   9.994  -0.158  11.433  0.1408 -0.3135  0.0734
  610MOL0     C82279   9.960  -0.086  11.549  0.0033  0.0200 -0.3684
  610MOL0     C82280   9.951  -0.021  11.651 -0.0265  0.3894  1.5343
  610MOL0     C82281  10.207   0.189  10.930 -0.6210 -0.4020  0.2607
  610MOL0     C82282  10.265   0.217  10.810  0.3458  0.0212  0.0773
  610MOL0     H82283  10.282   0.320  10.362  1.0050  0.0563 -0.4586
  610MOL0     H82284  10.344   0.446  10.150 -1.1940  0.4104  0.7163
  610MOL0     H82285  10.626   0.386  10.020 -2.3176 -1.3442  2.0988
  610MOL0     H82286  10.471   0.470   9.976 -0.2912 -2.2130  1.4881
  610MOL0     H82287  10.632   0.533   9.803 -0.8257 -0.5769 -0.4114
  610MOL0     H82288  10.599   0.678   9.907  2.1349  1.1823 -2.2743
  610MOL0     H82289  10.826   0.672   9.845 -0.8603  0.8927  0.9141
  610MOL0     H82290  10.823   0.634  10.015  1.3442 -0.6616 -0.3508
  610MOL0     H82291  10.834   0.385   9.940 -0.2305 -1.2319 -1.0155
  610MOL0     H82292  10.881   0.435   9.790 -0.1522 -2.4860  1.4857
  610MOL0     H82293  11.100   0.429   9.900  0.2318  1.1806 -2.4506
  610MOL0     H82294  11.071   0.593   9.937  0.6044 -0.6891  0.0499
  610MOL0     H82295  10.920   0.484  10.143 -0.7807 -1.9948  1.1746
  610MOL0     H82296  10.992   0.342  10.099 -5.9917  1.0223 -2.7175
  610MOL0     H82297  11.136   0.600  10.185 -0.7334  0.3101  0.1063
  610MOL0     H82298  11.128   0.460  10.293 -1.3785 -1.3849  0.1373
  610MOL0     H82299  11.352   0.496  10.182 -1.1746  1.4581 -0.1620
  610MOL0     H82300  11.282   0.475  10.024 -0.6650  2.7551  0.4458
  610MOL0     H82301  11.360   0.279  10.345  0.5528  1.2621 -0.8790
  610MOL0     H82302  11.379  -0.100  10.252  0.6718  2.2996 -2.9691
  610MOL0     H82303  11.438   0.005  10.379  1.6529 -3.3826 -0.3335
  610MOL0     H82304  11.203  -0.158  10.389 -0.9407 -0.3700 -1.1623
  610MOL0     H82305  11.133  -0.028  10.307  1.6228 -1.3304 -0.7244
  610MOL0     H82306  11.197   0.134  10.486  2.0311 -0.0997  1.4784
  610MOL0     H82307  11.277   0.019  10.588  3.5894 -0.0743 -1.9278
  610MOL0     H82308  10.982   0.033  10.524 -1.7706 -3.5660  0.2552
  610MOL0     H82309  11.051   0.036  10.675 -1.2133  1.2235 -0.5096
  610MOL0     H82310  11.009  -0.405  10.608 -0.5002 -1.8600 -1.1007
  610MOL0     H82311  10.729  -0.631  10.671  0.8561 -1.0311 -0.9909
  610MOL0     H82312  10.904  -0.603  10.665  0.1371 -0.3225  0.1953
  610MOL0     H82313  10.809  -0.593  10.820 -0.3691 -2.3544 -0.9613
  610MOL0     H82314  10.286  -0.542  10.686 -2.3878  1.1334 -2.7275
  610MOL0     H82315  10.050  -0.606  10.782 -3.9820  1.5664  1.7293
  610MOL0     H82316   9.738  -0.434  10.846  0.5259  1.6843 -3.4931
  610MOL0     H82317   9.853  -0.520  10.751  4.2074 -1.9700  1.1120
  610MOL0     H82318   9.730  -0.700  10.804 -0.6544  0.6463 -0.0783
  610MOL0     H82319   9.830  -0.719  10.937 -2.1196  0.8456  2.6429
  610MOL0     H82320   9.560  -0.718  10.975 -1.3307  0.5636  1.0948
  610MOL0     H82321   9.568  -0.556  10.939  1.3945  0.1397 -1.5940
  610MOL0     H82322   9.728  -0.669  11.174 -0.3623 -2.4582 -1.5541
  610MOL0     H82323   9.715  -0.504  11.136 -1.4564  1.1360  4.9426
  610MOL0     H82324   9.471  -0.503  11.151 -2.0641 -1.6198  1.1466
  610MOL0     H82325   9.572  -0.525  11.296 -1.7106 -2.6367  2.8969
  610MOL0     H82326   9.373  -0.666  11.312  0.0406 -1.8131 -0.0410
  610MOL0     H82327   9.387  -0.734  11.159 -3.2989  0.0189  1.7264
  610MOL0     H82328   9.572  -0.781  11.397 -0.9827  1.7860 -0.8762
  610MOL0     H82329   9.615  -0.842  11.233  0.0939  1.7693 -2.2130
  610MOL0     H82330   9.350  -0.927  11.327 -0.0335  0.8040  1.2339
  610MOL0     H82331   9.497  -0.994  11.401 -0.2284 -0.0838 -0.2206
  610MOL0     H82332  10.049  -0.223  10.976  1.1251  1.8812 -1.6718
  610MOL0     H82333  10.272  -0.185  10.869 -0.2013 -0.4249 -1.7961
  610MOL0     H82334  10.598  -0.147  10.709  1.0869  1.7502 -0.0969
  610MOL0     H82335  10.812  -0.026  10.658  0.1360  0.3576 -2.0682
  610MOL0     H82336  10.726   0.506  10.309 -1.3953  0.0298 -3.3197
  610MOL0     H82337  10.655   0.423  10.549  0.2722  0.5113  0.5360
  610MOL0     H82338  10.584   0.159  10.892 -0.3486  1.9823 -1.6781
  610MOL0     H82339  10.481   0.063  11.090  0.9729 -1.6216 -1.4438
  610MOL0     H82340  10.293  -0.108  11.188  2.2756 -0.7437  2.5169
  610MOL0     H82341  10.378   0.027  11.264 -0.5012 -2.1444  4.9397
  610MOL0     H82342  10.189   0.085  11.412 -1.9116  0.8187 -2.0934
  610MOL0     H82343  10.251  -0.081  11.429 -0.9069 -0.1731 -0.7859
  610MOL0     H82344  10.057  -0.129  11.235 -1.5453 -0.8093  0.3574
  610MOL0     H82345   9.982   0.012  11.300  0.0380  0.0409  1.7049
  610MOL0     H82346  10.061  -0.239  11.463 -0.6708 -1.3648 -0.8457
  610MOL0     H82347   9.903  -0.206  11.396 -0.4835  2.1252 -1.7748
  610MOL0     H82348   9.929   0.024  11.746 -0.5471 -0.0782  1.6386
  610MOL0     H82349  10.105   0.221  10.950 -0.2308  0.9350  0.2672
  610MOL0     H82350  10.210   0.256  10.725  2.6610  2.2472 -0.5458
  611MOL0     O82351   6.250   2.238   4.071 -0.1720  0.0784 -0.1895
  611MOL0     C82352   6.251   2.223   4.193  0.6190  0.2222  0.2384
  611MOL0     O82353   6.160   2.153   4.264 -0.6146  0.3588  0.1120
  611MOL0     C82354   6.055   2.095   4.203 -0.0508 -1.0367  0.0266
  611MOL0     C82355   6.075   1.986   4.125 -1.1733  0.5402  1.3582
  611MOL0     C82356   5.967   1.910   4.072  0.4584 -0.0143 -0.6302
  611MOL0     C82357   5.834   1.956   4.092 -0.2336  0.0010 -0.2336
  611MOL0     O82358   5.728   1.883   4.047  0.5565 -0.5450 -0.8165
  611MOL0     C82359   5.600   1.886   4.122 -0.3139 -0.6884 -0.7842
  611MOL0     C82360   5.504   1.791   4.057 -0.2184  1.1917  0.2785
  611MOL0     C82361   5.375   1.771   4.133 -0.5546  0.2317  0.3985
  611MOL0     C82362   5.276   1.737   4.028  0.2367 -0.0622 -0.0403
  611MOL0     C82363   5.124   1.733   4.084 -0.6331 -0.6199 -0.4002
  611MOL0     C82364   5.026   1.723   3.970 -0.1947 -0.0876 -1.0664
  611MOL0     C82365   4.889   1.757   4.036  0.8672 -0.1696  0.4881
  611MOL0     C82366   4.769   1.769   3.940 -0.0271  0.6956 -0.4723
  611MOL0     N82367   4.653   1.811   4.020  0.0606 -0.6952  0.2268
  611MOL0     C82368   4.576   1.726   4.097 -0.5764  0.4485  0.6224
  611MOL0     C82369   4.476   1.803   4.150  0.2331 -0.3441 -0.0062
  611MOL0     C82370   4.368   1.742   4.242 -0.4057 -1.3245  0.0226
  611MOL0     C82371   4.268   1.859   4.276  0.2559  0.4358  0.3140
  611MOL0     C82372   4.132   1.814   4.236 -0.1581 -0.0280  0.5907
  611MOL0     C82373   4.022   1.910   4.284 -0.8418  0.7580 -0.3322
  611MOL0     O82374   4.031   2.035   4.216 -0.3168  0.3917  0.2578
  611MOL0     C82375   3.958   2.143   4.259  0.2117 -0.4161  0.1719
  611MOL0     C82376   3.844   2.123   4.340 -0.0526 -0.8262  0.3238
  611MOL0     C82377   3.750   2.228   4.372  0.6273 -0.1508  0.3339
  611MOL0     C82378   3.626   2.186   4.435  0.5080 -0.2134 -0.4009
  611MOL0     C82379   3.783   2.357   4.319  0.8886  0.8212 -0.2382
  611MOL0     C82380   3.691   2.476   4.321  0.0313 -0.5062  0.7987
  611MOL0     O82381   3.555   2.446   4.344 -0.3804 -1.0642  0.9177
  611MOL0     C82382   3.455   2.539   4.383  0.1950  0.1970  0.2150
  611MOL0     C82383   3.466   2.676   4.388 -0.5704 -0.2004 -0.5488
  611MOL0     C82384   3.350   2.750   4.415 -0.4437  0.1102 -0.5134
  611MOL0     C82385   3.228   2.695   4.439  0.3225 -0.6936  0.9116
  611MOL0     O82386   3.125   2.777   4.459 -0.0890  0.1272  0.6863
  611MOL0     C82387   2.989   2.728   4.431  0.5631 -0.3274 -0.4431
  611MOL0     C82388   2.901   2.757   4.552  0.0969 -0.0718  0.0325
  611MOL0     C82389   2.892   2.907   4.573 -0.4092  0.2405  0.7478
  611MOL0     C82390   2.744   2.942   4.611  0.1501  0.7072 -0.2223
  611MOL0     C82391   2.701   2.885   4.746 -0.6169  0.8581  0.9531
  611MOL0     C82392   2.553   2.892   4.758  0.8721 -0.7662  0.7396
  611MOL0     C82393   2.496   2.846   4.893 -0.3446  0.7590 -0.9119
  611MOL0     C82394   2.358   2.892   4.907 -0.2468 -0.1030  0.1868
  611MOL0    Cl82395   2.296   2.824   5.053  0.1600 -0.1570  0.2821
  611MOL0     C82396   3.220   2.557   4.441  0.1838 -0.0708 -0.4473
  611MOL0     C82397   3.327   2.481   4.408 -0.1092 -0.0450 -0.0894
  611MOL0     O82398   3.740   2.588   4.317  0.4446  0.3903  0.5304
  611MOL0     C82399   3.904   2.380   4.270  0.2530 -0.1781  0.2395
  611MOL0     C82400   3.990   2.275   4.235  0.3193  0.0209  0.6184
  611MOL0     N82401   4.512   1.934   4.122 -0.4855 -0.5566  0.2914
  611MOL0     N82402   4.617   1.942   4.044 -0.3039 -0.0546 -0.4769
  611MOL0     C82403   5.819   2.080   4.162  0.5274  0.3433 -0.0535
  611MOL0     C82404   5.929   2.151   4.220 -0.1127 -0.0294 -0.7296
  611MOL0     C82405   6.354   2.299   4.277 -0.3196  0.8121  0.5415
  611MOL0     C82406   6.328   2.320   4.410 -0.0268 -0.0502  0.5225
  611MOL0     C82407   6.420   2.380   4.498 -0.4685  0.4638 -0.6196
  611MOL0     C82408   6.549   2.416   4.453 -0.2519  1.2698  1.0342
  611MOL0     O82409   6.634   2.483   4.541 -0.2744 -0.4200  0.1189
  611MOL0     C82410   6.749   2.549   4.499  0.4271 -0.3044 -0.0410
  611MOL0     C82411   6.769   2.653   4.608  0.9201 -0.6499 -0.4725
  611MOL0     C82412   6.889   2.754   4.584 -0.1303  0.4332 -0.5196
  611MOL0     C82413   6.871   2.873   4.667 -0.0970 -0.2410  0.3319
  611MOL0     C82414   6.990   2.962   4.638  0.1297  0.6075 -0.5548
  611MOL0     C82415   7.089   3.021   4.610 -1.0562 -0.1523 -0.0127
  611MOL0     C82416   6.578   2.383   4.316  0.0238 -0.0130  0.1346
  611MOL0     C82417   6.481   2.325   4.228  0.3133  0.0074  0.3030
  611MOL0     H82418   6.179   1.954   4.133 -0.2488  3.5024  2.5873
  611MOL0     H82419   5.983   1.813   4.027  0.2612 -0.2905 -0.1175
  611MOL0     H82420   5.616   1.867   4.229 -2.6171  2.7999  0.3434
  611MOL0     H82421   5.546   1.980   4.139 -0.4097 -1.2734  2.8943
  611MOL0     H82422   5.486   1.823   3.954 -1.9120 -0.6848 -0.0724
  611MOL0     H82423   5.545   1.690   4.057 -0.4686  1.0691 -1.3168
  611MOL0     H82424   5.388   1.697   4.213  0.2430  1.1639  1.1579
  611MOL0     H82425   5.353   1.869   4.177  1.1895  0.4736  0.7977
  611MOL0     H82426   5.283   1.801   3.940  0.0708 -0.3990 -0.3046
  611MOL0     H82427   5.300   1.643   3.977 -0.4326  1.0171 -2.5234
  611MOL0     H82428   5.104   1.646   4.147 -3.3510 -0.2820 -0.6895
  611MOL0     H82429   5.113   1.820   4.150 -2.0887 -0.5680 -0.6673
  611MOL0     H82430   5.039   1.791   3.885  0.5640  0.7638 -0.2989
  611MOL0     H82431   5.033   1.618   3.941  3.2780  0.6768 -3.5886
  611MOL0     H82432   4.866   1.684   4.114 -1.0666 -0.0144  0.1228
  611MOL0     H82433   4.899   1.851   4.090  2.6577 -0.4321  0.6726
  611MOL0     H82434   4.743   1.675   3.891 -3.9157  1.2647  0.2209
  611MOL0     H82435   4.802   1.834   3.858  1.4932 -2.6608 -2.7713
  611MOL0     H82436   4.586   1.623   4.129 -0.1606 -0.0410 -1.0035
  611MOL0     H82437   4.329   1.652   4.196 -0.0779 -1.7826  0.6230
  611MOL0     H82438   4.412   1.721   4.340 -2.1573 -1.7708  0.7479
  611MOL0     H82439   4.293   1.956   4.232  1.0936 -0.7193 -1.9374
  611MOL0     H82440   4.265   1.859   4.385 -1.3795 -0.7508  0.3062
  611MOL0     H82441   4.118   1.715   4.280  2.2572 -1.3681 -1.4060
  611MOL0     H82442   4.128   1.819   4.127 -4.6197  2.6915  0.6181
  611MOL0     H82443   4.020   1.912   4.393 -0.2505 -3.3491 -0.0796
  611MOL0     H82444   3.928   1.865   4.249 -0.8299  1.3904 -1.2145
  611MOL0     H82445   3.819   2.019   4.360  1.7002 -2.4999 -4.6103
  611MOL0     H82446   3.600   2.248   4.521  0.2249  0.7097 -1.1351
  611MOL0     H82447   3.543   2.186   4.364 -0.2882  0.1279  0.5178
  611MOL0     H82448   3.640   2.087   4.478  0.1116  0.1524  0.6001
  611MOL0     H82449   3.561   2.728   4.384 -2.3638  3.3890 -0.3418
  611MOL0     H82450   3.358   2.858   4.421  0.0406 -0.0079  2.5630
  611MOL0     H82451   2.953   2.781   4.342  0.9391  3.6650  1.5410
  611MOL0     H82452   2.979   2.620   4.420  1.4259 -0.4958  0.2971
  611MOL0     H82453   2.799   2.722   4.537  0.2147 -0.9049  1.0405
  611MOL0     H82454   2.935   2.703   4.641 -2.4922 -2.0620 -0.0574
  611MOL0     H82455   2.908   2.955   4.476 -2.8941 -0.0871  0.1039
  611MOL0     H82456   2.966   2.933   4.650 -2.4342  1.5784  2.3462
  611MOL0     H82457   2.727   3.049   4.593  0.4407  0.7538 -0.2372
  611MOL0     H82458   2.679   2.905   4.531 -0.4427  4.4402 -1.6809
  611MOL0     H82459   2.748   2.947   4.824 -2.1011  1.9334  1.0294
  611MOL0     H82460   2.731   2.780   4.744 -2.1163  0.4135 -0.7621
  611MOL0     H82461   2.537   3.000   4.748  0.4600 -0.6280  2.5313
  611MOL0     H82462   2.522   2.828   4.676 -2.0633 -0.0210  1.1684
  611MOL0     H82463   2.561   2.885   4.973 -0.3134  0.0768 -0.6019
  611MOL0     H82464   2.495   2.738   4.911 -0.5956  1.2152  2.6281
  611MOL0     H82465   2.295   2.864   4.822  0.8767  0.5589 -0.8988
  611MOL0     H82466   2.349   3.001   4.916 -0.9719  0.3578 -3.9940
  611MOL0     H82467   3.134   2.497   4.470 -0.4073  0.1144 -1.7079
  611MOL0     H82468   3.299   2.376   4.399 -0.5909  0.2743 -3.6422
  611MOL0     H82469   3.925   2.480   4.233 -0.2057 -0.2964 -0.3572
  611MOL0     H82470   4.083   2.306   4.190 -0.0768  1.7846  0.9378
  611MOL0     H82471   5.718   2.119   4.171 -0.3789 -1.3806 -1.8275
  611MOL0     H82472   5.904   2.241   4.274  2.7304  2.1884 -2.7575
  611MOL0     H82473   6.232   2.300   4.455  0.5094 -0.3657  1.5434
  611MOL0     H82474   6.396   2.400   4.602 -1.6500 -0.0157 -0.7848
  611MOL0     H82475   6.838   2.486   4.510  0.1212 -0.2450  4.1399
  611MOL0     H82476   6.742   2.582   4.395  0.6853 -1.8587 -0.5808
  611MOL0     H82477   6.784   2.604   4.705 -0.3897  0.2584  0.2225
  611MOL0     H82478   6.676   2.710   4.615  0.7314 -0.5174 -3.2051
  611MOL0     H82479   6.893   2.785   4.479  1.1231  0.5152 -0.4580
  611MOL0     H82480   6.979   2.702   4.615 -0.7726 -0.1951  0.3407
  611MOL0     H82481   6.875   2.836   4.770 -1.7287  0.8461  0.8112
  611MOL0     H82482   6.781   2.927   4.638  1.0109 -0.1542 -3.3712
  611MOL0     H82483   7.169   3.083   4.575 -1.9261  0.3344 -1.1981
  611MOL0     H82484   6.679   2.398   4.280  0.6002  0.6009  1.8865
  611MOL0     H82485   6.507   2.308   4.124 -1.9249  1.6623 -0.6009
  612MOL0     O82486   1.155   8.729   3.541 -0.2284 -0.1569  0.0965
  612MOL0     C82487   1.111   8.624   3.565 -0.7159 -0.6067  0.4041
  612MOL0     O82488   1.178   8.515   3.607  0.0816 -0.7060  0.1253
  612MOL0     C82489   1.315   8.525   3.640  0.0321  0.3126  0.0174
  612MOL0     C82490   1.348   8.486   3.768 -0.3417 -0.0694 -1.1250
  612MOL0     C82491   1.488   8.475   3.810  0.7110 -0.3104 -0.2490
  612MOL0     C82492   1.580   8.502   3.717 -0.7244  0.0573  1.1095
  612MOL0     O82493   1.709   8.472   3.740 -0.1977  0.7736  0.8280
  612MOL0     C82494   1.797   8.582   3.744 -0.0833 -0.6921 -0.0303
  612MOL0     C82495   1.925   8.522   3.798  0.7217 -0.6710 -0.0752
  612MOL0     C82496   1.904   8.459   3.935 -0.1406  0.6564  0.3431
  612MOL0     C82497   1.864   8.567   4.040  0.0474 -0.2643  0.6674
  612MOL0     C82498   1.876   8.504   4.176  0.4764  0.7185  0.1469
  612MOL0     C82499   1.827   8.600   4.288 -0.5046 -0.0037  0.4139
  612MOL0     C82500   1.684   8.632   4.290  0.1025 -0.7973 -1.2355
  612MOL0     C82501   1.643   8.701   4.420  0.4090  0.4292 -0.6439
  612MOL0     N82502   1.502   8.726   4.412  0.4896  0.1288  0.0048
  612MOL0     C82503   1.433   8.834   4.365 -0.1922  0.1193 -0.8452
  612MOL0     C82504   1.305   8.822   4.405 -0.2373 -0.2262  0.1937
  612MOL0     C82505   1.190   8.908   4.368 -0.7087  0.2923 -0.5913
  612MOL0     C82506   1.054   8.842   4.362  0.0565  0.2979  0.3296
  612MOL0     C82507   0.953   8.945   4.314  0.1837  0.5155  0.2282
  612MOL0     C82508   0.825   8.875   4.301  0.3137  0.3249  0.9721
  612MOL0     O82509   0.730   8.973   4.257 -0.5169 -0.1208  0.2305
  612MOL0     C82510   0.596   8.933   4.254  0.1503  0.1914  0.4721
  612MOL0     C82511   0.555   8.787   4.266  0.9034  0.1545  1.1403
  612MOL0     C82512   0.423   8.755   4.246  0.2492 -0.0342 -0.1152
  612MOL0     C82513   0.385   8.612   4.244 -0.5973  0.2212 -0.2323
  612MOL0     C82514   0.323   8.855   4.233  0.0904  0.2618 -0.7075
  612MOL0     C82515   0.177   8.831   4.231  0.4747  0.1762  0.2491
  612MOL0     O82516   0.096   8.937   4.193  0.0207 -0.1933  0.7388
  612MOL0     C82517  -0.038   8.919   4.184  0.7932  0.4018  0.1703
  612MOL0     C82518  -0.094   8.809   4.126  0.1095 -0.2424  1.1700
  612MOL0     C82519  -0.231   8.808   4.084  0.2725  0.5964 -1.6648
  612MOL0     C82520  -0.321   8.913   4.113  0.3298 -0.1280  0.0675
  612MOL0     O82521  -0.451   8.897   4.078  0.3957 -0.2019  0.0652
  612MOL0     C82522  -0.544   8.951   4.183  0.0026  0.2738 -0.3625
  612MOL0     C82523  -0.693   8.946   4.160  0.1515 -0.7474  0.5024
  612MOL0     C82524  -0.757   8.814   4.115 -0.4408  0.1250 -0.0455
  612MOL0     C82525  -0.902   8.848   4.070 -0.1230  0.7536  0.6498
  612MOL0     C82526  -0.994   8.732   4.102  0.9467 -0.8325  0.1608
  612MOL0     C82527  -1.042   8.722   4.253  0.0346  0.0406  0.2778
  612MOL0     C82528  -1.167   8.814   4.290 -0.1793  0.2384 -0.2254
  612MOL0     C82529  -1.284   8.771   4.194  0.1442 -1.0043 -0.3104
  612MOL0    Cl82530  -1.313   8.596   4.167 -0.1608  0.4954 -0.5770
  612MOL0     C82531  -0.262   9.026   4.174  0.5090  0.5203 -0.8748
  612MOL0     C82532  -0.123   9.026   4.206 -0.5691 -0.0489 -0.0180
  612MOL0     O82533   0.136   8.732   4.279  0.2109  0.3218 -0.4119
  612MOL0     C82534   0.363   8.987   4.220 -0.0918  0.5806 -0.0912
  612MOL0     C82535   0.495   9.024   4.219 -0.6028 -0.2869 -0.3775
  612MOL0     N82536   1.299   8.701   4.467  0.5594 -0.1091 -0.3023
  612MOL0     N82537   1.415   8.649   4.488 -0.4836 -0.3055 -0.6296
  612MOL0     C82538   1.541   8.538   3.587  0.3227 -0.1523  0.6077
  612MOL0     C82539   1.409   8.557   3.550  0.4464 -0.2675  0.1078
  612MOL0     C82540   0.965   8.605   3.532 -0.6750 -0.2795 -0.5652
  612MOL0     C82541   0.913   8.477   3.512  0.1954  0.0359 -0.8588
  612MOL0     C82542   0.775   8.457   3.476 -0.3618  1.4036 -0.0579
  612MOL0     C82543   0.686   8.563   3.460 -0.5189  0.4703 -0.3110
  612MOL0     O82544   0.556   8.553   3.422  0.6309 -0.3239  0.0622
  612MOL0     C82545   0.489   8.425   3.438 -0.0955  0.5652 -0.1102
  612MOL0     C82546   0.355   8.427   3.380 -0.0607  0.2952 -0.5870
  612MOL0     C82547   0.269   8.554   3.379 -0.3395 -0.0964  0.2334
  612MOL0     C82548   0.124   8.525   3.346  0.3019  0.5750  0.1518
  612MOL0     C82549   0.097   8.466   3.215 -0.0999 -0.0941 -0.0108
  612MOL0     C82550   0.066   8.442   3.101  0.8996 -0.1304  0.0531
  612MOL0     C82551   0.744   8.694   3.472 -0.2667  0.4568 -0.1158
  612MOL0     C82552   0.880   8.708   3.510  0.4864 -0.7005 -0.0429
  612MOL0     H82553   1.264   8.465   3.834 -0.5509 -0.9084 -1.6463
  612MOL0     H82554   1.494   8.442   3.913  1.5552 -1.5187 -0.6598
  612MOL0     H82555   1.816   8.624   3.644  1.5815  1.9107  1.2669
  612MOL0     H82556   1.758   8.662   3.807  0.2021 -2.1875  2.1685
  612MOL0     H82557   1.972   8.455   3.725 -0.0333 -2.8906  1.3772
  612MOL0     H82558   2.001   8.598   3.816  0.7297 -0.8416  0.6414
  612MOL0     H82559   1.845   8.368   3.924  3.3055 -1.8673  1.2184
  612MOL0     H82560   2.002   8.416   3.955 -0.8651 -1.0580  0.3538
  612MOL0     H82561   1.936   8.648   4.035  0.7251 -0.8244  1.1638
  612MOL0     H82562   1.766   8.616   4.033 -0.4737 -1.3085  0.4066
  612MOL0     H82563   1.818   8.412   4.180  3.3213 -1.2400 -0.9565
  612MOL0     H82564   1.981   8.482   4.196  0.7162 -0.8024 -2.4436
  612MOL0     H82565   1.856   8.537   4.373  1.7995 -1.1826 -1.1235
  612MOL0     H82566   1.884   8.693   4.296 -0.4976 -0.0737  1.3092
  612MOL0     H82567   1.658   8.705   4.213 -0.4730  0.9255  0.4944
  612MOL0     H82568   1.633   8.536   4.280  4.8813 -4.2233  2.5752
  612MOL0     H82569   1.701   8.794   4.427  1.5461 -0.3740  3.8556
  612MOL0     H82570   1.666   8.636   4.505  3.9031  1.8894 -0.2625
  612MOL0     H82571   1.469   8.908   4.293  0.7979 -1.5248 -2.1098
  612MOL0     H82572   1.198   8.993   4.437 -1.1018 -0.4319  0.3594
  612MOL0     H82573   1.229   8.944   4.272  3.1845  1.2540  1.1793
  612MOL0     H82574   1.028   8.799   4.459  0.4780 -3.1175 -0.9284
  612MOL0     H82575   1.046   8.764   4.286 -1.2157  0.7023  0.0329
  612MOL0     H82576   0.979   8.982   4.214 -2.5592  0.9992 -0.3788
  612MOL0     H82577   0.942   9.028   4.385  4.7391  0.0936  1.7556
  612MOL0     H82578   0.790   8.832   4.395  1.3242 -0.5618  0.9524
  612MOL0     H82579   0.837   8.791   4.233 -0.9954 -0.7745  2.0337
  612MOL0     H82580   0.635   8.716   4.285  2.2168  1.9317  2.5188
  612MOL0     H82581   0.328   8.591   4.335  0.4159  0.4578  0.4849
  612MOL0     H82582   0.341   8.577   4.150  0.4872 -1.6697 -0.0987
  612MOL0     H82583   0.479   8.555   4.253 -0.3749  0.7014  0.5702
  612MOL0     H82584  -0.041   8.724   4.084  1.2038  1.1939 -0.5271
  612MOL0     H82585  -0.264   8.721   4.028 -2.9541  1.3013 -1.0289
  612MOL0     H82586  -0.524   8.901   4.278 -3.9086 -1.1054 -0.1188
  612MOL0     H82587  -0.521   9.057   4.200  2.6246 -0.5306  1.9044
  612MOL0     H82588  -0.748   8.986   4.246  1.7339  4.6135 -0.5957
  612MOL0     H82589  -0.704   9.017   4.078  2.9610 -0.9235 -0.1234
  612MOL0     H82590  -0.757   8.751   4.205 -0.6151  0.3770  0.1308
  612MOL0     H82591  -0.685   8.767   4.047  3.2012  1.1462  2.7372
  612MOL0     H82592  -0.935   8.940   4.121  0.9281  1.7738 -0.4449
  612MOL0     H82593  -0.915   8.867   3.963 -3.3862 -0.5394  0.6956
  612MOL0     H82594  -0.934   8.641   4.094  0.2617 -1.2551 -0.3482
  612MOL0     H82595  -1.079   8.729   4.033 -0.6623 -0.0618  2.0127
  612MOL0     H82596  -1.075   8.624   4.290 -0.9998  0.7995  1.4452
  612MOL0     H82597  -0.967   8.737   4.332 -1.0395 -4.1906  2.4289
  612MOL0     H82598  -1.129   8.916   4.295  2.6984 -0.7470 -0.3158
  612MOL0     H82599  -1.210   8.793   4.389  0.2462  1.1927  0.1679
  612MOL0     H82600  -1.274   8.828   4.102 -0.2801 -1.0745 -0.4008
  612MOL0     H82601  -1.379   8.796   4.241  0.0991 -1.8667  0.0728
  612MOL0     H82602  -0.313   9.116   4.206  1.7899  0.6393  0.9909
  612MOL0     H82603  -0.087   9.115   4.257  1.4022 -1.0087  0.3344
  612MOL0     H82604   0.286   9.058   4.191 -2.5325 -2.4647 -1.7682
  612MOL0     H82605   0.539   9.121   4.196  1.5384 -1.0761  0.0717
  612MOL0     H82606   1.626   8.544   3.520 -0.1707  0.4299  0.0163
  612MOL0     H82607   1.379   8.581   3.449  1.1598  1.2369  0.2238
  612MOL0     H82608   0.968   8.384   3.530  0.8181  0.4177 -0.7399
  612MOL0     H82609   0.746   8.356   3.451 -0.8690  1.0374  1.8195
  612MOL0     H82610   0.540   8.338   3.395  0.8908  0.6007  0.9332
  612MOL0     H82611   0.488   8.394   3.543  0.1883 -0.2426 -0.3382
  612MOL0     H82612   0.303   8.345   3.431 -0.9176 -0.0001 -1.8984
  612MOL0     H82613   0.370   8.403   3.275  3.0766  2.3214 -0.7254
  612MOL0     H82614   0.311   8.630   3.313 -0.7247  0.1912  0.3140
  612MOL0     H82615   0.269   8.591   3.482 -0.0622  0.7719 -0.0691
  612MOL0     H82616   0.080   8.626   3.353  0.8777  0.7638  1.1263
  612MOL0     H82617   0.080   8.464   3.424  0.9704  1.8617  1.5947
  612MOL0     H82618   0.044   8.431   2.997 -2.8105 -2.1272  0.8685
  612MOL0     H82619   0.678   8.774   3.441  1.8740  1.6366 -1.9325
  612MOL0     H82620   0.907   8.812   3.528  1.1970 -1.1060  1.4167
  613MOL0     O82621   6.594   2.249   9.851  0.0363 -0.1783 -0.0075
  613MOL0     C82622   6.680   2.160   9.846 -0.1542  0.2232 -0.0040
  613MOL0     O82623   6.666   2.022   9.863  0.4126 -0.0543 -0.1318
  613MOL0     C82624   6.545   1.965   9.814 -0.8010 -0.0878  0.1104
  613MOL0     C82625   6.492   1.861   9.889  0.5926  0.1011  0.7028
  613MOL0     C82626   6.365   1.808   9.852 -0.8186  0.1887 -0.0727
  613MOL0     C82627   6.298   1.857   9.735 -0.0611  0.3769 -0.5752
  613MOL0     O82628   6.175   1.816   9.682  0.4117  0.4851 -0.0221
  613MOL0     C82629   6.073   1.767   9.770 -0.1018  0.5694 -0.4616
  613MOL0     C82630   6.026   1.622   9.744  0.4493  0.3477  0.1063
  613MOL0     C82631   6.004   1.589   9.593  0.3657 -0.7343  0.8556
  613MOL0     C82632   5.859   1.551   9.559  0.4669  0.7609 -0.3514
  613MOL0     C82633   5.837   1.554   9.412 -0.3211 -1.0325 -0.0017
  613MOL0     C82634   5.687   1.513   9.380  0.5771  0.4316 -0.2576
  613MOL0     C82635   5.659   1.515   9.233 -0.1912  0.3456 -0.1774
  613MOL0     C82636   5.712   1.398   9.154 -0.0711  1.2772 -0.4425
  613MOL0     N82637   5.687   1.414   9.012  0.1082  0.0770  0.1979
  613MOL0     C82638   5.569   1.398   8.951  0.3433 -0.3223  0.1096
  613MOL0     C82639   5.592   1.439   8.825  1.0915  0.1836  0.6220
  613MOL0     C82640   5.500   1.439   8.710 -0.2721  0.6390 -0.5245
  613MOL0     C82641   5.539   1.557   8.625  0.4358 -0.0880 -0.2887
  613MOL0     C82642   5.446   1.574   8.502 -0.1082 -0.0929  1.1736
  613MOL0     C82643   5.291   1.541   8.524  0.0235  0.0608  0.6889
  613MOL0     O82644   5.234   1.557   8.392  0.0432  0.4576 -0.7028
  613MOL0     C82645   5.108   1.586   8.381  0.1172  0.4649 -0.2869
  613MOL0     C82646   5.059   1.622   8.257  0.0881 -0.0298 -0.2296
  613MOL0     C82647   4.921   1.619   8.219  0.4172  0.2213  0.5568
  613MOL0     C82648   4.888   1.643   8.070 -0.6458  0.1742 -0.7320
  613MOL0     C82649   4.829   1.602   8.330 -0.7387  0.4531  0.0033
  613MOL0     C82650   4.680   1.616   8.320 -0.4942  0.2941 -0.4248
  613MOL0     O82651   4.604   1.563   8.420 -0.2458  0.2016 -0.7300
  613MOL0     C82652   4.474   1.589   8.439  0.6218 -0.2787  0.9111
  613MOL0     C82653   4.374   1.486   8.446  0.3066 -0.1809  0.2377
  613MOL0     C82654   4.243   1.518   8.466 -0.1679  0.0808 -1.4459
  613MOL0     C82655   4.202   1.653   8.475 -0.3795  0.3719  0.5734
  613MOL0     O82656   4.070   1.662   8.498  0.1006 -0.2918 -0.5919
  613MOL0     C82657   4.012   1.793   8.525  0.5667 -0.5509  0.6113
  613MOL0     C82658   3.861   1.778   8.539  0.4605 -0.5143 -1.0429
  613MOL0     C82659   3.800   1.703   8.657 -0.1001 -0.4412 -0.1539
  613MOL0     C82660   3.653   1.677   8.634  0.3652  0.4652  0.7459
  613MOL0     C82661   3.587   1.639   8.766  0.5772 -0.5917 -0.3211
  613MOL0     C82662   3.651   1.528   8.859  0.1439 -0.4042  0.8285
  613MOL0     C82663   3.570   1.518   8.995 -0.1696 -0.2458  0.2741
  613MOL0     C82664   3.617   1.391   9.070  0.2165 -0.8186  0.2286
  613MOL0    Cl82665   3.512   1.360   9.220  0.4054 -0.1540  0.0616
  613MOL0     C82666   4.297   1.752   8.462 -0.4200 -0.8067  0.5006
  613MOL0     C82667   4.428   1.727   8.443 -0.8045  0.2300  0.3790
  613MOL0     O82668   4.636   1.670   8.222  0.4042  0.5353  0.0786
  613MOL0     C82669   4.878   1.584   8.457  0.2258 -0.4222 -0.1932
  613MOL0     C82670   5.013   1.576   8.487 -0.5324  0.4101  0.0485
  613MOL0     N82671   5.721   1.497   8.809  0.1823  0.2626  0.0734
  613MOL0     N82672   5.775   1.473   8.925  0.2865 -0.2116 -0.4784
  613MOL0     C82673   6.352   1.953   9.666  0.3720  0.0283 -0.0767
  613MOL0     C82674   6.481   1.999   9.694  0.2874 -0.8264  0.0249
  613MOL0     C82675   6.820   2.205   9.846 -0.1374 -0.5504 -0.3882
  613MOL0     C82676   6.927   2.119   9.867  0.0602  0.4517 -0.4225
  613MOL0     C82677   7.055   2.167   9.873 -0.7290 -0.0799  0.7014
  613MOL0     C82678   7.079   2.300   9.846 -0.7958  0.2098  0.4901
  613MOL0     O82679   7.212   2.342   9.845 -0.3211 -0.4966  0.5302
  613MOL0     C82680   7.263   2.416   9.735  1.0477 -0.0755 -0.5660
  613MOL0     C82681   7.204   2.366   9.594 -0.0130 -0.1555  1.0455
  613MOL0     C82682   7.288   2.424   9.476 -0.8771 -0.1962 -0.0461
  613MOL0     C82683   7.228   2.420   9.339 -0.1316 -0.5603  0.9515
  613MOL0     C82684   7.101   2.482   9.325 -0.3312 -0.4060  0.3659
  613MOL0     C82685   6.989   2.533   9.315 -0.8989  0.6933 -0.6707
  613MOL0     C82686   6.970   2.389   9.838 -0.2014  0.9627  0.0800
  613MOL0     C82687   6.847   2.342   9.849 -0.1780 -0.4488  0.4703
  613MOL0     H82688   6.553   1.824   9.970  2.4874  1.2312 -0.1408
  613MOL0     H82689   6.316   1.728   9.907 -2.0528  1.2214  0.3642
  613MOL0     H82690   6.110   1.776   9.872  1.5578 -3.1748 -0.5513
  613MOL0     H82691   5.985   1.828   9.750 -1.8464 -2.1756 -1.9242
  613MOL0     H82692   6.102   1.549   9.775 -1.7799 -3.1748 -2.1225
  613MOL0     H82693   5.943   1.599   9.811  1.4769  1.6431  1.9277
  613MOL0     H82694   6.023   1.678   9.532 -1.1079 -0.9084  0.0905
  613MOL0     H82695   6.080   1.523   9.551 -0.0630 -0.2272 -0.8069
  613MOL0     H82696   5.844   1.448   9.594 -0.1140  0.5291 -1.2596
  613MOL0     H82697   5.785   1.619   9.602 -0.6690 -0.5938 -0.0975
  613MOL0     H82698   5.856   1.651   9.364  2.3267 -0.9059  1.1481
  613MOL0     H82699   5.916   1.487   9.376  0.1173 -0.5968  0.1355
  613MOL0     H82700   5.660   1.419   9.428  2.9132 -0.4813 -0.5796
  613MOL0     H82701   5.619   1.589   9.419  0.9287  0.0463  1.1640
  613MOL0     H82702   5.550   1.508   9.223 -0.2466 -0.4049  0.8339
  613MOL0     H82703   5.704   1.601   9.183  1.2313 -1.0671 -1.4367
  613MOL0     H82704   5.659   1.311   9.195  1.0402  1.8259  2.4027
  613MOL0     H82705   5.820   1.394   9.167  0.1360  1.7033 -1.8588
  613MOL0     H82706   5.471   1.371   8.991  0.4720  0.6235  1.1211
  613MOL0     H82707   5.529   1.350   8.655  3.0254  1.1327  0.2193
  613MOL0     H82708   5.395   1.426   8.739  0.0812 -1.0129  0.1266
  613MOL0     H82709   5.640   1.546   8.585  0.4281  1.3155 -0.7521
  613MOL0     H82710   5.534   1.657   8.668 -1.7542  0.9699 -2.7266
  613MOL0     H82711   5.476   1.505   8.423 -1.2118 -0.4379  1.0330
  613MOL0     H82712   5.451   1.674   8.459  1.3561  0.0306  1.5721
  613MOL0     H82713   5.253   1.594   8.612 -1.4977 -1.5158  1.0324
  613MOL0     H82714   5.274   1.434   8.536  1.3694 -0.2686 -0.1666
  613MOL0     H82715   5.134   1.631   8.180  0.7183 -0.8650  0.2701
  613MOL0     H82716   4.818   1.571   8.028 -1.8933  1.6212 -1.2126
  613MOL0     H82717   4.862   1.747   8.046 -0.8273  0.4549  0.6368
  613MOL0     H82718   4.971   1.632   7.999  0.1397 -0.3746  0.2532
  613MOL0     H82719   4.402   1.381   8.448  0.3770 -0.1787 -0.5382
  613MOL0     H82720   4.167   1.441   8.468 -2.1315  1.8474 -3.1209
  613MOL0     H82721   4.048   1.838   8.618 -0.9983  0.3164  0.8300
  613MOL0     H82722   4.037   1.852   8.437 -0.4751 -0.4094  0.3960
  613MOL0     H82723   3.819   1.879   8.538 -0.8596 -1.0408 -0.7024
  613MOL0     H82724   3.817   1.729   8.452 -2.2165 -1.4328  0.7067
  613MOL0     H82725   3.796   1.752   8.755 -0.5136 -2.6588  0.9816
  613MOL0     H82726   3.854   1.609   8.668 -0.8788 -1.8184 -5.2945
  613MOL0     H82727   3.612   1.764   8.582  0.3119 -2.2315 -4.3692
  613MOL0     H82728   3.637   1.594   8.565 -2.4583  1.9705 -0.5776
  613MOL0     H82729   3.486   1.603   8.743  1.1665 -0.7142 -2.9864
  613MOL0     H82730   3.590   1.737   8.814  1.5981 -0.4692 -0.6305
  613MOL0     H82731   3.641   1.434   8.804 -0.7819  0.4098 -0.4698
  613MOL0     H82732   3.757   1.547   8.874 -0.1023  1.1550  0.7625
  613MOL0     H82733   3.468   1.510   8.957  0.5381  1.7445 -2.3367
  613MOL0     H82734   3.584   1.612   9.048 -0.1121 -1.2136  2.0332
  613MOL0     H82735   3.720   1.384   9.107 -0.6272  0.4740  3.1497
  613MOL0     H82736   3.599   1.316   8.992 -2.6740  0.1114 -0.1067
  613MOL0     H82737   4.282   1.860   8.467  2.9347 -0.3157  3.2648
  613MOL0     H82738   4.503   1.800   8.416 -0.9603 -0.0975 -0.9831
  613MOL0     H82739   4.813   1.581   8.544  1.4003 -1.4686  0.6644
  613MOL0     H82740   5.039   1.558   8.590  2.5392  0.8986 -0.5455
  613MOL0     H82741   6.296   1.986   9.579 -1.5014  2.7565  2.0112
  613MOL0     H82742   6.520   2.074   9.625 -1.1845 -1.0809 -1.1104
  613MOL0     H82743   6.897   2.015   9.869 -1.0597  0.7253 -1.5334
  613MOL0     H82744   7.122   2.082   9.875 -0.6716 -0.0322  0.9241
  613MOL0     H82745   7.236   2.522   9.747 -2.1143 -0.9898  1.5831
  613MOL0     H82746   7.371   2.403   9.733  1.0748 -0.2127  0.6943
  613MOL0     H82747   7.103   2.409   9.591 -0.3128 -0.8781  0.5857
  613MOL0     H82748   7.210   2.257   9.600 -1.3216 -0.2756  0.5178
  613MOL0     H82749   7.386   2.375   9.473 -0.2360  0.8510  1.9232
  613MOL0     H82750   7.317   2.528   9.495  1.2872 -0.5262 -1.2253
  613MOL0     H82751   7.217   2.318   9.301  0.7446 -0.8556  1.4373
  613MOL0     H82752   7.296   2.478   9.276 -1.4786  2.0074  1.7292
  613MOL0     H82753   6.887   2.564   9.321 -1.1740 -0.0173 -1.4695
  613MOL0     H82754   6.981   2.496   9.826 -0.0048  1.2286  2.2247
  613MOL0     H82755   6.763   2.410   9.837 -2.9192 -3.6230  0.1270
  614MOL0     O82756   0.855   7.733   2.112  0.4741  0.0701  0.2047
  614MOL0     C82757   0.921   7.768   2.009 -0.4533 -0.5852 -0.3176
  614MOL0     O82758   0.867   7.760   1.885 -0.5572 -0.6171  0.0496
  614MOL0     C82759   0.730   7.737   1.872 -1.0857 -1.1211 -0.2384
  614MOL0     C82760   0.683   7.640   1.784  0.2527 -0.5514 -0.5098
  614MOL0     C82761   0.548   7.596   1.770  0.0695 -1.0183 -0.6748
  614MOL0     C82762   0.446   7.651   1.850  0.3427 -0.3809  0.0921
  614MOL0     O82763   0.312   7.631   1.832  0.5549  0.0942  0.0367
  614MOL0     C82764   0.270   7.524   1.736  0.4389 -0.0739 -0.1053
  614MOL0     C82765   0.115   7.509   1.729  0.0289  0.8405  0.0143
  614MOL0     C82766   0.042   7.525   1.855  0.0636  0.2681 -0.4535
  614MOL0     C82767  -0.095   7.466   1.852  1.1979 -0.2024 -1.0260
  614MOL0     C82768  -0.163   7.490   1.995  0.2864  0.2405 -0.7265
  614MOL0     C82769  -0.292   7.406   2.012  1.2107 -0.4846  0.2130
  614MOL0     C82770  -0.382   7.439   2.138  0.2545  0.0980  1.3253
  614MOL0     C82771  -0.533   7.446   2.094 -0.0338  0.0166  0.5704
  614MOL0     N82772  -0.566   7.530   1.979 -0.0200  0.2201  0.6637
  614MOL0     C82773  -0.533   7.662   1.962  0.4744 -0.1430  0.0441
  614MOL0     C82774  -0.586   7.700   1.841  0.2850 -0.0322 -0.1838
  614MOL0     C82775  -0.564   7.836   1.774  0.1909 -0.5168  0.6112
  614MOL0     C82776  -0.429   7.895   1.818 -0.6268 -0.3139  0.9464
  614MOL0     C82777  -0.307   7.828   1.738  0.0364  0.0283 -0.4064
  614MOL0     C82778  -0.168   7.867   1.776  0.5064 -0.1641  0.4092
  614MOL0     O82779  -0.146   8.002   1.745  0.0609  0.1457  0.2777
  614MOL0     C82780  -0.018   8.042   1.737  0.2279 -0.1208  0.4252
  614MOL0     C82781   0.001   8.177   1.695  0.2986  0.1873  0.3554
  614MOL0     C82782   0.134   8.232   1.690 -0.1340  0.4676  0.3692
  614MOL0     C82783   0.146   8.376   1.637 -0.1893 -0.1792 -0.4849
  614MOL0     C82784   0.247   8.154   1.733 -0.1871 -0.4876 -0.2626
  614MOL0     C82785   0.391   8.200   1.733  1.0797  0.5223  0.1204
  614MOL0     O82786   0.472   8.139   1.820 -0.6722  0.0689 -0.5978
  614MOL0     C82787   0.606   8.183   1.819 -0.6231  0.5221 -0.4590
  614MOL0     C82788   0.704   8.099   1.772 -1.3360  0.6375  0.5444
  614MOL0     C82789   0.833   8.136   1.761  0.5569  0.2683  1.0644
  614MOL0     C82790   0.871   8.262   1.803 -0.2437  0.5522 -0.2489
  614MOL0     O82791   1.004   8.300   1.792  0.2686  1.0896  0.2364
  614MOL0     C82792   1.061   8.381   1.891 -0.1773 -0.1238  0.5108
  614MOL0     C82793   1.207   8.344   1.895  0.3679  0.0449 -0.5341
  614MOL0     C82794   1.288   8.429   1.803 -0.6407 -0.1408 -0.2097
  614MOL0     C82795   1.434   8.400   1.825 -1.0662  0.5498  0.9487
  614MOL0     C82796   1.521   8.509   1.761 -0.1268 -0.0300  0.4760
  614MOL0     C82797   1.660   8.483   1.747  0.0000  0.2362  0.9098
  614MOL0     C82798   1.747   8.603   1.720 -0.0797  0.0753  0.1221
  614MOL0     C82799   1.891   8.561   1.684 -0.1823 -0.2373 -0.0931
  614MOL0    Cl82800   1.959   8.510   1.843 -0.3424  0.2591 -0.3931
  614MOL0     C82801   0.772   8.344   1.859 -0.0014 -0.5111 -0.0187
  614MOL0     C82802   0.641   8.309   1.860  0.2507  0.7843  0.2999
  614MOL0     O82803   0.419   8.287   1.649 -0.3303  0.7718 -1.2506
  614MOL0     C82804   0.226   8.014   1.771  0.5109 -0.1225  0.6912
  614MOL0     C82805   0.095   7.960   1.781  1.2616 -0.3511 -0.6513
  614MOL0     N82806  -0.651   7.593   1.783 -0.6216 -0.4182  0.3837
  614MOL0     N82807  -0.634   7.493   1.867 -0.2654 -0.5993  0.5448
  614MOL0     C82808   0.495   7.745   1.948 -0.0148  0.8740 -0.0610
  614MOL0     C82809   0.631   7.786   1.951  0.0830 -1.0714 -0.5735
  614MOL0     C82810   1.070   7.802   2.018 -0.5019 -0.4338 -0.6777
  614MOL0     C82811   1.132   7.848   1.907  0.2252 -0.0302  1.1756
  614MOL0     C82812   1.265   7.885   1.909  0.6892 -0.3742  0.1822
  614MOL0     C82813   1.342   7.854   2.016  0.1664  0.1392  0.1985
  614MOL0     O82814   1.477   7.862   2.007 -0.1676 -0.0575  0.5296
  614MOL0     C82815   1.533   7.968   1.917  0.2789  0.5006  0.1450
  614MOL0     C82816   1.664   8.018   1.976 -0.0350  0.0295 -0.2343
  614MOL0     C82817   1.745   8.081   1.857  0.0660 -0.2313  1.4645
  614MOL0     C82818   1.871   8.158   1.899  0.3298 -0.1955  0.1502
  614MOL0     C82819   1.990   8.081   1.935 -0.0551  0.0485  0.4722
  614MOL0     C82820   2.072   7.995   1.969  0.4761  0.7149 -0.4485
  614MOL0     C82821   1.281   7.800   2.129 -0.3464  0.5294 -0.0726
  614MOL0     C82822   1.142   7.781   2.137  0.2190  0.8202  0.0570
  614MOL0     H82823   0.759   7.586   1.729 -0.9915 -1.4204 -1.4411
  614MOL0     H82824   0.516   7.515   1.704  1.3697 -1.1427 -1.1724
  614MOL0     H82825   0.300   7.559   1.636 -1.8578  2.8371  0.0889
  614MOL0     H82826   0.321   7.429   1.758 -2.1446 -1.4953  0.1175
  614MOL0     H82827   0.085   7.588   1.659  3.0834  0.5919 -1.7949
  614MOL0     H82828   0.093   7.419   1.672  0.3776  1.6519 -1.4654
  614MOL0     H82829   0.100   7.474   1.933  2.8972  1.5708 -1.5337
  614MOL0     H82830   0.032   7.631   1.881 -0.3247 -0.1364  1.1208
  614MOL0     H82831  -0.158   7.523   1.783  0.2569  0.7979  0.5840
  614MOL0     H82832  -0.091   7.360   1.828  0.6972 -0.2680 -0.8469
  614MOL0     H82833  -0.098   7.452   2.075  0.6878  0.8100 -0.7747
  614MOL0     H82834  -0.187   7.595   2.010  3.1851  0.9415 -0.5294
  614MOL0     H82835  -0.338   7.447   1.921 -0.3757 -1.9534  0.2964
  614MOL0     H82836  -0.275   7.298   2.008  1.5811 -0.4525  0.9054
  614MOL0     H82837  -0.372   7.356   2.208  1.7118 -1.0566 -0.1563
  614MOL0     H82838  -0.346   7.534   2.179 -0.4471  0.2949  1.4873
  614MOL0     H82839  -0.597   7.470   2.179 -0.5695 -1.1481  0.5048
  614MOL0     H82840  -0.564   7.347   2.059  3.0058 -0.7103 -0.3757
  614MOL0     H82841  -0.484   7.723   2.038 -2.4692  1.1085  1.1018
  614MOL0     H82842  -0.562   7.826   1.665 -0.3791  2.9640  0.1577
  614MOL0     H82843  -0.648   7.902   1.796 -0.0153  0.2178 -2.0929
  614MOL0     H82844  -0.399   7.892   1.923  1.8200  0.3087  0.3395
  614MOL0     H82845  -0.431   8.003   1.800 -0.3945 -0.2366  1.3837
  614MOL0     H82846  -0.324   7.847   1.631 -2.0309 -0.8062 -0.2717
  614MOL0     H82847  -0.321   7.721   1.753 -0.1134  0.1399  0.2848
  614MOL0     H82848  -0.111   7.796   1.716 -2.0652 -2.2216  0.2174
  614MOL0     H82849  -0.138   7.846   1.879  0.6370 -3.7884 -0.2488
  614MOL0     H82850  -0.090   8.229   1.664  0.6289  0.0289 -0.9551
  614MOL0     H82851   0.208   8.368   1.548  0.2776 -0.3687 -0.1450
  614MOL0     H82852   0.043   8.405   1.612 -0.3511 -1.9707 -2.1737
  614MOL0     H82853   0.174   8.444   1.717 -1.1796 -0.6109  0.2556
  614MOL0     H82854   0.672   7.997   1.753 -0.4041 -0.6142  4.7867
  614MOL0     H82855   0.894   8.052   1.728 -1.1959 -1.3614  1.8053
  614MOL0     H82856   1.032   8.482   1.862 -0.5999  0.4068  2.5979
  614MOL0     H82857   1.015   8.365   1.990  0.5008 -1.6313  0.6140
  614MOL0     H82858   1.232   8.383   1.994  1.6320 -0.2647 -0.7088
  614MOL0     H82859   1.228   8.237   1.891 -0.4053 -0.3362  3.0010
  614MOL0     H82860   1.277   8.535   1.829 -0.6124  0.4655 -2.4557
  614MOL0     H82861   1.257   8.421   1.698  2.1361  3.7115 -1.5894
  614MOL0     H82862   1.462   8.401   1.930  2.6476  3.3185  0.1257
  614MOL0     H82863   1.449   8.297   1.791 -1.3253  0.1973  1.8851
  614MOL0     H82864   1.514   8.602   1.817 -0.6961 -0.3290  0.9123
  614MOL0     H82865   1.490   8.540   1.660  0.9523  2.9721  0.9741
  614MOL0     H82866   1.688   8.430   1.839  0.9319  0.7331  0.9173
  614MOL0     H82867   1.677   8.406   1.670 -0.4415 -0.0438  1.0895
  614MOL0     H82868   1.743   8.669   1.807  0.0724  0.7739 -0.3867
  614MOL0     H82869   1.697   8.660   1.640 -1.2428  0.7792  1.3048
  614MOL0     H82870   1.944   8.645   1.639  0.3061 -0.5110 -0.0286
  614MOL0     H82871   1.894   8.476   1.616  1.8546  0.5913 -1.0984
  614MOL0     H82872   0.797   8.444   1.892 -3.9195  0.0215  1.9731
  614MOL0     H82873   0.576   8.384   1.904  1.7542  2.6035 -0.4499
  614MOL0     H82874   0.319   7.964   1.795 -0.2085 -0.3640  3.3233
  614MOL0     H82875   0.083   7.862   1.827 -1.4672 -0.1617 -0.8242
  614MOL0     H82876   0.424   7.794   2.012 -0.5468 -0.3844  0.3390
  614MOL0     H82877   0.658   7.866   2.019 -0.6181 -1.1292 -0.2190
  614MOL0     H82878   1.073   7.876   1.820 -0.7900 -0.6752  1.6331
  614MOL0     H82879   1.297   7.931   1.816 -0.7310 -0.9847 -0.6415
  614MOL0     H82880   1.543   7.930   1.815 -1.6538 -2.0206  0.7706
  614MOL0     H82881   1.464   8.053   1.906  0.9038  1.1771  1.2740
  614MOL0     H82882   1.718   7.929   2.011 -1.3409 -0.3830  0.7941
  614MOL0     H82883   1.646   8.073   2.069 -1.6754 -3.1673  1.5065
  614MOL0     H82884   1.689   8.159   1.805 -1.6438  0.3719  3.9945
  614MOL0     H82885   1.778   8.006   1.785 -0.5596 -0.7937  1.7532
  614MOL0     H82886   1.849   8.232   1.977  0.6286 -0.8608  0.8789
  614MOL0     H82887   1.902   8.215   1.811  1.2941 -1.1932 -0.1802
  614MOL0     H82888   2.129   7.907   1.994 -0.4186 -0.0598 -1.0789
  614MOL0     H82889   1.346   7.780   2.213 -2.1384 -0.3314  1.1884
  614MOL0     H82890   1.099   7.746   2.230  0.7638 -1.2456 -0.4170
  615MOL0     O82891   3.771   4.597   5.700 -0.5070 -0.2051 -0.2991
  615MOL0     C82892   3.707   4.606   5.592 -0.6043 -0.4490 -0.3502
  615MOL0     O82893   3.662   4.720   5.536 -1.1288 -0.7290 -0.8426
  615MOL0     C82894   3.685   4.832   5.607 -0.0147  0.0863 -0.0440
  615MOL0     C82895   3.635   4.852   5.733 -0.1511  0.5207  0.9281
  615MOL0     C82896   3.660   4.962   5.809  0.2732  0.4893  1.1976
  615MOL0     C82897   3.744   5.060   5.756 -0.0666 -0.3549 -0.7347
  615MOL0     O82898   3.776   5.178   5.820  0.9953  0.4898  0.0809
  615MOL0     C82899   3.695   5.213   5.934  0.3819 -1.3427  0.0075
  615MOL0     C82900   3.725   5.361   5.963 -0.7848  0.2564  0.5310
  615MOL0     C82901   3.877   5.395   5.994  0.5973  1.2746  0.0878
  615MOL0     C82902   3.882   5.400   6.141  0.3486 -1.7996 -0.8432
  615MOL0     C82903   4.018   5.458   6.186  0.7997  0.3268 -0.0258
  615MOL0     C82904   4.052   5.437   6.335  0.3117  0.1530 -0.0862
  615MOL0     C82905   3.941   5.497   6.422 -0.3424 -1.3719  0.2686
  615MOL0     C82906   3.978   5.503   6.569 -1.1597 -0.3845  0.1754
  615MOL0     N82907   3.884   5.587   6.652 -0.0331  0.2047  0.5068
  615MOL0     C82908   3.748   5.567   6.646  0.5691 -0.8407  0.3107
  615MOL0     C82909   3.687   5.647   6.737  0.3205  0.4598  0.7026
  615MOL0     C82910   3.545   5.667   6.797  0.2960 -0.1298 -0.1422
  615MOL0     C82911   3.457   5.541   6.794  0.3044 -0.1183 -0.1351
  615MOL0     C82912   3.301   5.557   6.814 -0.4367 -0.3496  0.3900
  615MOL0     C82913   3.254   5.679   6.887 -0.3508  0.1608  1.0557
  615MOL0     O82914   3.109   5.671   6.922  0.5103  0.4976  0.1173
  615MOL0     C82915   3.084   5.626   7.049 -0.4325  0.8555  0.1856
  615MOL0     C82916   3.154   5.534   7.128 -0.1700 -0.1786 -0.1805
  615MOL0     C82917   3.111   5.503   7.263 -1.6447 -1.0609 -0.8495
  615MOL0     C82918   3.201   5.413   7.347 -0.0903 -0.1554  0.3827
  615MOL0     C82919   2.996   5.556   7.320  0.4200 -0.0915 -0.6307
  615MOL0     C82920   2.942   5.522   7.456  0.0130  0.7232 -0.6023
  615MOL0     O82921   2.808   5.539   7.465 -0.8655 -0.9571  0.2340
  615MOL0     C82922   2.748   5.522   7.586 -0.3190  0.0014 -0.8331
  615MOL0     C82923   2.719   5.397   7.647  0.6991 -0.1160  0.3178
  615MOL0     C82924   2.635   5.383   7.763  0.1139 -0.0869 -0.2366
  615MOL0     C82925   2.588   5.497   7.830  0.9716 -0.0903  0.1681
  615MOL0     O82926   2.506   5.493   7.937  0.1909 -0.1231 -0.7042
  615MOL0     C82927   2.369   5.448   7.904  0.1097  0.0166 -0.3418
  615MOL0     C82928   2.281   5.535   7.988  1.3823 -0.6680  0.0512
  615MOL0     C82929   2.292   5.685   7.963 -0.5590 -0.4833  1.4652
  615MOL0     C82930   2.380   5.758   8.064 -0.5301 -0.2916 -0.1712
  615MOL0     C82931   2.418   5.903   8.029  0.0421  0.2709  0.1087
  615MOL0     C82932   2.296   5.985   7.985 -0.1016 -0.6744  0.3231
  615MOL0     C82933   2.328   6.135   7.977  0.0758  0.5187  0.0695
  615MOL0     C82934   2.226   6.202   7.894  0.3549  0.6059 -0.3519
  615MOL0    Cl82935   2.227   6.384   7.942 -0.2451 -0.0327 -0.2650
  615MOL0     C82936   2.622   5.615   7.785 -1.0280 -0.4983  0.9678
  615MOL0     C82937   2.699   5.637   7.668 -0.4369  0.3280 -0.1215
  615MOL0     O82938   3.020   5.509   7.552  0.0494 -0.6836  0.0085
  615MOL0     C82939   2.922   5.639   7.233 -0.1511  0.6763  0.8844
  615MOL0     C82940   2.968   5.683   7.110  0.0659  0.0282 -0.4117
  615MOL0     N82941   3.791   5.718   6.797 -0.6464 -0.6609  0.0401
  615MOL0     N82942   3.912   5.682   6.747  0.8151 -0.2603 -0.2264
  615MOL0     C82943   3.792   5.046   5.624  0.5275  0.0433  0.1688
  615MOL0     C82944   3.753   4.934   5.548 -0.7743  0.3513 -0.0168
  615MOL0     C82945   3.691   4.483   5.521  0.4233  0.5761 -0.7121
  615MOL0     C82946   3.711   4.359   5.582  0.1127  0.1069 -0.3891
  615MOL0     C82947   3.682   4.236   5.521 -0.2576  0.1626 -0.0790
  615MOL0     C82948   3.630   4.237   5.393 -0.2421  0.1216 -0.7554
  615MOL0     O82949   3.614   4.109   5.330  0.1741 -0.3917  0.4056
  615MOL0     C82950   3.727   4.019   5.320  0.8049  0.1985  1.1863
  615MOL0     C82951   3.763   3.992   5.172  0.0814  0.3065  0.2721
  615MOL0     C82952   3.891   4.060   5.127 -0.1959 -0.2346  0.1000
  615MOL0     C82953   4.013   3.997   5.181 -0.5816 -0.2268 -0.1476
  615MOL0     C82954   4.133   4.067   5.124 -0.2179 -0.3236 -0.1231
  615MOL0     C82955   4.226   4.118   5.066  0.3214  0.3765  0.8138
  615MOL0     C82956   3.598   4.359   5.326  0.5146  0.2506 -0.3710
  615MOL0     C82957   3.625   4.475   5.396 -0.4453 -0.5504 -0.6013
  615MOL0     H82958   3.587   4.761   5.768  2.4912 -2.0137 -1.4745
  615MOL0     H82959   3.623   4.959   5.911  0.3457  1.6750  1.2677
  615MOL0     H82960   3.589   5.207   5.909 -0.7838  5.8898  1.0380
  615MOL0     H82961   3.725   5.158   6.023 -1.7346  0.2717  1.8318
  615MOL0     H82962   3.694   5.415   5.873 -1.5428 -1.4755 -0.3177
  615MOL0     H82963   3.661   5.414   6.033 -0.7569 -1.8405  2.2469
  615MOL0     H82964   3.943   5.317   5.956 -0.7885 -0.0560  0.3473
  615MOL0     H82965   3.900   5.489   5.942  2.8311  1.8749  2.0155
  615MOL0     H82966   3.805   5.471   6.173  1.7184 -0.0901 -1.1994
  615MOL0     H82967   3.850   5.308   6.191 -0.7541 -1.9347 -1.7381
  615MOL0     H82968   4.095   5.407   6.127  0.0329 -1.8999  0.8394
  615MOL0     H82969   4.015   5.564   6.159 -2.9566 -0.2525 -2.5346
  615MOL0     H82970   4.062   5.330   6.352 -1.9165 -0.5585 -2.5451
  615MOL0     H82971   4.152   5.480   6.346  1.3943 -1.7398 -1.8726
  615MOL0     H82972   3.919   5.603   6.407 -0.9077 -1.1989  2.0943
  615MOL0     H82973   3.848   5.441   6.407 -0.5299 -1.0221  0.0985
  615MOL0     H82974   4.080   5.535   6.590 -1.0238 -0.5486 -0.2391
  615MOL0     H82975   3.971   5.401   6.610  2.1680  0.5042  3.4680
  615MOL0     H82976   3.688   5.500   6.585 -0.4038  1.0676 -0.9396
  615MOL0     H82977   3.550   5.703   6.900  0.2591  1.3306 -0.6285
  615MOL0     H82978   3.494   5.742   6.736 -1.8553  0.2874  2.0283
  615MOL0     H82979   3.488   5.486   6.884  3.1349  1.3257 -0.1218
  615MOL0     H82980   3.480   5.482   6.705  0.7100 -0.2286  0.0375
  615MOL0     H82981   3.258   5.468   6.859 -4.2233  0.2439 -1.5641
  615MOL0     H82982   3.261   5.556   6.712 -0.9856  1.3741  0.5475
  615MOL0     H82983   3.277   5.764   6.823 -3.9961  0.7203  0.3117
  615MOL0     H82984   3.315   5.689   6.978  0.9404  0.8351  0.1521
  615MOL0     H82985   3.242   5.483   7.092  0.6067 -0.3544  1.8480
  615MOL0     H82986   3.283   5.468   7.393  0.1426  0.2605 -0.5097
  615MOL0     H82987   3.147   5.345   7.413 -2.4390  1.8465  0.6491
  615MOL0     H82988   3.240   5.348   7.267  1.0525  2.5538 -1.4014
  615MOL0     H82989   2.742   5.313   7.582 -1.8959  0.3544 -1.3523
  615MOL0     H82990   2.619   5.283   7.803  4.4406  0.0158  2.3651
  615MOL0     H82991   2.349   5.461   7.797  1.6979 -0.1644 -0.6740
  615MOL0     H82992   2.365   5.342   7.931  1.1374  0.5213  2.0470
  615MOL0     H82993   2.184   5.505   7.946  1.1430  0.0003  0.1214
  615MOL0     H82994   2.280   5.522   8.097  0.4805 -0.6529  0.0549
  615MOL0     H82995   2.195   5.734   7.969 -0.6000 -0.3568  0.0362
  615MOL0     H82996   2.331   5.700   7.862  1.5420 -0.5801  2.1947
  615MOL0     H82997   2.334   5.773   8.162  0.0594 -0.9986  0.2244
  615MOL0     H82998   2.476   5.705   8.074 -0.1002  0.7215  1.3899
  615MOL0     H82999   2.492   5.893   7.949  0.6449  0.8605  0.5745
  615MOL0     H83000   2.460   5.945   8.121  0.0311 -2.6811  1.5525
  615MOL0     H83001   2.280   5.949   7.883 -3.1902 -2.6346  1.3379
  615MOL0     H83002   2.201   5.970   8.038 -0.8961 -0.8966 -1.1064
  615MOL0     H83003   2.423   6.163   7.932 -0.0560 -0.0384 -0.5747
  615MOL0     H83004   2.328   6.175   8.079 -1.6149 -0.1196  0.3508
  615MOL0     H83005   2.128   6.159   7.917  1.7078 -3.5819 -1.5564
  615MOL0     H83006   2.247   6.182   7.788 -2.5970 -1.0271 -0.7197
  615MOL0     H83007   2.592   5.707   7.834  1.8109  0.9417  0.2170
  615MOL0     H83008   2.723   5.741   7.650 -1.8354  0.5426 -0.8948
  615MOL0     H83009   2.824   5.678   7.257  0.5915  3.9570 -0.7328
  615MOL0     H83010   2.903   5.741   7.046 -0.7613  1.3571  1.5533
  615MOL0     H83011   3.865   5.113   5.579  0.4453  0.0288  0.0147
  615MOL0     H83012   3.795   4.931   5.448  0.8488  1.5643  0.5796
  615MOL0     H83013   3.754   4.350   5.682 -2.1318 -0.3001  0.6138
  615MOL0     H83014   3.701   4.140   5.569  0.7328  1.2302  1.7706
  615MOL0     H83015   3.812   4.063   5.373  1.7123 -2.4711  2.0896
  615MOL0     H83016   3.724   3.923   5.371  1.5671  0.2216  1.2955
  615MOL0     H83017   3.684   4.016   5.100 -0.0577 -0.3911  0.1874
  615MOL0     H83018   3.772   3.883   5.164 -1.2026  0.2534 -1.0007
  615MOL0     H83019   3.881   4.166   5.153 -5.7305 -0.1080 -1.2096
  615MOL0     H83020   3.894   4.069   5.018  0.5290 -0.7197  0.0762
  615MOL0     H83021   4.023   3.890   5.158  4.4261  0.1001 -0.6223
  615MOL0     H83022   4.005   4.011   5.289 -3.9259  0.0568 -0.3290
  615MOL0     H83023   4.298   4.180   5.015  0.9785  0.5521  1.9271
  615MOL0     H83024   3.549   4.356   5.230 -4.5921  2.2155  1.8315
  615MOL0     H83025   3.576   4.567   5.364 -2.6202 -0.4687  2.5257
  616MOL0     O83026   3.017   8.020   9.104 -0.2016  0.0426  0.1827
  616MOL0     C83027   3.098   7.953   9.167  1.2572 -0.0551 -1.1410
  616MOL0     O83028   3.062   7.826   9.222  0.3787  0.9005 -0.3740
  616MOL0     C83029   2.926   7.805   9.206 -0.1179 -0.2492 -1.1081
  616MOL0     C83030   2.859   7.764   9.092 -0.7892  0.0662 -0.4200
  616MOL0     C83031   2.724   7.734   9.099  0.2177  0.5617  0.3650
  616MOL0     C83032   2.646   7.746   9.217  0.0045 -0.2805  0.6356
  616MOL0     O83033   2.510   7.721   9.206 -0.5458  0.0599 -0.4844
  616MOL0     C83034   2.468   7.588   9.206 -1.3428  0.9877  0.0177
  616MOL0     C83035   2.327   7.582   9.259  0.4541  0.5382  0.2265
  616MOL0     C83036   2.313   7.617   9.402 -0.4987 -0.4811  0.4733
  616MOL0     C83037   2.175   7.674   9.433 -0.3230  0.7681 -0.5338
  616MOL0     C83038   2.170   7.826   9.430 -0.3919 -0.5745  0.1576
  616MOL0     C83039   2.042   7.880   9.481  0.1650  0.0785  0.1406
  616MOL0     C83040   2.036   8.032   9.487 -0.6221  0.1807  0.5897
  616MOL0     C83041   1.937   8.095   9.590  0.3803 -0.2274  0.1677
  616MOL0     N83042   1.963   8.041   9.722  0.0373  0.0517  0.0722
  616MOL0     C83043   2.073   7.985   9.766 -0.2753  0.3578 -0.4718
  616MOL0     C83044   2.059   7.960   9.903 -0.6209 -0.8683 -0.4789
  616MOL0     C83045   2.178   7.900   9.971  0.4179 -0.8937 -0.0046
  616MOL0     C83046   2.231   7.764   9.931  0.2720 -0.2723 -0.1007
  616MOL0     C83047   2.188   7.639  10.003  0.1536  0.0218 -0.2106
  616MOL0     C83048   2.038   7.637  10.008  0.1018 -0.2591 -0.1935
  616MOL0     O83049   1.996   7.598   9.879 -0.2397 -0.1519 -0.5217
  616MOL0     C83050   1.864   7.589   9.863 -1.0278 -0.0085 -0.8316
  616MOL0     C83051   1.806   7.656   9.760  0.9029  0.0041 -0.2062
  616MOL0     C83052   1.667   7.633   9.728 -0.8346 -0.8713  0.0308
  616MOL0     C83053   1.624   7.717   9.611 -0.9917  0.5052 -0.2333
  616MOL0     C83054   1.593   7.540   9.803  0.1759 -0.3889  0.1449
  616MOL0     C83055   1.451   7.510   9.781 -0.1111  0.2890 -0.0278
  616MOL0     O83056   1.397   7.397   9.846 -0.5845 -0.0642 -0.4258
  616MOL0     C83057   1.272   7.355   9.829  0.3526 -0.9327  0.5390
  616MOL0     C83058   1.222   7.267   9.926 -0.2620  0.3681 -0.0598
  616MOL0     C83059   1.097   7.207   9.923  0.0419 -0.1626 -0.4499
  616MOL0     C83060   1.008   7.229   9.819 -0.1538  0.6188 -0.2643
  616MOL0     O83061   0.898   7.140   9.807 -0.1102 -0.4971 -0.7115
  616MOL0     C83062   0.813   7.110   9.922  0.0427 -0.5268 -0.5240
  616MOL0     C83063   0.692   7.027   9.873  0.2476  0.9213 -0.1019
  616MOL0     C83064   0.721   6.919   9.778 -0.0650  0.1088 -0.3952
  616MOL0     C83065   0.595   6.847   9.750  0.4601  0.9267  0.6763
  616MOL0     C83066   0.630   6.708   9.690  0.6032 -0.9694 -0.6368
  616MOL0     C83067   0.672   6.713   9.544 -0.9544  0.8389 -0.2083
  616MOL0     C83068   0.696   6.568   9.497 -0.1235 -0.0054  0.4725
  616MOL0     C83069   0.719   6.537   9.354  0.2239  0.5508  0.9764
  616MOL0    Cl83070   0.851   6.645   9.293 -0.0609 -0.0912  0.1532
  616MOL0     C83071   1.052   7.312   9.719 -0.0026  0.6993  0.9604
  616MOL0     C83072   1.173   7.378   9.726 -0.2082  0.7413 -0.2940
  616MOL0     O83073   1.390   7.592   9.711 -0.1772  0.5523 -0.2371
  616MOL0     C83074   1.657   7.487   9.915 -0.3579  0.0595 -0.2796
  616MOL0     C83075   1.791   7.496   9.941  0.0459 -0.0383 -0.5617
  616MOL0     N83076   1.927   7.988   9.939  0.8092 -0.8015  0.2564
  616MOL0     N83077   1.872   8.032   9.826  0.0495  0.1371 -0.2542
  616MOL0     C83078   2.705   7.801   9.325  0.0777 -0.8183  0.0134
  616MOL0     C83079   2.842   7.826   9.321  0.2118 -0.1247  0.2991
  616MOL0     C83080   3.232   8.011   9.191  0.6136 -0.2029 -0.1610
  616MOL0     C83081   3.332   7.938   9.251  0.6786 -0.7735 -0.3800
  616MOL0     C83082   3.456   8.003   9.286  0.8312  0.5573  0.3564
  616MOL0     C83083   3.488   8.125   9.236 -0.2312 -0.7333  0.8386
  616MOL0     O83084   3.618   8.169   9.263  0.9557  0.4691  0.2924
  616MOL0     C83085   3.659   8.310   9.243  0.1061  0.5415 -0.2499
  616MOL0     C83086   3.587   8.394   9.354  1.1495  0.1317 -0.3470
  616MOL0     C83087   3.595   8.544   9.321  0.0626  0.2235 -0.0006
  616MOL0     C83088   3.727   8.601   9.263 -0.0725  0.2639 -0.3043
  616MOL0     C83089   3.839   8.603   9.358 -0.5679  0.0701  1.3247
  616MOL0     C83090   3.940   8.582   9.421  1.1409 -0.4682  0.4768
  616MOL0     C83091   3.400   8.191   9.154 -0.3265  0.4999 -0.4723
  616MOL0     C83092   3.275   8.139   9.136 -0.8831  0.3510 -0.4528
  616MOL0     H83093   2.906   7.740   8.997 -3.6284 -0.5247 -1.7795
  616MOL0     H83094   2.680   7.692   9.009 -1.6906  0.5728  1.2276
  616MOL0     H83095   2.478   7.546   9.105 -2.4652  0.3858  0.1400
  616MOL0     H83096   2.531   7.529   9.273 -2.8111  0.4792  0.9947
  616MOL0     H83097   2.268   7.649   9.195  0.7760  1.8664  1.2649
  616MOL0     H83098   2.288   7.480   9.252 -1.0279  1.0422  0.8149
  616MOL0     H83099   2.329   7.526   9.459 -0.6479 -1.9685 -1.7126
  616MOL0     H83100   2.382   7.697   9.430 -0.9992  0.3145 -0.4711
  616MOL0     H83101   2.093   7.621   9.383  1.0266  0.2770 -2.2979
  616MOL0     H83102   2.153   7.647   9.537 -0.0476 -0.6092 -0.8111
  616MOL0     H83103   2.242   7.866   9.503  0.7269 -0.9024 -0.7301
  616MOL0     H83104   2.202   7.866   9.333  2.5518  1.5219  1.8367
  616MOL0     H83105   1.953   7.844   9.430  1.7747 -1.8955 -1.4572
  616MOL0     H83106   2.016   7.840   9.580 -3.3276  0.7103 -0.4030
  616MOL0     H83107   2.139   8.065   9.504 -0.5145  0.3995 -0.4296
  616MOL0     H83108   2.026   8.054   9.380 -0.7078 -0.8808  0.3644
  616MOL0     H83109   1.833   8.073   9.566  0.9545  1.2777 -4.7569
  616MOL0     H83110   1.949   8.203   9.594  1.7830 -0.4133  2.5801
  616MOL0     H83111   2.168   7.979   9.714  0.8240  0.5641  1.4282
  616MOL0     H83112   2.257   7.975   9.961  1.3991 -1.5055  2.4765
  616MOL0     H83113   2.156   7.897  10.078  1.3240 -2.3555  0.1741
  616MOL0     H83114   2.339   7.778   9.941  0.1368 -0.3636  1.7425
  616MOL0     H83115   2.214   7.761   9.823 -1.2305 -2.1060  0.1350
  616MOL0     H83116   2.232   7.631  10.103 -2.1210 -1.5201  0.7423
  616MOL0     H83117   2.225   7.552   9.947 -0.3620  0.9711 -2.1069
  616MOL0     H83118   1.998   7.729  10.052  2.9794  0.4333  1.2400
  616MOL0     H83119   2.022   7.559  10.083  4.3861 -2.1712 -0.9440
  616MOL0     H83120   1.863   7.720   9.694 -1.2358  0.9961 -1.1698
  616MOL0     H83121   1.560   7.653   9.550  0.4262 -0.8954 -0.3182
  616MOL0     H83122   1.594   7.817   9.645  1.2997  1.0053  0.5570
  616MOL0     H83123   1.708   7.749   9.548 -0.2109 -0.8533  0.0825
  616MOL0     H83124   1.286   7.244  10.011 -0.7453  3.2203  1.2060
  616MOL0     H83125   1.074   7.126   9.992 -2.3879  0.6708 -0.1653
  616MOL0     H83126   0.874   7.047   9.988 -1.2310 -2.5978 -1.2444
  616MOL0     H83127   0.775   7.198   9.974  0.8850 -0.8075  0.6052
  616MOL0     H83128   0.653   6.976   9.962  3.7629 -0.6114  0.7173
  616MOL0     H83129   0.615   7.086   9.823 -0.3252 -1.4974 -2.2918
  616MOL0     H83130   0.798   6.851   9.814  0.6477 -1.1418 -3.9100
  616MOL0     H83131   0.765   6.955   9.684  0.5274 -0.8715 -0.5120
  616MOL0     H83132   0.535   6.824   9.839 -1.4172  0.8790 -0.5486
  616MOL0     H83133   0.526   6.905   9.688  0.7606  0.1099 -0.4577
  616MOL0     H83134   0.539   6.647   9.695  0.7531 -1.2829 -1.5176
  616MOL0     H83135   0.715   6.668   9.747  1.4862  0.3682 -0.9638
  616MOL0     H83136   0.603   6.757   9.471  1.8817  1.6585 -2.6233
  616MOL0     H83137   0.755   6.783   9.524 -1.3881  1.0749 -1.2567
  616MOL0     H83138   0.604   6.512   9.516 -0.4278  0.2201 -0.3203
  616MOL0     H83139   0.782   6.529   9.553 -1.1350 -4.0526 -0.4987
  616MOL0     H83140   0.629   6.554   9.294  0.5001 -0.0325  0.3876
  616MOL0     H83141   0.739   6.430   9.344  0.3922  0.4459  2.2625
  616MOL0     H83142   0.983   7.326   9.636  2.5062 -0.8489 -1.5721
  616MOL0     H83143   1.206   7.447   9.649  1.1452 -0.4760 -0.8663
  616MOL0     H83144   1.594   7.433   9.984 -0.5554  3.1741  2.2145
  616MOL0     H83145   1.840   7.429  10.011  1.6150  1.2565 -0.3676
  616MOL0     H83146   2.634   7.833   9.400 -0.4800 -0.5243 -0.6270
  616MOL0     H83147   2.874   7.875   9.412 -1.1824 -0.8947  1.2532
  616MOL0     H83148   3.313   7.843   9.301 -5.0055  1.0875  1.7952
  616MOL0     H83149   3.526   7.955   9.353  1.2472  3.3557  2.1273
  616MOL0     H83150   3.765   8.311   9.268 -0.1660 -1.2433  1.2158
  616MOL0     H83151   3.623   8.334   9.142 -2.6514 -3.1048 -0.3679
  616MOL0     H83152   3.640   8.368   9.447  0.3227 -2.5873 -0.5467
  616MOL0     H83153   3.481   8.370   9.362  1.5800 -2.3605 -1.1889
  616MOL0     H83154   3.582   8.608   9.409  0.4234 -0.7232  0.7614
  616MOL0     H83155   3.516   8.566   9.248  2.3459 -0.6530 -2.9254
  616MOL0     H83156   3.706   8.705   9.238  0.3158  0.3534 -0.2616
  616MOL0     H83157   3.756   8.550   9.171  3.6340  1.6273 -0.0420
  616MOL0     H83158   4.040   8.583   9.461  2.8916 -0.6999 -3.4456
  616MOL0     H83159   3.414   8.292   9.117  0.1890  0.7619  0.4012
  616MOL0     H83160   3.205   8.179   9.063 -1.6326 -2.0493 -1.1595
  617MOL0     O83161   6.515  11.039   6.750  0.0989  0.0267 -0.1490
  617MOL0     C83162   6.539  11.160   6.735 -0.4129 -0.6171 -1.1451
  617MOL0     O83163   6.458  11.250   6.678  0.1861 -0.6018  0.0980
  617MOL0     C83164   6.353  11.189   6.614 -0.0173 -0.0361 -0.1418
  617MOL0     C83165   6.220  11.188   6.673  0.1539  0.3705  0.7495
  617MOL0     C83166   6.110  11.127   6.598  1.3470  0.3666 -0.3236
  617MOL0     C83167   6.131  11.063   6.475  0.0095  0.3866  0.4013
  617MOL0     O83168   6.031  10.991   6.424 -0.4898  0.4209 -0.1287
  617MOL0     C83169   6.017  11.005   6.278  0.4857 -0.2150  0.4597
  617MOL0     C83170   5.885  10.940   6.236 -0.3716 -0.3980 -0.8506
  617MOL0     C83171   5.857  10.942   6.085  0.0335 -0.5015  0.3743
  617MOL0     C83172   5.888  11.068   6.009 -0.1443  0.0151 -0.0123
  617MOL0     C83173   5.837  11.079   5.864  0.1817  0.3545 -0.0029
  617MOL0     C83174   5.918  10.989   5.771  0.2321 -0.1978  0.1064
  617MOL0     C83175   5.881  11.010   5.620 -1.2814  0.6073 -0.2353
  617MOL0     C83176   5.731  11.004   5.592  0.0118  0.8774  0.2816
  617MOL0     N83177   5.694  10.863   5.607 -0.1480 -0.5463 -0.5254
  617MOL0     C83178   5.714  10.762   5.514 -0.3679 -0.4618  0.1133
  617MOL0     C83179   5.653  10.661   5.578  0.5833 -0.3395 -0.5768
  617MOL0     C83180   5.663  10.517   5.546  0.3824  0.8539  0.1066
  617MOL0     C83181   5.799  10.460   5.589  0.2562  0.1340 -0.1802
  617MOL0     C83182   5.793  10.312   5.550  0.3600 -0.4230 -0.2687
  617MOL0     C83183   5.920  10.240   5.578 -0.0794 -0.5403 -0.2082
  617MOL0     O83184   5.906  10.109   5.536 -0.5001 -0.2715  0.3069
  617MOL0     C83185   6.023  10.046   5.539  0.1945  0.3544  0.2680
  617MOL0     C83186   6.063   9.976   5.654  0.5235  0.1971 -0.1148
  617MOL0     C83187   6.187   9.898   5.667 -0.3242 -0.2286  0.5113
  617MOL0     C83188   6.220   9.824   5.794 -0.0272 -0.0443 -0.0662
  617MOL0     C83189   6.274   9.904   5.552  0.5151 -0.1274 -0.4372
  617MOL0     C83190   6.410   9.846   5.564  0.0192 -0.8689  0.3682
  617MOL0     O83191   6.482   9.856   5.444  0.2190 -0.4691  0.4339
  617MOL0     C83192   6.607   9.802   5.417 -0.3843  0.1164 -0.9039
  617MOL0     C83193   6.637   9.672   5.466  0.3638 -0.3379 -0.0787
  617MOL0     C83194   6.762   9.616   5.449 -0.4900  0.0132 -1.6366
  617MOL0     C83195   6.857   9.688   5.376 -0.4569  0.0787 -0.6059
  617MOL0     O83196   6.980   9.635   5.351  0.3534 -0.4760  0.7348
  617MOL0     C83197   7.086   9.695   5.278  0.0550  0.4517  0.6898
  617MOL0     C83198   7.201   9.598   5.270 -0.0104  0.8605  0.5967
  617MOL0     C83199   7.236   9.536   5.405 -0.4417 -0.0020  0.2346
  617MOL0     C83200   7.353   9.438   5.410 -0.3783 -0.1795  0.3051
  617MOL0     C83201   7.373   9.385   5.550  0.6924  0.2680  0.2169
  617MOL0     C83202   7.481   9.280   5.555  0.2518  0.4466 -0.0639
  617MOL0     C83203   7.525   9.254   5.697  0.3317  0.1051 -0.0031
  617MOL0     C83204   7.634   9.150   5.718 -0.1361 -0.8274  0.2522
  617MOL0    Cl83205   7.789   9.207   5.647 -0.1344  0.0937 -0.2279
  617MOL0     C83206   6.826   9.820   5.332 -0.7383  0.6852  0.4452
  617MOL0     C83207   6.701   9.870   5.344 -0.8014 -0.2508  0.1097
  617MOL0     O83208   6.448   9.787   5.660  0.0010 -0.9485 -0.4999
  617MOL0     C83209   6.234   9.981   5.441  0.2089  0.2953 -0.3832
  617MOL0     C83210   6.105  10.034   5.430  0.2131 -0.7032  0.2805
  617MOL0     N83211   5.598  10.706   5.701  1.1203 -0.0885  0.0005
  617MOL0     N83212   5.626  10.825   5.721 -0.7249  0.1744  0.2846
  617MOL0     C83213   6.263  11.071   6.419  0.2434  0.1265  0.0782
  617MOL0     C83214   6.369  11.130   6.495 -0.5410  0.0709  0.0298
  617MOL0     C83215   6.678  11.211   6.751 -0.2177  0.0707 -0.7161
  617MOL0     C83216   6.772  11.118   6.805  0.0643  0.6923  0.7267
  617MOL0     C83217   6.899  11.157   6.833 -0.2859 -0.8090  1.3222
  617MOL0     C83218   6.944  11.287   6.806 -0.4652 -0.0693 -0.0304
  617MOL0     O83219   7.074  11.328   6.814  0.2193 -0.0589  0.9373
  617MOL0     C83220   7.153  11.285   6.695  0.0232  0.6691 -0.5706
  617MOL0     C83221   7.217  11.411   6.618  0.4637  1.2791  0.4187
  617MOL0     C83222   7.325  11.374   6.501  0.2579 -0.7978  0.7434
  617MOL0     C83223   7.448  11.305   6.547 -0.5844  0.3645 -0.4521
  617MOL0     C83224   7.521  11.387   6.644 -0.2093 -0.1702  0.5264
  617MOL0     C83225   7.570  11.460   6.724  0.8775 -0.0481 -0.1650
  617MOL0     C83226   6.849  11.376   6.748  0.4213  0.2899 -0.6481
  617MOL0     C83227   6.719  11.340   6.722  0.1961  0.0331  0.0510
  617MOL0     H83228   6.197  11.231   6.771  0.2758 -1.3110  1.5499
  617MOL0     H83229   6.016  11.114   6.650  1.4442 -0.5695 -0.3754
  617MOL0     H83230   6.018  11.113   6.258  1.1671  0.3638  3.1849
  617MOL0     H83231   6.104  10.956   6.234  1.1893  3.0351 -2.2414
  617MOL0     H83232   5.891  10.837   6.272 -2.3820 -0.3149 -0.1680
  617MOL0     H83233   5.812  10.997   6.295  1.1543  2.1998 -1.3040
  617MOL0     H83234   5.914  10.864   6.033 -2.4460 -1.8472 -0.4983
  617MOL0     H83235   5.757  10.909   6.057  0.2489  0.2808 -1.4697
  617MOL0     H83236   5.838  11.151   6.058  0.1524  1.0089 -1.3222
  617MOL0     H83237   5.995  11.093   6.009 -0.2373  0.4868 -0.9447
  617MOL0     H83238   5.731  11.050   5.869 -0.3571  2.2996  0.6557
  617MOL0     H83239   5.850  11.184   5.838 -0.1811  0.7107  1.1975
  617MOL0     H83240   6.023  11.019   5.780 -0.7824  4.0418 -0.0421
  617MOL0     H83241   5.900  10.889   5.810 -1.0401  0.6312  1.7375
  617MOL0     H83242   5.934  11.101   5.589  0.8296  0.4598  2.5992
  617MOL0     H83243   5.934  10.937   5.558  0.0657  1.6564 -0.3632
  617MOL0     H83244   5.714  11.031   5.488 -0.2583  0.4594  0.2177
  617MOL0     H83245   5.665  11.074   5.644 -1.2034 -0.0218 -0.0084
  617MOL0     H83246   5.781  10.765   5.429  1.0565 -1.3765  1.1647
  617MOL0     H83247   5.577  10.461   5.584  1.1715 -1.3870 -1.2617
  617MOL0     H83248   5.657  10.505   5.438  0.3802  2.0919 -0.0502
  617MOL0     H83249   5.803  10.481   5.696  0.4750  2.0171 -0.5218
  617MOL0     H83250   5.877  10.512   5.533  0.2598 -0.3899 -0.6701
  617MOL0     H83251   5.779  10.289   5.444  4.8249  0.6625 -1.2821
  617MOL0     H83252   5.717  10.263   5.613  0.7301  0.1060  0.6133
  617MOL0     H83253   5.944  10.250   5.684  0.4348  0.3857 -0.4042
  617MOL0     H83254   5.994  10.293   5.518  0.0610  0.3593  0.7379
  617MOL0     H83255   5.988   9.969   5.732  1.1619 -1.6178  0.3961
  617MOL0     H83256   6.247   9.719   5.778  0.4121  0.2224 -1.1730
  617MOL0     H83257   6.313   9.864   5.836  1.6547  2.0588 -5.0540
  617MOL0     H83258   6.130   9.823   5.855 -1.5033 -1.8311 -2.1607
  617MOL0     H83259   6.556   9.624   5.520  0.0514 -0.4425 -0.6245
  617MOL0     H83260   6.778   9.517   5.491 -4.5064  0.0169  0.4495
  617MOL0     H83261   7.046   9.718   5.179 -0.2079  1.0689  0.9341
  617MOL0     H83262   7.121   9.789   5.321 -1.6628  0.9150  1.1510
  617MOL0     H83263   7.170   9.516   5.205  1.1610  1.0926 -0.2974
  617MOL0     H83264   7.289   9.648   5.228  1.2411  0.6077  2.7770
  617MOL0     H83265   7.142   9.484   5.424 -1.2500  1.2013 -0.3403
  617MOL0     H83266   7.264   9.615   5.476 -0.8832 -0.9754  1.5376
  617MOL0     H83267   7.340   9.358   5.336  1.7789 -1.2347  0.9725
  617MOL0     H83268   7.449   9.486   5.388  0.3915 -2.1077 -0.8612
  617MOL0     H83269   7.282   9.349   5.599  2.3575  0.0653  3.4348
  617MOL0     H83270   7.395   9.464   5.623  0.5970  1.7720 -1.3266
  617MOL0     H83271   7.446   9.186   5.511 -3.0317  0.2050  2.7140
  617MOL0     H83272   7.571   9.322   5.507  0.9992 -0.7976  0.1934
  617MOL0     H83273   7.435   9.226   5.753  0.5598 -2.0924 -0.6504
  617MOL0     H83274   7.565   9.346   5.741 -0.7727  0.8922 -0.5826
  617MOL0     H83275   7.611   9.056   5.667  0.1226 -0.8577  0.1952
  617MOL0     H83276   7.646   9.138   5.826 -1.5616  4.3002  1.2349
  617MOL0     H83277   6.898   9.881   5.280 -0.6243  0.1613 -0.0247
  617MOL0     H83278   6.685   9.949   5.271  0.2299  0.2329  0.4004
  617MOL0     H83279   6.307   9.992   5.361  4.3721 -0.5543  2.9220
  617MOL0     H83280   6.068  10.070   5.334 -1.4829 -2.1318  0.3448
  617MOL0     H83281   6.290  11.008   6.335  1.8706 -0.6421  1.1276
  617MOL0     H83282   6.462  11.122   6.440 -1.2461 -1.3538 -1.0357
  617MOL0     H83283   6.740  11.019   6.836 -1.1607  0.4008 -1.2912
  617MOL0     H83284   6.981  11.096   6.869  2.0453 -0.4589 -2.7585
  617MOL0     H83285   7.240  11.225   6.723  0.1284  0.3322 -1.5667
  617MOL0     H83286   7.094  11.227   6.624  2.5376 -2.8229 -0.0993
  617MOL0     H83287   7.265  11.464   6.701  0.0136 -2.4797  3.3281
  617MOL0     H83288   7.134  11.473   6.581 -1.3473 -1.3444 -0.2078
  617MOL0     H83289   7.368  11.463   6.456  0.3719  1.2238  4.4289
  617MOL0     H83290   7.270  11.306   6.435 -0.0239 -0.2902  0.4506
  617MOL0     H83291   7.512  11.282   6.461 -1.6157  1.1284 -1.4588
  617MOL0     H83292   7.434  11.203   6.583  0.9501 -1.3086 -4.0455
  617MOL0     H83293   7.618  11.508   6.807  0.1814 -0.9897  0.8008
  617MOL0     H83294   6.882  11.479   6.737  0.2673  0.7381  2.2927
  617MOL0     H83295   6.650  11.407   6.671  0.8006 -0.1931 -1.0765
  618MOL0     O83296   3.092  10.209   4.920 -0.9107  0.7504  0.2126
  618MOL0     C83297   3.101  10.254   4.803  0.0719  0.2202 -0.2368
  618MOL0     O83298   2.989  10.291   4.723 -0.2519 -0.0823 -0.2621
  618MOL0     C83299   2.868  10.247   4.768 -0.0656 -0.6194 -0.8414
  618MOL0     C83300   2.802  10.129   4.719 -0.4918  0.3868 -0.3144
  618MOL0     C83301   2.675  10.092   4.763  0.3936  0.4638 -0.0739
  618MOL0     C83302   2.615  10.171   4.860 -0.3980  0.6544 -0.4480
  618MOL0     O83303   2.482  10.150   4.901  0.3275  0.0047  0.7014
  618MOL0     C83304   2.396  10.043   4.858  0.2292 -0.5052 -0.4868
  618MOL0     C83305   2.250  10.066   4.896  0.1085  0.0970  0.4011
  618MOL0     C83306   2.162  10.006   4.786  0.6054 -0.0135  0.6389
  618MOL0     C83307   2.015  10.010   4.815  0.8233  0.1199 -0.2099
  618MOL0     C83308   1.932   9.963   4.694  0.1634  0.0785  0.0352
  618MOL0     C83309   1.783  10.005   4.712  0.5327 -0.7339 -0.1342
  618MOL0     C83310   1.757  10.157   4.670 -0.6064  0.3725 -0.7002
  618MOL0     C83311   1.615  10.190   4.670  0.3343 -0.3736 -0.7559
  618MOL0     N83312   1.535  10.139   4.561  0.0673 -0.0779  0.2505
  618MOL0     C83313   1.429  10.055   4.571  0.4891 -0.4991 -0.5382
  618MOL0     C83314   1.360  10.076   4.454 -0.1174  0.6211 -0.1983
  618MOL0     C83315   1.242  10.008   4.416 -0.0311 -0.1472  0.7211
  618MOL0     C83316   1.182  10.053   4.282  0.4326 -0.4549  0.8816
  618MOL0     C83317   1.064   9.961   4.253 -0.6060  0.3456 -0.5590
  618MOL0     C83318   1.000   9.996   4.122  0.6460 -0.4632 -0.1624
  618MOL0     O83319   1.076   9.960   4.013  1.7618  0.2394  0.2833
  618MOL0     C83320   1.007   9.935   3.899 -0.6962  0.6123 -0.0334
  618MOL0     C83321   1.073   9.856   3.798  0.6244  0.0768 -0.2790
  618MOL0     C83322   1.008   9.822   3.678 -0.3008 -0.3820  0.6691
  618MOL0     C83323   1.086   9.733   3.590 -0.2448  0.0245 -0.4891
  618MOL0     C83324   0.882   9.871   3.648  0.8248 -0.0749  0.8274
  618MOL0     C83325   0.809   9.846   3.518  0.2319  0.6068 -0.7615
  618MOL0     O83326   0.704   9.925   3.490 -0.4047  0.3050 -0.3322
  618MOL0     C83327   0.630   9.943   3.376  0.4378 -0.2913 -0.2407
  618MOL0     C83328   0.521  10.032   3.382  0.2405  0.4327  0.0237
  618MOL0     C83329   0.430  10.033   3.266  0.0945  0.9976 -0.2525
  618MOL0     C83330   0.453   9.958   3.156 -0.4795 -0.3564  0.8708
  618MOL0     O83331   0.371   9.959   3.045 -0.2291 -0.2576 -0.4249
  618MOL0     C83332   0.313  10.086   3.006 -0.3063 -0.5978 -0.0646
  618MOL0     C83333   0.272  10.078   2.854 -0.0496 -0.2816 -0.5444
  618MOL0     C83334   0.293  10.208   2.787  0.5834 -0.4006 -0.3917
  618MOL0     C83335   0.210  10.216   2.659  0.4632  0.3175  0.2200
  618MOL0     C83336   0.059  10.239   2.676 -0.0583  0.7631  0.4122
  618MOL0     C83337  -0.020  10.291   2.553  0.8480  0.0667 -0.7441
  618MOL0     C83338  -0.169  10.287   2.583  0.3520 -0.1005 -0.0451
  618MOL0     C83339  -0.262  10.340   2.475 -0.4390  0.4392 -0.1482
  618MOL0    Cl83340  -0.268  10.518   2.476 -0.0816 -0.0075 -0.4330
  618MOL0     C83341   0.565   9.881   3.145  0.3581  0.1563  0.5812
  618MOL0     C83342   0.650   9.871   3.255  0.9282 -0.4783  0.5209
  618MOL0     O83343   0.862   9.772   3.437  0.2468  0.0566 -0.7260
  618MOL0     C83344   0.826   9.945   3.752 -0.1214 -0.7560  1.2954
  618MOL0     C83345   0.880   9.978   3.871 -0.1311 -1.0379 -0.3474
  618MOL0     N83346   1.439  10.154   4.371  0.2998 -0.1639 -0.2419
  618MOL0     N83347   1.545  10.189   4.437  0.6993  0.1229  0.8186
  618MOL0     C83348   2.673  10.285   4.907 -0.6616 -0.5186 -0.3065
  618MOL0     C83349   2.797  10.325   4.861  0.2341 -0.7458  0.1873
  618MOL0     C83350   3.241  10.296   4.761 -0.1530 -0.4261 -0.6059
  618MOL0     C83351   3.349  10.288   4.850 -0.3180  0.7790 -0.4047
  618MOL0     C83352   3.467  10.354   4.823 -0.0788 -0.8693 -0.1075
  618MOL0     C83353   3.489  10.426   4.706 -0.1957  0.2828  0.1548
  618MOL0     O83354   3.609  10.489   4.702 -0.1230 -0.4530  0.4431
  618MOL0     C83355   3.630  10.565   4.582  0.5134  0.1116  0.4658
  618MOL0     C83356   3.765  10.631   4.587 -0.7446  0.2261  0.1237
  618MOL0     C83357   3.800  10.709   4.461  0.4695  0.7623  0.5402
  618MOL0     C83358   3.873  10.623   4.353 -0.6047  0.5706 -0.2182
  618MOL0     C83359   3.878  10.699   4.232  1.0975  0.7692 -0.5702
  618MOL0     C83360   3.857  10.778   4.139 -0.0443 -0.9780 -0.6994
  618MOL0     C83361   3.389  10.417   4.609 -0.2899 -0.1445 -0.4275
  618MOL0     C83362   3.262  10.365   4.646  0.6233  0.0937 -0.0962
  618MOL0     H83363   2.852  10.071   4.642 -1.2011  0.2674 -0.6946
  618MOL0     H83364   2.619  10.007   4.727 -0.0696  0.5640  0.3869
  618MOL0     H83365   2.387  10.052   4.750 -1.6975  2.6896 -0.2058
  618MOL0     H83366   2.429   9.946   4.895  1.0619 -0.4506 -1.0528
  618MOL0     H83367   2.218  10.013   4.985  0.7227 -1.5758 -0.3366
  618MOL0     H83368   2.222  10.171   4.908 -1.6831  0.0635 -2.4815
  618MOL0     H83369   2.192  10.055   4.694 -0.1785 -1.7215 -0.5855
  618MOL0     H83370   2.181   9.900   4.765  1.6977  0.9554 -4.8388
  618MOL0     H83371   1.981   9.947   4.898 -0.0326  1.1198  0.2282
  618MOL0     H83372   1.996  10.116   4.831  0.3006  0.2310 -1.4434
  618MOL0     H83373   1.960   9.996   4.593 -0.7676  0.5993 -0.0752
  618MOL0     H83374   1.939   9.854   4.699  1.4191  0.1912  1.1125
  618MOL0     H83375   1.732   9.943   4.638  1.6161 -2.1593  0.2592
  618MOL0     H83376   1.738   9.999   4.811 -0.6524 -0.1388 -0.6206
  618MOL0     H83377   1.800  10.217   4.751 -2.3521 -2.6820  2.8497
  618MOL0     H83378   1.800  10.170   4.571 -0.5716 -2.7378 -1.1930
  618MOL0     H83379   1.622  10.299   4.674  0.7486 -0.3409 -2.0197
  618MOL0     H83380   1.576  10.165   4.769  2.3868 -0.4650  0.0786
  618MOL0     H83381   1.395  10.002   4.659 -1.2647  0.6832 -0.4692
  618MOL0     H83382   1.265   9.902   4.402 -0.8957  0.0086 -2.5894
  618MOL0     H83383   1.168  10.008   4.497  0.6596 -1.4755  1.3863
  618MOL0     H83384   1.262  10.058   4.208  1.4095  1.5079  1.9944
  618MOL0     H83385   1.147  10.157   4.289 -0.0048 -0.4443 -0.9247
  618MOL0     H83386   0.992   9.980   4.333  0.1582 -0.2640  0.3008
  618MOL0     H83387   1.103   9.859   4.241  0.1726  0.4954  0.5288
  618MOL0     H83388   0.993  10.106   4.119  1.5542 -0.4164 -2.0378
  618MOL0     H83389   0.899   9.954   4.121 -0.8094  2.6720 -1.7386
  618MOL0     H83390   1.164   9.802   3.822 -1.8449 -3.8911  1.2276
  618MOL0     H83391   1.036   9.636   3.581 -4.5640  2.1088 -1.3451
  618MOL0     H83392   1.102   9.768   3.488  0.5076  0.2661 -0.2980
  618MOL0     H83393   1.186   9.713   3.631 -0.9572 -3.7608 -0.1862
  618MOL0     H83394   0.513  10.085   3.477  0.6933 -1.0950  0.9446
  618MOL0     H83395   0.337  10.086   3.283  0.0033 -0.0672  3.3030
  618MOL0     H83396   0.230  10.111   3.073  0.9250 -0.1743  1.3533
  618MOL0     H83397   0.386  10.166   3.020  1.7750 -2.4234  0.0412
  618MOL0     H83398   0.335  10.003   2.805  0.9790  0.2366 -0.0402
  618MOL0     H83399   0.167  10.049   2.854  0.1933 -1.1985  0.3526
  618MOL0     H83400   0.400  10.210   2.764  0.4879  2.8319 -1.0866
  618MOL0     H83401   0.277  10.290   2.857 -0.6576 -0.1821 -0.9066
  618MOL0     H83402   0.249  10.307   2.613  1.3038 -0.0702  0.1409
  618MOL0     H83403   0.229  10.132   2.593  0.3441  1.0876 -0.8160
  618MOL0     H83404   0.038  10.323   2.742  0.1371  0.6510  0.6195
  618MOL0     H83405   0.016  10.149   2.722  0.2448  1.2292  1.6684
  618MOL0     H83406   0.002  10.395   2.530  2.2806 -0.5080 -2.1805
  618MOL0     H83407   0.001  10.243   2.457 -4.6176  3.0161 -3.9381
  618MOL0     H83408  -0.195  10.344   2.673  1.5766 -0.2219  0.4057
  618MOL0     H83409  -0.183  10.181   2.605  0.9131 -0.0927  0.3790
  618MOL0     H83410  -0.364  10.303   2.493 -0.9848  1.6399 -0.6243
  618MOL0     H83411  -0.227  10.301   2.379 -0.6264 -2.4381  0.8548
  618MOL0     H83412   0.590   9.826   3.054  0.4277 -0.9719  1.2634
  618MOL0     H83413   0.728   9.796   3.245  2.8079  1.4196  0.5226
  618MOL0     H83414   0.733  10.000   3.736  0.1510  0.0705  2.4475
  618MOL0     H83415   0.816  10.038   3.934  2.0109  0.5210  0.5033
  618MOL0     H83416   2.636  10.363   4.973  1.0286 -1.7209  2.2249
  618MOL0     H83417   2.845  10.418   4.890  1.4155 -1.6440  1.1940
  618MOL0     H83418   3.336  10.212   4.926 -1.3033 -1.7292 -2.8951
  618MOL0     H83419   3.545  10.349   4.898 -1.6598 -1.7471  1.5285
  618MOL0     H83420   3.633  10.501   4.493  0.9500 -0.3575  0.8125
  618MOL0     H83421   3.552  10.640   4.565  0.5771  0.1697  0.4252
  618MOL0     H83422   3.830  10.554   4.629  0.0208  0.4136 -0.6858
  618MOL0     H83423   3.758  10.709   4.663 -2.6208 -1.4046  1.7590
  618MOL0     H83424   3.874  10.785   4.488  3.3150 -1.7454  0.3669
  618MOL0     H83425   3.710  10.759   4.423  0.2756 -0.7876 -1.1796
  618MOL0     H83426   3.825  10.527   4.333  0.2014  0.0882  0.0780
  618MOL0     H83427   3.972  10.589   4.387  0.2644  1.1077 -2.0746
  618MOL0     H83428   3.816  10.826   4.053 -2.4774 -2.9393 -0.7525
  618MOL0     H83429   3.413  10.445   4.507 -0.7814  3.2914  0.3047
  618MOL0     H83430   3.179  10.370   4.576 -2.2424  0.7375  3.1009
  619MOL0     O83431   0.461   4.994  10.304 -0.8135 -0.1999 -0.9203
  619MOL0     C83432   0.493   4.912  10.218  0.4670 -0.0918  1.2710
  619MOL0     O83433   0.402   4.824  10.157  0.2816  0.0570  0.3014
  619MOL0     C83434   0.269   4.842  10.175  0.1303  0.1918  0.6424
  619MOL0     C83435   0.204   4.962  10.171  0.2333 -0.4275  0.7949
  619MOL0     C83436   0.058   4.961  10.168 -0.0688 -0.0918  0.7214
  619MOL0     C83437  -0.013   4.837  10.181  0.6489  0.0122  0.0724
  619MOL0     O83438  -0.150   4.822  10.207 -0.3029 -0.1472 -0.3557
  619MOL0     C83439  -0.189   4.751  10.326  0.2994  0.1063 -0.8069
  619MOL0     C83440  -0.325   4.679  10.313 -0.1518 -0.1106 -0.2595
  619MOL0     C83441  -0.367   4.587  10.418  0.6491 -0.7585  0.8589
  619MOL0     C83442  -0.502   4.521  10.393 -0.3253  0.1432 -0.2239
  619MOL0     C83443  -0.628   4.595  10.414  0.7622  0.4096 -0.2780
  619MOL0     C83444  -0.751   4.532  10.343  0.3460  0.8180 -1.3508
  619MOL0     C83445  -0.787   4.395  10.401 -0.2290 -0.0100  0.2429
  619MOL0     C83446  -0.883   4.314  10.315 -1.1297 -0.7277  0.4686
  619MOL0     N83447  -1.020   4.381  10.314 -0.9692 -0.1701 -0.1237
  619MOL0     C83448  -1.085   4.444  10.422  0.2848 -0.1588  0.5108
  619MOL0     C83449  -1.185   4.514  10.367  0.1286  0.6105  0.3483
  619MOL0     C83450  -1.274   4.606  10.437 -0.1843 -0.3195 -0.3370
  619MOL0     C83451  -1.342   4.535  10.549 -0.2375 -0.2574 -0.2118
  619MOL0     C83452  -1.418   4.403  10.505 -0.4523  0.1694 -0.4578
  619MOL0     C83453  -1.535   4.375  10.581 -0.2606  0.1680 -0.5833
  619MOL0     O83454  -1.503   4.343  10.720  1.0368 -0.1334  0.0918
  619MOL0     C83455  -1.596   4.274  10.799  0.0762 -0.8005 -0.0649
  619MOL0     C83456  -1.551   4.198  10.898  0.0308  0.3001  0.1507
  619MOL0     C83457  -1.630   4.114  10.976 -0.2227 -0.8334  0.3343
  619MOL0     C83458  -1.555   4.047  11.093 -0.0801  0.0093  0.7450
  619MOL0     C83459  -1.766   4.113  10.954  0.3119 -0.0211  0.4163
  619MOL0     C83460  -1.854   4.037  11.043 -0.0265 -0.1931 -0.7391
  619MOL0     O83461  -1.887   4.081  11.168 -0.1625 -0.1946 -0.1140
  619MOL0     C83462  -1.961   4.000  11.246 -0.1040  1.2719 -0.7428
  619MOL0     C83463  -2.079   4.044  11.295  1.1418 -0.1966  0.1889
  619MOL0     C83464  -2.162   3.965  11.377  0.2490 -0.5150 -0.2067
  619MOL0     C83465  -2.131   3.831  11.394  0.3387  0.5775  0.4682
  619MOL0     O83466  -2.208   3.759  11.484 -0.4575 -0.1991  0.2870
  619MOL0     C83467  -2.324   3.719  11.428 -0.8606 -0.1894  0.0013
  619MOL0     C83468  -2.405   3.653  11.538  0.5271  0.3530  0.5649
  619MOL0     C83469  -2.545   3.602  11.492  0.2534  0.3989  0.4628
  619MOL0     C83470  -2.636   3.553  11.605 -0.5912  0.6542  0.4505
  619MOL0     C83471  -2.777   3.531  11.550  0.5123 -1.0854  0.2233
  619MOL0     C83472  -2.861   3.444  11.647  0.0293  0.3339  0.3902
  619MOL0     C83473  -3.002   3.437  11.590  0.5105  0.0734 -0.3763
  619MOL0     C83474  -3.093   3.352  11.689  0.7512  0.2212  0.7764
  619MOL0    Cl83475  -3.270   3.360  11.645 -0.5352 -0.2630  0.1972
  619MOL0     C83476  -2.019   3.783  11.337 -0.2864 -0.2647 -1.0410
  619MOL0     C83477  -1.922   3.873  11.283 -0.1410 -0.5659  0.6354
  619MOL0     O83478  -1.881   3.932  10.993 -0.3067  0.3372  0.2135
  619MOL0     C83479  -1.826   4.205  10.862  0.5202  0.3223  0.2402
  619MOL0     C83480  -1.741   4.280  10.779  0.7225  0.5242  0.5459
  619MOL0     N83481  -1.182   4.502  10.231 -0.9492  0.2608  0.0693
  619MOL0     N83482  -1.076   4.432  10.199  0.1905 -0.1711 -0.1369
  619MOL0     C83483   0.060   4.719  10.181  0.0079  0.3256  0.1724
  619MOL0     C83484   0.196   4.724  10.189  0.0544 -0.8099  0.3803
  619MOL0     C83485   0.633   4.911  10.168  0.0838 -0.8073  0.1624
  619MOL0     C83486   0.680   4.825  10.066 -0.1624  0.4009  0.4518
  619MOL0     C83487   0.818   4.811  10.042 -0.4704  0.5073 -0.0849
  619MOL0     C83488   0.908   4.867  10.130  0.3038  0.1369 -0.9212
  619MOL0     O83489   1.036   4.837  10.103  0.5735  0.3562 -0.2573
  619MOL0     C83490   1.139   4.852  10.203 -0.2952 -0.2886 -0.6484
  619MOL0     C83491   1.239   4.966  10.188  0.4200  0.2598 -0.2869
  619MOL0     C83492   1.180   5.101  10.138 -0.1437 -0.0521  0.1921
  619MOL0     C83493   1.291   5.211  10.104 -0.5009  0.4829 -0.0119
  619MOL0     C83494   1.388   5.239  10.211  0.0260 -0.4221  0.0410
  619MOL0     C83495   1.481   5.258  10.286 -0.2359 -0.5274  0.2606
  619MOL0     C83496   0.862   4.951  10.223 -0.4546 -0.6078 -0.1678
  619MOL0     C83497   0.731   4.974  10.245  0.2442 -0.0580  0.3527
  619MOL0     H83498   0.253   5.059  10.176 -1.8922  0.8870 -1.7138
  619MOL0     H83499   0.007   5.057  10.173 -0.4819 -0.3264  1.1851
  619MOL0     H83500  -0.121   4.665  10.326  0.0161 -0.2141  2.0223
  619MOL0     H83501  -0.181   4.820  10.410  1.1960  2.9747 -3.0912
  619MOL0     H83502  -0.399   4.758  10.299  0.5431  0.1570 -3.0636
  619MOL0     H83503  -0.326   4.617  10.223 -0.7837  0.3109 -0.5559
  619MOL0     H83504  -0.290   4.510  10.418  0.5568 -0.9476 -1.8763
  619MOL0     H83505  -0.375   4.641  10.513  0.8906  1.6117 -0.3945
  619MOL0     H83506  -0.506   4.481  10.291 -0.5430  0.6040 -0.3974
  619MOL0     H83507  -0.500   4.432  10.457  0.8141 -0.5552 -1.1861
  619MOL0     H83508  -0.643   4.592  10.523  5.1322  1.5782  0.5523
  619MOL0     H83509  -0.612   4.693  10.370  0.6031  0.1785 -0.8532
  619MOL0     H83510  -0.833   4.593  10.383  3.1508  1.0832  5.3149
  619MOL0     H83511  -0.752   4.526  10.234 -1.0997  1.5970 -1.4085
  619MOL0     H83512  -0.698   4.331  10.408 -0.6435 -0.3801  3.0359
  619MOL0     H83513  -0.826   4.409  10.502 -1.0373 -2.3514  0.3115
  619MOL0     H83514  -0.894   4.214  10.358 -0.6402 -1.0303 -0.1027
  619MOL0     H83515  -0.841   4.300  10.215  2.9640  1.2912  1.6650
  619MOL0     H83516  -1.066   4.463  10.527 -0.8328  1.9116  0.4063
  619MOL0     H83517  -1.216   4.694  10.469  0.3512 -1.0833  0.8721
  619MOL0     H83518  -1.353   4.649  10.375 -0.1708  0.7675  0.3726
  619MOL0     H83519  -1.412   4.612  10.583  1.2558  1.2624 -0.4649
  619MOL0     H83520  -1.272   4.533  10.634 -1.3962  1.2624  0.8303
  619MOL0     H83521  -1.352   4.318  10.521 -0.4076 -0.3210 -2.9295
  619MOL0     H83522  -1.450   4.421  10.402  1.1667 -1.4124 -1.2733
  619MOL0     H83523  -1.583   4.296  10.523 -1.6708  0.6753 -0.1525
  619MOL0     H83524  -1.611   4.453  10.590 -0.5934 -0.3769  2.5772
  619MOL0     H83525  -1.444   4.194  10.919  0.3930  4.1236 -0.2599
  619MOL0     H83526  -1.627   4.053  11.175 -0.8798  1.8411 -0.0446
  619MOL0     H83527  -1.530   3.945  11.060 -1.2928  0.9283 -3.6291
  619MOL0     H83528  -1.462   4.100  11.114 -0.5861  1.1317  0.2032
  619MOL0     H83529  -2.102   4.146  11.265 -1.1648 -0.1950  1.7522
  619MOL0     H83530  -2.261   4.004  11.397 -0.5535 -2.5008 -0.0984
  619MOL0     H83531  -2.380   3.807  11.393 -0.5814 -0.1161 -0.2708
  619MOL0     H83532  -2.295   3.648  11.350  3.5195  2.2134 -0.8755
  619MOL0     H83533  -2.346   3.579  11.592 -0.8731 -1.3443 -0.1360
  619MOL0     H83534  -2.428   3.732  11.610 -3.6880 -1.6833  1.7735
  619MOL0     H83535  -2.530   3.515  11.427 -1.5504 -0.6911  1.4140
  619MOL0     H83536  -2.594   3.684  11.439 -1.2321 -1.1268 -0.6322
  619MOL0     H83537  -2.592   3.463  11.648 -0.1751  1.7559  2.4824
  619MOL0     H83538  -2.641   3.624  11.689  0.2902 -0.8288  1.8052
  619MOL0     H83539  -2.766   3.486  11.451  2.1531 -2.7900  1.1318
  619MOL0     H83540  -2.832   3.625  11.540  1.0348 -0.5644  1.8457
  619MOL0     H83541  -2.823   3.342  11.657 -2.6475 -0.5319  4.0965
  619MOL0     H83542  -2.859   3.485  11.749 -1.0199  0.6516  0.2931
  619MOL0     H83543  -3.011   3.380  11.497 -1.1847 -1.5667  0.7217
  619MOL0     H83544  -3.040   3.539  11.590 -0.2915 -0.2000  0.8868
  619MOL0     H83545  -3.073   3.382  11.793 -0.1257 -0.9940  1.3141
  619MOL0     H83546  -3.058   3.249  11.682 -0.3752 -0.1513  0.3117
  619MOL0     H83547  -1.983   3.681  11.350 -1.3508 -1.0828 -3.8670
  619MOL0     H83548  -1.828   3.835  11.244  0.0472  0.8801 -0.4184
  619MOL0     H83549  -1.934   4.204  10.850  0.5246 -3.8008 -1.2775
  619MOL0     H83550  -1.791   4.336  10.701 -1.1523 -1.9777 -0.2111
  619MOL0     H83551  -0.000   4.630  10.169 -3.3617  2.2257  1.6570
  619MOL0     H83552   0.245   4.629  10.205 -1.1837 -1.6045 -0.3963
  619MOL0     H83553   0.608   4.754  10.026 -1.0548  1.5116  0.0428
  619MOL0     H83554   0.856   4.749   9.961  2.6138  1.1285  0.7671
  619MOL0     H83555   1.094   4.846  10.303 -0.8802  0.3841 -0.8636
  619MOL0     H83556   1.196   4.760  10.184 -1.0568 -1.1546  1.0543
  619MOL0     H83557   1.307   4.938  10.107 -0.8399  2.4846 -2.2123
  619MOL0     H83558   1.305   4.985  10.274  2.5752  0.1593 -1.8212
  619MOL0     H83559   1.105   5.135  10.211 -0.5642 -4.9616  2.4816
  619MOL0     H83560   1.124   5.070  10.049  3.9974  2.0226 -3.5080
  619MOL0     H83561   1.241   5.308  10.091  1.4287  1.6526  0.8394
  619MOL0     H83562   1.346   5.182  10.014  0.2117  0.4545  0.4256
  619MOL0     H83563   1.562   5.271  10.354 -0.7818 -0.7907  0.9757
  619MOL0     H83564   0.935   5.004  10.283 -1.4347  2.4982 -1.4879
  619MOL0     H83565   0.698   5.037  10.327 -0.3121 -1.8628  1.5727
  620MOL0     O83566  10.824   1.082   0.700  0.1367 -0.3122 -0.5236
  620MOL0     C83567  10.855   1.085   0.582 -0.1019 -0.4738  0.9379
  620MOL0     O83568  10.767   1.047   0.480  0.4161  0.2056 -0.6040
  620MOL0     C83569  10.641   1.003   0.505 -0.6866  0.6726  0.1826
  620MOL0     C83570  10.591   0.886   0.433  0.0393 -0.4920  0.0811
  620MOL0     C83571  10.465   0.836   0.452  0.4502  0.4200 -0.4126
  620MOL0     C83572  10.365   0.905   0.547 -0.5419 -0.6194  0.1385
  620MOL0     O83573  10.246   0.856   0.576  0.0102 -0.0587  0.0698
  620MOL0     C83574  10.129   0.942   0.557 -0.6347  0.3731  1.3245
  620MOL0     C83575  10.097   0.926   0.409  0.2299 -0.1255 -0.0394
  620MOL0     C83576   9.948   0.964   0.390  0.0594  0.4340  0.5059
  620MOL0     C83577   9.851   0.845   0.411  0.6853 -0.6106 -0.0257
  620MOL0     C83578   9.800   0.763   0.298 -0.0156 -0.0782 -0.0774
  620MOL0     C83579   9.663   0.705   0.325 -0.4216  0.2382  0.5623
  620MOL0     C83580   9.554   0.810   0.312  0.4482  0.1098  0.0504
  620MOL0     C83581   9.414   0.746   0.327 -0.3037 -0.0812 -0.1218
  620MOL0     N83582   9.313   0.857   0.320  0.0442  0.3032  0.6789
  620MOL0     C83583   9.234   0.881   0.214  0.1791 -0.2195 -0.0889
  620MOL0     C83584   9.168   0.996   0.246  0.4300  0.4252  0.1115
  620MOL0     C83585   9.055   1.060   0.175  1.7608 -0.0946  0.2441
  620MOL0     C83586   8.933   0.984   0.206  0.4002  0.5287  0.1351
  620MOL0     C83587   8.906   0.853   0.129  0.6320 -0.4495  0.7585
  620MOL0     C83588   8.759   0.798   0.140 -0.1769 -0.1833  0.3528
  620MOL0     O83589   8.698   0.826   0.270  0.0084  0.7268 -0.1335
  620MOL0     C83590   8.577   0.766   0.296  1.0059 -0.2922  0.9730
  620MOL0     C83591   8.541   0.760   0.431  0.6082  0.0252 -0.0129
  620MOL0     C83592   8.412   0.706   0.474  0.5955  0.1724 -0.1129
  620MOL0     C83593   8.405   0.692   0.622 -0.6248 -0.2556  0.5490
  620MOL0     C83594   8.319   0.657   0.378  1.0990 -0.1405 -0.1667
  620MOL0     C83595   8.176   0.643   0.401 -0.1616 -0.7263 -0.5871
  620MOL0     O83596   8.093   0.662   0.299  0.3845 -0.8791  0.3688
  620MOL0     C83597   7.957   0.646   0.307  0.5916  0.2139  0.3560
  620MOL0     C83598   7.874   0.735   0.234  0.0054 -0.2555 -0.1198
  620MOL0     C83599   7.733   0.729   0.239 -0.4010  0.0404 -0.3221
  620MOL0     C83600   7.669   0.635   0.326 -0.4219 -0.0898 -0.3654
  620MOL0     O83601   7.533   0.637   0.329  0.5934  0.2337 -0.5468
  620MOL0     C83602   7.460   0.541   0.419  0.6720  0.5531 -0.0568
  620MOL0     C83603   7.309   0.577   0.420 -0.3585  0.7854  0.3350
  620MOL0     C83604   7.283   0.687   0.521 -0.3125  0.2922  0.0601
  620MOL0     C83605   7.142   0.734   0.522  0.9968  0.2072 -0.4311
  620MOL0     C83606   7.116   0.868   0.608  0.7650  0.4020  0.4227
  620MOL0     C83607   6.966   0.885   0.626  0.7819 -0.2719 -1.0041
  620MOL0     C83608   6.888   0.899   0.500  0.0978 -0.3160 -0.4138
  620MOL0     C83609   6.755   0.958   0.551  0.3364 -0.0834  0.5255
  620MOL0    Cl83610   6.633   0.955   0.420  0.4249  0.3198  0.1262
  620MOL0     C83611   7.748   0.548   0.404 -0.5789 -0.5417 -0.2431
  620MOL0     C83612   7.888   0.551   0.392 -1.1233 -0.8496  0.2226
  620MOL0     O83613   8.138   0.620   0.515  0.2417  0.2252  0.0336
  620MOL0     C83614   8.364   0.654   0.248 -0.1268  0.7619  0.5877
  620MOL0     C83615   8.489   0.693   0.202  0.4363 -1.1365 -0.3991
  620MOL0     N83616   9.223   1.047   0.361  0.4273 -0.3147 -0.4370
  620MOL0     N83617   9.306   0.958   0.413  0.2971  0.4316 -0.3206
  620MOL0     C83618  10.419   1.015   0.621  0.4747  0.0510 -0.3235
  620MOL0     C83619  10.550   1.057   0.591  0.0610 -0.5354 -0.6206
  620MOL0     C83620  10.982   1.128   0.547  0.0941 -0.4062 -0.7379
  620MOL0     C83621  11.084   1.136   0.639  1.3380 -0.6964 -0.2805
  620MOL0     C83622  11.215   1.182   0.612  0.0069  0.3502 -0.3760
  620MOL0     C83623  11.252   1.231   0.490 -0.5686  0.7583 -0.6527
  620MOL0     O83624  11.374   1.297   0.481  0.1136  0.3528 -0.2906
  620MOL0     C83625  11.439   1.297   0.360 -0.9060 -0.4604  0.6135
  620MOL0     C83626  11.573   1.223   0.375  0.6130  0.0937  0.5321
  620MOL0     C83627  11.673   1.291   0.463 -0.0978 -0.2062  0.4014
  620MOL0     C83628  11.802   1.206   0.464  0.0283 -0.5279  0.5615
  620MOL0     C83629  11.877   1.256   0.349  1.3344 -0.1934  0.2784
  620MOL0     C83630  11.937   1.280   0.257 -0.5462  0.2422 -0.3040
  620MOL0     C83631  11.154   1.241   0.391  0.3254  0.6141 -0.3808
  620MOL0     C83632  11.018   1.201   0.425 -0.8599  0.3890 -0.9086
  620MOL0     H83633  10.655   0.823   0.371 -2.3540 -1.7122 -1.3143
  620MOL0     H83634  10.437   0.746   0.399 -1.5544  0.6727  0.1344
  620MOL0     H83635  10.051   0.894   0.618  0.3398 -2.5872  0.4315
  620MOL0     H83636  10.127   1.048   0.584  0.7154  0.3170  1.7010
  620MOL0     H83637  10.155   1.003   0.358  1.5325 -1.2163 -0.2547
  620MOL0     H83638  10.127   0.827   0.372  0.3364  0.7525 -2.4827
  620MOL0     H83639   9.923   1.051   0.451 -0.5995  0.6137  0.0023
  620MOL0     H83640   9.925   0.992   0.286 -2.5295  1.1285  1.1774
  620MOL0     H83641   9.895   0.783   0.490  3.5562 -1.3462 -2.0090
  620MOL0     H83642   9.769   0.887   0.470  0.3720 -0.3393 -0.6504
  620MOL0     H83643   9.782   0.821   0.206 -3.4281 -0.9363 -0.1006
  620MOL0     H83644   9.864   0.677   0.277  1.0121  1.0429 -1.8194
  620MOL0     H83645   9.649   0.617   0.260  0.3560  0.5504 -0.0378
  620MOL0     H83646   9.653   0.665   0.426 -0.6397 -1.6368 -0.1648
  620MOL0     H83647   9.570   0.876   0.397 -0.9464 -0.1085  0.5217
  620MOL0     H83648   9.561   0.862   0.217  0.1756 -1.7772 -1.0534
  620MOL0     H83649   9.402   0.688   0.419 -2.0103  0.6038  0.1220
  620MOL0     H83650   9.398   0.681   0.240 -0.3466  1.4575 -1.3084
  620MOL0     H83651   9.229   0.826   0.121  2.0643 -0.3549 -0.1633
  620MOL0     H83652   9.054   1.167   0.200 -0.4055  0.3921 -1.5774
  620MOL0     H83653   9.073   1.041   0.069  1.4479 -1.3834  0.4101
  620MOL0     H83654   8.849   1.053   0.196  0.7093  0.9173  0.1804
  620MOL0     H83655   8.938   0.954   0.311 -0.2011  0.8095  0.2477
  620MOL0     H83656   8.976   0.772   0.154  0.2101 -0.7267  1.0635
  620MOL0     H83657   8.918   0.878   0.023 -1.1758  4.4154  1.4511
  620MOL0     H83658   8.756   0.691   0.121 -3.1219  0.3032 -3.2448
  620MOL0     H83659   8.713   0.849   0.055  0.4243 -0.3368 -0.0714
  620MOL0     H83660   8.609   0.807   0.501  0.3583 -1.7983  1.5472
  620MOL0     H83661   8.348   0.608   0.662  0.7496  0.0804  3.4899
  620MOL0     H83662   8.507   0.695   0.660 -1.0152  0.7753  1.5922
  620MOL0     H83663   8.362   0.786   0.658  1.8109  1.1532  0.0141
  620MOL0     H83664   7.916   0.814   0.174  3.3148 -1.4269  0.4491
  620MOL0     H83665   7.667   0.793   0.182  1.4261  1.2714 -1.1426
  620MOL0     H83666   7.472   0.439   0.382  3.1151  0.2919  1.2603
  620MOL0     H83667   7.495   0.545   0.522 -3.5187  0.9182  1.5325
  620MOL0     H83668   7.278   0.621   0.325 -0.1926  0.9145  0.3399
  620MOL0     H83669   7.248   0.486   0.426 -0.8475  1.1872  2.2749
  620MOL0     H83670   7.345   0.775   0.499 -0.6014  0.0048 -2.0639
  620MOL0     H83671   7.309   0.649   0.620  2.1881 -1.2571 -1.0678
  620MOL0     H83672   7.108   0.740   0.418  2.2757 -2.2072 -1.0772
  620MOL0     H83673   7.082   0.650   0.558 -0.5188  1.3436 -0.2370
  620MOL0     H83674   7.163   0.953   0.558  4.1044 -1.3419  0.2890
  620MOL0     H83675   7.169   0.856   0.703  3.4728  1.6962 -0.8225
  620MOL0     H83676   6.931   0.794   0.677 -1.7329 -0.0703 -2.2127
  620MOL0     H83677   6.958   0.976   0.685  0.7677 -0.4076 -0.7976
  620MOL0     H83678   6.873   0.807   0.443 -0.0163  0.3097 -1.4114
  620MOL0     H83679   6.950   0.969   0.444  0.2422 -1.8942 -2.3629
  620MOL0     H83680   6.783   1.057   0.587  0.0835  0.6952 -1.2966
  620MOL0     H83681   6.714   0.891   0.628 -0.5876  1.9074  1.8500
  620MOL0     H83682   7.707   0.472   0.469  0.8547 -1.2470 -0.1308
  620MOL0     H83683   7.949   0.483   0.450  2.1103  1.6847  0.0565
  620MOL0     H83684   8.285   0.628   0.178  0.6441  1.0862 -0.4072
  620MOL0     H83685   8.514   0.668   0.100 -0.4752  0.8291 -1.1588
  620MOL0     H83686  10.368   1.053   0.709 -0.1247 -0.4213 -0.4532
  620MOL0     H83687  10.587   1.138   0.653  2.2168  2.3440 -5.1820
  620MOL0     H83688  11.064   1.090   0.735 -3.0918 -1.8976 -1.5530
  620MOL0     H83689  11.280   1.189   0.698 -1.9150  0.5262  1.1425
  620MOL0     H83690  11.384   1.249   0.278  0.2244 -2.8151  1.1445
  620MOL0     H83691  11.439   1.404   0.336 -0.7796 -0.3236  1.2002
  620MOL0     H83692  11.622   1.221   0.277  2.3239  2.1885  1.2809
  620MOL0     H83693  11.561   1.123   0.418  2.4945  0.4617  2.0453
  620MOL0     H83694  11.651   1.289   0.570  0.8306 -1.1562  0.5924
  620MOL0     H83695  11.686   1.392   0.424 -1.1568 -0.1231  0.2438
  620MOL0     H83696  11.787   1.098   0.454 -0.8352 -0.2526 -1.8742
  620MOL0     H83697  11.863   1.221   0.553  0.4868  1.1770  0.0103
  620MOL0     H83698  11.994   1.321   0.176 -0.4906  1.2970  0.2496
  620MOL0     H83699  11.166   1.272   0.288 -0.0519 -1.7503 -1.2049
  620MOL0     H83700  10.943   1.201   0.347  0.3447 -3.1883 -2.2718
  621MOL0     O83701   3.974   6.891   3.896  0.9387 -0.0053  0.1976
  621MOL0     C83702   4.035   6.997   3.909 -1.3256  0.6799  0.7050
  621MOL0     O83703   4.132   7.043   3.812  0.1378 -0.2994 -0.3165
  621MOL0     C83704   4.160   6.964   3.699  1.2028  0.0655  0.2051
  621MOL0     C83705   4.301   6.957   3.659  0.1989 -0.1473  0.2094
  621MOL0     C83706   4.333   6.888   3.539 -1.2424  0.6160 -0.7544
  621MOL0     C83707   4.236   6.840   3.455 -0.2964 -0.1930  0.1996
  621MOL0     O83708   4.273   6.767   3.342 -0.0262  1.4361  0.0649
  621MOL0     C83709   4.183   6.786   3.227  0.3141  0.1241  0.5888
  621MOL0     C83710   4.268   6.789   3.097 -0.0189 -0.0451  0.0109
  621MOL0     C83711   4.179   6.821   2.972 -0.0384  0.5284  0.2685
  621MOL0     C83712   4.265   6.825   2.846  0.2867 -0.2827  0.4439
  621MOL0     C83713   4.186   6.875   2.723  0.1699 -1.3098  1.1551
  621MOL0     C83714   4.074   6.776   2.689  0.4950 -0.0252 -0.1271
  621MOL0     C83715   4.022   6.808   2.549 -0.1559  0.5648  0.6748
  621MOL0     C83716   3.963   6.949   2.519  0.6520  0.3900 -0.4098
  621MOL0     N83717   3.848   6.979   2.600  0.0885  0.4247 -0.4043
  621MOL0     C83718   3.849   7.032   2.732  0.1696  0.2642  0.1193
  621MOL0     C83719   3.719   7.041   2.773  0.2437  0.1970  1.0827
  621MOL0     C83720   3.669   7.082   2.909 -0.2091  0.2020  0.5083
  621MOL0     C83721   3.770   7.036   3.017  1.1659  0.1811 -0.0457
  621MOL0     C83722   3.730   7.060   3.166 -0.3583  0.0105  0.3210
  621MOL0     C83723   3.799   6.975   3.266 -1.0136 -0.3132 -0.1978
  621MOL0     O83724   3.756   7.027   3.392 -0.8798  0.6423  0.3275
  621MOL0     C83725   3.682   6.939   3.468 -1.0809 -0.4218 -0.4423
  621MOL0     C83726   3.682   6.972   3.610  0.1029 -0.2252  0.3302
  621MOL0     C83727   3.600   6.905   3.711  0.5304 -1.0241  0.1110
  621MOL0     C83728   3.618   6.941   3.857 -0.4117 -0.2167  0.6626
  621MOL0     C83729   3.511   6.812   3.658 -0.0068 -0.0539  0.1686
  621MOL0     C83730   3.413   6.739   3.743  0.4639 -0.3437  0.5863
  621MOL0     O83731   3.426   6.604   3.720  0.7614  0.0181 -0.7996
  621MOL0     C83732   3.336   6.507   3.771  0.2496 -0.0902  0.0754
  621MOL0     C83733   3.366   6.372   3.731  0.5454  0.1498  0.7794
  621MOL0     C83734   3.290   6.267   3.772  0.5593 -0.1003  0.6743
  621MOL0     C83735   3.169   6.285   3.850 -0.0770 -0.3738 -0.8065
  621MOL0     O83736   3.110   6.178   3.913 -0.2001  0.5679 -0.0955
  621MOL0     C83737   2.987   6.202   3.979  0.0541 -0.6767  0.8228
  621MOL0     C83738   2.918   6.071   4.015 -0.3900 -0.1782  0.0733
  621MOL0     C83739   2.797   6.100   4.109 -0.2065 -0.3247  0.5372
  621MOL0     C83740   2.753   5.972   4.178  0.4167  0.5504 -0.1101
  621MOL0     C83741   2.640   5.984   4.280  0.1036 -0.2169 -0.0762
  621MOL0     C83742   2.613   5.860   4.338  0.6826  0.9743 -0.9830
  621MOL0     C83743   2.494   5.863   4.433  0.2887  0.0102  0.4452
  621MOL0     C83744   2.462   5.723   4.494  0.1966  0.5249  0.2476
  621MOL0    Cl83745   2.599   5.667   4.598  0.1907 -0.3680 -0.1757
  621MOL0     C83746   3.134   6.422   3.876  0.2168 -0.1708  0.3303
  621MOL0     C83747   3.215   6.529   3.833  0.1586 -0.1378  0.2251
  621MOL0     O83748   3.341   6.792   3.836 -0.3582 -0.0453 -0.1995
  621MOL0     C83749   3.515   6.778   3.519 -0.2481  0.2122  0.4758
  621MOL0     C83750   3.597   6.841   3.426  0.0901 -0.4288  0.6525
  621MOL0     N83751   3.642   6.992   2.669  0.1274 -0.2422 -0.0360
  621MOL0     N83752   3.712   6.970   2.567 -0.3484 -0.2641 -0.2899
  621MOL0     C83753   4.100   6.850   3.493  0.8563  0.0815 -0.6959
  621MOL0     C83754   4.059   6.910   3.616 -0.2799  0.0383  0.8267
  621MOL0     C83755   4.035   7.048   4.044 -0.4929  0.1447 -0.2213
  621MOL0     C83756   4.133   7.146   4.085 -0.2333 -0.3625 -0.7563
  621MOL0     C83757   4.104   7.231   4.189 -0.0536  0.3618  0.4468
  621MOL0     C83758   3.983   7.220   4.271 -0.4720  0.7891  0.4996
  621MOL0     O83759   3.946   7.283   4.386 -0.0227 -0.4103  0.1101
  621MOL0     C83760   4.005   7.415   4.416 -0.2973  0.4059 -0.3730
  621MOL0     C83761   4.058   7.421   4.558  0.1879  0.4701 -0.1568
  621MOL0     C83762   3.959   7.389   4.671 -0.6951  0.3794 -0.2272
  621MOL0     C83763   4.013   7.425   4.803 -0.2305  0.4068  0.5447
  621MOL0     C83764   4.148   7.376   4.829  0.4990 -0.0237  0.4143
  621MOL0     C83765   4.250   7.311   4.840 -0.1736 -0.2693 -0.5934
  621MOL0     C83766   3.897   7.109   4.243  0.6946 -0.5832 -0.0975
  621MOL0     C83767   3.923   7.033   4.130  0.0157 -0.3495 -0.5357
  621MOL0     H83768   4.378   6.995   3.726  1.8360  0.2903 -1.8084
  621MOL0     H83769   4.435   6.857   3.519 -0.4969  0.2974  2.7966
  621MOL0     H83770   4.104   6.710   3.233  0.3039  0.1005  0.1705
  621MOL0     H83771   4.140   6.887   3.231 -1.1646  0.0289 -4.7991
  621MOL0     H83772   4.349   6.859   3.121 -0.9350  1.8178 -1.9317
  621MOL0     H83773   4.326   6.697   3.094 -1.2731 -0.9892  2.3630
  621MOL0     H83774   4.096   6.750   2.970  0.1881  0.1846  1.9874
  621MOL0     H83775   4.131   6.918   2.984 -3.3153 -0.5851 -2.2960
  621MOL0     H83776   4.355   6.887   2.855  1.2950 -1.7657  1.0759
  621MOL0     H83777   4.311   6.728   2.827 -0.1017 -0.7002  1.5824
  621MOL0     H83778   4.133   6.969   2.740 -0.7425 -1.9400  1.8877
  621MOL0     H83779   4.248   6.882   2.633 -3.0488  1.4938 -1.0797
  621MOL0     H83780   4.119   6.678   2.676 -0.3714 -0.5594  0.7761
  621MOL0     H83781   3.982   6.787   2.747 -0.1245  1.9419 -1.3712
  621MOL0     H83782   4.108   6.782   2.488  1.0883 -0.2305  2.6918
  621MOL0     H83783   3.942   6.737   2.525 -1.9368  2.2899  1.2225
  621MOL0     H83784   3.935   6.948   2.413 -1.1098 -2.7660 -0.0261
  621MOL0     H83785   4.048   7.018   2.528  3.1882 -2.5654  0.2061
  621MOL0     H83786   3.934   7.056   2.796 -0.3433  1.0531  0.5292
  621MOL0     H83787   3.638   7.186   2.897 -1.3506 -0.3911 -2.8284
  621MOL0     H83788   3.578   7.023   2.919  0.4310 -1.1114 -0.9714
  621MOL0     H83789   3.859   7.094   2.993 -0.1217  1.1434 -2.9699
  621MOL0     H83790   3.785   6.928   3.005 -1.2117 -0.2543  0.2732
  621MOL0     H83791   3.625   7.039   3.186 -0.9164  0.3033 -1.9911
  621MOL0     H83792   3.741   7.166   3.191  0.9700 -0.6701  3.0634
  621MOL0     H83793   3.905   7.000   3.256 -1.3481  2.5666  1.9756
  621MOL0     H83794   3.782   6.868   3.253  0.6684 -1.3337  4.2070
  621MOL0     H83795   3.756   7.044   3.644 -0.5643  0.1645  1.0002
  621MOL0     H83796   3.606   6.858   3.926  0.4616  1.2189  2.6524
  621MOL0     H83797   3.721   6.974   3.876 -0.1003 -0.3869 -0.5925
  621MOL0     H83798   3.544   7.012   3.896  0.2735  0.6235  0.4802
  621MOL0     H83799   3.456   6.359   3.671  3.0376  0.6198  4.1395
  621MOL0     H83800   3.328   6.172   3.734  2.7101  1.2646 -0.7524
  621MOL0     H83801   3.009   6.257   4.071 -1.3568 -0.4998  1.0783
  621MOL0     H83802   2.914   6.263   3.925  0.5936 -1.1220 -0.4420
  621MOL0     H83803   2.882   6.020   3.925  0.0304  1.3107 -0.9769
  621MOL0     H83804   2.992   6.005   4.062 -1.0977 -1.0245  0.0337
  621MOL0     H83805   2.718   6.145   4.048  0.6172 -1.1734 -1.2473
  621MOL0     H83806   2.822   6.177   4.181 -1.8234  1.3786 -0.6381
  621MOL0     H83807   2.724   5.900   4.101 -0.8069  3.5549 -2.7305
  621MOL0     H83808   2.834   5.936   4.241  0.2416 -0.4954 -0.4627
  621MOL0     H83809   2.554   6.021   4.223 -0.4773  0.0868  0.9640
  621MOL0     H83810   2.668   6.055   4.358 -1.2212  0.8272 -0.5268
  621MOL0     H83811   2.587   5.794   4.255 -1.6724 -0.2324  0.6433
  621MOL0     H83812   2.699   5.825   4.396  0.2396  2.6810  0.7984
  621MOL0     H83813   2.409   5.897   4.374  1.1067  1.7721  0.2255
  621MOL0     H83814   2.488   5.930   4.519  1.1752  0.1064  0.4417
  621MOL0     H83815   2.443   5.649   4.415  2.5097  1.7794 -1.6343
  621MOL0     H83816   2.373   5.744   4.553  0.1046 -2.5326  1.3825
  621MOL0     H83817   3.041   6.437   3.931 -0.2752  0.0379 -0.5512
  621MOL0     H83818   3.176   6.626   3.862 -0.0842 -0.3798  0.7299
  621MOL0     H83819   3.455   6.702   3.469  0.0389  2.0152 -2.8584
  621MOL0     H83820   3.583   6.815   3.321 -1.3882  1.7125  0.2445
  621MOL0     H83821   4.022   6.804   3.432 -1.1216 -0.9902  2.3810
  621MOL0     H83822   3.955   6.923   3.643 -0.4441  1.3634 -0.3306
  621MOL0     H83823   4.223   7.169   4.028  0.0958 -1.8028 -0.8631
  621MOL0     H83824   4.179   7.305   4.213  2.7268 -2.4127  1.0350
  621MOL0     H83825   4.099   7.437   4.364  0.7184  1.4930  1.8329
  621MOL0     H83826   3.929   7.493   4.410 -1.5089 -0.6753  0.3667
  621MOL0     H83827   4.112   7.516   4.570  0.9738 -0.1449  1.5718
  621MOL0     H83828   4.141   7.350   4.562  1.7305  2.1912 -0.4094
  621MOL0     H83829   3.920   7.286   4.669  0.9038 -0.3277  1.7028
  621MOL0     H83830   3.876   7.458   4.656 -2.1654 -1.7095 -2.4399
  621MOL0     H83831   3.947   7.387   4.882 -0.4388 -2.8551 -1.0079
  621MOL0     H83832   4.019   7.534   4.805 -0.6112  0.4205  1.3122
  621MOL0     H83833   4.339   7.253   4.853  0.3980  0.9865  1.6884
  621MOL0     H83834   3.810   7.085   4.304  1.4196 -0.5653  0.9702
  621MOL0     H83835   3.843   6.964   4.106 -0.9763  1.2302 -2.0348
  622MOL0     O83836   2.737   9.566   2.406  0.6662  0.5768  0.2979
  622MOL0     C83837   2.611   9.556   2.409  0.1354 -0.2378 -0.0079
  622MOL0     O83838   2.530   9.664   2.456 -0.1575  0.1143 -0.3108
  622MOL0     C83839   2.598   9.785   2.464  0.6134  0.8680  0.1842
  622MOL0     C83840   2.608   9.861   2.343 -0.3288 -0.0597 -0.3957
  622MOL0     C83841   2.676   9.982   2.357 -0.8777  0.6477  0.0590
  622MOL0     C83842   2.740  10.024   2.477  0.9697 -0.6461  0.0095
  622MOL0     O83843   2.840  10.120   2.478 -1.1423  0.0838  0.3692
  622MOL0     C83844   2.898  10.153   2.351 -0.2678 -0.4494 -0.3934
  622MOL0     C83845   3.028  10.232   2.370 -0.2398 -0.2009 -0.6772
  622MOL0     C83846   3.009  10.367   2.423 -0.3448 -1.3051  0.0539
  622MOL0     C83847   3.151  10.424   2.457  0.4322 -0.4343 -0.0733
  622MOL0     C83848   3.145  10.572   2.483 -0.3604  0.1224  0.2150
  622MOL0     C83849   3.079  10.605   2.619 -0.1194 -0.3956  0.7438
  622MOL0     C83850   3.098  10.753   2.661  0.5258  0.0274  0.1320
  622MOL0     C83851   2.972  10.843   2.675 -1.2122 -0.9526 -0.5604
  622MOL0     N83852   2.893  10.818   2.790 -0.4551  0.3096 -0.7347
  622MOL0     C83853   2.929  10.875   2.917  0.1741  0.1486 -0.2121
  622MOL0     C83854   2.825  10.825   2.987  0.3368 -0.5078  0.0449
  622MOL0     C83855   2.810  10.844   3.136 -0.0782 -0.1650 -0.1317
  622MOL0     C83856   2.673  10.814   3.191 -0.2435 -0.3074 -0.2635
  622MOL0     C83857   2.647  10.677   3.247  0.2150 -0.8857 -0.1094
  622MOL0     C83858   2.642  10.564   3.141 -0.2084  0.1625 -0.0153
  622MOL0     O83859   2.584  10.448   3.203  0.4998  0.0373 -0.1954
  622MOL0     C83860   2.458  10.404   3.172  0.1945 -0.9651 -0.4854
  622MOL0     C83861   2.347  10.497   3.142 -0.6956 -0.5055  0.1491
  622MOL0     C83862   2.221  10.442   3.108  0.4211 -1.2884 -0.7089
  622MOL0     C83863   2.124  10.546   3.070 -0.2178 -0.6847  0.6317
  622MOL0     C83864   2.197  10.308   3.109  1.0762  0.3183  0.2140
  622MOL0     C83865   2.070  10.250   3.070  0.6361  0.4061 -0.5372
  622MOL0     O83866   1.995  10.304   2.965 -0.2225 -0.4143 -0.2745
  622MOL0     C83867   1.865  10.278   2.982 -0.3851  0.3184  0.5284
  622MOL0     C83868   1.808  10.155   2.938  0.3409 -0.1047  0.4871
  622MOL0     C83869   1.672  10.122   2.975 -0.0284  0.0008  0.1986
  622MOL0     C83870   1.591  10.222   3.027 -0.4760  0.1257 -0.5524
  622MOL0     O83871   1.458  10.184   3.041 -0.0737 -0.2818 -0.3192
  622MOL0     C83872   1.370  10.276   3.112 -0.6955  0.3609  0.5228
  622MOL0     C83873   1.236  10.255   3.045  0.0961 -0.0907  0.2445
  622MOL0     C83874   1.219  10.327   2.910 -0.4402 -1.1188  1.3427
  622MOL0     C83875   1.341  10.318   2.815  0.6429 -0.2586 -0.6589
  622MOL0     C83876   1.295  10.375   2.676 -0.5867 -0.0950 -0.1181
  622MOL0     C83877   1.398  10.334   2.577  0.2747 -0.0715  0.0173
  622MOL0     C83878   1.341  10.326   2.434  0.0405  0.6216  0.1507
  622MOL0     C83879   1.453  10.316   2.326 -1.0249  0.7214 -0.3646
  622MOL0    Cl83880   1.550  10.169   2.335 -0.0789  0.1397 -0.2627
  622MOL0     C83881   1.650  10.348   3.053 -1.3056  0.0384 -0.7211
  622MOL0     C83882   1.781  10.381   3.022  0.3675  0.1540  0.9563
  622MOL0     O83883   2.029  10.163   3.141  0.1163 -0.0039 -0.0486
  622MOL0     C83884   2.294  10.217   3.147 -0.7535 -0.0603 -0.0760
  622MOL0     C83885   2.426  10.267   3.168  0.8679 -0.2619 -0.6061
  622MOL0     N83886   2.741  10.751   2.907 -0.5129  0.4091 -0.7562
  622MOL0     N83887   2.783  10.750   2.780 -0.8776  0.9163 -0.5593
  622MOL0     C83888   2.717   9.945   2.592 -0.9507  0.3584  0.5114
  622MOL0     C83889   2.650   9.830   2.581 -0.0301 -0.1266 -0.0557
  622MOL0     C83890   2.536   9.438   2.357  0.5258  0.1381 -0.0441
  622MOL0     C83891   2.605   9.334   2.296  0.4312  0.0023  0.3815
  622MOL0     C83892   2.536   9.237   2.228 -0.7415 -0.6125  0.1351
  622MOL0     C83893   2.396   9.230   2.230  0.5953 -0.3575  0.0543
  622MOL0     O83894   2.344   9.114   2.176  0.1581  0.1442  0.0676
  622MOL0     C83895   2.203   9.104   2.191 -0.4515 -0.3241 -0.0162
  622MOL0     C83896   2.149   8.985   2.112 -0.1449 -0.2034 -0.5263
  622MOL0     C83897   2.003   8.960   2.136 -1.1865  0.0380  0.2947
  622MOL0     C83898   1.937   8.850   2.050 -0.0884  0.1996 -0.0281
  622MOL0     C83899   1.793   8.875   2.024 -0.0242 -0.0289 -0.0225
  622MOL0     C83900   1.674   8.902   2.022 -0.4377  0.2406  0.0046
  622MOL0     C83901   2.324   9.333   2.302  0.0662 -0.9718  0.5095
  622MOL0     C83902   2.396   9.433   2.363  0.0459  0.0899  0.5261
  622MOL0     H83903   2.564   9.826   2.250 -4.3032  0.4541  1.1113
  622MOL0     H83904   2.693  10.035   2.263  0.0647  1.5569  0.7228
  622MOL0     H83905   2.913  10.064   2.290  2.0191 -0.7537  0.5156
  622MOL0     H83906   2.822  10.214   2.301  1.4199  1.5146 -0.6992
  622MOL0     H83907   3.095  10.180   2.440 -0.2299 -0.5050 -0.9083
  622MOL0     H83908   3.089  10.234   2.279  0.3491 -1.3775 -0.3318
  622MOL0     H83909   2.959  10.428   2.347 -0.5191  0.5403  1.5687
  622MOL0     H83910   2.948  10.380   2.513  0.5239 -0.9703  0.6057
  622MOL0     H83911   3.194  10.371   2.542  0.7673 -0.0550 -0.0000
  622MOL0     H83912   3.218  10.402   2.373 -0.3774  0.6112 -1.0442
  622MOL0     H83913   3.245  10.616   2.482 -1.1481  2.0033 -0.9837
  622MOL0     H83914   3.091  10.635   2.412 -2.1237 -0.7648  0.6887
  622MOL0     H83915   2.973  10.579   2.619 -0.2133 -0.0232  0.8435
  622MOL0     H83916   3.136  10.549   2.694  1.7906  1.1591  0.5287
  622MOL0     H83917   3.147  10.747   2.759  0.8758 -1.6099 -0.1152
  622MOL0     H83918   3.162  10.799   2.586 -0.5430 -1.0852 -1.5278
  622MOL0     H83919   2.901  10.836   2.592  0.5583  0.9817 -2.3911
  622MOL0     H83920   3.005  10.948   2.678  0.1961 -1.3886  1.6249
  622MOL0     H83921   3.021  10.923   2.948  0.3150  1.7643 -2.8652
  622MOL0     H83922   2.884  10.786   3.191  0.2684 -2.4512 -2.7919
  622MOL0     H83923   2.829  10.951   3.145 -0.0328 -0.2196  0.4799
  622MOL0     H83924   2.589  10.849   3.130  0.6590  1.4103 -0.5696
  622MOL0     H83925   2.670  10.886   3.273  3.3960  1.4218 -1.4699
  622MOL0     H83926   2.544  10.690   3.282  0.8885 -0.5489  1.8198
  622MOL0     H83927   2.720  10.657   3.326 -0.5259 -0.6240  0.6617
  622MOL0     H83928   2.744  10.538   3.110 -0.5637  0.9068 -1.9295
  622MOL0     H83929   2.589  10.594   3.051 -0.8634 -0.7633  0.0468
  622MOL0     H83930   2.367  10.602   3.158 -3.2336  0.3630 -1.6758
  622MOL0     H83931   2.132  10.559   2.961 -0.6142 -0.0061  0.6817
  622MOL0     H83932   2.023  10.508   3.087 -0.1537 -1.4305 -0.5087
  622MOL0     H83933   2.132  10.643   3.119 -4.1932  1.0092 -1.5686
  622MOL0     H83934   1.879  10.083   2.900 -0.5683 -1.1203  0.6658
  622MOL0     H83935   1.626  10.030   2.939  0.4544  0.8432 -2.8253
  622MOL0     H83936   1.365  10.251   3.218  1.7445 -0.1657  0.5778
  622MOL0     H83937   1.396  10.382   3.102  1.8823 -0.0654  1.8480
  622MOL0     H83938   1.226  10.148   3.023  1.0371  0.0340 -0.8830
  622MOL0     H83939   1.149  10.284   3.104 -1.4183  0.2007 -1.9941
  622MOL0     H83940   1.194  10.433   2.923 -0.7589 -0.7924 -1.3673
  622MOL0     H83941   1.133  10.277   2.864 -1.4607  0.7805  1.0616
  622MOL0     H83942   1.421  10.383   2.852 -0.6349  0.1530  1.5911
  622MOL0     H83943   1.377  10.216   2.804  1.3960 -0.1144  0.3384
  622MOL0     H83944   1.270  10.481   2.682 -0.8163 -0.1837  0.6143
  622MOL0     H83945   1.203  10.330   2.637 -1.0541  1.7711 -1.2502
  622MOL0     H83946   1.481  10.404   2.585 -0.5105  1.0239 -1.1818
  622MOL0     H83947   1.436  10.232   2.593 -0.1688 -0.1250  0.7489
  622MOL0     H83948   1.293  10.422   2.411 -1.0873  1.3991  4.7720
  622MOL0     H83949   1.277  10.238   2.425 -0.9150  1.0621  2.0810
  622MOL0     H83950   1.525  10.398   2.334  3.8501 -2.9739 -1.5283
  622MOL0     H83951   1.421  10.316   2.221 -3.4977 -3.0864  0.2114
  622MOL0     H83952   1.587  10.427   3.094  2.7053  1.9535  2.5462
  622MOL0     H83953   1.815  10.484   3.023  0.0668  0.2607  0.3088
  622MOL0     H83954   2.268  10.111   3.154  0.9481 -0.4983 -0.0494
  622MOL0     H83955   2.509  10.200   3.189  0.5528 -0.6688 -0.6435
  622MOL0     H83956   2.766   9.976   2.684  0.2370  3.1408 -0.9174
  622MOL0     H83957   2.657   9.776   2.674  1.2996 -0.9863 -0.6216
  622MOL0     H83958   2.713   9.343   2.292  1.1925 -4.4276  3.4951
  622MOL0     H83959   2.595   9.157   2.186  1.1019 -0.1923  1.7608
  622MOL0     H83960   2.181   9.090   2.297 -0.2054  1.3191  0.2849
  622MOL0     H83961   2.154   9.197   2.161  1.1183  2.0107  3.8377
  622MOL0     H83962   2.203   8.898   2.151  0.5652  0.7456  0.6730
  622MOL0     H83963   2.163   9.011   2.007  2.5073  0.7010 -0.0191
  622MOL0     H83964   1.955   9.057   2.122  0.7251  1.0087  0.0426
  622MOL0     H83965   1.996   8.933   2.242  1.2229  0.2352  0.5589
  622MOL0     H83966   1.954   8.761   2.111  0.6385  0.5292  0.2577
  622MOL0     H83967   1.995   8.843   1.958 -0.9069  3.9771 -0.9879
  622MOL0     H83968   1.570   8.924   2.035 -0.1524 -0.0984  4.4717
  622MOL0     H83969   2.216   9.332   2.300  0.0691 -1.9108 -1.0934
  622MOL0     H83970   2.338   9.505   2.419  0.5117  0.9523 -0.0854
  623MOL0     O83971   0.223   0.429   0.890  0.4071 -0.4544  0.4239
  623MOL0     C83972   0.289   0.439   0.990 -0.2731 -1.0619 -0.4959
  623MOL0     O83973   0.256   0.501   1.107 -0.4865 -0.1616  0.5514
  623MOL0     C83974   0.138   0.569   1.117  0.1518 -0.3190  0.1316
  623MOL0     C83975   0.014   0.501   1.104  0.2870 -0.3901  0.4554
  623MOL0     C83976  -0.107   0.576   1.143 -0.1921  0.5817 -0.2962
  623MOL0     C83977  -0.103   0.707   1.196  0.5044  0.0015 -0.0092
  623MOL0     O83978  -0.219   0.775   1.224  0.8116  0.5523  0.3311
  623MOL0     C83979  -0.223   0.911   1.188  0.3116  0.0610 -0.5549
  623MOL0     C83980  -0.366   0.956   1.156 -0.3896 -0.4555  0.1032
  623MOL0     C83981  -0.453   0.947   1.280  0.1014 -0.0680 -0.6417
  623MOL0     C83982  -0.599   1.011   1.259  0.4460 -0.3807  0.3183
  623MOL0     C83983  -0.587   1.165   1.233 -0.3286  0.2017  0.4348
  623MOL0     C83984  -0.721   1.228   1.182 -0.6024 -0.6435 -0.0206
  623MOL0     C83985  -0.832   1.216   1.287 -0.6453  0.2699 -0.7788
  623MOL0     C83986  -0.947   1.296   1.237  0.2121  0.0096  0.2659
  623MOL0     N83987  -1.060   1.317   1.326 -0.3918  0.2198  0.1605
  623MOL0     C83988  -1.058   1.311   1.466  1.0483 -1.2099  0.3636
  623MOL0     C83989  -1.166   1.390   1.497 -1.1478  0.2526 -0.3958
  623MOL0     C83990  -1.224   1.403   1.630 -0.6896 -0.3334 -0.4667
  623MOL0     C83991  -1.312   1.281   1.670 -0.3300  0.8730 -0.2819
  623MOL0     C83992  -1.448   1.289   1.598  0.0906  0.3858 -0.2407
  623MOL0     C83993  -1.565   1.201   1.653 -0.2568 -0.3131  0.5553
  623MOL0     O83994  -1.681   1.268   1.600  0.5215  0.6221  0.0638
  623MOL0     C83995  -1.795   1.195   1.615  0.0328 -0.4239 -0.5317
  623MOL0     C83996  -1.810   1.065   1.688 -0.4777 -0.3341 -0.4972
  623MOL0     C83997  -1.938   1.000   1.696  1.4766 -0.0191 -0.7694
  623MOL0     C83998  -1.940   0.866   1.785  0.5792 -0.3539  0.1873
  623MOL0     C83999  -2.054   1.059   1.636 -0.5008 -0.9709  0.5373
  623MOL0     C84000  -2.194   1.009   1.647  0.1616 -0.7705 -0.0573
  623MOL0     O84001  -2.295   1.069   1.574  0.0428 -1.0192 -0.0554
  623MOL0     C84002  -2.416   1.055   1.624  0.3935 -0.0796  0.1455
  623MOL0     C84003  -2.455   1.129   1.735  0.1938 -0.0345 -0.7060
  623MOL0     C84004  -2.594   1.139   1.773 -0.1229  0.1068 -0.1834
  623MOL0     C84005  -2.692   1.056   1.721 -0.6487 -0.0761 -1.0834
  623MOL0     O84006  -2.813   1.059   1.784 -0.6670 -0.1919 -0.1786
  623MOL0     C84007  -2.912   0.986   1.721 -0.1236  0.6724  0.5770
  623MOL0     C84008  -3.043   1.030   1.791  0.5938  0.2181  0.1452
  623MOL0     C84009  -3.172   0.969   1.736 -0.1698  0.4372  0.4537
  623MOL0     C84010  -3.281   1.005   1.835 -0.8397  0.3953 -0.7372
  623MOL0     C84011  -3.427   0.993   1.782  0.2633  0.7964 -0.3539
  623MOL0     C84012  -3.454   0.848   1.732 -0.0829 -0.2074  0.5222
  623MOL0     C84013  -3.601   0.823   1.695  0.2172 -0.4864 -0.1175
  623MOL0     C84014  -3.642   0.725   1.582 -0.3856  0.9696  0.7161
  623MOL0    Cl84015  -3.545   0.767   1.434  0.0145  0.3462  0.1318
  623MOL0     C84016  -2.656   0.982   1.607 -0.0593  0.3788 -0.2174
  623MOL0     C84017  -2.520   0.982   1.556 -0.3477 -0.6491  0.8292
  623MOL0     O84018  -2.216   0.905   1.706  0.2515 -0.1080 -0.5239
  623MOL0     C84019  -2.024   1.182   1.561 -0.1541  0.2589  0.5082
  623MOL0     C84020  -1.901   1.243   1.556  0.3346 -0.2964 -0.3392
  623MOL0     N84021  -1.235   1.435   1.380  0.1428 -0.2005 -0.9792
  623MOL0     N84022  -1.167   1.394   1.281 -0.0020 -0.2077  0.2729
  623MOL0     C84023   0.023   0.758   1.215 -0.0837 -0.7320  0.3952
  623MOL0     C84024   0.139   0.690   1.186 -0.2739  0.3039 -0.3820
  623MOL0     C84025   0.430   0.408   0.972  0.3665 -1.3684 -0.0079
  623MOL0     C84026   0.528   0.428   1.079 -0.0789  0.8962 -0.1983
  623MOL0     C84027   0.664   0.404   1.068  0.1060  0.1415  0.2360
  623MOL0     C84028   0.709   0.340   0.952  0.3176  0.2914  0.1263
  623MOL0     O84029   0.836   0.283   0.957  0.3218  0.0770  0.1040
  623MOL0     C84030   0.868   0.179   0.870 -1.1345 -0.3779 -0.7967
  623MOL0     C84031   1.003   0.116   0.905  0.1887  0.5543  1.3164
  623MOL0     C84032   1.105   0.206   0.835 -0.3119 -0.0185  0.3394
  623MOL0     C84033   1.254   0.171   0.852  0.3294  0.5765  0.0310
  623MOL0     C84034   1.329   0.231   0.962  0.6971 -0.0597 -0.0345
  623MOL0     C84035   1.393   0.281   1.050  0.1196 -0.1791  0.1746
  623MOL0     C84036   0.619   0.321   0.843  0.0933  0.6204 -1.1246
  623MOL0     C84037   0.481   0.359   0.851 -0.3398 -0.5569 -0.1326
  623MOL0     H84038   0.008   0.403   1.059  0.1229  1.1469 -3.2840
  623MOL0     H84039  -0.202   0.525   1.134  0.2716 -1.5052  3.7901
  623MOL0     H84040  -0.184   0.976   1.268 -0.2610  2.3289 -2.0056
  623MOL0     H84041  -0.158   0.925   1.101  0.3287  2.3373 -0.2616
  623MOL0     H84042  -0.363   1.056   1.111 -0.0481 -0.8065 -0.6627
  623MOL0     H84043  -0.397   0.887   1.078  0.2269 -1.2806  0.5689
  623MOL0     H84044  -0.467   0.845   1.317  2.5898  0.8861  3.6372
  623MOL0     H84045  -0.399   1.007   1.353  0.5968 -0.5914 -0.5771
  623MOL0     H84046  -0.634   0.963   1.168  0.4672  0.6705 -0.2564
  623MOL0     H84047  -0.671   0.995   1.340 -2.7498  0.8455 -2.0737
  623MOL0     H84048  -0.550   1.214   1.324  1.2547 -0.0877 -0.0203
  623MOL0     H84049  -0.519   1.178   1.148 -0.3156  3.8313  0.8649
  623MOL0     H84050  -0.707   1.331   1.151 -1.1215 -0.4691  0.3180
  623MOL0     H84051  -0.746   1.175   1.089 -0.5574  1.3446 -1.2057
  623MOL0     H84052  -0.859   1.110   1.288  0.3584 -0.0358 -2.2008
  623MOL0     H84053  -0.793   1.248   1.384 -0.1167 -0.0571 -0.8758
  623MOL0     H84054  -0.982   1.271   1.137  0.2015  1.8496 -0.2329
  623MOL0     H84055  -0.900   1.392   1.213  1.7331 -1.3717 -2.8084
  623MOL0     H84056  -0.988   1.267   1.536  2.6144 -0.0270 -0.4003
  623MOL0     H84057  -1.141   1.416   1.700  0.7026  0.3531 -2.1686
  623MOL0     H84058  -1.285   1.493   1.632 -0.4586 -0.1788 -0.3675
  623MOL0     H84059  -1.318   1.292   1.779 -1.1774  4.1810 -0.5487
  623MOL0     H84060  -1.262   1.188   1.642 -1.0801  0.6481 -0.9116
  623MOL0     H84061  -1.436   1.277   1.490 -0.2282  2.4742 -0.5626
  623MOL0     H84062  -1.483   1.393   1.604 -0.4145  0.2968 -1.3498
  623MOL0     H84063  -1.565   1.210   1.762  2.3584  1.1297  0.5083
  623MOL0     H84064  -1.557   1.096   1.622 -1.7824 -1.0069  2.3016
  623MOL0     H84065  -1.734   1.020   1.752  0.0082  1.2082  0.0660
  623MOL0     H84066  -1.974   0.882   1.888 -0.5075  0.6060 -0.3020
  623MOL0     H84067  -1.998   0.790   1.733  2.3039 -2.0217  0.5643
  623MOL0     H84068  -1.835   0.833   1.786  0.7867  0.0625  3.3401
  623MOL0     H84069  -2.372   1.196   1.758  0.0621  1.4769 -4.0601
  623MOL0     H84070  -2.626   1.195   1.860 -2.5244 -0.1558 -0.8300
  623MOL0     H84071  -2.921   1.011   1.615 -2.9432 -0.1190  0.5442
  623MOL0     H84072  -2.904   0.877   1.724 -1.4891  0.5450  0.2381
  623MOL0     H84073  -3.031   1.027   1.900 -0.1594 -1.6270  0.2150
  623MOL0     H84074  -3.056   1.135   1.764 -2.2548 -0.5607 -2.0387
  623MOL0     H84075  -3.173   0.860   1.734 -0.8583  0.4426 -0.1531
  623MOL0     H84076  -3.195   1.006   1.635 -2.4655 -0.9108  0.4308
  623MOL0     H84077  -3.272   0.954   1.931 -2.1384  1.7704  0.1450
  623MOL0     H84078  -3.273   1.112   1.858 -1.2242  0.1547  0.5774
  623MOL0     H84079  -3.446   1.060   1.698 -1.9895 -0.9677 -1.3478
  623MOL0     H84080  -3.495   1.013   1.865  0.6043  0.6384 -0.0328
  623MOL0     H84081  -3.392   0.836   1.643 -0.1873 -0.3198  0.4634
  623MOL0     H84082  -3.419   0.770   1.800 -2.9102 -0.6293  1.6315
  623MOL0     H84083  -3.648   0.918   1.667  0.1424 -0.8650 -1.3543
  623MOL0     H84084  -3.642   0.779   1.786  0.0009 -0.6712 -0.3022
  623MOL0     H84085  -3.744   0.720   1.543  0.5061 -1.7613 -1.6095
  623MOL0     H84086  -3.615   0.624   1.612 -0.5516 -0.1179 -2.3833
  623MOL0     H84087  -2.711   0.901   1.560  0.2882 -1.8248  2.8564
  623MOL0     H84088  -2.507   0.947   1.455 -1.8685  0.7971  0.0848
  623MOL0     H84089  -2.102   1.219   1.496  1.6336  2.8715 -0.3118
  623MOL0     H84090  -1.893   1.333   1.497 -1.9389  0.3615  0.2923
  623MOL0     H84091   0.031   0.859   1.254 -1.8120 -0.6127  0.4995
  623MOL0     H84092   0.230   0.740   1.218  2.4893 -2.8121 -2.6544
  623MOL0     H84093   0.492   0.476   1.170  0.4689  1.1813 -0.1275
  623MOL0     H84094   0.739   0.429   1.142 -0.2863 -1.9997  1.4372
  623MOL0     H84095   0.799   0.095   0.880 -0.3173 -0.8861  0.9683
  623MOL0     H84096   0.879   0.206   0.764  0.0051 -0.0839 -0.6181
  623MOL0     H84097   0.999   0.022   0.849  1.0070  1.1478  0.2478
  623MOL0     H84098   1.020   0.088   1.010  1.1845  0.3320  1.1080
  623MOL0     H84099   1.100   0.310   0.869  1.0862  0.5820 -1.2052
  623MOL0     H84100   1.074   0.200   0.731 -1.2253  0.4732  0.5678
  623MOL0     H84101   1.304   0.199   0.759  0.8642 -2.0068 -0.5331
  623MOL0     H84102   1.256   0.062   0.850  0.7105  0.5816 -1.6816
  623MOL0     H84103   1.446   0.333   1.127 -0.0416  0.1436  0.0701
  623MOL0     H84104   0.659   0.262   0.761  2.7110 -2.0857  1.8200
  623MOL0     H84105   0.418   0.334   0.767 -0.9298  0.7397 -0.0960
  624MOL0     O84106   7.568   5.907   9.103  0.0777 -0.6983  0.2779
  624MOL0     C84107   7.666   5.926   9.172 -0.8226 -0.1981  0.0909
  624MOL0     O84108   7.671   5.922   9.313  0.4095  0.1631 -0.0724
  624MOL0     C84109   7.560   5.885   9.384  0.1307  0.4417 -0.2439
  624MOL0     C84110   7.563   5.940   9.511  0.3164 -0.3854  0.0538
  624MOL0     C84111   7.459   5.912   9.601  0.0117 -0.2039  0.5185
  624MOL0     C84112   7.344   5.845   9.565 -1.1827 -0.0027  0.2195
  624MOL0     O84113   7.249   5.815   9.668 -0.6954  0.4234  0.5538
  624MOL0     C84114   7.224   5.899   9.784 -0.5045  0.0500  0.6711
  624MOL0     C84115   7.093   5.855   9.855 -0.3114  0.1115  0.1850
  624MOL0     C84116   7.058   5.930   9.980 -1.0234 -0.8789  0.8091
  624MOL0     C84117   6.911   5.963   9.994 -0.4368  1.3220  0.0212
  624MOL0     C84118   6.888   6.069  10.108 -0.6115  0.8793  1.1686
  624MOL0     C84119   6.746   6.106  10.105  0.2904  0.1656 -0.1779
  624MOL0     C84120   6.702   6.170  10.236 -0.0347  0.0499 -0.1226
  624MOL0     C84121   6.725   6.317  10.229 -0.3499 -0.1825 -0.9383
  624MOL0     N84122   6.707   6.383  10.366 -0.1122  0.1058 -0.2200
  624MOL0     C84123   6.592   6.405  10.435 -0.5500  0.4769 -0.2836
  624MOL0     C84124   6.629   6.481  10.545 -0.1049 -0.6971  0.1382
  624MOL0     C84125   6.527   6.536  10.651 -0.5063 -0.4064 -0.5465
  624MOL0     C84126   6.409   6.630  10.614  0.1576 -0.3256 -0.0152
  624MOL0     C84127   6.272   6.578  10.660 -1.0921  0.5275 -0.2709
  624MOL0     C84128   6.254   6.587  10.809 -1.4137 -0.6716 -0.7712
  624MOL0     O84129   6.244   6.725  10.849 -0.9973  0.0826  0.6992
  624MOL0     C84130   6.124   6.780  10.876  0.1141  0.0267 -0.1641
  624MOL0     C84131   6.124   6.903  10.933  0.5734 -0.0588  0.8633
  624MOL0     C84132   6.018   6.976  10.984 -0.8081 -0.3839  0.2944
  624MOL0     C84133   6.052   7.112  11.051 -0.6891 -1.4921  0.2400
  624MOL0     C84134   5.894   6.907  10.966 -0.4919  0.2097  0.2312
  624MOL0     C84135   5.764   6.945  11.027  0.3047  0.2237 -0.1124
  624MOL0     O84136   5.659   6.864  11.012  0.1917 -0.7437  0.5947
  624MOL0     C84137   5.537   6.907  11.054  0.4674  0.1030  0.0230
  624MOL0     C84138   5.476   7.024  10.998  0.1698 -0.0711 -0.6444
  624MOL0     C84139   5.354   7.072  11.032  0.8357  0.2690 -1.0466
  624MOL0     C84140   5.280   7.006  11.126  0.8259  0.5606 -0.5152
  624MOL0     O84141   5.154   7.053  11.170 -0.1952 -0.3974 -0.2399
  624MOL0     C84142   5.055   6.951  11.195  0.5720  0.0965 -0.6975
  624MOL0     C84143   4.939   7.023  11.267 -0.7690  0.7289  0.0739
  624MOL0     C84144   4.871   7.127  11.180 -0.4348 -0.7880  0.5783
  624MOL0     C84145   4.747   7.196  11.245 -1.0674  0.2696 -0.2278
  624MOL0     C84146   4.635   7.102  11.283 -0.7097  0.0915 -0.4165
  624MOL0     C84147   4.519   7.198  11.307  0.6060  0.2747  0.5757
  624MOL0     C84148   4.381   7.116  11.297 -0.0051 -0.7442  0.5311
  624MOL0     C84149   4.262   7.206  11.350 -0.0042  0.1044  0.1939
  624MOL0    Cl84150   4.264   7.367  11.286  0.0462 -0.2682  0.5145
  624MOL0     C84151   5.333   6.889  11.178  0.1493 -1.0508 -1.4127
  624MOL0     C84152   5.459   6.836  11.146  1.1480 -0.5935 -0.1998
  624MOL0     O84153   5.762   7.052  11.090 -0.4142  0.4260 -0.0940
  624MOL0     C84154   5.886   6.778  10.899 -0.6393 -0.0512 -0.2292
  624MOL0     C84155   6.004   6.714  10.849  0.5823 -0.1249 -0.1577
  624MOL0     N84156   6.767   6.499  10.540  0.5764  0.0008 -0.0583
  624MOL0     N84157   6.807   6.433  10.439 -0.8118  0.0957 -0.6293
  624MOL0     C84158   7.345   5.787   9.439  0.3992 -0.7016  0.2809
  624MOL0     C84159   7.451   5.806   9.346 -0.3219 -0.2794 -0.2099
  624MOL0     C84160   7.792   5.946   9.111 -0.6676 -1.0120 -0.1617
  624MOL0     C84161   7.904   5.995   9.184 -0.1096  0.0735 -0.1809
  624MOL0     C84162   8.029   5.984   9.117 -0.7788  0.3585  0.6448
  624MOL0     C84163   8.050   5.951   8.983  1.3178  0.1989  0.0853
  624MOL0     O84164   8.166   5.945   8.917  0.3020 -0.7839  0.1593
  624MOL0     C84165   8.275   5.916   8.998  0.0482 -0.5705 -0.5089
  624MOL0     C84166   8.348   6.047   9.028 -0.5206  0.1219 -0.9296
  624MOL0     C84167   8.478   6.026   9.111  0.0891 -0.2747 -0.2663
  624MOL0     C84168   8.592   5.973   9.028 -0.5100  0.4144 -0.2819
  624MOL0     C84169   8.574   5.833   9.000 -0.0808  0.5146 -0.5814
  624MOL0     C84170   8.558   5.713   8.980 -0.2147 -0.2545 -0.2233
  624MOL0     C84171   7.939   5.910   8.919  0.2841  0.2936 -0.2375
  624MOL0     C84172   7.813   5.909   8.976 -0.2314 -0.1307  1.1459
  624MOL0     H84173   7.649   6.001   9.536  0.3092  0.3573 -1.6181
  624MOL0     H84174   7.461   5.963   9.697 -1.9970 -0.4569  0.7481
  624MOL0     H84175   7.310   5.884   9.850 -1.0492  1.3488  1.7195
  624MOL0     H84176   7.214   5.999   9.741 -1.0774 -1.3581 -2.8376
  624MOL0     H84177   7.012   5.846   9.781  0.4213  0.3631 -0.6699
  624MOL0     H84178   7.100   5.749   9.881 -0.3055 -0.5237 -2.1329
  624MOL0     H84179   7.090   5.864  10.061 -0.4519 -2.6697 -0.8127
  624MOL0     H84180   7.121   6.019   9.986  0.5685 -1.8569 -0.6023
  624MOL0     H84181   6.877   6.016   9.905  0.8082  0.0692 -1.2432
  624MOL0     H84182   6.853   5.871  10.008  0.3749  0.6303 -1.0448
  624MOL0     H84183   6.922   6.022  10.201  4.4806 -0.0466 -0.8257
  624MOL0     H84184   6.945   6.160  10.087  0.3515 -0.3084 -1.9809
  624MOL0     H84185   6.731   6.163  10.012  2.1156 -0.5566 -0.9572
  624MOL0     H84186   6.692   6.012  10.092  2.9551 -1.3419 -1.1006
  624MOL0     H84187   6.596   6.151  10.257 -0.6308  3.9580  1.3002
  624MOL0     H84188   6.753   6.130  10.324 -1.9579 -1.1375  0.5138
  624MOL0     H84189   6.674   6.359  10.142  3.2847 -2.6942 -4.6848
  624MOL0     H84190   6.830   6.322  10.198 -0.0231 -1.6546 -0.1891
  624MOL0     H84191   6.494   6.369  10.406  0.0575 -1.2989 -0.2848
  624MOL0     H84192   6.484   6.456  10.711 -1.0967  0.9039  0.8588
  624MOL0     H84193   6.597   6.583  10.721  0.2359 -1.8599 -0.2659
  624MOL0     H84194   6.409   6.658  10.508  1.4247  1.3874  0.3874
  624MOL0     H84195   6.423   6.726  10.666 -0.5833  0.7648 -1.7210
  624MOL0     H84196   6.261   6.471  10.637 -1.9012  1.0277 -2.4353
  624MOL0     H84197   6.198   6.631  10.600 -0.5580 -1.6615 -3.0862
  624MOL0     H84198   6.353   6.558  10.846  1.0794  0.9110 -5.3113
  624MOL0     H84199   6.174   6.521  10.841  0.7118 -2.4641  1.2102
  624MOL0     H84200   6.223   6.943  10.952 -0.0133  0.8956  1.9838
  624MOL0     H84201   6.000   7.192  10.997 -2.1442 -3.2066 -1.0385
  624MOL0     H84202   6.017   7.113  11.155  1.4275  1.2098  1.0176
  624MOL0     H84203   6.161   7.115  11.045 -0.7171 -2.9027 -2.2521
  624MOL0     H84204   5.530   7.076  10.920  3.7258 -0.5261  1.2965
  624MOL0     H84205   5.316   7.165  10.990 -1.5484  0.2396  0.8502
  624MOL0     H84206   5.001   6.922  11.105 -1.5477  1.3463  0.0891
  624MOL0     H84207   5.083   6.863  11.254 -3.3231 -1.2492 -0.5733
  624MOL0     H84208   4.863   6.944  11.273 -1.7032  1.6924  1.3893
  624MOL0     H84209   4.962   7.072  11.362 -0.5102 -0.0426  0.4154
  624MOL0     H84210   4.839   7.069  11.092 -1.2252  1.1755 -0.5034
  624MOL0     H84211   4.940   7.205  11.147 -0.3871 -0.9904  0.1970
  624MOL0     H84212   4.780   7.237  11.341 -2.0967  1.6188 -0.4122
  624MOL0     H84213   4.709   7.279  11.185  0.9304  2.8567  1.8241
  624MOL0     H84214   4.652   7.030  11.364 -2.0040  1.4146  1.1004
  624MOL0     H84215   4.611   7.036  11.199 -2.3988  0.9049 -0.6162
  624MOL0     H84216   4.529   7.246  11.405  2.4761  0.6910  0.2194
  624MOL0     H84217   4.512   7.275  11.229  1.5374 -1.9911 -1.9087
  624MOL0     H84218   4.387   7.026  11.358 -1.6692 -1.0681  0.2548
  624MOL0     H84219   4.369   7.075  11.196 -2.1790  1.0888 -0.0352
  624MOL0     H84220   4.271   7.223  11.458  6.3012  1.4254 -0.1622
  624MOL0     H84221   4.172   7.146  11.334  1.1500 -1.3481 -1.2353
  624MOL0     H84222   5.279   6.850  11.264 -0.6968  2.0653 -0.3951
  624MOL0     H84223   5.505   6.762  11.210  2.4732 -0.0355 -0.4635
  624MOL0     H84224   5.797   6.724  10.868  0.3946 -1.0717 -1.5058
  624MOL0     H84225   5.994   6.620  10.797 -2.1100  0.3258 -0.6174
  624MOL0     H84226   7.256   5.725   9.432 -0.7481  0.9766 -0.8267
  624MOL0     H84227   7.435   5.773   9.244 -4.2916  2.8214 -0.8318
  624MOL0     H84228   7.901   6.041   9.283  0.5638 -0.1253 -0.0655
  624MOL0     H84229   8.110   6.010   9.185 -1.5764  1.6444  1.1467
  624MOL0     H84230   8.250   5.851   9.083 -0.1552  0.8537  0.5674
  624MOL0     H84231   8.335   5.857   8.929  0.1018  2.0552 -2.8846
  624MOL0     H84232   8.281   6.124   9.068 -1.9578 -1.8094  0.5838
  624MOL0     H84233   8.374   6.093   8.932 -0.3665  0.1471 -0.8754
  624MOL0     H84234   8.460   5.958   9.195 -3.0970  0.5119 -0.1670
  624MOL0     H84235   8.511   6.118   9.159 -3.2317  0.9840 -0.1087
  624MOL0     H84236   8.673   5.974   9.101 -2.6886  0.7139  2.2604
  624MOL0     H84237   8.617   6.027   8.936 -0.9103 -0.1990 -0.7653
  624MOL0     H84238   8.550   5.609   8.957  0.5803 -0.7958  1.7325
  624MOL0     H84239   7.947   5.894   8.812 -1.0206  0.1825 -0.3311
  624MOL0     H84240   7.724   5.889   8.918 -1.6129  2.3165  2.2669
  625MOL0     O84241   8.824  10.122   9.221  0.5604 -0.2216  0.5431
  625MOL0     C84242   8.801   9.999   9.216 -0.4579 -0.4556  0.0776
  625MOL0     O84243   8.702   9.935   9.291  0.2026 -0.5508  0.3035
  625MOL0     C84244   8.631  10.023   9.369  0.1407  0.0316  0.0053
  625MOL0     C84245   8.542  10.113   9.313 -0.0144  0.8131  0.4338
  625MOL0     C84246   8.453  10.192   9.388 -0.2856 -0.6331  0.2825
  625MOL0     C84247   8.474  10.184   9.530  0.5835 -1.1723  0.0718
  625MOL0     O84248   8.398  10.252   9.630 -0.5896  0.8458  0.5181
  625MOL0     C84249   8.283  10.314   9.575  0.2189  0.8633 -0.4176
  625MOL0     C84250   8.184  10.386   9.676  0.9858  0.3666 -0.0505
  625MOL0     C84251   8.051  10.434   9.623 -0.1603 -0.7014 -0.1540
  625MOL0     C84252   8.072  10.556   9.540 -0.1896  0.2696  0.1988
  625MOL0     C84253   7.939  10.584   9.468  0.9837  0.8377 -0.1575
  625MOL0     C84254   7.810  10.620   9.552  0.0285 -0.9640  0.1999
  625MOL0     C84255   7.691  10.608   9.455 -0.8897  0.1988 -0.4731
  625MOL0     C84256   7.548  10.662   9.496  0.0373 -0.6201  0.2425
  625MOL0     N84257   7.481  10.584   9.601  0.3752 -0.1940  0.8714
  625MOL0     C84258   7.474  10.446   9.613 -0.9557  0.0485  0.7849
  625MOL0     C84259   7.391  10.413   9.713  0.9888 -0.3141  0.4925
  625MOL0     C84260   7.334  10.280   9.745  0.8464 -0.2888 -0.0365
  625MOL0     C84261   7.213  10.253   9.657  0.0059  0.6798  0.0245
  625MOL0     C84262   7.086  10.334   9.694 -0.1067 -0.5716  0.6461
  625MOL0     C84263   6.973  10.294   9.602 -0.3912  0.2421  0.1167
  625MOL0     O84264   6.856  10.374   9.620 -0.0242 -0.1597 -0.5050
  625MOL0     C84265   6.762  10.330   9.530 -0.1057  0.1885  0.2205
  625MOL0     C84266   6.673  10.231   9.567  0.1999  0.1846  0.2368
  625MOL0     C84267   6.574  10.192   9.485 -0.1737  0.9475 -0.5924
  625MOL0     C84268   6.483  10.087   9.538 -0.7570  0.9081 -0.1490
  625MOL0     C84269   6.569  10.243   9.352  0.4642  0.2936 -0.1611
  625MOL0     C84270   6.452  10.227   9.249 -0.1958 -0.2764 -0.0662
  625MOL0     O84271   6.476  10.244   9.121 -0.3345  0.3493  0.2726
  625MOL0     C84272   6.405  10.162   9.035  0.3581  0.3745 -0.2025
  625MOL0     C84273   6.478  10.050   8.984 -0.0596  0.6332  0.2959
  625MOL0     C84274   6.405   9.968   8.897 -0.5887  0.0808 -0.3914
  625MOL0     C84275   6.264   9.990   8.864 -0.0731 -0.4890  0.1820
  625MOL0     O84276   6.217   9.904   8.777 -0.3504 -0.2809 -0.5452
  625MOL0     C84277   6.085   9.846   8.787  0.3903 -0.0348  0.5679
  625MOL0     C84278   6.081   9.734   8.890 -0.0527  0.0419 -0.3487
  625MOL0     C84279   5.941   9.684   8.906 -0.0669  0.0110  1.3621
  625MOL0     C84280   5.939   9.573   9.016  0.7936 -0.0849  0.3329
  625MOL0     C84281   5.807   9.495   9.023  0.5526 -0.4210  0.6882
  625MOL0     C84282   5.677   9.574   9.061 -0.1197 -0.8668  0.0407
  625MOL0     C84283   5.577   9.476   9.118 -0.2169  0.5545 -0.4276
  625MOL0     C84284   5.503   9.420   9.000  0.0509  0.0540  0.2883
  625MOL0    Cl84285   5.322   9.398   9.046 -0.0771  0.0444  0.0590
  625MOL0     C84286   6.197  10.104   8.920 -0.3922 -1.0920  0.2500
  625MOL0     C84287   6.267  10.178   9.009 -0.6327 -1.1798 -1.1407
  625MOL0     O84288   6.354  10.169   9.299  0.2220 -0.8858 -0.3510
  625MOL0     C84289   6.665  10.342   9.312  0.0484 -0.2405 -0.6716
  625MOL0     C84290   6.756  10.386   9.404 -0.2686  0.0043  0.0744
  625MOL0     N84291   7.359  10.533   9.768  0.3488  0.1193 -0.0791
  625MOL0     N84292   7.414  10.632   9.702 -0.4373  0.4986  0.5388
  625MOL0     C84293   8.581  10.108   9.584 -0.1596 -0.0642 -0.1164
  625MOL0     C84294   8.662  10.032   9.505  0.4546  0.4486  0.2198
  625MOL0     C84295   8.881   9.929   9.112  0.0025 -0.1181 -0.5762
  625MOL0     C84296   8.973  10.005   9.041  0.3774  0.2704 -0.0917
  625MOL0     C84297   9.056   9.941   8.945  0.4553  0.2291 -0.2075
  625MOL0     C84298   9.043   9.804   8.920  0.3532 -0.6456  0.4325
  625MOL0     O84299   9.130   9.750   8.823  0.1156 -0.5481  0.0255
  625MOL0     C84300   9.166   9.611   8.839  0.5261  0.3701  0.2575
  625MOL0     C84301   9.280   9.573   8.745 -0.9195 -0.2569  0.5068
  625MOL0     C84302   9.405   9.653   8.790  0.2601 -0.6147 -1.0481
  625MOL0     C84303   9.533   9.599   8.734 -0.7479 -0.1582 -0.9657
  625MOL0     C84304   9.577   9.479   8.813 -0.0669 -1.1044 -0.9021
  625MOL0     C84305   9.604   9.380   8.875 -0.6453  0.3375 -0.6045
  625MOL0     C84306   8.961   9.723   9.001  0.0978  0.3892 -0.5213
  625MOL0     C84307   8.879   9.787   9.093  0.5020 -0.7602  0.4470
  625MOL0     H84308   8.531  10.101   9.205  2.5107 -1.2491  0.3083
  625MOL0     H84309   8.381  10.248   9.330  0.5326  2.1108  1.7468
  625MOL0     H84310   8.306  10.390   9.500  0.2065 -1.8121 -3.3036
  625MOL0     H84311   8.220  10.237   9.529  0.4978  0.2424  0.2168
  625MOL0     H84312   8.164  10.315   9.757 -0.5571 -0.5171 -1.1607
  625MOL0     H84313   8.238  10.470   9.721 -0.2938  1.5607 -0.6877
  625MOL0     H84314   7.999  10.354   9.570 -2.6474 -0.5501  1.8667
  625MOL0     H84315   7.984  10.465   9.703 -0.7128  1.1282 -1.2722
  625MOL0     H84316   8.111  10.641   9.596  0.7628 -0.1742  0.2164
  625MOL0     H84317   8.143  10.530   9.462  1.5048 -2.3049  2.4326
  625MOL0     H84318   7.958  10.658   9.389 -2.7763  1.2507 -0.8479
  625MOL0     H84319   7.908  10.492   9.418 -0.9086  0.4526  1.5957
  625MOL0     H84320   7.796  10.552   9.637  2.3774 -0.2962  1.1829
  625MOL0     H84321   7.814  10.722   9.590  2.1959 -1.3822  1.2467
  625MOL0     H84322   7.719  10.669   9.368 -0.7203  2.7583  1.2722
  625MOL0     H84323   7.684  10.507   9.413 -0.1034 -1.0233  2.0991
  625MOL0     H84324   7.478  10.669   9.413 -0.0182  1.3621  0.4009
  625MOL0     H84325   7.564  10.757   9.548  0.4700 -1.9795  2.7625
  625MOL0     H84326   7.530  10.381   9.546 -2.2839 -1.4172  1.0369
  625MOL0     H84327   7.412  10.204   9.734  0.5586 -0.7513  0.9468
  625MOL0     H84328   7.297  10.275   9.848  2.5981 -0.2041  0.6305
  625MOL0     H84329   7.178  10.150   9.669  1.5433  0.2513  1.1688
  625MOL0     H84330   7.234  10.273   9.551 -1.0356 -2.9032 -1.0003
  625MOL0     H84331   7.118  10.437   9.678 -1.6485 -0.2049 -0.3349
  625MOL0     H84332   7.052  10.321   9.797 -0.5685 -3.0120  0.2583
  625MOL0     H84333   6.954  10.189   9.623 -0.1694  0.0765 -0.5037
  625MOL0     H84334   7.003  10.301   9.497 -0.8473 -1.8494 -0.1812
  625MOL0     H84335   6.678  10.204   9.672  1.0958  1.5240  0.5698
  625MOL0     H84336   6.470  10.018   9.455  1.1046  0.7779 -0.3728
  625MOL0     H84337   6.520  10.030   9.623 -1.1881 -0.6420 -0.9702
  625MOL0     H84338   6.381  10.119   9.562 -1.5882 -1.1818 -0.6840
  625MOL0     H84339   6.584  10.034   8.995 -0.1156 -0.5220 -0.5832
  625MOL0     H84340   6.459   9.885   8.854  1.8401  1.7355 -0.7460
  625MOL0     H84341   6.023   9.935   8.804  3.0423  3.6399 -5.5339
  625MOL0     H84342   6.057   9.820   8.685  0.6713 -1.3910  0.8269
  625MOL0     H84343   6.154   9.659   8.861 -1.9897 -1.2403 -2.2294
  625MOL0     H84344   6.104   9.781   8.986 -0.7638  4.3141 -2.0458
  625MOL0     H84345   5.912   9.647   8.807 -2.5714 -0.4841  2.2035
  625MOL0     H84346   5.879   9.769   8.935  0.7306  2.1312 -2.4032
  625MOL0     H84347   6.020   9.503   8.996  1.3840  0.2540  1.4454
  625MOL0     H84348   5.957   9.631   9.107  1.8869  0.3457 -0.1318
  625MOL0     H84349   5.833   9.419   9.098 -3.1795 -3.8880 -1.1306
  625MOL0     H84350   5.795   9.433   8.934  2.7838 -0.0796  0.0997
  625MOL0     H84351   5.705   9.641   9.143 -1.3627 -1.4586  0.9793
  625MOL0     H84352   5.637   9.630   8.976  0.8647 -1.8741 -1.1336
  625MOL0     H84353   5.513   9.524   9.193 -3.7694 -3.6656 -0.3623
  625MOL0     H84354   5.621   9.392   9.171 -1.9067 -0.3384 -0.3667
  625MOL0     H84355   5.538   9.317   8.985 -1.3880 -0.4862  0.4264
  625MOL0     H84356   5.503   9.486   8.913 -1.3009  0.8151  0.8241
  625MOL0     H84357   6.095  10.130   8.893  1.3139  3.4813 -3.1203
  625MOL0     H84358   6.214  10.259   9.059  1.4474 -1.5441  1.9256
  625MOL0     H84359   6.647  10.389   9.216  1.3466  0.8932 -0.4103
  625MOL0     H84360   6.825  10.469   9.389 -1.4424  1.1331  0.6601
  625MOL0     H84361   8.609  10.119   9.688 -0.5895 -2.0989  0.2567
  625MOL0     H84362   8.750   9.982   9.544  0.2770 -0.2954 -0.3177
  625MOL0     H84363   8.977  10.114   9.043  0.9254  0.5504 -4.7803
  625MOL0     H84364   9.131   9.997   8.891 -0.9615  1.2861 -1.1450
  625MOL0     H84365   9.187   9.589   8.944 -0.5200  1.1368  0.6425
  625MOL0     H84366   9.079   9.548   8.815  0.1085  1.0383 -0.0309
  625MOL0     H84367   9.249   9.592   8.642 -0.6234  0.5333  0.5575
  625MOL0     H84368   9.303   9.466   8.748 -0.5632 -0.1842  0.4043
  625MOL0     H84369   9.413   9.636   8.898  1.7482  2.6443 -0.5145
  625MOL0     H84370   9.406   9.762   8.785  1.6011 -0.5122  0.2999
  625MOL0     H84371   9.615   9.669   8.754 -1.3986  0.3204  0.1256
  625MOL0     H84372   9.525   9.576   8.628 -0.6525 -0.2312 -0.9570
  625MOL0     H84373   9.643   9.297   8.930  0.7926  2.6470  2.1245
  625MOL0     H84374   8.941   9.617   8.986 -2.2208  0.9344 -1.7645
  625MOL0     H84375   8.820   9.723   9.158 -1.2969 -1.5367 -1.8125
  626MOL0     O84376   3.922   8.419   4.904  0.1704  0.3924  0.1384
  626MOL0     C84377   3.956   8.483   4.805 -0.5831  0.2257  0.2353
  626MOL0     O84378   3.882   8.575   4.749  1.3239  0.4138  0.7481
  626MOL0     C84379   3.757   8.596   4.787  0.6805 -0.9628 -0.3911
  626MOL0     C84380   3.645   8.589   4.702 -0.5663  0.2511  0.2258
  626MOL0     C84381   3.516   8.633   4.741 -0.3338 -0.6570 -0.3608
  626MOL0     C84382   3.488   8.686   4.864  0.2578  0.6923 -0.7355
  626MOL0     O84383   3.360   8.723   4.885  0.2778  0.3787  0.0765
  626MOL0     C84384   3.329   8.775   5.015  0.7463  0.6422  0.4770
  626MOL0     C84385   3.181   8.828   5.022 -0.2066  0.9467  0.1684
  626MOL0     C84386   3.162   8.953   4.930 -0.0934  1.5115 -0.9861
  626MOL0     C84387   3.013   8.969   4.921 -0.0214 -0.2184 -0.0267
  626MOL0     C84388   2.988   9.081   4.816  0.8237  0.4918 -0.0723
  626MOL0     C84389   2.832   9.088   4.790 -0.6779  0.1661 -0.4194
  626MOL0     C84390   2.795   9.220   4.731 -0.1233 -0.4636 -0.6131
  626MOL0     C84391   2.661   9.216   4.671  0.3441  0.3823 -0.6300
  626MOL0     N84392   2.594   9.350   4.656 -0.7258  0.5599 -0.4640
  626MOL0     C84393   2.572   9.401   4.534 -0.0699  0.3329 -0.3650
  626MOL0     C84394   2.512   9.519   4.555 -0.5401  0.2204  0.6243
  626MOL0     C84395   2.459   9.624   4.469 -0.0730 -0.4842  0.6865
  626MOL0     C84396   2.327   9.664   4.523 -0.6843 -0.5088  0.3882
  626MOL0     C84397   2.248   9.755   4.423 -0.4960  0.2040  0.2626
  626MOL0     C84398   2.096   9.742   4.416  0.2063 -0.7225 -0.4138
  626MOL0     O84399   2.067   9.608   4.375  0.0330 -0.2478  0.0817
  626MOL0     C84400   1.940   9.595   4.323  0.5357  0.5738 -0.3289
  626MOL0     C84401   1.838   9.690   4.334 -0.4412  1.0093 -0.2338
  626MOL0     C84402   1.706   9.663   4.286  0.3268 -0.4584  0.6060
  626MOL0     C84403   1.601   9.769   4.304  0.5184 -0.2112  0.9434
  626MOL0     C84404   1.669   9.534   4.223 -0.4247  0.5521  0.0300
  626MOL0     C84405   1.530   9.504   4.164 -0.5559  0.3560  0.3854
  626MOL0     O84406   1.432   9.590   4.171 -0.1843  0.6486  0.8719
  626MOL0     C84407   1.311   9.556   4.110 -0.6399 -1.1761 -0.1726
  626MOL0     C84408   1.203   9.597   4.187 -1.1295 -0.9130 -0.1213
  626MOL0     C84409   1.077   9.577   4.139  0.5053 -0.3902 -0.5711
  626MOL0     C84410   1.054   9.522   4.011  0.4049 -0.7235 -0.1139
  626MOL0     O84411   0.927   9.525   3.975  0.2957 -1.0643 -0.0380
  626MOL0     C84412   0.908   9.502   3.834  0.0184 -0.3025  0.8195
  626MOL0     C84413   0.759   9.525   3.789 -0.1669 -0.2368 -0.3072
  626MOL0     C84414   0.683   9.412   3.853  0.7879  0.0799  0.5503
  626MOL0     C84415   0.535   9.440   3.814  0.5006 -0.5711 -0.1359
  626MOL0     C84416   0.428   9.353   3.889 -0.0045 -0.4111 -1.0831
  626MOL0     C84417   0.284   9.384   3.855  0.7959  0.7766  0.7913
  626MOL0     C84418   0.175   9.282   3.903 -0.2108  0.8018  0.0736
  626MOL0     C84419   0.184   9.149   3.831 -0.6335  0.5188  0.1598
  626MOL0    Cl84420   0.026   9.066   3.848  0.2175 -0.2935  0.3705
  626MOL0     C84421   1.159   9.475   3.940 -0.0684 -0.0244 -0.8107
  626MOL0     C84422   1.289   9.509   3.981  0.6509  0.0709 -0.6216
  626MOL0     O84423   1.522   9.390   4.113  0.4347 -0.1882 -0.6942
  626MOL0     C84424   1.771   9.437   4.211 -0.3956 -0.1237 -0.3621
  626MOL0     C84425   1.904   9.470   4.267 -0.5950 -0.1474 -0.7494
  626MOL0     N84426   2.517   9.541   4.693  0.2819  0.0150  0.1708
  626MOL0     N84427   2.552   9.429   4.752 -0.0172 -0.7718 -0.4441
  626MOL0     C84428   3.595   8.675   4.961  0.8094 -0.3246 -0.1421
  626MOL0     C84429   3.724   8.638   4.918 -0.1348 -0.1599  0.7705
  626MOL0     C84430   4.094   8.466   4.762 -1.1982  0.6568  0.3067
  626MOL0     C84431   4.182   8.362   4.811  0.3024  0.2096 -0.0079
  626MOL0     C84432   4.314   8.362   4.778 -0.2777  0.9048  0.7469
  626MOL0     C84433   4.367   8.450   4.692  0.4573 -0.2715  0.0023
  626MOL0     O84434   4.503   8.431   4.677  0.4786 -0.0785 -0.2455
  626MOL0     C84435   4.575   8.521   4.587 -0.1817 -0.0797  0.6162
  626MOL0     C84436   4.711   8.450   4.562 -0.3223  0.1038 -0.1096
  626MOL0     C84437   4.699   8.341   4.452 -0.2711  0.0877  0.1860
  626MOL0     C84438   4.843   8.309   4.407  0.9412 -0.2655  0.3418
  626MOL0     C84439   4.920   8.233   4.511 -0.1444  0.2888  0.1844
  626MOL0     C84440   4.983   8.163   4.592  0.9239 -0.1647  0.4560
  626MOL0     C84441   4.289   8.538   4.628 -0.0837 -0.5919  1.0921
  626MOL0     C84442   4.151   8.545   4.662 -0.2742 -0.4428 -0.3814
  626MOL0     H84443   3.651   8.550   4.601 -0.1034  2.2106 -0.5607
  626MOL0     H84444   3.430   8.637   4.675 -1.7676 -1.7246  1.3478
  626MOL0     H84445   3.335   8.699   5.093 -0.6206 -1.1971 -1.0911
  626MOL0     H84446   3.395   8.857   5.042  2.9425 -0.2424 -1.8192
  626MOL0     H84447   3.122   8.743   4.986  2.5510 -1.0263 -0.0004
  626MOL0     H84448   3.158   8.858   5.125  2.2329 -1.5448  1.5720
  626MOL0     H84449   3.218   9.040   4.966  0.6424  0.5298  0.3421
  626MOL0     H84450   3.201   8.928   4.831  1.5745  0.9795 -0.2219
  626MOL0     H84451   2.951   8.886   4.886 -0.5298  0.3190 -0.4122
  626MOL0     H84452   2.975   9.000   5.019  1.3335  1.3800  0.0369
  626MOL0     H84453   3.025   9.174   4.861 -1.7014  0.8761  1.3769
  626MOL0     H84454   3.039   9.067   4.720 -0.1360  1.0846 -0.6824
  626MOL0     H84455   2.813   9.007   4.718  1.5738  1.2382 -2.3583
  626MOL0     H84456   2.784   9.067   4.886  0.8621 -2.0055 -0.0553
  626MOL0     H84457   2.799   9.293   4.812  4.3616  0.1994 -1.1782
  626MOL0     H84458   2.871   9.251   4.658  1.6489 -3.1149 -0.0068
  626MOL0     H84459   2.593   9.173   4.746  0.9735  2.3375  1.1714
  626MOL0     H84460   2.659   9.150   4.584 -1.8700 -0.1970 -0.2100
  626MOL0     H84461   2.608   9.365   4.438  0.0851  1.1780 -0.6348
  626MOL0     H84462   2.523   9.709   4.494 -1.1515  0.8293 -0.7905
  626MOL0     H84463   2.462   9.594   4.364  2.4185  1.4691  0.0982
  626MOL0     H84464   2.333   9.708   4.623  1.0040 -0.3771  0.2577
  626MOL0     H84465   2.262   9.576   4.533 -1.5708  0.2126  1.1405
  626MOL0     H84466   2.271   9.723   4.321  1.2707  1.1558  0.3199
  626MOL0     H84467   2.273   9.860   4.444  2.1965 -0.9303  3.7601
  626MOL0     H84468   2.067   9.811   4.336 -2.6973 -1.1789  0.1521
  626MOL0     H84469   2.045   9.785   4.503 -2.3341  0.1179 -2.2082
  626MOL0     H84470   1.852   9.772   4.403 -1.7620 -0.3673  1.7825
  626MOL0     H84471   1.562   9.804   4.208 -1.2312  0.4355  1.8540
  626MOL0     H84472   1.523   9.733   4.372  0.9233  1.9887  2.6985
  626MOL0     H84473   1.647   9.856   4.351  1.2869 -0.3939  0.5479
  626MOL0     H84474   1.224   9.619   4.291 -0.3964 -3.3274  0.2943
  626MOL0     H84475   0.991   9.596   4.202 -2.8019  1.5899 -5.1564
  626MOL0     H84476   0.974   9.568   3.778  0.5088 -0.8955  0.6836
  626MOL0     H84477   0.941   9.401   3.807  2.3453  0.4910  0.5129
  626MOL0     H84478   0.714   9.619   3.822  0.8256  0.0677  0.2372
  626MOL0     H84479   0.752   9.516   3.680  2.7692 -0.1107 -0.6095
  626MOL0     H84480   0.689   9.406   3.962 -0.8751 -0.3708  0.6499
  626MOL0     H84481   0.718   9.320   3.806  0.1554 -0.0903  0.4029
  626MOL0     H84482   0.503   9.542   3.838  0.8992 -0.5287  0.2275
  626MOL0     H84483   0.520   9.414   3.709 -0.6399  1.8452 -0.6382
  626MOL0     H84484   0.437   9.353   3.998  0.2261 -1.3611 -1.0963
  626MOL0     H84485   0.440   9.252   3.849  2.9911 -0.3247 -0.6128
  626MOL0     H84486   0.249   9.478   3.900 -1.7072 -0.2036  1.0250
  626MOL0     H84487   0.272   9.391   3.747  1.2090 -1.8826  0.5113
  626MOL0     H84488   0.077   9.328   3.892  1.1403  3.6033 -1.3268
  626MOL0     H84489   0.184   9.268   4.011 -2.6575  1.8605  0.4789
  626MOL0     H84490   0.264   9.090   3.877 -0.9010 -1.9498 -2.2367
  626MOL0     H84491   0.206   9.166   3.725  0.6466 -1.7941 -0.0225
  626MOL0     H84492   1.142   9.424   3.846 -4.0826 -1.8911  0.6908
  626MOL0     H84493   1.381   9.498   3.925  1.1878 -3.6834  0.6670
  626MOL0     H84494   1.749   9.349   4.152  0.4061 -0.5447 -0.0531
  626MOL0     H84495   1.981   9.393   4.268 -0.0844  0.3216  1.5515
  626MOL0     H84496   3.575   8.693   5.066  0.0630  1.0778 -0.5004
  626MOL0     H84497   3.794   8.633   5.001  1.5226  0.8568 -0.5005
  626MOL0     H84498   4.148   8.296   4.889  0.3741 -0.8791 -0.8744
  626MOL0     H84499   4.390   8.308   4.833 -0.0034  1.1582  0.6192
  626MOL0     H84500   4.529   8.541   4.490  1.2004  2.7404  0.4500
  626MOL0     H84501   4.580   8.622   4.628 -2.2455  0.0518  0.6625
  626MOL0     H84502   4.750   8.408   4.656  0.6573 -1.1198 -1.0283
  626MOL0     H84503   4.781   8.524   4.523  0.1327  2.1532  4.0829
  626MOL0     H84504   4.640   8.367   4.364 -0.7190  1.7477  0.9465
  626MOL0     H84505   4.648   8.250   4.486 -1.6394 -0.2938 -2.6038
  626MOL0     H84506   4.886   8.405   4.381 -0.6536  0.2056 -0.7260
  626MOL0     H84507   4.843   8.249   4.316  2.9484 -2.1006  1.4689
  626MOL0     H84508   5.023   8.094   4.664  0.3778  0.5150  1.4191
  626MOL0     H84509   4.336   8.597   4.550 -0.2351  3.8370  4.0016
  626MOL0     H84510   4.088   8.620   4.615 -1.0124 -0.6051  0.3412
  627MOL0     O84511   5.551   7.879   1.649  0.1414 -0.5443  0.4004
  627MOL0     C84512   5.525   8.001   1.623  0.8462  0.7515 -0.1139
  627MOL0     O84513   5.405   8.044   1.568 -0.1022 -0.0500  0.1910
  627MOL0     C84514   5.294   7.964   1.560  0.8896  0.2593 -0.1417
  627MOL0     C84515   5.232   7.966   1.436 -0.7089 -0.2293 -1.1299
  627MOL0     C84516   5.122   7.892   1.403 -0.2798  0.1669  0.3460
  627MOL0     C84517   5.057   7.815   1.507 -0.2226 -0.6571  0.5371
  627MOL0     O84518   4.940   7.741   1.483  0.0573  0.1148 -0.1261
  627MOL0     C84519   4.822   7.817   1.485 -0.8131  0.0597  0.0369
  627MOL0     C84520   4.750   7.812   1.614 -0.4946  0.6875 -0.3731
  627MOL0     C84521   4.624   7.904   1.619 -0.6416  1.3140  0.4785
  627MOL0     C84522   4.578   7.921   1.764  0.3626 -1.2813  0.2179
  627MOL0     C84523   4.448   8.007   1.768 -1.0887  0.1684  0.5028
  627MOL0     C84524   4.316   7.929   1.769 -0.9913 -0.3789 -0.4474
  627MOL0     C84525   4.204   8.027   1.752 -0.0253  0.6781  0.0434
  627MOL0     C84526   4.091   7.953   1.679  0.4155  1.1035  1.3247
  627MOL0     N84527   4.020   7.835   1.736 -0.0020  0.2057  0.2613
  627MOL0     C84528   3.924   7.760   1.677 -0.5165  0.0478  0.5636
  627MOL0     C84529   3.865   7.696   1.784 -0.0912  0.9895  0.4543
  627MOL0     C84530   3.744   7.608   1.784  1.0309 -1.0783  0.8108
  627MOL0     C84531   3.642   7.688   1.697 -0.6630  0.8125  1.1558
  627MOL0     C84532   3.487   7.646   1.696 -0.7277  0.1081  0.4640
  627MOL0     C84533   3.473   7.506   1.625  0.3596 -0.1174 -0.1069
  627MOL0     O84534   3.506   7.521   1.487 -0.8387  0.3359 -0.1782
  627MOL0     C84535   3.499   7.406   1.410  0.1813 -0.4760 -1.2625
  627MOL0     C84536   3.608   7.388   1.326  0.4062  0.1480 -0.0694
  627MOL0     C84537   3.611   7.274   1.246  0.5846 -0.0242  0.8151
  627MOL0     C84538   3.736   7.259   1.167 -0.1208 -0.0541 -0.1184
  627MOL0     C84539   3.511   7.179   1.245 -0.0008  0.4149  0.3162
  627MOL0     C84540   3.510   7.042   1.173  0.8962  0.8672 -0.5475
  627MOL0     O84541   3.422   6.950   1.232  0.1993  0.4311 -0.4726
  627MOL0     C84542   3.420   6.835   1.156 -0.0826 -0.3489 -0.4407
  627MOL0     C84543   3.499   6.738   1.211  0.5332 -0.1004  0.4331
  627MOL0     C84544   3.498   6.610   1.153  0.0622  1.0134 -0.1277
  627MOL0     C84545   3.422   6.579   1.036 -0.4588  1.3401  0.9414
  627MOL0     O84546   3.407   6.453   0.994 -0.8187  0.3741  0.2399
  627MOL0     C84547   3.473   6.344   1.072  0.1453  0.4090  0.5925
  627MOL0     C84548   3.426   6.212   1.017  0.0355 -0.5570  0.0106
  627MOL0     C84549   3.275   6.189   1.019  0.3873  0.3510  0.7120
  627MOL0     C84550   3.240   6.068   0.918  0.7751 -1.0211  0.2332
  627MOL0     C84551   3.186   5.944   0.995 -1.3136  0.3744  1.1171
  627MOL0     C84552   3.122   5.848   0.905  1.0832 -0.2102  0.5161
  627MOL0     C84553   3.065   5.736   0.998 -0.4874 -0.6080  0.8085
  627MOL0     C84554   2.967   5.654   0.915  0.5190  0.5589 -1.1562
  627MOL0    Cl84555   2.913   5.509   1.015 -0.0851  0.1226 -0.1012
  627MOL0     C84556   3.344   6.679   0.975  0.3981 -0.3461  0.4900
  627MOL0     C84557   3.342   6.810   1.037 -0.0324 -0.5334 -0.5811
  627MOL0     O84558   3.577   7.031   1.071  0.9475 -0.0015 -0.3729
  627MOL0     C84559   3.412   7.196   1.339 -0.2755 -0.2996 -0.4265
  627MOL0     C84560   3.406   7.304   1.427  0.0724  0.0385 -0.2550
  627MOL0     N84561   3.940   7.720   1.902 -0.0078 -0.5502  0.1808
  627MOL0     N84562   4.033   7.808   1.866  0.0632  0.4475  1.2273
  627MOL0     C84563   5.120   7.815   1.639 -0.3871 -0.5861  0.6134
  627MOL0     C84564   5.241   7.884   1.662  1.0344 -1.2456 -0.1614
  627MOL0     C84565   5.615   8.119   1.661  0.1815 -0.2575  0.4289
  627MOL0     C84566   5.747   8.090   1.688 -0.1112  0.1128 -0.3077
  627MOL0     C84567   5.837   8.189   1.722  0.2879 -0.5632  0.3796
  627MOL0     C84568   5.798   8.321   1.762  0.1998  0.6157  0.6681
  627MOL0     O84569   5.888   8.419   1.810  0.0441  0.3736 -0.2962
  627MOL0     C84570   6.020   8.382   1.856 -0.0435  0.5707 -0.2052
  627MOL0     C84571   6.131   8.423   1.758  0.3820  0.2664 -0.2864
  627MOL0     C84572   6.107   8.557   1.692  0.0007  1.1207 -0.0820
  627MOL0     C84573   6.204   8.595   1.579  0.0623  0.1684 -0.2660
  627MOL0     C84574   6.169   8.547   1.450 -0.3837  0.6238  0.3626
  627MOL0     C84575   6.125   8.521   1.346 -0.2942  0.4945  1.0748
  627MOL0     C84576   5.664   8.346   1.755  0.3684 -0.0110 -0.0441
  627MOL0     C84577   5.575   8.256   1.688  0.1057  0.4636  0.3964
  627MOL0     H84578   5.273   8.042   1.370  0.4456  0.1340 -0.0378
  627MOL0     H84579   5.074   7.906   1.307 -0.0895  3.2070  0.5913
  627MOL0     H84580   4.831   7.923   1.463  0.0119  0.4823  2.2041
  627MOL0     H84581   4.756   7.783   1.404  0.1886  1.7429 -1.5652
  627MOL0     H84582   4.720   7.714   1.652  0.3441 -0.1687 -1.8272
  627MOL0     H84583   4.828   7.855   1.677  0.5753  0.0957 -1.2534
  627MOL0     H84584   4.646   8.002   1.576  0.2612  1.3011  0.8803
  627MOL0     H84585   4.554   7.854   1.552  0.6636  1.0418 -0.7241
  627MOL0     H84586   4.559   7.826   1.815 -1.5903 -0.4757  1.0994
  627MOL0     H84587   4.649   7.970   1.832  1.0623 -1.7586 -0.1551
  627MOL0     H84588   4.448   8.070   1.857 -2.5671  0.4434  0.3302
  627MOL0     H84589   4.448   8.088   1.694  0.2966  0.3696  0.6821
  627MOL0     H84590   4.325   7.867   1.679  2.5152 -0.3505 -0.2699
  627MOL0     H84591   4.302   7.863   1.856 -0.8883 -0.7395 -0.7009
  627MOL0     H84592   4.166   8.058   1.850 -2.9471  1.5276 -1.2380
  627MOL0     H84593   4.232   8.111   1.688 -0.8855  2.0923  1.4598
  627MOL0     H84594   4.122   7.930   1.577 -0.7533 -0.5271  1.2875
  627MOL0     H84595   4.005   8.020   1.667 -2.5543 -2.4722  0.7238
  627MOL0     H84596   3.888   7.762   1.575  0.4111 -1.8732  0.1520
  627MOL0     H84597   3.781   7.512   1.746 -0.5205 -1.5541  0.4472
  627MOL0     H84598   3.706   7.583   1.883 -0.9719 -1.5644 -0.0268
  627MOL0     H84599   3.671   7.676   1.593  0.5542  2.6456  1.2202
  627MOL0     H84600   3.648   7.792   1.731  0.7250  0.9389  0.5891
  627MOL0     H84601   3.424   7.722   1.649 -2.8122 -1.1855  0.9911
  627MOL0     H84602   3.457   7.639   1.801  1.0793 -2.4343  0.8957
  627MOL0     H84603   3.371   7.471   1.639 -0.2866  2.6319  3.6201
  627MOL0     H84604   3.536   7.426   1.666  0.4126  0.5582  1.2004
  627MOL0     H84605   3.687   7.462   1.319  0.6889 -0.3125 -3.0151
  627MOL0     H84606   3.789   7.167   1.192  1.9999  0.9735 -0.5704
  627MOL0     H84607   3.714   7.264   1.060 -1.9546 -0.0489  0.2186
  627MOL0     H84608   3.807   7.341   1.180  1.5093 -1.4018 -0.2555
  627MOL0     H84609   3.548   6.751   1.307 -1.1466 -0.2913  1.3550
  627MOL0     H84610   3.549   6.538   1.217 -2.8537  0.7208  2.0657
  627MOL0     H84611   3.581   6.355   1.073  0.0735  1.3044 -0.3520
  627MOL0     H84612   3.432   6.335   1.174 -1.4356 -1.2431 -0.1218
  627MOL0     H84613   3.463   6.205   0.915  1.7033  0.2484  0.5246
  627MOL0     H84614   3.470   6.138   1.085  3.4382 -0.8833 -2.3030
  627MOL0     H84615   3.221   6.280   0.993  1.3720  0.6668 -0.2668
  627MOL0     H84616   3.246   6.170   1.123  1.8277  0.8644  1.2288
  627MOL0     H84617   3.158   6.107   0.857 -0.9269  1.8262  3.9209
  627MOL0     H84618   3.321   6.037   0.852 -1.3854  1.1845 -3.8809
  627MOL0     H84619   3.118   5.976   1.075 -2.1673  2.1262 -0.2338
  627MOL0     H84620   3.268   5.887   1.039  0.1177  0.6190 -1.0760
  627MOL0     H84621   3.045   5.907   0.855 -0.6614 -2.9058 -0.1952
  627MOL0     H84622   3.188   5.817   0.824 -3.0601 -1.0184 -2.9070
  627MOL0     H84623   3.011   5.771   1.086 -2.8111  0.4486 -0.9200
  627MOL0     H84624   3.147   5.671   1.030  2.3120  1.2402 -2.0451
  627MOL0     H84625   3.024   5.606   0.835  2.1538 -3.2450  1.9182
  627MOL0     H84626   2.880   5.704   0.872 -0.2319 -0.3096 -0.7108
  627MOL0     H84627   3.276   6.657   0.893 -0.1767 -0.6178  1.0320
  627MOL0     H84628   3.276   6.889   1.005 -2.2291 -0.8801  2.6168
  627MOL0     H84629   3.332   7.123   1.352  0.6198 -1.1068  0.7097
  627MOL0     H84630   3.334   7.294   1.508  0.7069 -0.8803  0.2116
  627MOL0     H84631   5.094   7.749   1.721  1.0635 -0.4064  1.2613
  627MOL0     H84632   5.282   7.892   1.762  0.4658  1.1828 -0.0437
  627MOL0     H84633   5.790   7.992   1.671 -1.5094 -0.9112  1.5460
  627MOL0     H84634   5.939   8.151   1.719  0.8265  0.6670  1.9905
  627MOL0     H84635   6.035   8.431   1.953 -0.5304 -3.3596  2.0531
  627MOL0     H84636   6.032   8.277   1.884  0.0279  0.9010  1.0389
  627MOL0     H84637   6.134   8.346   1.680  0.5493  0.6127 -0.6262
  627MOL0     H84638   6.228   8.430   1.809  0.4255 -1.5386 -0.0498
  627MOL0     H84639   6.110   8.630   1.773 -1.3019 -0.5501  1.5642
  627MOL0     H84640   6.008   8.564   1.647  0.8977  0.1682 -2.3412
  627MOL0     H84641   6.304   8.559   1.601 -0.2288 -0.1397  0.5801
  627MOL0     H84642   6.215   8.704   1.575 -0.1867  0.1725 -2.7741
  627MOL0     H84643   6.098   8.502   1.244 -2.6090  3.2646  1.0487
  627MOL0     H84644   5.631   8.442   1.795  0.4921 -0.4163  1.0712
  627MOL0     H84645   5.477   8.301   1.681  0.1687  0.2807 -3.1017
  628MOL0     O84646   1.029   4.940   0.177  0.5634  0.6244 -0.0174
  628MOL0     C84647   1.018   5.014   0.274  0.1294  0.7446  0.0269
  628MOL0     O84648   0.906   5.070   0.321  0.1273 -0.3894  0.1119
  628MOL0     C84649   0.792   5.075   0.245  0.6111  0.7799  0.0821
  628MOL0     C84650   0.738   4.972   0.155  0.2198 -0.1696  0.0742
  628MOL0     C84651   0.623   5.001   0.078 -0.7617 -0.2404  0.2820
  628MOL0     C84652   0.557   5.122   0.072 -0.0258  0.2232  0.6335
  628MOL0     O84653   0.456   5.134  -0.022  0.1413 -0.3229 -0.8386
  628MOL0     C84654   0.381   5.262  -0.041  0.0012 -0.7817  0.3716
  628MOL0     C84655   0.264   5.260   0.056  0.4954  0.0757 -1.2741
  628MOL0     C84656   0.134   5.221  -0.013  0.1752  1.0681 -0.9313
  628MOL0     C84657   0.029   5.139   0.064 -0.6263 -0.0764 -0.0350
  628MOL0     C84658  -0.103   5.136  -0.005  0.5867  0.6807  0.1232
  628MOL0     C84659  -0.193   5.024   0.058 -0.6347  1.0073 -0.5583
  628MOL0     C84660  -0.326   5.005  -0.023 -0.9605 -0.6319  0.2261
  628MOL0     C84661  -0.420   4.907   0.037 -1.1831 -0.0572  0.4760
  628MOL0     N84662  -0.539   4.895  -0.055  0.0473 -0.4505  1.3589
  628MOL0     C84663  -0.548   4.822  -0.176 -0.5268 -0.6317  0.0230
  628MOL0     C84664  -0.670   4.843  -0.227  0.7880  0.1073 -0.5122
  628MOL0     C84665  -0.731   4.772  -0.342  0.1027 -0.7925  0.8525
  628MOL0     C84666  -0.830   4.861  -0.426  0.4148 -0.7601 -0.9352
  628MOL0     C84667  -0.838   4.812  -0.574 -0.2338 -0.2939 -0.8019
  628MOL0     C84668  -0.927   4.692  -0.597 -0.4043  1.0304 -1.0470
  628MOL0     O84669  -1.063   4.727  -0.577 -0.3246 -0.0400  0.2100
  628MOL0     C84670  -1.142   4.677  -0.471  0.2426  0.3674 -0.0800
  628MOL0     C84671  -1.080   4.632  -0.350 -0.4301 -0.2103 -0.1113
  628MOL0     C84672  -1.161   4.582  -0.241 -0.6968  0.2329 -0.1373
  628MOL0     C84673  -1.093   4.512  -0.123 -0.6035 -0.2103  0.7736
  628MOL0     C84674  -1.298   4.595  -0.247  1.2451 -0.3455 -0.2333
  628MOL0     C84675  -1.394   4.548  -0.146 -0.2717  0.5002 -0.9127
  628MOL0     O84676  -1.383   4.422  -0.097 -0.1993 -0.4390  0.3625
  628MOL0     C84677  -1.485   4.378  -0.019  1.1213 -0.3666 -0.2540
  628MOL0     C84678  -1.606   4.336  -0.075  0.8050 -0.5960  0.0675
  628MOL0     C84679  -1.699   4.270  -0.002 -0.4993  0.7580 -0.3986
  628MOL0     C84680  -1.672   4.262   0.143  0.5988  0.2361  0.4395
  628MOL0     O84681  -1.765   4.212   0.227 -0.5015 -0.1629 -0.3113
  628MOL0     C84682  -1.859   4.124   0.166 -0.4543 -0.9292  0.6982
  628MOL0     C84683  -1.927   4.035   0.284  0.5765 -0.2922 -0.5228
  628MOL0     C84684  -2.058   4.103   0.326 -0.0994 -0.2987  0.3917
  628MOL0     C84685  -2.130   4.025   0.434 -0.4027 -0.6416 -0.7967
  628MOL0     C84686  -2.236   4.121   0.474 -0.5374 -0.6422 -0.4082
  628MOL0     C84687  -2.317   4.074   0.605 -0.5763  0.0049  0.5804
  628MOL0     C84688  -2.405   4.189   0.652  0.2579 -0.3558  0.3243
  628MOL0     C84689  -2.509   4.147   0.759  0.7117 -0.1982  0.4539
  628MOL0    Cl84690  -2.606   4.294   0.813 -0.1880  0.3571  0.1026
  628MOL0     C84691  -1.550   4.292   0.193  0.2091 -0.6421  0.5885
  628MOL0     C84692  -1.456   4.347   0.113  0.0446  0.0486  0.1801
  628MOL0     O84693  -1.480   4.629  -0.110 -0.4600  0.5058  0.7414
  628MOL0     C84694  -1.360   4.651  -0.361  0.2203 -0.2217 -0.7274
  628MOL0     C84695  -1.279   4.691  -0.472 -0.1119  0.4059  0.4342
  628MOL0     N84696  -0.740   4.929  -0.140 -0.0819  0.2918  0.0608
  628MOL0     N84697  -0.653   4.957  -0.041  0.9726  0.5494  0.4208
  628MOL0     C84698   0.608   5.224   0.160  0.2579 -0.5721  0.0328
  628MOL0     C84699   0.722   5.197   0.235 -0.1499  0.1287 -0.1065
  628MOL0     C84700   1.145   5.050   0.341  0.0063  0.6991  0.6767
  628MOL0     C84701   1.151   5.155   0.435 -0.3251 -0.0402  0.3520
  628MOL0     C84702   1.274   5.208   0.483 -0.2516  0.7065  0.3684
  628MOL0     C84703   1.399   5.139   0.433  0.1143 -0.2008 -0.5084
  628MOL0     O84704   1.523   5.173   0.487  1.0396  0.7515 -0.2120
  628MOL0     C84705   1.539   5.301   0.552  0.5401 -0.6735  0.2842
  628MOL0     C84706   1.687   5.338   0.557 -0.2969  0.2347 -0.0738
  628MOL0     C84707   1.734   5.327   0.707 -0.1328  0.1443 -0.7733
  628MOL0     C84708   1.723   5.450   0.790  0.2453 -0.6731 -0.5780
  628MOL0     C84709   1.804   5.565   0.748 -0.0032  0.1069 -0.8036
  628MOL0     C84710   1.887   5.649   0.711  0.2717  0.9965 -0.2066
  628MOL0     C84711   1.385   5.033   0.352  0.1779 -0.2187 -0.2213
  628MOL0     C84712   1.267   4.989   0.297  0.2860  0.3621  0.0070
  628MOL0     H84713   0.787   4.875   0.166 -3.6158 -2.6071 -2.0409
  628MOL0     H84714   0.576   4.925   0.015 -0.0862  1.6826 -2.7669
  628MOL0     H84715   0.448   5.348  -0.037 -0.0355 -0.0849 -5.3436
  628MOL0     H84716   0.351   5.253  -0.146  0.5784 -1.3783  0.2542
  628MOL0     H84717   0.287   5.200   0.145 -1.4935  2.6046  1.1196
  628MOL0     H84718   0.245   5.361   0.094  1.8848 -0.3512  0.6785
  628MOL0     H84719   0.080   5.309  -0.049 -0.3673  0.5263 -1.4662
  628MOL0     H84720   0.156   5.162  -0.103 -1.1618 -0.2908 -0.3879
  628MOL0     H84721   0.067   5.037   0.081 -0.8201  0.0364  1.1556
  628MOL0     H84722   0.011   5.179   0.164 -3.2445 -2.4465  0.5738
  628MOL0     H84723  -0.163   5.228  -0.005  0.5371  0.6576  1.2109
  628MOL0     H84724  -0.086   5.113  -0.111  0.2368 -1.5116  0.4941
  628MOL0     H84725  -0.140   4.929   0.065 -1.5384  0.6275  2.8649
  628MOL0     H84726  -0.223   5.045   0.161  0.3720  0.7914 -0.2153
  628MOL0     H84727  -0.372   5.105  -0.019 -0.8661  0.0597 -5.9500
  628MOL0     H84728  -0.315   4.997  -0.132 -2.4541  1.7168 -0.1772
  628MOL0     H84729  -0.452   4.950   0.132 -1.3636 -1.3174  1.0091
  628MOL0     H84730  -0.378   4.806   0.045 -4.1638 -1.3390  1.3813
  628MOL0     H84731  -0.478   4.752  -0.220  0.6198  1.1867 -1.2351
  628MOL0     H84732  -0.651   4.734  -0.406 -1.2576 -0.9845 -0.8234
  628MOL0     H84733  -0.775   4.686  -0.292  1.2781 -2.0044 -0.1328
  628MOL0     H84734  -0.780   4.958  -0.432  1.6291 -1.3804 -1.1733
  628MOL0     H84735  -0.932   4.871  -0.386  1.6749  1.6485  2.1086
  628MOL0     H84736  -0.742   4.770  -0.607 -0.9469  0.0563 -3.5311
  628MOL0     H84737  -0.871   4.891  -0.641 -4.2028  0.6921  1.9609
  628MOL0     H84738  -0.897   4.608  -0.534 -0.9118  0.9655 -0.8873
  628MOL0     H84739  -0.914   4.656  -0.699  0.3487  1.8133 -1.2306
  628MOL0     H84740  -0.972   4.638  -0.342 -0.5398  2.6298 -0.0647
  628MOL0     H84741  -1.087   4.406  -0.149  0.4970 -0.4009  1.6988
  628MOL0     H84742  -0.994   4.559  -0.120  0.6320 -2.2146 -2.7455
  628MOL0     H84743  -1.151   4.527  -0.032 -2.4018  2.0080 -0.6152
  628MOL0     H84744  -1.623   4.358  -0.180  1.0141 -0.7426  0.0017
  628MOL0     H84745  -1.797   4.243  -0.040 -1.7088 -0.3886  3.1299
  628MOL0     H84746  -1.929   4.190   0.114 -0.5297  0.7142  2.7636
  628MOL0     H84747  -1.824   4.048   0.096 -2.5353 -0.5756 -0.8302
  628MOL0     H84748  -1.959   3.936   0.250 -1.9791 -0.5351  2.1689
  628MOL0     H84749  -1.857   4.019   0.367 -1.4813 -2.4351  0.9300
  628MOL0     H84750  -2.120   4.097   0.237  0.3746  1.0156 -0.0536
  628MOL0     H84751  -2.043   4.209   0.350 -1.2628  0.7179 -2.8174
  628MOL0     H84752  -2.168   3.925   0.410 -1.3639 -0.5425  0.2249
  628MOL0     H84753  -2.055   4.024   0.513  0.8980  1.0198 -1.9623
  628MOL0     H84754  -2.302   4.143   0.390 -0.5987 -1.5255 -0.6068
  628MOL0     H84755  -2.191   4.213   0.511 -2.6312 -0.5096  2.0973
  628MOL0     H84756  -2.393   3.999   0.584  0.6125 -0.3355 -3.4169
  628MOL0     H84757  -2.262   4.019   0.682 -1.4357 -0.6877  0.7182
  628MOL0     H84758  -2.459   4.231   0.567  0.1521 -0.1465  0.4947
  628MOL0     H84759  -2.337   4.261   0.699  1.0114 -0.6693 -0.2629
  628MOL0     H84760  -2.479   4.109   0.858  0.0569  0.3709  0.8795
  628MOL0     H84761  -2.570   4.074   0.705  0.9772 -0.2972  0.2856
  628MOL0     H84762  -1.530   4.276   0.298 -2.4389 -0.9545  1.1095
  628MOL0     H84763  -1.357   4.370   0.149  0.2474  0.0433 -0.3574
  628MOL0     H84764  -1.466   4.673  -0.364  0.5848  1.6808 -1.8498
  628MOL0     H84765  -1.336   4.743  -0.548 -1.0258  1.7062  1.9761
  628MOL0     H84766   0.564   5.321   0.176  1.7186  0.2489 -0.7346
  628MOL0     H84767   0.754   5.276   0.303  0.0055 -1.4721  1.7555
  628MOL0     H84768   1.062   5.203   0.473  1.3669  1.9946  2.0363
  628MOL0     H84769   1.282   5.284   0.560  1.2618  0.8764  0.0923
  628MOL0     H84770   1.483   5.376   0.496 -2.2409 -1.7982  1.3460
  628MOL0     H84771   1.495   5.291   0.652 -0.1823 -2.1303 -0.1436
  628MOL0     H84772   1.698   5.442   0.525  0.9495 -0.6149 -2.6947
  628MOL0     H84773   1.750   5.286   0.485  0.1784  1.1661 -0.3384
  628MOL0     H84774   1.839   5.298   0.713  0.0206  0.6917 -0.8552
  628MOL0     H84775   1.678   5.247   0.758  1.3239  0.3583  1.3140
  628MOL0     H84776   1.768   5.423   0.886 -0.4855  0.0263 -0.0324
  628MOL0     H84777   1.618   5.477   0.802 -0.1743 -0.4278 -3.8714
  628MOL0     H84778   1.969   5.715   0.693  1.4566  0.3467  2.3498
  628MOL0     H84779   1.486   4.998   0.331  1.5456  1.6907  2.4192
  628MOL0     H84780   1.268   4.900   0.236  3.5478 -0.7133  1.4226
  629MOL0     O84781   6.481   9.546   6.804  0.1374  0.4917 -0.5606
  629MOL0     C84782   6.530   9.493   6.908  0.0317  0.2197 -0.2382
  629MOL0     O84783   6.484   9.385   6.970  0.1315  0.7926  0.1913
  629MOL0     C84784   6.361   9.344   6.949 -0.3527  0.7257 -0.2730
  629MOL0     C84785   6.246   9.432   6.978  0.4584 -0.6432 -0.9380
  629MOL0     C84786   6.112   9.386   6.986 -0.5299  0.0898 -0.2822
  629MOL0     C84787   6.088   9.255   6.946  0.0684 -0.0742 -0.3625
  629MOL0     O84788   5.953   9.224   6.954 -0.6297  0.1931  0.8753
  629MOL0     C84789   5.900   9.145   6.847 -0.1705 -0.2591  0.1865
  629MOL0     C84790   5.761   9.107   6.897  1.0458 -0.4011  0.8337
  629MOL0     C84791   5.700   9.007   6.793  0.1870 -0.7717  0.5662
  629MOL0     C84792   5.557   8.965   6.831  0.6315  0.3614  0.1553
  629MOL0     C84793   5.515   8.846   6.745  0.4555  0.0402  0.3464
  629MOL0     C84794   5.376   8.790   6.773 -0.4785  1.4526  0.4841
  629MOL0     C84795   5.333   8.678   6.685 -0.0323 -0.6848  0.5034
  629MOL0     C84796   5.189   8.664   6.682 -0.0879  0.4733  0.3691
  629MOL0     N84797   5.138   8.585   6.576  0.3917  0.5116  0.3334
  629MOL0     C84798   5.141   8.444   6.570  0.3792 -0.6556 -0.3719
  629MOL0     C84799   5.110   8.411   6.445  0.9299  0.0073 -0.0593
  629MOL0     C84800   5.105   8.271   6.409  0.8170  0.7468  0.4049
  629MOL0     C84801   5.233   8.219   6.356  0.1535  0.9671  0.0297
  629MOL0     C84802   5.336   8.166   6.460 -0.6652 -0.5324 -0.3787
  629MOL0     C84803   5.474   8.146   6.401 -0.6478  0.3384 -0.3350
  629MOL0     O84804   5.571   8.103   6.503 -0.0035  0.7310  0.3721
  629MOL0     C84805   5.642   8.195   6.572 -0.1868 -0.5014 -0.5835
  629MOL0     C84806   5.768   8.154   6.618 -0.1115 -0.1878 -0.5261
  629MOL0     C84807   5.837   8.243   6.703 -1.0809 -0.5693  0.4126
  629MOL0     C84808   5.971   8.188   6.751  0.1063 -0.5384  1.0774
  629MOL0     C84809   5.790   8.371   6.741 -1.1163 -0.7274  0.2327
  629MOL0     C84810   5.870   8.471   6.816 -0.3294 -0.4838  0.0902
  629MOL0     O84811   5.942   8.430   6.920 -0.2467 -0.0079  0.3082
  629MOL0     C84812   6.009   8.535   6.995  0.5112 -0.1069  0.5318
  629MOL0     C84813   5.989   8.545   7.138 -0.5986 -0.2263  0.1514
  629MOL0     C84814   6.057   8.650   7.204 -0.1728 -0.2032 -0.3759
  629MOL0     C84815   6.139   8.747   7.141  0.5397 -0.1980  0.5223
  629MOL0     O84816   6.194   8.850   7.217  1.0730  0.5022 -1.1882
  629MOL0     C84817   6.336   8.833   7.210 -0.1312 -0.0721  0.0972
  629MOL0     C84818   6.380   8.907   7.336 -0.9337  0.1995 -0.7112
  629MOL0     C84819   6.537   8.933   7.340  0.1219  0.3359 -1.3037
  629MOL0     C84820   6.630   8.815   7.341 -0.1926 -0.2956 -0.2742
  629MOL0     C84821   6.633   8.745   7.482 -0.9700  0.1837 -0.0087
  629MOL0     C84822   6.659   8.837   7.602 -0.6828 -0.4092 -0.5019
  629MOL0     C84823   6.650   8.754   7.728  0.2606 -1.1354  0.5537
  629MOL0     C84824   6.698   8.832   7.851  0.1409 -0.3992 -0.2930
  629MOL0    Cl84825   6.880   8.829   7.855  0.0919 -0.5689 -0.2297
  629MOL0     C84826   6.153   8.737   7.003  0.4341  1.3233  0.2869
  629MOL0     C84827   6.089   8.634   6.933  0.3332 -0.4490 -0.2341
  629MOL0     O84828   5.848   8.588   6.793  0.4455 -0.0509  0.3552
  629MOL0     C84829   5.662   8.409   6.689 -0.6949 -0.9021  0.0546
  629MOL0     C84830   5.585   8.323   6.607 -0.9356  0.0459  0.0692
  629MOL0     N84831   5.096   8.525   6.372  0.6288 -0.6885  0.7790
  629MOL0     N84832   5.120   8.630   6.450 -0.3312  0.1300  0.0537
  629MOL0     C84833   6.193   9.178   6.893  0.4163 -0.0973  0.7696
  629MOL0     C84834   6.326   9.225   6.886  0.6837  0.1753  0.0636
  629MOL0     C84835   6.649   9.560   6.961  0.5212  0.4055 -0.0911
  629MOL0     C84836   6.699   9.516   7.092  0.1709 -0.8356  0.1496
  629MOL0     C84837   6.812   9.571   7.145 -0.0517 -0.3668 -0.2319
  629MOL0     C84838   6.889   9.663   7.073 -1.0374 -0.3788 -0.6290
  629MOL0     O84839   7.018   9.707   7.114 -0.2127  0.1714 -0.0518
  629MOL0     C84840   7.112   9.720   7.009  0.4787 -0.4221 -0.2761
  629MOL0     C84841   7.258   9.682   7.036  0.3254 -0.4001  0.1649
  629MOL0     C84842   7.304   9.755   7.163 -0.2708 -0.3874 -0.5482
  629MOL0     C84843   7.431   9.711   7.235 -0.6193  0.0229 -0.5979
  629MOL0     C84844   7.547   9.727   7.153  0.0577 -0.0354 -0.4022
  629MOL0     C84845   7.645   9.735   7.074  0.0730 -0.8055 -0.6290
  629MOL0     C84846   6.830   9.713   6.950 -0.6134  0.0037  0.5002
  629MOL0     C84847   6.718   9.660   6.890  0.6403 -0.7808 -0.1163
  629MOL0     H84848   6.250   9.534   7.013  1.1626 -0.7476 -0.7069
  629MOL0     H84849   6.028   9.444   7.023  0.6950  0.7579  1.6155
  629MOL0     H84850   5.891   9.202   6.754  0.8316  0.3528  0.4440
  629MOL0     H84851   5.957   9.052   6.833 -0.5625 -0.6142  0.9066
  629MOL0     H84852   5.768   9.063   6.997 -0.1188 -1.0933  0.6334
  629MOL0     H84853   5.709   9.203   6.895 -0.3283 -1.1262  0.2974
  629MOL0     H84854   5.698   9.062   6.698 -1.4102 -1.7580  0.0007
  629MOL0     H84855   5.756   8.913   6.787  1.0441 -0.1995 -1.0459
  629MOL0     H84856   5.549   8.940   6.938 -4.7387  1.4191  0.2708
  629MOL0     H84857   5.491   9.050   6.816  2.2998  1.7444  0.2556
  629MOL0     H84858   5.525   8.883   6.642  1.2385 -1.3283 -0.0882
  629MOL0     H84859   5.594   8.773   6.763 -1.0698 -1.3145  1.8536
  629MOL0     H84860   5.382   8.740   6.871 -0.7832 -1.7783 -1.0073
  629MOL0     H84861   5.308   8.875   6.762 -0.5224  1.0044 -6.2102
  629MOL0     H84862   5.370   8.694   6.583 -1.4268  1.1521  0.2293
  629MOL0     H84863   5.372   8.580   6.716  2.7994  1.0358  2.8655
  629MOL0     H84864   5.144   8.763   6.672  0.0289  0.7011  1.8731
  629MOL0     H84865   5.159   8.621   6.778  0.7968  1.3655  1.0707
  629MOL0     H84866   5.171   8.375   6.648  2.4422 -0.3258 -0.8196
  629MOL0     H84867   5.065   8.212   6.492 -2.0366  2.0243  0.0605
  629MOL0     H84868   5.033   8.258   6.328  0.6816 -1.0224  0.7613
  629MOL0     H84869   5.279   8.303   6.303  1.3088 -2.0042 -4.2022
  629MOL0     H84870   5.224   8.144   6.277 -1.2249  2.4178 -1.2770
  629MOL0     H84871   5.310   8.067   6.498 -0.5074 -0.3931  0.1018
  629MOL0     H84872   5.345   8.235   6.544  0.6340  1.6299 -2.1741
  629MOL0     H84873   5.512   8.237   6.353  1.1735 -0.2101  0.0003
  629MOL0     H84874   5.470   8.077   6.317  0.4037 -2.6312  1.8621
  629MOL0     H84875   5.812   8.059   6.591  0.6515 -0.3114  1.0347
  629MOL0     H84876   6.051   8.263   6.744 -0.5747  0.0485 -1.5557
  629MOL0     H84877   5.952   8.153   6.853 -0.8048  0.6986  1.3594
  629MOL0     H84878   6.003   8.105   6.688  1.9023  0.6391  0.3531
  629MOL0     H84879   5.925   8.475   7.191 -0.5686 -1.6544 -1.6189
  629MOL0     H84880   6.045   8.658   7.312  1.0746  0.7660 -0.2820
  629MOL0     H84881   6.374   8.730   7.205  0.5863  0.1210  1.2014
  629MOL0     H84882   6.379   8.886   7.124 -0.7334  0.6093  0.2086
  629MOL0     H84883   6.322   9.000   7.337 -4.6324 -1.8977 -0.3654
  629MOL0     H84884   6.364   8.848   7.426  0.7583 -0.9969 -1.1359
  629MOL0     H84885   6.561   8.996   7.427  2.9411 -0.1231 -1.6352
  629MOL0     H84886   6.561   8.988   7.249 -0.7061 -0.2809 -1.9082
  629MOL0     H84887   6.599   8.745   7.262  2.1114  0.4011 -1.9027
  629MOL0     H84888   6.733   8.846   7.324 -0.6222  0.5326 -1.4629
  629MOL0     H84889   6.712   8.670   7.493  1.4745  2.9723  4.2834
  629MOL0     H84890   6.533   8.711   7.509  0.1830 -3.9514 -0.3207
  629MOL0     H84891   6.755   8.888   7.595 -1.1011  0.3534 -0.8032
  629MOL0     H84892   6.582   8.915   7.606  2.0613  2.6853 -2.2438
  629MOL0     H84893   6.706   8.661   7.715 -3.2148 -3.4493  0.9298
  629MOL0     H84894   6.548   8.718   7.744 -0.5659  1.4449  1.5820
  629MOL0     H84895   6.653   8.784   7.938 -0.7048 -0.2458 -0.6405
  629MOL0     H84896   6.658   8.933   7.842 -1.1182 -0.8651 -0.1391
  629MOL0     H84897   6.223   8.796   6.945 -0.2819  2.0456  0.1346
  629MOL0     H84898   6.106   8.621   6.826  1.0129 -0.8533 -0.0859
  629MOL0     H84899   5.615   8.504   6.710  3.5533  1.4385  0.1094
  629MOL0     H84900   5.492   8.358   6.564 -1.8403 -0.9426  1.1301
  629MOL0     H84901   6.174   9.082   6.846  4.5115 -0.9988  0.5980
  629MOL0     H84902   6.407   9.160   6.854  0.4740 -0.5611  1.0077
  629MOL0     H84903   6.655   9.440   7.155  0.2654  0.6049  2.0375
  629MOL0     H84904   6.853   9.550   7.244  1.0256 -2.8866 -1.1204
  629MOL0     H84905   7.085   9.673   6.914  2.5081 -0.0903 -1.0823
  629MOL0     H84906   7.112   9.830   7.000 -1.5889 -0.2561  1.2080
  629MOL0     H84907   7.322   9.695   6.949 -0.4756 -0.0772 -0.3826
  629MOL0     H84908   7.254   9.575   7.057  1.3123 -0.3702  0.5552
  629MOL0     H84909   7.225   9.771   7.237  1.4915  0.2797  1.2593
  629MOL0     H84910   7.320   9.853   7.119 -2.4468 -0.9864 -2.8991
  629MOL0     H84911   7.414   9.604   7.250  2.8243 -0.8631 -2.0691
  629MOL0     H84912   7.428   9.762   7.332 -2.1271  0.6844 -0.9668
  629MOL0     H84913   7.721   9.747   6.999  1.3029 -1.0187  0.5390
  629MOL0     H84914   6.881   9.799   6.908 -0.4559 -0.3553 -0.0556
  629MOL0     H84915   6.675   9.705   6.801 -1.9903  1.5871  2.1602
  630MOL0     O84916   7.007   9.375   6.829 -0.4036  0.0120  0.0878
  630MOL0     C84917   6.930   9.282   6.864  0.6101 -0.4174  0.0117
  630MOL0     O84918   6.848   9.208   6.784 -0.0839 -0.0443 -0.3483
  630MOL0     C84919   6.823   9.257   6.663  0.5056 -0.2979 -0.4132
  630MOL0     C84920   6.875   9.199   6.551 -0.2915 -1.2305  0.8747
  630MOL0     C84921   6.855   9.254   6.424 -0.5539  0.2911 -0.5996
  630MOL0     C84922   6.757   9.355   6.404 -0.7776  0.5163  0.5816
  630MOL0     O84923   6.740   9.395   6.275 -0.7833  0.0728  0.3515
  630MOL0     C84924   6.684   9.526   6.258 -0.3547  0.2991 -0.3643
  630MOL0     C84925   6.690   9.560   6.118 -0.0103  0.9542 -0.0462
  630MOL0     C84926   6.572   9.492   6.039  0.4699 -0.0739  0.0521
  630MOL0     C84927   6.599   9.506   5.889 -0.1970  0.2759  0.3635
  630MOL0     C84928   6.488   9.445   5.802 -0.0347  0.0145 -0.0454
  630MOL0     C84929   6.506   9.292   5.790 -0.4094 -0.4548 -0.4345
  630MOL0     C84930   6.620   9.249   5.702 -0.2277  0.3393  0.2470
  630MOL0     C84931   6.607   9.278   5.553 -0.6059 -0.4667  0.1059
  630MOL0     N84932   6.710   9.200   5.488 -0.4516 -0.7506  0.0278
  630MOL0     C84933   6.844   9.195   5.535 -0.1697 -0.1014 -0.1565
  630MOL0     C84934   6.914   9.113   5.447  0.7655  0.2707  0.2901
  630MOL0     C84935   7.056   9.087   5.424 -0.1041  0.3971  0.4650
  630MOL0     C84936   7.074   8.969   5.325 -0.0677 -0.5825  0.1941
  630MOL0     C84937   7.222   8.952   5.298  0.3432 -0.3584 -0.4538
  630MOL0     C84938   7.309   8.888   5.410  0.0882 -0.2911 -0.5612
  630MOL0     O84939   7.445   8.885   5.365  0.7110  0.0934 -0.1758
  630MOL0     C84940   7.475   8.769   5.286 -0.0631 -0.0318 -0.4537
  630MOL0     C84941   7.393   8.658   5.249 -0.2312 -0.0553 -0.4602
  630MOL0     C84942   7.436   8.561   5.164  0.4401  0.1996  0.7333
  630MOL0     C84943   7.350   8.436   5.146  0.1599 -0.2464 -0.3542
  630MOL0     C84944   7.567   8.574   5.105 -0.2462 -0.4176  0.0647
  630MOL0     C84945   7.628   8.481   5.007 -0.5383 -0.4708 -0.1260
  630MOL0     O84946   7.749   8.512   4.953 -0.9142 -0.1711  0.0103
  630MOL0     C84947   7.820   8.416   4.907  0.5134 -0.8102  0.1790
  630MOL0     C84948   7.859   8.426   4.772 -0.7547  0.3772 -0.7471
  630MOL0     C84949   7.947   8.337   4.715  0.8105  0.4967  0.4494
  630MOL0     C84950   7.998   8.229   4.787 -0.3751  0.2425 -0.6015
  630MOL0     O84951   8.100   8.157   4.720  0.7996 -0.0224 -0.7802
  630MOL0     C84952   8.153   8.042   4.791  0.3029  0.0121  0.9609
  630MOL0     C84953   8.270   8.089   4.883  0.3795  1.1583  0.3325
  630MOL0     C84954   8.281   7.993   5.000 -0.3718 -0.1058  0.3299
  630MOL0     C84955   8.322   7.853   4.965 -0.3166  0.8369  0.0618
  630MOL0     C84956   8.443   7.838   4.865  0.1263  0.6025  0.9346
  630MOL0     C84957   8.572   7.860   4.935  0.1687 -0.1985 -0.2829
  630MOL0     C84958   8.692   7.822   4.849 -0.4495 -0.5606  0.3497
  630MOL0     C84959   8.726   7.926   4.735 -0.2061  0.4134  0.1629
  630MOL0    Cl84960   8.818   8.056   4.803 -0.4030  0.1714 -0.2596
  630MOL0     C84961   7.953   8.215   4.922  0.0757 -0.2602 -0.4764
  630MOL0     C84962   7.863   8.300   4.981  0.1831 -0.5819 -0.3232
  630MOL0     O84963   7.562   8.386   4.967  0.2503 -0.0440 -0.3079
  630MOL0     C84964   7.639   8.692   5.138 -0.1544  1.0525 -0.4048
  630MOL0     C84965   7.596   8.789   5.232 -0.2654  0.1598  0.0023
  630MOL0     N84966   6.816   9.057   5.357 -0.0631  0.2133 -0.8921
  630MOL0     N84967   6.698   9.103   5.389 -0.2021  0.7522  0.1772
  630MOL0     C84968   6.689   9.403   6.517  0.5634 -0.0852  0.4326
  630MOL0     C84969   6.730   9.356   6.647  0.2594 -0.1748 -0.0262
  630MOL0     C84970   6.923   9.262   7.005 -1.5365  0.5855 -0.3381
  630MOL0     C84971   6.813   9.193   7.064  0.4258 -0.5181 -0.4751
  630MOL0     C84972   6.801   9.166   7.202 -0.3435 -0.7983  0.0710
  630MOL0     C84973   6.910   9.203   7.279  0.1264  0.7094  0.2486
  630MOL0     O84974   6.891   9.165   7.410 -0.8011  0.3754  0.0604
  630MOL0     C84975   6.881   9.284   7.490 -1.6540  0.2099  0.5363
  630MOL0     C84976   6.859   9.257   7.637  0.2862 -0.3862  0.7053
  630MOL0     C84977   6.951   9.149   7.700  0.2514  0.2787  0.0933
  630MOL0     C84978   7.085   9.208   7.749 -0.2410  1.1164  0.0482
  630MOL0     C84979   7.187   9.218   7.640 -0.6085  0.5133 -1.0947
  630MOL0     C84980   7.270   9.203   7.549 -0.5096  0.1730 -0.5318
  630MOL0     C84981   7.032   9.251   7.229 -0.0507 -0.7679  1.1064
  630MOL0     C84982   7.028   9.286   7.095  0.2635 -0.0165 -0.4783
  630MOL0     H84983   6.932   9.107   6.557  0.1798 -0.8670  2.2924
  630MOL0     H84984   6.913   9.212   6.342  2.7168 -1.3487  2.3301
  630MOL0     H84985   6.582   9.554   6.287 -0.3507  0.6988 -0.7185
  630MOL0     H84986   6.745   9.599   6.312  0.3413  0.2677 -1.0927
  630MOL0     H84987   6.679   9.668   6.108 -2.9461  0.7541  0.2572
  630MOL0     H84988   6.787   9.532   6.075  0.2013  1.1636  0.2914
  630MOL0     H84989   6.565   9.386   6.064 -1.1191  0.2474  1.1174
  630MOL0     H84990   6.480   9.542   6.071  0.9578  1.8362 -1.3251
  630MOL0     H84991   6.626   9.602   5.844  3.1280 -0.7590 -0.1683
  630MOL0     H84992   6.694   9.453   5.871  0.1671  0.5978  1.2826
  630MOL0     H84993   6.394   9.467   5.853 -0.7362 -0.3290 -1.1617
  630MOL0     H84994   6.491   9.478   5.698 -1.0078 -1.5045 -0.5890
  630MOL0     H84995   6.524   9.258   5.892  0.1513 -0.8163 -0.6531
  630MOL0     H84996   6.412   9.248   5.755 -0.8759  0.9450 -1.0335
  630MOL0     H84997   6.716   9.276   5.747 -0.1928  1.7438 -0.6144
  630MOL0     H84998   6.610   9.141   5.716  1.1390  0.4362  2.4945
  630MOL0     H84999   6.613   9.387   5.542  2.0598 -0.3406  1.9797
  630MOL0     H85000   6.516   9.242   5.504  0.0454 -1.2289 -0.5547
  630MOL0     H85001   6.873   9.258   5.618  0.1372 -1.9471  1.2027
  630MOL0     H85002   7.112   9.177   5.396  1.9545 -0.6823  0.8655
  630MOL0     H85003   7.113   9.058   5.513  2.6195  0.7179 -1.0426
  630MOL0     H85004   7.024   9.004   5.235  0.0684  0.5519  0.5351
  630MOL0     H85005   7.025   8.878   5.360  0.5012 -0.5731  1.0622
  630MOL0     H85006   7.255   9.056   5.287  0.3131 -0.0396  1.8649
  630MOL0     H85007   7.253   8.906   5.204  2.0092  0.1898 -0.2030
  630MOL0     H85008   7.258   8.792   5.425 -0.8553  0.4587  1.3864
  630MOL0     H85009   7.305   8.937   5.507  1.7556 -0.0147 -0.6141
  630MOL0     H85010   7.300   8.644   5.305 -1.2212  0.7749 -1.8493
  630MOL0     H85011   7.409   8.349   5.176  1.0616  0.7419  0.8132
  630MOL0     H85012   7.260   8.443   5.207 -0.3672 -2.4556 -0.7994
  630MOL0     H85013   7.320   8.427   5.041  0.8029 -1.1628 -0.4711
  630MOL0     H85014   7.816   8.502   4.708 -1.0260  1.4340  0.6353
  630MOL0     H85015   7.966   8.342   4.608 -0.2669  1.0516  0.2714
  630MOL0     H85016   8.077   7.985   4.846  0.5839 -2.2798 -0.8535
  630MOL0     H85017   8.208   7.978   4.722  0.3945  0.5404  0.5433
  630MOL0     H85018   8.361   8.082   4.822  0.4011 -1.2163  0.5597
  630MOL0     H85019   8.254   8.190   4.923 -2.7970 -0.3705  3.4575
  630MOL0     H85020   8.191   7.990   5.062 -0.6660  2.0859  0.1069
  630MOL0     H85021   8.358   8.041   5.062  0.2954  0.2817 -0.7680
  630MOL0     H85022   8.350   7.798   5.055 -0.2005  1.4362  0.3978
  630MOL0     H85023   8.241   7.805   4.910  1.2988 -1.5750 -0.3631
  630MOL0     H85024   8.428   7.896   4.774 -1.2236 -0.5627  0.3903
  630MOL0     H85025   8.436   7.734   4.833  1.9892  0.2215  1.5932
  630MOL0     H85026   8.580   7.958   4.983  4.6279  0.1746 -1.3958
  630MOL0     H85027   8.574   7.802   5.028  0.6252  2.3305  1.3968
  630MOL0     H85028   8.671   7.724   4.806 -1.7844  0.7637 -2.2713
  630MOL0     H85029   8.783   7.816   4.909  0.8526  0.1384 -1.4453
  630MOL0     H85030   8.637   7.969   4.687  0.8456  0.7809 -1.5383
  630MOL0     H85031   8.790   7.882   4.658  1.2356 -0.5927  1.8555
  630MOL0     H85032   7.985   8.131   4.983 -2.4049  0.0006  1.3492
  630MOL0     H85033   7.839   8.270   5.083 -0.1145 -0.5577 -0.3843
  630MOL0     H85034   7.744   8.700   5.110  0.6444 -2.4352  1.0330
  630MOL0     H85035   7.641   8.883   5.263 -2.5740  0.5682  2.5223
  630MOL0     H85036   6.610   9.476   6.507 -0.7436 -1.7412 -2.9509
  630MOL0     H85037   6.665   9.386   6.728 -0.7582 -1.5903 -0.2716
  630MOL0     H85038   6.742   9.173   6.985  0.5823  1.3536 -1.1515
  630MOL0     H85039   6.707   9.128   7.242 -1.2539  1.8912  0.6784
  630MOL0     H85040   6.980   9.329   7.477 -0.5666 -1.8301  1.2961
  630MOL0     H85041   6.811   9.358   7.451 -0.3478  0.8757 -0.6649
  630MOL0     H85042   6.757   9.219   7.645 -0.6891  2.1468  0.9318
  630MOL0     H85043   6.856   9.352   7.691 -0.0848  1.1933 -1.9230
  630MOL0     H85044   6.967   9.058   7.643 -2.4035  0.0178 -0.3903
  630MOL0     H85045   6.906   9.116   7.795  2.0276 -2.8655 -0.0370
  630MOL0     H85046   7.124   9.135   7.820 -0.8824 -0.3310 -1.0332
  630MOL0     H85047   7.076   9.310   7.786 -1.2419  0.7943  0.7294
  630MOL0     H85048   7.339   9.195   7.467  0.5898 -2.3052  0.5362
  630MOL0     H85049   7.126   9.264   7.281  0.6883  0.1965 -0.3959
  630MOL0     H85050   7.121   9.323   7.053  0.2733  1.0359  0.4292
  631MOL0     O85051   5.632   7.080   9.104  0.5174  0.3526 -0.1997
  631MOL0     C85052   5.620   6.967   9.154  0.5536  0.9762 -0.3189
  631MOL0     O85053   5.493   6.908   9.183 -0.0847  0.2505 -0.0863
  631MOL0     C85054   5.368   6.978   9.182 -0.2906 -0.0009 -0.0049
  631MOL0     C85055   5.358   7.096   9.257  0.8334 -0.0896  0.4798
  631MOL0     C85056   5.248   7.179   9.258 -0.5098  0.3250  0.4057
  631MOL0     C85057   5.136   7.142   9.188  0.3427  0.9969  0.6607
  631MOL0     O85058   5.022   7.221   9.181 -0.0075 -0.0753  0.4469
  631MOL0     C85059   4.921   7.168   9.266  0.1296  0.6715  0.0912
  631MOL0     C85060   4.829   7.271   9.308 -0.1289 -0.4886 -0.2237
  631MOL0     C85061   4.712   7.225   9.398  0.2791 -0.5773  0.4485
  631MOL0     C85062   4.637   7.098   9.330  0.7138  0.4040 -0.1792
  631MOL0     C85063   4.489   7.089   9.391 -0.6651 -0.5174 -0.4970
  631MOL0     C85064   4.395   7.193   9.331 -0.5564  0.3011 -0.1863
  631MOL0     C85065   4.257   7.151   9.363  0.0566  0.8327 -0.5983
  631MOL0     C85066   4.161   7.266   9.344  0.4894 -0.8268  1.1741
  631MOL0     N85067   4.031   7.214   9.390 -0.7682  0.1823 -0.3147
  631MOL0     C85068   3.945   7.282   9.466 -0.0018 -0.2148  0.7995
  631MOL0     C85069   3.837   7.203   9.479  0.8659 -0.9060 -0.2117
  631MOL0     C85070   3.721   7.238   9.579 -0.5168  0.6305  0.4229
  631MOL0     C85071   3.580   7.180   9.542  0.4675  0.1104 -0.6599
  631MOL0     C85072   3.511   7.149   9.682  0.8246 -0.0838 -0.0862
  631MOL0     C85073   3.351   7.141   9.675 -0.2911  0.1567 -0.1136
  631MOL0     O85074   3.290   7.162   9.801  0.1093  0.2482 -1.3741
  631MOL0     C85075   3.157   7.122   9.814 -0.6290 -0.1920 -0.4998
  631MOL0     C85076   3.079   7.081   9.708 -0.1788  0.2616 -0.5149
  631MOL0     C85077   2.944   7.046   9.734 -0.1816 -0.3861 -0.2174
  631MOL0     C85078   2.860   6.993   9.625 -0.2912 -0.6805 -0.7291
  631MOL0     C85079   2.899   7.034   9.870  0.4648 -0.3120 -0.7288
  631MOL0     C85080   2.782   6.961   9.910  0.2961 -0.7217 -0.1553
  631MOL0     O85081   2.776   6.829   9.879  0.0990 -0.4657 -0.3238
  631MOL0     C85082   2.650   6.773   9.866  0.3253  0.3793  0.6295
  631MOL0     C85083   2.615   6.656   9.938  0.1369  0.2785  0.1921
  631MOL0     C85084   2.489   6.586   9.918 -0.3953 -0.1372 -0.0657
  631MOL0     C85085   2.393   6.633   9.828 -0.1643  0.6771  0.0674
  631MOL0     O85086   2.268   6.588   9.813  0.3830 -0.1986  0.1076
  631MOL0     C85087   2.224   6.464   9.873  0.3743  0.7160  0.3366
  631MOL0     C85088   2.074   6.460   9.880  0.2023  0.1064 -0.6062
  631MOL0     C85089   2.002   6.458   9.750 -0.0275 -0.4800 -0.1323
  631MOL0     C85090   1.849   6.476   9.778 -0.2522  0.4717 -0.1455
  631MOL0     C85091   1.779   6.555   9.668 -0.2597 -0.6745  0.3771
  631MOL0     C85092   1.630   6.523   9.660 -0.6936 -0.5392 -0.1121
  631MOL0     C85093   1.576   6.597   9.782 -0.7765 -0.3207  0.2223
  631MOL0     C85094   1.432   6.574   9.789  0.2905 -0.2372 -0.4818
  631MOL0    Cl85095   1.367   6.415   9.835  0.0851  0.2009 -0.0152
  631MOL0     C85096   2.431   6.751   9.768 -0.0827  0.2320 -0.5013
  631MOL0     C85097   2.544   6.820   9.793 -0.4271  0.0534  0.1594
  631MOL0     O85098   2.701   7.026   9.975 -0.9120  0.3388  0.6469
  631MOL0     C85099   2.983   7.071   9.974  0.5242  0.6763 -0.0143
  631MOL0     C85100   3.115   7.113   9.950  0.5053  0.5181 -0.2630
  631MOL0     N85101   3.849   7.099   9.389 -0.2226 -0.2362  0.7692
  631MOL0     N85102   3.966   7.107   9.330 -0.3079  0.3712 -0.4163
  631MOL0     C85103   5.135   7.014   9.122 -0.4750  0.4282 -0.5805
  631MOL0     C85104   5.250   6.935   9.126  0.0940  0.6181 -0.1563
  631MOL0     C85105   5.732   6.886   9.174  0.0141  0.3959  0.5557
  631MOL0     C85106   5.729   6.749   9.178  0.4994  0.4494  0.0202
  631MOL0     C85107   5.846   6.668   9.200  0.0415  0.2624 -0.1197
  631MOL0     C85108   5.963   6.734   9.231 -1.8024 -0.1030 -1.8080
  631MOL0     O85109   6.085   6.672   9.248 -0.7165  0.1102 -0.3450
  631MOL0     C85110   6.104   6.541   9.198  0.0473  0.3496 -0.1314
  631MOL0     C85111   6.248   6.518   9.155 -0.4894 -0.7368  0.2731
  631MOL0     C85112   6.342   6.530   9.276  0.3944  0.1870  0.5383
  631MOL0     C85113   6.487   6.479   9.256  0.6838 -0.7791  0.0561
  631MOL0     C85114   6.485   6.351   9.196 -0.0721  0.5966 -0.3828
  631MOL0     C85115   6.488   6.241   9.145  0.1527  0.1101 -0.3671
  631MOL0     C85116   5.970   6.868   9.240  0.6157  0.6241  0.7744
  631MOL0     C85117   5.858   6.948   9.193 -0.3258 -0.0351 -0.5752
  631MOL0     H85118   5.451   7.123   9.305 -0.0111  1.6667  1.2197
  631MOL0     H85119   5.252   7.281   9.295 -0.2829  1.4365 -2.3901
  631MOL0     H85120   4.872   7.092   9.205  0.3276 -0.6450  1.5251
  631MOL0     H85121   4.953   7.111   9.354 -0.7636 -3.0939 -1.8338
  631MOL0     H85122   4.879   7.357   9.355 -0.0032  0.5660 -2.1803
  631MOL0     H85123   4.775   7.315   9.223 -1.2494 -3.2999 -1.0669
  631MOL0     H85124   4.747   7.198   9.497 -2.0606 -0.0198  1.4972
  631MOL0     H85125   4.642   7.309   9.408 -0.1719 -0.8544 -0.2382
  631MOL0     H85126   4.641   7.114   9.222  1.2807 -0.2328 -0.2565
  631MOL0     H85127   4.687   7.006   9.361  0.3410  0.3804  0.3724
  631MOL0     H85128   4.461   6.990   9.356  0.1005 -0.9640  0.1307
  631MOL0     H85129   4.491   7.078   9.500  1.3593 -4.3389 -0.7458
  631MOL0     H85130   4.421   7.292   9.369 -3.9336  1.9882 -1.8347
  631MOL0     H85131   4.416   7.202   9.224 -1.1548  0.3765 -0.3022
  631MOL0     H85132   4.236   7.072   9.290 -0.9353 -0.4863  1.0332
  631MOL0     H85133   4.250   7.106   9.463 -0.4243 -4.5128 -2.7006
  631MOL0     H85134   4.153   7.278   9.235 -2.5430  0.8720  1.4693
  631MOL0     H85135   4.190   7.364   9.383 -0.3663  0.8432 -1.9805
  631MOL0     H85136   3.954   7.384   9.502  3.9515  0.4105 -1.3919
  631MOL0     H85137   3.761   7.192   9.669  0.3435  1.7837  0.6578
  631MOL0     H85138   3.703   7.346   9.590 -1.1957  0.4905  0.7429
  631MOL0     H85139   3.594   7.088   9.484 -1.7356  0.1990 -1.4486
  631MOL0     H85140   3.531   7.258   9.484  1.6943  2.3557  1.1631
  631MOL0     H85141   3.544   7.218   9.761 -2.0881 -0.4125  1.5752
  631MOL0     H85142   3.535   7.047   9.715  1.1772  0.3746  1.1480
  631MOL0     H85143   3.325   7.045   9.629 -0.6189  0.0387  0.3119
  631MOL0     H85144   3.327   7.227   9.612  5.2648  1.6766 -0.7113
  631MOL0     H85145   3.117   7.083   9.607  1.8126 -2.9300  0.0485
  631MOL0     H85146   2.867   6.884   9.629  1.0397 -0.5762  0.9920
  631MOL0     H85147   2.756   7.018   9.646  0.3200  1.4746 -0.0302
  631MOL0     H85148   2.887   7.022   9.523 -0.0583 -2.9800 -1.3750
  631MOL0     H85149   2.692   6.614  10.002  1.8778  2.8541 -0.0258
  631MOL0     H85150   2.476   6.492   9.970  1.8283 -0.5926 -0.2091
  631MOL0     H85151   2.250   6.386   9.802 -1.1310  1.9582 -1.6777
  631MOL0     H85152   2.261   6.447   9.975  2.1538 -2.9444 -0.7677
  631MOL0     H85153   2.048   6.361   9.919  0.3901  0.7001  1.1407
  631MOL0     H85154   2.032   6.534   9.948  0.0002 -1.6765  1.3278
  631MOL0     H85155   2.026   6.369   9.692  1.8919 -0.1540  0.1086
  631MOL0     H85156   2.048   6.537   9.689  4.1523 -3.1434 -0.8308
  631MOL0     H85157   1.805   6.377   9.792 -0.8403  0.8875  1.1539
  631MOL0     H85158   1.832   6.516   9.879 -0.3725  0.3203 -0.1057
  631MOL0     H85159   1.828   6.530   9.573  0.4122  1.0910  0.2169
  631MOL0     H85160   1.792   6.662   9.685  0.9376 -0.9671  1.4104
  631MOL0     H85161   1.592   6.570   9.570  0.3044  0.4790 -0.0233
  631MOL0     H85162   1.598   6.419   9.671 -0.0914 -0.7000  0.1874
  631MOL0     H85163   1.608   6.699   9.762  2.0846 -1.0185  0.7466
  631MOL0     H85164   1.631   6.567   9.871  1.0242 -1.4860 -1.2134
  631MOL0     H85165   1.392   6.607   9.693  2.4830  0.4244 -1.2142
  631MOL0     H85166   1.398   6.636   9.873  2.1719 -0.2103  0.2953
  631MOL0     H85167   2.353   6.798   9.708 -0.1929 -0.1805 -0.6868
  631MOL0     H85168   2.551   6.914   9.739  4.7487 -0.3452 -0.3980
  631MOL0     H85169   2.947   7.048  10.074  1.1601 -0.0587  0.0595
  631MOL0     H85170   3.194   7.142  10.019  0.8424  0.1360 -0.4837
  631MOL0     H85171   5.048   6.979   9.067 -0.7009 -2.5720  1.4645
  631MOL0     H85172   5.244   6.838   9.077  0.0380 -0.4285  1.8097
  631MOL0     H85173   5.640   6.702   9.139  0.2276  0.6699  0.3641
  631MOL0     H85174   5.850   6.560   9.197  1.6414  0.2819  0.2191
  631MOL0     H85175   6.073   6.467   9.272  1.7455  1.1745  1.4892
  631MOL0     H85176   6.045   6.535   9.106  0.9084 -0.2413 -0.6596
  631MOL0     H85177   6.282   6.584   9.075  1.6983 -1.6117  0.4069
  631MOL0     H85178   6.261   6.423   9.102 -2.5188 -0.5702 -0.6400
  631MOL0     H85179   6.295   6.471   9.357 -2.8657  1.8602  0.0401
  631MOL0     H85180   6.349   6.634   9.308  4.2769  0.0177  0.7203
  631MOL0     H85181   6.548   6.481   9.347 -0.0239 -0.9368  0.5389
  631MOL0     H85182   6.548   6.546   9.194  3.5307 -2.1865  1.1455
  631MOL0     H85183   6.487   6.141   9.106 -1.4767 -0.1946  0.3936
  631MOL0     H85184   6.067   6.912   9.260  0.3848  0.1854  3.1069
  631MOL0     H85185   5.884   7.053   9.184  1.3529 -0.3656  0.1066
  632MOL0     O85186   3.008   8.543   5.172 -1.3473  0.5888 -1.1733
  632MOL0     C85187   3.036   8.541   5.293  0.2302  0.4976  0.9793
  632MOL0     O85188   2.945   8.551   5.402 -0.9188  0.2024 -0.6772
  632MOL0     C85189   2.811   8.558   5.384 -0.0055  0.3107  1.0677
  632MOL0     C85190   2.720   8.481   5.457  0.7690  0.5412 -0.5985
  632MOL0     C85191   2.578   8.496   5.440  0.0746  0.1009 -0.2317
  632MOL0     C85192   2.528   8.583   5.344  0.1596 -0.1580 -0.2802
  632MOL0     O85193   2.394   8.584   5.311  0.1190  0.5381  0.4047
  632MOL0     C85194   2.348   8.563   5.173 -0.2760 -0.2822  0.1142
  632MOL0     C85195   2.204   8.618   5.171 -0.9404 -0.2465 -0.0537
  632MOL0     C85196   2.125   8.548   5.065  0.1077 -1.0413 -0.3977
  632MOL0     C85197   1.988   8.619   5.045 -0.0657 -0.0059  0.7521
  632MOL0     C85198   1.912   8.559   4.921  0.5776  0.4035  0.4557
  632MOL0     C85199   1.767   8.608   4.902  0.0651 -0.5580 -0.0158
  632MOL0     C85200   1.758   8.759   4.860 -0.4163 -0.0917  1.3405
  632MOL0     C85201   1.843   8.764   4.728 -0.3300  0.5104 -0.0229
  632MOL0     N85202   1.831   8.890   4.657 -0.1770  0.8222 -0.3752
  632MOL0     C85203   1.716   8.969   4.628  0.0659  1.1651  0.0166
  632MOL0     C85204   1.763   9.094   4.590  0.1520 -0.5176 -0.7379
  632MOL0     C85205   1.693   9.211   4.526  0.6270  0.2575  0.9290
  632MOL0     C85206   1.546   9.204   4.533  0.8382  0.4606 -0.8232
  632MOL0     C85207   1.483   9.295   4.428  0.1842 -0.3639 -0.9966
  632MOL0     C85208   1.334   9.265   4.409 -0.5314 -1.2104 -0.2920
  632MOL0     O85209   1.272   9.254   4.533  0.0321 -0.1794 -0.4212
  632MOL0     C85210   1.135   9.263   4.549  0.2107  0.2865  0.1387
  632MOL0     C85211   1.039   9.280   4.447  0.0137 -1.2376 -0.3345
  632MOL0     C85212   0.908   9.272   4.466 -0.6692 -0.6078 -0.3955
  632MOL0     C85213   0.812   9.273   4.349  0.1161 -0.5653  0.8795
  632MOL0     C85214   0.857   9.244   4.601 -0.1423 -0.2455  0.0622
  632MOL0     C85215   0.717   9.244   4.650 -0.4163 -0.3296 -0.2337
  632MOL0     O85216   0.688   9.185   4.767 -0.3860 -0.3021 -0.0213
  632MOL0     C85217   0.580   9.219   4.827 -0.1083  0.0363 -0.3938
  632MOL0     C85218   0.488   9.124   4.860 -0.0445 -0.1499 -0.7133
  632MOL0     C85219   0.371   9.163   4.927  0.1425 -0.0497  0.4737
  632MOL0     C85220   0.323   9.296   4.937 -0.1729  0.5775  0.1183
  632MOL0     O85221   0.201   9.324   4.987 -0.1026 -0.4639 -0.5623
  632MOL0     C85222   0.113   9.398   4.895 -0.0014 -0.1524 -1.1153
  632MOL0     C85223   0.127   9.548   4.925  0.3423 -1.1416 -0.5537
  632MOL0     C85224   0.120   9.612   5.069 -0.5604 -0.7085  0.2258
  632MOL0     C85225   0.131   9.765   5.056 -0.5409  0.0513  0.0419
  632MOL0     C85226   0.163   9.826   5.199 -0.1313 -0.1768  0.9080
  632MOL0     C85227   0.147   9.975   5.205  0.2168  0.2320  0.2613
  632MOL0     C85228  -0.002  10.028   5.185  0.6646  0.3975  0.3552
  632MOL0     C85229   0.011  10.170   5.144  0.5899  0.5514 -0.6165
  632MOL0    Cl85230   0.040  10.280   5.280  0.2878 -0.3242  0.4302
  632MOL0     C85231   0.417   9.390   4.909 -1.4060  0.3152 -0.9832
  632MOL0     C85232   0.551   9.356   4.859 -0.1416 -0.0371 -0.3408
  632MOL0     O85233   0.640   9.302   4.579 -0.1894 -0.1592  0.2177
  632MOL0     C85234   0.949   9.215   4.704  0.1030  1.2587  0.2690
  632MOL0     C85235   1.087   9.223   4.677 -0.2905 -0.1662 -0.6852
  632MOL0     N85236   1.901   9.091   4.617  0.1877  0.7004  0.1010
  632MOL0     N85237   1.939   8.976   4.651  0.2038 -0.8582  0.5911
  632MOL0     C85238   2.621   8.654   5.265 -0.2603 -0.1168 -0.5279
  632MOL0     C85239   2.760   8.639   5.286  0.0412  0.1752  0.0618
  632MOL0     C85240   3.178   8.522   5.333  0.1600  1.0561 -0.2447
  632MOL0     C85241   3.286   8.512   5.240 -0.1838  0.8220 -0.6003
  632MOL0     C85242   3.427   8.505   5.270  0.1363 -0.8015 -0.0008
  632MOL0     C85243   3.461   8.507   5.410  0.0848  0.3132  0.4431
  632MOL0     O85244   3.590   8.488   5.456 -1.0259  0.2710  0.3789
  632MOL0     C85245   3.674   8.604   5.458  0.7497  0.5830  0.3238
  632MOL0     C85246   3.788   8.589   5.553 -0.7329 -0.5139  0.7622
  632MOL0     C85247   3.910   8.523   5.496  0.4401  0.6353  0.0535
  632MOL0     C85248   4.027   8.520   5.597 -0.2750 -0.0986  1.1412
  632MOL0     C85249   4.131   8.428   5.547 -0.8625 -0.6908  0.2596
  632MOL0     C85250   4.211   8.335   5.538  0.7157 -0.2386 -0.2056
  632MOL0     C85251   3.358   8.516   5.502  0.0395  0.8967  0.3221
  632MOL0     C85252   3.219   8.531   5.467 -0.7854  0.1539  0.1679
  632MOL0     H85253   2.765   8.407   5.522  1.3811  2.1898  0.9256
  632MOL0     H85254   2.505   8.425   5.478 -1.4105  0.0966 -2.8336
  632MOL0     H85255   2.417   8.594   5.095 -0.5806 -0.9417 -0.4271
  632MOL0     H85256   2.347   8.454   5.162  0.9305 -0.2648 -0.2655
  632MOL0     H85257   2.150   8.609   5.266 -0.3418  1.3211  0.4641
  632MOL0     H85258   2.215   8.722   5.141 -1.3564 -0.0446  0.4802
  632MOL0     H85259   2.180   8.547   4.971  0.0093 -0.0001 -0.4868
  632MOL0     H85260   2.088   8.449   5.091  0.1594 -0.8017  0.5994
  632MOL0     H85261   1.925   8.607   5.134 -0.9443 -2.4152 -0.1284
  632MOL0     H85262   1.998   8.728   5.035 -0.9790 -0.1060 -2.0176
  632MOL0     H85263   1.971   8.556   4.830 -1.3745  0.4367 -0.8796
  632MOL0     H85264   1.907   8.457   4.961 -0.7545  1.4449  3.2319
  632MOL0     H85265   1.716   8.553   4.823  0.3038 -0.1789 -0.4403
  632MOL0     H85266   1.711   8.599   4.996  0.9987  2.0227  0.8735
  632MOL0     H85267   1.656   8.792   4.839 -0.0336  2.2726  2.9049
  632MOL0     H85268   1.787   8.827   4.940 -1.6360  1.8073  0.2553
  632MOL0     H85269   1.799   8.691   4.660 -0.8396  0.8333 -0.0399
  632MOL0     H85270   1.949   8.739   4.737 -0.5547 -0.8165 -0.8121
  632MOL0     H85271   1.615   8.930   4.619  0.8070 -0.8930  0.0682
  632MOL0     H85272   1.729   9.301   4.578 -2.0369  0.9693  1.6575
  632MOL0     H85273   1.716   9.217   4.419 -0.7069  0.4114  0.6429
  632MOL0     H85274   1.513   9.249   4.627  0.5437  0.9564 -1.1596
  632MOL0     H85275   1.506   9.104   4.517  0.7866 -0.0502  2.0016
  632MOL0     H85276   1.531   9.281   4.330 -0.2420 -0.4252 -1.2002
  632MOL0     H85277   1.492   9.402   4.448 -3.8948  0.3307 -1.9176
  632MOL0     H85278   1.323   9.170   4.357 -0.6682 -1.6352  0.4900
  632MOL0     H85279   1.289   9.342   4.346 -1.2714 -1.7124 -0.3764
  632MOL0     H85280   1.078   9.313   4.351 -1.1925 -0.2864 -0.5206
  632MOL0     H85281   0.736   9.194   4.344  0.5769 -1.0438 -4.0233
  632MOL0     H85282   0.767   9.371   4.332 -2.1978 -1.8543 -1.2150
  632MOL0     H85283   0.873   9.253   4.260  2.4174 -0.0502  2.2601
  632MOL0     H85284   0.502   9.016   4.852 -0.8006 -0.4990  1.8284
  632MOL0     H85285   0.299   9.090   4.963  0.8460 -0.9236  0.1261
  632MOL0     H85286   0.131   9.374   4.790 -1.3225 -2.8922 -0.8072
  632MOL0     H85287   0.009   9.369   4.911  0.6367 -1.3828  1.4996
  632MOL0     H85288   0.212   9.598   4.878 -0.7504  0.2656 -1.1154
  632MOL0     H85289   0.041   9.587   4.870  1.5056 -0.2937 -1.8575
  632MOL0     H85290   0.203   9.574   5.130 -0.4488 -1.0711 -0.1538
  632MOL0     H85291   0.023   9.583   5.110 -3.2835  2.6805 -3.1017
  632MOL0     H85292   0.208   9.793   4.984 -1.0464 -0.2046 -0.6056
  632MOL0     H85293   0.037   9.804   5.016 -0.3491  0.9625  0.4399
  632MOL0     H85294   0.266   9.797   5.220 -0.5842 -2.5819  0.1222
  632MOL0     H85295   0.094   9.787   5.275 -1.1392  1.1087  0.6881
  632MOL0     H85296   0.186  10.008   5.302 -0.6168 -0.6332  0.9121
  632MOL0     H85297   0.216  10.018   5.133  0.4835 -0.9216 -0.1999
  632MOL0     H85298  -0.065  10.009   5.272 -1.9546  2.1039 -1.0213
  632MOL0     H85299  -0.047   9.969   5.104  0.6058 -1.4799  1.7018
  632MOL0     H85300  -0.092  10.192   5.112  0.7838 -1.1169 -2.6112
  632MOL0     H85301   0.075  10.185   5.057  0.2803  2.7168 -0.5401
  632MOL0     H85302   0.407   9.497   4.921  3.2972  1.1990 -2.8213
  632MOL0     H85303   0.628   9.431   4.843 -1.6966  2.0647  1.3130
  632MOL0     H85304   0.926   9.186   4.806 -0.1477 -2.7206 -0.7612
  632MOL0     H85305   1.156   9.203   4.758 -0.4508  1.1568 -0.2027
  632MOL0     H85306   2.591   8.713   5.179  2.2281 -1.3465 -2.3519
  632MOL0     H85307   2.825   8.701   5.225 -0.1243  0.1575 -0.1368
  632MOL0     H85308   3.263   8.485   5.137  0.0131 -1.8737 -0.0153
  632MOL0     H85309   3.497   8.489   5.189 -0.8741 -0.9378 -0.8741
  632MOL0     H85310   3.710   8.620   5.356  1.3059 -1.8300  0.0821
  632MOL0     H85311   3.618   8.696   5.479  3.0198  2.1219 -0.0149
  632MOL0     H85312   3.749   8.539   5.642 -1.4303  0.5317  1.0671
  632MOL0     H85313   3.818   8.687   5.592 -0.1365 -0.2457 -0.3043
  632MOL0     H85314   3.933   8.580   5.405 -0.4642 -0.7805 -1.1060
  632MOL0     H85315   3.884   8.422   5.462 -1.6167  1.2035 -0.1418
  632MOL0     H85316   4.008   8.479   5.697  2.1401  1.0811  2.1553
  632MOL0     H85317   4.071   8.620   5.593 -0.8972  0.1810 -2.8175
  632MOL0     H85318   4.285   8.258   5.542  0.7094 -0.2667 -0.5810
  632MOL0     H85319   3.394   8.535   5.603  1.0791 -0.4990  0.2416
  632MOL0     H85320   3.145   8.527   5.546 -1.9052 -1.0170 -0.8859
  633MOL0     O85321   0.532   4.463   1.655  1.2573 -0.0777 -0.0086
  633MOL0     C85322   0.460   4.457   1.557  0.1039  0.3465  0.2215
  633MOL0     O85323   0.327   4.415   1.561 -0.7261 -0.2248  0.3776
  633MOL0     C85324   0.247   4.436   1.666 -0.4306 -0.4757  0.0331
  633MOL0     C85325   0.137   4.355   1.671 -0.1576  0.5471  0.3407
  633MOL0     C85326   0.048   4.369   1.780  0.1430 -0.0405  0.9610
  633MOL0     C85327   0.074   4.459   1.887  0.8736 -0.8586 -0.3326
  633MOL0     O85328  -0.009   4.449   1.992 -0.2103  0.1922 -0.4707
  633MOL0     C85329   0.054   4.399   2.113  0.6656  1.0894  0.0661
  633MOL0     C85330  -0.040   4.379   2.225 -0.1197  0.3339 -0.3537
  633MOL0     C85331  -0.104   4.510   2.272  0.3385  0.3610  0.4138
  633MOL0     C85332  -0.210   4.473   2.377 -0.0842 -0.6602 -0.2740
  633MOL0     C85333  -0.334   4.430   2.311 -0.0037  0.6187  1.0899
  633MOL0     C85334  -0.465   4.465   2.394 -0.3929 -0.7035  0.3087
  633MOL0     C85335  -0.487   4.369   2.514 -0.0675 -0.7306 -0.9106
  633MOL0     C85336  -0.419   4.414   2.650 -0.0285 -1.0270  0.7072
  633MOL0     N85337  -0.482   4.542   2.698  0.4346 -0.0699 -0.7104
  633MOL0     C85338  -0.608   4.579   2.744  0.7445  0.3535  0.1126
  633MOL0     C85339  -0.612   4.709   2.766  0.6835 -1.0900  0.2091
  633MOL0     C85340  -0.727   4.792   2.822 -0.1536 -0.5531 -0.3668
  633MOL0     C85341  -0.810   4.733   2.941  0.2051 -0.4461 -0.2030
  633MOL0     C85342  -0.953   4.803   2.973  0.0256 -0.3900  0.1611
  633MOL0     C85343  -1.034   4.740   3.084 -0.0886  0.3177  0.6867
  633MOL0     O85344  -0.968   4.778   3.210 -0.3548  0.2910  0.7276
  633MOL0     C85345  -1.027   4.746   3.326  0.4888 -0.0644 -0.0477
  633MOL0     C85346  -0.954   4.776   3.441 -0.0084 -1.2099 -0.4054
  633MOL0     C85347  -0.996   4.743   3.573  0.6145 -0.8820  0.0363
  633MOL0     C85348  -0.899   4.769   3.690  0.7465  0.0996  0.0632
  633MOL0     C85349  -1.128   4.697   3.594  0.5483 -0.9047  0.8609
  633MOL0     C85350  -1.201   4.680   3.722 -0.5283 -0.2099  0.3997
  633MOL0     O85351  -1.135   4.714   3.832  0.4840 -0.3862  0.7482
  633MOL0     C85352  -1.213   4.736   3.952 -0.1391  0.3777  0.1275
  633MOL0     C85353  -1.205   4.650   4.054 -0.7728 -0.1536 -0.2152
  633MOL0     C85354  -1.290   4.674   4.168  0.9973 -0.6566 -0.0766
  633MOL0     C85355  -1.388   4.774   4.167  0.6223  0.2828  0.1386
  633MOL0     O85356  -1.476   4.791   4.271 -0.3233 -0.1503 -0.2395
  633MOL0     C85357  -1.595   4.717   4.247 -0.5585 -0.2521  0.0368
  633MOL0     C85358  -1.675   4.745   4.373  0.6474 -0.0427  0.4230
  633MOL0     C85359  -1.815   4.691   4.366 -1.0792  0.4096  0.2439
  633MOL0     C85360  -1.909   4.755   4.472  0.2585 -1.0057  0.3916
  633MOL0     C85361  -2.059   4.725   4.438 -0.2714 -0.1882 -0.6966
  633MOL0     C85362  -2.150   4.773   4.559  0.5084  0.0555  0.0339
  633MOL0     C85363  -2.295   4.734   4.540  0.5503 -0.2209  0.7315
  633MOL0     C85364  -2.353   4.774   4.410  0.1919 -0.3049  0.5688
  633MOL0    Cl85365  -2.520   4.732   4.410 -0.0712 -0.0433 -0.0370
  633MOL0     C85366  -1.399   4.858   4.058  0.1082  0.5288  0.6686
  633MOL0     C85367  -1.312   4.841   3.955 -0.2270  0.4554  0.4030
  633MOL0     O85368  -1.316   4.632   3.721  0.1097  0.3627 -0.4110
  633MOL0     C85369  -1.205   4.675   3.474  0.5276  0.1078 -0.3729
  633MOL0     C85370  -1.156   4.692   3.345  0.3515 -0.4924 -0.1231
  633MOL0     N85371  -0.489   4.765   2.727  0.4742  0.1402 -0.4180
  633MOL0     N85372  -0.409   4.660   2.711 -0.3925 -0.5912  0.1129
  633MOL0     C85373   0.186   4.533   1.884 -0.7307 -0.5427 -0.0371
  633MOL0     C85374   0.264   4.526   1.772  0.1616 -0.7302 -0.4698
  633MOL0     C85375   0.519   4.497   1.428  0.6096  0.0717 -0.4290
  633MOL0     C85376   0.436   4.518   1.304  0.1916  0.2895 -0.9123
  633MOL0     C85377   0.498   4.570   1.188  0.3586  0.0422 -0.4588
  633MOL0     C85378   0.639   4.587   1.181 -0.1237 -0.9022 -0.2303
  633MOL0     O85379   0.723   4.618   1.081 -0.3629 -0.7219  0.4633
  633MOL0     C85380   0.673   4.724   0.995  0.1636 -0.0983  0.1951
  633MOL0     C85381   0.724   4.873   1.013  0.5742 -0.2837  1.0269
  633MOL0     C85382   0.870   4.874   0.966  0.4288  0.0945  0.3032
  633MOL0     C85383   0.903   4.994   0.889 -0.0498  0.0039  0.7176
  633MOL0     C85384   1.050   4.999   0.864  0.0567 -0.6603  0.8780
  633MOL0     C85385   1.166   5.006   0.842  0.5516 -0.2320 -0.6988
  633MOL0     C85386   0.713   4.566   1.302 -0.0250  0.3634 -0.1350
  633MOL0     C85387   0.651   4.529   1.424  0.2296 -0.1528 -0.8234
  633MOL0     H85388   0.112   4.283   1.594 -0.1889  1.5049 -0.5609
  633MOL0     H85389  -0.042   4.309   1.789 -1.9520  2.6034 -0.6273
  633MOL0     H85390   0.089   4.297   2.097  3.8195  1.4928  3.1202
  633MOL0     H85391   0.140   4.461   2.139  1.8482 -0.0207 -1.0289
  633MOL0     H85392  -0.119   4.309   2.197 -3.3950  1.6023  4.5284
  633MOL0     H85393   0.026   4.334   2.300  1.6157  0.8071 -1.5406
  633MOL0     H85394  -0.029   4.578   2.313  0.8720  2.0693 -3.0288
  633MOL0     H85395  -0.144   4.567   2.188 -0.6662  0.5276  0.9991
  633MOL0     H85396  -0.168   4.394   2.439  1.8370 -0.1037 -0.8197
  633MOL0     H85397  -0.235   4.554   2.446  0.1479 -0.9552  0.1614
  633MOL0     H85398  -0.348   4.485   2.218 -1.3276 -1.2667  0.0953
  633MOL0     H85399  -0.326   4.327   2.274  1.0460  1.6601 -1.8617
  633MOL0     H85400  -0.447   4.567   2.430  3.7311 -1.7762  1.8692
  633MOL0     H85401  -0.555   4.470   2.332  0.7986  0.5623 -1.4147
  633MOL0     H85402  -0.594   4.360   2.535 -0.0806 -2.7174 -1.6290
  633MOL0     H85403  -0.446   4.271   2.487 -0.6228 -1.3999  0.5531
  633MOL0     H85404  -0.314   4.429   2.626  0.2319 -0.1604  2.2501
  633MOL0     H85405  -0.436   4.336   2.725  0.4035 -0.0002  1.9063
  633MOL0     H85406  -0.690   4.511   2.767 -0.2791  1.7606  0.7337
  633MOL0     H85407  -0.678   4.881   2.863  3.2446 -2.1828 -0.5546
  633MOL0     H85408  -0.786   4.819   2.734  0.0063  1.6545  0.1425
  633MOL0     H85409  -0.749   4.734   3.032 -0.0277  0.0305 -0.0467
  633MOL0     H85410  -0.819   4.624   2.936 -0.0452 -0.5119  1.3082
  633MOL0     H85411  -1.009   4.798   2.879  2.6348 -0.9859 -1.4436
  633MOL0     H85412  -0.939   4.908   2.998 -2.2825 -0.4406  1.9949
  633MOL0     H85413  -1.039   4.630   3.078  0.1563  0.3942 -1.5640
  633MOL0     H85414  -1.136   4.779   3.087 -1.7481 -2.6875 -4.1827
  633MOL0     H85415  -0.855   4.819   3.432 -0.7933  0.3859 -2.1538
  633MOL0     H85416  -0.803   4.793   3.644 -0.3248 -1.4143 -3.2886
  633MOL0     H85417  -0.939   4.853   3.747  0.8096 -1.8488  3.2245
  633MOL0     H85418  -0.890   4.678   3.750  0.0772  1.2942  2.0635
  633MOL0     H85419  -1.125   4.577   4.039 -0.1178  0.3521  0.7420
  633MOL0     H85420  -1.306   4.611   4.254 -1.7366 -1.2408 -0.9029
  633MOL0     H85421  -1.637   4.772   4.162 -0.7338  0.6590  0.6961
  633MOL0     H85422  -1.585   4.608   4.238  0.5432 -0.1248 -0.3695
  633MOL0     H85423  -1.630   4.688   4.456  1.3209  0.8696  0.7060
  633MOL0     H85424  -1.681   4.853   4.389 -1.5070  0.4072 -2.5447
  633MOL0     H85425  -1.813   4.582   4.373 -1.7902  0.5070  3.3492
  633MOL0     H85426  -1.854   4.721   4.268 -0.3022  0.5151 -0.0368
  633MOL0     H85427  -1.891   4.715   4.572 -1.0679 -0.4362  0.8882
  633MOL0     H85428  -1.897   4.864   4.470  4.3379 -1.3154 -0.8438
  633MOL0     H85429  -2.059   4.615   4.439 -0.1347 -0.3535  3.9477
  633MOL0     H85430  -2.094   4.763   4.342 -1.0853  0.1635 -0.2694
  633MOL0     H85431  -2.115   4.727   4.651 -0.2991 -0.3757  0.1311
  633MOL0     H85432  -2.132   4.881   4.567  0.5119  0.1289 -0.8219
  633MOL0     H85433  -2.350   4.788   4.617 -0.2304  1.0629 -0.6641
  633MOL0     H85434  -2.294   4.627   4.561  4.4729 -0.5767 -0.3415
  633MOL0     H85435  -2.300   4.720   4.332  3.1969  1.6664  1.0751
  633MOL0     H85436  -2.344   4.879   4.381  2.3131  0.2685  2.9277
  633MOL0     H85437  -1.464   4.944   4.047 -0.9261  0.0126  2.3002
  633MOL0     H85438  -1.333   4.905   3.870  0.0066  0.8265  0.6226
  633MOL0     H85439  -1.311   4.657   3.488  0.4599  1.0696  0.5245
  633MOL0     H85440  -1.231   4.676   3.268  0.7276  2.2260 -1.1857
  633MOL0     H85441   0.210   4.598   1.967  1.4884 -0.7275 -0.4691
  633MOL0     H85442   0.344   4.600   1.771 -0.9481  0.5411  0.9896
  633MOL0     H85443   0.329   4.504   1.299 -0.3762  3.7045 -0.8310
  633MOL0     H85444   0.438   4.580   1.098 -0.9872  0.0081  0.4202
  633MOL0     H85445   0.677   4.690   0.891 -0.6834 -0.8965  0.4074
  633MOL0     H85446   0.567   4.739   1.014 -0.4377 -2.3584 -1.0363
  633MOL0     H85447   0.724   4.899   1.120  0.2735 -0.1081  0.9858
  633MOL0     H85448   0.659   4.942   0.960 -0.9399 -2.8009 -0.6055
  633MOL0     H85449   0.887   4.794   0.893 -3.7429 -2.6617  1.9582
  633MOL0     H85450   0.944   4.857   1.045 -0.7187  0.1322  1.4225
  633MOL0     H85451   0.862   5.081   0.940  0.5717  1.5345 -1.2874
  633MOL0     H85452   0.844   4.993   0.797 -1.4882  0.3473  1.6128
  633MOL0     H85453   1.272   5.018   0.829  0.6246  2.1476  1.3318
  633MOL0     H85454   0.820   4.580   1.304  0.3347 -1.9784 -0.6383
  633MOL0     H85455   0.718   4.512   1.509 -0.7291 -1.3778 -0.2836
  634MOL0     O85456   5.265   2.963   1.690  0.3294  0.2548  0.1083
  634MOL0     C85457   5.232   3.063   1.741  0.2583 -0.7520  0.0606
  634MOL0     O85458   5.113   3.079   1.810  0.0179 -0.1502  0.0269
  634MOL0     C85459   5.019   2.981   1.844  0.5105  0.1032  0.2823
  634MOL0     C85460   4.910   3.028   1.927 -0.5097  1.3507 -0.1855
  634MOL0     C85461   4.817   2.933   1.972  0.1182  0.2515  0.7032
  634MOL0     C85462   4.822   2.797   1.945 -0.2974  0.0545  0.0633
  634MOL0     O85463   4.737   2.697   1.982 -0.0354 -0.3953 -0.4072
  634MOL0     C85464   4.597   2.731   2.017 -0.5642  0.9989  0.3085
  634MOL0     C85465   4.504   2.602   2.011 -0.1258 -0.7443 -0.1387
  634MOL0     C85466   4.362   2.635   2.067 -0.2296 -0.4891 -0.0318
  634MOL0     C85467   4.276   2.514   2.034 -0.1988 -0.0253  0.0758
  634MOL0     C85468   4.148   2.505   2.123  0.4751 -0.2296  1.0396
  634MOL0     C85469   4.045   2.403   2.072  0.3406 -1.0418  0.2439
  634MOL0     C85470   3.931   2.387   2.174 -0.7610  0.2570  0.4944
  634MOL0     C85471   3.821   2.495   2.169 -0.2907  0.4745  0.0315
  634MOL0     N85472   3.699   2.461   2.241 -0.2866  0.5876  0.3971
  634MOL0     C85473   3.690   2.417   2.369  0.0447 -0.3898  0.5338
  634MOL0     C85474   3.567   2.372   2.387 -0.5212  0.0898  0.2445
  634MOL0     C85475   3.512   2.322   2.517 -0.4997  0.0327 -0.9966
  634MOL0     C85476   3.465   2.439   2.614  0.5945  0.6534 -0.2421
  634MOL0     C85477   3.342   2.520   2.570  0.4568  0.3826 -0.1714
  634MOL0     C85478   3.216   2.438   2.572  0.5131  0.8511  0.0299
  634MOL0     O85479   3.097   2.514   2.608 -0.5721 -0.6675 -0.1725
  634MOL0     C85480   2.973   2.457   2.614 -0.3445  0.4728 -0.9211
  634MOL0     C85481   2.863   2.527   2.593  0.1574 -0.5553 -0.3081
  634MOL0     C85482   2.734   2.479   2.618 -0.7197  0.5825  0.0446
  634MOL0     C85483   2.626   2.567   2.583 -0.3104 -0.2634 -0.6069
  634MOL0     C85484   2.722   2.345   2.650  0.8905 -0.1751 -0.1398
  634MOL0     C85485   2.589   2.282   2.655 -0.1188  0.1678 -0.8957
  634MOL0     O85486   2.487   2.360   2.704 -0.1493  0.4527 -0.2002
  634MOL0     C85487   2.360   2.323   2.671  0.1161 -0.5401  0.2828
  634MOL0     C85488   2.273   2.239   2.743  0.0066  0.3726 -0.4178
  634MOL0     C85489   2.145   2.218   2.703 -0.3651  0.3643 -0.2107
  634MOL0     C85490   2.090   2.276   2.586  0.2952  0.8533 -0.5651
  634MOL0     O85491   1.967   2.235   2.543  0.3040  0.1680 -0.3445
  634MOL0     C85492   1.861   2.294   2.625  0.8675 -0.3000 -0.7488
  634MOL0     C85493   1.731   2.247   2.556  0.1864 -0.5779 -0.5042
  634MOL0     C85494   1.602   2.293   2.640 -0.8176  0.5156  1.0868
  634MOL0     C85495   1.469   2.228   2.586 -0.3487  0.1885  0.5994
  634MOL0     C85496   1.364   2.268   2.685  0.3301  0.4844 -0.5578
  634MOL0     C85497   1.249   2.162   2.667  0.1455 -0.2164  0.8370
  634MOL0     C85498   1.146   2.151   2.784  0.6428 -0.8556  0.3358
  634MOL0     C85499   1.020   2.091   2.736  0.1036 -0.3912 -0.0144
  634MOL0    Cl85500   0.930   2.052   2.890 -0.2041 -0.2623  0.5250
  634MOL0     C85501   2.176   2.357   2.513  0.0906 -0.8462  0.9255
  634MOL0     C85502   2.310   2.382   2.556 -0.2339  0.5755 -0.6904
  634MOL0     O85503   2.573   2.166   2.622 -0.3486 -0.3831  0.0880
  634MOL0     C85504   2.837   2.265   2.661 -0.6537  0.2801  0.8143
  634MOL0     C85505   2.965   2.322   2.646 -0.5376  0.2574  0.3679
  634MOL0     N85506   3.491   2.406   2.274 -0.2368  0.6502 -0.2083
  634MOL0     N85507   3.573   2.448   2.180  0.1985 -0.3908  0.5103
  634MOL0     C85508   4.922   2.754   1.860 -0.3392 -0.2764 -0.4035
  634MOL0     C85509   5.017   2.850   1.808  0.2325 -0.0612  0.2914
  634MOL0     C85510   5.314   3.178   1.710  0.9431 -0.9717  0.1293
  634MOL0     C85511   5.431   3.167   1.615  0.4645  0.5509 -1.0612
  634MOL0     C85512   5.514   3.274   1.601 -1.0623 -0.2356  0.4028
  634MOL0     C85513   5.483   3.400   1.666  0.3807  0.6575 -0.6685
  634MOL0     O85514   5.551   3.519   1.650 -1.0331 -0.2296 -0.9735
  634MOL0     C85515   5.654   3.514   1.554  0.6632 -0.3859  0.1902
  634MOL0     C85516   5.699   3.662   1.530  0.2489  0.4328  0.2869
  634MOL0     C85517   5.731   3.729   1.659  1.2181 -1.1908  0.5733
  634MOL0     C85518   5.831   3.653   1.752  0.4500  0.3545  0.3208
  634MOL0     C85519   5.962   3.632   1.690  0.2896  0.0109  0.7412
  634MOL0     C85520   6.084   3.624   1.658  0.8479  0.8701  0.2919
  634MOL0     C85521   5.383   3.400   1.764 -0.5748 -0.2280  0.1699
  634MOL0     C85522   5.296   3.298   1.782 -1.2354  0.8412  0.0123
  634MOL0     H85523   4.903   3.135   1.944 -2.0757  1.5172 -1.6633
  634MOL0     H85524   4.750   2.968   2.050  3.1626  3.9396  1.9712
  634MOL0     H85525   4.591   2.781   2.115 -1.0848 -1.8855  1.8531
  634MOL0     H85526   4.542   2.794   1.946 -2.2715 -0.0075  0.6750
  634MOL0     H85527   4.491   2.582   1.904  0.3194 -0.5390 -0.2329
  634MOL0     H85528   4.549   2.511   2.052 -1.9284 -1.9031 -0.5883
  634MOL0     H85529   4.353   2.674   2.169  0.6543 -3.2914  1.1928
  634MOL0     H85530   4.327   2.720   2.006  1.2185 -1.7958 -2.8801
  634MOL0     H85531   4.258   2.527   1.927 -1.5557 -0.7771  0.1943
  634MOL0     H85532   4.343   2.429   2.053 -0.5100 -0.2830  0.0257
  634MOL0     H85533   4.187   2.475   2.221 -0.6974 -2.2847  0.9405
  634MOL0     H85534   4.104   2.604   2.134 -0.3037 -0.3199 -0.8947
  634MOL0     H85535   4.001   2.440   1.979  0.2931  3.1676  1.7154
  634MOL0     H85536   4.104   2.312   2.060  1.9034  0.0404 -0.7014
  634MOL0     H85537   3.871   2.299   2.150 -1.0206  0.0052  1.9619
  634MOL0     H85538   3.979   2.382   2.272  1.7544  2.8723 -0.4523
  634MOL0     H85539   3.786   2.512   2.066 -0.3982  3.0323  0.4228
  634MOL0     H85540   3.853   2.594   2.201  0.1966  0.7022 -1.0932
  634MOL0     H85541   3.777   2.421   2.434 -1.4006  0.0518  2.5262
  634MOL0     H85542   3.435   2.246   2.502 -0.2072 -0.4754  0.0046
  634MOL0     H85543   3.597   2.273   2.566 -1.2608 -0.4433 -0.1359
  634MOL0     H85544   3.553   2.504   2.617  2.1739 -1.2934 -1.7306
  634MOL0     H85545   3.436   2.398   2.711  1.5308  0.6952  0.0614
  634MOL0     H85546   3.348   2.560   2.468  1.3232 -0.8902 -0.6480
  634MOL0     H85547   3.328   2.604   2.639 -6.9853  0.2043 -0.6867
  634MOL0     H85548   3.230   2.358   2.645  1.6459  0.8391 -0.1752
  634MOL0     H85549   3.208   2.386   2.476 -0.1064 -0.0943  0.5783
  634MOL0     H85550   2.879   2.628   2.559 -1.1246  0.0736  0.8289
  634MOL0     H85551   2.659   2.661   2.537 -3.7241  1.2353 -0.2907
  634MOL0     H85552   2.564   2.524   2.504  0.8069 -0.7161 -1.2736
  634MOL0     H85553   2.568   2.595   2.671 -0.0078 -0.9471 -0.1762
  634MOL0     H85554   2.301   2.191   2.836  0.2023  0.0008 -0.6651
  634MOL0     H85555   2.080   2.163   2.770 -0.4503  0.8531  0.1155
  634MOL0     H85556   1.868   2.256   2.727 -2.2368  1.6049  0.3154
  634MOL0     H85557   1.864   2.403   2.632 -3.2252 -0.0731  0.3642
  634MOL0     H85558   1.725   2.298   2.460 -1.3784 -0.8188 -0.5606
  634MOL0     H85559   1.733   2.138   2.542  0.5309 -1.0690  2.6462
  634MOL0     H85560   1.602   2.402   2.635  0.1868  0.4968  0.2261
  634MOL0     H85561   1.606   2.262   2.745 -1.6739  0.2608  1.0557
  634MOL0     H85562   1.452   2.270   2.487  1.2734 -0.9998 -0.2343
  634MOL0     H85563   1.470   2.120   2.570 -3.6343 -0.1571  2.0010
  634MOL0     H85564   1.331   2.372   2.681 -0.5001  0.1887 -1.8826
  634MOL0     H85565   1.399   2.252   2.787  2.4765  0.8146 -1.1895
  634MOL0     H85566   1.202   2.176   2.569  1.0375  1.8120  0.6694
  634MOL0     H85567   1.279   2.059   2.645 -0.7338 -0.1184 -1.0912
  634MOL0     H85568   1.118   2.250   2.822 -4.1621 -0.8116 -2.5765
  634MOL0     H85569   1.198   2.088   2.858 -1.2409  0.4097  2.8890
  634MOL0     H85570   1.038   2.001   2.675 -0.3855  0.7032 -1.8645
  634MOL0     H85571   0.955   2.154   2.674  0.2018 -1.9551 -1.8019
  634MOL0     H85572   2.135   2.392   2.419 -0.5432 -2.7844  0.4541
  634MOL0     H85573   2.372   2.444   2.492  2.6584 -1.2580  0.1603
  634MOL0     H85574   2.828   2.157   2.667 -0.8244  0.1127 -1.6577
  634MOL0     H85575   3.054   2.260   2.658 -0.1884  0.2997 -1.6667
  634MOL0     H85576   4.924   2.647   1.844  0.4708 -0.7389  2.3486
  634MOL0     H85577   5.097   2.809   1.747 -0.0738  1.7932 -1.4321
  634MOL0     H85578   5.455   3.071   1.570 -1.7952  0.1754 -1.6196
  634MOL0     H85579   5.603   3.261   1.541 -0.8310  2.6356 -0.0435
  634MOL0     H85580   5.731   3.447   1.592 -0.2727 -1.3504  0.4133
  634MOL0     H85581   5.617   3.467   1.463 -0.3984 -2.3051  1.5523
  634MOL0     H85582   5.632   3.722   1.469  1.7244 -0.5669 -2.4953
  634MOL0     H85583   5.784   3.661   1.461 -0.8842  2.0226 -1.2088
  634MOL0     H85584   5.637   3.756   1.708  0.1041  0.2786 -2.1514
  634MOL0     H85585   5.785   3.823   1.653 -0.5253 -0.1541  0.4569
  634MOL0     H85586   5.790   3.553   1.765  0.6315  0.4117  1.4013
  634MOL0     H85587   5.832   3.697   1.852 -1.9549 -1.9609  1.4840
  634MOL0     H85588   6.182   3.617   1.615 -0.1417  0.2707 -2.0230
  634MOL0     H85589   5.366   3.494   1.815  0.9998 -0.7417  1.7049
  634MOL0     H85590   5.218   3.304   1.858  1.4151  1.0951  2.8993
  635MOL0     O85591   8.231   6.432   5.776 -0.0855  0.5751  0.3371
  635MOL0     C85592   8.290   6.491   5.867  0.3525 -0.1238 -0.0566
  635MOL0     O85593   8.224   6.541   5.980  0.0663  0.0965  0.1962
  635MOL0     C85594   8.100   6.480   6.011 -0.1675 -0.4390 -0.1817
  635MOL0     C85595   7.976   6.495   5.944 -0.0181 -0.4317  0.5142
  635MOL0     C85596   7.857   6.443   5.985 -0.5223 -0.1121 -0.4956
  635MOL0     C85597   7.855   6.357   6.089  0.0574 -0.0429 -0.8605
  635MOL0     O85598   7.749   6.297   6.142  0.1848  0.9607  0.5245
  635MOL0     C85599   7.619   6.371   6.142  0.5221  0.2205  0.7287
  635MOL0     C85600   7.614   6.494   6.233 -0.1029 -0.3413  0.1785
  635MOL0     C85601   7.590   6.457   6.376 -0.2976  0.3000 -0.8074
  635MOL0     C85602   7.541   6.569   6.458  0.4455  0.0759  0.2607
  635MOL0     C85603   7.507   6.530   6.609  0.4168 -0.0625  0.6752
  635MOL0     C85604   7.612   6.435   6.674 -0.1737  0.2461  1.1012
  635MOL0     C85605   7.581   6.425   6.823  0.3916  0.2627 -2.0120
  635MOL0     C85606   7.441   6.368   6.866  0.3456 -0.4965  0.6064
  635MOL0     N85607   7.442   6.227   6.826  0.3327  0.0106  0.8258
  635MOL0     C85608   7.378   6.180   6.713  0.1894 -0.2218  0.3037
  635MOL0     C85609   7.417   6.051   6.702 -0.1473 -0.8037  0.3019
  635MOL0     C85610   7.372   5.976   6.583 -0.2053  0.0728 -0.6454
  635MOL0     C85611   7.240   5.893   6.613  0.0530 -0.6663 -0.5684
  635MOL0     C85612   7.182   5.854   6.479 -0.3592 -0.4606  0.5995
  635MOL0     C85613   7.049   5.776   6.492 -0.3407  0.7190  0.7025
  635MOL0     O85614   6.961   5.860   6.553 -0.1624  0.3930 -0.2070
  635MOL0     C85615   6.830   5.817   6.579  0.2678 -0.1916 -0.2683
  635MOL0     C85616   6.775   5.689   6.543  0.0765 -0.7905  0.6616
  635MOL0     C85617   6.641   5.655   6.568  0.0547 -0.0527 -0.7197
  635MOL0     C85618   6.587   5.530   6.507  0.6308 -0.1477  0.6055
  635MOL0     C85619   6.563   5.742   6.650 -0.8202  0.0741 -0.5649
  635MOL0     C85620   6.430   5.725   6.684  0.5565  0.0026 -0.0774
  635MOL0     O85621   6.346   5.836   6.699 -0.5591 -1.4125 -1.1484
  635MOL0     C85622   6.220   5.812   6.725 -0.0104  0.0099 -0.1062
  635MOL0     C85623   6.127   5.795   6.622  0.8132  0.3519 -0.1039
  635MOL0     C85624   5.990   5.782   6.650  0.1432  0.1160  0.0814
  635MOL0     C85625   5.934   5.792   6.779 -0.7318 -0.1125 -0.0799
  635MOL0     O85626   5.805   5.795   6.809 -0.4336  0.0158 -0.0256
  635MOL0     C85627   5.711   5.728   6.719  0.3420 -1.2856  0.3811
  635MOL0     C85628   5.565   5.767   6.772 -0.6806  0.3432  0.0964
  635MOL0     C85629   5.461   5.659   6.736 -0.5187 -0.1390  0.9723
  635MOL0     C85630   5.438   5.647   6.586 -0.2593 -0.5314  0.2445
  635MOL0     C85631   5.378   5.780   6.524  0.3440 -0.4155 -0.2803
  635MOL0     C85632   5.392   5.776   6.363 -0.4039  0.2910  0.0911
  635MOL0     C85633   5.329   5.892   6.290 -0.5108  0.6512 -0.1011
  635MOL0     C85634   5.407   6.020   6.300  0.5602 -0.0751  0.7805
  635MOL0    Cl85635   5.556   6.003   6.205  0.0095  0.2874  0.2980
  635MOL0     C85636   6.032   5.813   6.876  0.5114 -0.9522 -0.6844
  635MOL0     C85637   6.167   5.820   6.853 -0.6163  1.0700  0.2743
  635MOL0     O85638   6.390   5.612   6.712 -0.3457 -0.7863 -0.4996
  635MOL0     C85639   6.620   5.862   6.698  0.1383 -0.5960 -0.2472
  635MOL0     C85640   6.750   5.900   6.659  0.6166  0.2410 -0.5143
  635MOL0     N85641   7.491   6.018   6.813  0.3344 -0.3053 -0.7825
  635MOL0     N85642   7.501   6.125   6.886 -0.1606 -0.5231  0.4334
  635MOL0     C85643   7.982   6.321   6.148 -0.1257 -0.0502  0.6074
  635MOL0     C85644   8.097   6.379   6.115 -0.4154  0.8491 -0.7679
  635MOL0     C85645   8.431   6.517   5.859 -0.4225 -0.0939 -0.0816
  635MOL0     C85646   8.503   6.586   5.959  0.2338  0.1893 -0.2220
  635MOL0     C85647   8.641   6.622   5.951  1.2951 -0.4309  0.6076
  635MOL0     C85648   8.705   6.579   5.836  0.0135 -0.9184  0.6938
  635MOL0     O85649   8.837   6.600   5.821 -0.4225  0.5951 -0.2332
  635MOL0     C85650   8.903   6.480   5.796  0.1944  1.0606  1.2440
  635MOL0     C85651   9.048   6.510   5.767 -0.0251  0.2724  0.2753
  635MOL0     C85652   9.111   6.588   5.872  0.0325 -0.1038 -0.1476
  635MOL0     C85653   9.268   6.583   5.863 -0.2594  0.1728  1.0473
  635MOL0     C85654   9.334   6.652   5.969 -0.4344  0.0995 -0.0828
  635MOL0     C85655   9.408   6.716   6.037 -1.0836 -0.8999 -0.7206
  635MOL0     C85656   8.628   6.518   5.730 -0.1062 -0.1813 -0.5163
  635MOL0     C85657   8.495   6.485   5.735 -0.0832  0.2688  0.0733
  635MOL0     H85658   7.974   6.566   5.863 -0.5579  2.4733  2.8938
  635MOL0     H85659   7.767   6.450   5.925 -0.1189 -2.8311 -1.5372
  635MOL0     H85660   7.596   6.417   6.046 -0.8202 -1.8587 -0.0289
  635MOL0     H85661   7.541   6.298   6.164  2.0923 -1.4278  1.0627
  635MOL0     H85662   7.713   6.540   6.223  0.3721 -1.1748  0.9006
  635MOL0     H85663   7.532   6.559   6.202 -0.5823 -1.3491 -0.7140
  635MOL0     H85664   7.505   6.387   6.378  0.1550 -0.2646 -1.1736
  635MOL0     H85665   7.676   6.406   6.418  0.6770  2.2794 -0.2878
  635MOL0     H85666   7.627   6.636   6.454  1.6362 -1.3936  0.2189
  635MOL0     H85667   7.458   6.619   6.407  3.4351  2.9789 -2.1903
  635MOL0     H85668   7.502   6.620   6.672  0.1835 -0.8000  1.7380
  635MOL0     H85669   7.411   6.478   6.617  0.9620 -0.8997  2.3113
  635MOL0     H85670   7.610   6.334   6.633 -0.4807  1.1671 -1.3922
  635MOL0     H85671   7.715   6.472   6.667  0.3185 -1.3581 -2.3441
  635MOL0     H85672   7.654   6.368   6.882 -1.1163 -2.3199 -2.4649
  635MOL0     H85673   7.593   6.525   6.867  1.2062 -0.4291 -0.5506
  635MOL0     H85674   7.360   6.429   6.825 -1.1916  0.5599  4.7440
  635MOL0     H85675   7.427   6.380   6.974 -3.3905  0.2104  0.1764
  635MOL0     H85676   7.319   6.242   6.647  0.4489 -1.8674 -1.5901
  635MOL0     H85677   7.344   6.036   6.496 -1.2286  2.4853  1.2052
  635MOL0     H85678   7.456   5.911   6.557  1.2631  2.0944 -1.1866
  635MOL0     H85679   7.166   5.953   6.668 -1.5369 -2.3014 -0.8372
  635MOL0     H85680   7.268   5.801   6.664  0.1447 -0.6710 -0.6284
  635MOL0     H85681   7.264   5.797   6.433 -0.4893  0.3501 -0.7020
  635MOL0     H85682   7.168   5.941   6.415  0.0122 -0.3574  0.6557
  635MOL0     H85683   7.060   5.690   6.558 -2.5230 -0.0773  0.0972
  635MOL0     H85684   7.005   5.727   6.405 -2.4754  0.2392  1.9744
  635MOL0     H85685   6.834   5.631   6.474  1.6341 -0.2525  1.4904
  635MOL0     H85686   6.478   5.518   6.503  0.8998 -6.3412  0.8357
  635MOL0     H85687   6.629   5.501   6.410 -3.0021 -3.1144 -0.3368
  635MOL0     H85688   6.609   5.444   6.571 -0.9869 -1.6482 -0.7441
  635MOL0     H85689   6.151   5.786   6.516 -0.3918 -2.2332 -0.2403
  635MOL0     H85690   5.922   5.775   6.565 -1.1121 -0.4988  1.1074
  635MOL0     H85691   5.715   5.771   6.618  0.4450 -1.5331  0.2784
  635MOL0     H85692   5.731   5.621   6.724 -3.0761 -2.0178  0.2707
  635MOL0     H85693   5.573   5.772   6.881  0.8598  2.6256 -0.0553
  635MOL0     H85694   5.542   5.869   6.739  1.6290  1.5707  2.0471
  635MOL0     H85695   5.364   5.669   6.785 -0.3755  0.0053  1.2285
  635MOL0     H85696   5.499   5.559   6.761 -0.9917 -0.8716 -1.0706
  635MOL0     H85697   5.524   5.639   6.519 -0.5627 -0.8316 -0.1195
  635MOL0     H85698   5.375   5.563   6.553 -1.6057  1.2360 -2.0337
  635MOL0     H85699   5.419   5.873   6.563 -1.6987  0.3252  0.2240
  635MOL0     H85700   5.273   5.777   6.555 -0.0154  0.4379 -1.3589
  635MOL0     H85701   5.496   5.801   6.339 -1.0147  3.9468  0.7062
  635MOL0     H85702   5.370   5.674   6.333  2.6538 -0.0338 -1.5407
  635MOL0     H85703   5.229   5.909   6.330  0.1896 -0.0792  2.1035
  635MOL0     H85704   5.319   5.855   6.188 -0.1191  0.7600 -0.1840
  635MOL0     H85705   5.442   6.045   6.401 -0.5239  4.0770  0.3404
  635MOL0     H85706   5.340   6.100   6.266 -1.5263 -1.4076  1.5029
  635MOL0     H85707   6.011   5.833   6.980  4.5659  3.0842 -0.2952
  635MOL0     H85708   6.235   5.828   6.937 -0.0776 -1.5842  0.1667
  635MOL0     H85709   6.564   5.929   6.762  0.0085 -1.7113  0.8424
  635MOL0     H85710   6.775   6.000   6.693 -2.7622  1.4527 -1.1367
  635MOL0     H85711   7.977   6.252   6.232 -3.0363  0.3922  0.9167
  635MOL0     H85712   8.183   6.348   6.174  0.0512  1.3493 -1.1699
  635MOL0     H85713   8.459   6.641   6.041 -0.3611  0.9627 -1.0473
  635MOL0     H85714   8.697   6.681   6.022  1.5167  0.4156 -0.2360
  635MOL0     H85715   8.897   6.425   5.890 -0.1714 -1.7396 -0.2938
  635MOL0     H85716   8.871   6.416   5.713  1.4128 -0.2469  1.7215
  635MOL0     H85717   9.051   6.563   5.672  1.5851 -0.9545 -0.4057
  635MOL0     H85718   9.098   6.413   5.756 -0.2004 -0.3684  3.9309
  635MOL0     H85719   9.074   6.551   5.968 -1.7480  1.1761 -0.3049
  635MOL0     H85720   9.075   6.690   5.858  0.3867  0.1796  0.9458
  635MOL0     H85721   9.297   6.636   5.772 -4.9989 -0.5604 -1.1739
  635MOL0     H85722   9.308   6.481   5.863 -1.5110 -0.3750 -0.6716
  635MOL0     H85723   9.450   6.789   6.104 -1.5177  0.8549 -2.2862
  635MOL0     H85724   8.668   6.473   5.639  0.4526 -0.8717  0.0597
  635MOL0     H85725   8.444   6.435   5.654 -2.1278 -1.1389  2.1024
  636MOL0     O85726   7.433   4.749   7.675  0.4975 -0.3102  0.1267
  636MOL0     C85727   7.523   4.667   7.702 -0.0371 -0.3813 -0.3674
  636MOL0     O85728   7.507   4.531   7.724 -0.2414  0.4926  0.2825
  636MOL0     C85729   7.385   4.479   7.689  0.2285  0.1138  0.0938
  636MOL0     C85730   7.372   4.405   7.569 -0.0256  0.0671 -0.4981
  636MOL0     C85731   7.252   4.352   7.533  0.7692  0.6224 -0.5266
  636MOL0     C85732   7.138   4.366   7.610 -0.3244  0.8994 -0.3499
  636MOL0     O85733   7.013   4.311   7.583  0.4084  0.2160  0.5105
  636MOL0     C85734   6.982   4.262   7.446  0.1121 -1.1988 -0.0449
  636MOL0     C85735   6.836   4.262   7.429 -0.3821 -0.6075  0.7474
  636MOL0     C85736   6.784   4.398   7.430 -0.2087 -0.2696  0.5997
  636MOL0     C85737   6.639   4.397   7.378  0.6804  0.3050 -0.3625
  636MOL0     C85738   6.570   4.548   7.386 -0.3885  1.0496 -0.2905
  636MOL0     C85739   6.637   4.673   7.324 -0.0599 -0.4050 -0.4087
  636MOL0     C85740   6.560   4.805   7.352  0.5664  0.0207 -0.8357
  636MOL0     C85741   6.421   4.796   7.280 -0.5518 -0.0267  0.1019
  636MOL0     N85742   6.342   4.925   7.273 -0.4718 -0.4361 -0.1690
  636MOL0     C85743   6.310   5.010   7.169  0.4467 -0.0240 -0.0407
  636MOL0     C85744   6.269   5.124   7.227 -0.8809 -0.9214 -0.5665
  636MOL0     C85745   6.234   5.258   7.165 -0.3275 -0.3697  0.3321
  636MOL0     C85746   6.299   5.282   7.025  0.3923 -0.0453 -0.1741
  636MOL0     C85747   6.274   5.424   6.965  0.1897 -0.0677 -0.1915
  636MOL0     C85748   6.125   5.447   6.922 -0.3586 -0.0557  0.4067
  636MOL0     O85749   6.048   5.495   7.038  0.7706 -0.1226 -0.3389
  636MOL0     C85750   5.913   5.493   7.037  0.0288  0.5040  0.8006
  636MOL0     C85751   5.836   5.404   6.971 -0.1627  0.3139 -0.3368
  636MOL0     C85752   5.700   5.399   6.983 -0.7835 -0.7552  0.3289
  636MOL0     C85753   5.632   5.287   6.918  0.0866  0.2989  0.4161
  636MOL0     C85754   5.630   5.495   7.056 -0.2336 -0.1184 -0.1767
  636MOL0     C85755   5.480   5.506   7.065 -0.6304 -0.4529  0.6633
  636MOL0     O85756   5.423   5.629   7.106 -0.1558 -0.7655 -0.0512
  636MOL0     C85757   5.288   5.636   7.128  0.3642  0.2716 -0.3329
  636MOL0     C85758   5.219   5.535   7.198  0.2586  0.2545  0.0932
  636MOL0     C85759   5.080   5.557   7.223  0.5597  0.4792  0.7936
  636MOL0     C85760   5.006   5.674   7.171  0.3368  0.1038  0.3347
  636MOL0     O85761   4.872   5.684   7.175 -0.0892  0.9302 -0.1676
  636MOL0     C85762   4.788   5.611   7.269  0.4908  0.2709 -0.7817
  636MOL0     C85763   4.651   5.680   7.284  0.2459  0.6351  0.3789
  636MOL0     C85764   4.677   5.827   7.322 -0.2940 -0.1030  0.6392
  636MOL0     C85765   4.535   5.900   7.335  0.1608 -0.0041  0.3798
  636MOL0     C85766   4.444   5.834   7.444  0.5919 -0.0937 -0.3150
  636MOL0     C85767   4.346   5.929   7.508  0.1897  0.0642 -0.4171
  636MOL0     C85768   4.260   5.832   7.599  0.5837 -0.5074 -0.0548
  636MOL0     C85769   4.159   5.900   7.697 -0.1428  0.8108 -0.7791
  636MOL0    Cl85770   4.095   6.046   7.621  0.6966 -0.3647 -0.5560
  636MOL0     C85771   5.084   5.771   7.109  0.4963 -0.5936  0.8770
  636MOL0     C85772   5.214   5.744   7.085  0.1691  0.5864  0.9056
  636MOL0     O85773   5.417   5.409   7.035 -0.0908  0.2124  0.4325
  636MOL0     C85774   5.706   5.588   7.124  0.6879 -0.0209  0.3101
  636MOL0     C85775   5.845   5.585   7.113 -0.6261 -0.7636 -0.4284
  636MOL0     N85776   6.271   5.106   7.359 -0.2709  0.0127 -0.6289
  636MOL0     N85777   6.314   4.990   7.391  0.3014 -0.0696 -0.3093
  636MOL0     C85778   7.154   4.424   7.737  0.7029 -0.8793  0.1971
  636MOL0     C85779   7.278   4.480   7.779  0.6246 -1.0479  0.4554
  636MOL0     C85780   7.664   4.732   7.709  0.0440  0.2939  0.0631
  636MOL0     C85781   7.777   4.659   7.696 -0.3030  0.3693  0.4548
  636MOL0     C85782   7.910   4.712   7.694  0.4489  0.4439 -0.2053
  636MOL0     C85783   7.918   4.851   7.696 -0.7401  1.1475  0.2889
  636MOL0     O85784   8.038   4.914   7.673  0.3675 -0.0472 -0.3197
  636MOL0     C85785   8.134   4.916   7.780 -1.0878 -0.4568 -0.1638
  636MOL0     C85786   8.236   4.816   7.751 -0.4864  0.8284 -0.4423
  636MOL0     C85787   8.345   4.815   7.863 -0.5526 -0.0183  0.1848
  636MOL0     C85788   8.446   4.692   7.857 -0.0048  0.0208 -0.8736
  636MOL0     C85789   8.563   4.721   7.772  0.7167  0.3723 -0.2979
  636MOL0     C85790   8.658   4.714   7.707 -0.6833 -0.3938 -0.4008
  636MOL0     C85791   7.806   4.933   7.691  0.6047 -0.0838  0.5090
  636MOL0     C85792   7.681   4.871   7.708 -0.6414 -0.2689 -0.4234
  636MOL0     H85793   7.458   4.394   7.504  2.5721  1.1313  2.4574
  636MOL0     H85794   7.245   4.276   7.456 -1.0231 -1.4533  1.5027
  636MOL0     H85795   7.035   4.334   7.383 -0.9697  1.1799  1.6171
  636MOL0     H85796   7.027   4.165   7.423  3.1345  0.1393 -0.3186
  636MOL0     H85797   6.809   4.219   7.332  1.3986  0.6354 -0.3696
  636MOL0     H85798   6.798   4.218   7.521  0.6977  0.8849  1.9490
  636MOL0     H85799   6.794   4.445   7.528 -2.8144 -0.5866  1.0808
  636MOL0     H85800   6.843   4.451   7.355 -2.8602  0.4526 -1.1217
  636MOL0     H85801   6.650   4.381   7.270  0.0487  1.4409 -0.6185
  636MOL0     H85802   6.573   4.315   7.409  0.7052  0.1819 -0.6288
  636MOL0     H85803   6.477   4.540   7.328 -0.7595 -1.2502  0.5258
  636MOL0     H85804   6.553   4.563   7.494  2.7588  0.5832  0.3608
  636MOL0     H85805   6.742   4.683   7.350  0.0604 -0.3434 -0.9043
  636MOL0     H85806   6.647   4.649   7.218 -2.8563 -1.7628 -0.4547
  636MOL0     H85807   6.558   4.824   7.460  2.7042 -1.1941 -0.5293
  636MOL0     H85808   6.617   4.893   7.321 -2.0239  2.5952  1.1718
  636MOL0     H85809   6.355   4.719   7.320 -0.4318 -0.6851 -0.9392
  636MOL0     H85810   6.443   4.762   7.179 -0.6221 -0.3015  0.1789
  636MOL0     H85811   6.305   4.988   7.063 -1.6941 -1.6702  0.3556
  636MOL0     H85812   6.125   5.263   7.156 -0.2644 -1.9768 -2.5748
  636MOL0     H85813   6.269   5.337   7.232 -1.4702 -0.0890  0.6084
  636MOL0     H85814   6.264   5.198   6.965  1.4297 -1.3986  1.0564
  636MOL0     H85815   6.408   5.280   7.027  0.4507 -0.3242 -1.7174
  636MOL0     H85816   6.336   5.446   6.878 -0.0718 -1.1322 -0.6550
  636MOL0     H85817   6.305   5.500   7.038  2.4095  3.0233 -3.9229
  636MOL0     H85818   6.089   5.353   6.880  1.4628  0.4836 -2.6954
  636MOL0     H85819   6.125   5.513   6.835 -1.3525  1.3487  1.4257
  636MOL0     H85820   5.882   5.330   6.906 -1.2486 -0.0306 -0.7383
  636MOL0     H85821   5.568   5.324   6.838 -0.0316  1.7838  1.1691
  636MOL0     H85822   5.704   5.211   6.887 -0.7876  0.0507 -1.1048
  636MOL0     H85823   5.571   5.237   6.994  0.4787 -0.0765  0.4879
  636MOL0     H85824   5.274   5.448   7.230  1.6968  0.6483 -1.1814
  636MOL0     H85825   5.024   5.488   7.285  1.2495  1.0718  2.1082
  636MOL0     H85826   4.777   5.504   7.246  1.7546 -0.6381  2.2049
  636MOL0     H85827   4.837   5.621   7.367 -0.6726 -1.0890 -0.0008
  636MOL0     H85828   4.595   5.677   7.190  0.9448 -1.9704 -0.0278
  636MOL0     H85829   4.583   5.643   7.361  1.3609  0.5509  1.3655
  636MOL0     H85830   4.750   5.874   7.256 -1.1724  2.1646  1.2136
  636MOL0     H85831   4.721   5.840   7.422 -4.0591  2.0078  2.2413
  636MOL0     H85832   4.554   6.003   7.368  0.2017 -0.4026  1.6561
  636MOL0     H85833   4.493   5.898   7.234  2.8187 -1.8271 -0.8064
  636MOL0     H85834   4.505   5.786   7.521 -2.3387 -1.2901  1.4387
  636MOL0     H85835   4.382   5.763   7.388 -4.7385  3.2075  0.6860
  636MOL0     H85836   4.402   5.999   7.571  1.2314  0.8138 -2.1076
  636MOL0     H85837   4.288   5.981   7.431  0.5051 -0.9743 -1.3862
  636MOL0     H85838   4.319   5.761   7.658 -1.2953 -1.8976  0.2472
  636MOL0     H85839   4.200   5.764   7.538  1.3818  0.1207 -1.5995
  636MOL0     H85840   4.198   5.916   7.798 -0.9353 -0.2831 -0.2792
  636MOL0     H85841   4.070   5.838   7.711  2.0967 -2.5874 -0.1552
  636MOL0     H85842   5.038   5.862   7.071  2.2261 -1.4854 -4.0685
  636MOL0     H85843   5.267   5.825   7.036 -2.3361  0.9323 -1.4923
  636MOL0     H85844   5.660   5.654   7.197  0.5191 -1.4456  1.5487
  636MOL0     H85845   5.902   5.655   7.173  0.6864  0.0401 -2.5036
  636MOL0     H85846   7.066   4.432   7.800  0.5753 -0.8970  0.0197
  636MOL0     H85847   7.286   4.531   7.875  0.6697  0.9680 -0.5544
  636MOL0     H85848   7.772   4.550   7.692  0.0830  0.3379  0.7443
  636MOL0     H85849   7.999   4.650   7.688  0.4475  0.1729  1.8899
  636MOL0     H85850   8.171   5.016   7.805 -2.3772 -0.0459  0.1592
  636MOL0     H85851   8.083   4.885   7.871  1.0053  0.9573  1.6138
  636MOL0     H85852   8.274   4.832   7.650  0.3855 -0.4634 -0.3543
  636MOL0     H85853   8.194   4.715   7.754  1.2748  0.0302  2.8504
  636MOL0     H85854   8.283   4.814   7.953  0.7729 -2.1035  1.1554
  636MOL0     H85855   8.406   4.906   7.860  2.1588 -1.6770  1.2197
  636MOL0     H85856   8.398   4.605   7.811 -0.5941 -0.6027  0.8637
  636MOL0     H85857   8.467   4.659   7.959 -2.7993  0.7080  0.0268
  636MOL0     H85858   8.743   4.694   7.645 -0.9771  0.6162 -1.1402
  636MOL0     H85859   7.811   5.041   7.692 -2.7486  0.3492 -2.8553
  636MOL0     H85860   7.593   4.932   7.729 -0.6832 -0.8323  1.1958
  637MOL0     O85861  11.145   3.088   2.229 -0.3631 -0.3224 -0.0544
  637MOL0     C85862  11.128   3.180   2.147  0.6768 -0.2469  0.1209
  637MOL0     O85863  11.208   3.206   2.039  0.4710  0.6451 -0.3719
  637MOL0     C85864  11.331   3.141   2.034 -0.9483 -0.4412 -0.1440
  637MOL0     C85865  11.437   3.206   1.974 -0.0515 -0.1475 -0.3938
  637MOL0     C85866  11.567   3.152   1.960 -0.0014 -0.2287  0.4863
  637MOL0     C85867  11.582   3.013   1.981  0.2600  0.0330  0.1889
  637MOL0     O85868  11.699   2.947   1.945  0.5514  0.8286  0.0879
  637MOL0     C85869  11.812   3.032   1.942  0.4409 -0.1325 -0.7318
  637MOL0     C85870  11.924   2.948   1.887 -0.1123  0.2638 -0.5142
  637MOL0     C85871  12.032   3.020   1.804  0.2281 -0.0935 -0.2952
  637MOL0     C85872  12.126   3.090   1.891  0.2030  0.4764 -0.1710
  637MOL0     C85873  12.230   3.003   1.965 -1.0296  0.6930  0.0743
  637MOL0     C85874  12.361   3.080   2.003  0.0737  0.5515  0.2624
  637MOL0     C85875  12.459   2.983   2.083  0.9006  0.5886  1.1522
  637MOL0     C85876  12.596   3.047   2.099 -0.0465 -0.0656  0.0608
  637MOL0     N85877  12.672   2.958   2.193  0.1261 -0.4860 -0.1022
  637MOL0     C85878  12.792   2.884   2.167  0.2572 -0.4672  0.5640
  637MOL0     C85879  12.851   2.857   2.281  0.3023  0.5101 -0.9079
  637MOL0     C85880  12.977   2.773   2.294  0.2613  0.4924  0.9408
  637MOL0     C85881  12.947   2.648   2.372  0.8901 -0.0270  0.6014
  637MOL0     C85882  12.871   2.538   2.303 -0.2898 -0.2410 -0.4187
  637MOL0     C85883  12.729   2.586   2.252  0.6914 -0.3276 -0.6186
  637MOL0     O85884  12.638   2.480   2.242  0.1868  0.7794  0.5074
  637MOL0     C85885  12.514   2.489   2.186 -0.6905 -0.9332  0.4891
  637MOL0     C85886  12.449   2.374   2.132 -0.0763  0.5524  0.5801
  637MOL0     C85887  12.328   2.378   2.061  0.2432 -0.8245  0.1933
  637MOL0     C85888  12.271   2.250   2.012  0.2899  0.0537  0.4609
  637MOL0     C85889  12.263   2.500   2.044  0.1348  0.1415 -0.0792
  637MOL0     C85890  12.132   2.511   1.978 -1.4454 -0.0619 -0.6066
  637MOL0     O85891  12.041   2.424   2.016  0.2101  0.4637  0.2072
  637MOL0     C85892  11.912   2.459   1.987 -0.4970  0.1264 -0.2277
  637MOL0     C85893  11.842   2.548   2.075 -0.0149  0.9448  0.6610
  637MOL0     C85894  11.706   2.578   2.039 -0.2768  0.1797 -1.0452
  637MOL0     C85895  11.646   2.525   1.930  0.5122 -0.4086  0.8600
  637MOL0     O85896  11.517   2.567   1.906  0.1680  0.7499 -0.1492
  637MOL0     C85897  11.466   2.559   1.776  0.5656  0.1109  0.3661
  637MOL0     C85898  11.334   2.630   1.772  0.4640 -0.3701  0.3996
  637MOL0     C85899  11.208   2.583   1.845 -0.1862  0.0724  0.2295
  637MOL0     C85900  11.089   2.677   1.848  0.2298 -0.5141  0.1160
  637MOL0     C85901  10.961   2.618   1.889 -0.4897 -0.3520 -0.3401
  637MOL0     C85902  10.854   2.728   1.924 -0.8228 -0.1989  0.1140
  637MOL0     C85903  10.870   2.776   2.074 -0.6947 -0.7501 -0.7406
  637MOL0     C85904  10.750   2.823   2.144  0.2742 -0.0829  0.8796
  637MOL0    Cl85905  10.784   2.952   2.259 -0.1960 -0.3995  0.1634
  637MOL0     C85906  11.724   2.450   1.833  0.0194 -0.9951 -0.3551
  637MOL0     C85907  11.853   2.414   1.868  0.3513 -0.4989 -0.4721
  637MOL0     O85908  12.106   2.617   1.927 -0.3977  0.3632 -0.2811
  637MOL0     C85909  12.319   2.612   2.110 -0.0003 -0.3007  1.4712
  637MOL0     C85910  12.445   2.608   2.163 -0.0683 -0.8352  0.8099
  637MOL0     N85911  12.766   2.909   2.376 -0.1110 -0.3002 -0.0771
  637MOL0     N85912  12.661   2.969   2.326 -0.4651 -0.5783 -0.2851
  637MOL0     C85913  11.474   2.943   2.038  0.1619  0.2582 -0.1621
  637MOL0     C85914  11.353   3.006   2.057  0.0108 -0.6171 -1.2556
  637MOL0     C85915  11.020   3.275   2.185  0.3162  0.4745 -0.0784
  637MOL0     C85916  10.992   3.385   2.105  0.4380  0.6039 -0.4609
  637MOL0     C85917  10.883   3.463   2.133  0.9939 -0.2726 -0.2245
  637MOL0     C85918  10.787   3.429   2.232  0.5310 -0.8904  0.1284
  637MOL0     O85919  10.674   3.500   2.260  0.6216  0.0049  0.8071
  637MOL0     C85920  10.616   3.573   2.146 -0.1367 -0.0607  0.0409
  637MOL0     C85921  10.478   3.614   2.190 -1.3232 -1.2367  0.4716
  637MOL0     C85922  10.388   3.515   2.253 -0.2713 -0.2888  0.3761
  637MOL0     C85923  10.272   3.579   2.329 -0.6120  0.0377  0.4484
  637MOL0     C85924  10.207   3.474   2.412  0.5181 -1.4061 -0.3417
  637MOL0     C85925  10.141   3.396   2.478 -0.0882 -0.7473 -0.0023
  637MOL0     C85926  10.812   3.321   2.313  0.8892 -0.2348 -0.4352
  637MOL0     C85927  10.925   3.244   2.290 -0.1321  0.0512 -0.5116
  637MOL0     H85928  11.438   3.312   1.952  0.3972 -0.1223 -0.2797
  637MOL0     H85929  11.630   3.224   1.908 -1.7105 -0.0939 -1.5427
  637MOL0     H85930  11.796   3.115   1.872  1.3124 -1.3662 -2.4689
  637MOL0     H85931  11.837   3.074   2.039 -0.2484 -2.8194  0.7070
  637MOL0     H85932  11.972   2.900   1.974  0.9252  0.9142 -0.7114
  637MOL0     H85933  11.878   2.868   1.828  1.5472 -2.7588  1.9745
  637MOL0     H85934  12.084   2.946   1.743 -0.5493 -0.8490 -0.0583
  637MOL0     H85935  11.996   3.087   1.725 -1.1026 -0.5028 -0.0619
  637MOL0     H85936  12.184   3.159   1.830  4.4209 -0.5994  2.2102
  637MOL0     H85937  12.063   3.151   1.956  0.2455  0.0992  0.2363
  637MOL0     H85938  12.179   2.950   2.046 -0.3180 -1.1469 -0.6135
  637MOL0     H85939  12.265   2.917   1.907  2.6195  0.5395  2.2094
  637MOL0     H85940  12.402   3.125   1.912  0.0424 -0.9011 -0.4955
  637MOL0     H85941  12.338   3.153   2.081 -0.1173  0.0395  0.6925
  637MOL0     H85942  12.411   2.948   2.175 -0.4546  0.8397  0.5683
  637MOL0     H85943  12.470   2.885   2.035 -1.7614 -0.3432  2.2370
  637MOL0     H85944  12.594   3.150   2.136  1.0793 -0.7186  2.0497
  637MOL0     H85945  12.649   3.052   2.004  1.4896 -3.0463  0.6524
  637MOL0     H85946  12.826   2.865   2.066 -2.9725 -0.6158 -0.5972
  637MOL0     H85947  13.029   2.758   2.199 -1.7942  4.0303 -0.9311
  637MOL0     H85948  13.046   2.842   2.342  0.4227  3.5291 -3.1669
  637MOL0     H85949  12.877   2.676   2.450  0.5998 -0.3942  0.4774
  637MOL0     H85950  13.039   2.605   2.413  0.9766 -3.9496 -2.9474
  637MOL0     H85951  12.849   2.458   2.376 -0.1030  1.3252  1.4261
  637MOL0     H85952  12.931   2.486   2.228  0.1607 -0.5483  0.1445
  637MOL0     H85953  12.742   2.632   2.153 -0.4941  1.6859  0.0873
  637MOL0     H85954  12.672   2.654   2.316 -3.4586 -1.5947 -2.5561
  637MOL0     H85955  12.506   2.284   2.151  2.8376  2.1789  0.2104
  637MOL0     H85956  12.208   2.207   2.090 -1.7449  2.3784  0.2310
  637MOL0     H85957  12.225   2.271   1.916  6.1628  0.2928 -2.7811
  637MOL0     H85958  12.353   2.181   1.989 -0.0851 -0.3368  0.3048
  637MOL0     H85959  11.885   2.577   2.170 -0.2023 -0.5689  1.2322
  637MOL0     H85960  11.645   2.640   2.104  2.2327 -1.1382  2.9357
  637MOL0     H85961  11.539   2.607   1.710  1.5618 -0.4282  1.0493
  637MOL0     H85962  11.435   2.457   1.748 -2.2123  1.3836 -1.7398
  637MOL0     H85963  11.354   2.733   1.805  0.3776 -0.1922 -0.0877
  637MOL0     H85964  11.301   2.650   1.670 -2.1724 -2.7213  0.6646
  637MOL0     H85965  11.233   2.536   1.940 -0.3925 -0.1085  0.1981
  637MOL0     H85966  11.182   2.500   1.777  1.2241 -0.0247 -0.2154
  637MOL0     H85967  11.122   2.755   1.918  2.0924  0.6504 -1.9360
  637MOL0     H85968  11.085   2.740   1.759  0.4576 -0.4885  0.1233
  637MOL0     H85969  10.974   2.550   1.975 -0.2786 -0.7877 -0.7118
  637MOL0     H85970  10.926   2.563   1.801  0.4366 -1.0398 -0.2997
  637MOL0     H85971  10.868   2.809   1.851  3.0991 -0.4975  0.2985
  637MOL0     H85972  10.750   2.697   1.915 -1.7648  2.7093  0.0106
  637MOL0     H85973  10.942   2.859   2.070  0.9209 -1.9834  0.8600
  637MOL0     H85974  10.921   2.700   2.134  0.2132  0.1202 -0.3587
  637MOL0     H85975  10.699   2.738   2.190  0.5225  0.9007  3.1001
  637MOL0     H85976  10.681   2.858   2.068  0.9506  0.7076  0.6177
  637MOL0     H85977  11.675   2.413   1.744 -0.3532 -2.0380  0.2660
  637MOL0     H85978  11.918   2.358   1.802  2.2243  0.0386  0.8357
  637MOL0     H85979  12.269   2.707   2.123  0.0169  0.1709 -1.4197
  637MOL0     H85980  12.501   2.697   2.191  2.1830 -2.0905  0.5824
  637MOL0     H85981  11.497   2.839   2.062  0.6526  0.7087  1.4210
  637MOL0     H85982  11.266   2.943   2.071 -0.3261 -0.4790 -2.6087
  637MOL0     H85983  11.055   3.415   2.022 -0.9161  2.3056 -0.9418
  637MOL0     H85984  10.876   3.553   2.073 -1.2104  0.9871  1.7261
  637MOL0     H85985  10.675   3.657   2.108 -0.6019  0.1277 -0.2708
  637MOL0     H85986  10.602   3.505   2.061 -1.7990  1.3470 -0.8628
  637MOL0     H85987  10.424   3.655   2.104 -1.3090  1.3766  1.6043
  637MOL0     H85988  10.494   3.701   2.255 -2.0421 -0.0938 -0.8273
  637MOL0     H85989  10.450   3.457   2.321  1.3169  1.0057  0.0983
  637MOL0     H85990  10.344   3.444   2.182  2.0951 -0.0576 -1.4462
  637MOL0     H85991  10.200   3.629   2.264 -1.1698 -1.1534  0.1144
  637MOL0     H85992  10.316   3.654   2.395  3.7673 -2.5069  0.8184
  637MOL0     H85993  10.075   3.323   2.519 -2.2517 -0.2464 -2.3308
  637MOL0     H85994  10.735   3.303   2.386  0.4404 -0.4373 -0.9492
  637MOL0     H85995  10.934   3.161   2.359  0.3197 -1.0007 -1.8006
  638MOL0     O85996   3.158   4.029   5.959  0.0428 -0.3426  0.7420
  638MOL0     C85997   3.251   4.054   6.036  0.1207  0.0024 -0.5992
  638MOL0     O85998   3.237   4.086   6.165 -0.5049 -0.0828 -0.3527
  638MOL0     C85999   3.112   4.085   6.221  0.6419 -0.7227 -0.6999
  638MOL0     C86000   3.031   3.977   6.246 -1.6168  0.0135  0.9124
  638MOL0     C86001   2.904   3.990   6.302  0.0061  0.1357  0.1865
  638MOL0     C86002   2.842   4.123   6.325  0.9365 -0.2943  0.3789
  638MOL0     O86003   2.716   4.157   6.369  1.0698 -0.5329 -0.2435
  638MOL0     C86004   2.617   4.053   6.379 -0.0881  0.4961  0.1584
  638MOL0     C86005   2.473   4.097   6.386 -1.0853  0.5218 -0.1302
  638MOL0     C86006   2.457   4.221   6.469 -0.4997  0.4573  0.8553
  638MOL0     C86007   2.319   4.246   6.503  0.2889  0.3101  0.3244
  638MOL0     C86008   2.203   4.209   6.402 -0.2219  0.5701 -0.9037
  638MOL0     C86009   2.065   4.257   6.423  0.4239 -0.2103  0.7999
  638MOL0     C86010   2.046   4.374   6.334  0.2161 -0.2987  0.4731
  638MOL0     C86011   1.993   4.343   6.198 -0.5586  0.5471 -0.5292
  638MOL0     N86012   1.996   4.459   6.113  0.1340 -0.5728 -0.1116
  638MOL0     C86013   1.909   4.559   6.102 -0.3192 -0.0341  0.0339
  638MOL0     C86014   1.963   4.665   6.026  0.1114  0.4211 -0.9847
  638MOL0     C86015   1.904   4.807   6.000  0.6771  0.1319  0.2596
  638MOL0     C86016   1.752   4.808   6.048  0.9555 -0.4700 -0.1310
  638MOL0     C86017   1.677   4.931   5.999 -0.0457  0.0055 -0.1304
  638MOL0     C86018   1.531   4.933   6.050 -0.6764  0.3812  0.0368
  638MOL0     O86019   1.451   4.854   5.959  0.2778 -0.6182  0.4787
  638MOL0     C86020   1.315   4.849   5.986  0.5559 -0.1586 -0.1234
  638MOL0     C86021   1.249   4.908   6.095 -0.1678  0.2933  1.2171
  638MOL0     C86022   1.115   4.901   6.103  0.4705 -0.0521  0.1283
  638MOL0     C86023   1.045   4.964   6.224 -0.0883 -0.0450  0.7346
  638MOL0     C86024   1.041   4.832   6.014  0.8775 -0.4816  0.2174
  638MOL0     C86025   0.887   4.807   6.012 -0.9811  0.7530  0.4925
  638MOL0     O86026   0.845   4.693   5.944  0.6545 -0.1255 -0.3829
  638MOL0     C86027   0.704   4.665   5.946 -0.1752  0.5072  0.4812
  638MOL0     C86028   0.672   4.538   5.990 -0.1062  1.2032  0.9501
  638MOL0     C86029   0.538   4.504   6.016 -0.1401 -0.0066 -0.1897
  638MOL0     C86030   0.439   4.598   5.984  1.0891  1.1789 -1.0387
  638MOL0     O86031   0.311   4.552   6.007 -0.3405  0.0309  0.0669
  638MOL0     C86032   0.202   4.635   5.970 -0.3622 -0.0541  0.5947
  638MOL0     C86033   0.084   4.534   5.994  0.2280 -0.6314  0.7666
  638MOL0     C86034  -0.037   4.579   5.916 -0.6271  0.2556  0.4675
  638MOL0     C86035  -0.153   4.480   5.955 -0.0820  0.9674 -0.2483
  638MOL0     C86036  -0.248   4.484   5.839  0.5588 -0.2941 -0.4670
  638MOL0     C86037  -0.388   4.469   5.893 -0.0577 -0.9756 -0.8913
  638MOL0     C86038  -0.489   4.464   5.785  0.2197 -0.6639 -0.0230
  638MOL0     C86039  -0.510   4.328   5.715 -0.1266 -0.8221 -0.4049
  638MOL0    Cl86040  -0.589   4.232   5.843  0.3063  0.1733 -0.2902
  638MOL0     C86041   0.469   4.722   5.948  0.5145 -0.0862  0.7998
  638MOL0     C86042   0.599   4.755   5.917  0.0064  0.4898  0.3830
  638MOL0     O86043   0.817   4.891   6.068  0.5055  0.0973  0.0264
  638MOL0     C86044   1.109   4.772   5.904  0.2802  0.0271 -0.4656
  638MOL0     C86045   1.244   4.780   5.893  0.2927  0.5698  0.2862
  638MOL0     N86046   2.083   4.612   5.975  0.2855 -0.2535 -0.0924
  638MOL0     N86047   2.098   4.492   6.028 -0.6980  0.0302  0.3813
  638MOL0     C86048   2.932   4.227   6.298 -0.2632  0.6380 -0.1964
  638MOL0     C86049   3.057   4.213   6.243  0.4237 -0.1207  0.3848
  638MOL0     C86050   3.392   4.063   5.987 -0.5934  0.9901  0.0881
  638MOL0     C86051   3.420   4.048   5.846  0.7840  0.4503  0.0466
  638MOL0     C86052   3.554   4.042   5.808  0.4001  0.0159 -0.2954
  638MOL0     C86053   3.662   4.061   5.893  0.6176  0.2320 -0.9796
  638MOL0     O86054   3.785   4.079   5.842 -0.1097  0.1717  0.1687
  638MOL0     C86055   3.904   4.064   5.924 -0.7688 -0.0196 -1.1683
  638MOL0     C86056   4.020   3.992   5.846  0.2740  0.2767 -0.2208
  638MOL0     C86057   4.045   4.053   5.718  0.3800  0.2382 -0.1585
  638MOL0     C86058   4.106   4.190   5.713 -0.7605  0.1314 -0.1200
  638MOL0     C86059   4.083   4.249   5.581 -0.8918 -0.5462 -0.0450
  638MOL0     C86060   4.064   4.291   5.467  0.1576  0.0908 -0.0472
  638MOL0     C86061   3.634   4.085   6.034  0.2024  0.6362 -0.3002
  638MOL0     C86062   3.494   4.072   6.073 -0.0260 -0.0826  0.1680
  638MOL0     H86063   3.058   3.874   6.225 -3.3309 -0.2880 -0.0103
  638MOL0     H86064   2.839   3.903   6.306  0.0837 -0.0210 -1.5665
  638MOL0     H86065   2.626   3.985   6.295  1.2571  1.9391 -0.9232
  638MOL0     H86066   2.637   4.002   6.473  0.4758 -2.2993 -1.3879
  638MOL0     H86067   2.435   4.113   6.285  4.3989 -1.0282 -2.8090
  638MOL0     H86068   2.419   4.011   6.427 -1.0253 -0.3135 -1.7291
  638MOL0     H86069   2.522   4.211   6.556  0.1728  2.4594  0.6184
  638MOL0     H86070   2.487   4.310   6.414  0.5461 -1.4727 -1.9746
  638MOL0     H86071   2.294   4.189   6.592 -0.3641  2.3276  1.4924
  638MOL0     H86072   2.309   4.350   6.537  2.9519  0.4571  0.8970
  638MOL0     H86073   2.242   4.228   6.301 -0.9426 -1.0140 -1.5085
  638MOL0     H86074   2.193   4.101   6.397 -0.2119  0.4035  1.4688
  638MOL0     H86075   1.998   4.174   6.401  0.4502 -0.3857  1.3647
  638MOL0     H86076   2.053   4.273   6.530  4.5984 -0.4296  1.4560
  638MOL0     H86077   1.971   4.428   6.394  0.1215  0.6556 -0.4669
  638MOL0     H86078   2.134   4.438   6.333 -0.5703  0.8359  0.8493
  638MOL0     H86079   1.892   4.303   6.212  0.6676 -1.9382  2.3708
  638MOL0     H86080   2.052   4.261   6.157  1.7421 -0.4765  4.1500
  638MOL0     H86081   1.811   4.556   6.149  0.5815 -3.1845  1.9988
  638MOL0     H86082   1.951   4.886   6.060 -0.2717  1.3728 -0.5818
  638MOL0     H86083   1.917   4.832   5.895 -0.2369  2.9170  0.7047
  638MOL0     H86084   1.751   4.812   6.157  3.3684 -0.8156 -0.0352
  638MOL0     H86085   1.701   4.717   6.015 -1.3204  0.8109 -0.3003
  638MOL0     H86086   1.661   4.932   5.891 -1.8730  0.8317  0.1038
  638MOL0     H86087   1.730   5.024   6.024  0.2870 -0.3673  0.6078
  638MOL0     H86088   1.501   5.037   6.032  2.0236  0.8085 -2.8837
  638MOL0     H86089   1.529   4.906   6.156 -0.5893  1.7603  0.4132
  638MOL0     H86090   1.306   4.971   6.162  3.2791 -1.2099 -0.1170
  638MOL0     H86091   1.005   5.061   6.192 -0.1789 -0.7591 -1.5543
  638MOL0     H86092   0.967   4.898   6.264 -0.2338  0.7250  1.7700
  638MOL0     H86093   1.113   4.981   6.307  0.0517  1.5473  0.3281
  638MOL0     H86094   0.754   4.470   6.012 -0.7532  0.9738  2.8525
  638MOL0     H86095   0.512   4.407   6.056  1.1494 -0.9740 -1.6027
  638MOL0     H86096   0.181   4.719   6.037 -0.3468 -0.0827  0.6360
  638MOL0     H86097   0.215   4.673   5.868  0.4674  1.0263  1.0763
  638MOL0     H86098   0.118   4.435   5.964  1.5301  0.2596 -0.8693
  638MOL0     H86099   0.074   4.551   6.101 -2.1462 -0.0742  0.5204
  638MOL0     H86100  -0.011   4.575   5.809 -0.2971  2.2823  0.4277
  638MOL0     H86101  -0.059   4.683   5.939 -0.1695  0.9352 -1.8261
  638MOL0     H86102  -0.111   4.382   5.979 -2.1156  0.4744  1.6648
  638MOL0     H86103  -0.195   4.516   6.050  1.6623 -0.2231  1.0437
  638MOL0     H86104  -0.229   4.413   5.758  0.8733 -1.5725  0.6976
  638MOL0     H86105  -0.231   4.581   5.789  1.0271 -0.1131  0.0396
  638MOL0     H86106  -0.391   4.374   5.947  1.3167 -1.3417 -1.4204
  638MOL0     H86107  -0.411   4.554   5.958  0.0323 -0.1810 -1.8819
  638MOL0     H86108  -0.455   4.539   5.712 -0.7184  1.3202  1.5056
  638MOL0     H86109  -0.589   4.493   5.820 -0.4697 -1.8245 -0.9444
  638MOL0     H86110  -0.416   4.283   5.681  1.4040  0.6451  1.5868
  638MOL0     H86111  -0.578   4.343   5.631 -0.0236 -0.7096 -0.4704
  638MOL0     H86112   0.391   4.798   5.944 -1.0058 -1.6231 -0.1687
  638MOL0     H86113   0.636   4.855   5.899  1.9058 -0.3552 -0.6285
  638MOL0     H86114   1.055   4.723   5.823  2.1789 -1.2643 -1.0248
  638MOL0     H86115   1.299   4.747   5.806 -0.9106 -0.8292  0.0085
  638MOL0     H86116   2.891   4.325   6.319 -2.0603 -0.4554  1.8106
  638MOL0     H86117   3.125   4.296   6.230 -0.6536  0.9942  1.5528
  638MOL0     H86118   3.341   4.059   5.772  0.6603  0.2566  0.1472
  638MOL0     H86119   3.579   4.041   5.702  0.5336 -0.9578 -0.2664
  638MOL0     H86120   3.928   4.165   5.957 -2.0223  0.5587 -1.9670
  638MOL0     H86121   3.870   4.008   6.012 -2.6234  1.7238 -0.6976
  638MOL0     H86122   3.994   3.887   5.831  2.1039 -0.5801  1.8930
  638MOL0     H86123   4.112   3.996   5.906 -1.7793  0.7061  3.1802
  638MOL0     H86124   3.951   4.054   5.664 -1.5754  0.0032  2.9824
  638MOL0     H86125   4.104   3.974   5.671 -0.3990 -0.9130  0.7427
  638MOL0     H86126   4.209   4.195   5.750 -1.1940 -0.0197  1.1481
  638MOL0     H86127   4.050   4.257   5.779 -3.1811 -1.8452 -0.0008
  638MOL0     H86128   4.046   4.329   5.368  0.3768 -1.0357 -0.5372
  638MOL0     H86129   3.710   4.106   6.108 -1.2837 -0.5410  1.6513
  638MOL0     H86130   3.480   4.074   6.181 -1.8426  1.2853 -0.0607
  639MOL0     O86131   2.163   9.173   9.775  1.3659 -0.5789  0.7183
  639MOL0     C86132   2.203   9.263   9.706  0.2667  0.4519  0.7490
  639MOL0     O86133   2.133   9.322   9.607  0.3746 -0.2447  0.2762
  639MOL0     C86134   2.000   9.291   9.599 -0.7282 -0.7674  0.0767
  639MOL0     C86135   1.955   9.290   9.467 -0.9288  0.1607 -0.1290
  639MOL0     C86136   1.818   9.279   9.441  0.2318  0.5861 -0.6796
  639MOL0     C86137   1.725   9.268   9.544  0.1460 -0.2298  0.0232
  639MOL0     O86138   1.587   9.269   9.522 -0.1299  0.8854 -0.0832
  639MOL0     C86139   1.526   9.308   9.396  0.4441  0.3314 -0.3946
  639MOL0     C86140   1.377   9.282   9.398  0.4046 -0.0667  0.0006
  639MOL0     C86141   1.304   9.308   9.268  0.0567  0.4445 -0.9633
  639MOL0     C86142   1.355   9.254   9.138 -1.1761 -0.1065  0.6995
  639MOL0     C86143   1.250   9.251   9.032  0.0668 -0.6487  0.4963
  639MOL0     C86144   1.317   9.243   8.884 -1.1229 -0.2931 -0.8758
  639MOL0     C86145   1.216   9.199   8.786  0.4612  0.0561 -0.8990
  639MOL0     C86146   1.262   9.224   8.645  0.8184 -0.0723  0.2970
  639MOL0     N86147   1.165   9.168   8.541 -0.8861 -0.2425 -0.4821
  639MOL0     C86148   1.174   9.042   8.496  1.0220 -0.5389 -1.2446
  639MOL0     C86149   1.080   9.041   8.399  0.1464  0.1071 -0.2938
  639MOL0     C86150   1.021   8.913   8.337 -1.0480  0.8640  0.5805
  639MOL0     C86151   1.113   8.890   8.211  1.6234 -0.0039 -0.0311
  639MOL0     C86152   1.103   8.999   8.102  0.6143 -0.1898  0.1381
  639MOL0     C86153   0.964   9.065   8.082 -0.9351  1.0757  1.3474
  639MOL0     O86154   0.869   8.968   8.040 -0.1269  0.7387  0.4595
  639MOL0     C86155   0.740   9.007   8.027  0.0775  0.0318  0.0637
  639MOL0     C86156   0.640   8.909   7.992 -0.0499  0.0191 -0.5756
  639MOL0     C86157   0.504   8.944   7.987  0.4959  0.4255  0.0492
  639MOL0     C86158   0.404   8.828   7.948 -0.3274 -0.7324  0.7006
  639MOL0     C86159   0.462   9.077   8.011 -0.1711  0.3474  0.2020
  639MOL0     C86160   0.321   9.113   8.016 -0.8210  0.2731  0.3096
  639MOL0     O86161   0.287   9.207   8.111  0.3233  0.3753  0.6117
  639MOL0     C86162   0.154   9.208   8.152  0.3325  0.1511  0.1047
  639MOL0     C86163   0.051   9.284   8.094  1.6616  0.1536 -0.2174
  639MOL0     C86164  -0.082   9.263   8.127  1.0597  1.2034  0.9267
  639MOL0     C86165  -0.113   9.166   8.225  0.7301 -0.7767  0.1939
  639MOL0     O86166  -0.246   9.160   8.266 -0.6104 -0.3963 -0.0981
  639MOL0     C86167  -0.285   9.022   8.290 -1.2456  0.6089 -0.8710
  639MOL0     C86168  -0.436   8.995   8.300 -0.8015 -0.3039 -0.4482
  639MOL0     C86169  -0.502   8.998   8.154 -0.5512  0.1096  0.9385
  639MOL0     C86170  -0.655   8.990   8.166 -0.0287  0.1190  0.7132
  639MOL0     C86171  -0.721   9.005   8.020 -0.6825  0.4284 -0.5202
  639MOL0     C86172  -0.728   8.869   7.950 -0.0582  0.3803  0.3609
  639MOL0     C86173  -0.825   8.874   7.839 -0.2798  0.1695  0.2612
  639MOL0     C86174  -0.976   8.860   7.880 -0.2343 -0.5309 -1.0603
  639MOL0    Cl86175  -1.069   8.791   7.746 -0.0545  0.1742 -0.1995
  639MOL0     C86176  -0.011   9.087   8.278 -0.3402 -0.0775 -0.5603
  639MOL0     C86177   0.125   9.106   8.243 -0.6902  0.3802  1.4292
  639MOL0     O86178   0.245   9.070   7.923  0.7028 -0.0410  0.3131
  639MOL0     C86179   0.563   9.173   8.034 -0.0577  0.4162 -0.4325
  639MOL0     C86180   0.701   9.135   8.042  0.6102 -0.1090  0.9018
  639MOL0     N86181   1.034   9.174   8.379 -0.8727  0.1024 -0.1471
  639MOL0     N86182   1.084   9.243   8.472 -0.1146  0.7272  0.1948
  639MOL0     C86183   1.772   9.280   9.670 -0.4717  0.3453  0.7686
  639MOL0     C86184   1.909   9.295   9.703 -0.3182 -0.2571  0.6241
  639MOL0     C86185   2.350   9.291   9.723 -0.2335  0.8112  0.7329
  639MOL0     C86186   2.417   9.286   9.852  0.1206 -0.7051  0.6667
  639MOL0     C86187   2.557   9.295   9.863  0.1187 -0.3515  0.6401
  639MOL0     C86188   2.638   9.309   9.746 -0.3043  0.3677  0.1752
  639MOL0     O86189   2.772   9.327   9.742 -0.0595  0.0929  0.4367
  639MOL0     C86190   2.856   9.311   9.859  0.1848 -0.4537 -0.1137
  639MOL0     C86191   3.003   9.298   9.817  0.2649 -0.2645  0.2150
  639MOL0     C86192   3.050   9.416   9.727  0.6571  0.1057 -0.2805
  639MOL0     C86193   3.196   9.403   9.708  0.1938  0.1768  0.5654
  639MOL0     C86194   3.246   9.516   9.631 -0.4974  0.1389 -0.5359
  639MOL0     C86195   3.298   9.609   9.580  0.3400 -0.2611 -0.0979
  639MOL0     C86196   2.574   9.317   9.619 -0.1872 -0.8164 -0.9024
  639MOL0     C86197   2.431   9.301   9.606  0.4074 -0.2829 -0.2641
  639MOL0     H86198   2.016   9.291   9.377 -4.2717  1.5443 -2.5572
  639MOL0     H86199   1.796   9.270   9.335 -0.0685 -0.7921 -0.5195
  639MOL0     H86200   1.552   9.411   9.372  3.4212 -0.0927  0.5870
  639MOL0     H86201   1.578   9.245   9.323  1.5989  0.9644 -0.1299
  639MOL0     H86202   1.354   9.182   9.437 -0.7438  1.6831  4.5020
  639MOL0     H86203   1.339   9.361   9.463  1.3218  1.8791 -1.7143
  639MOL0     H86204   1.200   9.277   9.286  1.0490 -1.8054  1.5619
  639MOL0     H86205   1.311   9.416   9.253  0.4840  0.3911 -1.1407
  639MOL0     H86206   1.434   9.327   9.121 -3.3991  2.6765  1.5987
  639MOL0     H86207   1.394   9.152   9.137 -1.5101 -0.2670 -1.5122
  639MOL0     H86208   1.196   9.157   9.047  2.7237 -2.4228 -0.3873
  639MOL0     H86209   1.194   9.345   9.038  3.3172  1.7066 -2.5102
  639MOL0     H86210   1.358   9.343   8.867 -0.8489 -0.0095  1.1717
  639MOL0     H86211   1.401   9.174   8.870  1.2080  2.2235 -0.1933
  639MOL0     H86212   1.176   9.097   8.798 -2.8124  1.0046 -2.5247
  639MOL0     H86213   1.126   9.257   8.808 -0.8139 -2.0060 -0.2874
  639MOL0     H86214   1.359   9.181   8.621  1.1875 -0.2558  1.9879
  639MOL0     H86215   1.271   9.333   8.634  0.1010  0.1527  1.6690
  639MOL0     H86216   1.225   8.958   8.544 -2.6044 -0.5745  3.2412
  639MOL0     H86217   1.015   8.822   8.397 -1.7425  0.7516  0.3485
  639MOL0     H86218   0.916   8.925   8.310 -2.0717 -1.5829  3.0517
  639MOL0     H86219   1.086   8.791   8.172 -0.0527  0.1214  0.6990
  639MOL0     H86220   1.216   8.877   8.246  1.7218  1.0519  0.0923
  639MOL0     H86221   1.126   8.948   8.008  0.9492 -2.9113  1.6053
  639MOL0     H86222   1.166   9.087   8.120  0.2208  0.5050 -1.6175
  639MOL0     H86223   0.984   9.129   7.996  1.0398 -2.2450 -0.9273
  639MOL0     H86224   0.949   9.118   8.176  2.4988 -0.4973  2.9562
  639MOL0     H86225   0.665   8.803   7.990 -1.2984 -0.3318  0.9800
  639MOL0     H86226   0.364   8.842   7.847 -2.1404  0.3359  1.5215
  639MOL0     H86227   0.461   8.736   7.935  0.1043 -0.6064  1.5997
  639MOL0     H86228   0.321   8.819   8.018 -1.5215  0.9515 -0.4229
  639MOL0     H86229   0.089   9.351   8.017 -1.0428  0.2889 -1.5592
  639MOL0     H86230  -0.162   9.306   8.068  0.5671 -0.4881  0.3092
  639MOL0     H86231  -0.244   8.957   8.212  0.9751 -0.5773  1.1633
  639MOL0     H86232  -0.248   8.994   8.389 -2.7987  1.4773 -0.0070
  639MOL0     H86233  -0.443   8.892   8.335  4.1046 -0.9274 -0.6356
  639MOL0     H86234  -0.479   9.071   8.367  1.1864  1.4240 -1.0283
  639MOL0     H86235  -0.459   8.913   8.100 -1.7599 -0.3960  0.7602
  639MOL0     H86236  -0.474   9.091   8.103  0.6818 -0.0706  1.2350
  639MOL0     H86237  -0.690   8.896   8.209 -0.1184  1.0156  2.7224
  639MOL0     H86238  -0.688   9.072   8.230 -0.3953 -0.5410  1.3841
  639MOL0     H86239  -0.660   9.067   7.954 -1.7131  0.9539 -0.9944
  639MOL0     H86240  -0.820   9.050   8.029 -1.1404 -0.7479  0.5672
  639MOL0     H86241  -0.628   8.838   7.920 -0.6659  0.7836 -2.3866
  639MOL0     H86242  -0.762   8.792   8.019 -2.2522  0.0170 -1.0233
  639MOL0     H86243  -0.802   8.785   7.778 -3.3367  0.5638 -1.6590
  639MOL0     H86244  -0.812   8.959   7.772 -3.1768  0.8019  0.3950
  639MOL0     H86245  -1.018   8.951   7.923  2.6419  0.6360 -0.4808
  639MOL0     H86246  -0.998   8.783   7.955  0.3229  0.9446  0.7069
  639MOL0     H86247  -0.031   9.011   8.352 -1.0834 -0.6278 -1.3128
  639MOL0     H86248   0.206   9.039   8.268 -0.0154  0.7222  0.2535
  639MOL0     H86249   0.555   9.281   8.039  0.2873  0.3946  1.2401
  639MOL0     H86250   0.775   9.214   8.043  2.4854 -1.7892  0.8091
  639MOL0     H86251   1.701   9.280   9.753  2.2693  0.1183  3.2804
  639MOL0     H86252   1.927   9.301   9.810 -3.5480 -0.5469  1.2706
  639MOL0     H86253   2.348   9.262   9.932 -0.2450 -1.1367  0.2249
  639MOL0     H86254   2.606   9.287   9.960 -1.2573  0.3349  1.4282
  639MOL0     H86255   2.837   9.400   9.920  0.3467 -0.6598  0.2409
  639MOL0     H86256   2.820   9.222   9.911 -2.1743  0.7774  0.4902
  639MOL0     H86257   3.011   9.196   9.779 -2.4981 -0.7288  0.6491
  639MOL0     H86258   3.060   9.297   9.911 -0.4749 -1.5654  0.6844
  639MOL0     H86259   3.012   9.505   9.779 -4.5773 -1.5650 -0.5984
  639MOL0     H86260   3.001   9.412   9.629  2.1006 -1.7074 -0.9595
  639MOL0     H86261   3.209   9.322   9.636 -1.8934 -0.6085  0.9816
  639MOL0     H86262   3.242   9.400   9.807  4.3446  0.7869 -1.1499
  639MOL0     H86263   3.344   9.689   9.527 -3.1372  1.1942 -1.1917
  639MOL0     H86264   2.629   9.357   9.535  0.0416 -1.6864 -1.1784
  639MOL0     H86265   2.379   9.302   9.510  2.4000  0.8853 -1.3938
  640MOL0     O86266   2.491   1.646  10.124 -0.1867 -0.4078  1.2043
  640MOL0     C86267   2.531   1.528  10.123 -0.6501 -0.2551  0.0837
  640MOL0     O86268   2.449   1.416  10.112  0.1364 -0.0149 -0.4056
  640MOL0     C86269   2.318   1.432  10.065 -0.0859  0.4000 -0.8087
  640MOL0     C86270   2.286   1.514   9.954  0.2807  0.3574  0.4001
  640MOL0     C86271   2.155   1.519   9.895  0.1788  1.6918 -0.3671
  640MOL0     C86272   2.055   1.436   9.953  0.1023 -0.0863  0.6519
  640MOL0     O86273   1.921   1.423   9.911  0.3533 -0.0702 -0.0662
  640MOL0     C86274   1.850   1.548   9.918  0.3893  0.0657 -0.0635
  640MOL0     C86275   1.691   1.523   9.901 -0.6736 -0.0578 -0.2167
  640MOL0     C86276   1.654   1.464   9.757 -1.0939  0.4264 -0.5424
  640MOL0     C86277   1.508   1.478   9.737  0.6665  0.4404  0.5152
  640MOL0     C86278   1.432   1.400   9.845 -0.4333  0.4140 -0.1923
  640MOL0     C86279   1.271   1.410   9.825  0.2875 -0.6416 -0.0794
  640MOL0     C86280   1.185   1.324   9.917  0.0240  0.5548  0.5070
  640MOL0     C86281   1.259   1.272  10.037  0.1054 -0.5412  0.7372
  640MOL0     N86282   1.176   1.207  10.134 -0.3530 -0.1987 -0.6495
  640MOL0     C86283   1.104   1.095  10.108 -0.2894 -0.5489 -0.9807
  640MOL0     C86284   1.056   1.054  10.228 -0.0535 -0.3378  0.2388
  640MOL0     C86285   0.986   0.917  10.249 -0.3153 -0.1704 -0.7280
  640MOL0     C86286   0.919   0.920  10.386 -0.3820  0.4505  0.0891
  640MOL0     C86287   1.003   0.852  10.501  0.5189 -0.0509  1.2647
  640MOL0     C86288   0.921   0.841  10.626  0.9428  0.3021 -0.9651
  640MOL0     O86289   0.818   0.740  10.618 -0.3259 -0.4034 -0.2991
  640MOL0     C86290   0.724   0.720  10.719 -0.4505  0.8895  0.3060
  640MOL0     C86291   0.619   0.629  10.687 -0.0102 -0.2135  0.2264
  640MOL0     C86292   0.525   0.602  10.784 -0.3209 -0.1168 -0.4326
  640MOL0     C86293   0.407   0.513  10.747 -0.8900  0.2616  0.1181
  640MOL0     C86294   0.528   0.659  10.913  0.5265 -0.4883  0.3747
  640MOL0     C86295   0.436   0.643  11.022  0.3574  1.0029 -0.0249
  640MOL0     O86296   0.351   0.541  11.027  0.1458 -0.5170  0.4516
  640MOL0     C86297   0.259   0.532  11.127 -0.4598  0.3700 -0.7676
  640MOL0     C86298   0.291   0.531  11.262  0.1535 -0.0219 -0.3083
  640MOL0     C86299   0.198   0.503  11.364 -1.0174  0.7149 -0.5817
  640MOL0     C86300   0.068   0.491  11.328 -1.3691 -0.3672 -0.3403
  640MOL0     O86301  -0.016   0.479  11.437  0.0303  0.5265 -0.4612
  640MOL0     C86302  -0.157   0.439  11.415  1.1791 -1.0366  1.0989
  640MOL0     C86303  -0.214   0.376  11.539 -0.3347 -0.1367 -0.4781
  640MOL0     C86304  -0.347   0.299  11.517 -0.1009  0.5733  0.4906
  640MOL0     C86305  -0.389   0.228  11.641  0.3900 -0.7686 -0.0941
  640MOL0     C86306  -0.339   0.083  11.631 -0.3939  0.0433  0.6348
  640MOL0     C86307  -0.369   0.013  11.770 -0.8046  0.8877 -0.1250
  640MOL0     C86308  -0.311  -0.142  11.756  0.6215  0.2192 -0.8055
  640MOL0     C86309  -0.164  -0.160  11.775 -0.6434 -0.0688 -0.1088
  640MOL0    Cl86310  -0.113  -0.081  11.931 -0.0318 -0.0318  0.3852
  640MOL0     C86311   0.032   0.497  11.196  0.3499 -0.1612  0.6254
  640MOL0     C86312   0.125   0.507  11.091 -0.6864 -0.0027  0.3956
  640MOL0     O86313   0.438   0.735  11.105 -0.1447 -0.6696 -0.4421
  640MOL0     C86314   0.621   0.762  10.930  0.0508 -0.1672 -0.3777
  640MOL0     C86315   0.718   0.791  10.834  0.8589  0.1810  0.1555
  640MOL0     N86316   1.083   1.144  10.321 -0.2979 -0.5695  0.4886
  640MOL0     N86317   1.151   1.245  10.267  0.7231 -0.1994 -0.1322
  640MOL0     C86318   2.092   1.364  10.065  0.3603 -0.1391 -0.0668
  640MOL0     C86319   2.219   1.362  10.129  0.7730 -0.3626 -0.1381
  640MOL0     C86320   2.676   1.497  10.129 -0.6505  0.0394 -0.2256
  640MOL0     C86321   2.730   1.372  10.106  0.3914  0.9797 -0.0019
  640MOL0     C86322   2.874   1.353  10.085 -0.1608  0.0466 -0.1373
  640MOL0     C86323   2.961   1.459  10.101 -0.3988  0.3935  0.3419
  640MOL0     O86324   3.094   1.464  10.084  0.2777 -0.8370  0.1174
  640MOL0     C86325   3.142   1.358   9.999  0.5050  0.2693  0.6272
  640MOL0     C86326   3.272   1.398   9.937  0.0258 -0.1455  0.4458
  640MOL0     C86327   3.370   1.470  10.026 -0.2001  0.0667 -0.7897
  640MOL0     C86328   3.420   1.389  10.149 -0.1064  0.2374 -1.0004
  640MOL0     C86329   3.544   1.438  10.210 -0.1372 -0.9953  0.5723
  640MOL0     C86330   3.644   1.483  10.246 -0.4933 -0.3315 -0.4994
  640MOL0     C86331   2.902   1.575  10.144  0.0317  0.5186  0.1460
  640MOL0     C86332   2.765   1.607  10.159 -0.0261  0.0846  0.0230
  640MOL0     H86333   2.362   1.576   9.908  0.7636 -2.3542 -2.8584
  640MOL0     H86334   2.144   1.574   9.802 -0.5011  0.6927 -0.9018
  640MOL0     H86335   1.864   1.593  10.017  1.7322 -0.6599  0.1112
  640MOL0     H86336   1.879   1.615   9.837 -1.6082 -1.6403 -2.3183
  640MOL0     H86337   1.653   1.457   9.979 -4.6833  2.8194  0.5675
  640MOL0     H86338   1.644   1.620   9.920  1.6880  1.9414 -3.4453
  640MOL0     H86339   1.688   1.530   9.676  1.1667 -2.6483 -2.3102
  640MOL0     H86340   1.696   1.363   9.747  0.4568  0.9037  0.6689
  640MOL0     H86341   1.472   1.581   9.748  0.0214  0.2414  0.2932
  640MOL0     H86342   1.470   1.442   9.642  3.1037 -1.7447  0.2512
  640MOL0     H86343   1.462   1.296   9.859 -1.8314  0.0539  0.3064
  640MOL0     H86344   1.449   1.450   9.941  0.2901  0.2339 -0.2265
  640MOL0     H86345   1.249   1.516   9.844 -0.8569 -0.9797  0.6115
  640MOL0     H86346   1.250   1.395   9.719 -0.0298 -2.0350  0.1616
  640MOL0     H86347   1.090   1.373   9.942 -0.9218 -0.7234 -0.4827
  640MOL0     H86348   1.148   1.235   9.866 -0.9859  0.4796  1.3261
  640MOL0     H86349   1.296   1.366  10.079  2.8016 -0.1081 -2.2220
  640MOL0     H86350   1.338   1.202  10.010 -0.3163 -0.8055  0.1571
  640MOL0     H86351   1.095   1.045  10.012 -1.8070 -2.7917  0.2200
  640MOL0     H86352   0.908   0.912  10.172  0.9329  0.3020 -2.0721
  640MOL0     H86353   1.065   0.843  10.235  0.3319 -0.5293  3.5873
  640MOL0     H86354   0.832   0.855  10.378 -0.0244 -0.2822  1.6474
  640MOL0     H86355   0.879   1.018  10.413 -2.7234 -0.6574  0.9095
  640MOL0     H86356   1.082   0.924  10.525 -1.3519  2.5251  0.1494
  640MOL0     H86357   1.043   0.754  10.472  1.5410  0.2470  1.6132
  640MOL0     H86358   0.872   0.939  10.631 -0.8365 -0.6023  1.5866
  640MOL0     H86359   0.995   0.830  10.706 -2.2379 -0.1160  2.2295
  640MOL0     H86360   0.632   0.582  10.591  1.3621 -2.1118  1.2717
  640MOL0     H86361   0.398   0.521  10.638  1.8812  0.5085 -0.1529
  640MOL0     H86362   0.428   0.408  10.768  5.1887  1.2595  0.7706
  640MOL0     H86363   0.317   0.553  10.795 -1.0291 -1.7734  1.6939
  640MOL0     H86364   0.389   0.547  11.307 -0.7412 -1.4136  2.3427
  640MOL0     H86365   0.231   0.506  11.468 -0.1255 -4.5403 -0.4219
  640MOL0     H86366  -0.226   0.519  11.387 -0.7588 -3.1391 -0.6168
  640MOL0     H86367  -0.165   0.368  11.332  0.0187  1.2705 -0.8845
  640MOL0     H86368  -0.143   0.300  11.571  2.7150  1.3242 -3.1856
  640MOL0     H86369  -0.214   0.457  11.612  2.9808 -0.1838 -0.2947
  640MOL0     H86370  -0.340   0.226  11.435 -0.2835  1.2492 -0.1402
  640MOL0     H86371  -0.409   0.375  11.468 -0.9860 -1.7796 -2.3914
  640MOL0     H86372  -0.338   0.265  11.730 -0.1766 -1.4325  0.5226
  640MOL0     H86373  -0.498   0.225  11.650  0.3467 -0.9054 -0.6229
  640MOL0     H86374  -0.231   0.082  11.617 -0.4220  0.3861  0.3916
  640MOL0     H86375  -0.381   0.031  11.544  0.0432  2.3885 -1.0859
  640MOL0     H86376  -0.324   0.061  11.858 -0.1396  0.0870 -0.0217
  640MOL0     H86377  -0.478   0.022  11.773 -1.2060 -0.4042 -4.5690
  640MOL0     H86378  -0.333  -0.176  11.654  1.8366  0.0072 -1.0140
  640MOL0     H86379  -0.374  -0.200  11.824 -2.7650  3.1290 -1.1709
  640MOL0     H86380  -0.105  -0.120  11.692 -1.2116  3.6387  1.0817
  640MOL0     H86381  -0.146  -0.268  11.775 -3.9962 -0.8402  3.2929
  640MOL0     H86382  -0.071   0.485  11.165  1.1508 -1.8170 -1.5661
  640MOL0     H86383   0.108   0.509  10.984  2.4544 -2.0624 -0.2990
  640MOL0     H86384   0.640   0.814  11.023  1.1425  0.7706 -1.0955
  640MOL0     H86385   0.798   0.860  10.860  0.3544  2.0036 -2.6388
  640MOL0     H86386   2.028   1.287  10.106  1.6253 -0.2795  1.7613
  640MOL0     H86387   2.247   1.308  10.220 -0.5356 -0.1926  0.3925
  640MOL0     H86388   2.664   1.286  10.097 -1.0348  1.8391  1.6253
  640MOL0     H86389   2.908   1.258  10.046  5.3899  0.8733  1.7923
  640MOL0     H86390   3.145   1.267  10.059  0.7955 -3.0573 -3.9402
  640MOL0     H86391   3.069   1.341   9.920  0.6961 -0.8080  0.6682
  640MOL0     H86392   3.245   1.457   9.850  1.4139  1.8266  1.2701
  640MOL0     H86393   3.318   1.307   9.897 -0.8031  0.0321 -0.9337
  640MOL0     H86394   3.318   1.561  10.059 -1.0343 -0.5632 -0.3322
  640MOL0     H86395   3.450   1.501   9.958 -0.9861  0.8912 -1.3788
  640MOL0     H86396   3.424   1.284  10.120 -0.5957 -0.8366  2.4158
  640MOL0     H86397   3.352   1.382  10.233  0.3212 -3.4382 -0.8326
  640MOL0     H86398   3.727   1.532  10.293 -2.1804  1.2532  0.9845
  640MOL0     H86399   2.971   1.659  10.151  0.1162  0.3220  2.1863
  640MOL0     H86400   2.727   1.708  10.171 -0.2174 -0.0312  0.3896
  641MOL0     O86401   6.616   7.741   1.791 -0.3023 -0.6723 -0.4524
  641MOL0     C86402   6.688   7.637   1.806 -0.6623  0.6246  0.1618
  641MOL0     O86403   6.647   7.513   1.775  0.1305 -0.0217  1.0369
  641MOL0     C86404   6.517   7.506   1.715 -1.0843 -0.1500  0.0692
  641MOL0     C86405   6.439   7.414   1.784  0.1454 -0.9642 -0.3560
  641MOL0     C86406   6.317   7.370   1.736  0.4012 -0.3768  0.0129
  641MOL0     C86407   6.260   7.436   1.618  0.6928  0.2616  0.0032
  641MOL0     O86408   6.145   7.410   1.550 -0.1965  0.4061 -0.5116
  641MOL0     C86409   6.067   7.300   1.593  1.3152 -0.8048  0.3604
  641MOL0     C86410   5.927   7.288   1.511  0.0463 -0.4278  0.2646
  641MOL0     C86411   5.845   7.176   1.556 -0.3887  0.0329  0.3614
  641MOL0     C86412   5.702   7.187   1.494 -0.3960  0.0882 -0.1670
  641MOL0     C86413   5.637   7.052   1.498 -0.2139  0.5166  0.4240
  641MOL0     C86414   5.572   7.016   1.632 -0.4728 -1.0498  0.3673
  641MOL0     C86415   5.471   6.906   1.619 -0.5159  0.0890  0.7100
  641MOL0     C86416   5.522   6.763   1.614 -0.2399  0.8768  0.2302
  641MOL0     N86417   5.426   6.657   1.620  0.2092  0.0635  0.8983
  641MOL0     C86418   5.366   6.603   1.516  0.3095  0.9088  0.4150
  641MOL0     C86419   5.318   6.484   1.567  0.0904 -0.4604  0.1057
  641MOL0     C86420   5.212   6.394   1.505 -0.5406  1.2154 -0.4132
  641MOL0     C86421   5.125   6.333   1.614  1.7089 -0.6522  0.3882
  641MOL0     C86422   4.993   6.290   1.553  0.3242 -0.1578  0.3346
  641MOL0     C86423   4.919   6.179   1.630 -0.0800  0.0118  0.6741
  641MOL0     O86424   4.780   6.174   1.588  0.3630 -0.8511  0.2128
  641MOL0     C86425   4.699   6.060   1.612 -0.8336  1.1173  1.0117
  641MOL0     C86426   4.761   5.941   1.653 -0.0815  0.5617  0.4212
  641MOL0     C86427   4.695   5.817   1.673 -0.0940  0.2141 -0.1804
  641MOL0     C86428   4.788   5.699   1.725 -0.5247 -0.5157 -0.1328
  641MOL0     C86429   4.554   5.816   1.658 -0.6926  0.7817 -0.4749
  641MOL0     C86430   4.467   5.696   1.694 -0.3937  1.5355  0.7801
  641MOL0     O86431   4.333   5.692   1.644 -0.6440  0.0373 -0.0001
  641MOL0     C86432   4.263   5.580   1.687  0.2361 -0.2380 -1.2965
  641MOL0     C86433   4.303   5.442   1.706  0.1510  0.3580 -0.4973
  641MOL0     C86434   4.209   5.344   1.756  0.1278 -0.3842  0.7765
  641MOL0     C86435   4.081   5.382   1.790 -0.0399 -0.6609 -0.0290
  641MOL0     O86436   3.997   5.299   1.866 -0.2499 -0.2993  1.0657
  641MOL0     C86437   3.871   5.285   1.801 -0.1648  0.7539 -0.0652
  641MOL0     C86438   3.788   5.178   1.866  0.5411 -0.6412 -0.2016
  641MOL0     C86439   3.761   5.200   2.018  1.0299  0.6777 -0.4492
  641MOL0     C86440   3.722   5.074   2.096 -0.7612 -0.0976  0.3357
  641MOL0     C86441   3.607   4.987   2.028 -0.2771  0.7745 -0.1378
  641MOL0     C86442   3.546   4.891   2.119  0.4774  0.2826  0.2386
  641MOL0     C86443   3.501   4.763   2.044 -0.3366  0.5134 -0.1499
  641MOL0     C86444   3.367   4.782   1.970  0.1278  0.8681  0.0913
  641MOL0    Cl86445   3.400   4.824   1.796  0.0582 -0.3862 -0.3108
  641MOL0     C86446   4.043   5.520   1.786 -0.5305 -0.3092 -0.5436
  641MOL0     C86447   4.132   5.618   1.728 -0.6070  0.0748 -0.2837
  641MOL0     O86448   4.507   5.615   1.776  0.6430 -0.2595 -0.6226
  641MOL0     C86449   4.491   5.932   1.619  0.2622 -0.4571  0.0693
  641MOL0     C86450   4.561   6.051   1.594 -0.0386 -0.5340  0.2641
  641MOL0     N86451   5.365   6.465   1.696  0.1407 -0.2528 -0.2378
  641MOL0     N86452   5.431   6.574   1.725 -0.7898  0.3857 -0.1496
  641MOL0     C86453   6.340   7.535   1.560  0.4306 -0.8584  0.5151
  641MOL0     C86454   6.472   7.566   1.599 -0.1337 -0.4275  0.5202
  641MOL0     C86455   6.827   7.655   1.849 -0.0498  0.2324 -0.0792
  641MOL0     C86456   6.921   7.556   1.810 -0.2228  0.4988 -0.0205
  641MOL0     C86457   7.055   7.572   1.830  0.2201  0.5438 -0.0156
  641MOL0     C86458   7.100   7.693   1.885 -0.4883  0.1860 -0.4398
  641MOL0     O86459   7.232   7.712   1.905 -0.3034 -0.7091  0.3484
  641MOL0     C86460   7.291   7.807   2.000 -1.4260 -0.7558 -0.6040
  641MOL0     C86461   7.428   7.857   1.939  0.7514 -1.0239  0.3713
  641MOL0     C86462   7.521   7.741   1.931  0.0404  0.1412  0.6176
  641MOL0     C86463   7.656   7.779   1.858  0.3653  1.1214  0.6854
  641MOL0     C86464   7.740   7.842   1.956 -0.3343 -0.7572 -0.0100
  641MOL0     C86465   7.819   7.891   2.033 -1.0357 -0.6642 -0.9811
  641MOL0     C86466   7.011   7.794   1.915  0.2787 -0.2664  0.5886
  641MOL0     C86467   6.873   7.784   1.890 -0.5599 -0.1703  0.3947
  641MOL0     H86468   6.472   7.357   1.870  1.2506  0.4383  0.1970
  641MOL0     H86469   6.278   7.277   1.776  0.1227  0.2796  1.3038
  641MOL0     H86470   6.116   7.206   1.564 -0.3818 -1.1481 -1.7030
  641MOL0     H86471   6.057   7.317   1.700 -0.7996  2.7800 -0.2428
  641MOL0     H86472   5.877   7.383   1.530  1.6241  0.6874 -0.9570
  641MOL0     H86473   5.942   7.287   1.403 -2.4339  1.1500 -0.1630
  641MOL0     H86474   5.891   7.078   1.535 -0.8747 -0.6442  2.2372
  641MOL0     H86475   5.842   7.185   1.665  1.7238  1.2679  0.3797
  641MOL0     H86476   5.647   7.267   1.544 -1.4176 -0.8349  0.2408
  641MOL0     H86477   5.712   7.206   1.387 -1.6508  0.3429 -0.2499
  641MOL0     H86478   5.558   7.053   1.422 -0.0987 -1.4398  0.2063
  641MOL0     H86479   5.706   6.973   1.466 -1.5092 -0.9540  1.0881
  641MOL0     H86480   5.636   6.998   1.720  0.2775  0.6290  0.2088
  641MOL0     H86481   5.517   7.108   1.657 -2.8345 -2.1925 -0.3697
  641MOL0     H86482   5.394   6.919   1.696  0.2625  1.7538  1.2656
  641MOL0     H86483   5.404   6.929   1.536  1.1965  0.9230 -0.4898
  641MOL0     H86484   5.593   6.759   1.697  1.3034  5.1045 -0.6587
  641MOL0     H86485   5.591   6.761   1.529 -1.7596  0.0952 -1.0401
  641MOL0     H86486   5.329   6.653   1.427  1.0657  0.3025 -0.2495
  641MOL0     H86487   5.159   6.455   1.431 -2.0607  0.8463  0.3166
  641MOL0     H86488   5.277   6.319   1.460 -0.5457  0.3850  0.9121
  641MOL0     H86489   5.107   6.402   1.696  0.8098 -4.0639  3.3131
  641MOL0     H86490   5.164   6.248   1.671 -0.3700 -1.5228  0.6026
  641MOL0     H86491   5.003   6.258   1.449  0.9180  2.3250 -0.4317
  641MOL0     H86492   4.926   6.376   1.560 -0.6553 -1.0237  3.6101
  641MOL0     H86493   4.932   6.197   1.737  0.2876  1.8599  0.3401
  641MOL0     H86494   4.970   6.084   1.606 -0.3653  0.2033 -0.7645
  641MOL0     H86495   4.866   5.933   1.682 -0.3241 -0.6201  1.0530
  641MOL0     H86496   4.879   5.693   1.666  1.1059  1.8997  1.9398
  641MOL0     H86497   4.818   5.737   1.823  0.9572  1.1420 -1.1885
  641MOL0     H86498   4.748   5.597   1.728  0.3657 -0.9733 -2.0973
  641MOL0     H86499   4.401   5.409   1.673  0.0614 -1.7362  1.0908
  641MOL0     H86500   4.251   5.245   1.770  0.2320 -0.2642  1.3561
  641MOL0     H86501   3.803   5.369   1.818 -3.7975 -1.6225 -1.7357
  641MOL0     H86502   3.883   5.271   1.693  1.9742 -1.9225  0.4060
  641MOL0     H86503   3.693   5.176   1.811  0.5915  1.6850 -0.4656
  641MOL0     H86504   3.835   5.081   1.845  0.4557 -0.4336 -1.3930
  641MOL0     H86505   3.677   5.271   2.021  1.1449  0.9308 -2.2253
  641MOL0     H86506   3.845   5.240   2.076 -0.4129 -0.0546  2.3630
  641MOL0     H86507   3.815   5.017   2.093 -0.5857  0.1223  1.2251
  641MOL0     H86508   3.693   5.104   2.197  0.1582  0.5914  0.4024
  641MOL0     H86509   3.642   4.941   1.935 -0.9993  1.1024 -0.5787
  641MOL0     H86510   3.532   5.060   1.995  1.7684  3.3119  0.4213
  641MOL0     H86511   3.604   4.861   2.207 -1.1202 -0.6609  1.0236
  641MOL0     H86512   3.458   4.939   2.166 -0.1386  0.2853 -0.8943
  641MOL0     H86513   3.491   4.690   2.124  1.0679  0.5278  0.0703
  641MOL0     H86514   3.576   4.717   1.980 -1.0622 -1.8864  0.6116
  641MOL0     H86515   3.312   4.867   2.012 -0.8461  0.2709  0.0755
  641MOL0     H86516   3.296   4.701   1.990  0.8918 -0.0300 -0.7228
  641MOL0     H86517   3.948   5.566   1.813  0.1619  2.1649 -2.0200
  641MOL0     H86518   4.110   5.723   1.712  3.7308  1.3905  1.0202
  641MOL0     H86519   4.383   5.935   1.605  0.5926  1.1515 -2.8566
  641MOL0     H86520   4.509   6.143   1.570  1.3562  0.6834  1.6490
  641MOL0     H86521   6.298   7.572   1.467  0.3036 -0.5637  0.6879
  641MOL0     H86522   6.523   7.635   1.534 -2.4067 -0.5998 -1.5860
  641MOL0     H86523   6.885   7.462   1.771  1.2382 -0.0307 -0.1342
  641MOL0     H86524   7.122   7.495   1.794 -2.6052 -3.0002  1.6362
  641MOL0     H86525   7.240   7.903   2.014  1.2394  0.7264 -0.3730
  641MOL0     H86526   7.312   7.758   2.096  0.9617  0.6538 -0.3240
  641MOL0     H86527   7.473   7.938   1.996 -1.2205  0.5978 -0.2552
  641MOL0     H86528   7.408   7.910   1.846 -2.3251 -2.1639  0.2406
  641MOL0     H86529   7.468   7.662   1.878  3.0224 -2.1021  0.7286
  641MOL0     H86530   7.537   7.691   2.027 -1.3239 -0.1295  0.7170
  641MOL0     H86531   7.640   7.849   1.776  1.6391 -2.9648 -3.4149
  641MOL0     H86532   7.710   7.696   1.812  1.0947  0.7153  2.1801
  641MOL0     H86533   7.877   7.946   2.105  0.0427 -1.2308 -1.3989
  641MOL0     H86534   7.048   7.889   1.952 -1.8300  1.6081 -1.6875
  641MOL0     H86535   6.799   7.862   1.907 -0.8207 -0.1896 -0.5635
  642MOL0     O86536   1.117   2.430   0.834  0.3885  0.1449 -0.3395
  642MOL0     C86537   1.126   2.358   0.941  0.0087  1.5209  0.4298
  642MOL0     O86538   1.025   2.290   1.005 -0.0540 -0.0134  0.1496
  642MOL0     C86539   0.903   2.275   0.947 -0.3523  0.4513 -0.4794
  642MOL0     C86540   0.792   2.229   1.034 -0.6614 -0.1046 -0.1773
  642MOL0     C86541   0.669   2.203   0.974 -0.2553 -0.5170  0.6503
  642MOL0     C86542   0.644   2.235   0.836  0.7528 -0.5319 -0.2357
  642MOL0     O86543   0.515   2.220   0.791 -0.0560  0.5200  0.1020
  642MOL0     C86544   0.499   2.203   0.649 -0.1290 -1.4761 -0.3452
  642MOL0     C86545   0.360   2.144   0.632 -0.5884 -0.8679 -0.6932
  642MOL0     C86546   0.315   2.158   0.489  0.1140  0.2480 -1.0679
  642MOL0     C86547   0.168   2.104   0.475  0.2329 -0.0872 -1.1801
  642MOL0     C86548   0.131   2.128   0.329  0.0546 -0.7362 -0.2544
  642MOL0     C86549  -0.024   2.111   0.312  0.1440 -0.0072  0.8206
  642MOL0     C86550  -0.048   2.101   0.167  0.8006 -0.6961 -0.4326
  642MOL0     C86551  -0.198   2.077   0.146  0.0329  0.4747  0.7894
  642MOL0     N86552  -0.267   2.204   0.134 -0.2197 -0.1515 -0.4994
  642MOL0     C86553  -0.362   2.250   0.221  0.2026 -0.4772 -0.1127
  642MOL0     C86554  -0.390   2.378   0.186  0.3298 -0.3624 -1.1548
  642MOL0     C86555  -0.491   2.469   0.257 -0.8843  0.2705  0.2118
  642MOL0     C86556  -0.625   2.418   0.215 -0.5637  0.0114 -0.1604
  642MOL0     C86557  -0.651   2.403   0.058 -0.4643  0.3960  0.0383
  642MOL0     C86558  -0.794   2.352   0.029 -0.1032 -0.1509 -0.5689
  642MOL0     O86559  -0.890   2.427   0.109 -0.1819  0.2521 -0.5257
  642MOL0     C86560  -1.031   2.414   0.097 -0.4727  0.0397  0.0613
  642MOL0     C86561  -1.108   2.487   0.182  0.2789 -1.1449 -0.2472
  642MOL0     C86562  -1.249   2.503   0.159  0.0594 -0.2817 -0.7019
  642MOL0     C86563  -1.308   2.606   0.248 -0.0826 -0.7264 -0.0752
  642MOL0     C86564  -1.308   2.419   0.065  0.2845 -0.4876  0.4960
  642MOL0     C86565  -1.455   2.407   0.040  0.4513 -0.6844 -0.6782
  642MOL0     O86566  -1.532   2.497   0.108  0.1871 -0.0041 -0.2777
  642MOL0     C86567  -1.669   2.493   0.084  0.1433  0.0392 -0.0839
  642MOL0     C86568  -1.752   2.403   0.138  0.7682  0.2916  0.4179
  642MOL0     C86569  -1.890   2.393   0.104 -0.4517 -0.6650  0.0309
  642MOL0     C86570  -1.941   2.485   0.007 -0.8404  0.5380 -0.9603
  642MOL0     O86571  -2.082   2.476  -0.007 -0.6308  0.1659 -0.4654
  642MOL0     C86572  -2.141   2.556  -0.112  0.9361 -0.0864 -0.1543
  642MOL0     C86573  -2.293   2.543  -0.147 -0.2356 -0.0106 -0.1369
  642MOL0     C86574  -2.361   2.604  -0.022 -0.0926 -0.2325  0.6703
  642MOL0     C86575  -2.507   2.580  -0.021  0.6086 -1.1266  0.2224
  642MOL0     C86576  -2.573   2.651   0.097  1.3444  0.1291  0.0887
  642MOL0     C86577  -2.723   2.648   0.089 -0.2338  0.0340 -0.6586
  642MOL0     C86578  -2.810   2.743   0.182 -0.3063  0.0132 -0.9994
  642MOL0     C86579  -2.830   2.691   0.327  0.1033  0.6527  0.3137
  642MOL0    Cl86580  -2.911   2.529   0.332 -0.3673  0.4083  0.5553
  642MOL0     C86581  -1.856   2.575  -0.051  0.0400  0.4977  0.9253
  642MOL0     C86582  -1.720   2.579  -0.011  0.8374 -0.2247 -0.5063
  642MOL0     O86583  -1.500   2.303  -0.014  0.5972  0.2209 -0.1055
  642MOL0     C86584  -1.226   2.345  -0.023 -0.1830  0.7149 -0.4946
  642MOL0     C86585  -1.094   2.338   0.000 -0.8509 -0.1097  0.1626
  642MOL0     N86586  -0.315   2.407   0.075 -0.0213  0.2416 -0.7656
  642MOL0     N86587  -0.253   2.301   0.042 -1.0103 -0.2762  0.4043
  642MOL0     C86588   0.745   2.284   0.761  0.0764 -0.5115  1.1193
  642MOL0     C86589   0.877   2.291   0.808  0.2428  0.3561  0.0357
  642MOL0     C86590   1.256   2.343   1.000 -0.8216  0.9859 -0.3641
  642MOL0     C86591   1.294   2.237   1.084 -0.7657  0.7427  1.5679
  642MOL0     C86592   1.419   2.224   1.138 -0.5238  0.2005  0.3522
  642MOL0     C86593   1.525   2.319   1.108  0.3654  0.7110 -0.5409
  642MOL0     O86594   1.637   2.304   1.183  0.3459 -0.3462 -0.6249
  642MOL0     C86595   1.757   2.368   1.135 -0.2926 -0.3369  0.4907
  642MOL0     C86596   1.818   2.293   1.018  0.8606 -1.1215 -0.3262
  642MOL0     C86597   1.889   2.165   1.067 -0.0707  0.4684  0.0359
  642MOL0     C86598   1.794   2.057   1.119 -0.0852 -1.1076  0.2147
  642MOL0     C86599   1.837   1.922   1.083 -0.5219 -0.6370  0.8926
  642MOL0     C86600   1.857   1.805   1.065  0.3728  0.0823  0.2012
  642MOL0     C86601   1.495   2.415   1.017  0.3985  0.3926 -0.7066
  642MOL0     C86602   1.367   2.424   0.958 -0.0838  0.4986  0.9389
  642MOL0     H86603   0.816   2.220   1.139  0.6297 -0.2659 -0.4719
  642MOL0     H86604   0.590   2.158   1.033  2.1538 -2.7691  2.4165
  642MOL0     H86605   0.504   2.303   0.604 -1.5924 -1.0987  0.2734
  642MOL0     H86606   0.574   2.143   0.596 -0.9108 -1.9192 -0.9765
  642MOL0     H86607   0.358   2.037   0.658  3.4315 -1.5704 -2.5148
  642MOL0     H86608   0.288   2.204   0.688  0.4645  0.5858 -0.8268
  642MOL0     H86609   0.317   2.261   0.453  0.6832  0.0749 -1.5627
  642MOL0     H86610   0.376   2.097   0.421  1.5854  2.1852 -1.5483
  642MOL0     H86611   0.161   1.998   0.502  0.5259  0.0757 -0.4410
  642MOL0     H86612   0.096   2.157   0.537 -0.2336  3.2645 -4.2511
  642MOL0     H86613   0.156   2.232   0.304 -1.7088 -0.3240 -0.4223
  642MOL0     H86614   0.194   2.064   0.266  2.2336  1.1215 -0.0954
  642MOL0     H86615  -0.056   2.019   0.362  1.3434 -1.3419 -0.7948
  642MOL0     H86616  -0.078   2.200   0.347 -1.5681  0.9625 -3.6313
  642MOL0     H86617  -0.015   2.186   0.107 -1.3261  0.4974 -0.0135
  642MOL0     H86618   0.001   2.010   0.133 -1.1353 -1.7303 -0.5637
  642MOL0     H86619  -0.248   2.008   0.214 -0.8754 -0.1846 -0.5179
  642MOL0     H86620  -0.209   2.039   0.044  0.1365  3.6316 -0.5214
  642MOL0     H86621  -0.397   2.195   0.308  0.6024 -2.6533 -1.2364
  642MOL0     H86622  -0.476   2.450   0.364 -2.0513  1.4021  0.6038
  642MOL0     H86623  -0.486   2.575   0.232 -0.8783 -0.2407 -2.1330
  642MOL0     H86624  -0.701   2.477   0.267 -1.4429  0.5307 -1.9232
  642MOL0     H86625  -0.632   2.313   0.247 -1.4368 -0.2507 -1.1411
  642MOL0     H86626  -0.581   2.335   0.008  0.0037 -0.3996  1.6960
  642MOL0     H86627  -0.641   2.502   0.015 -0.2058 -0.0096 -0.8446
  642MOL0     H86628  -0.796   2.245   0.049 -0.9125 -0.0213  0.1155
  642MOL0     H86629  -0.822   2.356  -0.077 -0.1227 -1.0189 -0.6051
  642MOL0     H86630  -1.061   2.538   0.265 -2.8073 -0.6347  1.3408
  642MOL0     H86631  -1.389   2.555   0.302 -0.4000 -0.8416 -0.6488
  642MOL0     H86632  -1.238   2.645   0.322  2.0278 -1.3317 -1.6456
  642MOL0     H86633  -1.347   2.688   0.187 -1.1109 -1.0632  0.1013
  642MOL0     H86634  -1.703   2.325   0.195  1.0273  0.4922  0.4711
  642MOL0     H86635  -1.953   2.325   0.161 -1.9887  1.3023  0.8191
  642MOL0     H86636  -2.128   2.660  -0.080 -0.1950  0.0165  0.0266
  642MOL0     H86637  -2.081   2.521  -0.197  0.9711 -2.2306  0.7168
  642MOL0     H86638  -2.310   2.599  -0.239  0.9489 -0.0965 -0.4168
  642MOL0     H86639  -2.317   2.438  -0.171  2.1502 -0.6297  0.0023
  642MOL0     H86640  -2.346   2.712  -0.028 -0.4274 -0.2476 -2.7254
  642MOL0     H86641  -2.315   2.559   0.066 -1.6763 -3.0194  0.2171
  642MOL0     H86642  -2.555   2.620  -0.111  1.5450 -1.7095 -0.5647
  642MOL0     H86643  -2.536   2.474  -0.020  1.2991 -1.3487 -1.3205
  642MOL0     H86644  -2.539   2.754   0.082  1.8770 -0.3506 -2.6233
  642MOL0     H86645  -2.544   2.605   0.192  2.5997 -1.9233 -1.2095
  642MOL0     H86646  -2.756   2.675  -0.012 -2.7013  0.9964  0.3198
  642MOL0     H86647  -2.756   2.545   0.109  2.7042 -0.8530  0.2008
  642MOL0     H86648  -2.909   2.764   0.140 -1.0356 -2.7372 -0.8562
  642MOL0     H86649  -2.757   2.838   0.194  0.3640 -0.6386  1.8465
  642MOL0     H86650  -2.899   2.758   0.379 -0.2328  1.5549 -1.2359
  642MOL0     H86651  -2.740   2.687   0.389 -1.2439 -1.3223  2.2897
  642MOL0     H86652  -1.895   2.651  -0.118 -2.1501 -2.2012 -1.0611
  642MOL0     H86653  -1.654   2.656  -0.049  1.6493  0.2490  1.6935
  642MOL0     H86654  -1.278   2.299  -0.106 -1.9097 -0.0211  0.9464
  642MOL0     H86655  -1.032   2.282  -0.069 -0.1246 -0.5637  1.1551
  642MOL0     H86656   0.734   2.308   0.656  1.2797  0.0146  1.1004
  642MOL0     H86657   0.939   2.332   0.728 -0.0397 -0.5250 -0.6461
  642MOL0     H86658   1.218   2.163   1.105  0.3207 -2.2680 -3.4979
  642MOL0     H86659   1.433   2.139   1.204 -1.2562 -0.7409 -0.6666
  642MOL0     H86660   1.731   2.471   1.108  2.4344  0.2412 -0.1442
  642MOL0     H86661   1.835   2.379   1.211  2.8308 -0.9385 -2.4118
  642MOL0     H86662   1.904   2.351   0.984  0.1901  1.1107  1.5498
  642MOL0     H86663   1.744   2.288   0.939 -0.1550  0.4598  0.4805
  642MOL0     H86664   1.955   2.194   1.149  2.5881 -1.0725 -1.4208
  642MOL0     H86665   1.948   2.125   0.985  1.7114  1.1356  0.9408
  642MOL0     H86666   1.692   2.068   1.081  1.2593  0.1002 -3.5854
  642MOL0     H86667   1.783   2.080   1.225  1.9834  1.9411 -0.1102
  642MOL0     H86668   1.886   1.705   1.039 -0.3395 -0.1839  0.4042
  642MOL0     H86669   1.559   2.497   0.986 -0.4922  0.6483 -1.9402
  642MOL0     H86670   1.335   2.505   0.893 -3.1924 -1.1588  0.2214
  643MOL0     O86671   2.280   6.857   2.063  0.2007  0.0586 -0.2098
  643MOL0     C86672   2.346   6.952   2.031 -0.7709  0.2855  0.2467
  643MOL0     O86673   2.401   7.049   2.115 -0.1374  0.7285 -0.4827
  643MOL0     C86674   2.373   7.045   2.254 -0.2169 -1.8478  0.3166
  643MOL0     C86675   2.275   6.972   2.328 -0.0060 -0.2927  0.1496
  643MOL0     C86676   2.251   6.982   2.465  0.7560  0.1291  0.5197
  643MOL0     C86677   2.327   7.074   2.533 -0.0733 -0.3499 -0.0704
  643MOL0     O86678   2.334   7.079   2.669 -0.4204  0.0683 -0.1111
  643MOL0     C86679   2.229   7.022   2.745  0.1583 -0.0439  0.2237
  643MOL0     C86680   2.246   6.871   2.774 -0.3459 -0.0858 -0.0232
  643MOL0     C86681   2.159   6.832   2.893 -0.6936  0.0943  0.4916
  643MOL0     C86682   2.012   6.874   2.870  0.3611 -0.0529  0.6959
  643MOL0     C86683   1.920   6.796   2.952  0.4976  0.7995 -0.3512
  643MOL0     C86684   1.777   6.867   2.944  0.3478 -0.2391  0.3917
  643MOL0     C86685   1.670   6.800   3.033  0.6769  1.0921  0.7107
  643MOL0     C86686   1.587   6.704   2.946  0.2347  0.3752  0.1714
  643MOL0     N86687   1.478   6.627   3.014  0.6442  0.0548  0.1359
  643MOL0     C86688   1.399   6.528   2.959 -0.0012 -0.3488 -0.3586
  643MOL0     C86689   1.274   6.540   3.014 -0.5383  0.7157 -0.7709
  643MOL0     C86690   1.148   6.456   2.990  0.1994 -0.2508  0.5458
  643MOL0     C86691   1.129   6.343   3.080  0.0529  0.0559 -0.2775
  643MOL0     C86692   1.017   6.253   3.030 -0.1700  0.2553 -0.1396
  643MOL0     C86693   0.872   6.301   3.065  0.0064  0.3785  0.2534
  643MOL0     O86694   0.776   6.215   3.005  0.1360 -0.4278  0.8716
  643MOL0     C86695   0.643   6.226   3.019  0.0256  0.1687 -0.9044
  643MOL0     C86696   0.560   6.129   2.964 -0.0711 -0.2457  0.2752
  643MOL0     C86697   0.421   6.125   2.981 -0.7496 -0.5980  0.5505
  643MOL0     C86698   0.345   6.012   2.918  0.5606 -0.4563  0.2166
  643MOL0     C86699   0.364   6.220   3.065 -0.1614 -0.2897 -0.0130
  643MOL0     C86700   0.222   6.232   3.089  0.2007  0.1077 -0.2077
  643MOL0     O86701   0.134   6.243   2.987  0.4818  0.3695 -0.1065
  643MOL0     C86702  -0.001   6.255   3.003 -0.1878 -0.8965 -0.6702
  643MOL0     C86703  -0.077   6.184   2.911 -1.0591 -1.0589  0.7834
  643MOL0     C86704  -0.222   6.185   2.917 -0.3756 -0.2006  0.5696
  643MOL0     C86705  -0.278   6.256   3.016  0.4316 -0.3548  0.3082
  643MOL0     O86706  -0.414   6.254   3.040 -0.3482 -0.6619 -0.2777
  643MOL0     C86707  -0.491   6.139   3.014  0.4992  0.0330 -0.0292
  643MOL0     C86708  -0.635   6.180   3.045  0.0518  0.4872 -0.4371
  643MOL0     C86709  -0.671   6.153   3.192 -0.0249 -0.0669  0.6256
  643MOL0     C86710  -0.608   6.254   3.286  0.4654 -0.1861  0.3887
  643MOL0     C86711  -0.602   6.222   3.430 -0.0559  0.4662  0.2459
  643MOL0     C86712  -0.739   6.180   3.494  0.4545 -0.1078 -0.5961
  643MOL0     C86713  -0.746   6.172   3.649 -0.6306  0.6362  0.1730
  643MOL0     C86714  -0.873   6.109   3.695  0.5314  0.9151 -0.2740
  643MOL0    Cl86715  -1.001   6.226   3.712 -0.3386 -0.0138  0.2406
  643MOL0     C86716  -0.202   6.331   3.111  0.4203 -0.2678 -0.3900
  643MOL0     C86717  -0.065   6.335   3.104 -0.4677 -0.3336 -0.0023
  643MOL0     O86718   0.191   6.258   3.208 -0.0313 -0.3582  0.8297
  643MOL0     C86719   0.452   6.306   3.134 -0.0264 -0.2271  0.1112
  643MOL0     C86720   0.591   6.315   3.122 -0.2093 -0.0109  0.5120
  643MOL0     N86721   1.285   6.635   3.115 -0.3430 -0.1100 -0.5706
  643MOL0     N86722   1.404   6.681   3.112 -0.0487  0.2098 -0.6943
  643MOL0     C86723   2.422   7.155   2.465  0.0278 -0.1431 -0.4174
  643MOL0     C86724   2.446   7.126   2.328  0.7321  0.0431  0.1511
  643MOL0     C86725   2.387   6.966   1.888  1.2113  0.0382 -0.0133
  643MOL0     C86726   2.303   6.907   1.788 -0.7766  0.4518 -0.9488
  643MOL0     C86727   2.338   6.910   1.650  0.0075 -0.1032 -0.1978
  643MOL0     C86728   2.453   6.988   1.604  0.7689 -0.4217 -0.4573
  643MOL0     O86729   2.499   7.007   1.475 -0.1256 -0.2712 -0.3008
  643MOL0     C86730   2.411   6.965   1.375 -0.5040 -0.0406 -0.7556
  643MOL0     C86731   2.327   7.075   1.313  0.2685 -0.2137 -0.0573
  643MOL0     C86732   2.422   7.188   1.270 -0.4773 -1.0521 -0.1368
  643MOL0     C86733   2.535   7.164   1.167 -0.1420  0.0541 -0.2046
  643MOL0     C86734   2.579   7.280   1.096 -0.2127 -0.0302 -0.3844
  643MOL0     C86735   2.613   7.376   1.032 -0.1855  0.0038 -1.0980
  643MOL0     C86736   2.525   7.051   1.705 -0.3236 -0.0509  0.1890
  643MOL0     C86737   2.502   7.040   1.846 -0.9470 -0.0510 -0.6132
  643MOL0     H86738   2.202   6.908   2.279  1.4055 -0.6456 -1.5793
  643MOL0     H86739   2.173   6.923   2.511  0.5000 -1.0353 -1.3238
  643MOL0     H86740   2.220   7.076   2.839  1.2148 -1.5627  1.2321
  643MOL0     H86741   2.140   7.044   2.685  1.4679  0.1200 -1.7824
  643MOL0     H86742   2.195   6.813   2.696 -0.8693 -2.2423  1.8324
  643MOL0     H86743   2.351   6.844   2.789  0.2277  2.7774  1.8617
  643MOL0     H86744   2.170   6.723   2.897  0.2722  0.1666  0.2255
  643MOL0     H86745   2.199   6.880   2.982 -0.2532 -0.8037  0.7873
  643MOL0     H86746   1.993   6.978   2.899 -0.6334 -1.1065  4.4099
  643MOL0     H86747   1.981   6.869   2.765  2.5460  3.4668 -0.2974
  643MOL0     H86748   1.917   6.698   2.904  1.0459  0.7189 -0.2185
  643MOL0     H86749   1.946   6.781   3.057 -1.0010 -1.2515 -0.2048
  643MOL0     H86750   1.791   6.970   2.979 -1.8236  0.6853 -1.2336
  643MOL0     H86751   1.729   6.876   2.846 -2.3462  2.5509  1.7833
  643MOL0     H86752   1.721   6.747   3.113 -0.0826 -1.6850 -0.5042
  643MOL0     H86753   1.597   6.869   3.078  0.1192  0.9814  0.0050
  643MOL0     H86754   1.656   6.635   2.897  0.2129  0.4291  0.0645
  643MOL0     H86755   1.550   6.761   2.860 -0.0404  0.2456  0.2038
  643MOL0     H86756   1.427   6.455   2.883  2.3734  0.9863 -0.8372
  643MOL0     H86757   1.060   6.521   2.993  0.2023 -0.2713  1.1340
  643MOL0     H86758   1.153   6.413   2.889  1.4419  0.2701  0.3622
  643MOL0     H86759   1.101   6.375   3.180  0.0904 -5.0356  1.6427
  643MOL0     H86760   1.221   6.283   3.082  0.0320  0.0050 -0.6827
  643MOL0     H86761   1.031   6.152   3.068  3.7437  0.7200  0.0273
  643MOL0     H86762   1.026   6.236   2.922 -3.1463  0.0710 -0.4394
  643MOL0     H86763   0.865   6.409   3.050  0.5800  0.4096  0.1751
  643MOL0     H86764   0.873   6.281   3.173  1.5405  1.3288  0.4522
  643MOL0     H86765   0.604   6.051   2.902  2.4083  1.0951  0.2086
  643MOL0     H86766   0.274   6.051   2.844  0.0540  0.3597  1.1055
  643MOL0     H86767   0.411   5.943   2.864 -0.4861 -0.6037 -0.9035
  643MOL0     H86768   0.290   5.966   3.000  0.8602 -2.4584 -0.6519
  643MOL0     H86769  -0.026   6.127   2.835 -1.6672 -0.5980  0.0130
  643MOL0     H86770  -0.283   6.125   2.850 -0.8973  0.6707  0.2513
  643MOL0     H86771  -0.497   6.110   2.908 -0.8473 -1.4344  0.4088
  643MOL0     H86772  -0.473   6.057   3.084  0.4784 -0.5199 -0.6546
  643MOL0     H86773  -0.659   6.283   3.016 -1.9087  0.1052 -0.2754
  643MOL0     H86774  -0.702   6.111   2.994 -2.1249  2.7539 -0.8072
  643MOL0     H86775  -0.634   6.053   3.219  0.9363  0.1373  0.1106
  643MOL0     H86776  -0.780   6.148   3.203 -0.1501 -0.5130 -0.6265
  643MOL0     H86777  -0.513   6.292   3.248 -0.6620  1.7236 -0.6702
  643MOL0     H86778  -0.670   6.343   3.281 -0.7344 -1.0368 -0.5832
  643MOL0     H86779  -0.569   6.313   3.482  0.6937  1.1806 -1.4079
  643MOL0     H86780  -0.523   6.147   3.441 -0.8539 -1.1127 -3.3286
  643MOL0     H86781  -0.813   6.256   3.466 -0.7210 -1.5714 -1.6061
  643MOL0     H86782  -0.770   6.083   3.455  0.0202 -0.9298  1.6199
  643MOL0     H86783  -0.723   6.269   3.694  0.2684 -0.5947  2.5492
  643MOL0     H86784  -0.660   6.116   3.686 -1.3251  0.9397  2.4130
  643MOL0     H86785  -0.862   6.061   3.793 -1.0651 -1.5952 -1.2106
  643MOL0     H86786  -0.898   6.023   3.632  2.1644  0.9456 -1.0151
  643MOL0     H86787  -0.253   6.400   3.177  1.2404  1.9705 -1.9563
  643MOL0     H86788  -0.002   6.395   3.168  2.0571 -0.3116 -2.3118
  643MOL0     H86789   0.416   6.386   3.198  1.1762  0.5102 -0.1090
  643MOL0     H86790   0.656   6.383   3.176 -0.2247  1.8201 -1.6036
  643MOL0     H86791   2.470   7.232   2.524  0.4502 -3.8539  4.8136
  643MOL0     H86792   2.528   7.176   2.277 -1.6962  2.1377 -2.0186
  643MOL0     H86793   2.219   6.844   1.817  0.0698  0.2089  1.1988
  643MOL0     H86794   2.284   6.846   1.581 -0.9968 -1.5288  1.7705
  643MOL0     H86795   2.482   6.925   1.302  1.1322 -0.3645  0.9622
  643MOL0     H86796   2.347   6.877   1.392  0.0393 -0.8926 -2.8080
  643MOL0     H86797   2.247   7.099   1.384  1.5024  1.9906  0.6931
  643MOL0     H86798   2.277   7.040   1.222 -0.2140  2.8785 -1.1065
  643MOL0     H86799   2.458   7.240   1.359  1.8270 -0.6412 -1.2301
  643MOL0     H86800   2.361   7.263   1.219 -0.8151 -0.7933  0.6276
  643MOL0     H86801   2.502   7.093   1.091 -2.9750  0.1213  0.8497
  643MOL0     H86802   2.620   7.114   1.215 -0.0167 -0.5043 -0.9902
  643MOL0     H86803   2.644   7.465   0.981 -0.3185  0.6413 -0.1024
  643MOL0     H86804   2.609   7.110   1.668 -1.4087  1.4883  0.0949
  643MOL0     H86805   2.571   7.089   1.913 -0.5792 -2.9852  1.3556
  644MOL0     O86806   2.381   0.688   3.758  0.4404 -0.5545  0.7146
  644MOL0     C86807   2.315   0.646   3.664  0.3330  0.0371 -0.8747
  644MOL0     O86808   2.178   0.674   3.648  0.0318 -0.4203 -1.0249
  644MOL0     C86809   2.114   0.767   3.729 -0.0263 -0.0028  1.0650
  644MOL0     C86810   1.975   0.754   3.731  0.8440  0.4326  0.9198
  644MOL0     C86811   1.893   0.822   3.823  0.8635 -0.5291  0.1140
  644MOL0     C86812   1.946   0.912   3.912 -0.3126 -0.7349 -0.5623
  644MOL0     O86813   1.870   0.966   4.009  0.5170 -0.0526  0.0445
  644MOL0     C86814   1.817   1.090   3.970 -0.2589  0.7578 -0.7109
  644MOL0     C86815   1.709   1.110   4.075  0.6796  0.7663 -0.1006
  644MOL0     C86816   1.596   1.000   4.071 -0.3544 -1.1637  0.0484
  644MOL0     C86817   1.517   0.991   4.206 -0.6159  0.8385  0.1989
  644MOL0     C86818   1.370   0.958   4.191  0.0440  0.9277  0.9818
  644MOL0     C86819   1.349   0.840   4.096 -0.2179  0.1700  0.2987
  644MOL0     C86820   1.206   0.824   4.050 -0.2586 -0.8930  0.0116
  644MOL0     C86821   1.137   0.734   4.152 -0.0832  0.2065  0.3967
  644MOL0     N86822   1.029   0.657   4.086 -0.6105  0.2758 -0.5885
  644MOL0     C86823   0.896   0.666   4.106  0.4018  0.1202 -0.3581
  644MOL0     C86824   0.857   0.540   4.074 -0.0668 -0.8628 -0.3501
  644MOL0     C86825   0.714   0.502   4.053 -0.7387 -0.4843 -0.1777
  644MOL0     C86826   0.637   0.453   4.185  0.2189 -1.0031  0.4425
  644MOL0     C86827   0.479   0.442   4.178  0.3743 -0.0506  0.3220
  644MOL0     C86828   0.403   0.573   4.203  0.6351 -0.6322 -0.7139
  644MOL0     O86829   0.255   0.549   4.199 -0.0107  0.5368  0.0379
  644MOL0     C86830   0.193   0.450   4.273  0.9335 -0.4061 -0.7283
  644MOL0     C86831   0.080   0.396   4.215  0.1822 -1.1942 -0.0347
  644MOL0     C86832   0.007   0.294   4.269  0.1583  1.4120 -0.7541
  644MOL0     C86833  -0.118   0.238   4.200  0.2672 -0.3282  0.4971
  644MOL0     C86834   0.048   0.250   4.400 -0.2769  0.1544 -0.6949
  644MOL0     C86835  -0.024   0.150   4.474 -0.7481 -0.2051 -0.6703
  644MOL0     O86836  -0.117   0.191   4.559 -0.5042  0.2628 -0.5800
  644MOL0     C86837  -0.218   0.109   4.608 -0.2717 -0.0727 -0.0801
  644MOL0     C86838  -0.254  -0.014   4.548 -0.4344  0.2955  0.2716
  644MOL0     C86839  -0.378  -0.076   4.579 -0.0044  0.1867 -0.7424
  644MOL0     C86840  -0.462  -0.019   4.677 -0.3090 -0.8888  0.1196
  644MOL0     O86841  -0.575  -0.084   4.729  0.0306 -0.3387 -0.2889
  644MOL0     C86842  -0.551  -0.137   4.861  0.5897  0.3514 -0.1440
  644MOL0     C86843  -0.611  -0.277   4.881 -0.1938 -0.3354 -0.6454
  644MOL0     C86844  -0.631  -0.326   5.019 -0.1105  0.4304 -0.1499
  644MOL0     C86845  -0.673  -0.470   5.018 -0.5183  0.2525 -0.0917
  644MOL0     C86846  -0.658  -0.524   5.166 -0.1280 -0.0684 -0.6401
  644MOL0     C86847  -0.739  -0.655   5.182 -0.3477 -0.2583  0.5148
  644MOL0     C86848  -0.759  -0.693   5.330 -0.6305 -0.9321  0.0368
  644MOL0     C86849  -0.705  -0.824   5.377 -1.5809  0.1215 -0.0182
  644MOL0    Cl86850  -0.758  -0.955   5.288  0.1979  0.2678  0.1918
  644MOL0     C86851  -0.417   0.097   4.746  0.4332  0.1206  0.6728
  644MOL0     C86852  -0.299   0.158   4.706  0.1086 -0.3302  0.4108
  644MOL0     O86853   0.017   0.040   4.463 -0.1373  0.0200  0.1853
  644MOL0     C86854   0.155   0.307   4.465 -0.1593 -0.3905  0.3157
  644MOL0     C86855   0.237   0.407   4.402  0.6492 -0.2267 -0.1560
  644MOL0     N86856   0.958   0.456   4.052  0.2069  0.4737 -0.0118
  644MOL0     N86857   1.058   0.528   4.053 -0.8747  0.0551 -0.2981
  644MOL0     C86858   2.080   0.934   3.903 -0.3496 -0.4977  0.4904
  644MOL0     C86859   2.172   0.865   3.816  0.2405 -0.4699 -0.3174
  644MOL0     C86860   2.381   0.546   3.581 -0.3776 -0.4503 -0.0345
  644MOL0     C86861   2.308   0.485   3.480  0.0927  0.6552 -0.4258
  644MOL0     C86862   2.366   0.383   3.400 -0.1670 -0.2019  0.0719
  644MOL0     C86863   2.492   0.346   3.414 -1.2620  0.2481  0.0498
  644MOL0     O86864   2.564   0.250   3.348 -0.1892 -0.3134  0.8380
  644MOL0     C86865   2.516   0.195   3.223 -0.2965  0.6259 -1.0675
  644MOL0     C86866   2.641   0.143   3.155 -0.2631 -0.6124 -0.4987
  644MOL0     C86867   2.718   0.021   3.215  0.2776 -0.2121 -0.4562
  644MOL0     C86868   2.647  -0.095   3.279 -0.1820 -0.2631  0.4877
  644MOL0     C86869   2.536  -0.141   3.189  0.1436  0.0306  0.2019
  644MOL0     C86870   2.437  -0.175   3.127  0.2399  0.8014 -0.8659
  644MOL0     C86871   2.564   0.411   3.516 -1.2192 -0.9349 -0.7973
  644MOL0     C86872   2.519   0.525   3.588 -0.6388  0.8574 -0.3356
  644MOL0     H86873   1.931   0.688   3.656 -0.7824  1.3208  1.0447
  644MOL0     H86874   1.784   0.819   3.819  0.7835  1.8540 -2.0772
  644MOL0     H86875   1.889   1.171   3.957  1.6041 -1.1688 -3.6913
  644MOL0     H86876   1.760   1.077   3.877 -2.6445 -0.8642  0.8611
  644MOL0     H86877   1.760   1.123   4.171 -1.1206  1.8923  0.7651
  644MOL0     H86878   1.659   1.205   4.056  0.3964  0.1343 -2.9932
  644MOL0     H86879   1.524   1.046   4.003 -1.0334  0.7930  1.9913
  644MOL0     H86880   1.628   0.908   4.022  4.5656  0.8027 -1.0704
  644MOL0     H86881   1.557   0.914   4.272  2.8650  1.2984 -1.1842
  644MOL0     H86882   1.532   1.083   4.262 -1.5789  1.1415 -0.0155
  644MOL0     H86883   1.310   0.954   4.283 -0.1981  0.7962  0.8194
  644MOL0     H86884   1.317   1.038   4.139  0.8434  0.4166 -0.6884
  644MOL0     H86885   1.408   0.864   4.007 -1.5370 -0.6716 -0.8624
  644MOL0     H86886   1.395   0.746   4.128  0.8212  0.6689  0.2780
  644MOL0     H86887   1.152   0.920   4.046 -0.9634 -1.3348 -3.0519
  644MOL0     H86888   1.198   0.792   3.946 -1.8576  1.4591 -0.6875
  644MOL0     H86889   1.096   0.794   4.234  1.0405  0.8094  0.5336
  644MOL0     H86890   1.202   0.655   4.190 -0.6493 -1.4954 -1.9110
  644MOL0     H86891   0.835   0.753   4.127 -2.4082 -1.9042  0.6772
  644MOL0     H86892   0.655   0.584   4.010  0.2211 -0.4517 -1.5076
  644MOL0     H86893   0.731   0.429   3.973  0.4968 -2.2534  1.6204
  644MOL0     H86894   0.664   0.523   4.265  0.0828  0.3092 -0.6230
  644MOL0     H86895   0.684   0.359   4.213  1.8448 -0.5443 -0.6215
  644MOL0     H86896   0.430   0.367   4.240  1.1914 -1.6582 -0.8934
  644MOL0     H86897   0.454   0.412   4.075 -0.9029 -0.4319  0.7329
  644MOL0     H86898   0.425   0.658   4.138 -0.5574  0.3494  0.1177
  644MOL0     H86899   0.432   0.609   4.302  1.4417 -2.0384 -0.3984
  644MOL0     H86900   0.054   0.440   4.119 -1.4994  0.1208  0.9619
  644MOL0     H86901  -0.206   0.295   4.229  1.4058  2.1221 -0.5539
  644MOL0     H86902  -0.105   0.240   4.091  0.9433 -3.3229  0.4409
  644MOL0     H86903  -0.127   0.130   4.212  2.6058 -0.6099  0.2113
  644MOL0     H86904  -0.201  -0.043   4.458 -1.7772 -0.0864 -0.4198
  644MOL0     H86905  -0.418  -0.169   4.540 -2.4556  1.0790 -0.5484
  644MOL0     H86906  -0.446  -0.137   4.894  0.9393  2.4850 -1.0565
  644MOL0     H86907  -0.596  -0.077   4.940  1.5055  1.7892 -0.6630
  644MOL0     H86908  -0.713  -0.279   4.843 -0.1769  2.0550 -0.9874
  644MOL0     H86909  -0.542  -0.351   4.838  3.3365  1.5205  1.3552
  644MOL0     H86910  -0.714  -0.274   5.068 -1.3453 -1.8370  0.3030
  644MOL0     H86911  -0.534  -0.315   5.070  0.0626 -2.4924  0.3226
  644MOL0     H86912  -0.774  -0.475   4.978  0.1071 -0.0248 -1.7259
  644MOL0     H86913  -0.607  -0.523   4.948  1.4628  0.0108  1.8519
  644MOL0     H86914  -0.690  -0.447   5.237  1.1080 -0.3089  0.2096
  644MOL0     H86915  -0.552  -0.546   5.185  0.1766  1.4411 -0.4451
  644MOL0     H86916  -0.836  -0.649   5.131  1.4048 -0.6591 -3.2406
  644MOL0     H86917  -0.679  -0.730   5.129  0.6407 -0.0563  1.3338
  644MOL0     H86918  -0.867  -0.706   5.340 -0.4396 -2.6170  0.2065
  644MOL0     H86919  -0.716  -0.617   5.396 -1.9578  0.8965 -1.1036
  644MOL0     H86920  -0.735  -0.832   5.482 -2.3404 -2.5012 -0.3542
  644MOL0     H86921  -0.595  -0.824   5.378 -1.4793  3.6431  0.6120
  644MOL0     H86922  -0.460   0.137   4.837  0.9773 -2.3180  2.1091
  644MOL0     H86923  -0.273   0.253   4.752 -0.8311 -0.7390  1.8695
  644MOL0     H86924   0.192   0.267   4.559  0.6245 -3.0458 -1.0096
  644MOL0     H86925   0.328   0.447   4.446  0.4253  0.7734 -0.5878
  644MOL0     H86926   2.104   1.018   3.967  1.0162 -0.4985 -0.0024
  644MOL0     H86927   2.278   0.885   3.823 -0.2561  3.9090 -2.1366
  644MOL0     H86928   2.206   0.517   3.463  0.5523  2.2590 -0.3713
  644MOL0     H86929   2.305   0.347   3.318  0.4660  2.4865 -1.7070
  644MOL0     H86930   2.446   0.111   3.231 -1.2349  1.0738 -3.6642
  644MOL0     H86931   2.464   0.260   3.151  0.4701  2.4207 -0.0547
  644MOL0     H86932   2.718   0.220   3.150  2.0968 -2.6652  1.5433
  644MOL0     H86933   2.619   0.111   3.053  0.5093 -3.5208  0.1502
  644MOL0     H86934   2.785   0.060   3.291  0.1527 -0.2582 -0.3214
  644MOL0     H86935   2.784  -0.019   3.137  1.6112  1.2449 -0.1196
  644MOL0     H86936   2.607  -0.056   3.373 -4.3258 -1.6406 -0.4984
  644MOL0     H86937   2.714  -0.178   3.303  0.3228  0.9916  4.0020
  644MOL0     H86938   2.346  -0.200   3.077  0.0423  1.9644 -1.1194
  644MOL0     H86939   2.666   0.378   3.531 -1.0813 -0.5367 -0.8360
  644MOL0     H86940   2.591   0.569   3.656  1.3096  0.2788 -1.9198
  645MOL0     O86941   2.131   6.002   4.457 -0.0293  0.0191  0.1226
  645MOL0     C86942   2.052   6.078   4.406 -0.5120 -0.0833 -0.1979
  645MOL0     O86943   2.067   6.185   4.332  0.2521 -0.6431  0.0732
  645MOL0     C86944   2.183   6.252   4.285  0.1581 -0.2102 -0.2806
  645MOL0     C86945   2.152   6.385   4.247  0.4735 -0.2590  0.4013
  645MOL0     C86946   2.252   6.469   4.191 -0.5560 -0.2288 -0.7573
  645MOL0     C86947   2.386   6.423   4.183  0.0994 -0.1003 -0.2448
  645MOL0     O86948   2.487   6.502   4.122  0.0852 -0.4553  0.6593
  645MOL0     C86949   2.453   6.584   4.013 -0.3322  0.3174 -0.5238
  645MOL0     C86950   2.587   6.614   3.954 -1.0956 -0.2233  0.3634
  645MOL0     C86951   2.616   6.520   3.832  1.0645 -0.4363 -0.3923
  645MOL0     C86952   2.750   6.564   3.772 -0.1011  0.0240  0.8838
  645MOL0     C86953   2.760   6.489   3.640 -0.5950 -0.0687 -0.3689
  645MOL0     C86954   2.898   6.519   3.583 -0.0667  1.0338 -0.6279
  645MOL0     C86955   2.952   6.664   3.575  0.1667 -0.3141  0.2522
  645MOL0     C86956   2.872   6.752   3.463 -0.2726 -0.3814  0.1353
  645MOL0     N86957   2.902   6.728   3.318 -0.3088 -0.3477  0.1737
  645MOL0     C86958   2.824   6.648   3.240 -0.8313 -0.3520  0.9041
  645MOL0     C86959   2.894   6.649   3.120  1.0632  0.2371 -0.2404
  645MOL0     C86960   2.848   6.572   2.996 -0.3614 -1.0247  0.5142
  645MOL0     C86961   2.773   6.660   2.896  0.1442 -1.0499 -0.2943
  645MOL0     C86962   2.630   6.705   2.935  0.3486 -0.1764 -0.3181
  645MOL0     C86963   2.530   6.587   2.964 -0.3365  0.3272 -1.0947
  645MOL0     O86964   2.530   6.564   3.110 -0.1001  0.3094 -0.2548
  645MOL0     C86965   2.452   6.634   3.197 -0.3989 -0.7948 -0.5316
  645MOL0     C86966   2.423   6.576   3.319  0.1092  1.4882  0.2161
  645MOL0     C86967   2.351   6.630   3.423 -0.5101  1.5569 -0.1505
  645MOL0     C86968   2.334   6.545   3.551 -0.4925  0.2136  0.0924
  645MOL0     C86969   2.292   6.760   3.398 -0.1235 -0.0390  0.3341
  645MOL0     C86970   2.209   6.828   3.500  0.3073 -0.3253 -0.6569
  645MOL0     O86971   2.148   6.756   3.600  0.3967  0.0695  0.4398
  645MOL0     C86972   2.040   6.803   3.666 -0.4716 -0.2495  0.2551
  645MOL0     C86973   1.965   6.701   3.714  0.2530 -0.0866  0.4226
  645MOL0     C86974   1.868   6.718   3.825  0.9583 -0.1791 -0.0805
  645MOL0     C86975   1.858   6.846   3.886 -0.0157  0.2519 -0.1630
  645MOL0     O86976   1.774   6.861   3.996 -0.5854  0.2120 -0.1764
  645MOL0     C86977   1.815   6.931   4.116 -1.2027  0.7288 -0.1923
  645MOL0     C86978   1.702   6.952   4.211 -0.2279  0.4053 -0.2590
  645MOL0     C86979   1.581   7.002   4.131  0.5824 -0.7107  0.0041
  645MOL0     C86980   1.469   7.027   4.228  0.0980  0.7811 -0.2554
  645MOL0     C86981   1.356   7.093   4.149 -0.3767  0.4336  0.6342
  645MOL0     C86982   1.226   7.138   4.218  0.0266 -0.5584  0.8518
  645MOL0     C86983   1.242   7.159   4.368  0.8271 -0.2454 -1.1511
  645MOL0     C86984   1.120   7.210   4.447  0.7315  0.7013 -0.0292
  645MOL0    Cl86985   1.127   7.210   4.629  0.0399  0.0555  0.0138
  645MOL0     C86986   1.928   6.952   3.840 -0.0777 -0.3888 -0.2738
  645MOL0     C86987   2.026   6.928   3.740 -0.2125 -0.1512  0.0976
  645MOL0     O86988   2.189   6.949   3.488  0.1972 -0.3961 -0.3754
  645MOL0     C86989   2.309   6.820   3.273 -0.5839 -0.3491 -0.3725
  645MOL0     C86990   2.389   6.757   3.171  0.2979 -0.9279  0.1197
  645MOL0     N86991   3.011   6.720   3.126  0.0868  0.1529 -1.0210
  645MOL0     N86992   3.019   6.764   3.254 -0.0614 -0.8113 -0.2383
  645MOL0     C86993   2.417   6.301   4.227  0.0412  0.5914 -0.1593
  645MOL0     C86994   2.318   6.216   4.282  0.2823  0.0787  0.0670
  645MOL0     C86995   1.912   6.035   4.415  0.2988  0.0116 -0.0356
  645MOL0     C86996   1.806   6.128   4.390 -0.5694 -0.6244  0.3246
  645MOL0     C86997   1.672   6.095   4.413  0.6154 -0.1016 -0.0527
  645MOL0     C86998   1.642   5.960   4.453  0.7146  0.1586  0.2332
  645MOL0     O86999   1.510   5.919   4.458 -1.5678  0.1130  0.0690
  645MOL0     C87000   1.480   5.776   4.472  0.5038 -0.9875 -0.3973
  645MOL0     C87001   1.323   5.755   4.454  0.4024 -0.1851  0.8702
  645MOL0     C87002   1.260   5.792   4.322 -0.2046 -0.7628 -0.8795
  645MOL0     C87003   1.297   5.682   4.223 -0.1166  1.0328 -0.4586
  645MOL0     C87004   1.236   5.697   4.092 -0.6332  0.9092  0.0398
  645MOL0     C87005   1.180   5.737   3.997  0.1824  0.2078 -0.7941
  645MOL0     C87006   1.737   5.873   4.493 -0.4290  0.2089 -0.0681
  645MOL0     C87007   1.871   5.913   4.464 -0.0050  0.0849 -0.4118
  645MOL0     H87008   2.049   6.415   4.262  0.6354  0.7143 -0.3080
  645MOL0     H87009   2.234   6.568   4.151  1.4665  0.2842 -0.5040
  645MOL0     H87010   2.386   6.528   3.946 -2.8882  1.9233  0.5330
  645MOL0     H87011   2.397   6.672   4.045  1.1501  1.1633 -0.1548
  645MOL0     H87012   2.591   6.718   3.918  1.9842 -0.1849  0.4997
  645MOL0     H87013   2.664   6.606   4.032 -2.3805  2.9987  2.1685
  645MOL0     H87014   2.610   6.415   3.861 -1.5467 -0.0271  0.7580
  645MOL0     H87015   2.527   6.521   3.768  0.0353 -2.9098  0.8787
  645MOL0     H87016   2.756   6.672   3.759  0.5599  0.1652  2.1280
  645MOL0     H87017   2.834   6.535   3.836  1.1120 -1.9659 -1.4709
  645MOL0     H87018   2.754   6.380   3.654 -1.8637  0.1676  1.0318
  645MOL0     H87019   2.694   6.522   3.559  1.4068  2.9836 -0.9161
  645MOL0     H87020   2.974   6.468   3.643  0.2172  0.2726 -1.6087
  645MOL0     H87021   2.897   6.473   3.483 -5.9652 -1.4358  0.1631
  645MOL0     H87022   2.950   6.705   3.677 -3.4393  0.2613  0.0836
  645MOL0     H87023   3.056   6.646   3.548  0.6897  1.0806  1.2549
  645MOL0     H87024   2.888   6.857   3.489 -0.9392 -0.5935  1.5238
  645MOL0     H87025   2.765   6.744   3.484 -0.1277  2.7783  3.0638
  645MOL0     H87026   2.725   6.610   3.262 -1.8845  2.1791  0.9425
  645MOL0     H87027   2.932   6.536   2.936  0.3813  2.3152 -0.6963
  645MOL0     H87028   2.781   6.491   3.028  1.3306 -2.7332 -0.0698
  645MOL0     H87029   2.758   6.609   2.800  3.6032 -1.3073 -0.8399
  645MOL0     H87030   2.825   6.755   2.883 -2.2644  0.7965  2.4974
  645MOL0     H87031   2.592   6.777   2.863  2.0563 -0.0284 -1.1303
  645MOL0     H87032   2.631   6.761   3.029  0.3071  1.3482 -1.2009
  645MOL0     H87033   2.547   6.491   2.914 -1.4576 -0.3500 -0.2220
  645MOL0     H87034   2.428   6.607   2.932 -0.3898  0.4382 -0.8543
  645MOL0     H87035   2.442   6.470   3.333 -0.0574  1.2843 -1.0475
  645MOL0     H87036   2.227   6.525   3.566 -0.0833 -2.3204 -0.0188
  645MOL0     H87037   2.391   6.452   3.542  2.7887  1.8774  1.7892
  645MOL0     H87038   2.366   6.600   3.640 -0.6322  1.3962 -0.5680
  645MOL0     H87039   1.985   6.603   3.672 -0.3354 -0.1764  0.3371
  645MOL0     H87040   1.812   6.645   3.882  4.6349 -3.3178 -0.1000
  645MOL0     H87041   1.899   6.870   4.150 -1.5291  1.7288  2.6451
  645MOL0     H87042   1.851   7.029   4.083 -1.9635  1.1419  0.1759
  645MOL0     H87043   1.685   6.859   4.266  2.5828 -0.3007 -0.3997
  645MOL0     H87044   1.728   7.025   4.289  0.5701  2.5042 -2.3635
  645MOL0     H87045   1.551   6.927   4.057 -2.0083  0.3081 -0.0975
  645MOL0     H87046   1.589   7.101   4.085  0.7186 -0.2951  0.8860
  645MOL0     H87047   1.414   6.940   4.264 -1.4259  1.1714 -1.4861
  645MOL0     H87048   1.509   7.076   4.317  0.0850  1.9826 -0.8921
  645MOL0     H87049   1.340   7.037   4.056  0.5404  3.1499 -1.2757
  645MOL0     H87050   1.396   7.184   4.106  0.0913  0.7826  1.7678
  645MOL0     H87051   1.197   7.236   4.178 -0.5167  0.1641  2.8865
  645MOL0     H87052   1.147   7.067   4.191 -1.4540  0.5090  2.1703
  645MOL0     H87053   1.321   7.235   4.379  0.2870  0.4245 -1.7922
  645MOL0     H87054   1.275   7.066   4.415  2.5525  0.6812 -0.4194
  645MOL0     H87055   1.033   7.150   4.421 -1.3369  3.2674  0.5760
  645MOL0     H87056   1.096   7.310   4.410 -0.7150  0.9281  1.4227
  645MOL0     H87057   1.919   7.050   3.886 -0.6113  0.7041 -2.5417
  645MOL0     H87058   2.095   7.009   3.721 -2.8579  2.0060 -1.1587
  645MOL0     H87059   2.248   6.899   3.231 -0.7567 -0.9969 -1.3544
  645MOL0     H87060   2.392   6.794   3.069 -0.1361  1.9273  1.0505
  645MOL0     H87061   2.516   6.262   4.204 -0.0321 -2.4251  3.6986
  645MOL0     H87062   2.340   6.119   4.326 -0.0127  0.0454  0.1437
  645MOL0     H87063   1.818   6.226   4.344  0.5552  0.5461  2.9097
  645MOL0     H87064   1.594   6.167   4.390  1.2802  0.3183 -1.1237
  645MOL0     H87065   1.539   5.721   4.398 -1.7109 -0.6829 -2.5215
  645MOL0     H87066   1.506   5.748   4.574 -0.6405  1.0549  0.5324
  645MOL0     H87067   1.273   5.809   4.536 -2.1080 -0.0921 -0.6017
  645MOL0     H87068   1.315   5.648   4.475 -2.3116 -0.5204 -1.2486
  645MOL0     H87069   1.293   5.893   4.299  0.6691 -1.2026 -1.6056
  645MOL0     H87070   1.151   5.797   4.335 -0.2378 -0.0565 -1.4086
  645MOL0     H87071   1.267   5.585   4.264  0.9271  0.5741 -0.7627
  645MOL0     H87072   1.404   5.686   4.204 -0.2531  1.0112 -1.2292
  645MOL0     H87073   1.134   5.781   3.910 -1.6218 -3.5328 -1.9607
  645MOL0     H87074   1.728   5.767   4.515  1.8130 -0.8678 -3.5134
  645MOL0     H87075   1.948   5.838   4.476 -0.2996 -0.3120 -1.0027
  646MOL0     O87076   0.442   1.660   7.100  1.1493  1.1156 -0.1980
  646MOL0     C87077   0.400   1.549   7.075  0.4713  0.5463 -0.0663
  646MOL0     O87078   0.376   1.501   6.948 -0.1393  0.3360  0.3799
  646MOL0     C87079   0.425   1.565   6.838 -0.0841 -0.7002 -0.6464
  646MOL0     C87080   0.560   1.605   6.831 -0.0677  0.5552 -0.7262
  646MOL0     C87081   0.609   1.661   6.713  0.0646  0.3572 -0.1748
  646MOL0     C87082   0.523   1.705   6.610 -0.3886 -0.1303 -0.6176
  646MOL0     O87083   0.571   1.795   6.517 -0.1075 -0.5188  0.3583
  646MOL0     C87084   0.484   1.894   6.463  0.3217 -0.0625 -0.0717
  646MOL0     C87085   0.568   2.016   6.422 -0.2219 -0.5294 -0.2570
  646MOL0     C87086   0.700   2.039   6.497  0.5592  0.7876  0.2079
  646MOL0     C87087   0.771   2.172   6.495  0.4490 -0.2332  1.0301
  646MOL0     C87088   0.907   2.161   6.564  0.1623 -0.2424  0.2113
  646MOL0     C87089   1.016   2.067   6.512 -1.2628  0.3357 -0.2788
  646MOL0     C87090   1.160   2.088   6.577 -0.3336 -0.4585 -0.7878
  646MOL0     C87091   1.172   2.041   6.723  0.2714  0.2625 -0.0545
  646MOL0     N87092   1.128   1.898   6.730  0.9354  0.6208 -0.2102
  646MOL0     C87093   1.190   1.795   6.661  0.3308 -0.4783  0.6535
  646MOL0     C87094   1.120   1.689   6.699 -0.6914  0.1299  0.2543
  646MOL0     C87095   1.168   1.549   6.659 -0.1032 -0.2899 -0.2750
  646MOL0     C87096   1.111   1.431   6.739 -0.3382 -0.6816  0.4677
  646MOL0     C87097   1.165   1.305   6.671 -0.1203  0.8055  0.0556
  646MOL0     C87098   1.170   1.198   6.780 -0.0532 -0.4514 -0.9480
  646MOL0     O87099   1.300   1.210   6.844 -0.7673 -0.1025  0.2723
  646MOL0     C87100   1.333   1.150   6.960  0.6197 -1.1534  0.2473
  646MOL0     C87101   1.462   1.144   6.984  0.4879 -0.0204 -0.4381
  646MOL0     C87102   1.517   1.091   7.108 -0.1598  0.5041 -0.3141
  646MOL0     C87103   1.668   1.081   7.113 -0.3383 -0.5773 -0.0023
  646MOL0     C87104   1.427   1.042   7.209  0.4944  0.1305  0.1917
  646MOL0     C87105   1.459   0.973   7.336 -0.0810  0.7393  0.0973
  646MOL0     O87106   1.356   0.990   7.431  0.0145 -0.4630 -0.2102
  646MOL0     C87107   1.366   0.913   7.541 -0.2170 -1.0870 -1.4425
  646MOL0     C87108   1.350   0.983   7.664 -0.1053  0.2635  0.5324
  646MOL0     C87109   1.357   0.905   7.778  0.0487 -0.6364 -0.2488
  646MOL0     C87110   1.386   0.768   7.788 -0.6573 -0.6524 -0.1889
  646MOL0     O87111   1.406   0.697   7.902 -0.8467  0.3335  0.4535
  646MOL0     C87112   1.397   0.766   8.029  0.1024 -0.5044 -0.2416
  646MOL0     C87113   1.434   0.667   8.145  0.5102  0.3028  0.5978
  646MOL0     C87114   1.517   0.549   8.107 -0.0405 -0.3493 -0.0344
  646MOL0     C87115   1.525   0.453   8.226  0.0609  0.6297  0.2454
  646MOL0     C87116   1.548   0.314   8.174  0.3572  0.1797  0.9635
  646MOL0     C87117   1.563   0.208   8.285  0.4073 -1.0260 -0.2912
  646MOL0     C87118   1.575   0.059   8.223  0.0416  0.1619  0.4766
  646MOL0     C87119   1.570  -0.063   8.328 -0.1574 -0.4503  0.6404
  646MOL0    Cl87120   1.532  -0.201   8.229 -0.2307  0.6492  0.0929
  646MOL0     C87121   1.392   0.708   7.667  0.0264  0.8667  0.6753
  646MOL0     C87122   1.386   0.778   7.547  0.5373 -0.0596  0.0253
  646MOL0     O87123   1.572   0.926   7.356  0.8347  0.1303  0.4497
  646MOL0     C87124   1.289   1.048   7.175 -0.3414 -0.0151  0.5503
  646MOL0     C87125   1.238   1.108   7.057  0.7001  0.5271 -0.9826
  646MOL0     N87126   1.016   1.722   6.778  0.4805  0.3615 -0.2646
  646MOL0     N87127   1.030   1.844   6.806 -0.2373  0.9919  0.1590
  646MOL0     C87128   0.387   1.678   6.625  0.4257  0.7663 -0.7276
  646MOL0     C87129   0.336   1.598   6.730  0.2295  1.0737 -0.7692
  646MOL0     C87130   0.369   1.448   7.179  0.1529 -0.9571 -0.2654
  646MOL0     C87131   0.365   1.492   7.312 -0.3664 -0.4590 -0.9242
  646MOL0     C87132   0.335   1.408   7.416  0.5952 -0.2460 -0.2393
  646MOL0     C87133   0.306   1.275   7.398 -0.2742 -0.5686  0.1112
  646MOL0     O87134   0.287   1.202   7.507 -0.2929  0.1944 -0.0380
  646MOL0     C87135   0.259   1.068   7.485 -0.2512  0.6983 -0.8744
  646MOL0     C87136   0.173   1.011   7.592  0.2055 -0.0832  0.5069
  646MOL0     C87137   0.134   0.869   7.555 -0.7424 -0.0654  0.0772
  646MOL0     C87138   0.034   0.805   7.657 -0.2271  0.2161 -0.5522
  646MOL0     C87139  -0.100   0.860   7.631  0.3221 -0.5556  0.0565
  646MOL0     C87140  -0.210   0.913   7.625 -0.5964  0.3626  1.1393
  646MOL0     C87141   0.318   1.228   7.261  0.7414 -0.8857 -0.6327
  646MOL0     C87142   0.339   1.312   7.151  0.1962 -0.1835 -0.0614
  646MOL0     H87143   0.628   1.586   6.914  0.0400 -0.6867 -1.0751
  646MOL0     H87144   0.715   1.681   6.710  0.9241 -3.2253  1.4743
  646MOL0     H87145   0.435   1.859   6.372  1.7255 -1.3857 -0.3652
  646MOL0     H87146   0.416   1.922   6.543  2.7877 -0.7172  2.4209
  646MOL0     H87147   0.589   2.005   6.315  0.0472  1.3105 -0.4190
  646MOL0     H87148   0.514   2.110   6.435  1.9715  0.7514  0.0129
  646MOL0     H87149   0.689   2.016   6.603  0.1113  1.6431  0.3565
  646MOL0     H87150   0.763   1.959   6.458 -0.3500  0.1441  0.0224
  646MOL0     H87151   0.770   2.200   6.390  3.2068 -2.4969  0.2933
  646MOL0     H87152   0.716   2.256   6.539  0.5231  1.8833 -2.5767
  646MOL0     H87153   0.951   2.260   6.557  0.3904 -0.4431 -1.5254
  646MOL0     H87154   0.887   2.141   6.670  0.4314  3.0286  0.9786
  646MOL0     H87155   0.989   1.966   6.544 -1.1047  0.5128  0.4308
  646MOL0     H87156   1.026   2.066   6.403 -0.9518 -3.0996 -0.3169
  646MOL0     H87157   1.234   2.031   6.521  0.0735  1.0177 -1.8233
  646MOL0     H87158   1.201   2.190   6.574 -0.2949 -0.4837 -1.1788
  646MOL0     H87159   1.104   2.097   6.787 -1.7123  0.6134 -2.3617
  646MOL0     H87160   1.273   2.047   6.766 -0.7802  2.1068  2.3962
  646MOL0     H87161   1.273   1.801   6.590  1.5882 -2.7468  1.8314
  646MOL0     H87162   1.143   1.533   6.554 -0.5557 -5.2983  0.3951
  646MOL0     H87163   1.277   1.547   6.664 -0.1349 -0.6192  0.4838
  646MOL0     H87164   1.003   1.443   6.741 -0.1508  1.4346  0.6462
  646MOL0     H87165   1.147   1.445   6.842  1.4862  2.3773 -0.4305
  646MOL0     H87166   1.259   1.317   6.617  2.1617 -1.1561  3.2775
  646MOL0     H87167   1.087   1.288   6.595 -0.7043  3.0634  0.0698
  646MOL0     H87168   1.151   1.101   6.734  0.5527 -0.1935 -1.7580
  646MOL0     H87169   1.094   1.217   6.857  0.6806 -0.4179 -0.2199
  646MOL0     H87170   1.538   1.171   6.910 -0.5062  1.0791 -1.1002
  646MOL0     H87171   1.694   0.994   7.173  3.8559  0.8800  0.5865
  646MOL0     H87172   1.710   1.077   7.012  0.1142  2.9795 -0.0897
  646MOL0     H87173   1.718   1.170   7.152  0.5937 -0.8593 -0.5178
  646MOL0     H87174   1.346   1.090   7.677 -0.0878 -0.0715  4.1721
  646MOL0     H87175   1.346   0.971   7.864 -0.6810 -0.0574 -0.7794
  646MOL0     H87176   1.465   0.852   8.023 -1.4448  1.1237  2.7853
  646MOL0     H87177   1.297   0.810   8.039 -0.6154 -1.6500 -1.9008
  646MOL0     H87178   1.481   0.735   8.216 -0.5641  2.8690 -1.0158
  646MOL0     H87179   1.344   0.621   8.186  0.3769 -0.8713 -0.9106
  646MOL0     H87180   1.617   0.568   8.068 -0.6456  1.8449 -0.6632
  646MOL0     H87181   1.466   0.495   8.027  0.4938 -2.0530  0.7124
  646MOL0     H87182   1.605   0.472   8.297  0.4099 -1.3715  0.4259
  646MOL0     H87183   1.432   0.454   8.283  1.0047  1.1070  1.8315
  646MOL0     H87184   1.640   0.305   8.115 -0.3909 -3.8676  0.1306
  646MOL0     H87185   1.469   0.283   8.105  0.4864  1.2974  0.2913
  646MOL0     H87186   1.649   0.221   8.352 -0.7893 -0.7162  1.2398
  646MOL0     H87187   1.473   0.223   8.346  0.3426 -1.8162 -0.1794
  646MOL0     H87188   1.670   0.060   8.167 -0.1801  3.3628  0.0077
  646MOL0     H87189   1.492   0.050   8.152 -0.0745 -0.2317  0.6616
  646MOL0     H87190   1.493  -0.043   8.403  3.3835  1.3359  4.1935
  646MOL0     H87191   1.669  -0.079   8.372  0.1331  0.4716  0.3362
  646MOL0     H87192   1.403   0.600   7.669 -1.0267  0.7314  3.2944
  646MOL0     H87193   1.405   0.723   7.456 -1.3745 -2.0702  0.7548
  646MOL0     H87194   1.213   0.999   7.234  1.6228 -2.3786  1.2661
  646MOL0     H87195   1.131   1.094   7.044  0.0139  0.7207  3.0572
  646MOL0     H87196   0.322   1.716   6.547  0.3991  0.2688 -0.9527
  646MOL0     H87197   0.234   1.570   6.752  0.9431 -2.3199 -1.2437
  646MOL0     H87198   0.387   1.595   7.335 -0.5959 -0.1992 -1.8229
  646MOL0     H87199   0.332   1.450   7.516 -1.2481  2.2029 -1.1995
  646MOL0     H87200   0.189   1.051   7.402 -1.2572 -4.7012  0.6681
  646MOL0     H87201   0.345   1.004   7.464 -0.5576  0.8599 -2.8577
  646MOL0     H87202   0.088   1.076   7.617 -1.0454 -0.5355 -2.2325
  646MOL0     H87203   0.232   1.022   7.683 -1.8694  3.5891  1.6684
  646MOL0     H87204   0.221   0.803   7.545 -1.1503 -0.4458 -1.0998
  646MOL0     H87205   0.098   0.860   7.452 -0.1630 -1.2761 -0.0417
  646MOL0     H87206   0.069   0.822   7.759 -0.4259 -0.6319 -0.3361
  646MOL0     H87207   0.019   0.698   7.641  2.0073 -0.2459  0.2068
  646MOL0     H87208  -0.308   0.951   7.608 -1.6293 -3.2654 -2.9634
  646MOL0     H87209   0.304   1.126   7.228  1.2671 -0.2635 -2.9381
  646MOL0     H87210   0.343   1.291   7.044  4.3544 -2.1148  0.2617
  647MOL0     O87211   6.243   8.182  10.712 -0.4535  0.2412  0.0720
  647MOL0     C87212   6.305   8.128  10.808  0.4211 -0.1423  0.0041
  647MOL0     O87213   6.256   8.131  10.937  0.2966 -0.6126 -0.1197
  647MOL0     C87214   6.126   8.143  10.962  0.8092  0.2588  0.6488
  647MOL0     C87215   6.097   8.189  11.093 -0.5567 -0.5428  0.2393
  647MOL0     C87216   5.967   8.216  11.138  0.4330  0.6556 -0.2636
  647MOL0     C87217   5.856   8.177  11.053  0.4083 -0.2386 -0.2431
  647MOL0     O87218   5.723   8.211  11.098 -0.2637  1.0804  0.8367
  647MOL0     C87219   5.608   8.173  11.019  0.0343 -0.8965 -1.3653
  647MOL0     C87220   5.494   8.254  11.081 -0.0202  0.0209 -0.2216
  647MOL0     C87221   5.359   8.245  11.001  0.9112  0.6055  0.7200
  647MOL0     C87222   5.237   8.241  11.098 -0.9298  0.2944  0.1023
  647MOL0     C87223   5.098   8.230  11.032 -0.6538 -0.1906  0.6409
  647MOL0     C87224   4.983   8.244  11.129  0.6897 -0.1078 -0.2177
  647MOL0     C87225   4.842   8.209  11.056 -0.5808  0.5266  0.0854
  647MOL0     C87226   4.723   8.191  11.148  0.3649 -0.1674 -1.3166
  647MOL0     N87227   4.706   8.313  11.241  0.6449  0.0949  1.0485
  647MOL0     C87228   4.729   8.315  11.364  0.1316 -1.4109  0.0259
  647MOL0     C87229   4.667   8.425  11.418  0.9659  0.9489  0.1689
  647MOL0     C87230   4.686   8.475  11.563 -0.0145  0.6780 -0.2474
  647MOL0     C87231   4.670   8.624  11.592 -0.4289  0.4209  0.3596
  647MOL0     C87232   4.759   8.707  11.503  0.3304 -0.6218 -0.4373
  647MOL0     C87233   4.911   8.670  11.503 -0.3989  0.1738 -0.8485
  647MOL0     O87234   4.970   8.547  11.454 -0.2883  0.7408  0.6664
  647MOL0     C87235   5.109   8.523  11.474  0.1641 -0.5469 -0.3716
  647MOL0     C87236   5.197   8.615  11.518  0.2219  0.3564  0.3220
  647MOL0     C87237   5.329   8.576  11.525 -0.4577 -0.2544 -0.3497
  647MOL0     C87238   5.430   8.684  11.550  0.6954 -1.0828  0.2385
  647MOL0     C87239   5.372   8.443  11.508 -0.3360 -0.3878 -0.5791
  647MOL0     C87240   5.507   8.380  11.543 -0.0814 -0.6348  1.1855
  647MOL0     O87241   5.537   8.270  11.474 -0.4728  0.0792 -0.7235
  647MOL0     C87242   5.666   8.209  11.484 -0.0137  0.3632  0.2410
  647MOL0     C87243   5.682   8.104  11.395  0.5217  0.1713  0.1093
  647MOL0     C87244   5.806   8.039  11.389  0.4706  0.2770 -0.4236
  647MOL0     C87245   5.909   8.058  11.480 -0.3256  0.1486  0.1783
  647MOL0     O87246   6.022   7.970  11.477  0.3200 -0.3179  0.2615
  647MOL0     C87247   6.119   7.974  11.579 -0.3684  0.6193  0.0228
  647MOL0     C87248   6.198   7.851  11.606  0.8695  0.5619  0.1381
  647MOL0     C87249   6.259   7.777  11.485 -0.1676 -0.0718 -0.6149
  647MOL0     C87250   6.364   7.667  11.539  0.1125 -0.1572  1.1863
  647MOL0     C87251   6.357   7.555  11.429  0.4243 -0.1354 -0.5055
  647MOL0     C87252   6.453   7.432  11.454  0.3094  0.3323  0.1942
  647MOL0     C87253   6.452   7.332  11.331  0.0583  0.1869 -0.8049
  647MOL0     C87254   6.532   7.378  11.217 -0.1589  0.3764  0.0251
  647MOL0    Cl87255   6.713   7.370  11.251  0.0231 -0.2177 -0.1268
  647MOL0     C87256   5.902   8.171  11.558  0.0011  0.5769 -0.0946
  647MOL0     C87257   5.784   8.253  11.552 -0.3244  0.5310 -0.6620
  647MOL0     O87258   5.575   8.435  11.627  0.4491  0.1725 -1.0138
  647MOL0     C87259   5.277   8.350  11.467 -0.9163 -0.3078  0.2966
  647MOL0     C87260   5.147   8.395  11.457  0.4341  0.4772  0.4741
  647MOL0     N87261   4.591   8.484  11.317  0.3444  0.0952  0.2199
  647MOL0     N87262   4.630   8.418  11.206 -0.4497 -0.9424  0.1095
  647MOL0     C87263   5.884   8.119  10.928 -0.3876  0.2040 -0.4847
  647MOL0     C87264   6.015   8.110  10.876  0.1790 -1.1213 -0.2858
  647MOL0     C87265   6.434   8.076  10.784 -0.1350 -0.2213  0.5151
  647MOL0     C87266   6.529   8.053  10.885  0.4261 -0.6431  0.2873
  647MOL0     C87267   6.660   8.000  10.857  1.0836  0.0330  0.2829
  647MOL0     C87268   6.703   7.983  10.722 -0.5963  0.3619 -0.1974
  647MOL0     O87269   6.837   7.956  10.699 -0.0408 -0.1059  0.1617
  647MOL0     C87270   6.893   8.023  10.583 -0.0144  0.6390  0.6689
  647MOL0     C87271   7.046   8.032  10.581  1.1412  0.6114 -0.0140
  647MOL0     C87272   7.096   7.908  10.496  0.1093 -0.6451 -0.8330
  647MOL0     C87273   7.239   7.871  10.527  0.2220  0.8625  0.1942
  647MOL0     C87274   7.352   7.946  10.464 -0.6655  0.0884  0.2335
  647MOL0     C87275   7.464   7.989  10.425  0.4570  0.4411  0.1451
  647MOL0     C87276   6.609   7.996  10.623 -0.3580  0.4468 -0.4589
  647MOL0     C87277   6.478   8.036  10.656 -0.4566 -0.3219  0.1263
  647MOL0     H87278   6.178   8.214  11.161 -1.6435 -0.1997  1.4588
  647MOL0     H87279   5.955   8.257  11.238 -0.8330 -0.6890  0.1747
  647MOL0     H87280   5.641   8.211  10.922  4.0608  1.4419  0.5999
  647MOL0     H87281   5.588   8.066  11.013  1.5919 -1.3289  0.1202
  647MOL0     H87282   5.485   8.205  11.179 -0.6102 -2.8782 -1.5934
  647MOL0     H87283   5.528   8.358  11.087 -1.6174  0.6510 -1.4348
  647MOL0     H87284   5.343   8.324  10.927  0.1068 -1.6223 -1.6677
  647MOL0     H87285   5.345   8.155  10.939  0.7278  0.3767  1.0904
  647MOL0     H87286   5.246   8.174  11.185 -3.1281  1.3719  1.2489
  647MOL0     H87287   5.243   8.341  11.141  0.0911  0.1244  0.3946
  647MOL0     H87288   5.078   8.297  10.948 -0.4843  2.7524  2.7869
  647MOL0     H87289   5.098   8.129  10.988  0.6217  0.3649 -0.7132
  647MOL0     H87290   4.991   8.177  11.215 -0.0222 -0.7042 -0.6026
  647MOL0     H87291   4.974   8.347  11.165 -1.0261  0.4353 -2.0482
  647MOL0     H87292   4.823   8.289  10.983 -3.4406  0.8375  1.0613
  647MOL0     H87293   4.851   8.111  11.009  0.1744  0.9065 -0.6005
  647MOL0     H87294   4.749   8.108  11.213  2.9043  0.6442 -1.1908
  647MOL0     H87295   4.632   8.160  11.097  0.6264 -1.9716 -0.7283
  647MOL0     H87296   4.781   8.227  11.400 -1.7663 -4.3766 -3.8580
  647MOL0     H87297   4.614   8.414  11.620 -0.6654  0.4510 -1.2762
  647MOL0     H87298   4.782   8.428  11.584 -0.9943 -0.2150  2.7511
  647MOL0     H87299   4.706   8.634  11.695  4.3319 -0.1627 -0.9708
  647MOL0     H87300   4.565   8.651  11.599 -0.9987 -1.8231  1.6154
  647MOL0     H87301   4.759   8.812  11.533  1.6969 -0.5179 -0.7359
  647MOL0     H87302   4.723   8.704  11.400  2.0533 -2.9313 -1.0684
  647MOL0     H87303   4.947   8.671  11.606 -0.7096  1.7343 -0.7284
  647MOL0     H87304   4.952   8.750  11.440 -0.6620  0.7481 -0.3029
  647MOL0     H87305   5.164   8.716  11.543 -1.5837 -0.2265  0.4644
  647MOL0     H87306   5.448   8.695  11.657  1.4286  1.3290 -0.0847
  647MOL0     H87307   5.519   8.644  11.500 -1.4843 -0.9556 -4.2813
  647MOL0     H87308   5.402   8.780  11.505  1.4178  0.1860  2.3897
  647MOL0     H87309   5.600   8.070  11.332 -0.2110 -2.9099  2.4814
  647MOL0     H87310   5.806   7.946  11.333  0.8016 -0.3884  0.6539
  647MOL0     H87311   6.194   8.048  11.551  4.1390 -2.8456  1.8513
  647MOL0     H87312   6.072   7.998  11.675 -0.0932 -0.2074  0.3683
  647MOL0     H87313   6.281   7.867  11.676 -0.7284 -2.4809  3.0300
  647MOL0     H87314   6.124   7.784  11.651  2.1137 -0.8599  0.1454
  647MOL0     H87315   6.303   7.854  11.421  1.6393 -0.8067 -0.3027
  647MOL0     H87316   6.181   7.733  11.421 -0.6200 -0.4912  0.2165
  647MOL0     H87317   6.466   7.705  11.551  0.3988 -0.4857 -0.0335
  647MOL0     H87318   6.326   7.631  11.635 -5.8272  0.5679 -0.5136
  647MOL0     H87319   6.382   7.610  11.337 -4.0714 -1.7604 -3.0488
  647MOL0     H87320   6.259   7.513  11.406  0.1961 -0.2733  0.6862
  647MOL0     H87321   6.555   7.470  11.465  1.3355 -2.2371  0.3175
  647MOL0     H87322   6.421   7.378  11.544 -1.4042  0.8252 -0.0894
  647MOL0     H87323   6.349   7.297  11.317  0.5331 -1.2010 -0.9832
  647MOL0     H87324   6.507   7.246  11.371  0.8552  0.8079 -0.5397
  647MOL0     H87325   6.501   7.477  11.180 -0.6439  0.4841  0.6918
  647MOL0     H87326   6.523   7.307  11.134 -2.2901  1.3865 -0.6804
  647MOL0     H87327   5.985   8.209  11.618  0.4565 -1.9377  1.0233
  647MOL0     H87328   5.784   8.350  11.601 -0.6271  0.7975 -1.1830
  647MOL0     H87329   5.294   8.243  11.479 -1.8290 -0.4198  0.6920
  647MOL0     H87330   5.080   8.319  11.418  1.6624  0.3304 -1.5141
  647MOL0     H87331   5.806   8.081  10.863 -2.1130  2.0057  0.4216
  647MOL0     H87332   6.031   8.080  10.772  0.5037  1.8812 -1.1838
  647MOL0     H87333   6.497   8.067  10.987 -2.9861  1.0113 -0.8818
  647MOL0     H87334   6.733   7.996  10.937  0.5536 -3.6200  0.7228
  647MOL0     H87335   6.849   7.989  10.489 -1.3872 -1.0931  1.8694
  647MOL0     H87336   6.869   8.129  10.593  0.0924  0.9596 -1.9301
  647MOL0     H87337   7.085   8.041  10.683  1.7132 -0.5230 -0.1142
  647MOL0     H87338   7.081   8.121  10.528 -0.7299  1.0785 -0.5287
  647MOL0     H87339   7.080   7.929  10.390  0.1904 -0.3363 -0.7861
  647MOL0     H87340   7.036   7.820  10.521  2.5305 -1.9391  0.8769
  647MOL0     H87341   7.241   7.771  10.482 -2.6444  1.3103 -1.1436
  647MOL0     H87342   7.242   7.872  10.636 -2.1134  4.3878  0.4073
  647MOL0     H87343   7.557   8.025  10.385  1.8239 -1.5493  1.3735
  647MOL0     H87344   6.634   7.995  10.517  0.1019  0.8085 -0.3543
  647MOL0     H87345   6.412   8.045  10.570  0.3670 -0.1339 -0.5043
  648MOL0     O87346   1.883   7.647   7.813 -0.3264 -0.7828 -0.5134
  648MOL0     C87347   1.985   7.583   7.764  0.9633 -0.1041  0.3553
  648MOL0     O87348   1.988   7.452   7.724  0.1308 -0.0504  0.1887
  648MOL0     C87349   1.882   7.363   7.744  0.6402  0.5567  0.3172
  648MOL0     C87350   1.781   7.370   7.848 -0.3670 -1.0527  0.5075
  648MOL0     C87351   1.664   7.290   7.840 -0.2447  0.6250 -0.2295
  648MOL0     C87352   1.640   7.204   7.729 -0.3218 -0.3732 -0.0480
  648MOL0     O87353   1.524   7.136   7.725 -0.2380  0.2374 -0.4358
  648MOL0     C87354   1.434   7.147   7.612  0.4374 -0.0963  0.8381
  648MOL0     C87355   1.294   7.094   7.641 -0.8857 -0.6163 -0.5593
  648MOL0     C87356   1.304   6.953   7.703 -0.2609  0.7931  0.9163
  648MOL0     C87357   1.166   6.901   7.723 -0.2090  0.2425  0.4778
  648MOL0     C87358   1.168   6.754   7.774  0.1613 -0.3948 -0.0389
  648MOL0     C87359   1.049   6.718   7.864 -0.1011  0.4376  0.6138
  648MOL0     C87360   1.019   6.567   7.866  0.0071 -0.2757  0.3381
  648MOL0     C87361   0.906   6.535   7.956  0.2206  1.2210  0.4346
  648MOL0     N87362   0.783   6.496   7.883  0.4703  0.5439  0.4827
  648MOL0     C87363   0.711   6.564   7.788  0.1067  0.8245  0.0755
  648MOL0     C87364   0.622   6.469   7.738 -0.1004 -0.0304 -0.4604
  648MOL0     C87365   0.529   6.494   7.625 -0.5747 -0.2250  0.0974
  648MOL0     C87366   0.381   6.505   7.660 -0.2209  0.1825 -0.5307
  648MOL0     C87367   0.291   6.514   7.532  0.9865 -0.3750  0.3337
  648MOL0     C87368   0.146   6.478   7.551 -0.3229  0.2189 -0.2237
  648MOL0     O87369   0.069   6.582   7.599  0.4928 -0.7475  0.1659
  648MOL0     C87370  -0.068   6.564   7.582  0.0855  0.6320 -0.7240
  648MOL0     C87371  -0.156   6.670   7.593 -0.0473  0.0608  0.1027
  648MOL0     C87372  -0.295   6.649   7.585 -0.1679 -0.2790 -0.0039
  648MOL0     C87373  -0.389   6.769   7.595 -1.5577 -0.0373  0.7398
  648MOL0     C87374  -0.353   6.518   7.568 -0.3039 -0.2234  0.1245
  648MOL0     C87375  -0.495   6.476   7.574 -0.6536 -0.5083 -0.3903
  648MOL0     O87376  -0.584   6.551   7.643  0.2525 -0.1236  0.2776
  648MOL0     C87377  -0.718   6.532   7.628 -0.4815  0.2800 -0.6541
  648MOL0     C87378  -0.784   6.413   7.608 -0.4396  0.5323 -1.4367
  648MOL0     C87379  -0.922   6.413   7.587 -0.0424 -0.3260  1.0769
  648MOL0     C87380  -0.993   6.536   7.596  0.7228 -0.0991  0.0035
  648MOL0     O87381  -1.126   6.539   7.600  0.2113 -0.2710 -0.4759
  648MOL0     C87382  -1.197   6.426   7.570  0.0140  0.0252 -0.2819
  648MOL0     C87383  -1.349   6.445   7.591  0.1005 -0.3956 -0.0265
  648MOL0     C87384  -1.400   6.527   7.472  0.3467  0.8465  0.0285
  648MOL0     C87385  -1.553   6.554   7.472  0.3993  0.2053  0.3178
  648MOL0     C87386  -1.601   6.671   7.378  0.3578 -0.4269  0.4711
  648MOL0     C87387  -1.754   6.676   7.363 -0.5816  0.0470 -0.1280
  648MOL0     C87388  -1.818   6.712   7.495  0.1639  0.5404  0.5850
  648MOL0     C87389  -1.971   6.737   7.457 -1.0353  0.7931 -1.2640
  648MOL0    Cl87390  -2.048   6.603   7.376  0.7118 -0.1214  0.0904
  648MOL0     C87391  -0.926   6.653   7.623 -0.4707 -0.2427  0.5848
  648MOL0     C87392  -0.784   6.653   7.637 -0.0683 -0.3724 -1.1500
  648MOL0     O87393  -0.526   6.393   7.496  0.2160  0.4270  0.0606
  648MOL0     C87394  -0.267   6.417   7.563 -0.0298 -0.0039 -0.9776
  648MOL0     C87395  -0.127   6.441   7.556  0.3662  0.0488 -0.7190
  648MOL0     N87396   0.645   6.348   7.802 -0.3528 -0.9738  0.0645
  648MOL0     N87397   0.732   6.367   7.889  0.4437 -0.2672  0.5253
  648MOL0     C87398   1.743   7.199   7.633  0.4944 -0.1055  0.4761
  648MOL0     C87399   1.858   7.273   7.643  0.3135  0.1189  0.5682
  648MOL0     C87400   2.104   7.660   7.740  0.5972  0.2983  0.5017
  648MOL0     C87401   2.127   7.773   7.813  0.2785 -0.4041  0.6415
  648MOL0     C87402   2.234   7.865   7.801  0.2520  0.3695 -0.9424
  648MOL0     C87403   2.329   7.824   7.708 -0.0531  0.2967  1.3111
  648MOL0     O87404   2.440   7.899   7.698  0.7181 -0.0404  0.2067
  648MOL0     C87405   2.503   7.913   7.567  0.9426  0.0343  0.0005
  648MOL0     C87406   2.588   8.039   7.557 -0.6573  0.0477 -0.2330
  648MOL0     C87407   2.729   8.002   7.619 -0.1239 -0.4700 -0.6665
  648MOL0     C87408   2.777   8.088   7.733 -0.1346  0.2868 -0.1224
  648MOL0     C87409   2.884   8.045   7.828  0.3862  0.7388  0.0083
  648MOL0     C87410   2.970   8.013   7.903 -0.2797 -0.6154 -0.8120
  648MOL0     C87411   2.312   7.697   7.632 -0.2903 -0.5262 -0.1578
  648MOL0     C87412   2.201   7.617   7.649 -0.2110 -0.3331  0.1019
  648MOL0     H87413   1.790   7.449   7.923 -2.7045 -1.1238  0.9396
  648MOL0     H87414   1.581   7.303   7.910 -1.1757  0.1638 -1.2146
  648MOL0     H87415   1.415   7.253   7.590  1.3148  0.4677  2.5924
  648MOL0     H87416   1.472   7.100   7.521 -0.5287  0.1912  0.2761
  648MOL0     H87417   1.245   7.161   7.713  0.8727  0.0805  0.0233
  648MOL0     H87418   1.235   7.093   7.549 -1.1947 -3.1086 -0.4131
  648MOL0     H87419   1.366   6.893   7.636 -0.5735 -1.0256  2.1631
  648MOL0     H87420   1.352   6.964   7.801  1.2237  2.4927  0.0587
  648MOL0     H87421   1.111   6.966   7.792  0.1995  1.4715 -0.3102
  648MOL0     H87422   1.105   6.903   7.632 -2.1468  0.9649  1.7439
  648MOL0     H87423   1.174   6.683   7.691  1.9429 -3.0439  2.1742
  648MOL0     H87424   1.266   6.735   7.817  1.4905 -0.0924 -2.7395
  648MOL0     H87425   1.054   6.753   7.967 -0.9516 -1.7473  1.4466
  648MOL0     H87426   0.955   6.758   7.824  0.9129  1.0085 -1.3517
  648MOL0     H87427   0.991   6.524   7.769  2.2405 -3.4088  0.9239
  648MOL0     H87428   1.109   6.519   7.907 -0.4099 -1.0798  0.3349
  648MOL0     H87429   0.883   6.608   8.035 -1.0198 -1.5736  2.8812
  648MOL0     H87430   0.923   6.446   8.018 -1.4912  0.9363  0.5508
  648MOL0     H87431   0.730   6.662   7.745 -1.8621  1.5990  0.8640
  648MOL0     H87432   0.561   6.591   7.588  2.9325 -1.0897  0.5240
  648MOL0     H87433   0.554   6.418   7.550 -0.4840 -0.2904  0.1934
  648MOL0     H87434   0.361   6.591   7.724  0.3900  0.1772 -0.3247
  648MOL0     H87435   0.346   6.416   7.714 -1.7819  0.6196 -0.7865
  648MOL0     H87436   0.328   6.443   7.457  0.9509  3.2200 -3.4428
  648MOL0     H87437   0.287   6.609   7.478 -0.0191 -0.1869  0.7225
  648MOL0     H87438   0.125   6.391   7.614  0.5602  0.8220  0.9507
  648MOL0     H87439   0.109   6.455   7.450 -3.7260  3.1840  0.1516
  648MOL0     H87440  -0.110   6.768   7.603 -0.8365  0.4155  0.3353
  648MOL0     H87441  -0.489   6.759   7.552 -0.5860  1.0977 -2.0042
  648MOL0     H87442  -0.394   6.788   7.703 -0.5551  0.0673  0.7756
  648MOL0     H87443  -0.351   6.857   7.542 -0.1372 -1.2892 -0.4092
  648MOL0     H87444  -0.723   6.327   7.583 -1.1955  0.3048 -2.6165
  648MOL0     H87445  -0.961   6.312   7.592 -1.6567  0.3299  3.9489
  648MOL0     H87446  -1.176   6.400   7.466  0.6193  0.2478 -0.2234
  648MOL0     H87447  -1.177   6.353   7.648 -2.4691 -1.6199 -1.0810
  648MOL0     H87448  -1.414   6.357   7.588 -0.2302 -0.1146 -2.1135
  648MOL0     H87449  -1.372   6.502   7.682 -1.2679 -1.4288  0.3090
  648MOL0     H87450  -1.362   6.479   7.381  1.9792  0.0713  1.0731
  648MOL0     H87451  -1.359   6.629   7.474  1.0537  0.7268 -3.3602
  648MOL0     H87452  -1.614   6.465   7.450  1.2287 -0.1973 -0.4163
  648MOL0     H87453  -1.569   6.590   7.574  2.6954  1.2927  0.3540
  648MOL0     H87454  -1.560   6.657   7.278 -0.0500 -1.7222  0.4676
  648MOL0     H87455  -1.577   6.769   7.419 -0.6780  0.4384 -0.8850
  648MOL0     H87456  -1.791   6.754   7.296  0.0450  1.1214  0.7490
  648MOL0     H87457  -1.791   6.578   7.331 -0.9118 -0.6635  2.2316
  648MOL0     H87458  -1.776   6.802   7.540  1.2244  0.1699  0.3733
  648MOL0     H87459  -1.808   6.635   7.573  1.5245  0.0816 -0.0039
  648MOL0     H87460  -1.978   6.821   7.387 -2.7185  1.4199 -0.4077
  648MOL0     H87461  -2.023   6.768   7.548  1.6358 -1.0355  1.0839
  648MOL0     H87462  -0.972   6.750   7.613 -1.1757 -0.5321  0.9667
  648MOL0     H87463  -0.730   6.744   7.661  0.5954 -0.6813 -1.4235
  648MOL0     H87464  -0.308   6.317   7.552 -0.6025  0.2302 -1.0327
  648MOL0     H87465  -0.056   6.361   7.535 -0.5789 -0.9267 -0.3356
  648MOL0     H87466   1.731   7.131   7.549  1.9158  1.3400 -0.9813
  648MOL0     H87467   1.929   7.262   7.562 -1.3461  2.5336 -1.3723
  648MOL0     H87468   2.051   7.804   7.884 -0.8382  0.6074 -0.9187
  648MOL0     H87469   2.248   7.955   7.860 -0.6299  2.1425 -3.2526
  648MOL0     H87470   2.552   7.816   7.553 -0.8010 -0.9587  0.5228
  648MOL0     H87471   2.431   7.920   7.485  2.0126  4.0489 -0.8324
  648MOL0     H87472   2.553   8.119   7.623  1.0427  0.4549  0.2393
  648MOL0     H87473   2.601   8.075   7.455  2.7435 -0.5285 -0.1180
  648MOL0     H87474   2.797   8.009   7.533  2.8919  6.0601  1.6190
  648MOL0     H87475   2.728   7.902   7.663  1.0943  0.2396  1.1037
  648MOL0     H87476   2.691   8.105   7.797 -1.6922 -4.2311 -0.6749
  648MOL0     H87477   2.821   8.181   7.696  1.4235  0.3020  1.6130
  648MOL0     H87478   3.047   7.999   7.975 -1.1265  2.3673  0.8570
  648MOL0     H87479   2.387   7.672   7.559  0.8574 -1.0808  1.1665
  648MOL0     H87480   2.187   7.534   7.581  2.3800  0.8500 -2.0519
  649MOL0     O87481   0.840  10.595   8.421 -0.6620  0.9737 -0.5272
  649MOL0     C87482   0.938  10.523   8.447  1.4318  0.2624  0.3012
  649MOL0     O87483   0.936  10.423   8.540  0.2708 -0.1789  0.6417
  649MOL0     C87484   0.814  10.393   8.598 -0.2415  0.6793 -0.1060
  649MOL0     C87485   0.804  10.372   8.743  0.2523 -2.0578  0.9239
  649MOL0     C87486   0.678  10.355   8.800 -0.2611 -0.1355 -0.0260
  649MOL0     C87487   0.567  10.326   8.723  0.1213 -0.2915  0.8367
  649MOL0     O87488   0.433  10.325   8.767 -0.4281  0.0347  0.4345
  649MOL0     C87489   0.404  10.399   8.885  1.4065 -0.4788  0.0134
  649MOL0     C87490   0.262  10.453   8.879  1.4322 -0.7565 -0.3979
  649MOL0     C87491   0.160  10.363   8.965 -0.6034 -1.4843  0.4172
  649MOL0     C87492   0.157  10.217   8.930 -0.3322 -0.5189 -0.5703
  649MOL0     C87493   0.046  10.143   9.003 -0.1610 -0.1998  0.7360
  649MOL0     C87494  -0.090  10.178   8.943  0.0961 -0.3041  0.2469
  649MOL0     C87495  -0.200  10.088   9.000  0.2051  0.2872 -0.2326
  649MOL0     C87496  -0.331  10.115   8.934  1.0972  0.9527 -0.0595
  649MOL0     N87497  -0.451  10.047   8.986 -0.5439  0.1581 -0.0582
  649MOL0     C87498  -0.564  10.003   8.916 -0.3787 -0.1458  0.5897
  649MOL0     C87499  -0.642   9.961   9.013 -0.4786  0.7093  0.6209
  649MOL0     C87500  -0.779   9.904   8.999 -0.3879 -0.0694  0.6180
  649MOL0     C87501  -0.872   9.931   9.121  0.6199 -0.0519  0.4888
  649MOL0     C87502  -1.019   9.883   9.092 -0.2951 -0.1200 -0.1719
  649MOL0     C87503  -1.116   9.926   9.209 -0.8277 -0.1148  0.0004
  649MOL0     O87504  -1.113   9.824   9.315  0.6770 -0.1512  0.1911
  649MOL0     C87505  -1.221   9.798   9.393  0.0789 -0.2572  0.3098
  649MOL0     C87506  -1.221   9.688   9.474 -0.4349 -0.7146  0.3714
  649MOL0     C87507  -1.329   9.663   9.556  0.4516  0.8839 -0.0787
  649MOL0     C87508  -1.315   9.533   9.626  0.4866  1.2044  0.1126
  649MOL0     C87509  -1.446   9.740   9.560  0.1458 -0.3292  0.6221
  649MOL0     C87510  -1.570   9.717   9.637 -0.5371 -0.0040  0.0933
  649MOL0     O87511  -1.666   9.820   9.657 -0.6119  0.2679  0.0235
  649MOL0     C87512  -1.780   9.783   9.718 -0.5246  0.4000 -0.2229
  649MOL0     C87513  -1.808   9.853   9.837  0.8982 -0.6435  0.0625
  649MOL0     C87514  -1.932   9.848   9.887  0.5268 -0.0615 -0.4687
  649MOL0     C87515  -2.033   9.773   9.826  0.2081  0.8640  0.7765
  649MOL0     O87516  -2.156   9.759   9.880 -0.4192 -0.5937  0.4122
  649MOL0     C87517  -2.198   9.859   9.969  1.1861  0.4344 -0.4082
  649MOL0     C87518  -2.354   9.856   9.990  0.1232 -1.2989  0.3759
  649MOL0     C87519  -2.392   9.928  10.118  0.5056  0.0157  0.4768
  649MOL0     C87520  -2.540   9.916  10.150 -0.5672  0.1638  0.8413
  649MOL0     C87521  -2.625  10.022  10.080  0.5710  0.3581  0.1861
  649MOL0     C87522  -2.610  10.166  10.145 -0.3469  0.6764 -0.3105
  649MOL0     C87523  -2.606  10.282  10.045 -0.0332 -0.5669  0.7438
  649MOL0     C87524  -2.750  10.339  10.022 -0.0232 -0.2690 -0.3731
  649MOL0    Cl87525  -2.857  10.223   9.935 -0.3432 -0.2816 -0.1470
  649MOL0     C87526  -2.002   9.700   9.713  0.0540 -0.0455 -0.0127
  649MOL0     C87527  -1.878   9.704   9.660  1.0407 -0.3443  0.1957
  649MOL0     O87528  -1.581   9.601   9.681  0.1741  0.9498  0.1736
  649MOL0     C87529  -1.438   9.861   9.487 -0.3619  0.3469 -0.3179
  649MOL0     C87530  -1.327   9.891   9.400 -0.2457  0.3697 -0.5471
  649MOL0     N87531  -0.580   9.958   9.129 -0.3736 -0.1527  0.0635
  649MOL0     N87532  -0.462  10.005   9.118  0.2055 -0.7515 -0.7891
  649MOL0     C87533   0.585  10.328   8.582  0.2951 -0.1199 -0.8134
  649MOL0     C87534   0.703  10.361   8.523 -0.2982 -0.2092  0.5377
  649MOL0     C87535   1.060  10.542   8.362  0.1764  0.7216 -0.6656
  649MOL0     C87536   1.175  10.471   8.401  0.2740  0.4930  0.5616
  649MOL0     C87537   1.296  10.493   8.333 -0.0438  0.2984 -0.4716
  649MOL0     C87538   1.293  10.580   8.229  0.4749 -0.7123  0.2380
  649MOL0     O87539   1.406  10.611   8.156 -0.0944 -0.5224  0.1300
  649MOL0     C87540   1.490  10.503   8.110 -0.6382 -0.4071  0.1626
  649MOL0     C87541   1.425  10.441   7.987 -0.6178  0.0212 -0.3681
  649MOL0     C87542   1.520  10.356   7.910  0.4039  0.8347  0.6506
  649MOL0     C87543   1.457  10.260   7.807 -0.1430  0.3667 -0.5833
  649MOL0     C87544   1.371  10.330   7.718 -0.0890  0.7012 -0.5490
  649MOL0     C87545   1.284  10.393   7.661  0.5673 -0.1252 -0.4133
  649MOL0     C87546   1.179  10.655   8.193 -0.1702  0.2150 -0.2139
  649MOL0     C87547   1.058  10.629   8.259  0.6509 -0.1019  0.9343
  649MOL0     H87548   0.889  10.396   8.807 -1.4478  0.9473  2.2402
  649MOL0     H87549   0.668  10.366   8.907 -1.6141 -1.6116  0.0427
  649MOL0     H87550   0.417  10.334   8.972  2.6386 -3.1057 -1.9772
  649MOL0     H87551   0.473  10.482   8.903  2.8247 -1.6777  0.3458
  649MOL0     H87552   0.260  10.550   8.930  1.0309 -0.6834 -0.5489
  649MOL0     H87553   0.224  10.462   8.777  1.1677  4.7847 -0.1172
  649MOL0     H87554   0.195  10.376   9.068  0.7019 -1.2610 -0.0360
  649MOL0     H87555   0.061  10.411   8.961  0.5674  1.0150 -1.7176
  649MOL0     H87556   0.139  10.199   8.823  0.3814 -3.8577 -0.2153
  649MOL0     H87557   0.256  10.173   8.941  0.5282  1.7319  1.4819
  649MOL0     H87558   0.070  10.039   8.980 -0.3454 -0.4179  1.5124
  649MOL0     H87559   0.042  10.161   9.111  0.8436  2.9727  0.3514
  649MOL0     H87560  -0.106  10.285   8.962  2.4574 -0.0150  0.8520
  649MOL0     H87561  -0.087  10.168   8.834 -0.1548 -0.7407  0.2785
  649MOL0     H87562  -0.176   9.984   8.980  0.8703  0.1110  1.2960
  649MOL0     H87563  -0.214  10.102   9.108 -1.2478 -1.0636 -0.2171
  649MOL0     H87564  -0.327  10.088   8.828 -1.2562 -1.7834  0.4226
  649MOL0     H87565  -0.350  10.222   8.928 -0.3842  0.7410  0.6012
  649MOL0     H87566  -0.577  10.006   8.808 -0.1074 -1.9331  0.4911
  649MOL0     H87567  -0.819   9.946   8.907 -0.0754 -2.0537 -0.4751
  649MOL0     H87568  -0.768   9.796   8.990 -1.3924 -0.2121  0.9506
  649MOL0     H87569  -0.880  10.040   9.126 -1.1718 -0.2049  1.8096
  649MOL0     H87570  -0.829   9.907   9.218  0.6932 -0.7066  0.2968
  649MOL0     H87571  -1.042   9.777   9.082  0.1330 -0.6780  3.3053
  649MOL0     H87572  -1.057   9.924   8.998 -2.3875  0.8461  1.0121
  649MOL0     H87573  -1.214   9.938   9.161 -0.1238  4.8012 -0.6857
  649MOL0     H87574  -1.083  10.016   9.261  1.7274  0.9359 -3.0996
  649MOL0     H87575  -1.141   9.615   9.464 -0.6700 -0.9546  0.2341
  649MOL0     H87576  -1.341   9.538   9.732  2.9226 -2.7206  1.1055
  649MOL0     H87577  -1.377   9.449   9.592  2.4397 -0.1530 -0.3181
  649MOL0     H87578  -1.210   9.500   9.631  0.4072  0.8833 -0.2503
  649MOL0     H87579  -1.736   9.926   9.872 -0.0074 -0.7251  2.2416
  649MOL0     H87580  -1.959   9.910   9.972 -0.2039 -2.1221  0.8932
  649MOL0     H87581  -2.145   9.836  10.063 -0.7880 -0.1301  0.6087
  649MOL0     H87582  -2.166   9.960   9.942  3.3615 -0.1675 -0.3311
  649MOL0     H87583  -2.400   9.903   9.902  1.4576  0.8400  0.7617
  649MOL0     H87584  -2.396   9.756   9.974  1.0280 -1.2799 -2.9481
  649MOL0     H87585  -2.357  10.031  10.121 -1.8500  0.8633  3.1736
  649MOL0     H87586  -2.349   9.883  10.208 -2.2862 -0.0340  1.8686
  649MOL0     H87587  -2.572   9.817  10.116  0.8403  0.1830 -0.6968
  649MOL0     H87588  -2.554   9.916  10.258  0.5515  0.7427  0.9979
  649MOL0     H87589  -2.731   9.995  10.079  0.6188  0.1600 -1.5816
  649MOL0     H87590  -2.590  10.017   9.976  2.8898  1.9631  0.7996
  649MOL0     H87591  -2.690  10.185  10.217 -0.4243 -2.6561  0.6271
  649MOL0     H87592  -2.520  10.159  10.207 -0.8095 -0.8305  0.2326
  649MOL0     H87593  -2.561  10.269   9.946 -1.3258 -0.5462  0.1385
  649MOL0     H87594  -2.539  10.355  10.092 -2.8921  1.3076  2.2242
  649MOL0     H87595  -2.735  10.429   9.961  0.5460 -1.2376 -1.7181
  649MOL0     H87596  -2.792  10.355  10.122 -1.1147 -6.7243  0.6469
  649MOL0     H87597  -2.085   9.648   9.667 -1.5799  2.7748 -0.4543
  649MOL0     H87598  -1.862   9.656   9.564 -1.6446 -0.6346 -0.1855
  649MOL0     H87599  -1.512   9.939   9.498  0.0560  1.1599 -2.6668
  649MOL0     H87600  -1.325   9.989   9.355  1.3201  1.1456  1.0768
  649MOL0     H87601   0.488  10.318   8.535  0.6232  1.6365 -1.9397
  649MOL0     H87602   0.711  10.372   8.415  0.5636  0.9510  0.6908
  649MOL0     H87603   1.179  10.389   8.471  3.2621 -0.7648 -0.8889
  649MOL0     H87604   1.387  10.444   8.366  0.9654  2.9017  0.8967
  649MOL0     H87605   1.585  10.537   8.068 -1.2613  0.1716 -0.7995
  649MOL0     H87606   1.503  10.422   8.183 -2.9277  0.5172  1.7329
  649MOL0     H87607   1.374  10.510   7.918  0.4021 -1.1111 -2.3539
  649MOL0     H87608   1.352  10.371   8.029  2.5509 -2.8912  0.6590
  649MOL0     H87609   1.563  10.291   7.986  0.6704 -1.0134 -0.9800
  649MOL0     H87610   1.601  10.408   7.859  0.2578 -1.7998 -2.6126
  649MOL0     H87611   1.396  10.184   7.857 -0.0977  1.8537  1.9021
  649MOL0     H87612   1.538  10.215   7.750 -0.3886 -0.8857  0.0361
  649MOL0     H87613   1.203  10.444   7.614 -0.4615 -0.3489  1.0490
  649MOL0     H87614   1.191  10.708   8.099  1.2432 -2.9687 -1.9993
  649MOL0     H87615   0.965  10.671   8.223  0.7668  0.2147  1.0060
  650MOL0     O87616   6.402   4.011   0.793 -0.0334 -0.5732 -0.1246
  650MOL0     C87617   6.523   4.027   0.810 -0.3189  0.0584  0.0101
  650MOL0     O87618   6.593   4.143   0.814  0.0023 -0.6776  0.2193
  650MOL0     C87619   6.530   4.258   0.798  0.6605 -0.0956  0.7902
  650MOL0     C87620   6.397   4.293   0.845 -0.2448 -0.2094 -1.1841
  650MOL0     C87621   6.345   4.424   0.837 -0.4796 -0.0607  0.9151
  650MOL0     C87622   6.415   4.521   0.775  0.2937  0.5507 -0.7287
  650MOL0     O87623   6.368   4.646   0.794 -0.5582 -0.8434  0.0008
  650MOL0     C87624   6.326   4.703   0.667 -0.2034  0.7555 -0.5751
  650MOL0     C87625   6.240   4.827   0.703  0.3257 -0.4553 -0.4923
  650MOL0     C87626   6.103   4.812   0.757  0.3285  0.3776  0.5312
  650MOL0     C87627   6.028   4.949   0.794  0.2237 -0.0705 -0.1759
  650MOL0     C87628   5.912   4.923   0.889 -0.3727  0.1809 -0.5855
  650MOL0     C87629   5.841   5.048   0.940 -0.8200 -0.1683 -0.3727
  650MOL0     C87630   5.712   5.023   1.028 -0.0669  0.3653 -0.5742
  650MOL0     C87631   5.606   4.969   0.933  0.6717  0.6530  0.4566
  650MOL0     N87632   5.488   4.909   1.002 -0.4057 -0.2963 -0.6118
  650MOL0     C87633   5.360   4.913   0.954 -0.6237 -0.9079 -0.3080
  650MOL0     C87634   5.293   4.813   1.016  0.2171  0.9499  0.2500
  650MOL0     C87635   5.159   4.766   0.972 -0.4963 -0.6962 -0.0611
  650MOL0     C87636   5.094   4.672   1.079 -0.2401 -0.4970 -0.4564
  650MOL0     C87637   4.953   4.638   1.035 -0.2983  1.1747 -0.0579
  650MOL0     C87638   4.886   4.539   1.136 -0.1745  0.2842  0.3440
  650MOL0     O87639   4.873   4.608   1.262 -0.0344 -0.0667 -0.3521
  650MOL0     C87640   4.789   4.567   1.361  0.3380 -0.5297 -0.4016
  650MOL0     C87641   4.751   4.437   1.390  0.2251  0.2054  0.3434
  650MOL0     C87642   4.658   4.412   1.490  0.3001  0.4892  0.5298
  650MOL0     C87643   4.607   4.268   1.484 -0.1557  0.3541  0.3685
  650MOL0     C87644   4.611   4.511   1.581  0.1556 -0.7014  0.4753
  650MOL0     C87645   4.514   4.489   1.684  0.8338 -0.0605  0.0183
  650MOL0     O87646   4.415   4.591   1.693 -0.0046  0.3351  0.7222
  650MOL0     C87647   4.320   4.581   1.782 -0.4212 -0.3682 -0.0704
  650MOL0     C87648   4.298   4.692   1.863  0.6302  0.1721  0.5167
  650MOL0     C87649   4.184   4.706   1.941 -1.0023  0.9834  0.2415
  650MOL0     C87650   4.101   4.594   1.952 -0.8792  0.9312  0.8240
  650MOL0     O87651   3.989   4.614   2.032 -0.6053 -0.1371 -0.1119
  650MOL0     C87652   3.890   4.516   2.027  1.2595 -0.1593  0.0754
  650MOL0     C87653   3.792   4.567   2.135  0.0862 -0.3887 -0.7178
  650MOL0     C87654   3.666   4.477   2.133  0.0725  0.6978  0.1124
  650MOL0     C87655   3.693   4.328   2.162 -0.1684 -0.3922  0.1056
  650MOL0     C87656   3.578   4.248   2.225 -0.0792 -0.1293  0.5523
  650MOL0     C87657   3.565   4.271   2.373 -1.2213 -0.2245 -0.8884
  650MOL0     C87658   3.443   4.194   2.425 -0.4052 -0.7948 -0.8598
  650MOL0     C87659   3.421   4.220   2.567  0.9053  0.0685  0.0235
  650MOL0    Cl87660   3.538   4.164   2.673 -0.5148  0.6102 -0.3755
  650MOL0     C87661   4.135   4.475   1.882  0.3343 -0.2745 -0.7768
  650MOL0     C87662   4.234   4.469   1.791 -0.1336  0.4140 -0.6541
  650MOL0     O87663   4.516   4.386   1.754  0.0345 -0.2999 -1.0198
  650MOL0     C87664   4.658   4.635   1.551 -0.2626 -0.8194 -0.9730
  650MOL0     C87665   4.739   4.665   1.440  0.0107  0.6794 -0.4873
  650MOL0     N87666   5.381   4.747   1.099  0.3717  0.9932 -0.5191
  650MOL0     N87667   5.493   4.810   1.094 -0.0540  0.9076  0.3902
  650MOL0     C87668   6.537   4.488   0.727  0.3245 -0.2476  0.7411
  650MOL0     C87669   6.591   4.364   0.732 -0.4676  0.1671  0.3698
  650MOL0     C87670   6.614   3.907   0.816  0.5652 -0.6670  0.3634
  650MOL0     C87671   6.574   3.779   0.771 -0.2654 -0.2325  0.3939
  650MOL0     C87672   6.668   3.679   0.758 -0.5115 -0.1285 -0.2324
  650MOL0     C87673   6.800   3.682   0.804  0.4314  0.1887 -0.1159
  650MOL0     O87674   6.892   3.583   0.774 -0.3256  0.0086  0.7980
  650MOL0     C87675   6.916   3.551   0.636  0.6239 -0.3791 -0.3784
  650MOL0     C87676   7.059   3.518   0.615 -0.3448  0.6562 -0.2014
  650MOL0     C87677   7.119   3.414   0.696 -0.1174 -0.3100 -0.5101
  650MOL0     C87678   7.249   3.348   0.636  0.5870 -1.5116  0.6737
  650MOL0     C87679   7.346   3.448   0.587 -0.3012 -0.1620 -0.3145
  650MOL0     C87680   7.432   3.519   0.538 -0.4526 -0.1806 -0.5800
  650MOL0     C87681   6.835   3.807   0.865 -0.2319 -0.7906  0.5595
  650MOL0     C87682   6.744   3.918   0.870 -0.0784  1.0914 -0.2835
  650MOL0     H87683   6.344   4.211   0.893 -0.1159  0.1476 -0.4144
  650MOL0     H87684   6.260   4.464   0.891 -0.3301  0.6013  0.6709
  650MOL0     H87685   6.416   4.733   0.611 -0.7763  1.2716 -1.2404
  650MOL0     H87686   6.278   4.623   0.610 -0.2559  0.7846 -0.5717
  650MOL0     H87687   6.303   4.883   0.773 -0.2124 -1.3954  0.7873
  650MOL0     H87688   6.230   4.887   0.613 -0.3712 -0.9642 -0.7636
  650MOL0     H87689   6.037   4.766   0.683 -1.7473 -2.1183  3.6774
  650MOL0     H87690   6.101   4.736   0.835 -1.0313  1.2077  1.3440
  650MOL0     H87691   6.095   5.016   0.849  1.3167 -0.9747 -0.3653
  650MOL0     H87692   6.001   4.981   0.694  0.5641 -1.6726 -0.8191
  650MOL0     H87693   5.847   4.857   0.831  0.9629 -1.5195 -0.2078
  650MOL0     H87694   5.960   4.868   0.971 -0.5960 -0.6194 -0.9828
  650MOL0     H87695   5.909   5.107   1.001  2.1380 -3.0540 -0.5910
  650MOL0     H87696   5.810   5.105   0.851 -0.0697 -1.3078 -1.4036
  650MOL0     H87697   5.737   4.961   1.115  0.4237  1.6663  0.2348
  650MOL0     H87698   5.675   5.117   1.069  0.7680  2.0223 -3.3686
  650MOL0     H87699   5.652   4.889   0.874  0.9225  0.2258  1.2158
  650MOL0     H87700   5.569   5.050   0.869  1.7194  1.3635  0.7332
  650MOL0     H87701   5.323   4.963   0.865  0.1169 -0.6797 -0.4992
  650MOL0     H87702   5.098   4.856   0.957 -2.1806 -2.0493 -1.8102
  650MOL0     H87703   5.161   4.706   0.882 -2.2031 -0.2713 -0.4239
  650MOL0     H87704   5.085   4.725   1.174  2.9127  0.0444 -0.3685
  650MOL0     H87705   5.149   4.579   1.094  2.9431  1.3953  0.4404
  650MOL0     H87706   4.954   4.591   0.937 -2.4515  2.4174 -0.7527
  650MOL0     H87707   4.883   4.722   1.030 -0.2329  1.2402  0.1033
  650MOL0     H87708   4.944   4.447   1.150  0.8423  1.1017  1.7420
  650MOL0     H87709   4.789   4.510   1.095  0.1962 -0.7973  0.2008
  650MOL0     H87710   4.799   4.360   1.332  3.0241  3.1174 -1.5338
  650MOL0     H87711   4.598   4.228   1.586 -0.6526  0.1933  0.2624
  650MOL0     H87712   4.504   4.276   1.448 -0.3580  0.3697  0.9319
  650MOL0     H87713   4.676   4.202   1.430 -0.8210  0.2136 -0.3246
  650MOL0     H87714   4.358   4.779   1.839  0.4351  0.7038  1.9120
  650MOL0     H87715   4.155   4.800   1.988 -4.3253  0.0376  0.3820
  650MOL0     H87716   3.842   4.521   1.928  2.3191  1.2140 -0.4081
  650MOL0     H87717   3.923   4.414   2.046 -1.0312 -1.1312 -0.7227
  650MOL0     H87718   3.835   4.552   2.235  0.1767  0.7842 -0.5700
  650MOL0     H87719   3.777   4.675   2.128 -2.2555 -0.5703  0.6220
  650MOL0     H87720   3.618   4.476   2.035  1.3463  1.5953 -0.5369
  650MOL0     H87721   3.593   4.518   2.204  0.0806  1.2126 -0.1749
  650MOL0     H87722   3.706   4.277   2.066  4.2195  0.5013  0.0272
  650MOL0     H87723   3.782   4.320   2.225 -0.7373  0.0857  0.9909
  650MOL0     H87724   3.583   4.141   2.203  0.1595 -0.4729  2.1828
  650MOL0     H87725   3.483   4.265   2.174  0.5714 -3.9247 -2.3776
  650MOL0     H87726   3.652   4.227   2.422 -1.2937  1.0924  0.5063
  650MOL0     H87727   3.566   4.380   2.386 -0.0603 -0.2612 -0.5421
  650MOL0     H87728   3.458   4.089   2.398  3.5293 -0.6766  0.3216
  650MOL0     H87729   3.359   4.239   2.371 -0.2436 -2.2867 -2.4628
  650MOL0     H87730   3.318   4.189   2.584  0.1203  1.8356 -1.1902
  650MOL0     H87731   3.418   4.328   2.584 -2.5926  0.0995 -0.1450
  650MOL0     H87732   4.070   4.389   1.887 -0.7214  0.5504  0.2894
  650MOL0     H87733   4.241   4.381   1.728 -2.4205 -1.3432  1.3515
  650MOL0     H87734   4.627   4.722   1.609  4.9975  0.9459 -0.2933
  650MOL0     H87735   4.761   4.769   1.417 -1.1812  0.4764 -2.8277
  650MOL0     H87736   6.595   4.569   0.683 -0.5622 -0.0884 -0.1762
  650MOL0     H87737   6.690   4.346   0.693 -0.2075  2.5050 -0.1943
  650MOL0     H87738   6.470   3.755   0.754  0.3594 -2.1050 -1.1401
  650MOL0     H87739   6.643   3.591   0.701  0.9563  0.4056 -1.7737
  650MOL0     H87740   6.842   3.479   0.598 -0.5668 -0.0410  1.1705
  650MOL0     H87741   6.901   3.643   0.579 -0.3723  0.2561  0.8545
  650MOL0     H87742   7.121   3.608   0.616  1.2364 -0.3665 -1.3026
  650MOL0     H87743   7.059   3.481   0.512 -0.0200 -0.4601  0.1841
  650MOL0     H87744   7.044   3.342   0.730 -1.5565  1.4056  0.1164
  650MOL0     H87745   7.148   3.454   0.794  2.6715 -0.6502 -1.1222
  650MOL0     H87746   7.228   3.269   0.563  0.4464 -0.5615 -0.3443
  650MOL0     H87747   7.314   3.300   0.710 -0.3285  1.8630  3.9946
  650MOL0     H87748   7.509   3.579   0.493 -0.1392 -1.7756 -2.2931
  650MOL0     H87749   6.941   3.814   0.887 -0.2381  0.0475  0.3723
  650MOL0     H87750   6.795   4.003   0.914  0.4708 -0.7321  2.8556
  651MOL0     O87751  10.866   6.597   5.570 -0.6368 -0.0731 -0.1781
  651MOL0     C87752  10.953   6.514   5.587 -0.3989  1.0320  0.1401
  651MOL0     O87753  10.937   6.374   5.603  0.3422  0.3404 -0.5681
  651MOL0     C87754  10.832   6.305   5.548  0.8188 -0.4122  0.1816
  651MOL0     C87755  10.817   6.174   5.590  0.2441  0.3631 -0.4604
  651MOL0     C87756  10.710   6.095   5.545  0.2329  0.4114 -0.0623
  651MOL0     C87757  10.639   6.138   5.440 -0.5510 -1.1901  1.3303
  651MOL0     O87758  10.557   6.045   5.382  0.3287 -0.7843 -0.4750
  651MOL0     C87759  10.512   6.059   5.242 -0.2125  0.9910  0.1026
  651MOL0     C87760  10.401   5.958   5.228  0.2240  0.6560  0.6944
  651MOL0     C87761  10.311   5.992   5.106 -0.2470  0.4524  0.0972
  651MOL0     C87762  10.173   5.905   5.112 -0.3218 -0.1804 -0.4241
  651MOL0     C87763  10.105   5.907   4.973 -0.2065 -0.3411 -0.6843
  651MOL0     C87764   9.956   5.883   4.985 -0.1157 -0.0689  0.0437
  651MOL0     C87765   9.885   5.865   4.848 -0.7328  0.4121  0.6509
  651MOL0     C87766   9.734   5.840   4.872 -0.4476 -0.6873 -0.3067
  651MOL0     N87767   9.653   5.837   4.749 -0.2332  0.8271  0.8656
  651MOL0     C87768   9.623   5.722   4.676  0.8577  0.7512 -0.0651
  651MOL0     C87769   9.550   5.774   4.573  0.4741  1.2137  0.0502
  651MOL0     C87770   9.503   5.698   4.450 -0.1856 -0.8437  1.0443
  651MOL0     C87771   9.354   5.667   4.450  0.6523 -0.3013  0.3950
  651MOL0     C87772   9.320   5.510   4.450  0.7318 -0.2108  0.7710
  651MOL0     C87773   9.333   5.447   4.316  0.4587  0.0010 -0.6916
  651MOL0     O87774   9.203   5.431   4.261  0.1689 -0.1643 -0.5042
  651MOL0     C87775   9.139   5.538   4.195 -0.4027  1.0314  0.6040
  651MOL0     C87776   9.201   5.658   4.140 -0.3669 -0.1213 -0.7379
  651MOL0     C87777   9.122   5.764   4.085 -0.7016  0.5801  0.2760
  651MOL0     C87778   9.189   5.885   4.033  0.3533 -0.2468 -0.9568
  651MOL0     C87779   8.997   5.730   4.037  0.1059  0.5244  0.4343
  651MOL0     C87780   8.927   5.810   3.946  0.8758  0.5716  0.1309
  651MOL0     O87781   8.978   5.833   3.823 -0.3698 -0.3142 -0.5343
  651MOL0     C87782   8.910   5.925   3.748  0.0894  0.2937  0.0181
  651MOL0     C87783   8.961   6.047   3.724  0.6208 -0.5037  0.7543
  651MOL0     C87784   8.898   6.134   3.635 -0.3808  0.5502  1.1317
  651MOL0     C87785   8.787   6.086   3.563 -0.5721  1.0553  0.2143
  651MOL0     O87786   8.741   6.167   3.458 -0.2628  0.2424  0.3932
  651MOL0     C87787   8.766   6.116   3.327 -0.8567 -0.5190 -0.1757
  651MOL0     C87788   8.866   6.193   3.253 -0.0957  0.6358 -0.3576
  651MOL0     C87789   9.009   6.173   3.297 -0.0012  0.0997 -0.0848
  651MOL0     C87790   9.081   6.035   3.309 -0.9216  0.2977  0.5622
  651MOL0     C87791   9.219   6.057   3.371 -0.0530  0.3277  0.1423
  651MOL0     C87792   9.287   5.929   3.425 -0.3966 -0.0121  0.2447
  651MOL0     C87793   9.210   5.865   3.541  0.1173  0.5374 -0.3536
  651MOL0     C87794   9.288   5.746   3.607 -0.0967 -0.7361  0.2918
  651MOL0    Cl87795   9.455   5.784   3.661  0.2129  0.0634 -0.5446
  651MOL0     C87796   8.723   5.970   3.607  0.4302  0.6266 -0.2483
  651MOL0     C87797   8.785   5.890   3.697  0.6834  0.1847  0.0478
  651MOL0     O87798   8.810   5.841   3.983 -0.1094 -0.2794  1.1256
  651MOL0     C87799   8.936   5.614   4.093  0.3167 -0.2590 -0.0559
  651MOL0     C87800   9.003   5.523   4.165 -0.4676  0.2583 -0.2459
  651MOL0     N87801   9.527   5.908   4.589 -0.1400 -0.2178 -0.2874
  651MOL0     N87802   9.604   5.949   4.687 -0.2451 -0.0132 -0.0019
  651MOL0     C87803  10.653   6.268   5.388 -0.7057  0.8777 -0.4143
  651MOL0     C87804  10.740   6.355   5.448 -0.1503 -0.1703  0.1111
  651MOL0     C87805  11.081   6.576   5.614 -0.8915  0.9804 -0.1811
  651MOL0     C87806  11.199   6.500   5.641 -0.3745  0.6018 -0.0547
  651MOL0     C87807  11.324   6.560   5.656 -0.0127  0.0738  0.7070
  651MOL0     C87808  11.339   6.698   5.638  0.4242  0.4960  0.5582
  651MOL0     O87809  11.459   6.771   5.656 -0.0642  0.5382  0.7585
  651MOL0     C87810  11.573   6.697   5.707 -0.0363 -0.5089  0.0916
  651MOL0     C87811  11.699   6.781   5.713  0.0531  1.5952  0.4330
  651MOL0     C87812  11.683   6.911   5.795 -0.1729  0.5147  0.1517
  651MOL0     C87813  11.611   7.026   5.723  0.1655  0.8140 -0.9335
  651MOL0     C87814  11.592   7.127   5.825 -0.6229  0.1468  0.1451
  651MOL0     C87815  11.564   7.210   5.908  0.9525  0.2421  0.2169
  651MOL0     C87816  11.224   6.775   5.609 -0.2086  0.6706  0.6025
  651MOL0     C87817  11.096   6.716   5.595 -0.0219  0.2622 -1.3982
  651MOL0     H87818  10.860   6.123   5.676 -3.1978 -0.4981  0.9052
  651MOL0     H87819  10.699   5.993   5.580 -0.3881  0.1368 -1.0183
  651MOL0     H87820  10.473   6.160   5.223 -0.0179  1.2734  1.1713
  651MOL0     H87821  10.597   6.041   5.175 -0.0689 -0.3903  0.6305
  651MOL0     H87822  10.452   5.862   5.218 -0.0477  0.7111 -2.5956
  651MOL0     H87823  10.341   5.967   5.318  0.2143  1.3183  0.6262
  651MOL0     H87824  10.294   6.100   5.099  1.6812  0.7064 -2.1298
  651MOL0     H87825  10.366   5.958   5.017  3.7829  0.9511  2.1508
  651MOL0     H87826  10.189   5.799   5.133  0.5220  0.2861  1.4812
  651MOL0     H87827  10.100   5.930   5.190 -2.3122 -2.8449 -1.2850
  651MOL0     H87828  10.111   6.004   4.921  0.5295 -1.0020 -1.8797
  651MOL0     H87829  10.152   5.825   4.919  4.0670  1.1334  0.4112
  651MOL0     H87830   9.944   5.786   5.035  1.2446 -1.9036 -2.8675
  651MOL0     H87831   9.904   5.967   5.032  0.6662  0.6033 -0.2644
  651MOL0     H87832   9.901   5.959   4.794  0.6123  0.5169  1.2010
  651MOL0     H87833   9.926   5.788   4.783 -0.7666  2.1627 -1.5641
  651MOL0     H87834   9.692   5.917   4.938 -3.6667 -1.0954 -1.6921
  651MOL0     H87835   9.718   5.749   4.931 -3.7228  0.7073  1.1925
  651MOL0     H87836   9.667   5.623   4.684 -0.2494  0.3650  1.7712
  651MOL0     H87837   9.512   5.776   4.375 -2.1998  1.9256  3.4772
  651MOL0     H87838   9.570   5.614   4.426  0.5117  0.0288 -0.1580
  651MOL0     H87839   9.310   5.725   4.368  1.6426  2.6814  1.8137
  651MOL0     H87840   9.318   5.709   4.545  2.1896  1.3802  0.2954
  651MOL0     H87841   9.218   5.493   4.488 -0.4411  1.7490 -1.2620
  651MOL0     H87842   9.386   5.466   4.525 -1.9932 -1.3279  2.6751
  651MOL0     H87843   9.384   5.351   4.328 -1.9901 -1.0160  3.2069
  651MOL0     H87844   9.387   5.514   4.249  0.2934  2.5036  1.5332
  651MOL0     H87845   9.307   5.665   4.164 -0.6545 -1.9914  1.5123
  651MOL0     H87846   9.116   5.965   4.038  0.8384  0.3021 -2.1139
  651MOL0     H87847   9.260   5.920   4.108 -2.5405  3.3350  0.3504
  651MOL0     H87848   9.236   5.869   3.935  2.1579  1.0123 -0.3454
  651MOL0     H87849   9.048   6.090   3.772  0.3719  0.5637  0.2774
  651MOL0     H87850   8.934   6.237   3.629 -2.2867  1.2022  0.3099
  651MOL0     H87851   8.799   6.012   3.321 -0.2561 -0.4208  1.1839
  651MOL0     H87852   8.669   6.112   3.275 -0.7726 -0.5532 -0.3320
  651MOL0     H87853   8.855   6.172   3.146  4.7586 -0.2695 -0.9084
  651MOL0     H87854   8.845   6.299   3.276  1.4166  1.0209 -0.6686
  651MOL0     H87855   9.020   6.230   3.390 -0.1852 -0.3252  0.1990
  651MOL0     H87856   9.068   6.231   3.225  4.4732  1.4113  4.0840
  651MOL0     H87857   9.022   5.976   3.380  2.4009 -2.4724  1.2860
  651MOL0     H87858   9.089   5.980   3.214  0.3244  1.7013 -0.2019
  651MOL0     H87859   9.215   6.133   3.449 -0.2795 -0.3354  0.7865
  651MOL0     H87860   9.283   6.107   3.297  0.6176  1.0447  1.1794
  651MOL0     H87861   9.297   5.850   3.349 -2.5863  0.2805 -0.4182
  651MOL0     H87862   9.386   5.958   3.461  0.2395 -2.9091  1.1363
  651MOL0     H87863   9.115   5.821   3.508  1.9396 -3.8484 -0.3754
  651MOL0     H87864   9.191   5.938   3.620  0.4306  0.5095 -0.2514
  651MOL0     H87865   9.299   5.668   3.531 -1.0669  1.4644 -2.2386
  651MOL0     H87866   9.220   5.709   3.684 -0.6497 -2.6067 -1.0284
  651MOL0     H87867   8.631   5.942   3.557  0.8638  2.4669 -2.2100
  651MOL0     H87868   8.762   5.787   3.723 -0.6230  0.8848  1.9507
  651MOL0     H87869   8.829   5.598   4.087  0.1700  0.4261  0.5859
  651MOL0     H87870   8.950   5.435   4.201  0.6901  0.1893  1.4254
  651MOL0     H87871  10.601   6.303   5.299 -1.4500  2.0992  0.4800
  651MOL0     H87872  10.767   6.452   5.407  1.8454 -1.2142 -1.1742
  651MOL0     H87873  11.194   6.394   5.660 -0.9506  0.5248 -0.6176
  651MOL0     H87874  11.409   6.498   5.685  0.3496 -0.2401 -0.8947
  651MOL0     H87875  11.553   6.645   5.801  0.9247 -3.6901 -1.3125
  651MOL0     H87876  11.595   6.617   5.636  3.3377 -0.8226  1.3075
  651MOL0     H87877  11.716   6.808   5.608 -0.9330 -1.5159 -0.6275
  651MOL0     H87878  11.782   6.719   5.748 -0.6607  0.6534  0.5075
  651MOL0     H87879  11.779   6.936   5.840 -0.0548 -2.0549  1.5241
  651MOL0     H87880  11.620   6.892   5.882 -0.9306  1.0916 -0.2612
  651MOL0     H87881  11.516   6.985   5.687  0.4644 -2.1154  1.2425
  651MOL0     H87882  11.674   7.063   5.642 -1.0527 -2.0025 -3.3775
  651MOL0     H87883  11.534   7.286   5.977  1.2173 -0.4449  1.1030
  651MOL0     H87884  11.239   6.882   5.605  0.3906  0.5656 -0.2074
  651MOL0     H87885  11.013   6.785   5.579  0.4791  0.5980 -2.7513
  652MOL0     O87886   1.669   2.304   8.965  0.6137  0.2204  0.0964
  652MOL0     C87887   1.740   2.389   9.012  0.2337  0.1148 -0.4639
  652MOL0     O87888   1.695   2.500   9.078 -0.4197  0.1105  0.2563
  652MOL0     C87889   1.576   2.492   9.150  0.0988  0.0507 -0.6953
  652MOL0     C87890   1.546   2.391   9.245 -0.7510  0.3732 -0.9906
  652MOL0     C87891   1.416   2.376   9.301 -0.2116 -0.4431  0.2075
  652MOL0     C87892   1.323   2.475   9.273  1.1737 -0.3237 -0.4060
  652MOL0     O87893   1.195   2.450   9.322  0.4043 -0.1680 -0.0746
  652MOL0     C87894   1.081   2.516   9.262 -0.1966  0.7540  0.6398
  652MOL0     C87895   1.026   2.631   9.337 -1.0751 -0.1006  0.1806
  652MOL0     C87896   0.947   2.610   9.466 -0.3486 -0.0662 -0.2914
  652MOL0     C87897   0.914   2.745   9.523  0.2994  1.0177  0.1250
  652MOL0     C87898   0.863   2.736   9.667  1.0074  0.1497  1.0196
  652MOL0     C87899   0.732   2.656   9.673  0.0729 -0.2085  0.5221
  652MOL0     C87900   0.685   2.650   9.820 -0.3544  0.5470  0.1620
  652MOL0     C87901   0.591   2.528   9.850 -0.5394  0.7234  1.2980
  652MOL0     N87902   0.481   2.529   9.755 -0.4179 -0.8565 -0.2635
  652MOL0     C87903   0.440   2.429   9.676  0.8018 -0.4802 -0.5058
  652MOL0     C87904   0.322   2.481   9.613 -0.4840 -0.1378 -0.7543
  652MOL0     C87905   0.238   2.397   9.528 -0.0670  0.6672 -0.0809
  652MOL0     C87906   0.126   2.463   9.454 -0.8275 -0.0116  0.0759
  652MOL0     C87907   0.079   2.378   9.331  1.0527 -0.2221  0.6572
  652MOL0     C87908  -0.045   2.433   9.270 -0.0538  0.1203  0.1867
  652MOL0     O87909  -0.062   2.344   9.161 -0.5394 -0.3972  0.3564
  652MOL0     C87910  -0.192   2.334   9.102  0.5911 -0.2571  0.2989
  652MOL0     C87911  -0.211   2.238   8.999 -0.2278  0.6606 -0.2711
  652MOL0     C87912  -0.336   2.219   8.936  0.1065 -0.0750  0.6110
  652MOL0     C87913  -0.353   2.112   8.823 -0.4147 -0.0459  0.4663
  652MOL0     C87914  -0.440   2.312   8.963 -0.2732  0.8393 -0.7011
  652MOL0     C87915  -0.576   2.308   8.905 -0.0975 -0.6327  0.4076
  652MOL0     O87916  -0.639   2.184   8.896 -0.0360  0.7846 -0.3709
  652MOL0     C87917  -0.747   2.178   8.808 -1.2528 -0.5311 -0.7386
  652MOL0     C87918  -0.866   2.151   8.868  0.8493 -0.0341 -0.3089
  652MOL0     C87919  -0.979   2.137   8.797  0.3598  0.4035  0.8617
  652MOL0     C87920  -0.977   2.163   8.663  0.7479  0.8563  0.0269
  652MOL0     O87921  -1.094   2.174   8.589  0.0125 -0.6360 -0.2939
  652MOL0     C87922  -1.199   2.255   8.647  0.3653  0.3349  0.7610
  652MOL0     C87923  -1.291   2.315   8.544 -0.3397  0.6742 -0.8101
  652MOL0     C87924  -1.366   2.199   8.475 -0.0341 -0.8786 -0.1095
  652MOL0     C87925  -1.445   2.261   8.360 -0.2329 -0.2261 -0.5791
  652MOL0     C87926  -1.545   2.156   8.306  0.0418  0.0158 -2.0368
  652MOL0     C87927  -1.543   2.153   8.157 -0.5233  0.3237  0.5438
  652MOL0     C87928  -1.653   2.066   8.098 -0.5364  0.1261  0.1528
  652MOL0     C87929  -1.611   1.946   8.006 -0.5688  0.3455 -0.1484
  652MOL0    Cl87930  -1.497   1.841   8.099  0.1481 -0.1020 -0.6694
  652MOL0     C87931  -0.860   2.195   8.595  0.5019  0.1645  0.8179
  652MOL0     C87932  -0.742   2.198   8.670  0.1053  0.2125 -0.6264
  652MOL0     O87933  -0.620   2.417   8.876  0.3828 -0.7466  0.3651
  652MOL0     C87934  -0.413   2.415   9.056 -0.0389  0.1182  0.7422
  652MOL0     C87935  -0.287   2.435   9.123 -0.2096 -0.6589 -0.4665
  652MOL0     N87936   0.301   2.610   9.654  0.4775  0.1391 -0.0521
  652MOL0     N87937   0.394   2.638   9.739 -0.3479 -0.0131 -0.6009
  652MOL0     C87938   1.359   2.582   9.185  0.6315  0.3351 -0.0545
  652MOL0     C87939   1.482   2.594   9.123  0.3735 -0.3111  0.1496
  652MOL0     C87940   1.886   2.385   8.984 -0.2817 -0.6753 -0.6397
  652MOL0     C87941   1.981   2.432   9.078 -0.0840 -0.5315 -0.3678
  652MOL0     C87942   2.118   2.423   9.033 -0.5060  0.0601  1.1192
  652MOL0     C87943   2.161   2.371   8.907  0.3897 -0.6077 -0.1632
  652MOL0     O87944   2.298   2.366   8.874  0.6071  0.9653  0.0383
  652MOL0     C87945   2.345   2.296   8.755  0.7293  0.0021 -0.5889
  652MOL0     C87946   2.497   2.290   8.739  0.0507 -0.0402  0.8317
  652MOL0     C87947   2.547   2.217   8.604  0.3320  1.3567  0.1305
  652MOL0     C87948   2.542   2.320   8.488  0.3262  0.0637  1.0954
  652MOL0     C87949   2.636   2.423   8.518 -0.4961  0.2383 -0.3680
  652MOL0     C87950   2.722   2.502   8.536 -0.8253  0.8131 -1.0383
  652MOL0     C87951   2.064   2.333   8.813 -0.1478 -0.5576 -0.4863
  652MOL0     C87952   1.929   2.343   8.857 -0.4847 -0.8226  0.6593
  652MOL0     H87953   1.624   2.318   9.263  0.7962  1.5825 -2.4374
  652MOL0     H87954   1.390   2.292   9.364  0.9031 -1.0346 -0.0917
  652MOL0     H87955   1.110   2.546   9.161 -0.9289  0.3403  0.2926
  652MOL0     H87956   0.995   2.450   9.247 -0.2005  0.5261  1.6046
  652MOL0     H87957   1.109   2.701   9.345 -1.0150  0.1474 -1.8836
  652MOL0     H87958   0.951   2.680   9.275 -1.4563  1.4683  1.8105
  652MOL0     H87959   0.860   2.546   9.452 -0.0237 -0.7929  0.9083
  652MOL0     H87960   1.007   2.559   9.541  0.7527 -0.0205 -1.1120
  652MOL0     H87961   0.998   2.814   9.514  1.2071 -0.0273  0.4133
  652MOL0     H87962   0.833   2.788   9.463 -0.7473 -0.7357  0.2174
  652MOL0     H87963   0.934   2.695   9.739  0.7228 -1.5849  0.3718
  652MOL0     H87964   0.842   2.839   9.696  2.7089  1.2909 -1.4744
  652MOL0     H87965   0.655   2.709   9.616  1.3456  0.5645 -0.5358
  652MOL0     H87966   0.749   2.553   9.641  3.7659  0.9222 -1.7915
  652MOL0     H87967   0.768   2.648   9.890 -1.0866  0.5648  1.0487
  652MOL0     H87968   0.625   2.741   9.833  0.6227  1.0649  1.2715
  652MOL0     H87969   0.551   2.543   9.951 -0.0614  1.7702  1.3397
  652MOL0     H87970   0.639   2.430   9.857 -2.6232 -0.4346  0.3393
  652MOL0     H87971   0.486   2.331   9.667 -0.5315 -1.0467 -1.4687
  652MOL0     H87972   0.293   2.350   9.446  1.1091 -0.8544  1.5247
  652MOL0     H87973   0.197   2.320   9.594  1.0830 -1.4284 -1.6638
  652MOL0     H87974   0.158   2.557   9.407 -0.4669 -2.0257 -4.1719
  652MOL0     H87975   0.043   2.486   9.521 -1.7408  1.4873 -1.4736
  652MOL0     H87976   0.058   2.275   9.362  1.3056  0.1795  2.2499
  652MOL0     H87977   0.152   2.388   9.250  2.9749  0.5002  2.3887
  652MOL0     H87978  -0.041   2.539   9.243 -1.1189  0.0163 -0.4628
  652MOL0     H87979  -0.125   2.416   9.342  1.0127 -0.8233  1.1761
  652MOL0     H87980  -0.128   2.168   8.995 -2.4484 -2.2510  1.0598
  652MOL0     H87981  -0.415   2.029   8.857 -1.0065 -0.0712 -0.6264
  652MOL0     H87982  -0.399   2.168   8.741 -1.7097 -0.4078  0.9343
  652MOL0     H87983  -0.256   2.075   8.788  1.0193  1.2814  2.8141
  652MOL0     H87984  -0.862   2.120   8.971 -2.4805  1.9446  0.5828
  652MOL0     H87985  -1.072   2.117   8.849 -1.0734  1.9701 -0.9109
  652MOL0     H87986  -1.246   2.185   8.717 -1.0361  1.3151  0.8383
  652MOL0     H87987  -1.152   2.334   8.705  0.4125  2.0071 -1.4417
  652MOL0     H87988  -1.357   2.391   8.585 -0.4698  0.3201 -0.3508
  652MOL0     H87989  -1.226   2.359   8.467  0.4973  2.6307  0.9369
  652MOL0     H87990  -1.433   2.153   8.548  1.0590  2.2174  3.1334
  652MOL0     H87991  -1.298   2.127   8.430 -0.1535 -0.3163 -1.2219
  652MOL0     H87992  -1.496   2.350   8.398  0.9405  1.3871 -2.5797
  652MOL0     H87993  -1.372   2.292   8.285  0.3482  2.6783  1.0728
  652MOL0     H87994  -1.647   2.178   8.339  0.6950  0.0504  0.0452
  652MOL0     H87995  -1.518   2.061   8.352  3.2991  1.3051 -1.0166
  652MOL0     H87996  -1.568   2.253   8.118 -0.8251  1.3426  3.1477
  652MOL0     H87997  -1.443   2.128   8.120 -0.3748 -1.2828  1.9606
  652MOL0     H87998  -1.725   2.114   8.031  0.4535 -3.8271 -4.3672
  652MOL0     H87999  -1.716   2.020   8.174 -1.9612  1.9320  0.1320
  652MOL0     H88000  -1.563   1.987   7.917  1.6335 -0.3948  0.6254
  652MOL0     H88001  -1.691   1.879   7.975  0.5399 -0.6858 -0.8913
  652MOL0     H88002  -0.873   2.237   8.496 -1.4039 -1.3550  0.3546
  652MOL0     H88003  -0.661   2.254   8.623 -0.2004  1.7303  0.5779
  652MOL0     H88004  -0.490   2.485   9.088 -1.0829 -0.4240 -0.4687
  652MOL0     H88005  -0.281   2.521   9.189 -0.7727 -2.7665  2.5540
  652MOL0     H88006   1.285   2.661   9.176  0.5839  1.5550  6.2208
  652MOL0     H88007   1.516   2.670   9.054  1.7161 -3.8052 -3.4016
  652MOL0     H88008   1.960   2.466   9.179 -1.4033  2.2946 -1.5025
  652MOL0     H88009   2.202   2.458   9.093 -0.1160 -1.8537  1.7620
  652MOL0     H88010   2.305   2.195   8.762 -0.3445  0.5289  2.4075
  652MOL0     H88011   2.297   2.348   8.671 -1.0926  0.6584  0.7662
  652MOL0     H88012   2.546   2.242   8.824  1.2819 -0.2783  0.0104
  652MOL0     H88013   2.532   2.394   8.746 -2.2687  0.6802  3.4310
  652MOL0     H88014   2.490   2.125   8.584 -0.2169  1.9691 -1.2866
  652MOL0     H88015   2.652   2.190   8.622 -0.0955 -0.5629  0.0134
  652MOL0     H88016   2.445   2.365   8.464  0.8862  0.6570 -0.1242
  652MOL0     H88017   2.572   2.270   8.396 -0.7979  1.2771  0.0193
  652MOL0     H88018   2.802   2.567   8.564  1.5261 -0.9688 -3.1929
  652MOL0     H88019   2.094   2.302   8.714  0.4467  0.8601 -0.7848
  652MOL0     H88020   1.865   2.320   8.772  2.4930  1.3590 -2.4708
  653MOL0     O88021   1.032  11.122   2.046  0.4930 -0.0264  0.0516
  653MOL0     C88022   0.979  11.018   2.021 -0.3943  0.3037  0.0511
  653MOL0     O88023   0.851  10.982   2.038  0.0960  0.1426 -0.8455
  653MOL0     C88024   0.761  11.078   2.082  0.3966 -0.3498 -0.2896
  653MOL0     C88025   0.774  11.139   2.212 -0.4917 -0.3712  0.1249
  653MOL0     C88026   0.688  11.245   2.256 -0.8054  0.4352 -0.1205
  653MOL0     C88027   0.571  11.271   2.178  0.4675 -0.2786 -0.2606
  653MOL0     O88028   0.483  11.373   2.223  0.0505 -0.1343 -0.1564
  653MOL0     C88029   0.345  11.329   2.222  0.5482 -0.2981 -0.1851
  653MOL0     C88030   0.259  11.447   2.257 -0.5594 -0.1324  0.5780
  653MOL0     C88031   0.114  11.416   2.227  0.4075 -0.1649 -0.0351
  653MOL0     C88032   0.080  11.412   2.079  0.3608 -1.3522 -0.2693
  653MOL0     C88033  -0.072  11.389   2.055 -0.4428 -1.1486 -1.0300
  653MOL0     C88034  -0.125  11.432   1.915  0.0591 -0.0534 -1.2756
  653MOL0     C88035  -0.275  11.409   1.908  0.8198  0.1758 -0.3792
  653MOL0     C88036  -0.344  11.502   2.005  0.1570 -0.2605  0.3687
  653MOL0     N88037  -0.486  11.526   1.981 -0.4339  0.1983 -0.2633
  653MOL0     C88038  -0.543  11.565   1.864  0.2309  0.1886  0.1390
  653MOL0     C88039  -0.679  11.557   1.877  0.0352 -1.1313 -0.2543
  653MOL0     C88040  -0.790  11.586   1.779 -0.0465  0.0171 -0.2836
  653MOL0     C88041  -0.782  11.742   1.751  0.7853  0.2718  0.9382
  653MOL0     C88042  -0.826  11.817   1.882 -0.3250  0.2227  0.2259
  653MOL0     C88043  -0.956  11.756   1.949  0.2564  0.0262  0.1102
  653MOL0     O88044  -1.054  11.717   1.852 -0.0041  0.1124  0.4332
  653MOL0     C88045  -1.187  11.753   1.847  0.1196  0.2035  0.0471
  653MOL0     C88046  -1.238  11.806   1.727  0.1023  0.1329  0.5481
  653MOL0     C88047  -1.364  11.863   1.730 -0.7382  0.1231 -1.0287
  653MOL0     C88048  -1.391  11.929   1.602  0.3395  0.5674 -0.1398
  653MOL0     C88049  -1.449  11.846   1.842  0.0859 -0.2275  0.0269
  653MOL0     C88050  -1.589  11.899   1.850  0.4946 -1.1737 -0.0623
  653MOL0     O88051  -1.665  11.858   1.965 -0.4417  0.2192  0.3248
  653MOL0     C88052  -1.803  11.870   1.958  0.7196  0.7127 -0.2959
  653MOL0     C88053  -1.882  11.854   1.839  0.4359 -0.0846 -0.8519
  653MOL0     C88054  -2.024  11.868   1.848 -0.1661  0.3156  0.4471
  653MOL0     C88055  -2.089  11.892   1.966 -0.3376 -0.6695 -1.0799
  653MOL0     O88056  -2.227  11.900   1.985 -1.0125  0.3785  0.7600
  653MOL0     C88057  -2.315  11.944   1.878 -0.2309 -0.4676 -0.1296
  653MOL0     C88058  -2.457  11.934   1.928 -0.5341  0.4012  0.0481
  653MOL0     C88059  -2.556  12.007   1.828  0.2685  0.0211 -0.5895
  653MOL0     C88060  -2.701  11.968   1.833 -0.2226  0.1429 -0.2284
  653MOL0     C88061  -2.780  12.050   1.929  0.0375 -0.0379  0.1620
  653MOL0     C88062  -2.919  11.995   1.939 -0.0008 -0.1344 -0.7746
  653MOL0     C88063  -2.992  12.046   2.064 -0.3904 -0.4518  0.4430
  653MOL0     C88064  -3.115  11.959   2.097  0.8651 -0.4877  0.9249
  653MOL0    Cl88065  -3.234  11.933   1.949 -0.3042  0.0980  0.4959
  653MOL0     C88066  -2.016  11.906   2.087 -1.1977  0.3493 -0.3202
  653MOL0     C88067  -1.872  11.888   2.080  0.1439  0.3851 -0.0696
  653MOL0     O88068  -1.629  11.981   1.763 -0.3140  0.2918 -0.9628
  653MOL0     C88069  -1.410  11.760   1.953 -1.1077 -0.7772 -0.0138
  653MOL0     C88070  -1.272  11.731   1.953 -0.3129  0.4799  0.4390
  653MOL0     N88071  -0.697  11.527   2.011  0.2714 -0.4521  0.4721
  653MOL0     N88072  -0.583  11.499   2.069 -0.3249 -0.1237  0.0727
  653MOL0     C88073   0.557  11.214   2.049 -0.5900  0.1198 -0.5707
  653MOL0     C88074   0.653  11.119   2.005 -0.2460 -0.4028  0.3251
  653MOL0     C88075   1.069  10.914   1.965 -0.0577 -0.5048 -0.2348
  653MOL0     C88076   1.209  10.917   1.981 -0.7432  0.3575  0.1314
  653MOL0     C88077   1.290  10.816   1.943  0.1977  1.0760 -0.6678
  653MOL0     C88078   1.231  10.709   1.872 -0.0958 -0.3953  0.3989
  653MOL0     O88079   1.311  10.621   1.789  0.8628 -0.1068  0.0286
  653MOL0     C88080   1.452  10.610   1.805  1.0357 -0.1689 -0.4122
  653MOL0     C88081   1.490  10.510   1.908 -0.8745 -0.6645 -0.3640
  653MOL0     C88082   1.648  10.502   1.907  0.3133  0.5307 -0.3555
  653MOL0     C88083   1.681  10.417   2.027 -0.1361  0.0495  0.8903
  653MOL0     C88084   1.828  10.437   2.041  0.0827 -0.4112  0.0299
  653MOL0     C88085   1.945  10.457   2.062  0.3521 -0.4523  0.4883
  653MOL0     C88086   1.090  10.700   1.852 -0.6614  0.3943  0.5622
  653MOL0     C88087   1.011  10.803   1.894  0.1577 -0.3431 -0.6586
  653MOL0     H88088   0.862  11.109   2.268 -0.4381 -3.2249 -1.3133
  653MOL0     H88089   0.690  11.282   2.357  0.5055 -1.1500  0.4833
  653MOL0     H88090   0.327  11.305   2.117 -0.7598 -1.5518  0.3052
  653MOL0     H88091   0.312  11.246   2.284  1.3081  0.7970  1.7652
  653MOL0     H88092   0.272  11.463   2.364  0.6649  0.5513  0.3443
  653MOL0     H88093   0.293  11.539   2.210  4.0908 -1.2746  1.2662
  653MOL0     H88094   0.082  11.323   2.276  1.1966  1.3818  3.7392
  653MOL0     H88095   0.045  11.494   2.261 -1.8929 -2.1672  0.2215
  653MOL0     H88096   0.116  11.497   2.020  1.4554 -0.7416  1.2261
  653MOL0     H88097   0.134  11.330   2.030  1.8700 -0.5548  0.0164
  653MOL0     H88098  -0.082  11.282   2.075  2.3753 -0.9630  2.1558
  653MOL0     H88099  -0.126  11.455   2.123  0.2900 -1.7369  0.1495
  653MOL0     H88100  -0.097  11.534   1.888  0.1124  0.1764 -0.3799
  653MOL0     H88101  -0.070  11.371   1.842 -0.5172  0.2653 -1.9878
  653MOL0     H88102  -0.296  11.443   1.806  7.3994  2.8558 -1.2730
  653MOL0     H88103  -0.309  11.304   1.910  2.3311 -0.3980 -2.0847
  653MOL0     H88104  -0.301  11.601   2.022 -0.1020 -0.1533  0.4089
  653MOL0     H88105  -0.345  11.451   2.102 -2.1601 -1.3942 -0.1793
  653MOL0     H88106  -0.477  11.576   1.779 -0.8507 -2.6217 -1.1609
  653MOL0     H88107  -0.761  11.543   1.683  0.3340 -1.4408  0.4620
  653MOL0     H88108  -0.890  11.550   1.804 -0.4162  0.8532 -0.4914
  653MOL0     H88109  -0.851  11.764   1.669  0.6868  0.2578  1.0176
  653MOL0     H88110  -0.681  11.779   1.730  0.7868 -0.4240 -0.3813
  653MOL0     H88111  -0.840  11.919   1.847  1.4232  0.8375  1.1968
  653MOL0     H88112  -0.744  11.831   1.953  0.5958 -0.4568 -0.6698
  653MOL0     H88113  -0.996  11.839   2.008 -1.3240 -0.4782 -0.1870
  653MOL0     H88114  -0.942  11.670   2.015  0.2950 -0.1438 -0.1180
  653MOL0     H88115  -1.167  11.813   1.646 -1.3195 -0.2207 -0.7708
  653MOL0     H88116  -1.371  12.036   1.615 -1.9817  1.0732 -0.3548
  653MOL0     H88117  -1.343  11.881   1.516  1.6337 -2.6374  2.1444
  653MOL0     H88118  -1.497  11.915   1.577 -0.4106  0.7247  2.5646
  653MOL0     H88119  -1.834  11.827   1.745  0.6336 -0.4031 -0.6627
  653MOL0     H88120  -2.089  11.855   1.762 -0.3603 -1.8287  0.8742
  653MOL0     H88121  -2.297  12.050   1.859 -0.6309 -0.0108  1.8150
  653MOL0     H88122  -2.302  11.894   1.782  1.4215  3.3189 -2.0991
  653MOL0     H88123  -2.486  11.829   1.928 -0.4206  0.3702  0.3761
  653MOL0     H88124  -2.461  11.972   2.030  2.2738  0.2992  0.2838
  653MOL0     H88125  -2.521  11.971   1.730  1.3781 -1.0705  0.1706
  653MOL0     H88126  -2.535  12.114   1.834  0.2434  0.1541 -2.2711
  653MOL0     H88127  -2.746  11.969   1.733  0.2276  2.3140 -0.4733
  653MOL0     H88128  -2.703  11.862   1.860  1.0538  0.8484  3.1037
  653MOL0     H88129  -2.779  12.151   1.887 -1.4232 -1.0437 -2.5756
  653MOL0     H88130  -2.738  12.051   2.029  1.7840 -0.3897 -0.5384
  653MOL0     H88131  -2.982  12.007   1.851 -0.8738  0.6761 -0.0588
  653MOL0     H88132  -2.919  11.886   1.948 -1.7037 -0.0511  0.8438
  653MOL0     H88133  -3.023  12.148   2.039  0.5533 -0.8927 -3.1859
  653MOL0     H88134  -2.932  12.033   2.154 -0.9502 -4.2744  0.4148
  653MOL0     H88135  -3.180  12.010   2.168 -0.4515  0.2794 -0.7708
  653MOL0     H88136  -3.082  11.860   2.131  1.7304 -0.7447 -0.5720
  653MOL0     H88137  -2.056  11.905   2.188 -0.4618 -2.5869  0.0538
  653MOL0     H88138  -1.819  11.895   2.174  0.3917  0.2994 -0.1992
  653MOL0     H88139  -1.480  11.741   2.033 -3.5890  1.6423 -1.4190
  653MOL0     H88140  -1.235  11.664   2.031 -2.0693 -1.2297 -0.0893
  653MOL0     H88141   0.475  11.230   1.980 -0.4116 -1.7377 -1.2656
  653MOL0     H88142   0.638  11.076   1.907 -0.2238  1.2871 -0.4646
  653MOL0     H88143   1.235  11.002   2.043 -2.0001 -0.3966  1.7638
  653MOL0     H88144   1.391  10.843   1.971 -0.3843  2.1974  0.4893
  653MOL0     H88145   1.496  10.589   1.707  1.2534 -1.2358 -0.1066
  653MOL0     H88146   1.500  10.703   1.834 -0.2660 -0.4048  2.8413
  653MOL0     H88147   1.457  10.408   1.889 -1.1429 -0.3670 -1.5404
  653MOL0     H88148   1.460  10.545   2.008  3.3025 -1.0000  1.1938
  653MOL0     H88149   1.702  10.597   1.915 -0.4278  0.8247  2.0908
  653MOL0     H88150   1.691  10.468   1.812  0.6667 -1.0915  0.3519
  653MOL0     H88151   1.650  10.313   2.018 -0.4489  0.2941 -1.6360
  653MOL0     H88152   1.628  10.458   2.114  0.9197 -1.3055  2.2278
  653MOL0     H88153   2.048  10.477   2.084  0.0820 -0.2938  1.6637
  653MOL0     H88154   1.045  10.619   1.796  0.9470  2.1210 -3.6279
  653MOL0     H88155   0.904  10.804   1.880  0.0732 -2.2741 -0.3472
  654MOL0     O88156   0.781   7.846   1.574  0.2938  0.0267 -0.7240
  654MOL0     C88157   0.764   7.828   1.455  0.7540 -0.1996  0.0858
  654MOL0     O88158   0.861   7.803   1.364 -0.4180  0.0151  0.6587
  654MOL0     C88159   0.984   7.770   1.416 -0.1799  1.3057  0.4041
  654MOL0     C88160   0.998   7.666   1.513  0.0532  0.4251  0.3710
  654MOL0     C88161   1.127   7.650   1.566 -0.1742  0.4439 -1.2147
  654MOL0     C88162   1.237   7.727   1.533 -0.6309 -0.4779 -0.1566
  654MOL0     O88163   1.367   7.719   1.577  0.4859 -0.3238  0.4123
  654MOL0     C88164   1.404   7.618   1.673 -0.8189  0.5226 -0.8908
  654MOL0     C88165   1.549   7.602   1.694 -0.0595 -0.2553  0.7308
  654MOL0     C88166   1.590   7.505   1.799 -0.9290 -0.7988 -0.2349
  654MOL0     C88167   1.598   7.569   1.935 -0.1049 -0.0709 -0.2884
  654MOL0     C88168   1.640   7.471   2.046  0.0442  0.3177 -0.8916
  654MOL0     C88169   1.601   7.515   2.191 -0.0881 -0.1342 -0.2483
  654MOL0     C88170   1.644   7.429   2.306 -0.4505  0.6950 -0.3914
  654MOL0     C88171   1.652   7.504   2.442 -0.2393  0.1998 -0.8967
  654MOL0     N88172   1.517   7.559   2.478  0.0900  0.0563  0.1401
  654MOL0     C88173   1.400   7.483   2.479 -1.4338 -0.4768 -0.4827
  654MOL0     C88174   1.303   7.578   2.478 -0.6119 -0.2080 -0.0063
  654MOL0     C88175   1.155   7.541   2.460  0.5810 -0.5870  0.5216
  654MOL0     C88176   1.064   7.644   2.529  0.2825 -0.1006 -0.0292
  654MOL0     C88177   0.916   7.604   2.512  0.0375  0.1252  0.4260
  654MOL0     C88178   0.816   7.674   2.595  0.3024  0.3939 -0.2077
  654MOL0     O88179   0.691   7.622   2.543  0.0943 -0.3981  0.0089
  654MOL0     C88180   0.573   7.654   2.610 -0.0711 -0.6697  1.1737
  654MOL0     C88181   0.560   7.735   2.723  0.4464 -0.1533 -0.0006
  654MOL0     C88182   0.443   7.753   2.793  0.1362  0.3093 -0.0880
  654MOL0     C88183   0.449   7.842   2.912 -0.1042 -0.3286  0.7421
  654MOL0     C88184   0.327   7.685   2.748 -0.1817  0.4004 -0.1131
  654MOL0     C88185   0.201   7.679   2.825  0.1715 -0.4882  0.0312
  654MOL0     O88186   0.095   7.630   2.754 -0.3509  0.5462  0.0408
  654MOL0     C88187  -0.026   7.641   2.814 -0.4312 -0.0020 -0.0299
  654MOL0     C88188  -0.096   7.758   2.853  0.4538  0.6594 -0.0656
  654MOL0     C88189  -0.217   7.743   2.917  0.0187  0.0020  0.0164
  654MOL0     C88190  -0.279   7.610   2.943  0.8702 -0.0492  0.7232
  654MOL0     O88191  -0.395   7.606   3.018  0.4559 -0.1715  0.3799
  654MOL0     C88192  -0.456   7.470   3.035 -0.3855 -0.2712 -0.3604
  654MOL0     C88193  -0.570   7.475   3.144 -0.0685 -0.1276  0.3281
  654MOL0     C88194  -0.635   7.344   3.152  0.9251 -0.1162  0.3987
  654MOL0     C88195  -0.725   7.332   3.282 -0.0964 -0.1611  0.4151
  654MOL0     C88196  -0.764   7.181   3.307 -0.6917 -0.0951  1.4978
  654MOL0     C88197  -0.870   7.114   3.211  0.0111  0.4506 -0.8605
  654MOL0     C88198  -0.900   6.972   3.253  0.6260  0.0009  0.2919
  654MOL0     C88199  -1.032   6.921   3.193  0.5479 -0.3715 -0.5819
  654MOL0    Cl88200  -1.019   6.934   3.017  0.4823 -0.0278  0.2392
  654MOL0     C88201  -0.205   7.503   2.898  0.8812  0.7514  0.7515
  654MOL0     C88202  -0.080   7.517   2.841  0.3292  0.2969  0.0511
  654MOL0     O88203   0.191   7.715   2.945 -0.3667  0.1503 -0.1451
  654MOL0     C88204   0.341   7.608   2.624 -0.4131 -0.7542 -0.7477
  654MOL0     C88205   0.464   7.584   2.563 -0.2881  0.2960  0.6434
  654MOL0     N88206   1.373   7.702   2.474 -0.0768 -0.5200  0.0500
  654MOL0     N88207   1.502   7.688   2.477 -0.9016 -0.0888  0.7475
  654MOL0     C88208   1.215   7.832   1.444 -0.2579  0.5844  0.3479
  654MOL0     C88209   1.092   7.851   1.380 -0.1276  0.0001  0.6318
  654MOL0     C88210   0.625   7.835   1.399  0.6996 -0.0134  0.4588
  654MOL0     C88211   0.595   7.834   1.260 -0.2682 -0.2592 -0.2015
  654MOL0     C88212   0.457   7.861   1.217  0.2606  0.1927  0.5625
  654MOL0     C88213   0.348   7.875   1.310 -0.4106 -0.2099  1.2663
  654MOL0     O88214   0.220   7.892   1.267 -0.1604 -0.1141  0.0070
  654MOL0     C88215   0.114   7.938   1.357  0.7644 -0.3271  0.1668
  654MOL0     C88216  -0.011   7.947   1.274 -0.0291  0.4980 -0.6000
  654MOL0     C88217  -0.139   7.951   1.367  0.1804 -0.6661  0.1845
  654MOL0     C88218  -0.259   7.996   1.287  0.3849 -0.1228 -0.3105
  654MOL0     C88219  -0.381   8.003   1.372  0.3579  0.0914  0.2331
  654MOL0     C88220  -0.485   8.016   1.437  0.2042  0.4345 -0.1864
  654MOL0     C88221   0.385   7.863   1.449  0.9323  0.9742  0.1902
  654MOL0     C88222   0.521   7.848   1.492 -0.0221  0.9249  0.3704
  654MOL0     H88223   0.921   7.592   1.531 -1.7765  1.9311 -0.8619
  654MOL0     H88224   1.148   7.572   1.638  4.3069  1.5235 -1.0316
  654MOL0     H88225   1.355   7.641   1.768 -0.6504 -2.0014 -0.1097
  654MOL0     H88226   1.368   7.517   1.649  1.5983 -0.5941 -0.2261
  654MOL0     H88227   1.581   7.563   1.597 -2.4523  0.1195 -0.2742
  654MOL0     H88228   1.604   7.697   1.704  2.2433 -1.3556 -0.6105
  654MOL0     H88229   1.519   7.422   1.804 -0.9501 -0.7634  0.0799
  654MOL0     H88230   1.687   7.458   1.783 -0.2502 -0.2822  1.9745
  654MOL0     H88231   1.665   7.655   1.941 -0.1884 -0.0557  0.4072
  654MOL0     H88232   1.501   7.616   1.954 -0.3644  0.2100 -2.1355
  654MOL0     H88233   1.599   7.371   2.038  0.2302 -0.1717  2.7746
  654MOL0     H88234   1.749   7.459   2.038 -0.0582 -1.8784  0.4783
  654MOL0     H88235   1.647   7.612   2.210 -0.1731 -0.3219  1.0151
  654MOL0     H88236   1.492   7.519   2.193 -0.0546  1.2748 -0.2202
  654MOL0     H88237   1.582   7.341   2.326  2.2720 -0.7871  2.2124
  654MOL0     H88238   1.738   7.375   2.293  0.6648  2.0449  1.5352
  654MOL0     H88239   1.727   7.584   2.446 -0.8776  0.7519  1.2874
  654MOL0     H88240   1.678   7.429   2.518  1.9541  0.3284 -1.4515
  654MOL0     H88241   1.397   7.375   2.471 -0.8347 -0.5618  0.2474
  654MOL0     H88242   1.139   7.534   2.352  2.4014 -1.9306  0.2733
  654MOL0     H88243   1.139   7.437   2.492 -0.8174 -1.2565 -2.0831
  654MOL0     H88244   1.074   7.740   2.477 -0.7571 -0.9125 -1.8089
  654MOL0     H88245   1.100   7.653   2.632  3.0663 -0.4005 -0.8713
  654MOL0     H88246   0.897   7.497   2.526  1.0422 -0.4572 -2.1393
  654MOL0     H88247   0.896   7.616   2.405  2.2270  0.7012  0.0444
  654MOL0     H88248   0.829   7.779   2.568 -1.6429 -0.0080 -3.0923
  654MOL0     H88249   0.841   7.671   2.702  0.1795  0.7197 -0.1647
  654MOL0     H88250   0.640   7.801   2.756 -2.2578  1.2292  4.8038
  654MOL0     H88251   0.500   7.793   2.995 -0.9735 -0.5489  1.1599
  654MOL0     H88252   0.491   7.940   2.887  0.5925 -1.4450 -3.0319
  654MOL0     H88253   0.348   7.866   2.947 -0.0925 -1.7327  1.8685
  654MOL0     H88254  -0.059   7.856   2.823  3.4356 -0.8386 -1.8112
  654MOL0     H88255  -0.269   7.834   2.945 -2.1657 -1.1848  0.0712
  654MOL0     H88256  -0.490   7.446   2.934  0.1984  0.9192 -0.8653
  654MOL0     H88257  -0.389   7.390   3.068  1.6169  1.9931  1.3581
  654MOL0     H88258  -0.512   7.492   3.235  2.6458 -0.2477 -1.2508
  654MOL0     H88259  -0.645   7.550   3.120 -0.4114 -0.6403 -0.2253
  654MOL0     H88260  -0.556   7.272   3.173  0.6210 -0.6350 -0.2103
  654MOL0     H88261  -0.690   7.315   3.062  0.8867  1.6594 -0.1802
  654MOL0     H88262  -0.664   7.371   3.364  0.7917  1.4390 -0.9463
  654MOL0     H88263  -0.818   7.390   3.277  1.0190  1.6288 -0.7171
  654MOL0     H88264  -0.789   7.161   3.412 -0.5287  0.6438  1.6784
  654MOL0     H88265  -0.674   7.123   3.284 -0.2147  1.6991 -1.7331
  654MOL0     H88266  -0.956   7.181   3.215  2.0443  3.2084  2.8867
  654MOL0     H88267  -0.836   7.112   3.107 -1.7138  1.1268 -1.4568
  654MOL0     H88268  -0.919   6.969   3.361 -1.6886  1.0116 -0.0269
  654MOL0     H88269  -0.822   6.900   3.225  0.1640 -2.1454  3.8214
  654MOL0     H88270  -1.114   6.979   3.236  0.4383 -1.6599  1.0937
  654MOL0     H88271  -1.044   6.819   3.232 -0.3809 -0.2826 -0.6211
  654MOL0     H88272  -0.248   7.403   2.905  1.0744  0.1296 -3.8867
  654MOL0     H88273  -0.035   7.422   2.814 -1.7383 -0.6740 -0.1641
  654MOL0     H88274   0.253   7.574   2.570 -1.4842  1.2505 -0.3825
  654MOL0     H88275   0.471   7.523   2.473 -0.3982 -0.9910  1.4820
  654MOL0     H88276   1.306   7.884   1.413 -0.5796  1.8308  1.4195
  654MOL0     H88277   1.106   7.927   1.304  0.9123  1.1321  1.8987
  654MOL0     H88278   0.687   7.833   1.202  0.0912  1.1254  0.2921
  654MOL0     H88279   0.429   7.860   1.112  0.2556 -0.7653  0.5608
  654MOL0     H88280   0.092   7.866   1.437 -1.7147  0.8000  0.5924
  654MOL0     H88281   0.131   8.040   1.392 -4.0606  1.1046 -0.9227
  654MOL0     H88282  -0.018   7.857   1.212  3.4645 -1.1538  1.1337
  654MOL0     H88283   0.003   8.037   1.214  1.8098  0.9309  0.4107
  654MOL0     H88284  -0.126   8.015   1.454 -1.8827 -0.2105  0.2060
  654MOL0     H88285  -0.152   7.855   1.418  1.3209 -1.5170 -1.0520
  654MOL0     H88286  -0.277   7.928   1.204 -0.4569 -2.6935  1.8338
  654MOL0     H88287  -0.247   8.095   1.242 -4.0851 -0.4727 -2.7962
  654MOL0     H88288  -0.578   8.017   1.490  1.4507 -1.0236  2.2103
  654MOL0     H88289   0.309   7.862   1.526  0.3443  2.4357 -0.3246
  654MOL0     H88290   0.543   7.826   1.597  1.4218 -2.9753 -0.5538
  655MOL0     O88291  10.202   8.234   9.248 -0.5456  0.4663  0.0785
  655MOL0     C88292  10.313   8.226   9.296 -0.3633 -0.1783 -0.6557
  655MOL0     O88293  10.342   8.213   9.430 -0.2742  0.0531 -0.1899
  655MOL0     C88294  10.228   8.221   9.511  0.3160  0.7544 -0.4087
  655MOL0     C88295  10.153   8.113   9.547  0.9462  0.3653  0.2689
  655MOL0     C88296  10.023   8.131   9.600 -0.0662 -0.4446  0.7479
  655MOL0     C88297   9.982   8.264   9.638  0.0063 -0.2477  0.3954
  655MOL0     O88298   9.861   8.260   9.702 -1.3225 -0.3786 -0.0316
  655MOL0     C88299   9.825   8.342   9.812 -0.2044 -0.1418  0.1176
  655MOL0     C88300   9.692   8.404   9.773 -0.8840  1.2754 -0.3085
  655MOL0     C88301   9.705   8.532   9.682  0.0999  0.6488 -0.5426
  655MOL0     C88302   9.585   8.629   9.690 -0.8764  0.5387 -0.2327
  655MOL0     C88303   9.598   8.748   9.591  1.0368  0.7771  0.0531
  655MOL0     C88304   9.530   8.715   9.451 -0.0397 -0.1620 -0.0545
  655MOL0     C88305   9.378   8.737   9.460  0.6097 -0.1649  0.5751
  655MOL0     C88306   9.300   8.659   9.364 -0.3634  0.1669  0.2985
  655MOL0     N88307   9.157   8.656   9.404 -0.2376  0.3482 -0.8054
  655MOL0     C88308   9.056   8.731   9.359 -0.2167 -0.1380  0.2887
  655MOL0     C88309   8.950   8.702   9.437  0.5842 -0.7609 -0.1222
  655MOL0     C88310   8.813   8.765   9.432 -0.3624 -0.3475  0.0574
  655MOL0     C88311   8.732   8.762   9.564  0.3611 -0.6326  0.5199
  655MOL0     C88312   8.581   8.796   9.538 -0.4289 -0.2888 -0.0278
  655MOL0     C88313   8.526   8.943   9.553 -0.1207  0.6094  0.2168
  655MOL0     O88314   8.405   8.953   9.482 -0.2675 -0.3542 -0.0791
  655MOL0     C88315   8.287   8.963   9.547  0.0299  0.0071 -0.6448
  655MOL0     C88316   8.270   8.935   9.684 -0.8319 -0.2474 -0.3863
  655MOL0     C88317   8.142   8.952   9.740  0.7144 -0.7527 -0.4944
  655MOL0     C88318   8.130   8.917   9.886  0.1950 -0.5972 -0.6485
  655MOL0     C88319   8.035   8.997   9.656 -0.1016 -0.5852 -0.9241
  655MOL0     C88320   7.896   9.004   9.705 -0.5517  0.6204 -0.2957
  655MOL0     O88321   7.833   8.897   9.761 -0.8126  0.4418  0.2233
  655MOL0     C88322   7.733   8.922   9.843  0.7493 -0.3794  0.2132
  655MOL0     C88323   7.601   8.953   9.791  0.1007  0.3494  0.1027
  655MOL0     C88324   7.506   9.004   9.878  0.0528 -0.3443  0.5440
  655MOL0     C88325   7.526   9.014  10.010  0.8951 -0.0782  0.2777
  655MOL0     O88326   7.419   9.060  10.077  0.2109 -0.7820  0.1680
  655MOL0     C88327   7.400   9.023  10.218  0.2907 -1.1422  0.7800
  655MOL0     C88328   7.257   8.980  10.225 -0.7299 -0.1931 -0.0141
  655MOL0     C88329   7.232   8.940  10.370  0.6494  0.1639  0.1937
  655MOL0     C88330   7.094   8.869  10.401  0.0497  0.3162  0.0682
  655MOL0     C88331   7.106   8.808  10.542 -0.7632 -0.9780 -0.2003
  655MOL0     C88332   7.065   8.896  10.662  0.5007  0.1751  0.5067
  655MOL0     C88333   6.914   8.942  10.655  0.0347  0.7524  0.3914
  655MOL0     C88334   6.874   9.013  10.783 -0.3550 -0.3197  0.3741
  655MOL0    Cl88335   6.710   9.070  10.759  0.2363 -0.0095  0.1468
  655MOL0     C88336   7.644   8.962  10.058  0.0489 -0.1968 -0.2493
  655MOL0     C88337   7.754   8.924   9.987  0.6846  0.5391 -0.8726
  655MOL0     O88338   7.845   9.106   9.680 -0.0089  0.0520  0.5277
  655MOL0     C88339   8.058   9.027   9.524  0.0568  0.2793 -0.2889
  655MOL0     C88340   8.181   9.004   9.466  0.2468  0.1511  0.1660
  655MOL0     N88341   8.981   8.597   9.518 -0.6962 -0.4594  0.4845
  655MOL0     N88342   9.103   8.573   9.497  0.7262  0.6386 -0.1564
  655MOL0     C88343  10.059   8.375   9.597 -0.6058 -0.7019 -0.3945
  655MOL0     C88344  10.176   8.347   9.537 -0.6389 -1.1601  0.2212
  655MOL0     C88345  10.424   8.226   9.205  1.2132 -0.0471  0.2663
  655MOL0     C88346  10.409   8.232   9.064  0.7895 -0.6444 -0.1828
  655MOL0     C88347  10.528   8.239   8.986  0.8061  0.5411 -0.0806
  655MOL0     C88348  10.663   8.235   9.040  0.6530  0.3146  0.7640
  655MOL0     O88349  10.783   8.238   8.967  0.0191 -0.4903 -0.0605
  655MOL0     C88350  10.764   8.274   8.833 -0.0700  0.4254  0.2039
  655MOL0     C88351  10.888   8.297   8.745  0.1097  0.6053  0.3948
  655MOL0     C88352  10.981   8.180   8.714  0.3356 -0.4358 -0.2012
  655MOL0     C88353  11.101   8.228   8.632  0.3204  0.4027 -0.1352
  655MOL0     C88354  11.060   8.260   8.487  0.3459  0.4296 -0.7914
  655MOL0     C88355  11.042   8.288   8.374  0.1645  0.4152  0.2431
  655MOL0     C88356  10.665   8.224   9.175  0.3284  0.6327  0.3735
  655MOL0     C88357  10.552   8.214   9.253 -0.4144  0.4702 -0.4012
  655MOL0     H88358  10.184   8.016   9.508  2.2255  0.2661  1.4539
  655MOL0     H88359   9.972   8.043   9.637 -0.4773 -0.3156  0.4874
  655MOL0     H88360   9.803   8.277   9.897 -1.2674 -1.0718 -0.8245
  655MOL0     H88361   9.894   8.421   9.841 -0.7989  0.3874  0.1158
  655MOL0     H88362   9.631   8.330   9.722 -1.1723  0.4207  1.2200
  655MOL0     H88363   9.638   8.423   9.866  1.2953 -1.4073  1.6528
  655MOL0     H88364   9.788   8.597   9.710 -0.3929  0.4385  1.5470
  655MOL0     H88365   9.710   8.502   9.577 -5.5662  2.2648 -1.6451
  655MOL0     H88366   9.492   8.574   9.672 -0.5749  0.3668 -1.3472
  655MOL0     H88367   9.581   8.682   9.786 -2.2959 -0.4783  0.3189
  655MOL0     H88368   9.557   8.840   9.634 -0.7758 -1.0363  2.5026
  655MOL0     H88369   9.700   8.767   9.557  0.9786 -1.0607 -1.3160
  655MOL0     H88370   9.577   8.776   9.373  3.1423 -0.0548  1.7634
  655MOL0     H88371   9.553   8.615   9.412  1.6340  1.4945 -3.8036
  655MOL0     H88372   9.343   8.726   9.563  0.5281  1.7120  0.7863
  655MOL0     H88373   9.357   8.844   9.451  2.5277  0.2323  0.3483
  655MOL0     H88374   9.341   8.559   9.344  1.4142  1.4807 -3.6625
  655MOL0     H88375   9.311   8.709   9.267  1.5973 -0.1724  0.3015
  655MOL0     H88376   9.058   8.797   9.273 -0.2632  0.2580  0.5856
  655MOL0     H88377   8.825   8.873   9.419 -0.7888 -0.5590 -2.6271
  655MOL0     H88378   8.759   8.724   9.347 -1.0168  0.4782  0.0589
  655MOL0     H88379   8.779   8.832   9.634 -0.5599  2.4097 -1.6656
  655MOL0     H88380   8.730   8.660   9.602  1.2966 -0.0835  2.1041
  655MOL0     H88381   8.523   8.732   9.606  1.5217 -0.1966  1.8252
  655MOL0     H88382   8.552   8.755   9.441 -1.0871 -2.5488  1.0646
  655MOL0     H88383   8.604   9.010   9.517  0.0732  1.4852  2.1209
  655MOL0     H88384   8.522   8.971   9.659  1.9353  3.3783 -0.3205
  655MOL0     H88385   8.352   8.903   9.747 -0.1299  0.1279 -1.0969
  655MOL0     H88386   8.066   8.974   9.954  0.3756 -2.4889  1.2058
  655MOL0     H88387   8.094   8.814   9.885  0.3258 -0.6549  0.0485
  655MOL0     H88388   8.230   8.916   9.930 -0.6249 -1.6329  1.3252
  655MOL0     H88389   7.578   8.944   9.685 -0.7921 -0.7321  0.3719
  655MOL0     H88390   7.419   9.051   9.833  0.6272 -1.4782 -1.9333
  655MOL0     H88391   7.460   8.935  10.245  2.1016  0.4302  2.1475
  655MOL0     H88392   7.415   9.109  10.283 -2.0714 -0.3243  0.3233
  655MOL0     H88393   7.179   9.050  10.193 -0.6741 -0.1342 -0.0212
  655MOL0     H88394   7.252   8.891  10.161 -1.0507 -0.5375  0.4761
  655MOL0     H88395   7.247   9.024  10.439  0.9026 -0.0429  0.3919
  655MOL0     H88396   7.302   8.857  10.384 -2.4361 -2.5468  0.6723
  655MOL0     H88397   6.999   8.925  10.400 -1.3598 -1.9513 -1.2599
  655MOL0     H88398   7.085   8.795  10.321 -0.7825  0.1932  0.2645
  655MOL0     H88399   7.203   8.761  10.561 -1.0236 -0.3246  3.4704
  655MOL0     H88400   7.049   8.715  10.543 -1.2556 -0.7201 -1.8400
  655MOL0     H88401   7.080   8.839  10.755 -0.3284 -1.3775 -0.2741
  655MOL0     H88402   7.113   8.994  10.660 -2.8884  1.9788 -1.8415
  655MOL0     H88403   6.848   8.855  10.645 -0.5604  1.4191 -2.1429
  655MOL0     H88404   6.902   9.002  10.565  2.5125 -0.4237 -0.8019
  655MOL0     H88405   6.945   9.096  10.781  0.5045 -1.0067 -2.2263
  655MOL0     H88406   6.884   8.941  10.865  0.8160  0.0582  0.5816
  655MOL0     H88407   7.647   8.978  10.165 -1.9298  1.0997 -0.3400
  655MOL0     H88408   7.853   8.890  10.018 -0.0371  0.0278  0.9687
  655MOL0     H88409   7.971   9.052   9.465 -0.2557  1.9997  0.8132
  655MOL0     H88410   8.186   9.016   9.359 -1.6604  2.3573  0.2342
  655MOL0     H88411  10.026   8.479   9.606  1.2215 -0.1399  0.2309
  655MOL0     H88412  10.240   8.423   9.493  1.8322 -0.9847  3.7204
  655MOL0     H88413  10.310   8.212   9.024 -0.4650 -0.6426  2.6440
  655MOL0     H88414  10.505   8.244   8.880  2.2949 -3.9757 -0.8380
  655MOL0     H88415  10.703   8.197   8.785  0.4632  0.3824 -0.4167
  655MOL0     H88416  10.709   8.368   8.836  2.7668  2.2160 -0.2866
  655MOL0     H88417  10.937   8.385   8.789  2.1956 -0.8662  1.1760
  655MOL0     H88418  10.836   8.319   8.652 -4.7464  0.0038  2.6470
  655MOL0     H88419  10.931   8.095   8.667  2.7870 -2.5603  0.7367
  655MOL0     H88420  11.032   8.147   8.805  2.5167  0.7514 -0.9306
  655MOL0     H88421  11.172   8.146   8.623 -0.4891 -0.1047 -3.3775
  655MOL0     H88422  11.157   8.312   8.675 -0.2258 -0.2667  2.0203
  655MOL0     H88423  11.028   8.308   8.270  0.1492  1.1169  0.3761
  655MOL0     H88424  10.765   8.219   9.216  1.2896 -2.2050 -1.9408
  655MOL0     H88425  10.564   8.200   9.360  2.6387 -0.0595 -0.7267
  656MOL0     O88426   1.896   1.344   2.757 -0.6011  0.3684  0.0136
  656MOL0     C88427   1.855   1.264   2.844  0.3501 -0.1675 -1.0904
  656MOL0     O88428   1.926   1.179   2.928 -0.2349 -0.3452  0.7980
  656MOL0     C88429   2.060   1.150   2.924  0.2566 -1.0627  0.6728
  656MOL0     C88430   2.139   1.162   2.811 -0.9796 -0.6224 -1.1450
  656MOL0     C88431   2.270   1.129   2.822 -0.4126 -1.4996  0.5891
  656MOL0     C88432   2.315   1.080   2.947 -0.3498  0.4976 -0.1738
  656MOL0     O88433   2.454   1.067   2.951  0.4375 -0.5293 -0.3923
  656MOL0     C88434   2.506   0.978   3.052  0.1344 -0.0120  0.2150
  656MOL0     C88435   2.655   0.942   3.028  0.1081  0.3880 -0.2410
  656MOL0     C88436   2.695   0.851   2.915 -0.6646 -0.3658 -0.5552
  656MOL0     C88437   2.825   0.902   2.832  0.8084 -0.0787 -0.2484
  656MOL0     C88438   2.864   0.794   2.728  0.0077  0.2093 -0.7862
  656MOL0     C88439   2.760   0.766   2.621  0.5567 -0.2192 -0.3774
  656MOL0     C88440   2.795   0.651   2.537 -0.5554  0.7023  0.3336
  656MOL0     C88441   2.713   0.637   2.408 -0.4257 -0.8641  0.0794
  656MOL0     N88442   2.573   0.602   2.435 -0.1655 -0.0676  0.1582
  656MOL0     C88443   2.508   0.536   2.545  0.0127  0.3832 -0.0884
  656MOL0     C88444   2.381   0.534   2.503  0.6016 -0.7658  0.0598
  656MOL0     C88445   2.260   0.467   2.573 -0.6110 -0.2652 -0.1426
  656MOL0     C88446   2.226   0.523   2.706 -0.3144  0.3218  0.4629
  656MOL0     C88447   2.170   0.667   2.709 -0.5059  0.1510  0.3008
  656MOL0     C88448   2.156   0.712   2.851  0.0570  0.2800 -0.2481
  656MOL0     O88449   2.077   0.625   2.934  0.1160 -0.2640 -0.4677
  656MOL0     C88450   1.945   0.650   2.955  0.1697 -0.2046 -0.2619
  656MOL0     C88451   1.876   0.577   3.051  0.4735  1.4766 -0.0327
  656MOL0     C88452   1.747   0.597   3.093 -0.1266 -0.4007  0.3370
  656MOL0     C88453   1.680   0.509   3.204 -0.2062 -0.5297 -0.1470
  656MOL0     C88454   1.667   0.691   3.022 -0.1699 -0.4266  0.1045
  656MOL0     C88455   1.523   0.710   3.043  0.5176  0.2549 -0.2056
  656MOL0     O88456   1.442   0.601   3.037  0.4890  0.2436 -0.2805
  656MOL0     C88457   1.307   0.614   3.062  1.2083 -0.5680  0.8238
  656MOL0     C88458   1.262   0.605   3.197  0.4854  1.0134 -0.2257
  656MOL0     C88459   1.121   0.611   3.221 -0.6371  0.4703 -0.0380
  656MOL0     C88460   1.027   0.622   3.119 -0.1208  0.3356 -0.0449
  656MOL0     O88461   0.893   0.608   3.155  0.0392  0.8275 -0.7033
  656MOL0     C88462   0.787   0.673   3.099  0.6509 -0.5040 -0.4599
  656MOL0     C88463   0.718   0.760   3.201 -1.1494 -0.3582  0.0782
  656MOL0     C88464   0.605   0.685   3.269  0.2531 -0.8000 -0.9431
  656MOL0     C88465   0.656   0.582   3.375 -0.3068 -0.0634 -0.3902
  656MOL0     C88466   0.529   0.505   3.433 -0.8374 -0.9417 -0.3074
  656MOL0     C88467   0.572   0.398   3.528 -0.2993  0.1377  0.2180
  656MOL0     C88468   0.464   0.313   3.591 -0.4349  0.3612 -0.8342
  656MOL0     C88469   0.469   0.335   3.744 -0.4533 -1.2119 -0.6385
  656MOL0    Cl88470   0.434   0.514   3.784 -0.1932 -0.2432 -0.2402
  656MOL0     C88471   1.072   0.622   2.988 -0.8575  0.4650  0.4698
  656MOL0     C88472   1.213   0.624   2.956  0.5999  0.3742  0.5643
  656MOL0     O88473   1.488   0.817   3.079  0.4856  0.2999  0.6208
  656MOL0     C88474   1.737   0.762   2.920  0.1923  0.0522 -0.1695
  656MOL0     C88475   1.867   0.745   2.886  0.7092  0.3655 -0.5656
  656MOL0     N88476   2.367   0.591   2.377 -0.0886  0.2627  0.3879
  656MOL0     N88477   2.480   0.629   2.335 -0.8498 -0.0790 -0.3603
  656MOL0     C88478   2.235   1.065   3.058  0.3677 -1.0811  0.3465
  656MOL0     C88479   2.105   1.106   3.046 -0.4807 -0.3837 -0.1086
  656MOL0     C88480   1.713   1.263   2.882 -0.1896  1.5745  0.3644
  656MOL0     C88481   1.638   1.375   2.848  0.2266 -0.0176  0.7420
  656MOL0     C88482   1.498   1.372   2.879 -0.7934  0.1542  0.1744
  656MOL0     C88483   1.434   1.277   2.963  0.3417 -0.5932 -0.1468
  656MOL0     O88484   1.306   1.297   3.014 -0.6592  0.0740  1.1230
  656MOL0     C88485   1.268   1.227   3.134  0.8261 -0.1062 -0.7204
  656MOL0     C88486   1.120   1.252   3.168  0.2002 -0.0776 -0.4144
  656MOL0     C88487   1.056   1.166   3.285 -0.4451 -0.6186  0.2528
  656MOL0     C88488   1.045   1.021   3.241 -0.0634  0.2065  0.1391
  656MOL0     C88489   0.984   0.996   3.109 -0.0527  0.0536 -0.6110
  656MOL0     C88490   0.936   0.983   2.997  0.4177  0.5528 -1.0477
  656MOL0     C88491   1.512   1.165   2.990 -0.3138 -0.4963 -0.0810
  656MOL0     C88492   1.649   1.157   2.952  0.3718 -0.7187 -0.4850
  656MOL0     H88493   2.093   1.194   2.719  0.0140  1.0641 -1.1117
  656MOL0     H88494   2.330   1.145   2.733 -2.1246  0.9318 -0.2496
  656MOL0     H88495   2.495   1.023   3.151 -2.4773  1.9985 -0.8716
  656MOL0     H88496   2.447   0.885   3.050  1.3997 -0.8686  1.3928
  656MOL0     H88497   2.712   1.036   3.022 -1.7461  1.6676  0.8362
  656MOL0     H88498   2.699   0.908   3.122 -1.6064 -1.3399  0.0086
  656MOL0     H88499   2.712   0.749   2.950  0.8613 -0.7476 -2.2463
  656MOL0     H88500   2.610   0.850   2.847 -0.3375 -1.4503 -0.9715
  656MOL0     H88501   2.792   0.983   2.766  2.0933 -0.6248 -1.5971
  656MOL0     H88502   2.902   0.927   2.905  0.9608 -0.3206 -0.3265
  656MOL0     H88503   2.958   0.821   2.679 -0.0594  0.0475 -1.0032
  656MOL0     H88504   2.893   0.705   2.785  1.3441  0.9841 -0.2045
  656MOL0     H88505   2.661   0.754   2.667  0.8346 -0.0644  0.2765
  656MOL0     H88506   2.745   0.855   2.559 -0.0097  0.0183  0.0876
  656MOL0     H88507   2.899   0.651   2.502 -0.5753 -6.2446 -1.1997
  656MOL0     H88508   2.781   0.554   2.587 -1.9286 -0.8132 -2.7131
  656MOL0     H88509   2.761   0.559   2.348  2.3637  1.2119 -0.5989
  656MOL0     H88510   2.728   0.728   2.349  1.3598 -0.1935  1.4750
  656MOL0     H88511   2.555   0.511   2.639 -0.8899  0.1426  0.3101
  656MOL0     H88512   2.172   0.478   2.510  0.3390  1.1858 -1.2613
  656MOL0     H88513   2.280   0.361   2.594  1.7114  0.0067 -0.6374
  656MOL0     H88514   2.311   0.506   2.773  1.6179  4.1568 -0.7297
  656MOL0     H88515   2.151   0.453   2.744  1.1171 -0.4480  2.0400
  656MOL0     H88516   2.069   0.661   2.667 -0.7476  0.4688  0.8271
  656MOL0     H88517   2.238   0.718   2.640 -0.7492 -2.4084 -1.9622
  656MOL0     H88518   2.126   0.817   2.861  3.7018  1.4909 -0.5736
  656MOL0     H88519   2.259   0.714   2.888 -0.0580 -1.5519  0.2629
  656MOL0     H88520   1.924   0.495   3.104  2.2009  1.1459 -2.0018
  656MOL0     H88521   1.633   0.420   3.164 -1.9354  1.4167 -2.7840
  656MOL0     H88522   1.747   0.489   3.288  1.5689  0.2718 -1.3039
  656MOL0     H88523   1.596   0.569   3.240 -0.4272 -1.1880  0.4561
  656MOL0     H88524   1.336   0.602   3.276 -0.8158  3.0002  1.1449
  656MOL0     H88525   1.093   0.611   3.326 -0.0737 -1.4556  0.1573
  656MOL0     H88526   0.814   0.725   3.007 -2.3105  0.6378 -0.7924
  656MOL0     H88527   0.708   0.601   3.074 -0.5997  0.3088  0.9971
  656MOL0     H88528   0.777   0.790   3.287 -2.0066  2.4753 -0.2214
  656MOL0     H88529   0.679   0.850   3.153 -0.2324  1.5957  2.7473
  656MOL0     H88530   0.543   0.627   3.201  0.3614 -0.0120 -1.7318
  656MOL0     H88531   0.534   0.756   3.313  0.5127 -1.5548  0.7611
  656MOL0     H88532   0.729   0.518   3.324  1.2605  0.6815  0.8036
  656MOL0     H88533   0.707   0.633   3.458 -1.0793  2.5907 -1.4404
  656MOL0     H88534   0.472   0.466   3.348 -3.7983  0.3977  0.9089
  656MOL0     H88535   0.462   0.579   3.477  0.1116  0.3334 -0.9482
  656MOL0     H88536   0.646   0.334   3.480  3.6937  1.9402  3.2985
  656MOL0     H88537   0.640   0.454   3.594  0.6945  2.0376 -2.2561
  656MOL0     H88538   0.494   0.208   3.576 -1.1050 -0.8742  4.3378
  656MOL0     H88539   0.364   0.324   3.549 -0.5523  1.7987 -0.2380
  656MOL0     H88540   0.572   0.327   3.780 -0.1028 -0.6114 -1.4626
  656MOL0     H88541   0.398   0.268   3.792  1.2957 -2.3180  0.5129
  656MOL0     H88542   1.006   0.619   2.903 -1.0031 -3.7384  0.5135
  656MOL0     H88543   1.259   0.622   2.858  3.0445 -1.9210  1.6407
  656MOL0     H88544   1.679   0.837   2.866 -1.7956 -2.2553 -1.4732
  656MOL0     H88545   1.909   0.797   2.801  1.4618 -1.8794 -1.6547
  656MOL0     H88546   2.281   1.031   3.150  3.0924 -2.4917 -1.3768
  656MOL0     H88547   2.031   1.092   3.124 -0.9172  0.0280 -0.4392
  656MOL0     H88548   1.676   1.454   2.785  2.5373  1.2696  3.4998
  656MOL0     H88549   1.439   1.458   2.849  1.9513  1.5133 -1.7920
  656MOL0     H88550   1.274   1.118   3.130 -2.8546 -0.4536 -0.7269
  656MOL0     H88551   1.328   1.265   3.217  3.1666 -1.1886 -1.8433
  656MOL0     H88552   1.060   1.238   3.078  1.1252  2.6535 -1.5679
  656MOL0     H88553   1.102   1.359   3.182  1.7421  0.1442  0.0623
  656MOL0     H88554   0.961   1.215   3.307 -0.4499 -0.5685  0.1194
  656MOL0     H88555   1.123   1.173   3.372  1.1683 -0.8987 -0.9236
  656MOL0     H88556   0.995   0.962   3.319 -0.3915  0.2455 -0.0407
  656MOL0     H88557   1.146   0.981   3.231  1.8119  4.3146  0.4952
  656MOL0     H88558   0.918   0.961   2.894  1.6256 -2.7838 -0.6550
  656MOL0     H88559   1.476   1.086   3.055 -1.3117  0.3097  0.3696
  656MOL0     H88560   1.694   1.063   2.983  0.2718 -0.0875  1.7347
  657MOL0     O88561  10.207   0.116  10.208 -0.3845  0.0128  0.1289
  657MOL0     C88562  10.275   0.053  10.288  0.5418  0.4058 -0.9453
  657MOL0     O88563  10.230   0.011  10.412 -0.5286  0.6707 -0.6468
  657MOL0     C88564  10.101  -0.013  10.439 -0.6294  1.0034 -0.5993
  657MOL0     C88565   9.994  -0.026  10.355  0.4381  0.7909  0.0983
  657MOL0     C88566   9.864  -0.042  10.407  0.0824  0.8435  1.1000
  657MOL0     C88567   9.841  -0.063  10.546 -0.2465 -0.1937  0.4470
  657MOL0     O88568   9.728  -0.130  10.584  0.5119 -0.8184 -0.3811
  657MOL0     C88569   9.693  -0.148  10.733  0.9167 -0.5602  0.2396
  657MOL0     C88570   9.552  -0.206  10.742 -0.1862  0.6062 -0.6535
  657MOL0     C88571   9.513  -0.215  10.890 -0.3481 -0.3100 -0.4094
  657MOL0     C88572   9.372  -0.271  10.890  0.1728 -1.3519 -0.1514
  657MOL0     C88573   9.307  -0.233  11.021 -0.2692 -1.0690 -0.4565
  657MOL0     C88574   9.176  -0.305  11.038 -0.3487 -0.2605 -0.8344
  657MOL0     C88575   9.118  -0.282  11.172 -0.2171 -0.2479 -0.1351
  657MOL0     C88576   8.993  -0.373  11.180 -0.0844 -0.6274  0.3604
  657MOL0     N88577   8.914  -0.360  11.304  0.3124 -0.1256  0.3942
  657MOL0     C88578   8.800  -0.278  11.323 -0.2598  0.3367  0.7916
  657MOL0     C88579   8.782  -0.272  11.453 -0.0811 -0.4638 -0.4349
  657MOL0     C88580   8.669  -0.195  11.517  0.3121  0.1048 -0.0805
  657MOL0     C88581   8.545  -0.277  11.514  0.3415  0.2258 -0.7197
  657MOL0     C88582   8.424  -0.214  11.597 -0.4214 -0.7732  0.4206
  657MOL0     C88583   8.373  -0.073  11.544  0.2857  0.7269 -0.5736
  657MOL0     O88584   8.294  -0.094  11.430  0.0159 -0.1203 -1.1699
  657MOL0     C88585   8.161  -0.123  11.450 -0.6489  0.0104  0.1597
  657MOL0     C88586   8.091  -0.170  11.571  0.3715  0.1826  1.0642
  657MOL0     C88587   7.958  -0.208  11.567  0.1612  0.2460  0.1945
  657MOL0     C88588   7.903  -0.229  11.708 -0.6771 -0.7230 -0.8235
  657MOL0     C88589   7.886  -0.202  11.444 -0.6159 -0.3250  0.3042
  657MOL0     C88590   7.747  -0.244  11.434  0.6300  0.2025  0.3350
  657MOL0     O88591   7.686  -0.225  11.314 -0.2098  0.1656  0.1283
  657MOL0     C88592   7.559  -0.274  11.297  0.2595  0.4191  0.2427
  657MOL0     C88593   7.537  -0.417  11.314 -0.6089  0.6518  0.0315
  657MOL0     C88594   7.410  -0.476  11.295  0.5593  0.4802  0.0479
  657MOL0     C88595   7.307  -0.391  11.255 -0.9381  0.3811 -0.6974
  657MOL0     O88596   7.180  -0.445  11.241 -0.3709 -0.1329 -0.2941
  657MOL0     C88597   7.091  -0.377  11.151 -1.1623  0.0841  0.6552
  657MOL0     C88598   6.954  -0.453  11.153  0.2017 -0.1908  0.4207
  657MOL0     C88599   6.836  -0.389  11.079 -0.2985 -0.8999  0.1717
  657MOL0     C88600   6.716  -0.485  11.068 -0.2495 -0.1745 -0.5236
  657MOL0     C88601   6.592  -0.404  11.012 -0.6268  0.4026  0.0091
  657MOL0     C88602   6.487  -0.499  10.983  0.6577  0.1661  0.2005
  657MOL0     C88603   6.360  -0.428  10.931 -0.8695 -0.7986 -0.0211
  657MOL0     C88604   6.252  -0.531  10.888  0.2035 -0.8050 -0.3400
  657MOL0    Cl88605   6.111  -0.445  10.828  0.0321  0.2785 -0.4463
  657MOL0     C88606   7.323  -0.252  11.249 -1.2884  0.1523  0.3486
  657MOL0     C88607   7.446  -0.195  11.259  0.1741  0.0947 -0.2536
  657MOL0     O88608   7.693  -0.295  11.537 -0.3264  0.3234 -0.0785
  657MOL0     C88609   7.961  -0.163  11.327  0.2701 -0.1128  0.1424
  657MOL0     C88610   8.095  -0.131  11.325  0.1246 -0.1358 -0.4513
  657MOL0     N88611   8.872  -0.366  11.512 -0.0311  0.2025  0.6103
  657MOL0     N88612   8.957  -0.409  11.421  0.2310  0.3009  0.0640
  657MOL0     C88613   9.946  -0.044  10.637  0.2635  0.1920  0.2561
  657MOL0     C88614  10.071  -0.013  10.578 -0.0562  1.0169  0.2447
  657MOL0     C88615  10.420   0.055  10.268 -0.6275  0.6926 -0.2613
  657MOL0     C88616  10.480   0.091  10.150 -0.4465 -0.0702 -0.5496
  657MOL0     C88617  10.620   0.122  10.142 -0.4065  0.7860 -0.6370
  657MOL0     C88618  10.698   0.109  10.264  0.2075  0.3098  1.7094
  657MOL0     O88619  10.835   0.131  10.264 -0.3771  0.2540 -0.1983
  657MOL0     C88620  10.910   0.087  10.149  0.6994 -0.5332 -0.3476
  657MOL0     C88621  10.890  -0.066  10.121  0.7594  0.0686 -0.7976
  657MOL0     C88622  10.986  -0.103  10.000 -0.1032  0.0250 -0.1857
  657MOL0     C88623  11.073  -0.212  10.023  0.2552  0.0145  0.5135
  657MOL0     C88624  11.138  -0.247   9.896  0.1577  0.1482  1.0239
  657MOL0     C88625  11.189  -0.280   9.792  0.2199 -0.2862 -0.4473
  657MOL0     C88626  10.638   0.060  10.382  0.1635  0.4850  0.0010
  657MOL0     C88627  10.501   0.032  10.376  0.8705 -0.3972 -0.4180
  657MOL0     H88628  10.005  -0.014  10.248 -0.6433  2.6483  0.1695
  657MOL0     H88629   9.780  -0.061  10.342  2.1670 -3.0256 -0.7916
  657MOL0     H88630   9.767  -0.214  10.778  2.3055  0.5957 -0.2908
  657MOL0     H88631   9.684  -0.058  10.794 -2.6912  0.0071 -0.8858
  657MOL0     H88632   9.488  -0.134  10.691  0.8554  2.3330  0.3706
  657MOL0     H88633   9.548  -0.310  10.707  0.8874 -0.8804  3.0448
  657MOL0     H88634   9.575  -0.286  10.945 -0.4140 -0.9116 -1.0905
  657MOL0     H88635   9.526  -0.121  10.944  3.5483 -2.6645  3.3573
  657MOL0     H88636   9.314  -0.227  10.808  0.2237  2.2207  1.5238
  657MOL0     H88637   9.378  -0.378  10.869 -0.3536 -0.9188 -2.9085
  657MOL0     H88638   9.382  -0.264  11.095 -1.2082  1.9217  1.9806
  657MOL0     H88639   9.292  -0.125  11.030 -1.9021 -1.2761 -0.5378
  657MOL0     H88640   9.111  -0.272  10.957 -1.2020 -0.7369 -0.3609
  657MOL0     H88641   9.197  -0.411  11.025  1.6486 -0.3310  1.9524
  657MOL0     H88642   9.184  -0.308  11.255 -2.2179 -2.1416  0.9621
  657MOL0     H88643   9.077  -0.181  11.179 -0.5661 -0.2841 -1.3687
  657MOL0     H88644   9.021  -0.479  11.169 -1.9013 -1.2180  1.0545
  657MOL0     H88645   8.928  -0.339  11.099  0.4599  0.8101  0.4959
  657MOL0     H88646   8.744  -0.220  11.250  0.5311 -0.7880 -0.7804
  657MOL0     H88647   8.693  -0.154  11.616 -3.1803  2.1609  0.0653
  657MOL0     H88648   8.649  -0.120  11.441  3.0913  0.0580 -0.9835
  657MOL0     H88649   8.563  -0.370  11.569 -1.6032  0.0710 -0.2866
  657MOL0     H88650   8.516  -0.309  11.413  0.1191 -0.8766 -0.3139
  657MOL0     H88651   8.470  -0.203  11.696  1.9979 -2.9015 -0.3699
  657MOL0     H88652   8.342  -0.285  11.606  1.0648 -2.5346  0.5248
  657MOL0     H88653   8.455  -0.002  11.529  1.8409 -1.5100 -4.0631
  657MOL0     H88654   8.315  -0.035  11.628 -2.4569 -2.9343 -0.5423
  657MOL0     H88655   8.144  -0.186  11.664 -0.1803 -4.5639  0.7844
  657MOL0     H88656   7.976  -0.206  11.786 -0.2055 -2.6179 -0.6514
  657MOL0     H88657   7.815  -0.165  11.718 -0.9093 -1.3783  2.3463
  657MOL0     H88658   7.865  -0.331  11.718 -1.3416 -0.7480 -3.1150
  657MOL0     H88659   7.614  -0.492  11.333 -0.0821  1.2422  0.2522
  657MOL0     H88660   7.376  -0.577  11.314 -1.7271  1.0425 -0.6821
  657MOL0     H88661   7.065  -0.280  11.194 -0.4663 -0.5983  2.7532
  657MOL0     H88662   7.120  -0.359  11.047 -1.3539  0.2330  0.6259
  657MOL0     H88663   6.966  -0.550  11.104  1.1200  0.8041 -1.4448
  657MOL0     H88664   6.922  -0.471  11.256 -2.2767  0.5245 -0.1631
  657MOL0     H88665   6.872  -0.373  10.977 -1.6492  0.3369 -0.1469
  657MOL0     H88666   6.810  -0.292  11.124  0.6552 -0.5471 -0.0115
  657MOL0     H88667   6.747  -0.570  11.006 -3.0800 -0.5254 -1.6504
  657MOL0     H88668   6.685  -0.524  11.165 -0.8339 -1.6943 -1.2791
  657MOL0     H88669   6.627  -0.344  10.928  3.5488 -0.3822  0.9805
  657MOL0     H88670   6.562  -0.328  11.085 -0.3695  0.4686  0.0456
  657MOL0     H88671   6.535  -0.569  10.914  2.0507  1.7194 -0.4885
  657MOL0     H88672   6.465  -0.565  11.068 -2.8244 -0.2641 -0.8934
  657MOL0     H88673   6.392  -0.363  10.849  1.7534 -0.0730  1.4398
  657MOL0     H88674   6.320  -0.367  11.012  1.3717 -0.4405  0.8937
  657MOL0     H88675   6.224  -0.611  10.957 -1.6774 -2.7943 -3.1799
  657MOL0     H88676   6.284  -0.590  10.801 -1.0307 -2.5329  0.3225
  657MOL0     H88677   7.240  -0.184  11.231 -2.1630 -1.0738 -0.4332
  657MOL0     H88678   7.450  -0.087  11.248  0.8792  0.1744  0.6560
  657MOL0     H88679   7.919  -0.164  11.227  0.1296  0.0545  0.1989
  657MOL0     H88680   8.135  -0.105  11.228 -6.1357  1.5348 -3.0507
  657MOL0     H88681   9.931  -0.070  10.741 -1.8102  1.2830  0.2746
  657MOL0     H88682  10.154  -0.000  10.647  1.1373  0.9947 -1.1504
  657MOL0     H88683  10.420   0.085  10.060  1.2323 -0.4470 -1.6845
  657MOL0     H88684  10.659   0.164  10.049 -1.4646  0.3383 -1.3025
  657MOL0     H88685  10.880   0.154  10.068  1.0130  0.9475  0.7194
  657MOL0     H88686  11.015   0.104  10.174  0.5302 -1.1546  0.9214
  657MOL0     H88687  10.791  -0.107  10.097  1.3875 -1.9044 -0.2058
  657MOL0     H88688  10.916  -0.130  10.206 -0.9478 -3.3221 -2.5827
  657MOL0     H88689  11.052  -0.018   9.981  1.3145 -1.3322 -1.5871
  657MOL0     H88690  10.927  -0.114   9.908 -1.4528 -2.2114  0.8541
  657MOL0     H88691  11.023  -0.302  10.058  1.5892 -0.2287  1.9110
  657MOL0     H88692  11.152  -0.188  10.096  0.2247 -1.5752  1.1144
  657MOL0     H88693  11.223  -0.318   9.698 -2.7546 -3.3105 -0.4939
  657MOL0     H88694  10.688   0.043  10.477  0.0153 -1.4628 -0.2220
  657MOL0     H88695  10.465  -0.000  10.474 -1.0516  2.3481 -0.1006
  658MOL0     O88696   2.722   4.081   6.857  1.2239  0.0092 -0.1166
  658MOL0     C88697   2.682   3.970   6.825 -0.3967 -0.2188  0.4535
  658MOL0     O88698   2.550   3.937   6.816 -0.7577  0.3018 -0.6694
  658MOL0     C88699   2.453   4.011   6.880 -0.2517  0.1188 -0.1895
  658MOL0     C88700   2.329   4.035   6.805 -0.7603 -0.1170 -0.6969
  658MOL0     C88701   2.231   4.113   6.869  0.5097 -0.5056 -0.4675
  658MOL0     C88702   2.251   4.165   7.001 -0.2131  0.4088 -0.3334
  658MOL0     O88703   2.159   4.232   7.075  0.5110  0.4011  0.6141
  658MOL0     C88704   2.026   4.245   7.031  0.4494 -0.1914  0.3512
  658MOL0     C88705   1.964   4.359   7.121 -0.1156  0.4565  0.2962
  658MOL0     C88706   1.820   4.380   7.061  0.2154 -0.9450 -0.0556
  658MOL0     C88707   1.754   4.505   7.123 -0.0762 -0.3686  0.6976
  658MOL0     C88708   1.620   4.553   7.065  0.9475  0.1226 -0.2735
  658MOL0     C88709   1.615   4.655   6.954  0.2815 -0.2346 -1.2082
  658MOL0     C88710   1.660   4.613   6.816 -0.6586 -0.3026  0.3602
  658MOL0     C88711   1.603   4.721   6.723  0.4417 -0.0540  1.0656
  658MOL0     N88712   1.604   4.677   6.584 -0.1984  0.1690  0.7229
  658MOL0     C88713   1.495   4.614   6.522 -0.1559 -0.0852 -0.1449
  658MOL0     C88714   1.517   4.617   6.385 -0.0967 -0.5675 -0.3125
  658MOL0     C88715   1.420   4.567   6.281  0.3876 -0.0915  0.4169
  658MOL0     C88716   1.278   4.595   6.320  0.6125 -0.3163 -1.0373
  658MOL0     C88717   1.180   4.558   6.212 -0.1984  0.0919  0.7258
  658MOL0     C88718   1.034   4.557   6.268 -0.1310  0.0130  0.1618
  658MOL0     O88719   1.010   4.449   6.351 -0.4209  0.3296 -0.7708
  658MOL0     C88720   0.881   4.416   6.373 -0.2369  0.4522 -0.0570
  658MOL0     C88721   0.870   4.307   6.450 -0.4111 -0.0670 -0.9094
  658MOL0     C88722   0.743   4.251   6.485  1.5480  0.6627  0.6260
  658MOL0     C88723   0.736   4.133   6.576  0.0294  0.7595 -0.5026
  658MOL0     C88724   0.625   4.308   6.437 -0.2522  0.1071 -0.1503
  658MOL0     C88725   0.482   4.262   6.461  0.5906 -0.3791  0.4292
  658MOL0     O88726   0.378   4.352   6.429  0.5497 -1.1394  0.3208
  658MOL0     C88727   0.251   4.307   6.420 -0.5129 -0.6313  0.2250
  658MOL0     C88728   0.177   4.312   6.296  0.4773  0.1540  0.3902
  658MOL0     C88729   0.048   4.249   6.289  0.1670  0.5149 -0.2063
  658MOL0     C88730  -0.010   4.183   6.400  0.1918  0.0741 -0.2903
  658MOL0     O88731  -0.136   4.140   6.380  0.3447 -0.0552 -0.2248
  658MOL0     C88732  -0.230   4.102   6.482  0.1365  0.1078 -0.2647
  658MOL0     C88733  -0.240   3.950   6.503 -0.4039 -0.4020  0.5032
  658MOL0     C88734  -0.295   3.877   6.375  0.0148 -0.4054 -0.5630
  658MOL0     C88735  -0.320   3.730   6.400 -0.4587 -0.4705 -0.2438
  658MOL0     C88736  -0.358   3.671   6.262  1.1731  0.1614  0.5310
  658MOL0     C88737  -0.501   3.712   6.204  0.7669  0.2144 -0.0639
  658MOL0     C88738  -0.521   3.656   6.066  0.4046  0.0739  0.3296
  658MOL0     C88739  -0.459   3.748   5.955  0.0082  0.3289 -0.3402
  658MOL0    Cl88740  -0.469   3.656   5.808 -0.1107 -0.2683 -0.2458
  658MOL0     C88741   0.058   4.182   6.527 -0.4961  0.2294 -0.6655
  658MOL0     C88742   0.184   4.252   6.528 -0.1890  0.3102 -0.4143
  658MOL0     O88743   0.461   4.152   6.516  0.6128 -0.8746 -0.1772
  658MOL0     C88744   0.642   4.424   6.358  0.4212 -0.6347 -0.5554
  658MOL0     C88745   0.767   4.472   6.324 -0.3036  0.3146  1.4501
  658MOL0     N88746   1.637   4.690   6.368  0.4063  0.1680 -0.6456
  658MOL0     N88747   1.691   4.722   6.485 -0.4362 -0.0470  0.0020
  658MOL0     C88748   2.359   4.135   7.075 -0.3731  0.0802 -0.3605
  658MOL0     C88749   2.463   4.053   7.017  0.6237  0.2740 -0.3096
  658MOL0     C88750   2.786   3.875   6.784 -0.2598  0.1420 -0.3743
  658MOL0     C88751   2.921   3.895   6.808 -0.4074  0.4667  0.6462
  658MOL0     C88752   3.020   3.818   6.740 -0.1972  0.3671 -0.1850
  658MOL0     C88753   2.981   3.705   6.668 -0.0247  0.3424  0.3782
  658MOL0     O88754   3.074   3.615   6.611 -0.5691 -0.2479  0.3275
  658MOL0     C88755   3.148   3.548   6.714  0.3594  0.8689 -0.3303
  658MOL0     C88756   3.249   3.440   6.666 -0.2053 -0.6955  0.6698
  658MOL0     C88757   3.328   3.386   6.783  1.0890  0.9442 -0.2038
  658MOL0     C88758   3.442   3.286   6.734  0.1341  0.5991 -0.0835
  658MOL0     C88759   3.567   3.358   6.694  0.2206 -0.1339  1.2231
  658MOL0     C88760   3.668   3.422   6.673 -0.8371 -0.5670  0.4525
  658MOL0     C88761   2.839   3.677   6.660 -0.0441  0.1670 -0.5069
  658MOL0     C88762   2.745   3.767   6.701  0.3044  1.7722 -0.3855
  658MOL0     H88763   2.320   4.012   6.699 -1.1550  0.3529 -0.7657
  658MOL0     H88764   2.135   4.151   6.838  0.4382  0.3698  0.7451
  658MOL0     H88765   2.013   4.278   6.927 -2.0534 -0.8111  0.4029
  658MOL0     H88766   1.978   4.146   7.032 -0.6275  0.3160  0.2616
  658MOL0     H88767   1.951   4.328   7.225 -2.6116  2.8375  0.8033
  658MOL0     H88768   2.031   4.445   7.114  2.2070 -1.1163  1.7687
  658MOL0     H88769   1.821   4.385   6.952  0.7561  2.0457  0.0033
  658MOL0     H88770   1.755   4.293   7.077  1.8616 -2.7847 -2.6320
  658MOL0     H88771   1.740   4.482   7.229 -0.8810 -1.2817  0.4060
  658MOL0     H88772   1.829   4.584   7.117  1.0687 -1.4255  0.8575
  658MOL0     H88773   1.546   4.477   7.038 -0.4453  0.5025  2.1184
  658MOL0     H88774   1.556   4.595   7.144 -1.0650 -0.5981 -1.4477
  658MOL0     H88775   1.508   4.673   6.939 -0.5625 -3.4421  0.0450
  658MOL0     H88776   1.668   4.748   6.978 -0.6591 -0.5923  3.0361
  658MOL0     H88777   1.768   4.601   6.823 -0.9151 -2.2708  1.6630
  658MOL0     H88778   1.613   4.517   6.791  1.5436 -1.6604  1.2027
  658MOL0     H88779   1.668   4.809   6.735  0.1512  0.7937 -2.4916
  658MOL0     H88780   1.499   4.747   6.744  0.1058  0.3466 -0.8772
  658MOL0     H88781   1.404   4.581   6.571 -1.7922  1.5904 -1.8775
  658MOL0     H88782   1.444   4.609   6.183 -1.9477 -0.4829 -0.3759
  658MOL0     H88783   1.427   4.458   6.277  1.6029  0.0007 -1.8733
  658MOL0     H88784   1.270   4.703   6.338  1.6676 -0.6144  1.6205
  658MOL0     H88785   1.256   4.547   6.415 -1.4645  2.2868 -0.0746
  658MOL0     H88786   1.206   4.467   6.159  1.2824  0.7111  0.3490
  658MOL0     H88787   1.189   4.640   6.140 -1.2491  0.4530  0.9778
  658MOL0     H88788   0.969   4.562   6.180  2.3848  1.6311 -1.7352
  658MOL0     H88789   1.020   4.648   6.327  4.4094 -0.7208  2.8985
  658MOL0     H88790   0.959   4.270   6.500 -2.5746 -2.1569  1.6957
  658MOL0     H88791   0.833   4.108   6.621 -0.3848  2.8272  1.7404
  658MOL0     H88792   0.663   4.146   6.656 -1.1702  0.0054 -1.4400
  658MOL0     H88793   0.697   4.049   6.518  0.4584 -0.4092  0.8460
  658MOL0     H88794   0.212   4.360   6.206  1.0187 -2.1228 -0.6907
  658MOL0     H88795  -0.021   4.253   6.205 -2.8350  4.1431  2.1090
  658MOL0     H88796  -0.215   4.159   6.574 -2.1818  3.7467 -1.9246
  658MOL0     H88797  -0.326   4.142   6.448  1.9181  3.7366 -1.5667
  658MOL0     H88798  -0.147   3.899   6.531  0.1841 -1.0711 -2.3005
  658MOL0     H88799  -0.315   3.942   6.582 -1.3262  2.3092 -0.0297
  658MOL0     H88800  -0.221   3.882   6.295  0.3423 -0.7020 -0.2831
  658MOL0     H88801  -0.388   3.921   6.339 -1.2445 -2.7645 -0.4260
  658MOL0     H88802  -0.231   3.678   6.435  0.8040  0.0361 -2.5439
  658MOL0     H88803  -0.406   3.726   6.468 -0.6325  1.6150 -0.2716
  658MOL0     H88804  -0.355   3.562   6.273  0.2468  0.2543  1.9206
  658MOL0     H88805  -0.277   3.694   6.192 -0.0565  0.7878 -0.7334
  658MOL0     H88806  -0.575   3.660   6.265  0.9779 -0.2675 -0.2102
  658MOL0     H88807  -0.525   3.817   6.221  3.2557  0.9024 -0.5277
  658MOL0     H88808  -0.630   3.664   6.061  0.4836  0.8886 -0.3406
  658MOL0     H88809  -0.483   3.554   6.053 -2.4921 -0.9386 -0.9436
  658MOL0     H88810  -0.356   3.772   5.984 -0.1041  1.5290 -0.8541
  658MOL0     H88811  -0.516   3.839   5.932 -1.5901 -0.5427  0.0177
  658MOL0     H88812   0.023   4.129   6.615  1.8644 -1.1973 -0.4764
  658MOL0     H88813   0.236   4.250   6.624  0.4001  0.4206 -0.7275
  658MOL0     H88814   0.556   4.473   6.312  0.6105 -0.9821 -1.2867
  658MOL0     H88815   0.762   4.559   6.259  1.3389  0.0478  0.9295
  658MOL0     H88816   2.368   4.183   7.172  0.5059  1.5635 -1.1302
  658MOL0     H88817   2.553   4.044   7.076 -1.3804  0.5714  3.0335
  658MOL0     H88818   2.954   3.977   6.871 -0.5218  0.0119  1.3157
  658MOL0     H88819   3.128   3.822   6.738  0.0237 -2.8368 -1.0260
  658MOL0     H88820   3.213   3.605   6.781  2.3090 -2.1067  0.4972
  658MOL0     H88821   3.076   3.499   6.780  0.4213 -1.0325 -1.5910
  658MOL0     H88822   3.325   3.484   6.600 -0.2812  1.6583  2.0328
  658MOL0     H88823   3.198   3.359   6.612  3.5648 -2.4062 -0.6981
  658MOL0     H88824   3.259   3.331   6.848 -0.6127  0.9751 -1.8671
  658MOL0     H88825   3.365   3.468   6.845 -1.7169  1.9342  0.3293
  658MOL0     H88826   3.406   3.224   6.651 -0.6374 -0.1553  0.7818
  658MOL0     H88827   3.473   3.219   6.815  1.5161  0.7344 -0.4708
  658MOL0     H88828   3.755   3.479   6.647 -0.0890 -0.6786  2.5402
  658MOL0     H88829   2.805   3.595   6.597 -0.1423  2.3044 -3.4319
  658MOL0     H88830   2.642   3.752   6.672  0.1896  2.4175 -0.3099
  659MOL0     O88831  10.574   8.166  10.682  0.5046  0.4145  0.2426
  659MOL0     C88832  10.654   8.207  10.760 -1.1496  0.7160  0.1639
  659MOL0     O88833  10.637   8.264  10.887 -0.1594  0.6193  0.4099
  659MOL0     C88834  10.509   8.258  10.923  0.1481 -0.5709  0.0099
  659MOL0     C88835  10.474   8.175  11.029 -0.2980  1.6709 -0.1689
  659MOL0     C88836  10.333   8.162  11.064  0.9310 -0.3391  0.0639
  659MOL0     C88837  10.231   8.241  11.002 -0.8228 -0.1171 -0.1957
  659MOL0     O88838  10.103   8.236  11.017  0.5834 -0.0148  0.2212
  659MOL0     C88839  10.045   8.166  11.127 -0.2202  0.1286  0.1244
  659MOL0     C88840   9.896   8.187  11.112  0.8973 -0.8192 -0.4024
  659MOL0     C88841   9.823   8.136  11.240 -0.0377  0.5143 -0.5286
  659MOL0     C88842   9.685   8.190  11.256  0.3462  0.3447  0.0903
  659MOL0     C88843   9.606   8.149  11.378 -0.2295  0.7429 -0.5426
  659MOL0     C88844   9.459   8.186  11.367  0.2968  0.1919 -0.7430
  659MOL0     C88845   9.437   8.334  11.373  1.1631 -0.0502 -0.1492
  659MOL0     C88846   9.287   8.386  11.370  1.2460 -0.0490 -0.4774
  659MOL0     N88847   9.216   8.362  11.501  0.0335 -0.0635  0.0595
  659MOL0     C88848   9.122   8.257  11.534 -0.2482  0.2593 -0.1837
  659MOL0     C88849   9.068   8.298  11.651  0.0894  0.0796  0.2247
  659MOL0     C88850   8.975   8.216  11.742  0.3088  0.5542 -0.5308
  659MOL0     C88851   8.824   8.257  11.733 -0.4986  0.1174  0.3791
  659MOL0     C88852   8.778   8.229  11.587  0.7700 -0.3546  0.2978
  659MOL0     C88853   8.625   8.206  11.578 -0.8421 -0.0350 -0.5997
  659MOL0     O88854   8.572   8.089  11.635 -0.3549  0.6231 -0.5165
  659MOL0     C88855   8.446   8.038  11.611 -0.0942 -0.0420  0.4816
  659MOL0     C88856   8.337   8.119  11.578 -0.1462 -0.4143 -0.1258
  659MOL0     C88857   8.205   8.072  11.565 -0.2760 -0.5657  0.4422
  659MOL0     C88858   8.083   8.164  11.544 -0.1005  0.1733 -0.9722
  659MOL0     C88859   8.180   7.936  11.597  0.3154 -0.0747  0.7676
  659MOL0     C88860   8.042   7.875  11.587 -0.1879 -0.1287 -0.1276
  659MOL0     O88861   7.998   7.793  11.685 -0.5607 -1.5198  0.0874
  659MOL0     C88862   7.859   7.767  11.681 -0.3324  0.0547  0.4609
  659MOL0     C88863   7.821   7.653  11.628  0.1851  1.0065  0.5181
  659MOL0     C88864   7.685   7.628  11.621 -0.6847  0.3971 -0.6508
  659MOL0     C88865   7.590   7.725  11.656  0.3566 -0.3516 -0.1985
  659MOL0     O88866   7.457   7.704  11.640  0.1499 -0.3693 -0.6237
  659MOL0     C88867   7.414   7.660  11.511 -0.0531  0.4533  0.1788
  659MOL0     C88868   7.273   7.706  11.484 -0.2732 -0.2358 -0.1832
  659MOL0     C88869   7.191   7.605  11.408  0.1193 -0.6910 -0.1337
  659MOL0     C88870   7.040   7.601  11.435 -0.1137 -0.2346  0.4174
  659MOL0     C88871   6.958   7.688  11.348 -0.5946  0.4334 -0.4823
  659MOL0     C88872   6.824   7.692  11.400  0.6718 -0.1906  0.1587
  659MOL0     C88873   6.730   7.796  11.345 -0.6655 -0.6570 -0.3586
  659MOL0     C88874   6.665   7.752  11.216  0.3995  0.0345  0.0085
  659MOL0    Cl88875   6.502   7.841  11.204 -0.3050  0.3545  0.1642
  659MOL0     C88876   7.630   7.851  11.706  0.7045  0.5710 -0.3187
  659MOL0     C88877   7.771   7.866  11.717 -0.3983  1.1874 -0.4520
  659MOL0     O88878   7.984   7.896  11.481  0.1043 -0.0425  0.9370
  659MOL0     C88879   8.286   7.849  11.628 -0.0642  0.1334  0.3532
  659MOL0     C88880   8.419   7.905  11.639 -0.2078  0.1841 -0.7542
  659MOL0     N88881   9.121   8.407  11.699 -0.5454  0.3213  0.2756
  659MOL0     N88882   9.201   8.452  11.608 -0.2314  0.4542 -0.2024
  659MOL0     C88883  10.277   8.339  10.910 -0.9694  0.7338 -0.0521
  659MOL0     C88884  10.413   8.341  10.865  0.9949  0.4615  1.5854
  659MOL0     C88885  10.795   8.187  10.720 -0.7947  0.4757  0.1009
  659MOL0     C88886  10.898   8.259  10.788 -0.7593  0.5210  0.6251
  659MOL0     C88887  11.032   8.244  10.745 -0.4010 -0.9194 -0.1194
  659MOL0     C88888  11.071   8.158  10.636 -0.6701  0.2794  0.7285
  659MOL0     O88889  11.196   8.127  10.608 -0.3202 -0.3198  0.0958
  659MOL0     C88890  11.303   8.180  10.688 -0.3685 -0.5403 -1.0233
  659MOL0     C88891  11.437   8.103  10.675 -0.0745  0.2644 -0.7569
  659MOL0     C88892  11.455   7.981  10.781 -0.2833 -0.3809  0.0241
  659MOL0     C88893  11.462   8.020  10.932  1.2837 -0.1946 -0.3714
  659MOL0     C88894  11.595   8.016  10.989  0.1354  0.5223 -1.3157
  659MOL0     C88895  11.715   8.003  11.027  0.3829  0.3815  0.1126
  659MOL0     C88896  10.963   8.093  10.578 -0.2864  0.8132  0.7104
  659MOL0     C88897  10.824   8.114  10.608  0.0355  0.6172  0.1462
  659MOL0     H88898  10.543   8.107  11.078 -2.1064  1.3630  2.1815
  659MOL0     H88899  10.303   8.094  11.143  3.7908 -0.0419  1.5280
  659MOL0     H88900  10.072   8.061  11.122 -1.8022 -0.2936 -0.1398
  659MOL0     H88901  10.081   8.199  11.225 -0.6756 -0.3847  0.4744
  659MOL0     H88902   9.869   8.293  11.106 -0.3977 -1.0548  0.7636
  659MOL0     H88903   9.864   8.139  11.019 -1.4031 -0.3172  0.0705
  659MOL0     H88904   9.834   8.028  11.256  2.3680  0.8088  0.2793
  659MOL0     H88905   9.881   8.173  11.325 -3.3778  3.0935  0.8445
  659MOL0     H88906   9.693   8.298  11.245  1.5461  0.5931  2.5659
  659MOL0     H88907   9.625   8.148  11.175 -1.6313  2.6920  0.2032
  659MOL0     H88908   9.619   8.042  11.396 -0.8958  0.7980  0.3273
  659MOL0     H88909   9.658   8.197  11.462  0.9642  0.9344 -1.3598
  659MOL0     H88910   9.414   8.144  11.276  0.5597 -0.0039 -0.7860
  659MOL0     H88911   9.404   8.146  11.452 -0.1417 -0.8560 -1.4899
  659MOL0     H88912   9.476   8.371  11.468 -0.1536  0.8394  0.0705
  659MOL0     H88913   9.486   8.394  11.296 -0.1138  2.3754  0.8211
  659MOL0     H88914   9.227   8.339  11.292 -0.1716  0.7693  0.0777
  659MOL0     H88915   9.277   8.495  11.369  1.7097  0.0755  1.9648
  659MOL0     H88916   9.095   8.170  11.476  3.1008 -0.3683 -1.0088
  659MOL0     H88917   8.985   8.114  11.705 -0.4550  0.9342 -1.8186
  659MOL0     H88918   9.012   8.234  11.844 -0.6849  2.7389 -0.5081
  659MOL0     H88919   8.801   8.363  11.747 -1.0394  0.1541 -0.6951
  659MOL0     H88920   8.771   8.196  11.807 -0.5430 -1.2330 -0.7243
  659MOL0     H88921   8.841   8.157  11.533  0.4958  0.9461 -1.9177
  659MOL0     H88922   8.802   8.323  11.536  0.9967 -0.2878  0.5210
  659MOL0     H88923   8.604   8.219  11.471  1.7794 -2.4335 -1.5516
  659MOL0     H88924   8.582   8.285  11.640  0.6625  0.5923 -0.3109
  659MOL0     H88925   8.339   8.228  11.586 -1.2312 -0.3709 -0.2678
  659MOL0     H88926   8.007   8.150  11.621 -1.7759  0.4980 -2.5086
  659MOL0     H88927   8.108   8.270  11.534  0.3999 -0.1309 -4.0580
  659MOL0     H88928   8.028   8.142  11.452  0.3113 -0.7795 -1.0105
  659MOL0     H88929   7.889   7.583  11.581 -1.4565  1.5453 -3.0128
  659MOL0     H88930   7.660   7.535  11.571  0.5673 -0.9368  1.1099
  659MOL0     H88931   7.461   7.722  11.435 -3.8304  0.6973 -2.1866
  659MOL0     H88932   7.430   7.554  11.486 -1.0796  0.1384  0.7747
  659MOL0     H88933   7.219   7.725  11.578 -3.2691  0.3239 -1.8679
  659MOL0     H88934   7.285   7.806  11.442  1.2793 -1.1022 -1.9274
  659MOL0     H88935   7.223   7.508  11.445  1.0375  0.5727  2.6390
  659MOL0     H88936   7.207   7.613  11.300  2.3712  1.0241  0.2333
  659MOL0     H88937   7.000   7.501  11.420 -1.8234  0.4774  0.0280
  659MOL0     H88938   7.023   7.625  11.541  0.1325  0.1874  0.3677
  659MOL0     H88939   6.960   7.647  11.247  2.3708 -0.1550 -0.2633
  659MOL0     H88940   7.008   7.784  11.362 -0.3991  0.0672  1.6910
  659MOL0     H88941   6.778   7.595  11.379  1.0157 -0.6523  1.4310
  659MOL0     H88942   6.803   7.708  11.506  0.0912  2.1494 -0.2595
  659MOL0     H88943   6.783   7.891  11.333 -1.6259 -0.1010 -0.3220
  659MOL0     H88944   6.649   7.832  11.409 -0.5892  1.8494 -1.5298
  659MOL0     H88945   6.656   7.643  11.222 -0.7626  0.2001  1.9725
  659MOL0     H88946   6.730   7.782  11.132 -3.2576  1.2989 -2.6307
  659MOL0     H88947   7.564   7.936  11.715 -0.0337  0.0454 -0.6907
  659MOL0     H88948   7.800   7.968  11.741  1.4736  1.3680 -3.0696
  659MOL0     H88949   8.269   7.743  11.637  1.3117 -0.1669 -0.4141
  659MOL0     H88950   8.490   7.837  11.686 -1.8308 -0.5904  0.7006
  659MOL0     H88951  10.203   8.404  10.866 -0.9109  1.4254  0.8398
  659MOL0     H88952  10.457   8.409  10.793  2.2774  1.2071  3.0139
  659MOL0     H88953  10.873   8.335  10.861  0.0121  0.2098  1.2215
  659MOL0     H88954  11.098   8.317  10.790  1.0301 -2.7845  0.9557
  659MOL0     H88955  11.328   8.283  10.658  1.1522 -0.4139  0.5572
  659MOL0     H88956  11.271   8.183  10.792  2.1044  2.0493 -0.2123
  659MOL0     H88957  11.509   8.185  10.686 -4.2703  4.3424 -0.3301
  659MOL0     H88958  11.443   8.061  10.574  2.1354 -0.3609 -0.4172
  659MOL0     H88959  11.544   7.923  10.755 -0.4914  0.4903 -3.1179
  659MOL0     H88960  11.358   7.929  10.776  0.1897 -1.3114  0.3804
  659MOL0     H88961  11.392   7.957  10.988 -1.7386  2.3598 -0.9620
  659MOL0     H88962  11.431   8.124  10.949 -0.3842 -0.5629 -0.9187
  659MOL0     H88963  11.817   8.002  11.059  0.7647 -5.2522 -0.2925
  659MOL0     H88964  10.979   8.011  10.508  0.7383 -0.0371  1.9031
  659MOL0     H88965  10.749   8.055  10.554  1.0444 -0.2638 -0.3378
  660MOL0     O88966   9.205   5.079   2.197  0.3418  0.2698 -0.3292
  660MOL0     C88967   9.218   5.142   2.096  0.6056 -0.5869  0.3952
  660MOL0     O88968   9.117   5.209   2.025 -0.0438  0.3785 -0.5992
  660MOL0     C88969   8.991   5.176   2.057  0.3573  0.1287  0.3585
  660MOL0     C88970   8.898   5.284   2.055 -0.5759 -1.1954  0.3783
  660MOL0     C88971   8.765   5.264   2.076  0.2581 -0.6170 -0.1816
  660MOL0     C88972   8.720   5.135   2.101 -0.4858  0.0372  0.1716
  660MOL0     O88973   8.584   5.122   2.093  0.4672 -0.0653 -0.1159
  660MOL0     C88974   8.525   4.994   2.058  0.0776 -0.1307 -0.2097
  660MOL0     C88975   8.558   4.929   1.924  0.2041  0.3625 -0.1934
  660MOL0     C88976   8.532   5.036   1.805  0.2948  1.1243  0.0845
  660MOL0     C88977   8.537   4.974   1.664 -0.4602  0.5751 -0.2428
  660MOL0     C88978   8.530   5.074   1.545  0.2230 -0.1496 -0.3467
  660MOL0     C88979   8.498   4.998   1.411 -0.6322  0.5972  0.5080
  660MOL0     C88980   8.365   4.926   1.399 -0.1190 -1.0697  0.7468
  660MOL0     C88981   8.240   5.002   1.443  0.5515 -0.1554  0.2904
  660MOL0     N88982   8.120   4.928   1.413  0.1360 -0.1104 -0.6265
  660MOL0     C88983   8.016   4.923   1.507 -0.2068 -0.3082  0.1989
  660MOL0     C88984   7.916   4.863   1.429 -0.7799 -0.4173  0.2095
  660MOL0     C88985   7.775   4.860   1.473  0.1378 -0.4054 -0.0542
  660MOL0     C88986   7.758   4.838   1.629 -0.8575 -0.1617 -0.3888
  660MOL0     C88987   7.613   4.843   1.684  0.2743 -0.9814  0.9647
  660MOL0     C88988   7.625   4.808   1.830  0.4256 -0.4454 -0.9815
  660MOL0     O88989   7.628   4.665   1.866  0.2395  0.4511  0.8255
  660MOL0     C88990   7.513   4.587   1.861 -0.1801 -0.0212 -0.2843
  660MOL0     C88991   7.533   4.453   1.891 -0.5066 -0.1677 -0.3738
  660MOL0     C88992   7.433   4.354   1.869 -0.2972 -0.3684  0.5841
  660MOL0     C88993   7.476   4.214   1.876  0.2579  0.4920 -0.1960
  660MOL0     C88994   7.301   4.394   1.830 -0.9056 -0.1406  0.9350
  660MOL0     C88995   7.187   4.302   1.816  0.3400  0.2242 -0.2192
  660MOL0     O88996   7.093   4.339   1.718  0.5664 -0.3842 -0.1505
  660MOL0     C88997   6.978   4.264   1.724 -0.0923 -0.7822  0.0352
  660MOL0     C88998   6.909   4.238   1.609  1.2144  0.1484 -0.4894
  660MOL0     C88999   6.784   4.168   1.609 -0.1298  0.5570 -0.1434
  660MOL0     C89000   6.725   4.146   1.737  0.2555 -0.2786 -0.1230
  660MOL0     O89001   6.600   4.102   1.756  0.3401  0.1432  0.2508
  660MOL0     C89002   6.499   4.118   1.655 -0.3943  0.7826  0.7909
  660MOL0     C89003   6.371   4.048   1.694  0.5129  0.0719  0.6156
  660MOL0     C89004   6.273   4.027   1.586  0.3495 -0.4778 -0.3499
  660MOL0     C89005   6.139   3.996   1.631  0.7222 -0.2046  0.1716
  660MOL0     C89006   6.027   4.024   1.538 -0.0436  0.0543  0.0719
  660MOL0     C89007   5.948   4.158   1.569  0.6642  0.9011 -0.1960
  660MOL0     C89008   5.872   4.203   1.437 -0.4723  0.2762 -0.2938
  660MOL0     C89009   5.757   4.104   1.393 -0.4421 -0.4873  1.1988
  660MOL0    Cl89010   5.628   4.110   1.500 -0.1246  0.1306 -0.0419
  660MOL0     C89011   6.795   4.156   1.854  0.6362 -0.0872  0.5039
  660MOL0     C89012   6.914   4.225   1.848 -0.0555  0.5400 -0.1355
  660MOL0     O89013   7.198   4.188   1.869 -0.6549  0.2533  0.1415
  660MOL0     C89014   7.287   4.534   1.810  0.7570 -0.4484 -0.6410
  660MOL0     C89015   7.394   4.625   1.821  0.8333 -0.1004 -0.5713
  660MOL0     N89016   7.961   4.842   1.301  0.0254  0.3893 -0.5966
  660MOL0     N89017   8.074   4.897   1.291  0.1824  0.2962  0.4458
  660MOL0     C89018   8.810   5.022   2.101 -1.1550 -0.0712  0.5359
  660MOL0     C89019   8.941   5.046   2.088  0.1384  0.8012  0.5322
  660MOL0     C89020   9.363   5.151   2.058  0.2835 -0.1802  0.5542
  660MOL0     C89021   9.397   5.209   1.935 -0.5214  0.6556  0.5410
  660MOL0     C89022   9.536   5.229   1.892 -0.1228  0.1124 -0.5446
  660MOL0     C89023   9.642   5.172   1.978 -0.1668  0.3105 -0.5975
  660MOL0     O89024   9.774   5.165   1.942  0.1429  0.0157  0.9524
  660MOL0     C89025   9.810   5.193   1.800 -0.1852 -0.1432 -0.0030
  660MOL0     C89026   9.953   5.162   1.771 -0.5302 -0.0899 -0.4899
  660MOL0     C89027  10.046   5.208   1.881  0.0570 -0.3326  0.6845
  660MOL0     C89028  10.062   5.088   1.975 -0.0904  0.3666  0.9700
  660MOL0     C89029  10.171   5.076   2.066 -0.8327 -0.3066  0.4857
  660MOL0     C89030  10.268   5.078   2.139  0.2410 -0.6611 -0.3786
  660MOL0     C89031   9.608   5.111   2.097  0.3425 -0.4166  0.0785
  660MOL0     C89032   9.473   5.099   2.133  0.2649 -0.3771  0.6385
  660MOL0     H89033   8.931   5.384   2.028 -2.1090 -0.7578 -0.0133
  660MOL0     H89034   8.699   5.349   2.061  0.3888 -0.8525 -2.3502
  660MOL0     H89035   8.551   4.920   2.133 -0.1977  0.1822  0.1974
  660MOL0     H89036   8.416   5.004   2.062 -0.4901 -4.1551 -1.5752
  660MOL0     H89037   8.660   4.888   1.929 -0.2751 -1.0666 -1.3952
  660MOL0     H89038   8.493   4.841   1.918  1.3881 -0.5077 -0.6758
  660MOL0     H89039   8.431   5.076   1.819 -1.2689 -2.0904 -1.1078
  660MOL0     H89040   8.609   5.113   1.820  3.0181 -1.8181  2.6935
  660MOL0     H89041   8.633   4.929   1.634 -0.8765 -0.8085  0.4129
  660MOL0     H89042   8.456   4.901   1.659 -1.2568  1.5008 -1.2647
  660MOL0     H89043   8.446   5.141   1.565 -1.6697 -1.9494 -1.7895
  660MOL0     H89044   8.622   5.130   1.525 -0.0314 -0.3802 -2.3908
  660MOL0     H89045   8.497   5.077   1.336  0.1354 -0.8598 -1.0996
  660MOL0     H89046   8.583   4.930   1.398  0.0886  0.6278  3.9907
  660MOL0     H89047   8.348   4.900   1.294  0.4799  0.2364  0.2932
  660MOL0     H89048   8.367   4.836   1.461 -0.1627 -0.5174  1.5757
  660MOL0     H89049   8.230   5.098   1.391 -1.5374  0.1336  1.1437
  660MOL0     H89050   8.249   5.017   1.551 -2.4287  0.5664  0.5366
  660MOL0     H89051   8.011   4.977   1.601  2.1312 -0.2572  0.3455
  660MOL0     H89052   7.730   4.948   1.427  2.5513 -0.4811 -2.8280
  660MOL0     H89053   7.717   4.785   1.418 -0.1657  2.1471 -3.5983
  660MOL0     H89054   7.815   4.912   1.686 -0.7834  1.6831 -2.7043
  660MOL0     H89055   7.803   4.740   1.642 -0.7642 -0.3435 -1.8339
  660MOL0     H89056   7.539   4.791   1.622 -2.1620  4.4893 -1.4148
  660MOL0     H89057   7.580   4.947   1.672  0.4505 -0.8038  1.9257
  660MOL0     H89058   7.538   4.852   1.880  0.8056 -0.3396 -0.4071
  660MOL0     H89059   7.717   4.852   1.868  0.7503 -1.4633 -0.5574
  660MOL0     H89060   7.633   4.430   1.926 -0.2126 -0.9229 -1.6439
  660MOL0     H89061   7.447   4.171   1.779 -1.5186  2.2119 -0.5053
  660MOL0     H89062   7.581   4.212   1.904 -0.4226  1.7761  2.7697
  660MOL0     H89063   7.417   4.171   1.957 -0.6025  0.2137 -0.9467
  660MOL0     H89064   6.937   4.272   1.510 -2.0816 -0.1803 -1.6745
  660MOL0     H89065   6.738   4.152   1.512  2.1188  1.3665 -1.4222
  660MOL0     H89066   6.481   4.225   1.635 -1.2926  0.0430 -3.2141
  660MOL0     H89067   6.532   4.072   1.562  2.1884 -0.6187  2.3045
  660MOL0     H89068   6.390   3.956   1.750  0.1985 -0.7305 -0.5619
  660MOL0     H89069   6.324   4.118   1.764 -1.3566 -1.7078  1.2113
  660MOL0     H89070   6.300   3.947   1.516  1.0342  1.0832 -1.9622
  660MOL0     H89071   6.266   4.121   1.530  2.1246 -1.1288 -1.7908
  660MOL0     H89072   6.127   3.896   1.673  1.3196 -0.2649  0.1982
  660MOL0     H89073   6.123   4.063   1.717 -2.9466  1.1277 -1.3286
  660MOL0     H89074   5.953   3.945   1.556 -1.8913  1.3861 -1.1956
  660MOL0     H89075   6.058   4.022   1.433 -3.6830 -1.9366 -1.1621
  660MOL0     H89076   5.878   4.144   1.652 -1.4448 -0.2143 -2.0381
  660MOL0     H89077   6.016   4.238   1.599  1.1548  0.0538  1.0148
  660MOL0     H89078   5.946   4.224   1.359 -1.7540  1.7093 -1.1825
  660MOL0     H89079   5.818   4.294   1.467  2.3990  2.1280 -0.3296
  660MOL0     H89080   5.797   4.002   1.391  0.0279 -0.2926  0.1432
  660MOL0     H89081   5.731   4.133   1.291  1.8830  1.4533  1.0535
  660MOL0     H89082   6.744   4.117   1.942 -0.7247  0.4337 -0.0134
  660MOL0     H89083   6.960   4.249   1.944 -0.0891 -0.7765  0.2275
  660MOL0     H89084   7.195   4.580   1.776  1.3759  0.3928 -1.2353
  660MOL0     H89085   7.382   4.732   1.811  4.1568  0.3433 -0.8477
  660MOL0     H89086   8.786   4.918   2.122  1.9721 -0.8722  0.6771
  660MOL0     H89087   9.008   4.962   2.098 -1.9819 -1.0027  0.3885
  660MOL0     H89088   9.312   5.233   1.873  0.1582  0.2765 -0.5554
  660MOL0     H89089   9.554   5.269   1.793 -3.1180  0.2417 -1.1035
  660MOL0     H89090   9.748   5.140   1.728  0.8050  0.9113 -1.6850
  660MOL0     H89091   9.812   5.302   1.793  0.8029  0.0108  1.9375
  660MOL0     H89092   9.974   5.214   1.677 -0.0335  1.1274  0.2697
  660MOL0     H89093   9.977   5.058   1.747  0.4125 -0.4831  1.9017
  660MOL0     H89094  10.002   5.297   1.928 -3.2107 -1.0250 -0.7659
  660MOL0     H89095  10.139   5.246   1.838 -1.4872  2.7133 -0.2647
  660MOL0     H89096  10.083   5.005   1.908  2.9555  2.1535 -0.4580
  660MOL0     H89097   9.974   5.064   2.036 -0.1297 -0.7055  0.5244
  660MOL0     H89098  10.366   5.096   2.178 -0.5418  2.6959  0.4071
  660MOL0     H89099   9.684   5.052   2.146  0.1303 -1.8493 -1.2378
  660MOL0     H89100   9.449   5.049   2.226 -1.4612 -0.0308  0.4119
  661MOL0     O89101   4.256   4.428   7.955 -0.5131 -1.0064  0.0089
  661MOL0     C89102   4.223   4.374   7.849  0.7379 -0.1223 -0.8806
  661MOL0     O89103   4.092   4.341   7.810 -0.2320  0.3280  0.2576
  661MOL0     C89104   3.990   4.359   7.895 -0.0688  0.4834  0.4440
  661MOL0     C89105   3.892   4.267   7.879 -0.1540 -0.5244  0.6910
  661MOL0     C89106   3.771   4.282   7.944  0.2401 -0.3149  0.3520
  661MOL0     C89107   3.736   4.400   8.012  0.0305  0.7782  0.0220
  661MOL0     O89108   3.608   4.407   8.059  0.1253  0.5622 -0.2886
  661MOL0     C89109   3.558   4.528   8.119  0.1003 -0.2757  0.1821
  661MOL0     C89110   3.401   4.537   8.103  0.0494  0.5611 -0.5244
  661MOL0     C89111   3.353   4.562   7.960  0.0947  0.4814 -0.0314
  661MOL0     C89112   3.197   4.549   7.940 -0.3760 -1.0204  0.4332
  661MOL0     C89113   3.142   4.587   7.802 -0.3587  0.3626 -0.5096
  661MOL0     C89114   2.990   4.560   7.778 -0.5558 -0.0718  0.6657
  661MOL0     C89115   2.962   4.408   7.761 -0.3042 -0.4673 -0.4720
  661MOL0     C89116   2.817   4.403   7.708 -0.9047 -0.4870  0.6913
  661MOL0     N89117   2.767   4.268   7.712 -0.4402  0.0827 -0.5671
  661MOL0     C89118   2.712   4.219   7.829  1.0136  0.2688  0.0041
  661MOL0     C89119   2.644   4.115   7.789  0.2896 -0.6220 -0.1114
  661MOL0     C89120   2.572   4.029   7.898 -0.2492 -0.5305 -0.1076
  661MOL0     C89121   2.450   4.097   7.955 -0.6444 -0.3477 -0.3907
  661MOL0     C89122   2.327   4.009   7.975 -0.1053 -0.2639  0.1067
  661MOL0     C89123   2.196   4.088   7.977 -0.0369  0.4800 -0.8086
  661MOL0     O89124   2.162   4.135   8.112 -0.2661  0.6645  0.2203
  661MOL0     C89125   2.040   4.111   8.146  0.5246 -0.1682  0.4485
  661MOL0     C89126   1.933   4.153   8.063 -0.4306 -0.4087 -0.5544
  661MOL0     C89127   1.806   4.120   8.105 -0.2810  0.1101  0.3946
  661MOL0     C89128   1.691   4.147   8.015 -0.1219 -0.0314 -0.1948
  661MOL0     C89129   1.786   4.034   8.222 -0.3993 -0.8218  0.6887
  661MOL0     C89130   1.658   3.982   8.274  0.5241  0.3036 -0.9751
  661MOL0     O89131   1.567   4.075   8.257 -0.1645 -0.0459  0.6392
  661MOL0     C89132   1.428   4.051   8.254  0.3013  0.2271 -0.5156
  661MOL0     C89133   1.361   3.939   8.202  0.3857  0.1990  1.3169
  661MOL0     C89134   1.218   3.926   8.211 -0.1327 -1.1106 -0.3405
  661MOL0     C89135   1.139   4.022   8.273 -0.1395 -1.0334 -0.6812
  661MOL0     O89136   1.002   4.009   8.294  0.2790 -0.1870  0.0856
  661MOL0     C89137   0.932   3.893   8.258  0.1746 -0.4078 -0.8395
  661MOL0     C89138   0.873   3.894   8.118 -0.4765 -0.1338 -0.1402
  661MOL0     C89139   0.788   4.017   8.094 -0.5584 -0.5418 -0.2028
  661MOL0     C89140   0.661   4.007   8.178  1.1694  0.3741 -0.4489
  661MOL0     C89141   0.564   4.109   8.127  0.3594 -0.1418  0.7029
  661MOL0     C89142   0.426   4.081   8.192  0.1720  0.0498 -0.3486
  661MOL0     C89143   0.426   4.137   8.332  0.6197 -0.5021 -0.7190
  661MOL0     C89144   0.291   4.117   8.409 -0.2573 -0.5716  0.9102
  661MOL0    Cl89145   0.159   4.175   8.288 -0.2464 -0.1432  0.1328
  661MOL0     C89146   1.210   4.132   8.316 -0.1075 -0.2820 -0.4072
  661MOL0     C89147   1.344   4.150   8.305 -0.3074  0.6194  0.4089
  661MOL0     O89148   1.649   3.886   8.358 -0.2698 -0.8699 -0.1873
  661MOL0     C89149   1.900   4.005   8.297  0.2544  0.0068 -0.0930
  661MOL0     C89150   2.021   4.045   8.261 -0.4556  0.1660  0.8609
  661MOL0     N89151   2.651   4.088   7.654 -0.1499  0.5262 -0.7648
  661MOL0     N89152   2.738   4.179   7.612  0.1860  0.5260 -0.3714
  661MOL0     C89153   3.840   4.494   8.022 -0.3576  0.1090 -0.1371
  661MOL0     C89154   3.972   4.479   7.969 -0.1476 -0.0905 -0.2774
  661MOL0     C89155   4.329   4.340   7.751 -0.0235 -1.0063 -0.1792
  661MOL0     C89156   4.462   4.390   7.767 -0.2799 -0.1546 -0.6587
  661MOL0     C89157   4.565   4.364   7.678  1.0775 -0.7606 -0.0451
  661MOL0     C89158   4.538   4.284   7.567  0.1237  0.2974 -0.6138
  661MOL0     O89159   4.660   4.275   7.500 -0.4328  0.3379 -0.3063
  661MOL0     C89160   4.653   4.197   7.373  0.0759  0.5028  0.0482
  661MOL0     C89161   4.683   4.048   7.391 -0.2328 -0.1298  1.5348
  661MOL0     C89162   4.804   4.022   7.471 -0.3920  0.1351  0.5157
  661MOL0     C89163   4.941   4.024   7.395  0.3018 -0.2472  0.2580
  661MOL0     C89164   4.990   3.895   7.348  0.1700 -0.7088 -0.0057
  661MOL0     C89165   5.039   3.789   7.315  0.0895  0.1329  0.0430
  661MOL0     C89166   4.410   4.238   7.547  0.2390 -0.3804  0.3051
  661MOL0     C89167   4.302   4.267   7.632  0.5348 -0.4335  0.0283
  661MOL0     H89168   3.911   4.179   7.819  1.2394  0.4965 -0.4531
  661MOL0     H89169   3.702   4.198   7.938  3.2858 -2.9389 -0.6595
  661MOL0     H89170   3.595   4.514   8.221  1.7679  0.6416 -0.2657
  661MOL0     H89171   3.608   4.618   8.083  0.3579 -0.5615 -0.1749
  661MOL0     H89172   3.363   4.441   8.140  0.7175  0.4303 -0.1611
  661MOL0     H89173   3.361   4.614   8.169  2.2892  1.6396 -0.3170
  661MOL0     H89174   3.383   4.657   7.914  0.8249  0.4891  0.4527
  661MOL0     H89175   3.397   4.483   7.899 -1.3040 -1.2475  1.0899
  661MOL0     H89176   3.174   4.446   7.972  0.2485 -1.5363 -0.7128
  661MOL0     H89177   3.138   4.608   8.011  0.4619 -1.7352  1.7494
  661MOL0     H89178   3.166   4.690   7.774  1.4174 -0.1556 -0.9860
  661MOL0     H89179   3.184   4.518   7.728 -1.0211  1.9275 -2.4148
  661MOL0     H89180   2.928   4.599   7.859 -1.8200  2.0638 -1.2227
  661MOL0     H89181   2.966   4.616   7.687  1.8381  0.2490  0.1593
  661MOL0     H89182   3.025   4.359   7.686  0.4240  1.1087 -0.9412
  661MOL0     H89183   2.976   4.365   7.860  0.8872 -1.2013 -0.9289
  661MOL0     H89184   2.825   4.436   7.604  2.8300 -0.6889  0.7702
  661MOL0     H89185   2.756   4.470   7.769  2.6185  3.5003  0.2158
  661MOL0     H89186   2.705   4.252   7.932  2.1906 -0.6815  0.4176
  661MOL0     H89187   2.542   3.935   7.851 -2.1219 -0.6907  1.2678
  661MOL0     H89188   2.641   4.014   7.981 -1.0958  0.7568  0.8790
  661MOL0     H89189   2.421   4.185   7.898 -0.4862  0.6648  1.0482
  661MOL0     H89190   2.473   4.142   8.052 -1.7142 -0.5991 -0.0038
  661MOL0     H89191   2.328   3.939   8.059 -1.1789 -2.8385 -1.8915
  661MOL0     H89192   2.324   3.941   7.890  0.2013  0.5753 -0.5960
  661MOL0     H89193   2.115   4.028   7.935 -0.9320 -0.2943  1.8007
  661MOL0     H89194   2.193   4.173   7.908 -0.1514 -0.1062 -1.5375
  661MOL0     H89195   1.946   4.206   7.969 -0.0681 -0.3818 -0.4887
  661MOL0     H89196   1.626   4.219   8.064  0.5592 -0.3191  1.1937
  661MOL0     H89197   1.740   4.181   7.923  2.9679 -0.4729  1.1693
  661MOL0     H89198   1.635   4.058   7.982  1.1173 -0.2098 -2.0119
  661MOL0     H89199   1.419   3.861   8.154  3.1924  3.7146 -1.5556
  661MOL0     H89200   1.185   3.831   8.171  0.5803 -2.3370  1.8390
  661MOL0     H89201   0.997   3.806   8.273  0.2198  0.0489  2.2998
  661MOL0     H89202   0.863   3.864   8.337  2.2186 -2.9533  0.1676
  661MOL0     H89203   0.961   3.903   8.053 -1.5767  2.0903 -1.4498
  661MOL0     H89204   0.807   3.809   8.100 -1.4131  0.4914  0.2620
  661MOL0     H89205   0.768   4.031   7.987  1.0690  0.5761 -0.4072
  661MOL0     H89206   0.857   4.098   8.117  2.6467 -3.2610  0.4779
  661MOL0     H89207   0.622   3.906   8.167 -1.0525  1.1607 -0.4947
  661MOL0     H89208   0.672   4.036   8.283  0.6679 -2.4744  0.4710
  661MOL0     H89209   0.558   4.109   8.018  2.2981 -0.7383  0.5616
  661MOL0     H89210   0.603   4.210   8.146  0.6437  0.3318 -1.9979
  661MOL0     H89211   0.357   4.144   8.135  1.0092 -0.3237 -1.8448
  661MOL0     H89212   0.390   3.978   8.187  0.7550 -0.1319 -1.2859
  661MOL0     H89213   0.443   4.244   8.320 -1.8536  0.6472  3.7451
  661MOL0     H89214   0.501   4.098   8.401  0.3253 -2.8875 -1.6278
  661MOL0     H89215   0.295   4.194   8.487  0.1861  3.4678 -2.7358
  661MOL0     H89216   0.270   4.019   8.454  4.0418 -1.4773  1.3977
  661MOL0     H89217   1.156   4.208   8.373 -1.0795 -1.2998  0.0755
  661MOL0     H89218   1.386   4.244   8.339  1.3506 -0.2985  1.0599
  661MOL0     H89219   1.899   3.942   8.385  4.4775 -0.1836  0.0417
  661MOL0     H89220   2.105   4.014   8.323 -1.0817 -1.0508  1.1225
  661MOL0     H89221   3.830   4.584   8.081  1.8401 -0.3751  1.0843
  661MOL0     H89222   4.047   4.555   7.986  0.0538 -0.2839 -0.3054
  661MOL0     H89223   4.465   4.461   7.849 -3.0456  0.3412 -0.9045
  661MOL0     H89224   4.658   4.420   7.690  1.4094 -1.4032  0.4170
  661MOL0     H89225   4.556   4.207   7.323 -0.2598 -0.8925  0.3988
  661MOL0     H89226   4.725   4.236   7.301  0.1064 -1.4700 -1.0569
  661MOL0     H89227   4.683   4.002   7.292  2.3676  1.1678  0.8368
  661MOL0     H89228   4.597   4.007   7.445 -1.6523  3.0964  1.9594
  661MOL0     H89229   4.790   3.918   7.502  0.1562 -0.2098 -0.3673
  661MOL0     H89230   4.793   4.077   7.566  0.7666 -2.6753  2.4093
  661MOL0     H89231   5.015   4.048   7.472 -1.6506 -1.8140  2.8231
  661MOL0     H89232   4.941   4.105   7.322 -0.2728 -1.4366 -1.1116
  661MOL0     H89233   5.096   3.703   7.289 -0.5811  0.4289 -2.7089
  661MOL0     H89234   4.388   4.172   7.464 -2.9199 -1.7438  2.0268
  661MOL0     H89235   4.198   4.239   7.619  0.1159 -1.1525  3.9564
  662MOL0     O89236   6.324   9.197   8.103  0.6421  0.2665 -0.5627
  662MOL0     C89237   6.273   9.267   8.014 -0.5190 -0.3406  0.3006
  662MOL0     O89238   6.142   9.271   7.977  0.1721 -0.1827  0.0629
  662MOL0     C89239   6.048   9.218   8.062  0.2769 -0.4515 -0.1190
  662MOL0     C89240   5.949   9.159   7.990  0.3511 -1.1254 -0.1747
  662MOL0     C89241   5.843   9.096   8.064  0.4316 -1.3268  0.1423
  662MOL0     C89242   5.840   9.088   8.205  0.1465 -0.6194 -0.1281
  662MOL0     O89243   5.737   9.027   8.271 -0.1311 -0.1060 -0.1870
  662MOL0     C89244   5.768   8.947   8.386  0.8052  0.3323  0.1062
  662MOL0     C89245   5.655   8.855   8.395 -0.5551 -0.2529  0.3076
  662MOL0     C89246   5.544   8.920   8.477 -0.0433  0.7100 -0.1876
  662MOL0     C89247   5.411   8.839   8.473  0.2645  0.1998  0.2131
  662MOL0     C89248   5.289   8.911   8.526 -0.6931  0.2669  0.3666
  662MOL0     C89249   5.163   8.843   8.475  1.3342  0.3421 -0.2117
  662MOL0     C89250   5.046   8.933   8.524 -1.7626 -0.0800 -0.2939
  662MOL0     C89251   4.907   8.866   8.527  0.2145 -0.0135  0.7737
  662MOL0     N89252   4.884   8.798   8.397  0.5655 -0.3469  0.3670
  662MOL0     C89253   4.845   8.862   8.282 -1.4760 -0.1003 -0.3727
  662MOL0     C89254   4.841   8.768   8.183  0.6855 -0.3711  0.1010
  662MOL0     C89255   4.790   8.791   8.041  0.2032  0.1484  0.0794
  662MOL0     C89256   4.645   8.745   8.018 -0.2276  0.1250 -0.5864
  662MOL0     C89257   4.534   8.832   8.092 -0.0771  0.1955 -0.0156
  662MOL0     C89258   4.401   8.810   8.025 -0.4818 -0.3685 -0.6338
  662MOL0     O89259   4.352   8.672   8.033 -0.4272 -0.3029  0.8062
  662MOL0     C89260   4.223   8.670   8.085  0.0974  0.3288 -0.0186
  662MOL0     C89261   4.206   8.590   8.198 -1.1537  0.1226  0.3228
  662MOL0     C89262   4.087   8.601   8.265 -0.8437  0.2597  0.0999
  662MOL0     C89263   4.066   8.495   8.367  0.6189  0.0089  0.4983
  662MOL0     C89264   3.979   8.681   8.225 -0.2340  0.0409 -0.0237
  662MOL0     C89265   3.853   8.692   8.307  0.2059 -0.3676 -0.0902
  662MOL0     O89266   3.745   8.727   8.230  0.4924  0.2474 -0.9637
  662MOL0     C89267   3.627   8.744   8.306 -0.4241  0.4969 -0.2483
  662MOL0     C89268   3.513   8.685   8.245 -0.1528  0.0040  0.0936
  662MOL0     C89269   3.383   8.722   8.284 -0.8386 -0.9318  0.9901
  662MOL0     C89270   3.363   8.817   8.388  0.7272  0.5751  0.2558
  662MOL0     O89271   3.240   8.861   8.424  0.4600  0.0751  0.4965
  662MOL0     C89272   3.217   8.941   8.542 -0.7945  0.3776  0.0779
  662MOL0     C89273   3.073   8.913   8.590  0.3984  0.7171  0.4627
  662MOL0     C89274   2.965   8.953   8.487  0.9140  0.5105 -0.0263
  662MOL0     C89275   2.918   9.090   8.531  0.3878 -0.3289 -0.5403
  662MOL0     C89276   2.777   9.127   8.462 -0.8966 -0.0707 -0.0475
  662MOL0     C89277   2.654   9.041   8.512 -0.0475  0.4179 -0.0244
  662MOL0     C89278   2.530   9.130   8.530 -0.6308  0.6500 -0.2501
  662MOL0     C89279   2.404   9.047   8.540 -0.4352  0.1535 -0.4271
  662MOL0    Cl89280   2.405   8.957   8.691 -0.0915  0.3268 -0.1172
  662MOL0     C89281   3.480   8.864   8.457 -0.2774 -0.4113  0.5240
  662MOL0     C89282   3.612   8.830   8.419  0.3189 -0.3113  0.6683
  662MOL0     O89283   3.855   8.683   8.430  0.4397  1.1107  0.1879
  662MOL0     C89284   4.001   8.756   8.112  0.9341  0.4409  0.1950
  662MOL0     C89285   4.118   8.743   8.032 -0.3015  0.0229 -0.8742
  662MOL0     N89286   4.864   8.646   8.245 -0.1820 -0.7260  0.4232
  662MOL0     N89287   4.893   8.667   8.365  0.5752  0.8534  0.6012
  662MOL0     C89288   5.940   9.155   8.278  1.3117 -0.3558  0.2471
  662MOL0     C89289   6.037   9.223   8.209  0.8247  0.5665 -0.0030
  662MOL0     C89290   6.365   9.356   7.953 -0.4938 -0.3103  0.1199
  662MOL0     C89291   6.501   9.379   7.989 -0.3053 -0.3398  0.6771
  662MOL0     C89292   6.571   9.473   7.913  0.0252 -0.1396  0.4973
  662MOL0     C89293   6.521   9.523   7.789  0.1372  0.1674 -0.1955
  662MOL0     O89294   6.585   9.615   7.708 -0.1570  0.2212 -0.0293
  662MOL0     C89295   6.674   9.720   7.758 -0.4278 -0.8358 -1.0145
  662MOL0     C89296   6.807   9.713   7.682 -0.7045 -0.4575  0.7135
  662MOL0     C89297   6.797   9.755   7.537 -0.3682  0.4295  0.3868
  662MOL0     C89298   6.926   9.803   7.473 -0.1896  0.1170  0.6240
  662MOL0     C89299   7.041   9.708   7.469  0.5491  0.4865 -0.2320
  662MOL0     C89300   7.147   9.641   7.482  0.4926  1.0110 -0.6124
  662MOL0     C89301   6.396   9.489   7.752 -0.1147  0.0501  0.0210
  662MOL0     C89302   6.318   9.414   7.830 -0.3762  0.6317 -0.4102
  662MOL0     H89303   5.934   9.169   7.883 -2.2526 -1.1428  0.1034
  662MOL0     H89304   5.755   9.063   8.011 -0.3848  0.9827 -0.0189
  662MOL0     H89305   5.860   8.891   8.369  0.2836 -0.3523 -0.5805
  662MOL0     H89306   5.766   9.003   8.480 -2.4297  0.1557  0.2464
  662MOL0     H89307   5.615   8.847   8.293  2.9613  1.8911 -1.4357
  662MOL0     H89308   5.686   8.762   8.442 -2.0837 -0.2426  1.4174
  662MOL0     H89309   5.580   8.914   8.580 -0.1249  2.1047 -0.0632
  662MOL0     H89310   5.527   9.022   8.443  0.9691  0.8312 -0.3743
  662MOL0     H89311   5.397   8.823   8.365 -0.8808  2.3153  0.0093
  662MOL0     H89312   5.426   8.743   8.523 -0.7742 -0.5946 -0.9419
  662MOL0     H89313   5.285   8.920   8.635 -4.6715  0.3812  0.3600
  662MOL0     H89314   5.296   9.013   8.488 -0.2584 -0.8252 -2.7862
  662MOL0     H89315   5.153   8.850   8.366 -1.8045 -0.9362 -0.1280
  662MOL0     H89316   5.161   8.735   8.492  1.8497  0.0702 -1.6868
  662MOL0     H89317   5.070   8.959   8.627 -0.3490 -1.7557 -0.1609
  662MOL0     H89318   5.043   9.021   8.460  2.3095 -0.7191 -1.6451
  662MOL0     H89319   4.840   8.952   8.529  1.5268  1.1694 -1.6950
  662MOL0     H89320   4.895   8.790   8.605 -3.1953 -0.0865  0.3062
  662MOL0     H89321   4.826   8.968   8.269 -0.7170  0.0702 -0.1640
  662MOL0     H89322   4.804   8.896   8.017  2.5068  0.4536  2.3409
  662MOL0     H89323   4.849   8.734   7.970 -1.4567 -2.7414  0.8405
  662MOL0     H89324   4.622   8.640   8.039 -1.4016  0.0526 -2.0584
  662MOL0     H89325   4.635   8.760   7.911  1.8115  0.4808 -0.7650
  662MOL0     H89326   4.555   8.939   8.082 -1.9690  0.4428 -1.9065
  662MOL0     H89327   4.523   8.805   8.197 -0.8877  2.6804  0.5855
  662MOL0     H89328   4.402   8.831   7.918 -0.1104 -0.4554 -0.6490
  662MOL0     H89329   4.335   8.879   8.079 -2.9199 -2.4162 -0.8430
  662MOL0     H89330   4.284   8.530   8.242 -2.1710 -0.4349  1.4389
  662MOL0     H89331   4.115   8.405   8.330 -0.8984 -0.8320  0.4220
  662MOL0     H89332   4.103   8.531   8.464 -2.0340 -0.8602  1.9600
  662MOL0     H89333   3.960   8.466   8.375  0.5727  0.2406  0.7381
  662MOL0     H89334   3.521   8.614   8.163 -0.6433  0.4509 -0.3458
  662MOL0     H89335   3.296   8.682   8.233 -0.8171 -0.8060  0.8522
  662MOL0     H89336   3.285   8.924   8.626  1.6241 -0.2187 -1.8607
  662MOL0     H89337   3.227   9.048   8.521  0.3222  0.1849 -0.4521
  662MOL0     H89338   3.060   8.805   8.607 -2.1922  0.9274  0.1528
  662MOL0     H89339   3.061   8.964   8.686 -2.5838 -0.8031  1.0279
  662MOL0     H89340   2.882   8.883   8.499  1.8171 -0.7768 -0.9759
  662MOL0     H89341   3.004   8.947   8.385  0.6029  2.6770 -0.3272
  662MOL0     H89342   2.903   9.104   8.638 -1.6417 -0.6735 -0.7247
  662MOL0     H89343   2.992   9.159   8.490  0.1595 -0.1096 -0.5905
  662MOL0     H89344   2.780   9.138   8.353 -3.1858 -3.2169 -0.5816
  662MOL0     H89345   2.761   9.227   8.503 -1.4122 -0.9218  1.9270
  662MOL0     H89346   2.627   8.959   8.444  1.3475 -2.9303  3.0866
  662MOL0     H89347   2.673   8.988   8.606 -3.8324 -3.3715 -1.0796
  662MOL0     H89348   2.525   9.192   8.440 -1.8626  1.9808  0.6994
  662MOL0     H89349   2.559   9.194   8.613  1.7318 -0.0341 -0.4796
  662MOL0     H89350   2.395   8.984   8.450  0.7498 -0.4864 -0.1057
  662MOL0     H89351   2.313   9.107   8.544  0.2623  1.1362  1.5920
  662MOL0     H89352   3.475   8.936   8.538  0.0392  0.4594 -0.2109
  662MOL0     H89353   3.704   8.882   8.444 -0.7721  1.0522  1.9893
  662MOL0     H89354   3.928   8.826   8.071  0.3856 -0.9509 -1.3229
  662MOL0     H89355   4.133   8.806   7.945  0.5795  0.9379 -0.0936
  662MOL0     H89356   5.958   9.153   8.385  2.2068 -0.7543  0.0971
  662MOL0     H89357   6.115   9.274   8.265  1.1713 -2.1967  2.2076
  662MOL0     H89358   6.553   9.320   8.064  0.0908 -0.6205  0.1862
  662MOL0     H89359   6.673   9.497   7.941  1.3809  0.1192 -3.8844
  662MOL0     H89360   6.624   9.816   7.745 -1.8386 -1.4495 -0.3036
  662MOL0     H89361   6.696   9.711   7.865  2.7999  0.8322 -1.3989
  662MOL0     H89362   6.848   9.613   7.697 -0.3405 -0.0713  2.6346
  662MOL0     H89363   6.862   9.795   7.728  0.5188  0.4670 -2.1777
  662MOL0     H89364   6.724   9.835   7.519 -0.5603  0.0916 -0.3647
  662MOL0     H89365   6.754   9.668   7.487 -2.0866  0.9393  0.9058
  662MOL0     H89366   6.958   9.901   7.508 -2.1374  1.3089 -0.7014
  662MOL0     H89367   6.903   9.826   7.368  3.2712 -3.7480 -1.3089
  662MOL0     H89368   7.228   9.572   7.500 -0.9833 -0.6046  0.0786
  662MOL0     H89369   6.357   9.529   7.659  0.3488 -0.5216 -0.4254
  662MOL0     H89370   6.216   9.398   7.796 -0.9111  0.6628  1.0834
  663MOL0     O89371   6.664   9.721   0.045 -0.9914  0.0241 -1.0013
  663MOL0     C89372   6.634   9.633  -0.037 -0.1103  0.0861 -0.4632
  663MOL0     O89373   6.508   9.621  -0.100 -1.0487  0.1024 -0.0246
  663MOL0     C89374   6.424   9.730  -0.090 -0.0555  0.1649 -0.5332
  663MOL0     C89375   6.383   9.783   0.030 -0.1227 -0.0860  0.3260
  663MOL0     C89376   6.293   9.890   0.023 -0.0202 -0.1530  0.3184
  663MOL0     C89377   6.243   9.939  -0.104  0.5690 -0.0457 -0.1452
  663MOL0     O89378   6.140  10.029  -0.102  0.7277 -0.4689 -0.2341
  663MOL0     C89379   6.129  10.113  -0.214  0.8270 -0.4365 -0.1722
  663MOL0     C89380   6.012  10.215  -0.186  0.6238 -0.2934  1.3402
  663MOL0     C89381   5.872  10.157  -0.181  0.0347  0.5201  0.4982
  663MOL0     C89382   5.798  10.241  -0.069  0.2859 -0.2701 -0.6809
  663MOL0     C89383   5.654  10.208  -0.084 -1.5878 -0.2391 -0.2628
  663MOL0     C89384   5.581  10.280   0.039 -0.3550 -0.4750 -0.8060
  663MOL0     C89385   5.436  10.258   0.070  0.4150  0.6177 -0.1989
  663MOL0     C89386   5.405  10.105   0.087 -0.6291  0.7115  0.2198
  663MOL0     N89387   5.264  10.086   0.133 -0.7543 -0.0109  0.8515
  663MOL0     C89388   5.233  10.011   0.239  0.8979  0.6205 -0.3421
  663MOL0     C89389   5.104  10.048   0.267  0.4778  0.2209  0.0478
  663MOL0     C89390   5.023   9.974   0.371  0.1910 -0.1857 -0.4907
  663MOL0     C89391   4.869   9.995   0.344  0.8944  0.1389  0.0761
  663MOL0     C89392   4.815   9.893   0.246  0.4696 -0.4498 -0.1568
  663MOL0     C89393   4.661   9.890   0.234  0.3255  0.1026 -0.1195
  663MOL0     O89394   4.625   9.806   0.124  0.4123 -0.1901  0.2160
  663MOL0     C89395   4.491   9.768   0.124  0.1989 -0.4535 -0.1001
  663MOL0     C89396   4.380   9.834   0.181 -0.0905  0.3955  0.1716
  663MOL0     C89397   4.250   9.787   0.166 -0.3777 -0.0729 -0.3556
  663MOL0     C89398   4.140   9.873   0.227 -0.4872  0.1237 -0.4473
  663MOL0     C89399   4.225   9.669   0.094  0.0812  0.4161 -0.6885
  663MOL0     C89400   4.086   9.614   0.063 -0.7063  0.6580  0.2196
  663MOL0     O89401   3.974   9.678   0.098  0.3676 -0.8823  0.0951
  663MOL0     C89402   3.848   9.632   0.079 -0.3717 -0.0421 -1.0512
  663MOL0     C89403   3.752   9.701   0.152  0.3352  0.0612  0.0858
  663MOL0     C89404   3.611   9.672   0.137 -0.3629 -0.8366 -0.6267
  663MOL0     C89405   3.571   9.567   0.049 -0.2268  0.0526  0.6744
  663MOL0     O89406   3.434   9.551   0.034 -0.2756 -0.2064 -0.1725
  663MOL0     C89407   3.388   9.447  -0.056  0.4991  0.1303  0.1096
  663MOL0     C89408   3.238   9.470  -0.087  0.4965  0.1836 -0.4738
  663MOL0     C89409   3.144   9.487   0.036  0.3660  0.0666  0.7419
  663MOL0     C89410   2.991   9.483  -0.004  0.3544  1.0589  0.1724
  663MOL0     C89411   2.902   9.453   0.121 -0.4446  0.2273  0.3916
  663MOL0     C89412   2.753   9.425   0.096  0.5212 -0.5115  0.1539
  663MOL0     C89413   2.675   9.440   0.226 -0.7420  0.0439 -0.3442
  663MOL0     C89414   2.522   9.410   0.223  0.2566  0.0777  0.1467
  663MOL0    Cl89415   2.442   9.503   0.080  0.0003  0.4762 -0.4474
  663MOL0     C89416   3.668   9.499  -0.017 -0.8212  0.4076 -0.3031
  663MOL0     C89417   3.803   9.520   0.003  0.0184 -0.1698 -0.9239
  663MOL0     O89418   4.092   9.513  -0.010  0.6532 -0.7482 -0.0870
  663MOL0     C89419   4.339   9.603   0.032 -0.1871 -0.6417  0.2843
  663MOL0     C89420   4.466   9.659   0.045 -0.2598  0.1561 -0.1914
  663MOL0     N89421   5.063  10.135   0.171 -0.3404  0.5752 -0.7143
  663MOL0     N89422   5.160  10.154   0.089 -0.4952  0.2387 -0.5139
  663MOL0     C89423   6.299   9.888  -0.213  0.4139 -0.4317  0.4430
  663MOL0     C89424   6.388   9.786  -0.215 -0.5267  0.4427 -0.1686
  663MOL0     C89425   6.737   9.531  -0.069 -0.0128  0.2973  0.5894
  663MOL0     C89426   6.862   9.545  -0.008 -0.9376  0.8205 -0.5279
  663MOL0     C89427   6.959   9.446  -0.038 -0.2970  0.4985  0.7556
  663MOL0     C89428   6.931   9.339  -0.118 -0.0818  0.0229 -0.1935
  663MOL0     O89429   7.035   9.260  -0.154 -1.0331  0.5776  0.0223
  663MOL0     C89430   7.023   9.183  -0.279 -0.7603  0.3559 -0.0699
  663MOL0     C89431   7.159   9.113  -0.310 -0.3696  0.0171  0.5443
  663MOL0     C89432   7.195   9.001  -0.207  0.3523 -0.2239 -0.2070
  663MOL0     C89433   7.123   8.874  -0.234  0.5365  0.8127  0.1215
  663MOL0     C89434   7.205   8.786  -0.315 -0.3283  0.1595 -0.7964
  663MOL0     C89435   7.285   8.727  -0.374 -0.6590  0.7251  0.3647
  663MOL0     C89436   6.802   9.330  -0.181 -0.0338 -0.6389  0.2192
  663MOL0     C89437   6.707   9.428  -0.154 -0.0733  0.1072 -0.4792
  663MOL0     H89438   6.419   9.729   0.117 -1.7255 -1.3226  0.2693
  663MOL0     H89439   6.253   9.938   0.111 -3.6543  0.1909 -1.3196
  663MOL0     H89440   6.214  10.178  -0.236  1.7034 -2.6059 -4.1450
  663MOL0     H89441   6.114  10.050  -0.302  5.3828 -2.2395  0.0608
  663MOL0     H89442   6.032  10.267  -0.092  0.8311  0.4741  0.8741
  663MOL0     H89443   6.001  10.287  -0.267 -2.7157 -1.8862  0.1824
  663MOL0     H89444   5.826  10.181  -0.277  2.8283  2.3980 -0.5237
  663MOL0     H89445   5.858  10.052  -0.152  0.5999 -1.0097 -4.0607
  663MOL0     H89446   5.825  10.205   0.031 -2.7235 -1.7256 -0.2621
  663MOL0     H89447   5.820  10.347  -0.085  0.0602  0.6462  3.8314
  663MOL0     H89448   5.602  10.242  -0.174 -1.8383 -1.5386 -0.6350
  663MOL0     H89449   5.642  10.099  -0.074 -0.7618 -0.2672  0.5246
  663MOL0     H89450   5.631  10.261   0.134 -1.3911  2.1222  0.3641
  663MOL0     H89451   5.585  10.387   0.019 -3.1672 -0.2336 -0.4854
  663MOL0     H89452   5.406  10.312   0.161  1.6579  0.4471  0.3309
  663MOL0     H89453   5.379  10.292  -0.017  1.3712 -0.4121 -1.2513
  663MOL0     H89454   5.474  10.062   0.160 -1.3988  2.2664  1.9626
  663MOL0     H89455   5.416  10.047  -0.005  1.2722  0.2984  0.6639
  663MOL0     H89456   5.291   9.936   0.293 -1.9262 -2.0598 -0.7016
  663MOL0     H89457   5.046   9.868   0.356  0.8678  0.2422 -2.8667
  663MOL0     H89458   5.048  10.013   0.470 -1.7062 -2.7585  1.1232
  663MOL0     H89459   4.832  10.096   0.324  1.4033  0.1692 -0.7799
  663MOL0     H89460   4.833   9.961   0.441  0.7599 -0.3692 -0.1481
  663MOL0     H89461   4.838   9.794   0.285  0.7076  0.0713  1.0766
  663MOL0     H89462   4.866   9.920   0.152 -1.4598  2.0725 -0.5805
  663MOL0     H89463   4.607   9.985   0.232 -1.2810 -0.7904 -0.3957
  663MOL0     H89464   4.606   9.850   0.320 -0.2751 -0.4328 -0.7452
  663MOL0     H89465   4.389   9.930   0.230  1.3964 -1.0617  2.9513
  663MOL0     H89466   4.061   9.880   0.152 -1.3468 -0.4492  0.3751
  663MOL0     H89467   4.103   9.824   0.318  1.2120  1.6084  1.1285
  663MOL0     H89468   4.172   9.971   0.265 -0.0550 -0.4719  0.7947
  663MOL0     H89469   3.773   9.783   0.220 -2.9201  0.7059  0.5132
  663MOL0     H89470   3.550   9.740   0.194  0.9700  0.7829 -1.0627
  663MOL0     H89471   3.437   9.449  -0.153 -1.2261  2.8388 -0.8443
  663MOL0     H89472   3.411   9.350  -0.011  3.5689 -0.2422 -1.9783
  663MOL0     H89473   3.223   9.555  -0.155  2.6949  3.2970  2.6104
  663MOL0     H89474   3.202   9.378  -0.134 -1.5913  1.2905 -1.1872
  663MOL0     H89475   3.166   9.584   0.079 -2.7416  1.0845  0.3077
  663MOL0     H89476   3.171   9.410   0.109  1.9544 -0.3622 -0.2565
  663MOL0     H89477   2.961   9.578  -0.049 -2.1167 -0.2347 -1.1102
  663MOL0     H89478   2.976   9.407  -0.081 -0.0398 -2.2779  3.2822
  663MOL0     H89479   2.927   9.538   0.185 -1.0218  2.7388 -2.4781
  663MOL0     H89480   2.950   9.368   0.171  0.1481 -0.2848 -1.0163
  663MOL0     H89481   2.705   9.503   0.035  1.2479  0.5103  0.8443
  663MOL0     H89482   2.722   9.330   0.051 -1.5003 -0.0284  0.4243
  663MOL0     H89483   2.672   9.546   0.254 -0.3948  0.1490 -0.6905
  663MOL0     H89484   2.734   9.379   0.294 -0.2252  1.2850  0.3595
  663MOL0     H89485   2.481   9.439   0.320  0.2961  3.5393 -0.7191
  663MOL0     H89486   2.511   9.303   0.208  4.4524 -0.6482  0.9360
  663MOL0     H89487   3.646   9.400  -0.058  1.5747 -1.3558  2.2925
  663MOL0     H89488   3.873   9.456  -0.049  0.0787  0.9672 -2.2988
  663MOL0     H89489   4.322   9.518  -0.033  3.3985  0.3891 -2.3014
  663MOL0     H89490   4.544   9.605  -0.008  2.2923  2.7023  0.7326
  663MOL0     H89491   6.279   9.922  -0.314 -0.3508 -2.0523  0.0139
  663MOL0     H89492   6.429   9.752  -0.309 -0.7041 -0.4311  0.0651
  663MOL0     H89493   6.896   9.631   0.049  0.9297  0.0568 -0.4194
  663MOL0     H89494   7.056   9.458   0.010 -1.0055  0.9992  2.0947
  663MOL0     H89495   6.953   9.100  -0.280 -0.7727  0.3583 -1.9771
  663MOL0     H89496   6.999   9.250  -0.362  2.1768 -0.8423 -2.0755
  663MOL0     H89497   7.241   9.185  -0.318 -1.7172  1.4871 -0.5557
  663MOL0     H89498   7.160   9.059  -0.405  0.5655  0.8676  0.0423
  663MOL0     H89499   7.177   9.034  -0.104 -0.3262  0.4396 -0.5335
  663MOL0     H89500   7.304   8.992  -0.218  0.0935 -0.7253 -2.8685
  663MOL0     H89501   7.027   8.903  -0.276  1.0416  1.5874 -0.5148
  663MOL0     H89502   7.110   8.828  -0.135  0.2063  1.7672  0.5398
  663MOL0     H89503   7.376   8.680  -0.406 -2.2516 -3.0207  0.7570
  663MOL0     H89504   6.777   9.261  -0.261  1.7786  0.0477 -1.0110
  663MOL0     H89505   6.610   9.414  -0.200 -0.4041  1.0594 -0.1122
  664MOL0     O89506   6.733   2.205   0.722 -0.5974 -0.3421 -0.3449
  664MOL0     C89507   6.756   2.082   0.726  0.2676 -0.0201 -0.0657
  664MOL0     O89508   6.681   1.992   0.801 -0.1298 -0.1018 -0.2132
  664MOL0     C89509   6.619   2.050   0.912  1.0376 -1.0655  0.5468
  664MOL0     C89510   6.690   2.104   1.012 -1.0052  0.4182  0.1941
  664MOL0     C89511   6.622   2.168   1.115  0.7021 -0.0191 -0.2147
  664MOL0     C89512   6.474   2.164   1.125  0.0817 -0.2881 -0.4518
  664MOL0     O89513   6.400   2.197   1.228 -0.1730 -0.4569 -0.1641
  664MOL0     C89514   6.395   2.343   1.233 -0.5524  1.1001 -0.5295
  664MOL0     C89515   6.331   2.377   1.379 -0.6161  0.6455 -0.6373
  664MOL0     C89516   6.186   2.360   1.359  0.2519 -0.1378 -0.1264
  664MOL0     C89517   6.098   2.406   1.474 -0.0753  0.7031  0.4551
  664MOL0     C89518   5.954   2.348   1.439 -0.3164  0.4195  0.1784
  664MOL0     C89519   5.865   2.365   1.559 -0.9762  1.3521 -0.3796
  664MOL0     C89520   5.715   2.330   1.532 -0.0524 -0.4152 -0.0201
  664MOL0     C89521   5.702   2.182   1.524 -0.6200  0.3924  0.0680
  664MOL0     N89522   5.560   2.155   1.491  0.2985 -0.5801  0.2595
  664MOL0     C89523   5.465   2.108   1.578 -0.2537  0.5847  0.3316
  664MOL0     C89524   5.345   2.118   1.509 -0.9872  0.1927 -0.0250
  664MOL0     C89525   5.225   2.032   1.549  0.5293  0.6718 -0.1503
  664MOL0     C89526   5.126   1.989   1.431 -0.0514 -0.0407 -0.3175
  664MOL0     C89527   5.014   1.915   1.492 -0.6251 -0.2284  1.0865
  664MOL0     C89528   4.934   1.863   1.371 -0.0402  0.1975  0.3427
  664MOL0     O89529   4.829   1.770   1.411 -0.2876 -0.2805 -0.1507
  664MOL0     C89530   4.697   1.816   1.408 -0.2169 -0.5999  0.2707
  664MOL0     C89531   4.596   1.723   1.401  0.3291  0.3743  0.2777
  664MOL0     C89532   4.455   1.754   1.389  0.1989 -0.2896  0.5095
  664MOL0     C89533   4.343   1.648   1.380 -1.1583  0.5079  0.9795
  664MOL0     C89534   4.417   1.892   1.390  0.3113  0.0497 -0.0984
  664MOL0     C89535   4.277   1.949   1.379  0.5501 -0.2129  0.0320
  664MOL0     O89536   4.172   1.878   1.427 -0.5841  1.2129  1.2167
  664MOL0     C89537   4.044   1.932   1.425 -0.7537 -0.3045 -0.4731
  664MOL0     C89538   3.999   2.060   1.396  0.8447 -0.0178 -0.0091
  664MOL0     C89539   3.861   2.087   1.414 -0.0914 -0.4350 -0.5761
  664MOL0     C89540   3.770   1.995   1.448 -0.9462  0.5604  0.2806
  664MOL0     O89541   3.647   2.043   1.458  0.5666 -0.3981 -0.7668
  664MOL0     C89542   3.540   1.944   1.469 -0.4570  0.5162  0.7675
  664MOL0     C89543   3.406   2.015   1.502 -0.0548  0.7638  0.3919
  664MOL0     C89544   3.304   1.908   1.522  0.2131  0.3496 -0.1337
  664MOL0     C89545   3.155   1.957   1.507  0.4251  0.5540 -0.0075
  664MOL0     C89546   3.099   1.988   1.646  0.2250 -0.8351  0.3115
  664MOL0     C89547   2.947   2.044   1.631  0.0057  0.6609  0.1883
  664MOL0     C89548   2.883   2.061   1.775  0.3673  0.0611 -0.9372
  664MOL0     C89549   2.739   2.110   1.765  0.5728  0.0065  0.8620
  664MOL0    Cl89550   2.632   1.979   1.687  0.0192  0.2819  0.1591
  664MOL0     C89551   3.817   1.862   1.466  0.6687 -0.2530 -0.7269
  664MOL0     C89552   3.948   1.831   1.455 -0.4150 -0.2577 -0.0583
  664MOL0     O89553   4.269   2.069   1.345 -1.0175  0.8761  0.5005
  664MOL0     C89554   4.518   1.986   1.413  0.5093  0.0511  0.7839
  664MOL0     C89555   4.658   1.945   1.425  1.2034  0.0737  0.6687
  664MOL0     N89556   5.372   2.177   1.380 -0.3965 -0.4328 -0.1565
  664MOL0     N89557   5.499   2.198   1.378 -0.2643  0.3318  0.4952
  664MOL0     C89558   6.409   2.111   1.017 -0.8966  0.0341 -0.5737
  664MOL0     C89559   6.484   2.059   0.920  0.0660 -0.7881  0.1485
  664MOL0     C89560   6.843   2.035   0.613 -1.0658  0.2247 -0.1873
  664MOL0     C89561   6.847   1.900   0.570  1.4703 -0.4514  0.2959
  664MOL0     C89562   6.938   1.854   0.478  0.2481  0.9904 -0.9157
  664MOL0     C89563   7.032   1.937   0.425 -0.2127  0.1176 -0.0456
  664MOL0     O89564   7.130   1.884   0.345  0.2605  0.0619  0.3815
  664MOL0     C89565   7.259   1.950   0.346  0.4097  0.2422 -0.1643
  664MOL0     C89566   7.370   1.882   0.263 -0.1778  0.4393 -0.2958
  664MOL0     C89567   7.416   1.761   0.340 -0.2259  0.1762  0.8204
  664MOL0     C89568   7.495   1.659   0.258  0.3339  0.1694 -0.2429
  664MOL0     C89569   7.622   1.727   0.214  0.3893 -0.3872  0.0272
  664MOL0     C89570   7.726   1.776   0.173  0.8518 -0.2289  0.1571
  664MOL0     C89571   7.026   2.073   0.457  1.4619  0.4065 -1.1591
  664MOL0     C89572   6.939   2.118   0.555 -0.1626  0.1766  0.3207
  664MOL0     H89573   6.798   2.101   1.023 -0.6016  0.6572 -2.7651
  664MOL0     H89574   6.678   2.220   1.191  1.5062  0.1550 -0.9101
  664MOL0     H89575   6.495   2.387   1.223 -0.1460  0.1749 -0.6029
  664MOL0     H89576   6.331   2.384   1.154 -0.3279  2.5733  0.0222
  664MOL0     H89577   6.363   2.300   1.450  0.1437  0.5535 -1.0710
  664MOL0     H89578   6.349   2.480   1.409 -3.1924  0.8144  0.5997
  664MOL0     H89579   6.158   2.428   1.278 -0.5920 -0.7601 -0.3669
  664MOL0     H89580   6.157   2.257   1.339  1.3361 -0.4753  0.0048
  664MOL0     H89581   6.147   2.371   1.566  0.1790 -0.5030 -0.1260
  664MOL0     H89582   6.097   2.515   1.474  0.1611  0.7788  3.1756
  664MOL0     H89583   5.905   2.399   1.356  1.0342  0.2952 -0.7121
  664MOL0     H89584   5.953   2.241   1.417 -1.9253  1.0291 -3.4532
  664MOL0     H89585   5.900   2.292   1.633 -1.3040  0.4603 -1.0898
  664MOL0     H89586   5.861   2.463   1.608  1.7437 -0.1583  3.4003
  664MOL0     H89587   5.660   2.372   1.616 -0.2813  1.3773 -1.0152
  664MOL0     H89588   5.678   2.383   1.444 -1.2992 -0.0853  0.6959
  664MOL0     H89589   5.724   2.140   1.622 -3.4154  1.9271  1.4644
  664MOL0     H89590   5.765   2.131   1.450  3.9064  3.0162  1.7058
  664MOL0     H89591   5.485   2.052   1.669  1.2706 -0.3418 -0.5554
  664MOL0     H89592   5.263   1.938   1.591 -0.8487  0.3294  0.3745
  664MOL0     H89593   5.174   2.078   1.634  2.3717 -1.3907  2.2405
  664MOL0     H89594   5.183   1.930   1.359  1.3896  1.8451 -0.8109
  664MOL0     H89595   5.088   2.076   1.376 -0.2973  1.1735  1.6773
  664MOL0     H89596   4.940   1.977   1.544 -2.0717 -0.8110 -0.1737
  664MOL0     H89597   5.049   1.837   1.560 -1.7407 -1.9205 -0.1548
  664MOL0     H89598   4.997   1.798   1.310 -1.7972 -2.3741  1.1196
  664MOL0     H89599   4.892   1.938   1.304 -1.8977 -1.5136 -0.4962
  664MOL0     H89600   4.633   1.622   1.390  2.2207  1.1705 -1.3550
  664MOL0     H89601   4.302   1.658   1.279  0.9507 -1.8584 -0.2388
  664MOL0     H89602   4.388   1.550   1.398  0.3412  0.3541 -2.6848
  664MOL0     H89603   4.265   1.669   1.454 -0.7560 -0.4840  1.7020
  664MOL0     H89604   4.055   2.144   1.356 -1.8642  0.4221 -3.4231
  664MOL0     H89605   3.830   2.190   1.403  1.8108  0.2971  0.4646
  664MOL0     H89606   3.532   1.895   1.372 -0.8367 -0.2476  1.1829
  664MOL0     H89607   3.566   1.868   1.543 -1.9034 -3.1973 -2.1978
  664MOL0     H89608   3.407   2.077   1.592  0.1717 -2.0028  2.4378
  664MOL0     H89609   3.370   2.077   1.419 -1.5622 -0.5016  0.0538
  664MOL0     H89610   3.327   1.862   1.618 -1.7371  3.1299  1.7894
  664MOL0     H89611   3.323   1.834   1.443 -1.0818  0.3623 -0.4840
  664MOL0     H89612   3.149   2.039   1.435 -2.3385  2.3012  1.9837
  664MOL0     H89613   3.084   1.880   1.477 -0.5343  0.8708  1.3339
  664MOL0     H89614   3.168   2.054   1.700 -1.7446  2.5625 -1.0421
  664MOL0     H89615   3.094   1.893   1.700 -3.9887 -0.3208  1.1517
  664MOL0     H89616   2.941   2.144   1.587 -1.1905  1.8457  2.8444
  664MOL0     H89617   2.890   1.971   1.572  0.2438  0.0794  0.6663
  664MOL0     H89618   2.939   2.138   1.829 -0.2904 -0.2668  0.2494
  664MOL0     H89619   2.889   1.969   1.834 -1.2038  1.5502  1.7495
  664MOL0     H89620   2.731   2.202   1.707  1.2680 -1.1152 -1.1011
  664MOL0     H89621   2.692   2.114   1.864  1.6582 -2.2766  1.5600
  664MOL0     H89622   3.752   1.782   1.502  2.3407 -0.8860  1.0387
  664MOL0     H89623   3.995   1.735   1.471  5.5683  1.7873 -2.4617
  664MOL0     H89624   4.509   2.093   1.423  2.4937  0.9302 -3.9405
  664MOL0     H89625   4.728   2.028   1.437  1.0983  1.1015 -4.0956
  664MOL0     H89626   6.302   2.097   1.025 -0.7134 -2.4196 -1.4977
  664MOL0     H89627   6.417   2.014   0.848  1.0306 -1.5029 -0.3290
  664MOL0     H89628   6.783   1.829   0.622  0.7253  1.4581  2.1075
  664MOL0     H89629   6.937   1.750   0.445 -2.9050  1.4319 -2.6090
  664MOL0     H89630   7.259   2.052   0.306  2.9214 -0.3316 -1.8463
  664MOL0     H89631   7.298   1.971   0.446  1.7204  3.2143 -1.1771
  664MOL0     H89632   7.457   1.948   0.262  0.5303 -0.4327  1.1036
  664MOL0     H89633   7.346   1.851   0.161  0.3569  2.4952 -1.0996
  664MOL0     H89634   7.327   1.712   0.379  1.0050  0.3417  4.2221
  664MOL0     H89635   7.473   1.787   0.430  0.2493 -2.1372  1.2433
  664MOL0     H89636   7.446   1.623   0.167 -2.0431  2.0808  0.1648
  664MOL0     H89637   7.515   1.577   0.328 -5.0189 -0.6910  0.7079
  664MOL0     H89638   7.818   1.811   0.130  0.4440  1.5835  0.6541
  664MOL0     H89639   7.097   2.148   0.423  0.6954  1.3532 -0.7140
  664MOL0     H89640   6.940   2.225   0.575  2.3848 -0.2026  2.8894
  665MOL0     O89641   6.044   9.623   2.350  0.0941  0.0304  0.1623
  665MOL0     C89642   6.075   9.588   2.236  0.7045 -0.2589  0.1867
  665MOL0     O89643   5.982   9.557   2.137  0.0723  0.1713  0.0072
  665MOL0     C89644   5.848   9.558   2.163 -0.6638  0.0737  0.7468
  665MOL0     C89645   5.787   9.494   2.272 -0.4557 -0.8097  0.3628
  665MOL0     C89646   5.650   9.482   2.260  0.0145  0.9386 -0.0478
  665MOL0     C89647   5.576   9.533   2.162  0.6763  0.0936  0.7600
  665MOL0     O89648   5.441   9.529   2.188 -0.1817 -0.0323  0.1444
  665MOL0     C89649   5.346   9.616   2.123  0.5589  0.4110  0.0518
  665MOL0     C89650   5.217   9.593   2.203  0.2968 -0.5951  0.5561
  665MOL0     C89651   5.151   9.459   2.192 -0.0381 -0.7811  0.2384
  665MOL0     C89652   5.021   9.442   2.265  0.1719 -0.2378 -1.3710
  665MOL0     C89653   4.900   9.501   2.191 -1.0829  0.1949 -0.0930
  665MOL0     C89654   4.861   9.648   2.205  0.1542 -0.1182 -0.5673
  665MOL0     C89655   4.877   9.715   2.342 -0.4366  0.1012 -0.3393
  665MOL0     C89656   4.790   9.662   2.463 -0.2761  0.6057  0.4892
  665MOL0     N89657   4.643   9.674   2.436  0.4549  0.4959 -0.3373
  665MOL0     C89658   4.577   9.789   2.428  0.1666 -0.6646 -0.7091
  665MOL0     C89659   4.448   9.754   2.407  0.2390 -0.0175  0.0693
  665MOL0     C89660   4.329   9.850   2.406 -1.2300  0.3733  0.9202
  665MOL0     C89661   4.340   9.956   2.299 -0.1641 -0.3895 -0.7687
  665MOL0     C89662   4.234  10.068   2.311  0.6704  0.6817  0.6250
  665MOL0     C89663   4.093  10.010   2.316  0.0546 -0.0043  0.0384
  665MOL0     O89664   4.072   9.924   2.204 -0.6662  0.2898 -0.3278
  665MOL0     C89665   3.956   9.868   2.192 -0.8523 -0.4682 -0.5465
  665MOL0     C89666   3.970   9.737   2.158 -0.7746  0.1487  0.5647
  665MOL0     C89667   3.854   9.656   2.142 -0.1303  0.2523 -0.5978
  665MOL0     C89668   3.870   9.510   2.117  0.1346 -0.1517  0.2193
  665MOL0     C89669   3.724   9.714   2.158  0.3888 -0.2413 -1.1658
  665MOL0     C89670   3.593   9.653   2.137 -0.1483 -0.5575  0.3176
  665MOL0     O89671   3.584   9.533   2.072  1.0288 -0.1040 -0.2909
  665MOL0     C89672   3.470   9.455   2.076  0.2157  0.5200 -0.7896
  665MOL0     C89673   3.441   9.401   2.203  0.1781 -0.0973 -0.0528
  665MOL0     C89674   3.333   9.319   2.218  0.7932  0.3009  0.0209
  665MOL0     C89675   3.252   9.298   2.106 -0.2149  0.4467 -0.9995
  665MOL0     O89676   3.147   9.211   2.126  0.3898  0.1420  0.4180
  665MOL0     C89677   3.027   9.226   2.041 -0.7581  0.7772  0.6639
  665MOL0     C89678   2.959   9.082   2.047  0.3348 -0.3428 -0.6358
  665MOL0     C89679   2.844   9.068   1.948 -0.4709 -0.6037  0.5064
  665MOL0     C89680   2.786   8.927   1.931  0.0752  0.1359 -0.2441
  665MOL0     C89681   2.665   8.922   2.030  0.0612 -0.1279 -0.3487
  665MOL0     C89682   2.574   8.796   2.011 -0.3058  0.5022  0.0514
  665MOL0     C89683   2.492   8.800   1.879 -0.6161 -0.3533  0.0612
  665MOL0     C89684   2.351   8.736   1.890 -0.7661 -0.0887  0.5399
  665MOL0    Cl89685   2.352   8.563   1.942 -0.0467 -0.4476 -0.3680
  665MOL0     C89686   3.291   9.333   1.972  0.3887  0.4685 -0.6769
  665MOL0     C89687   3.395   9.425   1.963  0.4755 -0.2228  0.3455
  665MOL0     O89688   3.494   9.722   2.169  0.0376  0.2817  0.9482
  665MOL0     C89689   3.715   9.850   2.199  0.3738  0.0675 -0.9808
  665MOL0     C89690   3.832   9.925   2.202  0.6378  0.5626  0.6503
  665MOL0     N89691   4.435   9.617   2.420 -0.2990 -0.0451  0.1035
  665MOL0     N89692   4.551   9.565   2.433  0.1325  0.1740 -0.5839
  665MOL0     C89693   5.639   9.605   2.053 -0.7960 -0.3875 -0.0458
  665MOL0     C89694   5.771   9.617   2.064 -1.1926  1.1160  0.0208
  665MOL0     C89695   6.216   9.582   2.196 -0.4470 -0.7854  0.1467
  665MOL0     C89696   6.261   9.547   2.066  0.4370  0.9182  0.3186
  665MOL0     C89697   6.390   9.536   2.024 -0.6415  0.3367  0.9072
  665MOL0     C89698   6.495   9.574   2.111  0.3183 -0.4623  0.7402
  665MOL0     O89699   6.622   9.547   2.094  0.4336  0.4883  0.0610
  665MOL0     C89700   6.657   9.469   1.976  1.3031 -0.9097 -0.1559
  665MOL0     C89701   6.810   9.456   1.979  0.5338 -0.3728  0.2038
  665MOL0     C89702   6.890   9.574   1.970 -0.6518 -0.9156  0.1764
  665MOL0     C89703   7.040   9.548   1.965  0.2183 -0.3282 -0.4814
  665MOL0     C89704   7.119   9.674   1.985  0.1908  0.6225  0.5281
  665MOL0     C89705   7.180   9.777   1.989 -0.4750  0.4242  0.8067
  665MOL0     C89706   6.453   9.625   2.235  0.5596  0.1233 -0.4453
  665MOL0     C89707   6.319   9.626   2.282  0.5118 -0.5158 -0.4791
  665MOL0     H89708   5.849   9.449   2.349  0.7195 -1.4472 -0.9133
  665MOL0     H89709   5.590   9.440   2.340  1.0812  1.7227  1.2084
  665MOL0     H89710   5.377   9.720   2.109  0.1189  0.1917 -3.4871
  665MOL0     H89711   5.322   9.582   2.022  2.7338  1.1637 -0.7949
  665MOL0     H89712   5.231   9.629   2.305  0.2182 -1.0267  0.7200
  665MOL0     H89713   5.150   9.662   2.150  2.1028 -1.2917 -2.9008
  665MOL0     H89714   5.135   9.419   2.092  2.7876 -0.3283 -0.4806
  665MOL0     H89715   5.228   9.397   2.238 -0.0258 -0.3409  0.8328
  665MOL0     H89716   4.988   9.339   2.282 -0.2934  0.2941  1.2915
  665MOL0     H89717   5.027   9.486   2.365  0.4652 -0.1722 -1.4170
  665MOL0     H89718   4.914   9.469   2.087 -1.1568  2.8600 -1.0089
  665MOL0     H89719   4.813   9.448   2.231 -0.7323  0.4621  1.0627
  665MOL0     H89720   4.919   9.710   2.136  0.5466  0.9009  0.6606
  665MOL0     H89721   4.758   9.660   2.169  0.7424 -2.1262 -3.2638
  665MOL0     H89722   4.979   9.688   2.373  1.7004  2.6100 -4.2397
  665MOL0     H89723   4.879   9.824   2.346  2.0985  0.0949  1.7067
  665MOL0     H89724   4.808   9.725   2.550 -1.0819  1.3191  0.1623
  665MOL0     H89725   4.805   9.555   2.476  0.3115  0.7780  1.2872
  665MOL0     H89726   4.615   9.890   2.434 -1.3340  0.0939 -2.7708
  665MOL0     H89727   4.240   9.789   2.389 -1.2144  1.0505 -2.1378
  665MOL0     H89728   4.324   9.906   2.500  0.0551  0.3269  1.0315
  665MOL0     H89729   4.341   9.906   2.201  1.6310 -1.6003 -0.1966
  665MOL0     H89730   4.441   9.998   2.300  0.0223 -0.8350 -0.0057
  665MOL0     H89731   4.240  10.131   2.221  1.4292 -1.5954 -1.0017
  665MOL0     H89732   4.260  10.123   2.402  0.5411  4.0780 -1.2121
  665MOL0     H89733   4.018  10.089   2.322  1.2037  1.5638 -3.5703
  665MOL0     H89734   4.080   9.952   2.407  0.3572 -0.7770 -0.3993
  665MOL0     H89735   4.068   9.689   2.155 -0.3920  0.4468  4.0619
  665MOL0     H89736   3.975   9.481   2.132 -0.0805 -1.9606 -1.4864
  665MOL0     H89737   3.803   9.455   2.183  0.3038 -0.9522 -0.2666
  665MOL0     H89738   3.843   9.484   2.014  0.2972 -0.4567  0.2529
  665MOL0     H89739   3.505   9.415   2.290  0.0241 -0.4559  0.1201
  665MOL0     H89740   3.295   9.289   2.315 -1.0932 -2.0312 -1.3164
  665MOL0     H89741   2.964   9.303   2.087  0.3512  1.7375  0.6342
  665MOL0     H89742   3.048   9.251   1.937  0.2862  0.2018  0.7200
  665MOL0     H89743   3.019   8.993   2.026 -1.7820 -1.7125 -1.2986
  665MOL0     H89744   2.916   9.070   2.147  1.9622 -1.3946 -0.0147
  665MOL0     H89745   2.890   9.096   1.853  1.7065 -0.3876  1.5474
  665MOL0     H89746   2.769   9.143   1.972  1.8219  2.1276 -0.3165
  665MOL0     H89747   2.760   8.915   1.825 -0.5915  2.5675 -0.4113
  665MOL0     H89748   2.852   8.847   1.966 -0.4220 -0.8705 -1.5145
  665MOL0     H89749   2.606   9.013   2.018  3.9952  2.7387 -0.0254
  665MOL0     H89750   2.685   8.923   2.138 -1.2859  1.2324 -0.0802
  665MOL0     H89751   2.632   8.704   2.025  1.8356  1.6623 -0.7262
  665MOL0     H89752   2.499   8.806   2.090 -0.1833  0.9314  0.1175
  665MOL0     H89753   2.538   8.754   1.791  0.3559 -3.1401  1.8828
  665MOL0     H89754   2.471   8.905   1.856 -1.1336 -0.3888  0.3441
  665MOL0     H89755   2.302   8.749   1.793 -0.2334  2.6003  0.5754
  665MOL0     H89756   2.300   8.798   1.964 -1.0316  0.1451  0.1607
  665MOL0     H89757   3.236   9.291   1.889 -2.6886 -0.1992  1.5395
  665MOL0     H89758   3.420   9.456   1.862 -0.9333 -2.2324 -0.7073
  665MOL0     H89759   3.624   9.908   2.210  0.7927  0.1512  3.6574
  665MOL0     H89760   3.830  10.033   2.215  1.9990  0.4657  2.0333
  665MOL0     H89761   5.588   9.647   1.966  0.8511 -1.5388 -1.6340
  665MOL0     H89762   5.820   9.668   1.981  1.3306 -0.2773  0.5427
  665MOL0     H89763   6.183   9.509   2.001  0.6984  0.8158  0.0616
  665MOL0     H89764   6.405   9.504   1.922  1.9062 -2.4105  1.9897
  665MOL0     H89765   6.609   9.370   1.969  0.8447 -0.8096  1.1308
  665MOL0     H89766   6.628   9.519   1.884 -0.9448 -0.3623  0.7766
  665MOL0     H89767   6.843   9.390   1.899 -1.1689 -1.1241  0.0752
  665MOL0     H89768   6.833   9.409   2.075 -2.5235 -1.6094  0.4413
  665MOL0     H89769   6.868   9.631   2.061  1.6647 -0.4795  0.5219
  665MOL0     H89770   6.868   9.619   1.872  0.3226  1.5689  1.0104
  665MOL0     H89771   7.061   9.488   1.877 -1.2315 -1.3465 -0.1777
  665MOL0     H89772   7.081   9.502   2.055  1.3042  1.9713  0.2837
  665MOL0     H89773   7.245   9.862   1.995  0.5906 -0.4147  1.6759
  665MOL0     H89774   6.538   9.646   2.299  1.0570  3.7573 -2.0643
  665MOL0     H89775   6.312   9.652   2.387 -4.1669 -1.8278 -0.2265
  666MOL0     O89776   0.387   0.710   6.156 -0.2244  0.0815  0.3512
  666MOL0     C89777   0.481   0.675   6.223 -0.2132 -0.1161 -0.1315
  666MOL0     O89778   0.464   0.639   6.361 -0.3582 -0.1189 -0.0520
  666MOL0     C89779   0.340   0.671   6.406 -0.1568  0.6261 -0.1238
  666MOL0     C89780   0.241   0.573   6.406 -0.8355  0.1242  0.6722
  666MOL0     C89781   0.108   0.600   6.435 -0.5753  0.3457 -0.3956
  666MOL0     C89782   0.086   0.729   6.470 -0.3670  0.1290  0.4039
  666MOL0     O89783  -0.039   0.762   6.509 -0.1836  0.0069  0.5029
  666MOL0     C89784  -0.058   0.794   6.645  0.3172  0.4100 -0.2802
  666MOL0     C89785  -0.207   0.758   6.672 -0.4636  0.3676  0.0060
  666MOL0     C89786  -0.310   0.835   6.596  0.2863 -0.2195  0.9097
  666MOL0     C89787  -0.440   0.805   6.649  0.3913  0.0598 -0.8850
  666MOL0     C89788  -0.547   0.842   6.544  0.4675 -0.6265 -0.1498
  666MOL0     C89789  -0.698   0.821   6.598  0.1044  0.4814  0.1635
  666MOL0     C89790  -0.807   0.837   6.492 -0.4085  0.7742  0.8917
  666MOL0     C89791  -0.782   0.745   6.367  0.0217 -0.0286 -0.7083
  666MOL0     N89792  -0.808   0.603   6.400  0.1643  0.2151  0.0285
  666MOL0     C89793  -0.923   0.558   6.443  0.1344 -0.0307 -0.0928
  666MOL0     C89794  -0.901   0.424   6.449  0.4788 -0.0246 -0.4478
  666MOL0     C89795  -1.010   0.324   6.492  0.2860 -0.9714  0.3984
  666MOL0     C89796  -1.079   0.266   6.362 -0.0146  0.5486 -0.1675
  666MOL0     C89797  -1.208   0.185   6.403  0.0240 -0.2011  0.8799
  666MOL0     C89798  -1.336   0.277   6.410 -0.1701 -0.2629 -1.1513
  666MOL0     O89799  -1.304   0.389   6.493 -0.2625 -0.4138  0.3780
  666MOL0     C89800  -1.408   0.459   6.552  0.1716 -0.5473  0.3104
  666MOL0     C89801  -1.386   0.536   6.665 -0.1627 -0.0039 -0.2982
  666MOL0     C89802  -1.485   0.593   6.749  0.3067 -0.3508  0.0190
  666MOL0     C89803  -1.420   0.660   6.870 -0.7776 -0.5748 -0.3232
  666MOL0     C89804  -1.624   0.592   6.706 -0.0613 -1.1561  1.5069
  666MOL0     C89805  -1.735   0.666   6.778 -0.1764 -0.5407  0.1762
  666MOL0     O89806  -1.854   0.650   6.714  0.2847 -0.3836 -0.0953
  666MOL0     C89807  -1.970   0.706   6.759  0.1034  0.5454  0.1696
  666MOL0     C89808  -2.009   0.825   6.707  0.6214 -0.6567 -0.2051
  666MOL0     C89809  -2.132   0.876   6.754  1.1288  0.0149 -0.4943
  666MOL0     C89810  -2.216   0.818   6.848  1.2325 -0.3691 -0.4268
  666MOL0     O89811  -2.336   0.875   6.885  0.4573  0.0003 -0.2399
  666MOL0     C89812  -2.452   0.813   6.818 -0.3741 -0.5345 -0.4174
  666MOL0     C89813  -2.534   0.733   6.916 -0.0289 -0.5663  0.4931
  666MOL0     C89814  -2.660   0.798   6.976  0.8281 -0.1968  0.6078
  666MOL0     C89815  -2.782   0.816   6.882  0.0543  0.6065  0.4345
  666MOL0     C89816  -2.863   0.676   6.860  0.3262  0.0574  0.4908
  666MOL0     C89817  -2.969   0.697   6.751  0.1885  0.3934  0.0021
  666MOL0     C89818  -2.922   0.651   6.616  0.3279  1.1149  0.3807
  666MOL0     C89819  -2.975   0.741   6.500 -0.1404 -0.2053  0.2212
  666MOL0    Cl89820  -3.146   0.786   6.518 -0.3695 -0.3901  0.2120
  666MOL0     C89821  -2.178   0.688   6.895 -0.3392  0.2447 -0.1226
  666MOL0     C89822  -2.047   0.646   6.866 -0.1664 -0.3060  0.0661
  666MOL0     O89823  -1.722   0.740   6.870  0.1614  0.3979  0.1241
  666MOL0     C89824  -1.648   0.530   6.580 -0.0651 -0.7269 -0.1952
  666MOL0     C89825  -1.546   0.462   6.511 -0.0796 -0.2800  0.6228
  666MOL0     N89826  -0.775   0.398   6.424 -0.5479 -0.3284  0.1714
  666MOL0     N89827  -0.718   0.510   6.396 -0.5970 -0.3307  0.1938
  666MOL0     C89828   0.175   0.840   6.467  0.6317  0.5026 -0.0428
  666MOL0     C89829   0.305   0.802   6.436  0.1723  0.2292  0.0466
  666MOL0     C89830   0.614   0.653   6.153 -0.6107 -0.2933 -0.3744
  666MOL0     C89831   0.733   0.633   6.223  0.0895  0.1756  0.4826
  666MOL0     C89832   0.856   0.618   6.160 -0.1318  0.5595 -0.3583
  666MOL0     C89833   0.856   0.615   6.022 -0.6848  0.0400 -0.0513
  666MOL0     O89834   0.978   0.592   5.963 -0.3573 -0.2136 -0.1780
  666MOL0     C89835   0.965   0.507   5.854  0.1339 -0.1321  0.8413
  666MOL0     C89836   1.111   0.453   5.837  0.7921  0.4501 -0.1786
  666MOL0     C89837   1.206   0.563   5.788 -0.7471 -0.9501 -0.1719
  666MOL0     C89838   1.335   0.507   5.720  0.7748 -0.4170 -0.6408
  666MOL0     C89839   1.374   0.569   5.598  0.3752 -0.0933  0.1220
  666MOL0     C89840   1.415   0.615   5.492 -0.4542 -0.2781 -0.6786
  666MOL0     C89841   0.740   0.647   5.951  0.5037 -0.0450  0.0372
  666MOL0     C89842   0.620   0.663   6.019  0.0091  0.4940 -0.1638
  666MOL0     H89843   0.267   0.471   6.380  1.3336  1.0973 -1.3488
  666MOL0     H89844   0.032   0.523   6.422 -0.0144 -0.5166  1.1966
  666MOL0     H89845   0.012   0.739   6.709  1.3452 -0.6951 -2.2458
  666MOL0     H89846  -0.050   0.901   6.662  0.8228  0.0145  2.5413
  666MOL0     H89847  -0.222   0.653   6.647  1.5043 -0.5438  2.2076
  666MOL0     H89848  -0.231   0.780   6.777 -3.6570  1.5597 -0.8414
  666MOL0     H89849  -0.294   0.942   6.612 -0.6841 -0.0939  1.0811
  666MOL0     H89850  -0.287   0.815   6.491 -2.4748 -0.6903  0.3233
  666MOL0     H89851  -0.456   0.700   6.675  2.8731 -0.1583  0.0354
  666MOL0     H89852  -0.455   0.867   6.738 -1.7708 -2.3412  0.5427
  666MOL0     H89853  -0.526   0.944   6.511  1.1071 -0.9599 -0.7962
  666MOL0     H89854  -0.519   0.772   6.465  0.5788  0.6682 -1.2845
  666MOL0     H89855  -0.698   0.725   6.651 -1.7559 -0.5606 -1.5321
  666MOL0     H89856  -0.726   0.894   6.675  2.5207 -0.0400  1.6341
  666MOL0     H89857  -0.910   0.829   6.528  0.1271  2.7443  3.2292
  666MOL0     H89858  -0.792   0.936   6.447 -1.7292  0.4648 -0.2591
  666MOL0     H89859  -0.685   0.771   6.324  0.9392  0.2001  1.4059
  666MOL0     H89860  -0.859   0.778   6.295 -2.8120  2.3254  3.0188
  666MOL0     H89861  -1.017   0.604   6.470  0.2460 -0.1912  0.6006
  666MOL0     H89862  -0.966   0.246   6.554  3.0994  0.1187 -0.0580
  666MOL0     H89863  -1.080   0.379   6.555  1.7690 -0.6733  1.8585
  666MOL0     H89864  -1.012   0.203   6.302 -0.0287  0.5474 -0.1810
  666MOL0     H89865  -1.120   0.348   6.302 -1.4712  1.2040  1.6268
  666MOL0     H89866  -1.198   0.120   6.490 -0.3916 -0.8330  0.4695
  666MOL0     H89867  -1.217   0.118   6.317  1.4969  0.5956  0.0679
  666MOL0     H89868  -1.420   0.223   6.454  0.6806  0.3412  1.3396
  666MOL0     H89869  -1.362   0.314   6.310  0.1106  0.2871 -1.0228
  666MOL0     H89870  -1.283   0.544   6.700 -0.5111 -0.8462  0.9714
  666MOL0     H89871  -1.412   0.765   6.844  3.2807 -0.1267  1.8620
  666MOL0     H89872  -1.481   0.663   6.961 -1.9767  0.5037 -1.1245
  666MOL0     H89873  -1.323   0.616   6.898 -0.1861  0.3963 -0.8144
  666MOL0     H89874  -1.942   0.877   6.640 -0.1143  1.9822  0.9636
  666MOL0     H89875  -2.156   0.968   6.702 -1.5357  0.3871  1.2064
  666MOL0     H89876  -2.516   0.897   6.791 -2.2265 -1.1453  1.7319
  666MOL0     H89877  -2.420   0.753   6.732  0.4988 -0.9438  0.1693
  666MOL0     H89878  -2.556   0.646   6.854  0.7598  0.4401 -1.2705
  666MOL0     H89879  -2.463   0.703   6.994  1.8714  1.9193 -0.1187
  666MOL0     H89880  -2.636   0.900   7.007  0.2951 -0.5084  2.1404
  666MOL0     H89881  -2.676   0.750   7.073 -0.6374 -0.5695  0.1948
  666MOL0     H89882  -2.853   0.883   6.931 -1.3938  0.5028 -1.3902
  666MOL0     H89883  -2.745   0.849   6.784 -0.6821 -1.8812 -0.7794
  666MOL0     H89884  -2.911   0.644   6.953  0.0562 -1.7347 -0.2204
  666MOL0     H89885  -2.800   0.591   6.831  1.0165  0.4261  0.8793
  666MOL0     H89886  -3.041   0.617   6.770  0.8015  0.0046  0.7145
  666MOL0     H89887  -3.013   0.798   6.757  0.6218  0.5064  1.5683
  666MOL0     H89888  -2.953   0.547   6.600  0.0687  1.2656 -0.0875
  666MOL0     H89889  -2.813   0.661   6.616  0.7387 -2.1363 -0.3818
  666MOL0     H89890  -2.958   0.678   6.412 -1.7454 -1.3078  0.6498
  666MOL0     H89891  -2.901   0.821   6.502  0.1065 -0.4322  1.9087
  666MOL0     H89892  -2.240   0.632   6.965  0.2437 -0.5085 -0.1921
  666MOL0     H89893  -2.013   0.557   6.919  0.9141  1.1524  1.9552
  666MOL0     H89894  -1.742   0.528   6.526 -0.1372 -3.5137 -0.0939
  666MOL0     H89895  -1.563   0.426   6.410 -0.0622  2.5893 -0.5149
  666MOL0     H89896   0.157   0.946   6.482  1.7894  0.7627 -0.4099
  666MOL0     H89897   0.375   0.885   6.435  2.2638 -1.4237  0.9847
  666MOL0     H89898   0.728   0.625   6.331  1.2763  1.0820  0.6302
  666MOL0     H89899   0.941   0.584   6.218 -1.1917 -2.8190 -0.6116
  666MOL0     H89900   0.904   0.417   5.859  0.2485 -0.2866 -0.2512
  666MOL0     H89901   0.933   0.560   5.764 -0.3892 -1.5069  0.1967
  666MOL0     H89902   1.107   0.366   5.772  0.4733 -1.1039  1.8272
  666MOL0     H89903   1.140   0.431   5.940 -0.6607  2.4105  0.7310
  666MOL0     H89904   1.243   0.624   5.871  3.9622  1.5862 -3.6586
  666MOL0     H89905   1.157   0.637   5.724 -0.5285 -1.1858 -0.6141
  666MOL0     H89906   1.311   0.402   5.700 -2.3509  0.1284 -0.3080
  666MOL0     H89907   1.416   0.501   5.793  0.4690 -0.7284 -0.3178
  666MOL0     H89908   1.420   0.653   5.392 -1.4847  0.1460 -0.5822
  666MOL0     H89909   0.753   0.675   5.847  1.9261  3.0477  0.9420
  666MOL0     H89910   0.531   0.685   5.961 -1.1868  0.9506  1.7554
  667MOL0     O89911   8.358   8.722  10.458 -0.3224 -0.2657 -0.5056
  667MOL0     C89912   8.334   8.688  10.340  0.3623  0.0679 -0.7168
  667MOL0     O89913   8.210   8.687  10.287 -0.6348  0.1049 -0.0102
  667MOL0     C89914   8.106   8.727  10.361 -0.2536 -0.1297  0.3912
  667MOL0     C89915   8.058   8.653  10.471  0.7356  0.2212 -0.2202
  667MOL0     C89916   7.934   8.691  10.531 -0.3467  0.4278  0.5333
  667MOL0     C89917   7.866   8.806  10.498 -0.1825  0.3222 -0.5645
  667MOL0     O89918   7.752   8.853  10.559 -0.5197 -0.2805  0.3313
  667MOL0     C89919   7.682   8.766  10.657  0.4145 -0.5066  1.3584
  667MOL0     C89920   7.545   8.827  10.693  0.4987 -0.2044  0.6191
  667MOL0     C89921   7.558   8.949  10.777 -0.0858 -0.0042 -0.2637
  667MOL0     C89922   7.429   9.042  10.772  0.3590 -0.2319 -0.2240
  667MOL0     C89923   7.452   9.162  10.681 -0.1278  0.1497  0.1230
  667MOL0     C89924   7.324   9.236  10.658 -0.1995 -0.4382 -0.4476
  667MOL0     C89925   7.340   9.353  10.565  0.4847 -0.7703  0.3190
  667MOL0     C89926   7.219   9.447  10.562  1.2397 -0.3616  0.2818
  667MOL0     N89927   7.096   9.376  10.518  0.1716 -0.0161  0.0648
  667MOL0     C89928   6.968   9.408  10.563  0.5494 -1.1131  0.3187
  667MOL0     C89929   6.889   9.318  10.499  0.3339 -0.0628 -0.4297
  667MOL0     C89930   6.739   9.304  10.512  0.3949 -0.3780 -0.0602
  667MOL0     C89931   6.668   9.378  10.399 -0.8438 -0.0487 -0.5885
  667MOL0     C89932   6.518   9.352  10.410  0.8575  0.3524  0.1376
  667MOL0     C89933   6.435   9.410  10.290 -0.4269 -0.1005 -0.3048
  667MOL0     O89934   6.305   9.352  10.287 -0.1382 -0.0513 -0.0640
  667MOL0     C89935   6.204   9.434  10.257  0.0410  0.5640  0.4821
  667MOL0     C89936   6.162   9.525  10.359 -0.4886  0.6062 -0.1890
  667MOL0     C89937   6.056   9.613  10.335  0.7083  0.6404 -0.6130
  667MOL0     C89938   6.004   9.706  10.449 -0.4208 -0.8309 -0.2844
  667MOL0     C89939   6.002   9.611  10.201 -1.2276  0.0542  0.3433
  667MOL0     C89940   5.902   9.717  10.155  0.5621  1.2905 -0.8442
  667MOL0     O89941   5.893   9.833  10.230  0.3370 -0.2987  0.6132
  667MOL0     C89942   5.793   9.919  10.194  0.2160 -0.4095 -0.3396
  667MOL0     C89943   5.803  10.058  10.215  0.4313 -0.3829 -0.0294
  667MOL0     C89944   5.701  10.148  10.219 -0.3988  0.5304  0.0495
  667MOL0     C89945   5.570  10.110  10.201  0.2053  0.2676  1.1603
  667MOL0     O89946   5.475  10.210  10.194 -0.8473  0.1853  0.2243
  667MOL0     C89947   5.341  10.179  10.183  0.9406  0.3372  0.4562
  667MOL0     C89948   5.262  10.310  10.186  0.5623  0.5170 -0.0949
  667MOL0     C89949   5.272  10.371  10.045 -0.5400 -0.7034  0.3217
  667MOL0     C89950   5.154  10.462  10.013  0.5582  1.2837 -0.9850
  667MOL0     C89951   5.031  10.365   9.979  0.5173 -0.1020 -0.0172
  667MOL0     C89952   4.935  10.430   9.871  0.9895  0.0146 -0.7132
  667MOL0     C89953   4.877  10.560   9.925  0.0493 -0.0392  0.5975
  667MOL0     C89954   4.775  10.527  10.039 -0.1006  0.2681  0.3857
  667MOL0    Cl89955   4.627  10.449   9.973  0.3231  0.1419  0.0249
  667MOL0     C89956   5.551   9.970  10.210  0.9782  0.3026  0.6438
  667MOL0     C89957   5.663   9.879  10.207  0.6458  0.3392 -0.4654
  667MOL0     O89958   5.830   9.692  10.059  0.2161 -0.3858 -0.3366
  667MOL0     C89959   6.039   9.512  10.107 -0.6742  0.0706 -0.3371
  667MOL0     C89960   6.149   9.427  10.128  0.6910 -0.6998 -0.0048
  667MOL0     N89961   6.968   9.240  10.424 -0.5830  0.3109  0.0384
  667MOL0     N89962   7.096   9.261  10.443 -0.1702  0.1103  0.4156
  667MOL0     C89963   7.912   8.875  10.384  0.9719 -0.9679  0.5234
  667MOL0     C89964   8.030   8.837  10.324 -0.2638 -0.3430 -0.8693
  667MOL0     C89965   8.456   8.678  10.261 -0.1726 -0.4130  0.3778
  667MOL0     C89966   8.586   8.697  10.307  0.4955 -0.3924  0.1076
  667MOL0     C89967   8.698   8.690  10.230  0.5500  0.1483 -0.1840
  667MOL0     C89968   8.690   8.682  10.091 -0.0365 -0.8396 -0.4487
  667MOL0     O89969   8.825   8.688  10.040  0.5916 -0.0596 -0.4903
  667MOL0     C89970   8.840   8.682   9.897  0.4079  0.1043  0.5421
  667MOL0     C89971   8.973   8.739   9.848 -0.2228 -0.5080  0.6970
  667MOL0     C89972   9.104   8.661   9.893  0.7725  0.4952 -0.0651
  667MOL0     C89973   9.227   8.696   9.811  0.8785  1.0442 -1.2622
  667MOL0     C89974   9.280   8.826   9.843 -0.1462 -0.2664 -0.2304
  667MOL0     C89975   9.342   8.920   9.891  0.2193  0.3299  0.2718
  667MOL0     C89976   8.561   8.670  10.033 -0.1701  0.8474 -0.1212
  667MOL0     C89977   8.440   8.668  10.118  0.3606 -0.9782 -0.4236
  667MOL0     H89978   8.097   8.556  10.500 -1.2863 -1.1234 -1.6082
  667MOL0     H89979   7.897   8.634  10.615  0.8422 -2.0744 -0.5346
  667MOL0     H89980   7.666   8.672  10.605  0.1523  0.6170 -0.6982
  667MOL0     H89981   7.751   8.754  10.741  2.4569  1.0351  0.0039
  667MOL0     H89982   7.493   8.852  10.600 -0.6496  0.9601  1.5329
  667MOL0     H89983   7.487   8.753  10.749 -0.9325 -0.9548 -1.7071
  667MOL0     H89984   7.567   8.908  10.878 -0.6580  1.4631  0.4019
  667MOL0     H89985   7.652   9.002  10.763 -0.3287  1.5080  2.8640
  667MOL0     H89986   7.341   8.982  10.746  2.0660 -3.9294  1.7283
  667MOL0     H89987   7.407   9.086  10.869  0.4317  0.7988 -0.6575
  667MOL0     H89988   7.528   9.229  10.722  0.9720 -1.2882  0.5254
  667MOL0     H89989   7.491   9.125  10.585 -0.0140 -0.2407  0.3178
  667MOL0     H89990   7.253   9.162  10.622 -1.9842  0.2093  1.5084
  667MOL0     H89991   7.288   9.273  10.755  1.2160 -0.7067  0.2048
  667MOL0     H89992   7.430   9.407  10.597  0.9573 -1.8604  0.9270
  667MOL0     H89993   7.363   9.320  10.463  1.7225  0.6884  0.0918
  667MOL0     H89994   7.247   9.519  10.485  1.2336 -0.3250  0.3131
  667MOL0     H89995   7.203   9.486  10.663 -3.0560 -0.6242 -0.1312
  667MOL0     H89996   6.933   9.487  10.629 -0.4660 -0.1004 -1.3484
  667MOL0     H89997   6.698   9.203  10.505 -1.6647  0.4656 -1.0638
  667MOL0     H89998   6.710   9.345  10.609  0.6223 -1.5749  0.5275
  667MOL0     H89999   6.697   9.334  10.304 -0.8996 -0.8689 -0.2315
  667MOL0     H90000   6.694   9.484  10.411 -2.1997  0.1468  1.0221
  667MOL0     H90001   6.477   9.394  10.502 -0.8100  0.9021 -0.8209
  667MOL0     H90002   6.510   9.244  10.421  0.4243  0.5464  2.0537
  667MOL0     H90003   6.498   9.410  10.200  0.0964  4.0258 -0.1128
  667MOL0     H90004   6.435   9.518  10.308 -1.5066 -0.5352  2.9519
  667MOL0     H90005   6.214   9.513  10.454  1.3081 -2.9466 -1.4273
  667MOL0     H90006   5.896   9.721  10.448  0.0239  3.9634 -2.6095
  667MOL0     H90007   6.046   9.680  10.546  2.0489 -0.8121 -1.2635
  667MOL0     H90008   6.039   9.805  10.418 -4.2924  0.4197 -1.2096
  667MOL0     H90009   5.903  10.095  10.236 -0.4869  2.9712 -1.0349
  667MOL0     H90010   5.721  10.252  10.243 -1.3010 -0.0629  3.9116
  667MOL0     H90011   5.322  10.107  10.103 -0.3088  0.3327  0.7412
  667MOL0     H90012   5.312  10.118  10.269  0.0503  1.9371  1.3339
  667MOL0     H90013   5.162  10.278  10.217  0.3775  0.1920 -0.9820
  667MOL0     H90014   5.301  10.382  10.258  3.0992 -1.8407  1.0373
  667MOL0     H90015   5.280  10.303   9.960 -1.3006 -0.9375  0.4305
  667MOL0     H90016   5.367  10.427  10.046  2.2748 -4.8741 -1.7797
  667MOL0     H90017   5.120  10.526  10.095 -1.9138 -3.1573  1.8976
  667MOL0     H90018   5.181  10.528   9.930  1.1682 -0.3446 -2.1306
  667MOL0     H90019   4.974  10.346  10.070  3.1969 -2.0490  1.3905
  667MOL0     H90020   5.058  10.270   9.932  0.1267  0.4630 -1.4219
  667MOL0     H90021   4.984  10.448   9.776 -0.0289  2.1624 -0.8777
  667MOL0     H90022   4.854  10.361   9.847  2.3734 -1.6627 -0.7679
  667MOL0     H90023   4.821  10.614   9.848 -2.5336 -0.6478  1.9565
  667MOL0     H90024   4.954  10.632   9.955  0.1274  1.1885 -2.2259
  667MOL0     H90025   4.741  10.615  10.093  1.5922  0.2205  1.6059
  667MOL0     H90026   4.825  10.465  10.114  1.4459  2.2344  1.0905
  667MOL0     H90027   5.446   9.950  10.191  0.9202  0.8089  0.4234
  667MOL0     H90028   5.652   9.772  10.196  0.0514  0.6104 -3.3157
  667MOL0     H90029   6.002   9.516  10.005  0.6933  1.3886 -0.8377
  667MOL0     H90030   6.190   9.347  10.068  2.0511 -1.1136  1.4109
  667MOL0     H90031   7.864   8.969  10.358  0.4456 -1.2829  0.3346
  667MOL0     H90032   8.056   8.880  10.228 -2.2734 -0.9510 -1.7490
  667MOL0     H90033   8.595   8.720  10.413 -0.2713  0.9937 -0.1049
  667MOL0     H90034   8.796   8.707  10.273  0.0574 -0.0639  1.0548
  667MOL0     H90035   8.822   8.585   9.850 -0.0619  0.3041  0.3028
  667MOL0     H90036   8.757   8.742   9.859 -1.7430 -1.3229  2.6890
  667MOL0     H90037   8.975   8.846   9.870 -1.1902  0.0227 -1.4659
  667MOL0     H90038   8.967   8.734   9.739 -0.6998  1.4207  0.5987
  667MOL0     H90039   9.089   8.553   9.885 -1.5332  0.5200  2.6655
  667MOL0     H90040   9.121   8.687   9.998 -1.1865  0.7901  0.2103
  667MOL0     H90041   9.200   8.668   9.709 -2.6275 -1.7462  0.2171
  667MOL0     H90042   9.308   8.627   9.838  0.8931  0.0115 -3.6483
  667MOL0     H90043   9.410   8.999   9.916  0.2345 -0.3194  2.5641
  667MOL0     H90044   8.544   8.686   9.926 -0.8025  2.4295  0.1815
  667MOL0     H90045   8.339   8.655  10.081 -0.6438  0.5978  1.5459
  668MOL0     O90046   3.343   7.855   0.281  0.4060  0.8421  0.3401
  668MOL0     C90047   3.427   7.795   0.343 -0.5639  0.4434  1.1953
  668MOL0     O90048   3.412   7.666   0.392 -0.7152 -0.2190  0.2433
  668MOL0     C90049   3.287   7.611   0.405  0.2941 -0.3636  0.5292
  668MOL0     C90050   3.190   7.611   0.304  0.2036 -0.7534  0.5832
  668MOL0     C90051   3.065   7.536   0.315  0.3587  1.3264 -0.3932
  668MOL0     C90052   3.041   7.457   0.423 -0.2290 -0.5221 -0.3060
  668MOL0     O90053   2.931   7.377   0.431  0.0240 -0.1126  0.2278
  668MOL0     C90054   2.856   7.343   0.314  0.4839  0.1356 -0.3940
  668MOL0     C90055   2.737   7.438   0.309  0.1178  0.5922 -0.1546
  668MOL0     C90056   2.611   7.387   0.230  0.3764 -0.3764  0.0297
  668MOL0     C90057   2.501   7.487   0.256  0.2636 -0.3280 -0.6446
  668MOL0     C90058   2.362   7.437   0.215 -0.1169  0.0300 -0.5582
  668MOL0     C90059   2.300   7.355   0.333 -0.9649  0.1917  0.9449
  668MOL0     C90060   2.168   7.279   0.295 -0.3296  0.3127  0.4408
  668MOL0     C90061   2.040   7.360   0.325 -0.6428 -0.3034 -0.2640
  668MOL0     N90062   1.928   7.283   0.284 -0.3532  0.5631 -0.4270
  668MOL0     C90063   1.855   7.190   0.351 -0.7495 -0.0106  0.0277
  668MOL0     C90064   1.750   7.168   0.281 -0.9666  0.8176  0.4116
  668MOL0     C90065   1.646   7.063   0.315 -1.6725 -0.1246 -1.0172
  668MOL0     C90066   1.505   7.127   0.307 -0.7881 -0.1087  0.3781
  668MOL0     C90067   1.392   7.051   0.367 -0.4635  0.0170  0.3887
  668MOL0     C90068   1.278   7.152   0.416 -0.3344 -0.0721 -0.2471
  668MOL0     O90069   1.219   7.093   0.528 -0.2073  0.2787 -0.1252
  668MOL0     C90070   1.089   7.051   0.529  0.5465  0.0740 -0.4571
  668MOL0     C90071   1.013   7.015   0.413  0.7729 -0.1900  0.0698
  668MOL0     C90072   0.882   6.968   0.413 -0.3447 -0.0648  0.3612
  668MOL0     C90073   0.820   6.944   0.278  0.4365  0.0773  0.5139
  668MOL0     C90074   0.823   6.931   0.530  0.4909 -0.2068 -0.3812
  668MOL0     C90075   0.674   6.878   0.545  0.2407 -0.4341 -0.6976
  668MOL0     O90076   0.626   6.867   0.667  1.0637 -0.0716 -0.7700
  668MOL0     C90077   0.493   6.834   0.686 -0.0495 -0.4307  0.4790
  668MOL0     C90078   0.455   6.722   0.769  0.1377  0.3741 -0.4147
  668MOL0     C90079   0.324   6.681   0.788 -0.2766  0.4799  0.5628
  668MOL0     C90080   0.216   6.755   0.728  0.0489  0.1423  0.2451
  668MOL0     O90081   0.085   6.719   0.759 -0.1951  0.9905 -0.6881
  668MOL0     C90082  -0.032   6.786   0.710  0.1288 -0.2681 -0.2840
  668MOL0     C90083  -0.142   6.728   0.796 -0.3197 -0.5676 -0.0338
  668MOL0     C90084  -0.276   6.771   0.751  0.6829  0.0927  0.6904
  668MOL0     C90085  -0.380   6.673   0.796  0.1699  1.2607  0.7042
  668MOL0     C90086  -0.522   6.737   0.781 -0.8597  0.1060  0.4405
  668MOL0     C90087  -0.639   6.633   0.788  0.9749  0.2059 -0.0730
  668MOL0     C90088  -0.776   6.705   0.785 -0.3416 -0.6982 -0.9444
  668MOL0     C90089  -0.894   6.617   0.780  0.2288  0.8416 -0.0039
  668MOL0    Cl90090  -0.912   6.545   0.619 -0.0729  0.3820  0.1226
  668MOL0     C90091   0.247   6.855   0.637  0.0484 -0.1028  0.3993
  668MOL0     C90092   0.382   6.896   0.622  0.1367  0.3326 -0.0959
  668MOL0     O90093   0.619   6.829   0.449 -0.3646 -0.4289 -0.7260
  668MOL0     C90094   0.896   6.953   0.646 -0.1068 -1.0964  0.2924
  668MOL0     C90095   1.019   7.019   0.641  0.2472  1.1831  0.4949
  668MOL0     N90096   1.751   7.251   0.171  0.1071 -0.8840 -0.6665
  668MOL0     N90097   1.864   7.320   0.173 -0.1220 -0.0317  0.2587
  668MOL0     C90098   3.143   7.454   0.524  0.8144  0.0592 -0.1520
  668MOL0     C90099   3.257   7.533   0.515  0.7351 -0.2560  0.2918
  668MOL0     C90100   3.563   7.857   0.359  0.8744 -0.6170 -0.7210
  668MOL0     C90101   3.672   7.780   0.408 -0.6962  0.4739 -0.5222
  668MOL0     C90102   3.790   7.836   0.446 -0.4924 -0.7920  0.0787
  668MOL0     C90103   3.804   7.980   0.436  0.0800  0.1532 -0.0073
  668MOL0     O90104   3.925   8.030   0.490 -0.4495  0.3483 -0.1491
  668MOL0     C90105   3.948   8.171   0.465  0.3697 -0.4581  0.9705
  668MOL0     C90106   3.975   8.211   0.316  0.6758 -0.2474 -0.2644
  668MOL0     C90107   3.967   8.366   0.302  0.9061  0.5389  0.0649
  668MOL0     C90108   4.082   8.439   0.361 -0.2167 -0.9716  0.9054
  668MOL0     C90109   4.202   8.431   0.272  0.5419 -0.1050  0.0499
  668MOL0     C90110   4.299   8.425   0.201 -0.4617 -0.7480 -0.2810
  668MOL0     C90111   3.696   8.057   0.383  0.0383  0.2891  0.0368
  668MOL0     C90112   3.577   7.995   0.349 -0.1151  0.2789  0.7202
  668MOL0     H90113   3.224   7.654   0.211  2.3213 -0.2298  1.5391
  668MOL0     H90114   3.001   7.529   0.228  4.7246  0.4565 -3.9045
  668MOL0     H90115   2.908   7.341   0.217  0.0924 -1.0854 -0.6000
  668MOL0     H90116   2.823   7.241   0.334  1.6243 -0.4172 -1.1637
  668MOL0     H90117   2.702   7.471   0.407  1.9291  3.1522 -0.2676
  668MOL0     H90118   2.781   7.526   0.261  2.3225  0.1858  1.0149
  668MOL0     H90119   2.624   7.396   0.122 -0.5066  0.8052 -0.0052
  668MOL0     H90120   2.587   7.288   0.270 -1.8899  0.3442  0.6412
  668MOL0     H90121   2.491   7.497   0.365 -2.7965 -1.5840 -0.7185
  668MOL0     H90122   2.538   7.580   0.212  1.4712 -1.0401 -1.1875
  668MOL0     H90123   2.297   7.521   0.186 -0.1543  0.1803 -0.0504
  668MOL0     H90124   2.370   7.373   0.127 -1.2828 -3.4997  1.7112
  668MOL0     H90125   2.375   7.278   0.353  0.9195  0.2674 -4.3395
  668MOL0     H90126   2.288   7.420   0.420 -0.4100  0.8635  0.5341
  668MOL0     H90127   2.164   7.250   0.190 -1.2191 -0.2467  0.6139
  668MOL0     H90128   2.150   7.187   0.352 -3.8373  0.0830 -0.7530
  668MOL0     H90129   2.037   7.456   0.272  0.1964 -1.0301 -1.6915
  668MOL0     H90130   2.046   7.365   0.434  3.8527 -1.6091 -0.2455
  668MOL0     H90131   1.890   7.152   0.446  0.1930 -0.3220 -0.4325
  668MOL0     H90132   1.658   6.976   0.251 -1.2890 -2.1612  1.6184
  668MOL0     H90133   1.663   7.032   0.419  2.2377  1.2443 -1.0876
  668MOL0     H90134   1.484   7.131   0.200 -1.7203 -0.9655  0.5145
  668MOL0     H90135   1.509   7.227   0.352  1.8740  0.3297 -0.6683
  668MOL0     H90136   1.425   6.993   0.454  0.0971 -1.2839 -0.6652
  668MOL0     H90137   1.347   6.987   0.290 -2.1342 -0.7325  1.8965
  668MOL0     H90138   1.212   7.193   0.339  0.0976  1.9454  0.4018
  668MOL0     H90139   1.319   7.240   0.466  0.2244 -0.0728 -0.6941
  668MOL0     H90140   1.066   7.021   0.318  1.1814 -1.5961  0.1872
  668MOL0     H90141   0.733   7.007   0.258 -0.0188 -1.2554 -2.0190
  668MOL0     H90142   0.887   6.955   0.192  0.4776  3.5887  0.8290
  668MOL0     H90143   0.805   6.837   0.262  0.9805  0.0211  0.3487
  668MOL0     H90144   0.523   6.670   0.836 -0.1161 -2.5880 -2.2780
  668MOL0     H90145   0.291   6.592   0.842  0.8334 -0.1661  0.2059
  668MOL0     H90146  -0.025   6.895   0.722  0.8968 -0.2665 -0.6520
  668MOL0     H90147  -0.040   6.755   0.606  0.8814 -1.2435 -0.0778
  668MOL0     H90148  -0.128   6.619   0.801  3.7837 -0.1218  2.2920
  668MOL0     H90149  -0.131   6.772   0.895 -0.0690  0.1673 -0.3825
  668MOL0     H90150  -0.278   6.787   0.642 -2.1636  2.3607  0.9440
  668MOL0     H90151  -0.295   6.869   0.794 -0.2962  1.2403 -2.0917
  668MOL0     H90152  -0.372   6.588   0.728  2.6200  0.1271  2.2412
  668MOL0     H90153  -0.372   6.633   0.898 -0.7243 -0.0244  0.3002
  668MOL0     H90154  -0.533   6.789   0.685  0.7181  1.8035  1.1368
  668MOL0     H90155  -0.538   6.813   0.858  1.7636  1.0199  0.1661
  668MOL0     H90156  -0.636   6.571   0.698 -0.1508 -0.7948  0.5437
  668MOL0     H90157  -0.632   6.566   0.875 -1.3053  0.2501  0.2041
  668MOL0     H90158  -0.778   6.777   0.703 -3.0436  2.6181  1.7446
  668MOL0     H90159  -0.795   6.772   0.869 -1.5192 -2.2730  0.0853
  668MOL0     H90160  -0.981   6.678   0.804  0.9968  1.9839 -0.0287
  668MOL0     H90161  -0.895   6.544   0.861 -2.3357  2.9809  2.0816
  668MOL0     H90162   0.174   6.920   0.591  3.8608  3.9332 -0.6593
  668MOL0     H90163   0.399   6.974   0.548  0.4485 -0.5163 -0.9332
  668MOL0     H90164   0.859   6.921   0.743 -0.4851  0.5560  0.7292
  668MOL0     H90165   1.069   7.027   0.737  0.4138 -3.7320  1.0473
  668MOL0     H90166   3.120   7.394   0.611  0.3745 -2.3914 -1.8462
  668MOL0     H90167   3.339   7.532   0.586  1.5543  0.6205 -0.6306
  668MOL0     H90168   3.659   7.673   0.412  0.3846  0.3523  0.1902
  668MOL0     H90169   3.870   7.767   0.472 -0.1207 -0.0220  1.0326
  668MOL0     H90170   3.861   8.225   0.504 -0.1411 -1.9677  2.0606
  668MOL0     H90171   4.034   8.197   0.527  1.6090 -0.7873 -0.5532
  668MOL0     H90172   3.906   8.173   0.240  2.4820 -1.4426 -1.3881
  668MOL0     H90173   4.071   8.169   0.284  1.0720  2.0836 -2.3709
  668MOL0     H90174   3.872   8.395   0.348  0.4737  0.8776 -1.0113
  668MOL0     H90175   3.968   8.394   0.196  2.0514 -2.7091 -0.9092
  668MOL0     H90176   4.102   8.418   0.467  0.3343 -0.6720  0.8633
  668MOL0     H90177   4.062   8.546   0.352  2.1832 -0.6641 -3.2763
  668MOL0     H90178   4.378   8.426   0.129  1.9747 -1.1972  2.2190
  668MOL0     H90179   3.699   8.165   0.366 -0.6208  0.3402  0.2290
  668MOL0     H90180   3.499   8.061   0.314  0.0509  0.0329 -0.1410
  669MOL0     O90181   9.915   1.004   7.712  0.4167 -0.1941 -0.1052
  669MOL0     C90182   9.956   1.112   7.739 -1.4422 -0.4559  0.0685
  669MOL0     O90183   9.887   1.201   7.821 -0.6275  0.5466  0.7301
  669MOL0     C90184   9.755   1.196   7.857  0.3925  0.0697  0.3605
  669MOL0     C90185   9.715   1.273   7.968 -0.9128 -0.6640 -0.3188
  669MOL0     C90186   9.581   1.276   8.015 -1.0054  0.1911  0.3456
  669MOL0     C90187   9.486   1.191   7.952  0.0534  1.1995 -0.9945
  669MOL0     O90188   9.354   1.171   7.993  0.4413  1.0901 -0.0194
  669MOL0     C90189   9.287   1.255   8.088 -0.3520 -0.3992 -0.4179
  669MOL0     C90190   9.294   1.189   8.227  0.1200 -0.2934  0.8726
  669MOL0     C90191   9.283   1.290   8.340 -0.4059  0.7220  0.4090
  669MOL0     C90192   9.137   1.346   8.362 -0.1970  0.6128  0.1996
  669MOL0     C90193   9.134   1.414   8.502 -1.0218  1.0704  0.5191
  669MOL0     C90194   9.015   1.499   8.511  0.0642 -0.3503 -0.2160
  669MOL0     C90195   8.889   1.418   8.541  0.3776  0.0130 -0.2715
  669MOL0     C90196   8.775   1.512   8.587 -0.2287  0.0799  0.9951
  669MOL0     N90197   8.657   1.423   8.601  0.5103 -0.2157 -0.3302
  669MOL0     C90198   8.590   1.371   8.491 -0.0798  0.1584  0.1304
  669MOL0     C90199   8.505   1.283   8.538  0.0329 -0.0034 -0.1178
  669MOL0     C90200   8.401   1.213   8.452 -0.1257 -0.8645 -0.5340
  669MOL0     C90201   8.293   1.321   8.418  0.0312  0.6500 -0.5920
  669MOL0     C90202   8.171   1.253   8.337  0.0020 -0.7538 -0.7465
  669MOL0     C90203   8.039   1.322   8.350 -0.0534  0.4986  0.2275
  669MOL0     O90204   7.977   1.295   8.479 -0.0289 -0.0876 -0.2192
  669MOL0     C90205   7.846   1.333   8.492  0.8835  0.3764  0.0200
  669MOL0     C90206   7.783   1.283   8.606 -0.1353  0.1275 -0.0098
  669MOL0     C90207   7.647   1.309   8.635  0.3354 -0.1572 -0.0748
  669MOL0     C90208   7.592   1.257   8.764 -1.0632  0.0218 -0.5649
  669MOL0     C90209   7.570   1.396   8.551  0.4423  0.2923 -0.5329
  669MOL0     C90210   7.430   1.430   8.565  0.0495 -0.1069  0.4237
  669MOL0     O90211   7.395   1.563   8.545 -0.2835 -0.0149  0.1404
  669MOL0     C90212   7.264   1.602   8.561 -0.6744 -0.3067 -1.0595
  669MOL0     C90213   7.239   1.740   8.587 -0.7337 -0.3961  0.4073
  669MOL0     C90214   7.116   1.800   8.598 -0.0640 -0.2078  0.0765
  669MOL0     C90215   6.998   1.724   8.575  0.3253  0.1213  0.2368
  669MOL0     O90216   6.877   1.787   8.581  0.1644  0.0627  0.2999
  669MOL0     C90217   6.750   1.726   8.536 -0.0549  0.2325 -0.4531
  669MOL0     C90218   6.645   1.829   8.568  0.5350 -0.1915  0.1084
  669MOL0     C90219   6.637   1.937   8.460 -0.0702 -0.0515  0.4581
  669MOL0     C90220   6.502   1.999   8.484 -0.3651  0.1342  0.4879
  669MOL0     C90221   6.484   2.121   8.388  0.0028  0.3852  0.1585
  669MOL0     C90222   6.341   2.145   8.357  0.3797  0.6147 -0.8010
  669MOL0     C90223   6.330   2.239   8.245 -0.2469 -0.6458 -0.0121
  669MOL0     C90224   6.181   2.280   8.216  0.3020 -0.7879 -0.0816
  669MOL0    Cl90225   6.109   2.128   8.158  0.0407  0.5035 -0.2249
  669MOL0     C90226   7.014   1.591   8.542 -0.5799  0.2064  0.6563
  669MOL0     C90227   7.146   1.526   8.538 -0.2482  0.0205  0.9167
  669MOL0     O90228   7.350   1.334   8.587 -0.6868  0.3037  0.5901
  669MOL0     C90229   7.636   1.441   8.433  0.8788  0.2264 -0.7436
  669MOL0     C90230   7.766   1.419   8.405  0.2060 -0.4092  0.1939
  669MOL0     N90231   8.520   1.276   8.676  0.7671 -0.4311 -0.0618
  669MOL0     N90232   8.609   1.365   8.707 -0.2479 -0.1825 -0.1383
  669MOL0     C90233   9.522   1.113   7.841 -0.3530  0.1857 -0.4324
  669MOL0     C90234   9.653   1.115   7.799  0.3060  0.1235  0.8992
  669MOL0     C90235  10.098   1.140   7.710 -0.1595 -0.3240  0.3831
  669MOL0     C90236  10.154   1.070   7.607 -0.0591 -0.5919 -0.5271
  669MOL0     C90237  10.281   1.104   7.567 -0.2223  0.5008 -0.2646
  669MOL0     C90238  10.354   1.204   7.623 -0.1576  0.6640  0.2264
  669MOL0     O90239  10.482   1.231   7.579 -0.6951  0.2167  0.8820
  669MOL0     C90240  10.541   1.360   7.590  0.0987 -0.1600  0.4771
  669MOL0     C90241  10.633   1.366   7.714 -0.0623  0.2916  0.5596
  669MOL0     C90242  10.776   1.369   7.679 -0.2334  0.8359  1.1658
  669MOL0     C90243  10.825   1.228   7.624 -0.9193 -0.5817  0.0988
  669MOL0     C90244  10.963   1.221   7.589 -0.7063 -0.5679 -0.0721
  669MOL0     C90245  11.078   1.214   7.546  0.0597 -0.9599  0.9664
  669MOL0     C90246  10.303   1.270   7.734 -0.1625  0.4585 -0.4045
  669MOL0     C90247  10.177   1.231   7.776 -0.0919 -0.8886  0.7903
  669MOL0     H90248   9.797   1.327   8.015  0.3939 -1.7453 -1.3061
  669MOL0     H90249   9.564   1.333   8.106  1.1282 -0.3195  1.1273
  669MOL0     H90250   9.338   1.351   8.100  0.2824 -0.9035  1.2133
  669MOL0     H90251   9.184   1.272   8.056  0.5494  1.8060 -2.4037
  669MOL0     H90252   9.223   1.106   8.231  2.2859 -2.3672 -0.9760
  669MOL0     H90253   9.393   1.143   8.230 -0.9997 -2.9442  0.4819
  669MOL0     H90254   9.314   1.245   8.434  2.8416 -0.6940 -1.2028
  669MOL0     H90255   9.353   1.372   8.322  2.3643 -1.9501 -2.0302
  669MOL0     H90256   9.115   1.420   8.284 -7.0556 -1.8511 -0.9231
  669MOL0     H90257   9.060   1.269   8.350 -0.4239  0.9982 -1.0010
  669MOL0     H90258   9.149   1.342   8.583 -0.0089  1.1030  0.3729
  669MOL0     H90259   9.218   1.483   8.510  0.3482 -0.7465  5.4735
  669MOL0     H90260   9.047   1.568   8.589  1.3869 -4.8230  3.6427
  669MOL0     H90261   9.004   1.546   8.412 -0.6428 -1.9155 -0.9272
  669MOL0     H90262   8.852   1.376   8.447  0.3859 -0.5330 -0.0317
  669MOL0     H90263   8.902   1.350   8.625 -0.7780  0.1442  0.0254
  669MOL0     H90264   8.756   1.599   8.523  0.3770  0.8824  1.8592
  669MOL0     H90265   8.802   1.555   8.684  0.8747 -0.1879  0.8173
  669MOL0     H90266   8.597   1.393   8.385 -1.1380 -0.5542 -0.1053
  669MOL0     H90267   8.443   1.162   8.365  0.4091  0.9219 -1.3637
  669MOL0     H90268   8.358   1.138   8.518  1.7969  0.6373  2.6598
  669MOL0     H90269   8.334   1.408   8.366  2.4136 -0.2950 -0.3920
  669MOL0     H90270   8.247   1.368   8.505  0.0146 -0.2116 -0.1259
  669MOL0     H90271   8.157   1.149   8.368  2.0079 -0.4270  1.5691
  669MOL0     H90272   8.202   1.243   8.233 -0.5468  0.8848 -1.0952
  669MOL0     H90273   7.971   1.307   8.266  0.6617 -2.0630  0.0291
  669MOL0     H90274   8.060   1.429   8.344 -3.6552  1.4334  1.7629
  669MOL0     H90275   7.849   1.233   8.676  2.0112  2.4912 -0.1960
  669MOL0     H90276   7.663   1.198   8.825 -5.8113 -2.2097  3.5359
  669MOL0     H90277   7.559   1.345   8.820 -0.3267 -0.7600  1.1964
  669MOL0     H90278   7.505   1.191   8.755 -1.0780  0.0698 -0.7804
  669MOL0     H90279   7.319   1.811   8.607 -2.7075  1.4896  2.0147
  669MOL0     H90280   7.112   1.906   8.623  2.2278  0.0911 -0.5513
  669MOL0     H90281   6.750   1.702   8.429  0.4621  0.2213 -0.4559
  669MOL0     H90282   6.730   1.633   8.590 -2.0477 -0.7918 -2.7574
  669MOL0     H90283   6.549   1.778   8.574 -1.1418  2.3439 -2.4086
  669MOL0     H90284   6.663   1.867   8.669  1.8561  1.0591 -0.5634
  669MOL0     H90285   6.633   1.879   8.367  0.2554  0.2505  0.2584
  669MOL0     H90286   6.712   2.016   8.460 -1.8132  1.7775  3.4012
  669MOL0     H90287   6.427   1.922   8.463 -1.8247  1.4540  0.6947
  669MOL0     H90288   6.481   2.036   8.585  0.7527  1.0852  0.3918
  669MOL0     H90289   6.544   2.109   8.298  1.4678 -1.2600  1.2757
  669MOL0     H90290   6.525   2.215   8.426  0.1766  0.7108 -0.8256
  669MOL0     H90291   6.308   2.046   8.325  1.1037  0.4280 -0.9810
  669MOL0     H90292   6.282   2.171   8.446  1.3514 -1.8749  0.6699
  669MOL0     H90293   6.374   2.202   8.152  2.8554  0.6871  0.7891
  669MOL0     H90294   6.388   2.328   8.269  0.1924 -0.5061 -1.4674
  669MOL0     H90295   6.160   2.359   8.143 -1.6449  0.3823  1.6275
  669MOL0     H90296   6.134   2.310   8.310  0.8175 -0.2050  0.0027
  669MOL0     H90297   6.927   1.534   8.511 -1.0019  1.3704 -0.3622
  669MOL0     H90298   7.145   1.420   8.513 -1.2873  0.6640 -2.2110
  669MOL0     H90299   7.586   1.514   8.370 -0.1408  1.0531  0.9451
  669MOL0     H90300   7.785   1.475   8.315 -3.6622  1.1452  0.1595
  669MOL0     H90301   9.452   1.045   7.792 -1.5173  1.9299 -1.2683
  669MOL0     H90302   9.675   1.049   7.715 -0.0382  0.2069  0.7409
  669MOL0     H90303  10.105   0.984   7.562 -0.0956  0.3551 -2.4075
  669MOL0     H90304  10.319   1.044   7.485 -2.4836  0.7505 -1.5558
  669MOL0     H90305  10.599   1.382   7.500  4.3130 -0.1373  2.9250
  669MOL0     H90306  10.462   1.433   7.609 -0.0259 -0.5060  1.3698
  669MOL0     H90307  10.600   1.281   7.775 -0.5019 -0.2169 -0.3694
  669MOL0     H90308  10.626   1.460   7.770  1.9009  2.1883 -2.1520
  669MOL0     H90309  10.829   1.384   7.773  0.2381 -3.6839  1.8674
  669MOL0     H90310  10.790   1.425   7.586  3.1969 -1.5657  0.0364
  669MOL0     H90311  10.764   1.206   7.536 -1.7997  2.5530 -0.2102
  669MOL0     H90312  10.806   1.160   7.707  0.6076 -0.1224  0.8656
  669MOL0     H90313  11.175   1.215   7.501  1.3522  2.9679  3.2852
  669MOL0     H90314  10.347   1.345   7.799 -1.0649 -2.4009  3.9318
  669MOL0     H90315  10.127   1.291   7.852 -2.1443 -1.8470  0.2717
  670MOL0     O90316   3.979   5.092   8.329  0.6527 -0.0728 -0.3422
  670MOL0     C90317   3.978   4.978   8.274  0.1778 -0.3855 -0.4425
  670MOL0     O90318   3.866   4.896   8.246 -1.2272  0.1355  0.0716
  670MOL0     C90319   3.737   4.910   8.292 -0.8936 -0.0673 -0.8086
  670MOL0     C90320   3.665   5.029   8.288 -0.2550  0.3767 -1.1455
  670MOL0     C90321   3.531   5.029   8.338 -0.6317  0.3869 -0.1900
  670MOL0     C90322   3.461   4.911   8.377 -1.0864  0.3712 -0.1541
  670MOL0     O90323   3.333   4.903   8.412 -0.8141 -1.1615 -1.4027
  670MOL0     C90324   3.255   5.026   8.436  0.2003  1.5099  0.9156
  670MOL0     C90325   3.119   5.002   8.493  0.1040 -0.5792  0.0311
  670MOL0     C90326   3.120   5.004   8.643  0.1983  0.3205  0.1872
  670MOL0     C90327   2.999   4.919   8.706  0.3401  0.2090  0.3508
  670MOL0     C90328   3.000   4.930   8.857  0.5550  0.8351  0.0961
  670MOL0     C90329   2.928   4.810   8.928  0.3761  0.5780  1.0413
  670MOL0     C90330   2.871   4.844   9.062  0.1557  0.2544  0.1981
  670MOL0     C90331   2.755   4.943   9.047  0.5215  0.5970  0.4905
  670MOL0     N90332   2.680   4.966   9.169  0.3990 -0.9253  0.5963
  670MOL0     C90333   2.550   4.920   9.193 -0.6975  0.0597  0.2476
  670MOL0     C90334   2.505   4.985   9.304  0.3663 -0.7025  0.2832
  670MOL0     C90335   2.354   4.995   9.356  0.1597  0.1734  0.8279
  670MOL0     C90336   2.309   5.137   9.308  0.6439  1.1104  0.1534
  670MOL0     C90337   2.335   5.241   9.419 -0.1951  0.1064  0.1305
  670MOL0     C90338   2.303   5.385   9.379  0.4544  0.1381  0.0686
  670MOL0     O90339   2.339   5.426   9.242 -0.1392 -0.3253  0.2048
  670MOL0     C90340   2.244   5.402   9.144 -0.2650 -0.1935  0.0504
  670MOL0     C90341   2.279   5.424   9.008  0.0577  0.5869 -0.6520
  670MOL0     C90342   2.194   5.393   8.901 -1.0719  0.1424 -0.5568
  670MOL0     C90343   2.239   5.398   8.760  0.0007  0.2673 -0.5579
  670MOL0     C90344   2.071   5.335   8.936  0.7280  0.1432  1.0504
  670MOL0     C90345   1.970   5.296   8.831 -0.2624 -0.2613  0.1505
  670MOL0     O90346   1.868   5.392   8.815 -0.5274  0.1632  0.2420
  670MOL0     C90347   1.799   5.374   8.701 -0.6626 -0.3504 -0.3321
  670MOL0     C90348   1.718   5.261   8.689  0.0682  0.1421  0.1095
  670MOL0     C90349   1.641   5.245   8.575  0.0821 -1.2406  0.6934
  670MOL0     C90350   1.652   5.342   8.472 -0.2940  0.1560  0.2755
  670MOL0     O90351   1.573   5.328   8.361  0.1021 -0.7973  0.0122
  670MOL0     C90352   1.440   5.260   8.391  0.3205  0.2695 -0.0933
  670MOL0     C90353   1.350   5.284   8.267 -0.1076  0.0658  0.2948
  670MOL0     C90354   1.322   5.437   8.250 -0.5139 -0.6637 -0.3312
  670MOL0     C90355   1.238   5.467   8.125 -0.4038  0.3853  0.0731
  670MOL0     C90356   1.187   5.613   8.105  0.0639 -0.1762  0.0276
  670MOL0     C90357   1.083   5.655   8.196 -0.6388  0.1362 -0.7277
  670MOL0     C90358   0.951   5.581   8.178  0.9373 -0.2949  0.5627
  670MOL0     C90359   0.830   5.675   8.205  0.1439  0.5754  0.9786
  670MOL0    Cl90360   0.824   5.727   8.378 -0.5372 -0.0896  0.0406
  670MOL0     C90361   1.742   5.442   8.482  0.0950 -0.9361  1.7739
  670MOL0     C90362   1.811   5.464   8.601  0.1890  0.0473  0.6456
  670MOL0     O90363   1.996   5.207   8.754 -0.1641 -0.6333  0.0496
  670MOL0     C90364   2.023   5.307   9.062 -0.7111  0.4435 -0.5353
  670MOL0     C90365   2.114   5.338   9.160 -0.7804 -0.3419  0.5256
  670MOL0     N90366   2.611   5.067   9.348  0.2005  0.4110  0.3966
  670MOL0     N90367   2.712   5.064   9.260  0.5436 -0.1909 -0.0744
  670MOL0     C90368   3.540   4.792   8.370 -0.7277 -0.3119 -0.0061
  670MOL0     C90369   3.672   4.790   8.324 -1.1772 -0.6710 -0.7145
  670MOL0     C90370   4.106   4.916   8.239 -0.2734  0.0604 -0.0429
  670MOL0     C90371   4.228   4.982   8.267  0.4952 -0.6643  0.0809
  670MOL0     C90372   4.346   4.915   8.250  0.3317 -0.4663 -0.1697
  670MOL0     C90373   4.348   4.781   8.225  0.0861 -0.5439  0.2754
  670MOL0     O90374   4.478   4.728   8.219 -0.4190 -0.2650  0.8523
  670MOL0     C90375   4.479   4.600   8.152  0.0519 -0.6823 -0.4522
  670MOL0     C90376   4.625   4.550   8.166 -0.3394  0.0003  0.4517
  670MOL0     C90377   4.630   4.399   8.134  0.0464 -0.0141 -0.5748
  670MOL0     C90378   4.774   4.350   8.116 -0.3785  0.5543 -0.0629
  670MOL0     C90379   4.837   4.387   7.989 -0.4339  1.0731  0.7748
  670MOL0     C90380   4.872   4.393   7.873 -0.4941  0.1549 -0.1056
  670MOL0     C90381   4.228   4.719   8.188 -1.0198 -0.2183 -0.4711
  670MOL0     C90382   4.112   4.784   8.185  0.5982  0.4408 -0.5322
  670MOL0     H90383   3.696   5.128   8.256 -0.0947  0.4334 -0.8233
  670MOL0     H90384   3.483   5.127   8.341 -0.8193  0.2755  1.2151
  670MOL0     H90385   3.297   5.102   8.502 -0.7221  2.3998  0.5020
  670MOL0     H90386   3.227   5.059   8.335 -1.8787 -0.3227  0.8059
  670MOL0     H90387   3.063   5.088   8.455 -0.3570 -0.9706 -0.1899
  670MOL0     H90388   3.075   4.909   8.454 -0.1931  0.4416 -2.2560
  670MOL0     H90389   3.214   4.955   8.671  0.6136  1.5762  1.0560
  670MOL0     H90390   3.117   5.103   8.688 -0.5043 -0.6974  2.5696
  670MOL0     H90391   2.903   4.955   8.666 -0.7222 -3.2368 -0.5083
  670MOL0     H90392   3.013   4.812   8.690  0.1792  0.1760  0.4255
  670MOL0     H90393   3.106   4.934   8.883  0.5633 -0.6610  0.3287
  670MOL0     H90394   2.971   5.032   8.883 -0.0338  0.8528 -0.5885
  670MOL0     H90395   2.867   4.759   8.853  0.0230  3.4067 -0.7406
  670MOL0     H90396   3.004   4.733   8.947 -0.9955 -0.5772  2.1818
  670MOL0     H90397   2.840   4.754   9.115  0.9519  0.6153  1.3321
  670MOL0     H90398   2.945   4.896   9.123  0.9207  0.0403 -0.5335
  670MOL0     H90399   2.688   4.924   8.963 -2.1848 -2.1364  3.0142
  670MOL0     H90400   2.808   5.037   9.027 -0.6115  0.9362 -1.0521
  670MOL0     H90401   2.494   4.842   9.142  0.0658  0.5237 -1.3534
  670MOL0     H90402   2.298   4.909   9.317 -0.4789  0.1765  1.7132
  670MOL0     H90403   2.338   4.992   9.464  0.6124 -0.0693  0.8910
  670MOL0     H90404   2.201   5.124   9.296  0.5746  0.2150  1.5564
  670MOL0     H90405   2.349   5.163   9.209 -2.6235 -0.6692 -1.8023
  670MOL0     H90406   2.439   5.228   9.451 -0.9717  1.0892  3.4017
  670MOL0     H90407   2.272   5.223   9.506 -3.3810 -2.3636 -2.4293
  670MOL0     H90408   2.354   5.450   9.450 -3.5283  1.8916  1.6476
  670MOL0     H90409   2.200   5.407   9.411  0.9429  1.1741  1.0120
  670MOL0     H90410   2.372   5.473   8.982 -0.2354  1.0497 -0.8506
  670MOL0     H90411   2.287   5.495   8.743 -1.1210  0.9824  0.1813
  670MOL0     H90412   2.317   5.322   8.746  0.3563  0.6629 -0.7563
  670MOL0     H90413   2.166   5.387   8.679 -1.2668  1.0934  0.4361
  670MOL0     H90414   1.725   5.182   8.764 -1.8073  0.0826  0.2707
  670MOL0     H90415   1.576   5.158   8.570  1.6250 -2.7014  3.4566
  670MOL0     H90416   1.453   5.152   8.401 -2.8514 -0.0297  2.0669
  670MOL0     H90417   1.393   5.306   8.479 -1.7759 -0.1323 -0.9541
  670MOL0     H90418   1.397   5.240   8.178 -0.6153  0.5483 -0.2182
  670MOL0     H90419   1.251   5.240   8.283  0.1678  0.5477  4.3341
  670MOL0     H90420   1.416   5.493   8.250 -1.4657  1.0246 -1.3928
  670MOL0     H90421   1.268   5.485   8.333  2.1807  3.4656 -0.6852
  670MOL0     H90422   1.290   5.453   8.029  1.0837  2.7556  0.4373
  670MOL0     H90423   1.152   5.400   8.127  0.7425 -1.2097 -0.9574
  670MOL0     H90424   1.144   5.634   8.007 -1.3993 -0.7939  0.5016
  670MOL0     H90425   1.267   5.686   8.119 -1.5706  1.4544  1.3802
  670MOL0     H90426   1.109   5.624   8.298 -0.4409 -1.6639 -1.2897
  670MOL0     H90427   1.078   5.764   8.204  0.0497  0.0813  0.7544
  670MOL0     H90428   0.959   5.490   8.238 -0.3978  0.9058  2.6758
  670MOL0     H90429   0.934   5.549   8.075 -0.2350  1.7540  0.0649
  670MOL0     H90430   0.742   5.611   8.195  0.7573 -0.0866 -0.3612
  670MOL0     H90431   0.833   5.758   8.135 -0.2585  0.6540  1.0531
  670MOL0     H90432   1.754   5.505   8.394  1.6974 -0.5070  2.2710
  670MOL0     H90433   1.872   5.554   8.597 -1.4066  1.1380 -2.2349
  670MOL0     H90434   1.923   5.266   9.074 -0.6773  0.9172  1.6014
  670MOL0     H90435   2.077   5.315   9.260 -1.5175 -0.3062  0.2681
  670MOL0     H90436   3.497   4.696   8.398  3.0194 -1.3414  3.0978
  670MOL0     H90437   3.732   4.702   8.305  1.3474  0.2051  2.2433
  670MOL0     H90438   4.230   5.080   8.314 -0.0327 -0.0336 -1.1857
  670MOL0     H90439   4.442   4.957   8.278  0.2444  0.3760 -1.0553
  670MOL0     H90440   4.415   4.537   8.215 -0.1102  1.5469  1.7647
  670MOL0     H90441   4.434   4.611   8.053  0.9300  0.4825 -0.7426
  670MOL0     H90442   4.675   4.575   8.260 -0.7549 -0.4891  0.8058
  670MOL0     H90443   4.693   4.607   8.102 -2.4904 -0.5176 -2.5251
  670MOL0     H90444   4.577   4.375   8.041 -1.6891 -0.4691  0.4783
  670MOL0     H90445   4.586   4.346   8.219  3.7130 -1.0648  0.8255
  670MOL0     H90446   4.776   4.240   8.122  2.3421  0.5609  4.7299
  670MOL0     H90447   4.836   4.380   8.201 -2.3669  2.0697  0.9614
  670MOL0     H90448   4.911   4.388   7.774 -0.7230 -2.3463 -0.1410
  670MOL0     H90449   4.234   4.612   8.173  3.1379 -0.4612  1.3239
  670MOL0     H90450   4.031   4.715   8.163  1.8162 -0.5559 -2.0544
  671MOL0     O90451   3.457   5.211   6.957 -1.3402  0.7361  0.6140
  671MOL0     C90452   3.411   5.191   6.846  0.4686  0.5271  0.5904
  671MOL0     O90453   3.279   5.177   6.825  0.5839  0.3710  0.1781
  671MOL0     C90454   3.183   5.189   6.930 -0.4805 -0.6490 -0.1189
  671MOL0     C90455   3.190   5.127   7.057 -0.3853 -0.0814  0.0681
  671MOL0     C90456   3.098   5.136   7.154  0.2909 -0.4971 -0.2520
  671MOL0     C90457   2.981   5.207   7.129  0.0892 -0.3376 -0.0748
  671MOL0     O90458   2.885   5.223   7.225 -0.5416  0.1639 -0.3842
  671MOL0     C90459   2.790   5.118   7.218  0.8269 -0.4693  0.3718
  671MOL0     C90460   2.660   5.192   7.194  0.0950  0.5078  0.0899
  671MOL0     C90461   2.608   5.260   7.320  0.1234  1.0163 -1.1551
  671MOL0     C90462   2.464   5.308   7.325 -0.1466  0.4851  1.2550
  671MOL0     C90463   2.439   5.421   7.232  0.2192 -0.9464  0.0318
  671MOL0     C90464   2.472   5.551   7.304 -0.4528 -0.6364  0.4701
  671MOL0     C90465   2.451   5.679   7.225 -1.0136  0.0749  0.6846
  671MOL0     C90466   2.580   5.702   7.136  0.2507  1.0198 -0.5379
  671MOL0     N90467   2.548   5.740   6.996  0.6935  0.1786  0.0282
  671MOL0     C90468   2.468   5.842   6.966 -0.1133  0.3910  0.7446
  671MOL0     C90469   2.487   5.853   6.835 -0.0662  0.7289  0.3667
  671MOL0     C90470   2.431   5.968   6.765  0.0864 -0.4941 -0.8378
  671MOL0     C90471   2.329   5.916   6.656 -0.3308 -0.4392  0.3846
  671MOL0     C90472   2.273   6.027   6.568  0.1651 -0.4868  0.8650
  671MOL0     C90473   2.130   6.008   6.506  0.0465  0.6850 -0.5363
  671MOL0     O90474   2.041   5.994   6.619 -0.2613  0.2064 -0.1704
  671MOL0     C90475   1.905   6.022   6.582 -0.8047 -0.9585  0.0861
  671MOL0     C90476   1.855   6.150   6.579  0.8109  0.9669  0.2190
  671MOL0     C90477   1.721   6.171   6.535  0.4568  0.0891  0.2394
  671MOL0     C90478   1.671   6.315   6.534 -1.0087  0.5601  0.1832
  671MOL0     C90479   1.644   6.066   6.490 -0.0248  0.4696 -0.5113
  671MOL0     C90480   1.507   6.083   6.440 -0.2689  0.9194  0.4866
  671MOL0     O90481   1.494   6.161   6.328  0.2383  0.0202  0.2289
  671MOL0     C90482   1.363   6.191   6.292 -0.6338 -0.9910  0.9005
  671MOL0     C90483   1.293   6.301   6.336  0.5497  1.4380  0.1212
  671MOL0     C90484   1.158   6.318   6.288 -0.7264  0.3771 -1.2993
  671MOL0     C90485   1.101   6.236   6.193 -0.8927 -0.7038 -0.8610
  671MOL0     O90486   0.975   6.250   6.134 -0.0029  0.6707 -1.0463
  671MOL0     C90487   0.904   6.372   6.157  0.6154  0.1686  0.7319
  671MOL0     C90488   0.793   6.354   6.062  0.4222 -0.3843 -0.4211
  671MOL0     C90489   0.724   6.489   6.031  0.1730 -0.0959 -1.0230
  671MOL0     C90490   0.657   6.548   6.153 -0.6815  0.3423 -0.5084
  671MOL0     C90491   0.570   6.658   6.104  0.0082 -0.2394 -0.0143
  671MOL0     C90492   0.491   6.729   6.211 -0.2435  0.2309  0.4507
  671MOL0     C90493   0.370   6.654   6.244 -0.1878  0.0013  0.5906
  671MOL0     C90494   0.261   6.736   6.326  0.5094  0.9546 -0.0880
  671MOL0    Cl90495   0.206   6.868   6.223  0.2342 -0.0081 -0.1050
  671MOL0     C90496   1.172   6.117   6.168 -0.6366  0.2856 -0.2575
  671MOL0     C90497   1.305   6.101   6.206 -0.5892  0.1220  0.2259
  671MOL0     O90498   1.419   6.015   6.493 -0.4818  0.1915 -0.1751
  671MOL0     C90499   1.689   5.938   6.499 -0.3148  0.0131 -0.9621
  671MOL0     C90500   1.823   5.912   6.547 -0.5756  0.0075 -0.4899
  671MOL0     N90501   2.573   5.756   6.786 -0.2208  0.3154  0.6794
  671MOL0     N90502   2.617   5.684   6.890 -0.0710 -0.8189  0.0117
  671MOL0     C90503   2.967   5.276   7.008 -0.1634  1.0778  0.6049
  671MOL0     C90504   3.070   5.267   6.908  0.5165 -1.0566  0.2016
  671MOL0     C90505   3.495   5.188   6.730 -0.3874 -0.1333 -0.3924
  671MOL0     C90506   3.627   5.233   6.738 -0.0755 -0.0633  0.3406
  671MOL0     C90507   3.708   5.218   6.624  0.3670  0.0186 -0.2344
  671MOL0     C90508   3.659   5.167   6.500  1.2106 -0.6984  0.2272
  671MOL0     O90509   3.731   5.140   6.391  0.0256  0.9243  0.2126
  671MOL0     C90510   3.855   5.086   6.401 -0.6397 -0.1714  0.4230
  671MOL0     C90511   3.873   4.980   6.291  0.3215  0.0859  0.7522
  671MOL0     C90512   4.014   4.907   6.287  0.5925  0.8712 -0.2031
  671MOL0     C90513   4.011   4.759   6.237  0.2684 -0.2605  0.6390
  671MOL0     C90514   3.957   4.745   6.104 -0.6124  0.1661 -0.6055
  671MOL0     C90515   3.918   4.719   5.995 -0.5745  0.7212  0.2745
  671MOL0     C90516   3.524   5.133   6.489  0.5782  1.0657  0.2010
  671MOL0     C90517   3.442   5.139   6.605 -0.2413 -0.2770 -0.4090
  671MOL0     H90518   3.281   5.073   7.079  1.0699  1.7675 -1.0296
  671MOL0     H90519   3.108   5.085   7.249  0.5691  0.7506  0.4149
  671MOL0     H90520   2.804   5.053   7.131 -1.3672  2.0601 -2.1053
  671MOL0     H90521   2.779   5.064   7.312  0.1416 -2.5020 -0.7952
  671MOL0     H90522   2.669   5.254   7.105  1.3867 -3.5761 -2.9656
  671MOL0     H90523   2.603   5.101   7.170  2.6117 -0.7763 -1.4018
  671MOL0     H90524   2.614   5.206   7.414 -1.3724  1.2029 -0.9299
  671MOL0     H90525   2.658   5.358   7.318  0.8188  0.6863 -0.3728
  671MOL0     H90526   2.399   5.228   7.286  2.5604 -1.1341 -0.2510
  671MOL0     H90527   2.431   5.329   7.427 -1.3556 -0.4743  1.0907
  671MOL0     H90528   2.500   5.416   7.141 -0.6427 -3.0304 -0.4922
  671MOL0     H90529   2.334   5.415   7.202  1.0077 -1.9837 -2.8535
  671MOL0     H90530   2.408   5.558   7.393 -1.1368  1.0981 -0.1125
  671MOL0     H90531   2.577   5.560   7.335 -1.0679 -2.8387  3.6193
  671MOL0     H90532   2.354   5.676   7.175 -1.4151  1.4698  1.3203
  671MOL0     H90533   2.448   5.761   7.297  2.5124  2.1946 -1.2845
  671MOL0     H90534   2.637   5.609   7.134 -0.3435  0.5672 -4.3736
  671MOL0     H90535   2.637   5.779   7.188 -1.0078  0.4532  1.8233
  671MOL0     H90536   2.401   5.896   7.032  1.9490  1.2099  2.2820
  671MOL0     H90537   2.385   6.034   6.839  0.2952 -1.5887  0.3006
  671MOL0     H90538   2.511   6.028   6.722 -0.2743  0.1830 -0.5905
  671MOL0     H90539   2.242   5.872   6.706  0.1481 -2.5161 -0.5035
  671MOL0     H90540   2.370   5.830   6.602  1.4370 -1.7159  3.5140
  671MOL0     H90541   2.339   6.032   6.481  0.6415  0.4775  1.2741
  671MOL0     H90542   2.265   6.117   6.629 -0.6737  0.4701 -0.6252
  671MOL0     H90543   2.127   5.918   6.445 -1.8929  0.2541  0.1167
  671MOL0     H90544   2.109   6.092   6.439  0.2622 -0.4273 -2.0499
  671MOL0     H90545   1.913   6.239   6.600  3.3331 -0.5774  0.1770
  671MOL0     H90546   1.757   6.381   6.518  0.0403 -0.8271 -0.0933
  671MOL0     H90547   1.593   6.332   6.459  1.2864  2.5686 -1.9398
  671MOL0     H90548   1.635   6.326   6.637  0.7440 -1.9075  1.1403
  671MOL0     H90549   1.341   6.371   6.403 -3.1033  2.0304  2.4174
  671MOL0     H90550   1.111   6.409   6.325 -1.3347  1.1516 -3.7479
  671MOL0     H90551   0.870   6.383   6.260  1.1079 -1.7736  1.1497
  671MOL0     H90552   0.961   6.461   6.130  1.6393 -0.7458 -0.2043
  671MOL0     H90553   0.829   6.315   5.966  2.7819  0.5416  0.0285
  671MOL0     H90554   0.716   6.287   6.101  1.7350 -1.7818 -0.1192
  671MOL0     H90555   0.649   6.459   5.958 -1.0662 -3.0093  1.2389
  671MOL0     H90556   0.796   6.566   6.001 -0.4844  0.4807 -1.1421
  671MOL0     H90557   0.594   6.470   6.196  2.1842 -2.5107 -1.1147
  671MOL0     H90558   0.722   6.575   6.237 -3.2602 -2.7540  2.7610
  671MOL0     H90559   0.516   6.625   6.015  1.0638 -2.1170 -0.0072
  671MOL0     H90560   0.633   6.734   6.057 -1.9478  1.3496 -0.1953
  671MOL0     H90561   0.554   6.752   6.297  1.4835  4.0577 -1.5486
  671MOL0     H90562   0.469   6.825   6.163  1.4800 -1.2158 -3.7475
  671MOL0     H90563   0.393   6.562   6.298 -2.5377  0.0413  1.7785
  671MOL0     H90564   0.316   6.637   6.150  2.7593 -0.8328 -1.0833
  671MOL0     H90565   0.317   6.783   6.407  3.2340  0.1331 -1.3865
  671MOL0     H90566   0.182   6.674   6.369  2.0370 -0.3487  0.9096
  671MOL0     H90567   1.139   6.039   6.100  1.0374 -1.4814  0.8538
  671MOL0     H90568   1.370   6.019   6.177 -1.4546 -0.2568 -0.7245
  671MOL0     H90569   1.623   5.854   6.478 -0.2788  0.1091 -1.4677
  671MOL0     H90570   1.874   5.816   6.552  1.5105  1.0674 -0.3647
  671MOL0     H90571   2.876   5.334   7.001 -2.0695 -1.8655 -1.4708
  671MOL0     H90572   3.042   5.312   6.813 -1.1192  1.6033  1.8154
  671MOL0     H90573   3.675   5.280   6.823  0.0610  1.1386 -0.3731
  671MOL0     H90574   3.813   5.244   6.635  0.7557 -1.5326 -0.0533
  671MOL0     H90575   3.926   5.169   6.412 -0.1805 -0.5743  0.5509
  671MOL0     H90576   3.875   5.048   6.501  2.4340  1.8607  0.7274
  671MOL0     H90577   3.850   5.031   6.197 -1.5911 -1.4531  0.3247
  671MOL0     H90578   3.800   4.899   6.298  1.5106 -1.1235 -0.3828
  671MOL0     H90579   4.069   4.918   6.380  1.4957  1.6943 -0.8136
  671MOL0     H90580   4.078   4.956   6.213  0.9766  0.0188 -0.4412
  671MOL0     H90581   3.952   4.694   6.302 -1.7075  0.8107  0.0100
  671MOL0     H90582   4.111   4.717   6.244 -0.1882 -1.2122  2.1003
  671MOL0     H90583   3.884   4.695   5.896 -0.9907  0.5292  0.4628
  671MOL0     H90584   3.489   5.073   6.405 -0.2308  1.5047  0.2081
  671MOL0     H90585   3.342   5.097   6.599 -0.1071 -1.0937  2.0358
  672MOL0     O90586   2.098   8.177   9.110 -0.1685 -0.1390  0.2873
  672MOL0     C90587   2.130   8.272   9.179 -0.3984 -0.1122 -1.0763
  672MOL0     O90588   2.055   8.369   9.227  0.0111  0.0704 -0.3888
  672MOL0     C90589   1.918   8.359   9.220 -0.9595 -0.4722 -0.2839
  672MOL0     C90590   1.858   8.478   9.181  0.1728  0.1972  0.1999
  672MOL0     C90591   1.715   8.479   9.158 -1.7528 -0.1805 -0.3941
  672MOL0     C90592   1.641   8.374   9.178  0.4235 -0.3738  0.9014
  672MOL0     O90593   1.502   8.380   9.168 -0.6531  0.2161 -0.1652
  672MOL0     C90594   1.448   8.430   9.040 -0.3427 -0.9814  0.3566
  672MOL0     C90595   1.312   8.366   9.001  0.9733 -0.5845  0.0168
  672MOL0     C90596   1.328   8.243   8.925  0.2554  0.2070 -0.2770
  672MOL0     C90597   1.201   8.195   8.862  0.1297 -0.2436  0.0872
  672MOL0     C90598   1.220   8.055   8.807 -0.1365  0.8236  0.1364
  672MOL0     C90599   1.118   8.006   8.712  0.8987  0.0840 -0.7846
  672MOL0     C90600   1.170   7.884   8.637 -0.2555  0.6488  0.2077
  672MOL0     C90601   1.087   7.863   8.509 -0.4791  0.5164 -0.7696
  672MOL0     N90602   0.945   7.842   8.547  0.6138 -0.5858 -0.2943
  672MOL0     C90603   0.904   7.737   8.622 -0.2195  0.3769  0.2393
  672MOL0     C90604   0.769   7.738   8.598  0.1365  0.3189  0.1716
  672MOL0     C90605   0.663   7.634   8.626  0.2119  0.0262 -0.0451
  672MOL0     C90606   0.524   7.686   8.594  0.0995  0.2509 -0.5502
  672MOL0     C90607   0.420   7.591   8.642  0.4096 -0.1604 -0.4154
  672MOL0     C90608   0.277   7.651   8.625 -0.7842 -0.0584  0.4873
  672MOL0     O90609   0.180   7.556   8.682 -0.5505 -0.7899  0.0176
  672MOL0     C90610   0.046   7.596   8.677  0.2586 -0.2620  0.5988
  672MOL0     C90611  -0.035   7.507   8.741 -0.9074 -1.1279  0.8820
  672MOL0     C90612  -0.173   7.530   8.752  0.7310 -0.2740  0.2840
  672MOL0     C90613  -0.265   7.421   8.812 -0.1664  0.6684  0.5059
  672MOL0     C90614  -0.223   7.657   8.725  0.2674  0.3621  1.0109
  672MOL0     C90615  -0.364   7.694   8.753  0.1370 -0.2593  0.2605
  672MOL0     O90616  -0.427   7.798   8.681 -0.5076 -0.6596  0.3856
  672MOL0     C90617  -0.558   7.834   8.709 -0.0108 -0.1030  0.2904
  672MOL0     C90618  -0.589   7.897   8.829 -0.2228  0.3516 -0.7474
  672MOL0     C90619  -0.727   7.928   8.855  0.0249  0.6452  0.2630
  672MOL0     C90620  -0.824   7.895   8.754  0.4789  0.9742  0.1577
  672MOL0     O90621  -0.953   7.944   8.766  0.2395  0.2861 -0.2355
  672MOL0     C90622  -1.022   7.912   8.893 -0.5884  0.8987  0.2371
  672MOL0     C90623  -1.174   7.936   8.883 -0.8922 -0.6399 -0.5695
  672MOL0     C90624  -1.223   7.938   9.026  0.0512  0.6523  0.3548
  672MOL0     C90625  -1.376   7.917   9.025  0.4513  0.3206 -1.2686
  672MOL0     C90626  -1.424   7.919   9.179 -0.0202 -0.3722  0.1502
  672MOL0     C90627  -1.567   7.861   9.190  0.2551 -0.3290  0.0455
  672MOL0     C90628  -1.613   7.885   9.333  0.3457 -1.2710  0.4163
  672MOL0     C90629  -1.750   7.812   9.349  0.6263  0.8682 -0.3957
  672MOL0    Cl90630  -1.855   7.911   9.260  0.1948  0.1358  0.1656
  672MOL0     C90631  -0.793   7.837   8.634 -0.4280  0.7458 -0.9361
  672MOL0     C90632  -0.657   7.812   8.614 -0.4697  0.0923 -0.6739
  672MOL0     O90633  -0.426   7.630   8.834  0.6821  0.0099 -0.0219
  672MOL0     C90634  -0.134   7.749   8.675 -0.4122 -0.6441  0.3735
  672MOL0     C90635  -0.005   7.717   8.648  0.0563 -0.6693 -0.2155
  672MOL0     N90636   0.739   7.853   8.523 -0.8869  0.5148 -0.7978
  672MOL0     N90637   0.844   7.910   8.492  0.5200  0.2977 -0.2156
  672MOL0     C90638   1.699   8.254   9.227  0.6168 -0.0486  0.4703
  672MOL0     C90639   1.836   8.246   9.227 -0.7252 -0.2962 -0.5082
  672MOL0     C90640   2.273   8.274   9.216  0.6073  0.2478 -0.1199
  672MOL0     C90641   2.333   8.147   9.247 -0.5135 -0.7581  0.3989
  672MOL0     C90642   2.467   8.137   9.289  0.0181  0.1196  0.2557
  672MOL0     C90643   2.539   8.259   9.301 -0.1215 -0.4124 -0.0984
  672MOL0     O90644   2.664   8.274   9.358  0.1696  0.0799 -1.1557
  672MOL0     C90645   2.743   8.161   9.388 -0.1611  0.2999 -0.1079
  672MOL0     C90646   2.876   8.196   9.451 -1.1959 -0.3892 -0.3952
  672MOL0     C90647   2.952   8.316   9.377  0.3123 -0.2216 -0.9268
  672MOL0     C90648   3.102   8.343   9.408 -0.4142 -0.7817 -0.5762
  672MOL0     C90649   3.179   8.445   9.327 -0.4232 -0.4306 -0.9028
  672MOL0     C90650   3.237   8.531   9.266  0.7990  0.1043  0.3336
  672MOL0     C90651   2.476   8.379   9.277  0.3786 -1.2613 -0.1674
  672MOL0     C90652   2.344   8.388   9.243 -0.5650  0.1012 -0.1322
  672MOL0     H90653   1.914   8.565   9.151 -1.0054  1.1833  0.7848
  672MOL0     H90654   1.667   8.574   9.136  0.7978  1.8704  2.1367
  672MOL0     H90655   1.433   8.538   9.054 -0.7571 -1.2073  1.7895
  672MOL0     H90656   1.524   8.421   8.962 -1.1290 -3.1040 -0.2138
  672MOL0     H90657   1.252   8.347   9.091  0.2072 -0.1014 -0.3833
  672MOL0     H90658   1.256   8.434   8.936  1.9047  0.6735  0.4909
  672MOL0     H90659   1.396   8.256   8.841 -0.4782 -2.2957 -1.3480
  672MOL0     H90660   1.364   8.161   8.988  1.0827 -2.8760 -4.3296
  672MOL0     H90661   1.112   8.199   8.925  0.7464 -4.0557  1.4502
  672MOL0     H90662   1.186   8.265   8.779  0.4748 -2.4458 -1.9656
  672MOL0     H90663   1.317   8.057   8.755 -0.1521  2.9721  0.0985
  672MOL0     H90664   1.215   7.983   8.889 -2.1220 -0.5574 -1.1127
  672MOL0     H90665   1.029   7.984   8.772  1.6375  0.4855  0.5040
  672MOL0     H90666   1.104   8.086   8.640  1.5851  0.4690 -0.5030
  672MOL0     H90667   1.277   7.891   8.616 -0.0239 -3.5017 -0.6370
  672MOL0     H90668   1.158   7.799   8.705 -0.8188  0.6381  0.0951
  672MOL0     H90669   1.120   7.774   8.455  2.2724  1.4121 -0.6953
  672MOL0     H90670   1.104   7.947   8.441 -2.1128  0.7500 -0.9252
  672MOL0     H90671   0.968   7.671   8.681  0.1621  1.3713  0.9745
  672MOL0     H90672   0.687   7.547   8.563  0.4900 -0.0688  0.1873
  672MOL0     H90673   0.669   7.602   8.730 -0.3661 -0.7188 -0.2286
  672MOL0     H90674   0.509   7.694   8.486 -1.8039  0.9959 -0.2795
  672MOL0     H90675   0.496   7.782   8.637  0.4809 -0.5437  1.6110
  672MOL0     H90676   0.443   7.569   8.747 -0.8824 -0.6832 -0.2169
  672MOL0     H90677   0.415   7.501   8.580 -1.4242  1.3482 -2.6097
  672MOL0     H90678   0.261   7.675   8.519  3.9431  0.4494 -0.3065
  672MOL0     H90679   0.285   7.746   8.679  1.3299  0.5462 -0.7721
  672MOL0     H90680   0.006   7.416   8.785  0.4604 -0.3416  1.2881
  672MOL0     H90681  -0.200   7.334   8.823 -2.7202 -1.2816  0.9749
  672MOL0     H90682  -0.287   7.443   8.917  3.5666 -1.5053  1.9062
  672MOL0     H90683  -0.351   7.405   8.747  0.3482  0.5034 -0.1381
  672MOL0     H90684  -0.506   7.919   8.895  0.1613 -3.9502  0.5046
  672MOL0     H90685  -0.769   7.989   8.934 -1.4909  2.4532 -1.8345
  672MOL0     H90686  -0.995   7.814   8.934 -0.1602 -0.4242 -2.9100
  672MOL0     H90687  -0.987   7.980   8.971 -0.9409 -0.6565  1.8191
  672MOL0     H90688  -1.189   8.036   8.841 -5.0016  0.4052  2.7241
  672MOL0     H90689  -1.213   7.854   8.823 -1.2630 -0.3835 -0.6834
  672MOL0     H90690  -1.204   8.041   9.059 -1.4500  0.9818  0.2900
  672MOL0     H90691  -1.184   7.855   9.084  0.1807 -1.0385 -1.9870
  672MOL0     H90692  -1.427   7.996   8.970  0.0173  1.3626  0.5385
  672MOL0     H90693  -1.402   7.821   8.981 -1.8554 -0.7082  2.0118
  672MOL0     H90694  -1.427   8.023   9.213 -3.2843 -0.0756 -0.7440
  672MOL0     H90695  -1.358   7.859   9.244 -1.0785  1.0622  2.6994
  672MOL0     H90696  -1.637   7.898   9.115 -2.5781 -1.1916  2.1130
  672MOL0     H90697  -1.561   7.753   9.176  1.4688 -0.1876 -0.6864
  672MOL0     H90698  -1.615   7.993   9.351 -3.6281 -1.3320  1.1457
  672MOL0     H90699  -1.551   7.842   9.412  2.6174 -1.2071 -1.2424
  672MOL0     H90700  -1.795   7.801   9.448 -0.9961 -0.9159 -1.2548
  672MOL0     H90701  -1.740   7.710   9.310  0.4774  0.4200  0.7161
  672MOL0     H90702  -0.871   7.819   8.561 -1.7929  0.1084  0.6321
  672MOL0     H90703  -0.622   7.768   8.522 -0.4877 -2.1130  0.3099
  672MOL0     H90704  -0.162   7.851   8.650 -1.9740 -1.3626 -0.9592
  672MOL0     H90705   0.060   7.790   8.601 -0.8529  1.3764  1.5262
  672MOL0     H90706   1.630   8.173   9.250  0.3002 -0.3961 -1.5619
  672MOL0     H90707   1.900   8.163   9.251  2.2117  2.0961  0.5263
  672MOL0     H90708   2.272   8.058   9.235 -2.2345  0.5897 -1.5779
  672MOL0     H90709   2.506   8.039   9.312 -1.1489 -0.4293 -0.0501
  672MOL0     H90710   2.690   8.092   9.454 -1.2971 -0.6524 -1.9203
  672MOL0     H90711   2.776   8.107   9.299  1.1671 -0.4953  0.8401
  672MOL0     H90712   2.936   8.105   9.439  1.8062  1.3918 -0.1376
  672MOL0     H90713   2.872   8.230   9.555  1.1354  2.6225 -1.1185
  672MOL0     H90714   2.900   8.409   9.402 -1.4433 -1.4515  0.2273
  672MOL0     H90715   2.927   8.305   9.271 -2.7108  0.2778 -0.3560
  672MOL0     H90716   3.153   8.247   9.394  0.6395 -0.4754  0.9729
  672MOL0     H90717   3.115   8.380   9.510 -0.5184  0.4622 -0.9936
  672MOL0     H90718   3.292   8.612   9.222 -0.6629  1.5219  1.0098
  672MOL0     H90719   2.532   8.469   9.301 -0.8704 -0.1410 -1.2417
  672MOL0     H90720   2.294   8.483   9.226  0.2993  0.8407  1.3256
  673MOL0     O90721   4.415   9.800   0.637 -0.0461 -0.3362  0.3850
  673MOL0     C90722   4.447   9.699   0.697 -0.5141  1.1816  0.0407
  673MOL0     O90723   4.366   9.607   0.764  0.3621  0.9494  0.6623
  673MOL0     C90724   4.235   9.631   0.780 -0.5338  0.2248  0.1886
  673MOL0     C90725   4.134   9.529   0.752 -0.2896 -0.5767  0.1754
  673MOL0     C90726   3.997   9.547   0.770  0.1567 -0.5126 -0.9962
  673MOL0     C90727   3.948   9.671   0.812 -0.5751 -0.2697  0.4079
  673MOL0     O90728   3.823   9.717   0.838 -0.1596 -0.0439  0.1137
  673MOL0     C90729   3.720   9.619   0.821 -0.2257  0.1746 -0.2516
  673MOL0     C90730   3.682   9.545   0.951 -0.8163 -0.2307  0.2920
  673MOL0     C90731   3.587   9.437   0.920  0.8113  0.2336 -0.4363
  673MOL0     C90732   3.533   9.377   1.054 -0.5278 -0.0330 -0.2895
  673MOL0     C90733   3.466   9.246   1.024  0.2263  0.4870 -0.1251
  673MOL0     C90734   3.420   9.187   1.155  0.0116 -0.4703  0.1154
  673MOL0     C90735   3.377   9.039   1.129  0.5049 -1.1002  0.0828
  673MOL0     C90736   3.303   8.959   1.235 -0.4754  0.2596  0.1803
  673MOL0     N90737   3.166   9.003   1.249  0.4109  0.1699 -0.8758
  673MOL0     C90738   3.106   9.097   1.326  1.4152 -1.4643  0.3631
  673MOL0     C90739   2.971   9.081   1.298  0.1215 -0.1501 -0.0469
  673MOL0     C90740   2.854   9.143   1.375  0.3358  0.7193  0.0972
  673MOL0     C90741   2.786   9.038   1.467 -0.1919 -0.5074  0.3503
  673MOL0     C90742   2.641   9.073   1.485  0.0854  0.0059  0.3190
  673MOL0     C90743   2.562   9.050   1.355  0.1304 -0.6341  0.3434
  673MOL0     O90744   2.418   9.042   1.384  0.3492  0.3945 -0.5534
  673MOL0     C90745   2.327   9.004   1.282  0.4974 -0.9978  0.5628
  673MOL0     C90746   2.361   8.989   1.150  0.1949  0.2650  0.2553
  673MOL0     C90747   2.267   8.955   1.058 -0.2342 -0.0532  0.6740
  673MOL0     C90748   2.324   8.913   0.914 -0.4230 -0.2999  0.5380
  673MOL0     C90749   2.128   8.935   1.096  0.0895 -0.5600 -0.4142
  673MOL0     C90750   2.015   8.905   0.998 -0.5227 -0.4702 -0.1426
  673MOL0     O90751   1.903   8.866   1.055 -0.3594  0.2547  0.1773
  673MOL0     C90752   1.805   8.814   0.970  0.8699  0.1706 -0.1316
  673MOL0     C90753   1.836   8.702   0.895  0.3047 -1.0592  0.2017
  673MOL0     C90754   1.735   8.626   0.833  0.2091  1.0352  0.4273
  673MOL0     C90755   1.599   8.670   0.840 -0.7848  0.2390 -0.3583
  673MOL0     O90756   1.501   8.600   0.772 -0.0989 -0.5783  0.3415
  673MOL0     C90757   1.360   8.639   0.792 -0.2207  0.6627 -0.0860
  673MOL0     C90758   1.282   8.576   0.683 -0.4991 -0.1279 -0.0038
  673MOL0     C90759   1.137   8.643   0.678 -1.6844 -0.4273 -0.3988
  673MOL0     C90760   1.064   8.611   0.806 -0.5088 -0.0822  1.0813
  673MOL0     C90761   0.907   8.625   0.795  0.2753 -0.7905  0.2110
  673MOL0     C90762   0.827   8.602   0.932 -0.7060  0.8478 -0.3468
  673MOL0     C90763   0.683   8.571   0.913  0.2576  0.1691  0.7208
  673MOL0     C90764   0.617   8.569   1.049  0.4970 -0.1182  0.2266
  673MOL0    Cl90765   0.446   8.516   1.028  0.7620 -0.0418  0.4265
  673MOL0     C90766   1.572   8.790   0.913 -0.7138 -0.1289  0.4532
  673MOL0     C90767   1.678   8.866   0.974  0.0967  0.3681  0.1562
  673MOL0     O90768   2.033   8.910   0.880  0.7343  0.0646 -0.0926
  673MOL0     C90769   2.097   8.953   1.235 -0.1586 -0.5644  0.3580
  673MOL0     C90770   2.200   8.986   1.318 -0.3112  0.4535 -0.9128
  673MOL0     N90771   2.951   8.995   1.191  0.1663  0.2129 -0.2097
  673MOL0     N90772   3.067   8.947   1.167 -0.3030 -0.0464 -0.1725
  673MOL0     C90773   4.044   9.780   0.833 -0.0272 -0.1912 -0.3136
  673MOL0     C90774   4.184   9.757   0.823 -0.6207  0.4407 -0.2917
  673MOL0     C90775   4.590   9.661   0.700  0.3721  0.8891 -0.1120
  673MOL0     C90776   4.688   9.735   0.622  0.5004  0.5609 -0.5851
  673MOL0     C90777   4.825   9.696   0.653 -0.0825 -0.3892  0.6072
  673MOL0     C90778   4.871   9.586   0.731  0.1186 -0.3871  0.6127
  673MOL0     O90779   5.007   9.572   0.749 -0.0655 -0.0534 -0.1561
  673MOL0     C90780   5.028   9.504   0.874 -0.0823 -0.7445 -0.1151
  673MOL0     C90781   5.169   9.539   0.916 -0.3377  0.6858 -0.0405
  673MOL0     C90782   5.267   9.455   0.837 -0.7881 -0.0638 -0.8782
  673MOL0     C90783   5.279   9.300   0.882 -0.5475  0.2789 -0.1562
  673MOL0     C90784   5.398   9.245   0.824  0.2826  0.1213  0.0077
  673MOL0     C90785   5.502   9.201   0.770  0.1191  0.1696 -0.3836
  673MOL0     C90786   4.764   9.509   0.789 -0.4342  0.2455 -0.3464
  673MOL0     C90787   4.633   9.551   0.773  0.2552  0.0283 -0.0876
  673MOL0     H90788   4.183   9.435   0.730  0.2515 -0.7666  2.0347
  673MOL0     H90789   3.932   9.467   0.734 -1.2628 -1.3167  2.8520
  673MOL0     H90790   3.631   9.677   0.793 -2.3706 -2.2030  1.1079
  673MOL0     H90791   3.735   9.548   0.739  1.9556 -1.9867  1.8538
  673MOL0     H90792   3.773   9.503   0.995 -0.2934  0.3907 -0.1854
  673MOL0     H90793   3.631   9.620   1.012 -0.6898  0.7229 -0.7454
  673MOL0     H90794   3.503   9.468   0.858  0.7633  0.0390 -0.4704
  673MOL0     H90795   3.634   9.358   0.861  0.3129 -0.7463  0.4527
  673MOL0     H90796   3.611   9.358   1.128 -0.4965  2.5892  0.4295
  673MOL0     H90797   3.463   9.450   1.096 -0.7074 -0.6948  0.6058
  673MOL0     H90798   3.379   9.247   0.959  1.4764  0.3454 -1.8807
  673MOL0     H90799   3.543   9.181   0.981 -0.3991 -1.3090  1.3670
  673MOL0     H90800   3.505   9.172   1.223 -0.0609  0.5945  0.4651
  673MOL0     H90801   3.339   9.249   1.195  0.2974 -0.4088  0.6099
  673MOL0     H90802   3.308   9.042   1.044 -1.2406  0.2710  1.4705
  673MOL0     H90803   3.465   8.976   1.115  1.8351 -0.2054  3.5101
  673MOL0     H90804   3.351   8.981   1.331  2.1803 -1.4493 -0.6403
  673MOL0     H90805   3.312   8.854   1.206 -2.5626  0.9955 -3.9001
  673MOL0     H90806   3.156   9.159   1.399  0.7950  0.4246 -0.7401
  673MOL0     H90807   2.888   9.224   1.440 -0.2276 -0.3068  1.7619
  673MOL0     H90808   2.788   9.193   1.305  1.5084  1.2828 -0.6459
  673MOL0     H90809   2.824   9.045   1.570  1.5293 -3.4271  0.0176
  673MOL0     H90810   2.790   8.932   1.442 -2.5753 -1.8112  4.5409
  673MOL0     H90811   2.638   9.174   1.526  1.0931  1.2838 -2.5017
  673MOL0     H90812   2.601   9.014   1.568  1.6025 -1.0567  0.3374
  673MOL0     H90813   2.579   8.952   1.309 -2.5846 -1.5051  1.0220
  673MOL0     H90814   2.592   9.126   1.281 -2.3498 -0.5243 -0.6646
  673MOL0     H90815   2.464   9.003   1.117  0.5504  1.9645  1.9139
  673MOL0     H90816   2.284   8.823   0.866  2.8163 -2.4370  1.5247
  673MOL0     H90817   2.305   8.984   0.834  1.0350  0.2540  0.6588
  673MOL0     H90818   2.433   8.905   0.914 -0.3341  0.6298  1.5858
  673MOL0     H90819   1.937   8.661   0.900  1.0613  0.8120  1.1085
  673MOL0     H90820   1.755   8.530   0.788  1.3344  1.4864 -0.0494
  673MOL0     H90821   1.324   8.604   0.889 -0.2258  0.5161 -0.1414
  673MOL0     H90822   1.350   8.748   0.791 -0.5307  0.6356 -0.9215
  673MOL0     H90823   1.337   8.583   0.589  0.1796 -2.6762  0.1256
  673MOL0     H90824   1.282   8.467   0.685  1.6422 -0.2416 -2.3220
  673MOL0     H90825   1.067   8.615   0.599 -2.1440  3.3738 -1.5533
  673MOL0     H90826   1.151   8.751   0.689  1.8336 -0.8524  0.6007
  673MOL0     H90827   1.090   8.509   0.836  1.1803  0.1393  0.5238
  673MOL0     H90828   1.090   8.680   0.887  2.0673  1.1580 -0.6570
  673MOL0     H90829   0.873   8.540   0.734  0.8555 -1.1746  0.4145
  673MOL0     H90830   0.877   8.718   0.746  2.3998 -2.5034 -5.0166
  673MOL0     H90831   0.875   8.520   0.987 -1.6123  0.8017  0.3852
  673MOL0     H90832   0.836   8.697   0.986  0.9982  1.2728 -1.3004
  673MOL0     H90833   0.653   8.480   0.861 -2.6095  1.3050  0.1639
  673MOL0     H90834   0.641   8.652   0.851  1.7356  2.4814  2.5633
  673MOL0     H90835   0.639   8.667   1.093  0.8196  0.7015 -1.6485
  673MOL0     H90836   0.662   8.495   1.115  0.5028  2.1752  2.9769
  673MOL0     H90837   1.471   8.827   0.920  0.2059  3.1466 -1.4713
  673MOL0     H90838   1.657   8.966   1.012  0.8565  2.3106 -3.9564
  673MOL0     H90839   2.006   8.923   1.285 -0.1263 -0.8977  0.2198
  673MOL0     H90840   2.185   8.999   1.425 -1.1429 -1.6235 -0.7302
  673MOL0     H90841   4.008   9.874   0.873  0.1620  0.4483 -1.5831
  673MOL0     H90842   4.257   9.831   0.853  1.7708 -1.5554 -0.8683
  673MOL0     H90843   4.660   9.827   0.573  2.2757  1.6113  0.2383
  673MOL0     H90844   4.902   9.758   0.609  0.5082 -0.4343  1.5629
  673MOL0     H90845   4.968   9.544   0.956  2.0484 -0.8165  1.5437
  673MOL0     H90846   5.010   9.396   0.875 -1.9700 -0.5368 -2.1438
  673MOL0     H90847   5.191   9.525   1.022  4.8686 -2.0353 -1.1610
  673MOL0     H90848   5.193   9.644   0.896 -0.7255  0.6353 -0.8149
  673MOL0     H90849   5.365   9.501   0.856 -1.7038  0.6145  3.0636
  673MOL0     H90850   5.239   9.455   0.732 -3.3433 -0.0183 -0.2535
  673MOL0     H90851   5.184   9.254   0.850 -1.8763  0.9400  2.5826
  673MOL0     H90852   5.284   9.288   0.990 -0.1988 -0.1675 -0.2173
  673MOL0     H90853   5.590   9.158   0.729  0.2800 -1.9489  1.9685
  673MOL0     H90854   4.784   9.418   0.844 -3.1326 -0.4360 -0.3980
  673MOL0     H90855   4.567   9.488   0.831  2.7688 -1.4399  1.3497
  674MOL0     O90856   1.308   5.853   1.104  0.3190  0.1342  0.0053
  674MOL0     C90857   1.345   5.973   1.116  0.0678 -1.3274  0.0726
  674MOL0     O90858   1.282   6.084   1.173  0.3033 -0.7839 -0.0645
  674MOL0     C90859   1.157   6.079   1.231 -0.3777  0.2342 -0.1461
  674MOL0     C90860   1.078   5.970   1.258 -0.0048 -0.4048 -0.2122
  674MOL0     C90861   0.962   5.983   1.331 -0.5726  0.4931  0.2004
  674MOL0     C90862   0.926   6.098   1.390  1.2800  0.5635 -0.2463
  674MOL0     O90863   0.822   6.116   1.479  0.2064 -0.6459  0.2158
  674MOL0     C90864   0.711   6.020   1.480  0.1455  0.1408  0.3908
  674MOL0     C90865   0.623   6.061   1.596  0.5902  0.5065 -0.7339
  674MOL0     C90866   0.528   6.182   1.568  0.6384  0.1156  0.0519
  674MOL0     C90867   0.412   6.188   1.670 -0.5899  0.5872 -0.0950
  674MOL0     C90868   0.313   6.303   1.623 -0.6642 -0.3095 -0.5748
  674MOL0     C90869   0.192   6.332   1.715  0.1257 -0.2666 -1.0959
  674MOL0     C90870   0.072   6.241   1.659 -1.3970 -0.8718 -0.4214
  674MOL0     C90871  -0.061   6.296   1.730  0.0197 -0.0014  0.9313
  674MOL0     N90872  -0.176   6.219   1.686 -0.7263 -0.7276  0.5603
  674MOL0     C90873  -0.258   6.264   1.589 -0.3424 -0.1114 -0.3949
  674MOL0     C90874  -0.374   6.212   1.610  0.0437 -0.4218  0.0161
  674MOL0     C90875  -0.491   6.250   1.530 -0.0927 -0.0224 -0.6197
  674MOL0     C90876  -0.492   6.182   1.383  0.0444 -0.6155  0.6525
  674MOL0     C90877  -0.456   6.029   1.386  0.1433  0.7661  0.6282
  674MOL0     C90878  -0.465   5.956   1.246  0.5604 -0.4193  0.1122
  674MOL0     O90879  -0.574   5.971   1.160  0.5851  0.1814 -0.0073
  674MOL0     C90880  -0.693   5.905   1.175 -0.4301 -0.9697  0.7944
  674MOL0     C90881  -0.719   5.805   1.264 -0.4783  0.6502 -0.5505
  674MOL0     C90882  -0.847   5.730   1.274 -1.0242 -0.0694 -0.0492
  674MOL0     C90883  -0.863   5.625   1.389 -0.1764 -0.0179 -0.2613
  674MOL0     C90884  -0.941   5.757   1.172 -0.0445 -0.4886 -0.6014
  674MOL0     C90885  -1.074   5.690   1.167  0.4461  0.3297  0.0973
  674MOL0     O90886  -1.159   5.715   1.056  0.8128  0.4180  0.1523
  674MOL0     C90887  -1.277   5.648   1.048  0.1491  0.7405  0.4374
  674MOL0     C90888  -1.369   5.663   1.147 -0.6384 -0.2220 -0.0669
  674MOL0     C90889  -1.496   5.608   1.131  0.5651  1.1052  0.1420
  674MOL0     C90890  -1.531   5.520   1.023  0.4569 -0.0233 -0.5679
  674MOL0     O90891  -1.659   5.469   1.013 -0.5847 -0.1805 -0.4360
  674MOL0     C90892  -1.720   5.467   0.884  0.2194  0.4814  0.5569
  674MOL0     C90893  -1.867   5.449   0.906  0.5727  0.3496  0.5603
  674MOL0     C90894  -1.938   5.584   0.932  0.3767  0.8247 -0.0419
  674MOL0     C90895  -2.089   5.576   0.900  0.2668 -0.0584 -0.3489
  674MOL0     C90896  -2.147   5.716   0.871  0.3162 -0.1906 -0.5610
  674MOL0     C90897  -2.284   5.719   0.813 -0.1055 -0.2208 -0.8046
  674MOL0     C90898  -2.340   5.854   0.794  1.0228 -0.9476 -0.2634
  674MOL0     C90899  -2.439   5.904   0.908  0.3060  1.3948 -0.7350
  674MOL0    Cl90900  -2.504   6.065   0.867  0.1219 -0.1236 -0.0219
  674MOL0     C90901  -1.433   5.500   0.934 -0.3207  0.2137  0.9145
  674MOL0     C90902  -1.300   5.554   0.950 -0.2616  0.5892 -0.2352
  674MOL0     O90903  -1.098   5.616   1.265 -0.4072  0.5695  0.6704
  674MOL0     C90904  -0.915   5.853   1.080 -0.0186 -0.1270  0.7869
  674MOL0     C90905  -0.793   5.924   1.074 -0.6714 -0.3241 -0.7717
  674MOL0     N90906  -0.365   6.117   1.715 -0.9128 -0.0803  0.7843
  674MOL0     N90907  -0.241   6.132   1.767 -0.3511  0.4081  0.0782
  674MOL0     C90908   1.000   6.205   1.361 -0.6921  0.6321 -0.1787
  674MOL0     C90909   1.117   6.202   1.288 -0.1526  1.0442 -0.3309
  674MOL0     C90910   1.479   6.000   1.059  0.6752 -0.7978 -0.5400
  674MOL0     C90911   1.521   6.135   1.046  0.0740  0.7769 -0.3866
  674MOL0     C90912   1.647   6.178   0.992 -0.3308  0.2919 -1.2443
  674MOL0     C90913   1.740   6.084   0.945 -0.3961 -0.0849  0.6717
  674MOL0     O90914   1.869   6.125   0.911  0.0881  0.2849  0.1376
  674MOL0     C90915   1.957   6.029   0.845  0.1673 -0.9618 -0.4489
  674MOL0     C90916   1.932   6.034   0.693 -0.1940  0.7860 -0.5662
  674MOL0     C90917   1.908   6.178   0.630  0.6505  0.5080 -0.0336
  674MOL0     C90918   2.047   6.243   0.612 -0.2004  0.3899  0.4812
  674MOL0     C90919   2.048   6.378   0.562 -0.2803 -0.6188 -0.0099
  674MOL0     C90920   2.048   6.501   0.519  0.4192  0.5125 -0.4843
  674MOL0     C90921   1.691   5.944   0.939 -0.4765 -0.0211 -0.0688
  674MOL0     C90922   1.568   5.906   0.995  0.4112  0.5094  0.0199
  674MOL0     H90923   1.095   5.871   1.217 -1.6313 -1.0687  0.6401
  674MOL0     H90924   0.896   5.899   1.352 -0.0545 -0.5034 -1.8447
  674MOL0     H90925   0.652   6.014   1.388 -0.9783 -4.6012  1.1546
  674MOL0     H90926   0.742   5.917   1.498 -0.6709  0.0444  1.3289
  674MOL0     H90927   0.567   5.973   1.631  2.4390  0.6175  3.0292
  674MOL0     H90928   0.685   6.082   1.684  1.3824  1.6939 -1.5582
  674MOL0     H90929   0.570   6.283   1.577 -1.9261  1.5557 -2.3279
  674MOL0     H90930   0.490   6.172   1.466 -1.3991 -0.3474  0.8002
  674MOL0     H90931   0.361   6.091   1.675  0.7844 -0.0964  2.0963
  674MOL0     H90932   0.453   6.211   1.769  0.8576 -0.6672 -0.3728
  674MOL0     H90933   0.372   6.395   1.629 -1.1853  0.2234 -2.6879
  674MOL0     H90934   0.284   6.292   1.518  0.2259  2.6669 -1.2226
  674MOL0     H90935   0.206   6.309   1.821 -0.4425 -0.1514 -0.9920
  674MOL0     H90936   0.162   6.437   1.711  3.6443  1.2935  4.1628
  674MOL0     H90937   0.068   6.255   1.551  0.6649 -2.1608 -0.7216
  674MOL0     H90938   0.083   6.133   1.677 -0.0287 -0.9220 -1.4126
  674MOL0     H90939  -0.086   6.395   1.691 -1.0868 -0.9976 -1.0185
  674MOL0     H90940  -0.058   6.289   1.839 -1.7271 -2.0138  0.9115
  674MOL0     H90941  -0.248   6.346   1.518 -2.0229 -1.5861 -2.4803
  674MOL0     H90942  -0.578   6.228   1.592 -1.4646 -0.2305 -2.5351
  674MOL0     H90943  -0.480   6.357   1.512  0.7445 -0.0408 -0.2881
  674MOL0     H90944  -0.416   6.230   1.320 -0.0775 -0.8487  0.3244
  674MOL0     H90945  -0.590   6.204   1.341  0.1434  2.1448  1.7042
  674MOL0     H90946  -0.517   5.971   1.457 -0.4272  0.2036 -0.3004
  674MOL0     H90947  -0.355   6.014   1.426  0.7791 -3.1442 -1.8793
  674MOL0     H90948  -0.442   5.849   1.241 -0.5617 -0.6495 -0.3598
  674MOL0     H90949  -0.382   6.007   1.196  0.8284 -0.1539  0.8083
  674MOL0     H90950  -0.637   5.787   1.333  0.0845  1.9231 -0.8647
  674MOL0     H90951  -0.873   5.521   1.355  0.4361 -0.5019  0.9609
  674MOL0     H90952  -0.776   5.617   1.455 -0.0651  1.4696 -0.1958
  674MOL0     H90953  -0.938   5.651   1.464  1.7660 -0.0030  1.8040
  674MOL0     H90954  -1.338   5.728   1.228  3.0808 -1.0092 -0.6992
  674MOL0     H90955  -1.576   5.631   1.202  2.0243 -1.0422  2.6406
  674MOL0     H90956  -1.694   5.549   0.818 -2.0972 -0.7646 -2.1052
  674MOL0     H90957  -1.678   5.375   0.843  3.7662  2.5840 -0.9604
  674MOL0     H90958  -1.908   5.396   0.820 -0.0990  0.9417  0.5031
  674MOL0     H90959  -1.888   5.386   0.993  1.3190 -0.6420  0.0390
  674MOL0     H90960  -1.887   5.669   0.885  2.1046  1.0378  2.0683
  674MOL0     H90961  -1.926   5.603   1.039 -1.2518  3.4994 -0.2532
  674MOL0     H90962  -2.104   5.513   0.812 -0.0451  0.4647 -0.6777
  674MOL0     H90963  -2.138   5.522   0.981  2.8459 -1.8646  0.1246
  674MOL0     H90964  -2.082   5.774   0.805 -1.3159  0.1368 -1.9676
  674MOL0     H90965  -2.157   5.778   0.960 -0.5454  0.3928 -1.0488
  674MOL0     H90966  -2.267   5.681   0.712  1.0944 -0.6777 -0.4445
  674MOL0     H90967  -2.352   5.647   0.859  3.1259 -3.8761 -1.2731
  674MOL0     H90968  -2.397   5.844   0.701 -0.8408 -1.6618  0.9039
  674MOL0     H90969  -2.267   5.935   0.790 -0.4040  0.4038  0.2521
  674MOL0     H90970  -2.379   5.915   0.999 -0.8343 -0.1260  0.2369
  674MOL0     H90971  -2.516   5.827   0.915  0.6482  1.0777 -0.4164
  674MOL0     H90972  -1.448   5.433   0.850  1.7726  1.9206 -0.9883
  674MOL0     H90973  -1.223   5.525   0.879  1.4011 -1.3301  2.1895
  674MOL0     H90974  -0.990   5.864   1.003 -2.2010  0.1970  2.8352
  674MOL0     H90975  -0.768   6.004   1.006  1.8934  0.5679  1.0692
  674MOL0     H90976   0.975   6.295   1.417 -0.4355  1.8416 -1.9304
  674MOL0     H90977   1.182   6.287   1.272 -0.1698  1.0428 -0.4069
  674MOL0     H90978   1.460   6.215   1.084 -2.3860 -0.2579 -1.9002
  674MOL0     H90979   1.670   6.284   0.994 -0.9156  0.4904  2.6226
  674MOL0     H90980   2.064   6.050   0.860 -0.0081  0.8997 -1.5873
  674MOL0     H90981   1.947   5.927   0.884  0.9224 -1.2994 -1.0995
  674MOL0     H90982   1.841   5.976   0.677 -0.9976  1.5705  0.9611
  674MOL0     H90983   2.022   5.987   0.654  1.6067  1.4381  2.4800
  674MOL0     H90984   1.840   6.248   0.680  0.2155  0.3561 -0.4031
  674MOL0     H90985   1.864   6.168   0.531  0.9360  2.3214 -0.3894
  674MOL0     H90986   2.099   6.184   0.537  1.2615  0.0469  1.7085
  674MOL0     H90987   2.099   6.242   0.709  2.2988 -1.2548 -0.7708
  674MOL0     H90988   2.052   6.605   0.493 -1.0955  0.4991 -0.8831
  674MOL0     H90989   1.753   5.869   0.889 -2.1284 -0.1543 -2.0252
  674MOL0     H90990   1.535   5.803   0.984 -1.7150  0.7751  2.6725
  675MOL0     O90991  11.343   4.760   6.202 -1.0126 -0.4401  0.3803
  675MOL0     C90992  11.377   4.694   6.302 -0.0851  0.0516 -0.0928
  675MOL0     O90993  11.295   4.599   6.372 -0.1507 -0.3901  0.1296
  675MOL0     C90994  11.169   4.581   6.332 -0.1170 -0.5118  0.1859
  675MOL0     C90995  11.114   4.453   6.341  0.0515  0.0833 -1.8320
  675MOL0     C90996  10.980   4.426   6.321 -0.3602  0.0824 -0.4128
  675MOL0     C90997  10.885   4.530   6.313 -1.1056 -0.0874  0.5391
  675MOL0     O90998  10.753   4.524   6.294  0.1237 -0.6225  0.8133
  675MOL0     C90999  10.693   4.424   6.205 -0.1466  1.0518 -0.4191
  675MOL0     C91000  10.539   4.435   6.206 -0.4656 -0.1566 -0.8218
  675MOL0     C91001  10.470   4.310   6.147  0.4323 -0.1625  0.6169
  675MOL0     C91002  10.316   4.337   6.149 -0.7256  0.2562  0.3112
  675MOL0     C91003  10.251   4.223   6.078  0.0263 -1.0365  0.3841
  675MOL0     C91004  10.099   4.249   6.059  0.4659  0.1961  0.2774
  675MOL0     C91005  10.018   4.135   5.996  0.6588 -1.4798 -0.0606
  675MOL0     C91006   9.963   4.030   6.097 -0.4377  0.1468  0.9658
  675MOL0     N91007  10.071   3.958   6.155  0.2013  0.1106  0.2107
  675MOL0     C91008  10.174   3.902   6.084  0.1792 -0.3300 -0.4625
  675MOL0     C91009  10.259   3.869   6.191  0.6572  0.0761 -0.2233
  675MOL0     C91010  10.399   3.810   6.170  0.3408  0.2789  0.1546
  675MOL0     C91011  10.385   3.657   6.143  0.7107  0.0567  0.4777
  675MOL0     C91012  10.309   3.591   6.262 -0.2745 -0.7788 -0.3820
  675MOL0     C91013  10.261   3.455   6.212 -0.7564 -0.1429 -0.6103
  675MOL0     O91014  10.212   3.371   6.316  0.5373  0.5027 -0.3614
  675MOL0     C91015  10.086   3.391   6.366  0.9384 -0.2996  0.2639
  675MOL0     C91016  10.052   3.311   6.476 -0.9233  0.6025 -0.2720
  675MOL0     C91017   9.926   3.285   6.520 -0.1879 -0.2838  0.7438
  675MOL0     C91018   9.911   3.176   6.628 -0.1003 -0.4939 -0.2318
  675MOL0     C91019   9.813   3.357   6.472 -0.3657  0.7030  0.1019
  675MOL0     C91020   9.669   3.335   6.493  0.3525  0.0208  0.1740
  675MOL0     O91021   9.587   3.447   6.486 -0.1116  0.1503 -0.4472
  675MOL0     C91022   9.459   3.438   6.534  0.3102 -0.5542  0.7091
  675MOL0     C91023   9.356   3.488   6.447 -0.1163  0.1944  0.3816
  675MOL0     C91024   9.215   3.469   6.479 -0.5127  0.1032  0.2900
  675MOL0     C91025   9.182   3.429   6.608 -0.2521 -0.9056  0.4282
  675MOL0     O91026   9.058   3.408   6.657 -0.5347  0.8122 -0.1014
  675MOL0     C91027   8.951   3.446   6.563  1.1791  0.5262 -0.1961
  675MOL0     C91028   8.827   3.419   6.639 -0.0202 -0.2235  0.4093
  675MOL0     C91029   8.792   3.271   6.656  0.5218 -0.4810  0.5106
  675MOL0     C91030   8.742   3.204   6.525 -0.5097 -0.2088 -0.4211
  675MOL0     C91031   8.706   3.060   6.559  1.2889  0.1409  0.0153
  675MOL0     C91032   8.623   3.007   6.439  0.0440 -0.6410 -0.2033
  675MOL0     C91033   8.621   2.857   6.435  0.4618 -0.3363 -1.3709
  675MOL0     C91034   8.546   2.795   6.559 -0.0356  0.4399 -0.1376
  675MOL0    Cl91035   8.385   2.863   6.567  0.7351  0.0473  0.2983
  675MOL0     C91036   9.281   3.399   6.696  0.5644  0.2789 -0.0644
  675MOL0     C91037   9.418   3.396   6.664  0.4915  0.4507 -0.0331
  675MOL0     O91038   9.630   3.218   6.508  0.5935  0.3367  0.2884
  675MOL0     C91039   9.847   3.461   6.375  1.1623  0.9664 -0.3369
  675MOL0     C91040   9.978   3.479   6.330  0.2175  0.2953  0.4651
  675MOL0     N91041  10.193   3.888   6.307  0.8196  0.0115 -0.2071
  675MOL0     N91042  10.082   3.943   6.292 -0.1827  0.4770  0.3676
  675MOL0     C91043  10.936   4.665   6.295  0.1608  0.9333  0.1388
  675MOL0     C91044  11.077   4.689   6.306  0.4175  1.8325 -0.3949
  675MOL0     C91045  11.508   4.713   6.359  0.4072 -1.2991 -0.0036
  675MOL0     C91046  11.593   4.813   6.309 -0.6364 -0.0656  0.2162
  675MOL0     C91047  11.713   4.843   6.363  0.2289 -0.3236 -0.5641
  675MOL0     C91048  11.762   4.762   6.457  0.6087 -0.1527 -0.0824
  675MOL0     O91049  11.882   4.763   6.504 -0.9820 -0.0044 -0.3722
  675MOL0     C91050  11.995   4.814   6.432  0.3977 -0.4925  0.5759
  675MOL0     C91051  12.124   4.808   6.508 -0.4364  0.2075  0.5197
  675MOL0     C91052  12.136   4.910   6.620 -0.0455 -0.5023  0.7321
  675MOL0     C91053  12.242   4.862   6.723  0.0910 -0.1304 -0.5089
  675MOL0     C91054  12.379   4.849   6.665 -0.0271 -0.5109  0.4150
  675MOL0     C91055  12.488   4.856   6.608  0.2951  0.4859 -0.2000
  675MOL0     C91056  11.681   4.677   6.524  0.5115  0.1291 -0.4158
  675MOL0     C91057  11.552   4.647   6.473 -0.0160 -0.3965 -0.4144
  675MOL0     H91058  11.185   4.379   6.377  0.1640  0.7348 -0.6633
  675MOL0     H91059  10.941   4.325   6.332 -0.0550 -0.1668 -1.4918
  675MOL0     H91060  10.726   4.428   6.101  0.5942 -2.6814 -0.4808
  675MOL0     H91061  10.725   4.330   6.251  2.5612  2.5766  1.0177
  675MOL0     H91062  10.506   4.434   6.311  2.2649 -2.3178  0.1568
  675MOL0     H91063  10.498   4.522   6.155 -0.5467 -0.2287 -0.8794
  675MOL0     H91064  10.508   4.296   6.045 -1.3775  1.4421 -0.3439
  675MOL0     H91065  10.495   4.221   6.206 -2.6707 -0.0512  2.2750
  675MOL0     H91066  10.273   4.349   6.249  0.4348  3.0435  0.5630
  675MOL0     H91067  10.307   4.432   6.095  0.6061  0.8357  1.0861
  675MOL0     H91068  10.290   4.215   5.976 -1.1332  0.9961 -0.2883
  675MOL0     H91069  10.282   4.136   6.137  2.4302 -1.8619 -1.8764
  675MOL0     H91070  10.051   4.267   6.156  0.6141 -0.5936  0.5049
  675MOL0     H91071  10.087   4.346   6.010 -0.3467  0.5987  1.2367
  675MOL0     H91072   9.931   4.183   5.949 -0.2183 -0.9889  1.9621
  675MOL0     H91073  10.079   4.082   5.923 -1.3263 -2.0510 -1.3779
  675MOL0     H91074   9.885   3.965   6.054 -1.4895  1.1832  1.2725
  675MOL0     H91075   9.910   4.071   6.183  1.2955 -0.9451  2.6316
  675MOL0     H91076  10.202   3.894   5.979 -0.2607 -1.9600 -0.4803
  675MOL0     H91077  10.453   3.868   6.094  0.2858  0.1561  0.0222
  675MOL0     H91078  10.457   3.812   6.262  0.4579 -1.9180  0.1837
  675MOL0     H91079  10.488   3.621   6.139  0.0819 -1.7354 -0.2720
  675MOL0     H91080  10.341   3.633   6.046  3.1394 -2.2416 -0.1467
  675MOL0     H91081  10.221   3.648   6.292 -0.5768 -0.3735 -1.9389
  675MOL0     H91082  10.381   3.578   6.344  1.0769 -2.6670 -1.7695
  675MOL0     H91083  10.340   3.399   6.161 -0.6411 -0.0667 -0.5168
  675MOL0     H91084  10.182   3.466   6.137 -1.0039 -2.4054 -0.7523
  675MOL0     H91085  10.140   3.253   6.503 -0.2235  1.5907 -0.3747
  675MOL0     H91086   9.816   3.193   6.680 -1.1830  0.2320 -2.3278
  675MOL0     H91087   9.900   3.082   6.574 -0.7940 -0.0386 -0.9003
  675MOL0     H91088   9.993   3.172   6.700  2.9778 -0.4937 -3.4617
  675MOL0     H91089   9.386   3.515   6.347  2.6497 -0.0339  1.0724
  675MOL0     H91090   9.148   3.488   6.395  0.7931 -3.2414 -1.7130
  675MOL0     H91091   8.961   3.554   6.552  2.4759  0.3121 -1.5467
  675MOL0     H91092   8.952   3.389   6.469 -2.4754  1.0298 -0.7033
  675MOL0     H91093   8.837   3.471   6.735  0.9700  0.9078 -0.2745
  675MOL0     H91094   8.745   3.467   6.585 -1.2960 -1.4365  1.1992
  675MOL0     H91095   8.714   3.266   6.732 -0.2965  2.8880  0.0511
  675MOL0     H91096   8.871   3.207   6.697 -1.2609 -1.4436  2.6667
  675MOL0     H91097   8.658   3.260   6.483 -0.1161 -0.9497 -2.3215
  675MOL0     H91098   8.811   3.211   6.440 -0.8616  2.0139 -0.5738
  675MOL0     H91099   8.644   3.049   6.648 -1.1061 -0.1771 -1.5964
  675MOL0     H91100   8.796   3.001   6.577  2.0922  1.5193  0.6745
  675MOL0     H91101   8.524   3.053   6.447  0.7591  0.7256  1.5986
  675MOL0     H91102   8.671   3.041   6.347  0.5782  0.6048  0.5155
  675MOL0     H91103   8.723   2.820   6.425 -0.0786 -1.5224 -2.9123
  675MOL0     H91104   8.573   2.828   6.341 -1.5326  1.9166 -1.1387
  675MOL0     H91105   8.606   2.810   6.649 -0.1016  0.2662 -0.0655
  675MOL0     H91106   8.534   2.689   6.534  0.0186  0.2807  0.4887
  675MOL0     H91107   9.252   3.375   6.797 -0.1744  1.3770  0.0065
  675MOL0     H91108   9.477   3.331   6.727  0.1820  1.4102  1.2841
  675MOL0     H91109   9.766   3.519   6.332  0.6356  1.8821  1.7321
  675MOL0     H91110   9.985   3.543   6.243 -2.5686  1.3811  0.9254
  675MOL0     H91111  10.867   4.746   6.273 -2.1481  0.4352  4.3498
  675MOL0     H91112  11.104   4.794   6.300 -0.8185  2.1016 -1.5750
  675MOL0     H91113  11.556   4.879   6.231 -1.1857 -0.6519 -0.0251
  675MOL0     H91114  11.780   4.920   6.324  0.7396  0.4660  1.6946
  675MOL0     H91115  12.010   4.755   6.341 -0.9259  0.6057 -0.3896
  675MOL0     H91116  11.981   4.918   6.399 -0.9520 -0.9943 -0.5267
  675MOL0     H91117  12.204   4.826   6.436  0.1140  0.1980  1.1180
  675MOL0     H91118  12.147   4.707   6.543  2.1761  1.0870  1.5654
  675MOL0     H91119  12.038   4.920   6.668 -0.0812 -1.8875  0.9777
  675MOL0     H91120  12.162   5.007   6.577 -1.5588 -0.0938  0.6664
  675MOL0     H91121  12.209   4.769   6.770 -1.4350  1.8820  2.7873
  675MOL0     H91122  12.249   4.932   6.807  0.2993 -0.9982  0.2027
  675MOL0     H91123  12.581   4.870   6.558  0.2275  0.7812 -0.2433
  675MOL0     H91124  11.705   4.610   6.606  0.0490  1.8810  1.2069
  675MOL0     H91125  11.482   4.582   6.524 -2.0294  1.6038 -0.4493
  676MOL0     O91126   8.699   3.772   4.293  0.2669  0.3952 -0.1352
  676MOL0     C91127   8.728   3.885   4.288 -0.3041  0.7012 -0.3180
  676MOL0     O91128   8.669   3.974   4.202 -0.0066 -0.3843  0.0354
  676MOL0     C91129   8.562   3.950   4.127  0.1995 -0.2789 -0.1458
  676MOL0     C91130   8.552   3.850   4.032 -1.0193  0.2925 -0.3581
  676MOL0     C91131   8.436   3.850   3.955  0.9689  0.4733  0.5490
  676MOL0     C91132   8.332   3.940   3.961  0.1008  0.0748  0.3868
  676MOL0     O91133   8.223   3.950   3.881  0.2638 -0.7091 -0.5061
  676MOL0     C91134   8.195   3.856   3.783  0.2275  0.0702 -0.0221
  676MOL0     C91135   8.086   3.895   3.684 -0.2129  0.1447  0.2282
  676MOL0     C91136   7.952   3.882   3.753  0.4770 -0.2214  0.1105
  676MOL0     C91137   7.835   3.930   3.661 -1.3163 -0.2045  0.6267
  676MOL0     C91138   7.703   3.922   3.734  0.4087  0.3496  1.1089
  676MOL0     C91139   7.583   3.974   3.644 -0.1359 -0.7274 -0.5631
  676MOL0     C91140   7.449   3.947   3.712 -0.8393 -0.4739  0.2425
  676MOL0     C91141   7.332   3.967   3.610 -1.1287  0.1570  1.3519
  676MOL0     N91142   7.200   3.946   3.672 -0.1659  0.1718  0.8417
  676MOL0     C91143   7.174   3.835   3.750  0.3813  0.4539 -0.3194
  676MOL0     C91144   7.052   3.870   3.804 -0.5141  0.1855 -0.0244
  676MOL0     C91145   6.975   3.779   3.899  0.5040  1.1387  0.0736
  676MOL0     C91146   6.854   3.731   3.816 -0.5962  0.3237 -0.4048
  676MOL0     C91147   6.775   3.636   3.913 -0.0016  0.3636  0.0945
  676MOL0     C91148   6.648   3.591   3.837 -0.1051  0.0991 -0.6242
  676MOL0     O91149   6.555   3.694   3.828  0.1173 -0.2380 -0.0131
  676MOL0     C91150   6.425   3.659   3.826 -0.9520  0.0173 -1.0218
  676MOL0     C91151   6.330   3.760   3.859 -0.5648  0.6637  0.0285
  676MOL0     C91152   6.198   3.735   3.837  1.0992 -0.4995 -0.4266
  676MOL0     C91153   6.099   3.848   3.851  0.6674 -0.4862 -0.8220
  676MOL0     C91154   6.155   3.599   3.797  0.2112  0.0880  0.6485
  676MOL0     C91155   6.013   3.562   3.795  0.3908 -0.3672 -0.2267
  676MOL0     O91156   5.959   3.553   3.919  0.8767  0.1597  0.3608
  676MOL0     C91157   5.825   3.590   3.948 -0.0387 -0.0367 -0.7541
  676MOL0     C91158   5.811   3.674   4.061  0.5843 -0.6515 -0.2584
  676MOL0     C91159   5.687   3.720   4.110 -0.0348  1.1200 -0.2300
  676MOL0     C91160   5.569   3.659   4.052 -0.2875  0.6602  0.9065
  676MOL0     O91161   5.437   3.695   4.082  0.2324  0.1242  0.4984
  676MOL0     C91162   5.400   3.774   4.193 -0.7149  0.1086  0.0779
  676MOL0     C91163   5.251   3.808   4.190 -0.3164  0.0033  0.0876
  676MOL0     C91164   5.164   3.679   4.168  0.5115  0.5557 -0.0375
  676MOL0     C91165   5.011   3.711   4.203  0.5100 -0.2783  0.6518
  676MOL0     C91166   4.932   3.581   4.227  0.0833 -0.7305  0.2050
  676MOL0     C91167   4.793   3.628   4.275 -0.9566  0.5268  0.3628
  676MOL0     C91168   4.694   3.516   4.317  0.0678 -0.1898  0.4643
  676MOL0     C91169   4.677   3.401   4.221  0.0887  0.6784 -0.4435
  676MOL0    Cl91170   4.623   3.472   4.070  0.4558 -0.0967 -0.0369
  676MOL0     C91171   5.585   3.579   3.936  0.1821  0.0075 -0.0737
  676MOL0     C91172   5.707   3.545   3.882 -0.1291  0.3839 -0.0747
  676MOL0     O91173   5.952   3.560   3.689 -0.2327  0.4139 -0.2778
  676MOL0     C91174   6.249   3.497   3.768  0.9233  0.5536 -0.9857
  676MOL0     C91175   6.376   3.531   3.788 -0.6924 -1.0441 -0.4324
  676MOL0     N91176   7.015   3.994   3.760  0.1717 -0.8928  0.1277
  676MOL0     N91177   7.097   4.038   3.680 -0.7807  0.0677 -0.1332
  676MOL0     C91178   8.348   4.036   4.062 -0.4703 -0.2679 -0.8843
  676MOL0     C91179   8.457   4.042   4.148 -0.0157 -0.8680  0.1795
  676MOL0     C91180   8.835   3.929   4.384 -0.4721  0.3900  0.5957
  676MOL0     C91181   8.867   3.844   4.489  0.9233  0.0573 -0.9221
  676MOL0     C91182   8.964   3.881   4.578 -0.3857 -0.9575 -0.4240
  676MOL0     C91183   9.048   3.987   4.561 -0.8717 -0.2170 -0.0041
  676MOL0     O91184   9.156   4.013   4.647  0.0136  0.6012  0.0190
  676MOL0     C91185   9.186   3.907   4.740  0.0415 -0.3675 -0.0378
  676MOL0     C91186   9.334   3.906   4.795  0.8208 -0.6110  0.0513
  676MOL0     C91187   9.352   3.997   4.908  0.8140  0.0079  0.5145
  676MOL0     C91188   9.489   4.055   4.917 -0.3368  0.0961 -0.1462
  676MOL0     C91189   9.588   3.957   4.968  0.4627  0.3251  0.5229
  676MOL0     C91190   9.666   3.864   4.985  0.0535  0.0857 -0.5179
  676MOL0     C91191   9.019   4.066   4.444 -0.3877 -0.2198 -0.4214
  676MOL0     C91192   8.915   4.036   4.354  0.8162 -0.3304 -0.0896
  676MOL0     H91193   8.630   3.775   4.024 -1.4629 -0.2287  0.0759
  676MOL0     H91194   8.430   3.782   3.871 -0.0574 -1.7324  2.3070
  676MOL0     H91195   8.277   3.835   3.715 -2.1902 -1.2471 -2.7789
  676MOL0     H91196   8.166   3.761   3.828  1.1840 -0.0664  0.3190
  676MOL0     H91197   8.100   3.999   3.653  2.5725  0.3090  1.7972
  676MOL0     H91198   8.090   3.836   3.592  0.0540  0.3210  0.1245
  676MOL0     H91199   7.934   3.776   3.775 -1.2891 -0.3208 -1.5015
  676MOL0     H91200   7.944   3.941   3.845  0.8061 -0.7443  0.4779
  676MOL0     H91201   7.854   4.033   3.627 -2.7740 -1.2156 -4.0269
  676MOL0     H91202   7.838   3.872   3.568 -1.5594 -2.0508  1.7383
  676MOL0     H91203   7.692   3.815   3.758  0.8131 -0.4772 -1.9491
  676MOL0     H91204   7.709   3.972   3.831  0.0714  2.0297  0.2846
  676MOL0     H91205   7.600   4.081   3.628  0.7128 -0.9024 -0.8508
  676MOL0     H91206   7.595   3.928   3.546 -2.5467 -1.1227 -0.7324
  676MOL0     H91207   7.445   3.839   3.733 -0.0664 -0.8984 -1.5629
  676MOL0     H91208   7.442   4.002   3.806 -2.4646 -1.9481  1.0392
  676MOL0     H91209   7.343   3.907   3.519 -3.2576 -0.0780  1.1881
  676MOL0     H91210   7.331   4.069   3.571 -0.6347  1.1114  3.7108
  676MOL0     H91211   7.225   3.739   3.754 -2.1272 -0.9773 -0.4418
  676MOL0     H91212   7.040   3.693   3.916  0.4685  1.2836  1.0051
  676MOL0     H91213   6.950   3.840   3.986 -1.0222  1.8869 -0.8271
  676MOL0     H91214   6.898   3.678   3.731  1.2879  0.4720  0.4157
  676MOL0     H91215   6.795   3.815   3.779  1.7786  2.7220  0.8114
  676MOL0     H91216   6.748   3.690   4.003 -0.2623 -0.3946  0.4805
  676MOL0     H91217   6.826   3.543   3.938 -0.7977 -1.4442 -4.1107
  676MOL0     H91218   6.601   3.507   3.889 -0.7191  1.7929  1.7280
  676MOL0     H91219   6.679   3.557   3.738 -3.0240 -0.3091 -1.5028
  676MOL0     H91220   6.373   3.856   3.885 -0.5731  0.8606 -0.6435
  676MOL0     H91221   6.015   3.853   3.781 -0.8988 -0.0957  1.0001
  676MOL0     H91222   6.049   3.833   3.947  1.4815 -1.7544 -0.5666
  676MOL0     H91223   6.152   3.943   3.856  0.1109 -0.2402  2.5277
  676MOL0     H91224   5.898   3.690   4.123  0.7486  0.5202 -0.7538
  676MOL0     H91225   5.679   3.784   4.196 -0.9645 -0.6328  1.0601
  676MOL0     H91226   5.407   3.704   4.276  0.3865 -0.4438 -0.4536
  676MOL0     H91227   5.462   3.863   4.208 -1.2252  0.2336  1.5608
  676MOL0     H91228   5.230   3.842   4.292  1.1832  2.6732 -0.4009
  676MOL0     H91229   5.223   3.884   4.117 -1.0335 -0.7978 -0.4854
  676MOL0     H91230   5.196   3.594   4.229 -0.4763  1.3028  1.6065
  676MOL0     H91231   5.167   3.636   4.068 -0.4729  3.4262 -1.4082
  676MOL0     H91232   5.009   3.769   4.295 -0.6410 -3.1738  2.6017
  676MOL0     H91233   4.964   3.771   4.124  1.7544 -0.7965 -0.5333
  676MOL0     H91234   4.981   3.510   4.294  3.3678 -2.2848 -3.4344
  676MOL0     H91235   4.921   3.536   4.128 -0.8143 -2.2760  0.9756
  676MOL0     H91236   4.808   3.683   4.368 -0.3940 -1.9556  1.8314
  676MOL0     H91237   4.741   3.695   4.205  0.7827 -0.7960 -2.3326
  676MOL0     H91238   4.598   3.559   4.347  1.6106  3.6920  0.4215
  676MOL0     H91239   4.740   3.468   4.404  3.8009  2.0640 -0.0414
  676MOL0     H91240   4.601   3.330   4.253 -0.1529 -0.2228 -2.7999
  676MOL0     H91241   4.772   3.353   4.195 -0.6926 -0.6454 -0.9715
  676MOL0     H91242   5.499   3.529   3.892  0.3121  0.1985 -0.5515
  676MOL0     H91243   5.723   3.489   3.791  0.4668 -1.2847  0.9940
  676MOL0     H91244   6.221   3.398   3.735 -4.5384  1.2215  0.7363
  676MOL0     H91245   6.455   3.463   3.758 -0.0776 -1.3048  1.6447
  676MOL0     H91246   8.263   4.102   4.080  0.4947  1.1725 -1.4386
  676MOL0     H91247   8.457   4.118   4.226 -3.0573 -0.1993 -0.3576
  676MOL0     H91248   8.814   3.751   4.505  0.3196  0.5240 -0.0726
  676MOL0     H91249   8.968   3.814   4.663 -0.5684 -0.9452 -0.4066
  676MOL0     H91250   9.118   3.923   4.824  2.4088 -0.5034  2.0246
  676MOL0     H91251   9.164   3.807   4.700  0.3988 -0.7168  0.6220
  676MOL0     H91252   9.398   3.929   4.709  3.6625 -2.8437  1.3728
  676MOL0     H91253   9.359   3.806   4.833  0.0334 -0.0116  2.2883
  676MOL0     H91254   9.334   3.944   5.002 -2.4158  0.0390  0.0241
  676MOL0     H91255   9.278   4.078   4.905  2.0581  1.3735  3.1738
  676MOL0     H91256   9.497   4.128   4.997  3.1824 -0.2672 -0.0089
  676MOL0     H91257   9.514   4.112   4.827 -2.5970 -0.2176 -1.0330
  676MOL0     H91258   9.742   3.793   5.008 -2.0839 -2.0635  0.3431
  676MOL0     H91259   9.067   4.158   4.414 -1.1303  0.6917  1.0688
  676MOL0     H91260   8.893   4.098   4.268  0.7973 -0.4637 -0.1786
  677MOL0     O91261   0.116   9.485   9.453 -0.6603 -0.2174  0.0859
  677MOL0     C91262   0.130   9.391   9.524 -0.1690  0.6809 -0.4489
  677MOL0     O91263   0.037   9.302   9.566 -0.1043  0.4999 -0.1024
  677MOL0     C91264  -0.084   9.317   9.499  0.3240 -0.0397 -0.1808
  677MOL0     C91265  -0.108   9.253   9.377  0.0871  0.3094  0.6873
  677MOL0     C91266  -0.235   9.249   9.323  0.5712  0.5154 -0.9366
  677MOL0     C91267  -0.347   9.312   9.392 -0.3111 -0.1612 -0.9856
  677MOL0     O91268  -0.478   9.302   9.356  0.0549 -0.5849  0.5393
  677MOL0     C91269  -0.525   9.185   9.299 -0.9586 -0.0888 -0.4399
  677MOL0     C91270  -0.678   9.163   9.333 -0.4276  0.6562  0.7086
  677MOL0     C91271  -0.768   9.266   9.265  1.2798 -0.4054  0.2084
  677MOL0     C91272  -0.804   9.409   9.338 -0.7773 -0.4444 -0.8016
  677MOL0     C91273  -0.827   9.524   9.231 -0.0496  0.1797  0.5309
  677MOL0     C91274  -0.922   9.499   9.107  0.2416  0.5408  0.5712
  677MOL0     C91275  -1.058   9.436   9.135  1.0341  0.3662 -0.0244
  677MOL0     C91276  -1.173   9.530   9.149 -0.6825 -0.4015  0.1805
  677MOL0     N91277  -1.300   9.464   9.140  0.2271 -0.2582 -0.0769
  677MOL0     C91278  -1.381   9.453   9.250 -0.3966  0.7997  0.1128
  677MOL0     C91279  -1.485   9.389   9.193 -0.1805  0.4318  0.5212
  677MOL0     C91280  -1.617   9.357   9.268 -0.4338 -0.3518 -0.5680
  677MOL0     C91281  -1.661   9.483   9.354 -0.0822 -0.4348  0.5052
  677MOL0     C91282  -1.713   9.598   9.271 -0.4166  0.5653  0.6346
  677MOL0     C91283  -1.832   9.567   9.175 -0.1372 -0.1587  0.0298
  677MOL0     O91284  -1.921   9.485   9.252  0.6177 -0.4330 -0.4320
  677MOL0     C91285  -2.032   9.546   9.308 -0.8276  0.0098  0.5240
  677MOL0     C91286  -2.069   9.681   9.308  0.3061  0.4969  0.3819
  677MOL0     C91287  -2.196   9.727   9.352 -0.0750  0.0112 -0.1536
  677MOL0     C91288  -2.218   9.873   9.342  0.2045 -0.4169  0.1807
  677MOL0     C91289  -2.289   9.634   9.410  1.4387 -0.2978 -0.1146
  677MOL0     C91290  -2.423   9.668   9.459 -0.1138 -0.1300 -0.2469
  677MOL0     O91291  -2.485   9.564   9.532 -0.7930 -0.2742  1.2488
  677MOL0     C91292  -2.612   9.585   9.590 -0.9625  0.8937  0.9592
  677MOL0     C91293  -2.634   9.555   9.729 -0.7430 -0.3248 -0.4280
  677MOL0     C91294  -2.760   9.570   9.785  0.4269  0.3381  0.3166
  677MOL0     C91295  -2.859   9.628   9.702  0.7046 -0.1264 -0.6046
  677MOL0     O91296  -2.981   9.655   9.766 -0.2506 -0.1644 -0.1708
  677MOL0     C91297  -3.069   9.757   9.710  0.0128  0.2239 -0.7818
  677MOL0     C91298  -3.089   9.863   9.815  0.0327  0.8961  0.3627
  677MOL0     C91299  -3.235   9.886   9.855 -0.2433  1.4478  0.0591
  677MOL0     C91300  -3.313   9.947   9.744  0.0505 -0.5298 -0.8105
  677MOL0     C91301  -3.453   9.997   9.778 -0.3368  0.0855  0.0283
  677MOL0     C91302  -3.540  10.043   9.657  0.4830  0.1205 -0.5649
  677MOL0     C91303  -3.669  10.106   9.707  0.6990  0.4220 -0.5006
  677MOL0     C91304  -3.629  10.238   9.769 -0.4885 -0.6659  0.0021
  677MOL0    Cl91305  -3.717  10.281   9.915 -0.0426  0.3156  0.5335
  677MOL0     C91306  -2.844   9.654   9.567 -0.3503 -0.3393 -1.0709
  677MOL0     C91307  -2.715   9.634   9.511  0.0375 -0.1468 -0.7036
  677MOL0     O91308  -2.471   9.776   9.436 -0.3664  0.3959  0.0888
  677MOL0     C91309  -2.244   9.506   9.419 -0.8097  0.4044 -0.7171
  677MOL0     C91310  -2.124   9.462   9.371 -0.0255  0.5161 -0.4607
  677MOL0     N91311  -1.464   9.367   9.059 -0.7282  0.8556 -0.1214
  677MOL0     N91312  -1.349   9.415   9.022  1.0929 -0.0555  0.6987
  677MOL0     C91313  -0.320   9.390   9.505  0.6179  0.8497 -0.2198
  677MOL0     C91314  -0.190   9.390   9.556  0.3019 -0.0148 -0.1806
  677MOL0     C91315   0.279   9.362   9.565 -0.3291 -0.8541  1.0089
  677MOL0     C91316   0.302   9.273   9.662  0.1916 -0.1272 -0.8532
  677MOL0     C91317   0.428   9.233   9.696  0.1291  0.7653 -0.3553
  677MOL0     C91318   0.537   9.291   9.639 -0.3097  0.6650  0.0672
  677MOL0     O91319   0.671   9.268   9.667 -1.1709  0.0889 -0.0835
  677MOL0     C91320   0.698   9.165   9.770 -0.5391  0.2760  0.5132
  677MOL0     C91321   0.700   9.023   9.722 -0.1116 -0.6292  0.0481
  677MOL0     C91322   0.789   8.947   9.814 -0.0971 -0.1163  0.6229
  677MOL0     C91323   0.758   8.797   9.801 -0.4405  0.5172 -0.5301
  677MOL0     C91324   0.867   8.736   9.876  0.2995  0.3564 -0.0018
  677MOL0     C91325   0.957   8.676   9.929 -0.0218  0.4301 -0.4005
  677MOL0     C91326   0.512   9.392   9.539  0.0480 -0.4412 -0.9586
  677MOL0     C91327   0.389   9.428   9.503 -0.1961 -0.7630  0.7347
  677MOL0     H91328  -0.032   9.195   9.328 -1.4901 -0.6896 -0.6755
  677MOL0     H91329  -0.249   9.199   9.228 -1.0333  1.3515 -1.1908
  677MOL0     H91330  -0.517   9.180   9.190 -0.6786 -2.5904 -0.3666
  677MOL0     H91331  -0.458   9.104   9.329 -1.9207 -0.9867 -0.5991
  677MOL0     H91332  -0.706   9.060   9.305  0.5777  0.5428  0.0694
  677MOL0     H91333  -0.692   9.176   9.440  2.3094 -1.5618  1.4581
  677MOL0     H91334  -0.724   9.285   9.166  1.6284 -2.1136  0.0110
  677MOL0     H91335  -0.859   9.211   9.240  3.1378 -3.8600  0.3921
  677MOL0     H91336  -0.887   9.414   9.409 -0.2742  4.6844 -0.1408
  677MOL0     H91337  -0.730   9.430   9.416 -3.8822 -3.2541  3.3841
  677MOL0     H91338  -0.869   9.611   9.283 -1.8993  1.1352 -2.3721
  677MOL0     H91339  -0.734   9.562   9.188  0.8743 -2.2293  0.2381
  677MOL0     H91340  -0.930   9.598   9.060  0.6863  0.0982 -0.4723
  677MOL0     H91341  -0.870   9.448   9.026 -0.3940 -0.8933  1.0298
  677MOL0     H91342  -1.088   9.365   9.057  1.1095 -1.7625  1.7923
  677MOL0     H91343  -1.053   9.370   9.222  0.6999  0.9833  0.4648
  677MOL0     H91344  -1.168   9.610   9.074 -0.0667 -0.5182  0.0963
  677MOL0     H91345  -1.168   9.572   9.249 -1.3121 -1.1524  0.5347
  677MOL0     H91346  -1.369   9.483   9.353 -0.8488 -0.6913  0.6266
  677MOL0     H91347  -1.706   9.335   9.209 -1.5843  1.7381  0.2924
  677MOL0     H91348  -1.613   9.270   9.334  3.3909  0.9723  1.2366
  677MOL0     H91349  -1.575   9.522   9.409 -0.2510  1.7495 -0.7015
  677MOL0     H91350  -1.737   9.457   9.428  1.3445 -1.4015  1.7133
  677MOL0     H91351  -1.635   9.653   9.218 -1.4913  3.1169  1.5193
  677MOL0     H91352  -1.756   9.669   9.342 -1.9047 -1.1464  1.5055
  677MOL0     H91353  -1.793   9.505   9.094  0.9159  0.3076  0.1688
  677MOL0     H91354  -1.868   9.654   9.119  3.8829  1.6608 -0.0479
  677MOL0     H91355  -2.009   9.758   9.260 -2.3862  0.0642 -4.2951
  677MOL0     H91356  -2.309   9.884   9.282  0.3889  0.4077  0.0391
  677MOL0     H91357  -2.231   9.916   9.442  2.0049 -1.0207  0.7004
  677MOL0     H91358  -2.137   9.922   9.287  2.1733 -1.0985  2.3241
  677MOL0     H91359  -2.560   9.499   9.784 -0.1592 -1.7727 -2.5535
  677MOL0     H91360  -2.772   9.552   9.892  1.7410  0.0490  0.4379
  677MOL0     H91361  -3.025   9.810   9.625  0.1158 -0.4593 -1.1566
  677MOL0     H91362  -3.165   9.716   9.677 -0.4443  0.7441 -0.1365
  677MOL0     H91363  -3.038   9.838   9.908 -1.9725  0.3046  1.3708
  677MOL0     H91364  -3.041   9.953   9.775  0.2323  1.1648  1.1911
  677MOL0     H91365  -3.230   9.945   9.947  1.0398 -1.1376  1.7858
  677MOL0     H91366  -3.276   9.789   9.886 -0.0482  0.6810 -1.9163
  677MOL0     H91367  -3.251  10.024   9.698  1.5803 -0.1687  1.6834
  677MOL0     H91368  -3.324   9.870   9.666 -1.2714  1.2797 -2.4993
  677MOL0     H91369  -3.436  10.072   9.856 -1.2235  0.5222 -0.1934
  677MOL0     H91370  -3.508   9.914   9.824  0.8502 -0.1572  1.0851
  677MOL0     H91371  -3.489  10.123   9.603  0.6388  0.4458  0.0512
  677MOL0     H91372  -3.553   9.955   9.594 -1.1963 -0.6791  0.8266
  677MOL0     H91373  -3.719  10.040   9.779  0.8155 -0.5522 -1.2863
  677MOL0     H91374  -3.746  10.116   9.631 -1.0469  0.5652  1.2050
  677MOL0     H91375  -3.650  10.312   9.691  0.0323  2.7911  2.8471
  677MOL0     H91376  -3.522  10.252   9.788 -0.4641  2.4624 -1.7856
  677MOL0     H91377  -2.920   9.688   9.497 -0.1818  1.0708 -0.6085
  677MOL0     H91378  -2.717   9.667   9.408 -3.4065 -1.6299 -1.2574
  677MOL0     H91379  -2.311   9.425   9.445 -1.4418  0.5505 -1.8336
  677MOL0     H91380  -2.099   9.356   9.368  0.6324  0.6772 -0.9534
  677MOL0     H91381  -0.407   9.443   9.543  0.2130 -0.1679  0.3168
  677MOL0     H91382  -0.166   9.442   9.649  2.1864 -3.5407  1.5240
  677MOL0     H91383   0.223   9.231   9.723  1.0332  0.5958  0.8134
  677MOL0     H91384   0.429   9.153   9.769  0.0725  0.7959 -0.3218
  677MOL0     H91385   0.797   9.198   9.801  1.3415 -0.1301 -4.2361
  677MOL0     H91386   0.628   9.165   9.854 -0.2607  2.3907  0.7870
  677MOL0     H91387   0.739   9.009   9.621 -1.2441 -1.2035 -0.3276
  677MOL0     H91388   0.599   8.983   9.737 -0.2785  0.3072  1.6776
  677MOL0     H91389   0.776   8.973   9.919  3.2857  0.5104  0.9871
  677MOL0     H91390   0.890   8.976   9.785 -1.4498  1.4279 -3.2984
  677MOL0     H91391   0.744   8.770   9.696  0.5924 -0.4489 -0.4414
  677MOL0     H91392   0.664   8.770   9.849 -0.4134 -1.5146 -1.4861
  677MOL0     H91393   1.037   8.638   9.991 -1.7880 -1.0665  1.1117
  677MOL0     H91394   0.596   9.443   9.494 -0.9348  1.5191 -0.7019
  677MOL0     H91395   0.385   9.501   9.422  0.1249  0.2361  1.5882
  678MOL0     O91396  10.729   5.588  10.529 -0.2644  0.2038 -0.4146
  678MOL0     C91397  10.678   5.621  10.418 -0.2535 -1.0956 -0.7380
  678MOL0     O91398  10.745   5.685  10.315 -0.2467 -0.3733  0.4654
  678MOL0     C91399  10.885   5.709  10.333  0.9760 -0.3935  0.2272
  678MOL0     C91400  10.972   5.606  10.349 -0.6349  0.0166  0.6801
  678MOL0     C91401  11.111   5.621  10.378 -0.3931 -0.6923  0.2469
  678MOL0     C91402  11.163   5.752  10.379  0.5423 -0.1817 -0.7064
  678MOL0     O91403  11.288   5.787  10.398 -0.2663 -1.0410 -0.0810
  678MOL0     C91404  11.377   5.687  10.434 -0.0746  0.0940  0.0145
  678MOL0     C91405  11.517   5.741  10.470 -0.3920  0.3657  0.0219
  678MOL0     C91406  11.615   5.732  10.351  0.6424  0.0739 -0.2952
  678MOL0     C91407  11.749   5.800  10.380 -0.5572 -0.9754  0.5222
  678MOL0     C91408  11.830   5.796  10.254  0.9101  0.5896  0.0832
  678MOL0     C91409  11.966   5.848  10.279 -0.6558  0.8595  0.4868
  678MOL0     C91410  12.056   5.858  10.161  0.5137  0.1956 -0.1771
  678MOL0     C91411  12.205   5.859  10.205 -0.9371 -0.7685  0.3576
  678MOL0     N91412  12.249   5.996  10.237  0.3746 -0.4593  0.1366
  678MOL0     C91413  12.235   6.053  10.363 -0.3301 -0.2976  0.6981
  678MOL0     C91414  12.273   6.184  10.345  0.4584 -0.7645 -0.9010
  678MOL0     C91415  12.264   6.290  10.453  0.0495 -0.1346 -0.2394
  678MOL0     C91416  12.124   6.335  10.492  0.0542  0.3532  0.2135
  678MOL0     C91417  12.107   6.396  10.632  0.0924  0.1180 -0.6063
  678MOL0     C91418  12.147   6.309  10.753  0.3079  0.1904 -0.8481
  678MOL0     O91419  12.088   6.184  10.739  0.0643  0.2936 -0.1347
  678MOL0     C91420  11.950   6.153  10.752 -0.7055  0.3986 -0.1543
  678MOL0     C91421  11.855   6.236  10.803 -0.4985  0.9498  0.3969
  678MOL0     C91422  11.724   6.187  10.828 -0.4066 -0.1913  0.0781
  678MOL0     C91423  11.625   6.290  10.883  0.6098 -0.1711  0.6747
  678MOL0     C91424  11.698   6.047  10.811  0.3967 -0.1852 -1.0327
  678MOL0     C91425  11.575   5.983  10.850  0.9866 -0.3407  0.7193
  678MOL0     O91426  11.459   6.036  10.810 -0.1666  0.9670  0.3592
  678MOL0     C91427  11.335   5.973  10.835 -0.4689  1.1969  0.4615
  678MOL0     C91428  11.237   6.050  10.903 -0.5346 -0.4706  0.5399
  678MOL0     C91429  11.122   5.983  10.934  0.9806 -0.6576 -0.0275
  678MOL0     C91430  11.086   5.860  10.880 -1.1278 -0.6802  0.7865
  678MOL0     O91431  10.967   5.802  10.918 -0.5259 -0.0648  0.0229
  678MOL0     C91432  10.891   5.739  10.808  0.1386  0.0707 -0.5640
  678MOL0     C91433  10.744   5.758  10.844  0.5065 -0.1233 -0.3162
  678MOL0     C91434  10.684   5.886  10.769  0.2912 -0.1166 -0.0309
  678MOL0     C91435  10.525   5.899  10.782 -0.1098  1.0776  0.7064
  678MOL0     C91436  10.453   5.771  10.723  0.3469 -0.3149  0.1902
  678MOL0     C91437  10.301   5.786  10.715  0.6118  0.6146  0.0922
  678MOL0     C91438  10.245   5.791  10.577 -0.0792  0.6145  0.3987
  678MOL0     C91439  10.097   5.837  10.586  0.1779 -0.8116  0.7264
  678MOL0    Cl91440  10.016   5.710  10.670  0.0620  0.0467 -0.1868
  678MOL0     C91441  11.185   5.789  10.810 -0.5442  0.2568  0.5437
  678MOL0     C91442  11.308   5.841  10.795 -0.2927  0.6430  0.0087
  678MOL0     O91443  11.589   5.868  10.892 -0.6056  0.0418  0.3911
  678MOL0     C91444  11.794   5.970  10.739  0.5496 -0.1123 -0.2495
  678MOL0     C91445  11.917   6.021  10.716 -0.5704 -0.0406  1.0218
  678MOL0     N91446  12.306   6.200  10.213  0.1265  0.1797  0.2291
  678MOL0     N91447  12.292   6.088  10.148 -0.4314  0.0294 -0.5053
  678MOL0     C91448  11.068   5.860  10.374 -0.2931  0.3494  0.5917
  678MOL0     C91449  10.929   5.839  10.349 -0.6014  0.1816 -0.4177
  678MOL0     C91450  10.540   5.578  10.376 -0.2562 -0.7809 -0.3037
  678MOL0     C91451  10.442   5.661  10.325 -0.1386 -0.2210 -0.0451
  678MOL0     C91452  10.319   5.610  10.277  0.6069 -0.4051 -0.5827
  678MOL0     C91453  10.274   5.478  10.301  0.7838  0.0478  0.6724
  678MOL0     O91454  10.149   5.431  10.274  0.8125 -0.1368  0.0991
  678MOL0     C91455  10.038   5.517  10.284  0.1378  0.0701 -0.3386
  678MOL0     C91456   9.958   5.486  10.157 -0.9497  0.2023 -0.6979
  678MOL0     C91457   9.804   5.515  10.183  0.1794  0.9642 -0.6657
  678MOL0     C91458   9.762   5.662  10.200 -0.0105  0.3612 -0.4296
  678MOL0     C91459   9.779   5.708  10.339  0.0069 -0.1746 -0.4768
  678MOL0     C91460   9.786   5.742  10.451 -0.8180 -0.5562  1.2250
  678MOL0     C91461  10.363   5.396  10.363 -0.1187 -0.4131 -0.1135
  678MOL0     C91462  10.495   5.446  10.403  0.1238 -0.6462 -0.2125
  678MOL0     H91463  10.928   5.507  10.350  1.6358 -1.0815 -0.5057
  678MOL0     H91464  11.171   5.532  10.389  1.0454  0.3164  0.8987
  678MOL0     H91465  11.327   5.650  10.524 -0.1489 -1.2810 -0.5681
  678MOL0     H91466  11.381   5.612  10.354 -1.0666 -0.8434  0.8084
  678MOL0     H91467  11.498   5.843  10.504 -1.9431  1.1146 -2.7394
  678MOL0     H91468  11.558   5.686  10.555 -0.0751 -0.2041 -0.4827
  678MOL0     H91469  11.636   5.629  10.320 -0.1024  0.1731 -1.1734
  678MOL0     H91470  11.577   5.792  10.267 -2.4016  0.0622  0.9571
  678MOL0     H91471  11.731   5.903  10.415  1.0851 -0.1886 -0.7942
  678MOL0     H91472  11.796   5.744  10.461  1.9026  2.4840  1.7586
  678MOL0     H91473  11.834   5.689  10.231 -1.4928  0.8402 -1.9461
  678MOL0     H91474  11.784   5.850  10.171  0.9304  1.3821  0.5696
  678MOL0     H91475  11.952   5.952  10.310 -2.1289  0.3046  1.8615
  678MOL0     H91476  12.008   5.779  10.353 -1.8241  0.2233  0.5740
  678MOL0     H91477  12.044   5.769  10.099  2.5866 -2.0332  2.3756
  678MOL0     H91478  12.019   5.945  10.105 -2.6866 -3.0032 -3.5437
  678MOL0     H91479  12.264   5.819  10.122 -1.7644 -1.8271  0.2619
  678MOL0     H91480  12.229   5.784  10.281  0.5191 -0.0680  0.6179
  678MOL0     H91481  12.187   6.004  10.446 -0.3201 -2.3943 -0.4516
  678MOL0     H91482  12.320   6.259  10.542 -0.4236  0.5767  0.3114
  678MOL0     H91483  12.312   6.380  10.415 -1.0576  1.7763  2.5484
  678MOL0     H91484  12.055   6.252  10.475  0.1906  0.1137  0.8318
  678MOL0     H91485  12.090   6.406  10.416 -1.5757 -0.0452  0.5364
  678MOL0     H91486  12.005   6.431  10.648  0.7640  1.2258  1.6789
  678MOL0     H91487  12.167   6.487  10.635 -0.6155  0.5950 -0.7834
  678MOL0     H91488  12.095   6.352  10.839 -2.5388 -2.6004 -0.9731
  678MOL0     H91489  12.252   6.307  10.782 -0.3650 -0.6771  1.7677
  678MOL0     H91490  11.885   6.339  10.818  2.7622 -0.0296  1.5221
  678MOL0     H91491  11.668   6.385  10.915 -1.6421  0.7726  1.1338
  678MOL0     H91492  11.545   6.314  10.811  0.3867  0.0688  1.0009
  678MOL0     H91493  11.568   6.257  10.971 -1.3664 -1.8822 -1.1142
  678MOL0     H91494  11.249   6.152  10.936 -2.6088  0.6435 -1.8161
  678MOL0     H91495  11.035   6.029  10.981  0.8800  0.4164 -1.2376
  678MOL0     H91496  10.910   5.785  10.711 -2.5743  1.5529 -0.4828
  678MOL0     H91497  10.928   5.636  10.809  3.7091  1.2318  0.3476
  678MOL0     H91498  10.691   5.674  10.799 -2.7346  1.2401  0.6726
  678MOL0     H91499  10.725   5.770  10.951 -0.9925 -0.5811 -0.5102
  678MOL0     H91500  10.696   5.893  10.660 -0.5448  1.1615 -0.0619
  678MOL0     H91501  10.733   5.970  10.819  0.9242 -0.4102 -0.1399
  678MOL0     H91502  10.505   5.898  10.890  1.0206  0.6559  0.9254
  678MOL0     H91503  10.510   5.993  10.729  0.8003 -0.1908 -1.9533
  678MOL0     H91504  10.481   5.683  10.781  2.4285 -1.1856 -1.9676
  678MOL0     H91505  10.490   5.754  10.621 -2.0931 -1.2496 -0.6192
  678MOL0     H91506  10.256   5.709  10.779  0.9937  0.7708  0.5570
  678MOL0     H91507  10.276   5.876  10.772 -0.1865 -0.5304  1.6498
  678MOL0     H91508  10.269   5.696  10.528  3.0964  0.2961  2.3375
  678MOL0     H91509  10.304   5.866  10.522  2.1936 -1.3040  0.0358
  678MOL0     H91510  10.054   5.847  10.485  1.2200  1.2948  0.4175
  678MOL0     H91511  10.090   5.938  10.628 -0.2084 -0.4617 -0.1385
  678MOL0     H91512  11.149   5.694  10.773 -2.3863  0.9224  0.5179
  678MOL0     H91513  11.378   5.785  10.733 -3.1593 -1.3148 -1.7193
  678MOL0     H91514  11.771   5.866  10.719  2.2290 -0.9664  1.8629
  678MOL0     H91515  11.992   5.967  10.659  0.0115  0.3281  1.4273
  678MOL0     H91516  11.113   5.958  10.391  0.0147  0.3531 -0.2015
  678MOL0     H91517  10.863   5.925  10.343  1.5605  1.9267 -0.2856
  678MOL0     H91518  10.458   5.766  10.302  0.2714 -0.3523 -0.3542
  678MOL0     H91519  10.242   5.674  10.234 -0.6750 -1.3707  0.1873
  678MOL0     H91520   9.987   5.495  10.378 -3.3429 -2.7727 -2.6615
  678MOL0     H91521  10.070   5.622  10.276 -0.0789  0.0448 -1.6344
  678MOL0     H91522   9.971   5.382  10.126  2.9250  0.3579 -0.0642
  678MOL0     H91523   9.997   5.545  10.074  1.2241 -1.4945 -0.9481
  678MOL0     H91524   9.775   5.464  10.275 -2.4708  2.0843 -0.7840
  678MOL0     H91525   9.737   5.471  10.109 -3.7981  1.6875  2.1883
  678MOL0     H91526   9.656   5.669  10.172 -0.0418 -2.1497 -1.1270
  678MOL0     H91527   9.824   5.724  10.135  1.4691 -0.2942  0.3221
  678MOL0     H91528   9.797   5.777  10.552  1.7662 -1.5285  1.3441
  678MOL0     H91529  10.346   5.291  10.386  3.0145 -0.4308  2.7936
  678MOL0     H91530  10.565   5.385  10.459  1.5588  1.9202  0.9946
  679MOL0     O91531   5.010   6.671  11.101  0.2923  0.7339 -0.4047
  679MOL0     C91532   5.033   6.613  11.206 -0.3560 -0.5327 -1.1129
  679MOL0     O91533   4.948   6.606  11.310 -0.2616 -0.5103  0.2970
  679MOL0     C91534   4.814   6.630  11.318 -0.3195  0.6708 -0.4221
  679MOL0     C91535   4.757   6.636  11.447  0.3616  0.7514 -0.2280
  679MOL0     C91536   4.623   6.659  11.462 -0.4978  0.1422  0.6834
  679MOL0     C91537   4.537   6.673  11.351  0.1558 -0.5454 -0.1799
  679MOL0     O91538   4.415   6.717  11.386 -0.1090 -0.2996 -0.6210
  679MOL0     C91539   4.309   6.718  11.297  0.2768  0.1105 -0.5124
  679MOL0     C91540   4.186   6.704  11.385  0.0641  1.2787 -1.2997
  679MOL0     C91541   4.062   6.727  11.301  0.4822  0.3077  0.0073
  679MOL0     C91542   4.022   6.879  11.279  0.2130  0.6304  0.2178
  679MOL0     C91543   3.923   6.879  11.160  0.4328 -0.3901  0.7353
  679MOL0     C91544   3.983   6.895  11.020 -0.1900 -0.3495 -1.2025
  679MOL0     C91545   3.883   6.860  10.904  0.4555 -0.3824  0.1098
  679MOL0     C91546   3.879   6.709  10.875  0.5291 -0.5938 -0.4559
  679MOL0     N91547   3.791   6.679  10.761  0.2748  0.4125 -0.7182
  679MOL0     C91548   3.654   6.665  10.762 -0.0739  0.4046 -1.4798
  679MOL0     C91549   3.622   6.614  10.644 -0.1290 -0.1873 -0.6507
  679MOL0     C91550   3.481   6.582  10.595  0.0584 -0.7315 -0.0831
  679MOL0     C91551   3.472   6.480  10.474 -0.1768 -0.4566  0.3899
  679MOL0     C91552   3.331   6.483  10.397 -0.2430 -0.7104 -0.8267
  679MOL0     C91553   3.202   6.464  10.490 -0.4467 -0.6179 -1.0835
  679MOL0     O91554   3.174   6.590  10.562 -0.0867  0.9049 -0.2821
  679MOL0     C91555   3.057   6.604  10.631  0.6976 -0.8253 -0.1508
  679MOL0     C91556   3.045   6.688  10.746 -1.2713 -0.2449  0.4166
  679MOL0     C91557   2.929   6.711  10.817 -0.0197  0.2761 -0.7540
  679MOL0     C91558   2.944   6.823  10.926  0.0229 -0.0678 -0.4992
  679MOL0     C91559   2.813   6.639  10.781 -0.7441 -0.3759 -0.0312
  679MOL0     C91560   2.679   6.663  10.849 -0.8810  1.0251  0.1552
  679MOL0     O91561   2.585   6.564  10.827  0.3051  1.1763  0.0667
  679MOL0     C91562   2.456   6.610  10.819 -0.3166  0.3850  0.2279
  679MOL0     C91563   2.379   6.690  10.902 -0.2664  0.5583 -0.2828
  679MOL0     C91564   2.254   6.735  10.860  0.0493  0.0966 -0.0919
  679MOL0     C91565   2.192   6.685  10.736  0.7608 -0.6355  0.8702
  679MOL0     O91566   2.066   6.728  10.716  0.2380 -0.2222 -0.4887
  679MOL0     C91567   1.965   6.646  10.658 -0.8224  0.3193 -0.2198
  679MOL0     C91568   1.828   6.711  10.657 -0.6088 -0.7095 -0.7149
  679MOL0     C91569   1.737   6.652  10.543 -0.2166  0.4175  0.3353
  679MOL0     C91570   1.606   6.740  10.531  0.2799 -0.7336  0.7246
  679MOL0     C91571   1.484   6.684  10.446  0.1966 -0.7297 -0.1999
  679MOL0     C91572   1.516   6.665  10.298  0.1352  0.1695  0.4650
  679MOL0     C91573   1.499   6.778  10.207 -0.0994  0.2090 -0.4207
  679MOL0     C91574   1.364   6.813  10.133 -0.8298  0.1263  0.4139
  679MOL0    Cl91575   1.394   6.915   9.991  0.1351  0.3980 -0.0006
  679MOL0     C91576   2.269   6.603  10.653  0.5051  0.0884 -1.0821
  679MOL0     C91577   2.400   6.567  10.694 -0.2920 -0.4515  0.2846
  679MOL0     O91578   2.667   6.746  10.936  0.6241  0.6914  0.3602
  679MOL0     C91579   2.824   6.545  10.679  0.2576 -0.0359  0.3332
  679MOL0     C91580   2.944   6.535  10.606  0.3419 -0.5437 -0.2605
  679MOL0     N91581   3.737   6.582  10.581 -1.2124  0.3308  0.1799
  679MOL0     N91582   3.841   6.622  10.650  0.1944  0.6173 -1.1733
  679MOL0     C91583   4.590   6.663  11.220  0.4241  0.5671  0.2994
  679MOL0     C91584   4.732   6.649  11.211 -0.0906  0.3045  0.4888
  679MOL0     C91585   5.165   6.566  11.242 -0.2505  0.6550  0.7459
  679MOL0     C91586   5.202   6.512  11.364  0.5425 -0.4344  0.1192
  679MOL0     C91587   5.329   6.466  11.383  0.2678 -0.8225  0.1989
  679MOL0     C91588   5.429   6.466  11.281  0.4742  0.3151 -0.1681
  679MOL0     O91589   5.560   6.422  11.291 -0.2497  0.4995 -0.1688
  679MOL0     C91590   5.616   6.367  11.412  0.6606 -0.1090  0.1559
  679MOL0     C91591   5.586   6.216  11.429 -0.3654 -0.5589 -0.1288
  679MOL0     C91592   5.695   6.137  11.363 -0.0670 -0.6235  0.2306
  679MOL0     C91593   5.834   6.160  11.421 -0.8596 -0.8062 -0.3626
  679MOL0     C91594   5.900   6.027  11.408 -0.1938 -1.0781 -0.0786
  679MOL0     C91595   5.954   5.918  11.406  0.3069 -0.7617 -0.8651
  679MOL0     C91596   5.386   6.509  11.160  0.2975 -0.3864  0.4803
  679MOL0     C91597   5.259   6.567  11.137 -0.1331 -0.0593  0.3242
  679MOL0     H91598   4.813   6.619  11.538  2.2315 -0.1276 -1.5002
  679MOL0     H91599   4.587   6.664  11.564 -0.5160 -0.3708  0.7051
  679MOL0     H91600   4.293   6.810  11.240 -2.2647  1.9692  2.8462
  679MOL0     H91601   4.311   6.634  11.227  0.3037  0.6753 -1.1966
  679MOL0     H91602   4.197   6.603  11.424  0.1976  2.5725  2.4204
  679MOL0     H91603   4.195   6.774  11.468  1.1921 -2.5073  2.0537
  679MOL0     H91604   4.073   6.673  11.207  0.0611 -0.4272  0.3751
  679MOL0     H91605   3.982   6.682  11.361 -1.0906  2.1623 -0.5751
  679MOL0     H91606   3.963   6.916  11.363 -1.4915  1.0850 -1.1132
  679MOL0     H91607   4.104   6.949  11.262  1.2567 -0.5645  0.2241
  679MOL0     H91608   3.860   6.790  11.171 -2.2029  1.6595  5.1341
  679MOL0     H91609   3.849   6.958  11.180  0.8276 -0.4255  2.5169
  679MOL0     H91610   4.030   6.993  11.005 -0.3872 -0.2155 -0.9588
  679MOL0     H91611   4.063   6.821  11.011 -2.0244 -2.3013 -2.4087
  679MOL0     H91612   3.784   6.895  10.933 -0.7422 -3.0993 -0.4161
  679MOL0     H91613   3.913   6.919  10.817 -1.1711  2.3956  1.3010
  679MOL0     H91614   3.845   6.659  10.966 -2.7938 -3.6132 -3.0146
  679MOL0     H91615   3.977   6.664  10.863  1.0758  0.5368 -0.3310
  679MOL0     H91616   3.587   6.686  10.844 -1.0584  5.3072 -3.2014
  679MOL0     H91617   3.429   6.534  10.678 -1.7164  0.0991 -0.6530
  679MOL0     H91618   3.435   6.674  10.557 -0.3228 -1.0579 -0.4331
  679MOL0     H91619   3.491   6.378  10.510 -1.1457 -0.6717  0.3307
  679MOL0     H91620   3.559   6.503  10.412  1.6457 -0.9413  2.6106
  679MOL0     H91621   3.334   6.401  10.324 -0.0999 -2.6788  1.2975
  679MOL0     H91622   3.310   6.578  10.346 -2.2131 -0.8524 -0.3617
  679MOL0     H91623   3.227   6.388  10.565 -1.9587  2.0089  2.3811
  679MOL0     H91624   3.118   6.430  10.428  0.4682 -1.1663 -2.0621
  679MOL0     H91625   3.131   6.752  10.763 -1.4062 -0.7026  3.2240
  679MOL0     H91626   2.916   6.774  11.020 -0.2683  0.6948 -0.1878
  679MOL0     H91627   3.040   6.874  10.933 -0.9523  2.1971 -2.2820
  679MOL0     H91628   2.875   6.907  10.916  0.6214  0.6393  1.1086
  679MOL0     H91629   2.424   6.726  10.993  0.6907 -1.2439 -0.0036
  679MOL0     H91630   2.196   6.809  10.913 -0.5813  0.6635 -1.5272
  679MOL0     H91631   1.995   6.620  10.557  2.5673 -0.6732  0.9110
  679MOL0     H91632   1.957   6.553  10.715  0.0517 -0.4258 -1.2607
  679MOL0     H91633   1.783   6.699  10.756  1.2115 -2.8654 -0.0367
  679MOL0     H91634   1.847   6.818  10.643 -3.7267 -0.1334 -1.1464
  679MOL0     H91635   1.716   6.549  10.571 -1.7861  0.7063  0.2925
  679MOL0     H91636   1.793   6.646  10.449 -1.0911 -2.6391 -0.0743
  679MOL0     H91637   1.563   6.760  10.630  1.2602  2.7504  0.6005
  679MOL0     H91638   1.631   6.843  10.501 -3.9765  0.6920  1.4171
  679MOL0     H91639   1.396   6.748  10.456  1.3736  1.3359 -1.9514
  679MOL0     H91640   1.475   6.585  10.492  5.2945 -1.1566  0.5173
  679MOL0     H91641   1.622   6.638  10.301  0.8857  2.7783  0.4643
  679MOL0     H91642   1.470   6.572  10.265  3.9158 -1.9808  0.6730
  679MOL0     H91643   1.562   6.744  10.125 -1.4406 -0.8284 -1.0637
  679MOL0     H91644   1.539   6.869  10.254 -3.2703  2.2657 -1.3918
  679MOL0     H91645   1.298   6.859  10.207 -1.5068 -0.1926  0.0298
  679MOL0     H91646   1.310   6.722  10.102  0.1818 -0.4303  0.2435
  679MOL0     H91647   2.232   6.578  10.554  0.8536  3.2252 -2.1150
  679MOL0     H91648   2.453   6.510  10.619  0.7822 -0.3749  0.9784
  679MOL0     H91649   2.745   6.471  10.667 -0.4454  0.9895 -1.7348
  679MOL0     H91650   2.939   6.476  10.515 -1.1718  1.2379 -1.4202
  679MOL0     H91651   4.525   6.688  11.138  0.7270  2.7951  0.6705
  679MOL0     H91652   4.782   6.649  11.114  2.2774  0.1571  1.6245
  679MOL0     H91653   5.129   6.500  11.444  2.3901 -0.8284  1.8188
  679MOL0     H91654   5.347   6.428  11.483 -4.2333  0.6102  1.8007
  679MOL0     H91655   5.723   6.388  11.425  0.2197  1.9643  0.8993
  679MOL0     H91656   5.577   6.423  11.498  0.2299  2.1728 -1.4152
  679MOL0     H91657   5.495   6.183  11.378 -1.5493 -0.9114  2.0867
  679MOL0     H91658   5.570   6.182  11.532  1.4299  4.8748  2.3019
  679MOL0     H91659   5.687   6.179  11.262 -2.8078  0.2259  0.7287
  679MOL0     H91660   5.652   6.036  11.367 -2.1034  0.2368  1.3464
  679MOL0     H91661   5.839   6.202  11.522  2.5925 -0.2995 -0.5949
  679MOL0     H91662   5.888   6.230  11.355 -0.5792  0.1359  0.8324
  679MOL0     H91663   6.012   5.829  11.398 -0.0856 -0.9200 -2.2686
  679MOL0     H91664   5.445   6.513  11.069 -1.5641  1.5735 -0.7651
  679MOL0     H91665   5.232   6.597  11.036 -0.3658  1.4794  0.8122
  680MOL0     O91666   6.614   0.810  11.009 -0.5057  0.1740 -0.1333
  680MOL0     C91667   6.650   0.921  10.977  0.5854 -0.0379 -0.4146
  680MOL0     O91668   6.583   1.007  10.895  0.0307 -0.3108 -0.1002
  680MOL0     C91669   6.476   0.953  10.829  0.7745 -0.5043  0.1268
  680MOL0     C91670   6.363   1.038  10.808 -0.2428 -0.4210 -0.5236
  680MOL0     C91671   6.259   0.995  10.730  0.1266  1.1164  0.7566
  680MOL0     C91672   6.252   0.864  10.672  0.5606  0.1109 -0.7225
  680MOL0     O91673   6.156   0.824  10.586 -0.5574  0.6797 -0.0374
  680MOL0     C91674   6.038   0.900  10.572 -1.4307 -0.1203  0.5515
  680MOL0     C91675   5.965   0.836  10.460  0.3885 -0.0391  0.0328
  680MOL0     C91676   5.849   0.921  10.415 -0.1726  0.2120  0.0569
  680MOL0     C91677   5.711   0.876  10.466 -0.9975  0.4101 -0.0993
  680MOL0     C91678   5.609   0.993  10.436 -0.3265  0.5648  0.4043
  680MOL0     C91679   5.465   0.976  10.485  0.6887  0.2036 -0.3382
  680MOL0     C91680   5.381   1.107  10.446 -0.6845  0.3112 -0.0990
  680MOL0     C91681   5.310   1.105  10.313  0.1179 -0.4728 -1.2263
  680MOL0     N91682   5.199   1.204  10.294  0.1851 -0.5184  0.5316
  680MOL0     C91683   5.111   1.264  10.387 -0.1401  0.9241  0.4719
  680MOL0     C91684   5.005   1.316  10.318  0.1884 -0.0298 -0.4815
  680MOL0     C91685   4.876   1.368  10.372  0.1137 -0.2031  0.1506
  680MOL0     C91686   4.902   1.453  10.494  0.6821  0.6076 -0.4182
  680MOL0     C91687   4.988   1.584  10.476  1.2522  0.3759 -0.0881
  680MOL0     C91688   4.930   1.687  10.378 -0.1212 -0.3238  0.1349
  680MOL0     O91689   4.807   1.737  10.433 -0.0149 -0.3963  0.2738
  680MOL0     C91690   4.714   1.790  10.351 -0.5825 -0.9718 -0.1687
  680MOL0     C91691   4.584   1.738  10.363  0.1599 -0.4944  0.4564
  680MOL0     C91692   4.477   1.792  10.288 -0.9744  0.3233  0.1551
  680MOL0     C91693   4.343   1.742  10.315  0.7324  0.5438 -0.4346
  680MOL0     C91694   4.509   1.901  10.195  0.5568  0.3672 -0.2166
  680MOL0     C91695   4.409   1.977  10.123 -0.3760  0.4823  0.3681
  680MOL0     O91696   4.454   2.050  10.017 -0.0593 -1.1316  0.7676
  680MOL0     C91697   4.420   2.004   9.898  0.3281  0.3433 -0.3381
  680MOL0     C91698   4.380   1.873   9.868  0.1611  0.0508 -0.4197
  680MOL0     C91699   4.328   1.846   9.738 -0.7967 -0.1799 -0.2924
  680MOL0     C91700   4.317   1.948   9.649  0.3710 -0.3615  0.6117
  680MOL0     O91701   4.298   1.931   9.511 -0.0148  0.5984  0.0866
  680MOL0     C91702   4.382   1.841   9.432  0.6265 -0.4180 -0.2918
  680MOL0     C91703   4.305   1.736   9.347  0.5212 -0.1356 -0.8344
  680MOL0     C91704   4.231   1.637   9.438 -0.1960 -0.3782 -0.1585
  680MOL0     C91705   4.157   1.524   9.358  0.0118  0.1702  0.2633
  680MOL0     C91706   4.080   1.422   9.442  0.6512  1.1113 -0.7350
  680MOL0     C91707   3.943   1.480   9.490 -0.1265 -0.0055 -0.6864
  680MOL0     C91708   3.875   1.397   9.596 -0.8666 -0.4480 -0.0865
  680MOL0     C91709   3.758   1.474   9.634  0.1479 -0.1570 -0.7838
  680MOL0    Cl91710   3.805   1.602   9.754  0.3024 -0.2688 -0.0624
  680MOL0     C91711   4.354   2.075   9.681  0.1798 -0.3536  0.0906
  680MOL0     C91712   4.407   2.099   9.801 -1.0624  0.2397 -0.4001
  680MOL0     O91713   4.290   1.978  10.157 -0.6629  0.0454  0.7333
  680MOL0     C91714   4.639   1.947  10.183  0.3858  0.4188 -1.5316
  680MOL0     C91715   4.740   1.897  10.269  0.3492 -0.9969  0.5303
  680MOL0     N91716   5.045   1.298  10.187 -0.0009 -0.3797  0.0526
  680MOL0     N91717   5.157   1.240  10.172 -1.3362 -0.6732  0.4696
  680MOL0     C91718   6.369   0.787  10.684 -0.6706 -0.1650 -0.4421
  680MOL0     C91719   6.487   0.832  10.754  0.3683  1.0849 -0.1707
  680MOL0     C91720   6.769   0.973  11.056 -0.5576 -0.8329  0.1151
  680MOL0     C91721   6.842   0.895  11.148  0.1081  0.7766  0.5892
  680MOL0     C91722   6.943   0.959  11.215 -0.6678 -0.5038  0.1861
  680MOL0     C91723   6.979   1.094  11.198 -0.1557 -0.0129  0.2516
  680MOL0     O91724   7.090   1.136  11.276  0.0235  0.2650  1.1824
  680MOL0     C91725   7.145   1.264  11.256  0.0602 -0.4807 -0.5344
  680MOL0     C91726   7.065   1.359  11.348  0.2901 -0.5294  0.3977
  680MOL0     C91727   7.139   1.488  11.376  0.3911 -0.2622 -0.1256
  680MOL0     C91728   7.134   1.548  11.523 -0.2026  0.3427  0.1223
  680MOL0     C91729   6.998   1.579  11.551  0.2040  0.0319  0.5884
  680MOL0     C91730   6.884   1.591  11.573  0.2304  0.8857 -0.3054
  680MOL0     C91731   6.907   1.173  11.110 -0.1641 -0.0142 -0.5820
  680MOL0     C91732   6.812   1.108  11.038  0.5812 -0.2875  0.1376
  680MOL0     H91733   6.360   1.135  10.857  0.7153 -1.2998  1.3820
  680MOL0     H91734   6.178   1.068  10.731 -1.4077 -0.5088  2.2769
  680MOL0     H91735   5.980   0.898  10.665 -0.3825  1.7882  1.3023
  680MOL0     H91736   6.067   1.003  10.547  0.0713 -0.7499 -0.3932
  680MOL0     H91737   6.018   0.815  10.367 -0.9129 -1.1521 -0.4832
  680MOL0     H91738   5.939   0.741  10.508  0.9028 -1.0962 -1.6882
  680MOL0     H91739   5.861   1.020  10.458 -1.8406  0.5244 -0.1505
  680MOL0     H91740   5.838   0.928  10.306  1.7478  0.7689 -0.1357
  680MOL0     H91741   5.687   0.779  10.421 -0.8943 -0.7254  2.1322
  680MOL0     H91742   5.711   0.863  10.575 -1.4455 -0.7344 -0.2161
  680MOL0     H91743   5.660   1.077  10.485  0.7943 -1.8306  3.7235
  680MOL0     H91744   5.611   1.032  10.334  2.8404  1.6568  0.7730
  680MOL0     H91745   5.423   0.886  10.439  0.3577  0.3977 -0.4223
  680MOL0     H91746   5.459   0.967  10.594  0.3813  0.3389 -0.3419
  680MOL0     H91747   5.307   1.118  10.525  0.1024  2.0129  0.4497
  680MOL0     H91748   5.439   1.199  10.456 -0.6985  0.2098  1.0509
  680MOL0     H91749   5.268   1.004  10.302  1.4212 -1.8030  3.5751
  680MOL0     H91750   5.382   1.126  10.234  2.0209 -0.9790  0.3083
  680MOL0     H91751   5.123   1.256  10.495  2.6935  0.6642  0.2218
  680MOL0     H91752   4.830   1.438  10.302 -1.7511  1.2379  2.6409
  680MOL0     H91753   4.808   1.284  10.391 -0.0335 -0.6052 -1.9609
  680MOL0     H91754   4.949   1.393  10.572  1.9187 -0.2668 -1.7705
  680MOL0     H91755   4.802   1.484  10.523 -0.7439 -3.5376 -0.3035
  680MOL0     H91756   5.093   1.555  10.462  1.5005  1.4074 -0.4653
  680MOL0     H91757   4.997   1.638  10.571 -0.0702  2.0992 -0.8882
  680MOL0     H91758   4.914   1.642  10.279 -1.7166 -0.6280  0.4955
  680MOL0     H91759   5.004   1.766  10.367 -0.9937  0.4804 -0.1037
  680MOL0     H91760   4.565   1.665  10.441 -0.7828  0.4594  1.1589
  680MOL0     H91761   4.287   1.813  10.375  0.5430  1.1199 -1.2734
  680MOL0     H91762   4.298   1.715  10.219  0.4179 -3.1298  0.5924
  680MOL0     H91763   4.348   1.649  10.373  0.9905  0.3062 -0.8272
  680MOL0     H91764   4.384   1.789   9.937  0.9532  0.5302  0.1520
  680MOL0     H91765   4.309   1.749   9.693 -4.3184  0.2032  0.0628
  680MOL0     H91766   4.442   1.893   9.357  0.0369  0.0164 -0.4665
  680MOL0     H91767   4.454   1.790   9.497 -1.0135 -1.2816  0.9288
  680MOL0     H91768   4.245   1.791   9.274 -2.1520  0.3672  1.5735
  680MOL0     H91769   4.381   1.680   9.291  1.2664  1.0406 -1.0316
  680MOL0     H91770   4.152   1.689   9.493 -0.7945 -0.6182 -0.7793
  680MOL0     H91771   4.297   1.588   9.510  0.9214  0.4750 -0.5824
  680MOL0     H91772   4.082   1.572   9.295 -1.6414 -0.9867  1.2695
  680MOL0     H91773   4.228   1.463   9.302 -0.5548 -0.1755 -0.0903
  680MOL0     H91774   4.139   1.385   9.526  0.6704  1.4201 -0.6099
  680MOL0     H91775   4.065   1.329   9.387  3.5677 -0.2963  0.6404
  680MOL0     H91776   3.951   1.584   9.521  2.4992  0.1206 -1.5299
  680MOL0     H91777   3.881   1.471   9.400  0.6984  0.7885 -1.3555
  680MOL0     H91778   3.938   1.384   9.684  1.2330  2.8867 -0.8949
  680MOL0     H91779   3.854   1.308   9.536  0.9264  0.9575 -3.0469
  680MOL0     H91780   3.681   1.416   9.686  0.4454  1.6108  1.8178
  680MOL0     H91781   3.706   1.523   9.551 -1.8445 -0.9050 -0.0305
  680MOL0     H91782   4.354   2.154   9.606  1.7392  0.7120  1.1438
  680MOL0     H91783   4.430   2.204   9.820 -1.5168  0.6618 -1.9825
  680MOL0     H91784   4.672   2.018  10.108  2.0919  0.1913 -1.0308
  680MOL0     H91785   4.836   1.946  10.258 -0.3476  0.8741  2.2137
  680MOL0     H91786   6.369   0.690  10.635  0.7228 -1.2719  1.5858
  680MOL0     H91787   6.569   0.760  10.753  0.9199  1.6111  1.8190
  680MOL0     H91788   6.822   0.792  11.174  2.1751  0.3052  0.4690
  680MOL0     H91789   7.005   0.914  11.293 -1.2196  0.4330  1.1961
  680MOL0     H91790   7.248   1.260  11.292 -0.1188 -0.5618 -0.0119
  680MOL0     H91791   7.149   1.295  11.152  0.4610 -1.9138 -0.9742
  680MOL0     H91792   7.044   1.314  11.445 -0.4072 -1.1011  0.0020
  680MOL0     H91793   6.973   1.386  11.295  1.2570 -1.0864 -1.6681
  680MOL0     H91794   7.103   1.570  11.312  1.3315  0.7508  0.6070
  680MOL0     H91795   7.244   1.463  11.360  0.3383 -0.5869  0.0416
  680MOL0     H91796   7.205   1.630  11.531  2.1694 -1.4986 -1.0182
  680MOL0     H91797   7.164   1.471  11.594  5.0323  2.3161  0.4860
  680MOL0     H91798   6.777   1.589  11.581  0.2886 -0.1437  0.2537
  680MOL0     H91799   6.921   1.281  11.109 -1.0182  0.2716  3.1297
  680MOL0     H91800   6.758   1.181  10.979  0.4283  0.7777  1.5526
  681MOL0     O91801   2.421   2.724   5.907  0.2245 -0.1884 -0.4247
  681MOL0     C91802   2.513   2.808   5.895 -0.7782 -0.0175 -0.4567
  681MOL0     O91803   2.542   2.903   5.984  0.1552 -0.0928  0.0305
  681MOL0     C91804   2.441   2.957   6.066 -0.9169 -0.7477  0.0748
  681MOL0     C91805   2.491   3.032   6.165 -0.3059 -0.0566 -0.9848
  681MOL0     C91806   2.406   3.099   6.257 -0.5580 -0.4727 -0.5746
  681MOL0     C91807   2.271   3.082   6.263 -0.3440 -0.8768 -1.4121
  681MOL0     O91808   2.196   3.143   6.364  0.6654 -0.1717 -0.7642
  681MOL0     C91809   2.068   3.195   6.323  0.0103  0.5972  1.2161
  681MOL0     C91810   1.989   3.272   6.443 -0.2840  0.1964  0.5556
  681MOL0     C91811   1.848   3.309   6.390 -0.0699  0.2014  0.3349
  681MOL0     C91812   1.794   3.406   6.500  0.1194  0.1543  0.2117
  681MOL0     C91813   1.663   3.483   6.459 -0.4257  0.3287 -0.6254
  681MOL0     C91814   1.677   3.597   6.361 -0.0899  0.2385  0.7472
  681MOL0     C91815   1.543   3.637   6.299 -0.4624 -0.6545  0.0177
  681MOL0     C91816   1.545   3.752   6.213 -0.8014  0.1470 -0.2145
  681MOL0     N91817   1.408   3.769   6.154 -0.3971  0.0308 -0.7764
  681MOL0     C91818   1.383   3.786   6.021 -0.1793  0.8118 -0.2823
  681MOL0     C91819   1.249   3.793   6.011  0.6772 -0.1532 -0.1831
  681MOL0     C91820   1.164   3.814   5.889  0.1003  0.0835  0.1006
  681MOL0     C91821   1.019   3.836   5.907  0.6456 -0.5603 -0.2049
  681MOL0     C91822   0.955   3.920   5.804  0.4845  0.0783  0.6799
  681MOL0     C91823   0.947   3.830   5.673  0.6714 -0.3196 -0.0009
  681MOL0     O91824   0.896   3.902   5.565  0.2803  0.1249  0.5501
  681MOL0     C91825   0.770   3.882   5.523  0.4553  0.0457 -0.1024
  681MOL0     C91826   0.749   3.859   5.395  0.4508  0.2783  1.0561
  681MOL0     C91827   0.623   3.871   5.331  0.0882  0.3430 -0.5839
  681MOL0     C91828   0.614   3.858   5.185 -0.5693 -0.2888 -0.0803
  681MOL0     C91829   0.514   3.906   5.413 -1.2172 -0.8006 -0.7094
  681MOL0     C91830   0.378   3.927   5.358  0.3979 -0.5431  0.6462
  681MOL0     O91831   0.297   3.954   5.464  0.0210  0.6709 -0.1366
  681MOL0     C91832   0.167   3.974   5.434  0.2718 -0.5331 -0.5584
  681MOL0     C91833   0.088   3.884   5.372  0.9885 -0.7887 -0.6940
  681MOL0     C91834  -0.050   3.911   5.355  0.0033  0.0952 -0.5972
  681MOL0     C91835  -0.107   4.028   5.397  0.3619 -0.1133 -0.1016
  681MOL0     O91836  -0.239   4.060   5.384 -0.0023 -0.6561 -0.0258
  681MOL0     C91837  -0.318   3.982   5.294 -0.1021 -0.4900 -0.7112
  681MOL0     C91838  -0.454   4.045   5.300 -0.1866 -0.3334 -1.1832
  681MOL0     C91839  -0.516   4.037   5.439 -0.5364 -0.9011  0.8065
  681MOL0     C91840  -0.667   4.048   5.418  0.2004 -0.2199  0.3029
  681MOL0     C91841  -0.737   4.086   5.550 -0.0941 -0.0061 -0.1180
  681MOL0     C91842  -0.720   3.968   5.659 -0.8618 -0.1864  0.8988
  681MOL0     C91843  -0.772   3.841   5.607 -0.6807 -0.2581  0.9613
  681MOL0     C91844  -0.848   3.771   5.726 -0.4511 -0.5810 -0.9094
  681MOL0    Cl91845  -0.994   3.874   5.785  0.1703  0.0099 -0.3293
  681MOL0     C91846  -0.023   4.119   5.459 -0.4477  1.0142 -0.2599
  681MOL0     C91847   0.111   4.095   5.488  0.1725  0.6046 -0.2303
  681MOL0     O91848   0.341   3.917   5.245 -0.2049  0.0028  0.4362
  681MOL0     C91849   0.535   3.928   5.547 -0.6606 -0.7923 -0.3296
  681MOL0     C91850   0.658   3.908   5.601 -1.2738  0.5761 -0.1363
  681MOL0     N91851   1.198   3.774   6.136  0.3398  0.3320  0.4278
  681MOL0     N91852   1.287   3.757   6.219 -1.1150 -0.1016 -0.6553
  681MOL0     C91853   2.216   2.993   6.166  0.4166 -0.2768  0.2185
  681MOL0     C91854   2.299   2.938   6.062 -0.9478 -0.5130 -0.0088
  681MOL0     C91855   2.582   2.801   5.767 -0.2831  0.3679  0.9219
  681MOL0     C91856   2.704   2.869   5.752 -0.0317 -0.5663  0.7500
  681MOL0     C91857   2.768   2.853   5.628 -0.0334 -0.0594  1.1754
  681MOL0     C91858   2.719   2.776   5.522  0.1932 -0.0755 -0.6516
  681MOL0     O91859   2.771   2.763   5.399 -0.3412 -0.2797  0.3697
  681MOL0     C91860   2.916   2.764   5.376  0.4187  0.7100 -0.0054
  681MOL0     C91861   2.946   2.612   5.376 -0.2809  0.0596  0.0608
  681MOL0     C91862   3.104   2.590   5.362  0.7854 -0.0513 -0.2632
  681MOL0     C91863   3.151   2.451   5.348 -0.4003  0.3553  0.1145
  681MOL0     C91864   3.107   2.369   5.461  0.4670 -0.0361 -0.7598
  681MOL0     C91865   3.101   2.302   5.560 -0.0545 -0.3742  0.7357
  681MOL0     C91866   2.592   2.715   5.537  0.3128  0.0165 -0.3491
  681MOL0     C91867   2.524   2.729   5.660 -0.7504 -0.2124  0.2214
  681MOL0     H91868   2.598   3.050   6.169 -0.4558  0.6907  0.2097
  681MOL0     H91869   2.460   3.168   6.322 -2.4473  0.6802 -0.1639
  681MOL0     H91870   2.078   3.257   6.234 -0.3972  0.8227  1.3194
  681MOL0     H91871   2.004   3.111   6.295 -1.0390  2.1150 -1.2628
  681MOL0     H91872   1.983   3.206   6.530  0.0129 -0.7444 -0.1195
  681MOL0     H91873   2.050   3.360   6.466 -1.7470  2.0540 -2.1713
  681MOL0     H91874   1.867   3.359   6.295  1.6252 -0.5653  0.2360
  681MOL0     H91875   1.785   3.220   6.379  1.5725 -0.9288 -0.3575
  681MOL0     H91876   1.772   3.355   6.594 -0.4899 -0.6795 -0.3703
  681MOL0     H91877   1.867   3.486   6.514 -0.3374  0.8735 -1.2069
  681MOL0     H91878   1.603   3.405   6.411  0.9796  0.5707 -2.9166
  681MOL0     H91879   1.605   3.521   6.544  0.1009 -1.4621  0.5935
  681MOL0     H91880   1.718   3.688   6.406 -1.7589 -0.1330  3.2902
  681MOL0     H91881   1.748   3.564   6.285  0.0730 -1.7511  1.6984
  681MOL0     H91882   1.507   3.549   6.244  0.0081 -1.0135  0.2704
  681MOL0     H91883   1.474   3.659   6.381 -3.0708 -0.7842 -1.9972
  681MOL0     H91884   1.621   3.737   6.136 -3.2825 -0.2030 -2.7761
  681MOL0     H91885   1.581   3.840   6.268  0.7113 -1.5480  1.6574
  681MOL0     H91886   1.450   3.797   5.936  2.0916  1.9490  1.5671
  681MOL0     H91887   1.204   3.896   5.829  1.4208 -2.2640 -2.4514
  681MOL0     H91888   1.180   3.724   5.828  1.8592 -0.4517  1.2563
  681MOL0     H91889   1.012   3.892   6.001 -0.1972  0.8157 -1.0699
  681MOL0     H91890   0.967   3.740   5.919  0.6986 -0.8282 -1.9460
  681MOL0     H91891   1.008   4.015   5.802  1.5817 -0.4815 -2.1006
  681MOL0     H91892   0.858   3.956   5.839  0.8034  1.3133  0.3228
  681MOL0     H91893   0.876   3.749   5.695  0.5443  0.1208  1.3060
  681MOL0     H91894   1.047   3.791   5.652  0.0472 -2.6559  1.0546
  681MOL0     H91895   0.831   3.845   5.326 -0.5397  2.3492 -0.6385
  681MOL0     H91896   0.548   3.773   5.168 -0.8913  0.1824 -1.2161
  681MOL0     H91897   0.578   3.954   5.147  0.7539 -0.5961 -2.2631
  681MOL0     H91898   0.713   3.853   5.138 -0.5088  3.4426 -0.7052
  681MOL0     H91899   0.121   3.788   5.334 -0.2241 -1.3468 -0.3827
  681MOL0     H91900  -0.105   3.833   5.301  0.0166 -2.2714  2.5164
  681MOL0     H91901  -0.270   3.996   5.197 -1.0443 -1.8090 -1.3947
  681MOL0     H91902  -0.316   3.874   5.309 -0.9448 -0.1518  2.8051
  681MOL0     H91903  -0.440   4.147   5.264  0.9886 -0.4531 -1.0888
  681MOL0     H91904  -0.518   4.003   5.222  1.4292 -2.4489 -1.4690
  681MOL0     H91905  -0.494   4.129   5.494 -2.6274 -0.2850  0.6854
  681MOL0     H91906  -0.467   3.957   5.495  3.1404  0.4578 -0.1297
  681MOL0     H91907  -0.697   4.128   5.350 -2.5467  0.2658  1.9099
  681MOL0     H91908  -0.714   3.962   5.369 -0.2283 -0.3956  1.0020
  681MOL0     H91909  -0.844   4.105   5.545 -0.1694  1.0867  3.3367
  681MOL0     H91910  -0.696   4.177   5.593 -0.0017 -0.6867  1.2834
  681MOL0     H91911  -0.615   3.951   5.688 -0.9378  1.1052  2.0465
  681MOL0     H91912  -0.772   4.008   5.747 -1.5130 -0.6764  0.7425
  681MOL0     H91913  -0.692   3.768   5.590 -1.4061 -1.3948  2.2520
  681MOL0     H91914  -0.844   3.852   5.525 -0.2143  0.6816  0.6705
  681MOL0     H91915  -0.781   3.766   5.812 -0.6676 -0.0422 -0.7054
  681MOL0     H91916  -0.886   3.669   5.709 -1.3053  0.0398 -3.1940
  681MOL0     H91917  -0.061   4.214   5.495 -2.5722  0.2014 -0.2281
  681MOL0     H91918   0.171   4.164   5.546 -0.8045 -1.5711  3.8019
  681MOL0     H91919   0.455   3.944   5.620 -1.0788 -0.7256 -0.7987
  681MOL0     H91920   0.680   3.919   5.707  3.7173  1.9281 -1.0789
  681MOL0     H91921   2.110   2.973   6.159  0.0940  1.2920  0.2560
  681MOL0     H91922   2.252   2.894   5.975 -0.0495 -0.7820 -0.3696
  681MOL0     H91923   2.749   2.934   5.827 -3.0612  2.2413  0.3599
  681MOL0     H91924   2.865   2.898   5.609 -1.1570  3.0350  2.1526
  681MOL0     H91925   2.948   2.818   5.286  5.7073  0.1023  1.1606
  681MOL0     H91926   2.968   2.809   5.460 -0.1478 -1.6177  1.7021
  681MOL0     H91927   2.891   2.561   5.296  1.2261 -1.5940  0.0177
  681MOL0     H91928   2.920   2.578   5.477  2.1725  1.6584  1.3206
  681MOL0     H91929   3.150   2.636   5.450 -0.2690 -0.9746  0.8060
  681MOL0     H91930   3.137   2.653   5.279  1.8847 -0.8696 -0.4578
  681MOL0     H91931   3.259   2.442   5.334 -0.4260 -1.8588  0.9927
  681MOL0     H91932   3.098   2.408   5.262 -1.0854 -0.7468  1.0508
  681MOL0     H91933   3.113   2.255   5.655  0.3222  3.2581  2.6716
  681MOL0     H91934   2.555   2.654   5.455 -0.5406  0.9897 -0.7096
  681MOL0     H91935   2.433   2.670   5.665 -0.6003 -0.4566  0.1048
  682MOL0     O91936   4.411   8.486   1.765  0.5333  0.9004  0.4995
  682MOL0     C91937   4.419   8.422   1.869 -0.4218  0.3309  0.7225
  682MOL0     O91938   4.311   8.367   1.931  0.0258 -0.1808  0.1454
  682MOL0     C91939   4.176   8.411   1.911  0.5503  0.3455 -0.9184
  682MOL0     C91940   4.131   8.527   1.853  0.1824  0.0617 -0.1967
  682MOL0     C91941   3.999   8.563   1.841 -0.1747 -0.6878  0.4113
  682MOL0     C91942   3.904   8.464   1.866 -0.4130  0.4342  1.1869
  682MOL0     O91943   3.767   8.476   1.845 -0.5480  0.0402  0.0569
  682MOL0     C91944   3.718   8.588   1.774  0.2644  0.0516 -1.3130
  682MOL0     C91945   3.570   8.568   1.776  0.4592  0.3376  0.3351
  682MOL0     C91946   3.525   8.440   1.706  0.2916  0.5497 -0.2250
  682MOL0     C91947   3.379   8.414   1.723  0.9472  0.1727 -0.5638
  682MOL0     C91948   3.321   8.273   1.663  0.4592  0.1210 -0.0624
  682MOL0     C91949   3.163   8.262   1.674  0.7703 -0.4488 -0.3654
  682MOL0     C91950   3.126   8.123   1.624  0.0525  0.6467 -0.3183
  682MOL0     C91951   2.975   8.113   1.643  0.1929 -0.8770 -0.8281
  682MOL0     N91952   2.919   7.986   1.650  0.6503 -0.2016 -0.3157
  682MOL0     C91953   2.901   7.906   1.760 -0.2001  0.3922  0.4314
  682MOL0     C91954   2.867   7.787   1.709 -0.2705 -0.0924  0.3391
  682MOL0     C91955   2.832   7.654   1.791 -0.4111 -0.4958  0.3502
  682MOL0     C91956   2.760   7.548   1.710 -0.3595  0.7431 -0.4307
  682MOL0     C91957   2.720   7.428   1.798  0.1260 -0.0605 -0.2228
  682MOL0     C91958   2.633   7.440   1.922  0.1355  0.3980 -1.9571
  682MOL0     O91959   2.517   7.524   1.892 -0.3425  0.0460 -0.2478
  682MOL0     C91960   2.420   7.529   1.985 -0.1716 -1.0391 -0.1932
  682MOL0     C91961   2.297   7.590   1.966 -0.2351 -0.0866  1.0296
  682MOL0     C91962   2.180   7.564   2.042 -0.6223  0.4925  0.7516
  682MOL0     C91963   2.044   7.615   1.985 -0.1603  0.1921 -0.4390
  682MOL0     C91964   2.203   7.486   2.159  0.6661  0.4107 -0.4253
  682MOL0     C91965   2.099   7.465   2.268 -0.2204 -0.1979  0.1137
  682MOL0     O91966   2.148   7.429   2.392  0.1774  0.5129 -0.5552
  682MOL0     C91967   2.053   7.391   2.486 -0.5527 -0.5649 -0.9621
  682MOL0     C91968   2.014   7.261   2.518 -0.4179 -0.9525 -0.1194
  682MOL0     C91969   1.929   7.246   2.622 -0.6170 -0.5069 -0.4581
  682MOL0     C91970   1.885   7.361   2.698 -0.2495  0.4426 -0.5007
  682MOL0     O91971   1.795   7.326   2.802 -0.5858  0.3020 -0.0495
  682MOL0     C91972   1.755   7.421   2.907 -0.5027 -1.0338  0.3925
  682MOL0     C91973   1.756   7.373   3.049  0.5419 -0.2356 -0.6642
  682MOL0     C91974   1.874   7.278   3.071  0.0475  0.0296 -0.8515
  682MOL0     C91975   1.891   7.207   3.218  0.6285  0.4698  0.3532
  682MOL0     C91976   2.015   7.114   3.227  0.2681  0.5885 -0.4794
  682MOL0     C91977   2.143   7.191   3.217 -0.3828 -0.5974 -0.2288
  682MOL0     C91978   2.194   7.189   3.067 -0.2704  0.3572  0.5871
  682MOL0     C91979   2.295   7.301   3.043 -0.6495 -0.9067  0.3755
  682MOL0    Cl91980   2.370   7.300   2.886  0.1349  0.2035  0.0488
  682MOL0     C91981   1.925   7.485   2.664 -0.7638 -1.7762  0.4245
  682MOL0     C91982   2.012   7.504   2.558 -0.3715 -0.2391  0.2232
  682MOL0     O91983   1.983   7.479   2.239  0.4316  0.1935  0.1295
  682MOL0     C91984   2.329   7.441   2.192 -1.4184 -0.6959 -0.3755
  682MOL0     C91985   2.435   7.464   2.106 -0.3218  0.2410  0.3642
  682MOL0     N91986   2.854   7.799   1.569  0.8281  0.8203 -0.4004
  682MOL0     N91987   2.877   7.919   1.538  0.7802  0.8866 -0.1097
  682MOL0     C91988   3.946   8.348   1.932  0.2370  0.7018  0.0423
  682MOL0     C91989   4.079   8.324   1.951 -0.0747 -0.1973 -0.1243
  682MOL0     C91990   4.551   8.402   1.941 -0.4741  0.1614  0.3341
  682MOL0     C91991   4.555   8.341   2.064 -0.9078 -0.0212 -0.7137
  682MOL0     C91992   4.679   8.320   2.127  0.2723 -0.2805 -0.0943
  682MOL0     C91993   4.799   8.367   2.075 -0.4182  0.3018  0.2362
  682MOL0     O91994   4.920   8.356   2.131  0.1357 -0.4981 -0.8604
  682MOL0     C91995   5.015   8.265   2.073  0.0821  0.1348  0.0074
  682MOL0     C91996   5.130   8.347   2.006 -0.3336 -0.0924  1.3315
  682MOL0     C91997   5.265   8.281   2.003 -0.8324  0.1775 -0.2529
  682MOL0     C91998   5.260   8.141   1.943 -0.3379 -0.0780 -0.3486
  682MOL0     C91999   5.388   8.069   1.980  0.3750  0.5895 -0.2889
  682MOL0     C92000   5.491   8.009   1.996 -0.3827  1.2746  0.5088
  682MOL0     C92001   4.790   8.443   1.959  0.1912 -0.1721  1.2646
  682MOL0     C92002   4.666   8.458   1.891 -0.6894  0.3107  0.1884
  682MOL0     H92003   4.206   8.590   1.806  0.4374 -0.0846  0.0139
  682MOL0     H92004   3.966   8.663   1.817 -3.9713 -0.5601  4.7029
  682MOL0     H92005   3.739   8.680   1.829  1.5395 -2.4596  2.9160
  682MOL0     H92006   3.752   8.597   1.671  1.0200  1.6545 -0.9537
  682MOL0     H92007   3.530   8.581   1.877  1.8876 -0.3117  1.0103
  682MOL0     H92008   3.527   8.645   1.710 -1.3553 -0.2656  0.7488
  682MOL0     H92009   3.546   8.439   1.599 -2.6695  1.6406 -0.9086
  682MOL0     H92010   3.581   8.366   1.764 -1.4685  1.8608  3.4508
  682MOL0     H92011   3.362   8.402   1.830 -3.2404 -0.0181 -1.0867
  682MOL0     H92012   3.317   8.497   1.687 -1.9280  0.0669  3.4852
  682MOL0     H92013   3.345   8.261   1.557 -1.4349  2.6070 -0.8785
  682MOL0     H92014   3.374   8.194   1.716  0.7190  0.2896 -0.0660
  682MOL0     H92015   3.127   8.273   1.777  0.9774 -0.3364 -0.3044
  682MOL0     H92016   3.115   8.340   1.615 -0.4566  0.3767  1.5843
  682MOL0     H92017   3.141   8.113   1.516 -1.2484  1.7316 -0.6384
  682MOL0     H92018   3.185   8.045   1.672 -3.3769 -1.5431  0.6897
  682MOL0     H92019   2.923   8.165   1.562 -0.3340  0.4409  0.3278
  682MOL0     H92020   2.945   8.168   1.732  2.4572  2.4036 -1.9079
  682MOL0     H92021   2.912   7.937   1.863  0.6825  2.0008 -0.1176
  682MOL0     H92022   2.927   7.606   1.817  0.3595  1.2500  0.9665
  682MOL0     H92023   2.776   7.673   1.883  2.9265 -2.9010  3.1304
  682MOL0     H92024   2.827   7.523   1.627 -0.4287  0.0409 -0.2785
  682MOL0     H92025   2.670   7.586   1.660 -1.7456 -3.8683 -1.9429
  682MOL0     H92026   2.804   7.377   1.847 -0.5787  0.3321  1.4609
  682MOL0     H92027   2.669   7.353   1.736  2.6027 -2.0887  0.0251
  682MOL0     H92028   2.684   7.488   2.006 -1.6829  2.0385 -1.7280
  682MOL0     H92029   2.595   7.343   1.956  2.4001  0.4794  1.3667
  682MOL0     H92030   2.297   7.647   1.874  2.1511 -2.1211 -0.3719
  682MOL0     H92031   1.980   7.530   1.959 -2.8756  1.4185  1.7578
  682MOL0     H92032   1.987   7.669   2.061 -2.7239 -3.7219  0.6977
  682MOL0     H92033   2.064   7.679   1.898  1.7739  0.2278 -0.0170
  682MOL0     H92034   2.056   7.175   2.467  0.6349 -0.6401  0.2088
  682MOL0     H92035   1.903   7.147   2.657 -2.4247 -0.2036 -0.8235
  682MOL0     H92036   1.837   7.493   2.905  0.4884 -2.1460 -0.1577
  682MOL0     H92037   1.659   7.465   2.875 -1.4718 -1.1908  2.8435
  682MOL0     H92038   1.769   7.453   3.123  0.4141 -2.7028  2.1893
  682MOL0     H92039   1.667   7.314   3.071  0.9892 -0.9081 -0.6524
  682MOL0     H92040   1.964   7.337   3.053 -0.3441  0.3973 -1.6814
  682MOL0     H92041   1.874   7.196   2.999 -0.9344 -1.3977  0.7108
  682MOL0     H92042   1.897   7.285   3.295 -1.5185  0.6659  0.3989
  682MOL0     H92043   1.799   7.152   3.240 -0.1126  1.2182 -0.7381
  682MOL0     H92044   2.005   7.026   3.162  2.2844 -1.1008  1.3294
  682MOL0     H92045   2.009   7.070   3.327 -0.0594 -0.9808 -1.1595
  682MOL0     H92046   2.124   7.291   3.257  2.7024 -0.1609  0.3627
  682MOL0     H92047   2.221   7.151   3.282  0.5197  0.9644 -0.2940
  682MOL0     H92048   2.112   7.190   2.995 -0.0110 -0.0090  0.2880
  682MOL0     H92049   2.256   7.101   3.051  1.4973  1.7360 -0.5103
  682MOL0     H92050   2.370   7.296   3.123 -0.5455 -0.1366  0.3306
  682MOL0     H92051   2.247   7.399   3.047 -2.6482 -1.7256 -1.6631
  682MOL0     H92052   1.872   7.568   2.709 -1.0619  0.0310 -2.9083
  682MOL0     H92053   2.066   7.596   2.539 -0.6134 -0.0083  0.6352
  682MOL0     H92054   2.354   7.376   2.276  0.6863  0.1705 -0.2631
  682MOL0     H92055   2.519   7.403   2.140  2.1651  3.5305  0.5970
  682MOL0     H92056   3.875   8.273   1.967  2.1967 -0.3730  2.0291
  682MOL0     H92057   4.116   8.228   1.985  0.0246  0.3463  1.3812
  682MOL0     H92058   4.462   8.298   2.100  0.0184 -1.4234  0.0729
  682MOL0     H92059   4.680   8.275   2.226 -2.1790  2.8085  1.5328
  682MOL0     H92060   5.054   8.200   2.152 -1.6525  0.5952  1.2891
  682MOL0     H92061   4.968   8.206   1.994 -1.3066  2.1166 -0.6949
  682MOL0     H92062   5.154   8.438   2.062  3.6220 -0.1913  0.1337
  682MOL0     H92063   5.108   8.381   1.905  2.2643  1.8863  1.3250
  682MOL0     H92064   5.300   8.273   2.106  1.2627 -1.9769 -1.0243
  682MOL0     H92065   5.336   8.339   1.943 -0.9665  0.1096 -0.4814
  682MOL0     H92066   5.254   8.148   1.834  2.9281 -1.0471 -0.6978
  682MOL0     H92067   5.170   8.092   1.980 -3.0642  3.0567 -2.2208
  682MOL0     H92068   5.590   7.972   2.017 -0.3647  0.4338 -0.9763
  682MOL0     H92069   4.883   8.478   1.914  0.1514  1.7740  2.5881
  682MOL0     H92070   4.679   8.517   1.802  1.3482 -0.7918 -0.3211
  683MOL0     O92071   5.167   1.269   1.879  0.1147 -0.2942 -0.1608
  683MOL0     C92072   5.224   1.305   1.777  0.3477  0.2712  0.4356
  683MOL0     O92073   5.170   1.306   1.650 -0.4102 -1.2915  0.0970
  683MOL0     C92074   5.035   1.272   1.631  0.4379 -0.1150 -0.0098
  683MOL0     C92075   5.007   1.131   1.624  0.0681 -0.5351 -0.2376
  683MOL0     C92076   4.874   1.092   1.602 -0.2727  0.4247 -0.6858
  683MOL0     C92077   4.776   1.187   1.570 -0.1923 -0.5539  0.1409
  683MOL0     O92078   4.648   1.153   1.534 -0.7345  0.5814  0.3292
  683MOL0     C92079   4.575   1.066   1.614 -0.7441  0.1356 -0.6375
  683MOL0     C92080   4.429   1.099   1.589 -0.2837 -0.0259  0.0846
  683MOL0     C92081   4.394   1.244   1.632  0.2427 -0.0387  0.3160
  683MOL0     C92082   4.234   1.268   1.615 -0.5228  0.6199 -0.0939
  683MOL0     C92083   4.187   1.382   1.709  0.5319 -0.1139 -0.2609
  683MOL0     C92084   4.041   1.423   1.692  0.4026  0.3035  0.8924
  683MOL0     C92085   3.947   1.303   1.684  0.7071 -0.2861 -0.0435
  683MOL0     C92086   3.806   1.357   1.670  0.0604  0.3392 -0.4647
  683MOL0     N92087   3.760   1.392   1.538 -0.1928 -0.3307  0.5258
  683MOL0     C92088   3.786   1.311   1.424 -0.8066  0.0461 -0.1464
  683MOL0     C92089   3.763   1.384   1.313 -0.4734  0.0094  0.0674
  683MOL0     C92090   3.796   1.349   1.164  0.5172 -0.1935  0.3227
  683MOL0     C92091   3.900   1.440   1.098 -0.1599  0.2510 -0.2830
  683MOL0     C92092   3.955   1.410   0.954 -0.5329 -0.5295 -0.5786
  683MOL0     C92093   3.856   1.339   0.859 -0.5528 -0.6904  0.3968
  683MOL0     O92094   3.757   1.436   0.809 -0.4405  0.4460 -0.3868
  683MOL0     C92095   3.635   1.380   0.813 -0.0903 -0.5106  0.1648
  683MOL0     C92096   3.523   1.459   0.834 -0.8088 -1.3756 -0.3963
  683MOL0     C92097   3.390   1.421   0.804 -0.7703 -0.6183  0.6405
  683MOL0     C92098   3.290   1.529   0.831  0.0020  0.8256 -0.5598
  683MOL0     C92099   3.367   1.285   0.770  0.2793  0.7498 -0.2445
  683MOL0     C92100   3.226   1.230   0.754 -0.4923  0.2085  0.1299
  683MOL0     O92101   3.219   1.107   0.702 -0.0744 -0.0593  0.6462
  683MOL0     C92102   3.108   1.031   0.679  0.3921 -0.3879  0.2829
  683MOL0     C92103   2.975   1.070   0.692 -0.5888  0.2966 -0.1827
  683MOL0     C92104   2.873   0.982   0.657  0.8554 -0.1660  0.4093
  683MOL0     C92105   2.900   0.846   0.629 -0.3656  0.3046  0.3782
  683MOL0     O92106   2.787   0.777   0.596 -0.0763 -0.6012 -0.3619
  683MOL0     C92107   2.809   0.638   0.615 -0.7807 -0.1363 -0.5043
  683MOL0     C92108   2.668   0.579   0.613  0.7410  0.6192  0.5929
  683MOL0     C92109   2.601   0.586   0.475  0.2157 -0.3817  0.2502
  683MOL0     C92110   2.642   0.463   0.386 -0.3726 -0.1681 -0.1038
  683MOL0     C92111   2.570   0.460   0.250 -0.5103  0.0859 -0.7853
  683MOL0     C92112   2.648   0.371   0.153  0.6053  0.2775  0.1498
  683MOL0     C92113   2.599   0.392   0.014 -0.3097 -0.2458  0.8399
  683MOL0     C92114   2.702   0.462  -0.077  0.1946  0.4682 -0.2005
  683MOL0    Cl92115   2.635   0.467  -0.247 -0.1706  0.2608 -0.2279
  683MOL0     C92116   3.034   0.815   0.605  0.1864  0.1007  0.5581
  683MOL0     C92117   3.134   0.902   0.636 -0.0837 -0.5089 -0.8715
  683MOL0     O92118   3.124   1.298   0.779 -0.7039 -0.3520  0.7432
  683MOL0     C92119   3.476   1.198   0.746 -0.1865 -1.2625 -0.3887
  683MOL0     C92120   3.604   1.247   0.773 -0.5242 -0.2818 -0.5925
  683MOL0     N92121   3.717   1.508   1.361 -0.1480  0.5682 -0.3049
  683MOL0     N92122   3.734   1.513   1.490 -0.1900  0.1998 -0.0839
  683MOL0     C92123   4.801   1.328   1.578  0.3257  1.0306  0.2997
  683MOL0     C92124   4.937   1.365   1.605 -0.5928  0.2307  0.1914
  683MOL0     C92125   5.373   1.333   1.793 -0.4938 -0.0099 -0.6783
  683MOL0     C92126   5.439   1.335   1.920  0.2006 -0.0652 -0.5652
  683MOL0     C92127   5.570   1.376   1.934 -0.2411  0.4652  0.1044
  683MOL0     C92128   5.641   1.389   1.821 -0.5161  0.0321  0.5241
  683MOL0     O92129   5.774   1.427   1.845  0.8367 -0.3563  0.0535
  683MOL0     C92130   5.872   1.397   1.737  0.5359 -0.4269  0.7636
  683MOL0     C92131   6.022   1.378   1.781  0.7618  0.5544 -0.6010
  683MOL0     C92132   6.069   1.492   1.877 -0.2465  0.1201  1.1261
  683MOL0     C92133   6.215   1.469   1.920 -0.8459  0.5105 -0.1898
  683MOL0     C92134   6.226   1.451   2.063  0.0428  0.2587 -0.2049
  683MOL0     C92135   6.248   1.438   2.187  1.0675  0.5691 -0.6363
  683MOL0     C92136   5.590   1.378   1.694 -0.4251 -1.3110 -0.0228
  683MOL0     C92137   5.449   1.355   1.681  0.1777  0.0159  0.9711
  683MOL0     H92138   5.089   1.062   1.639 -1.4625 -2.1560  1.1533
  683MOL0     H92139   4.844   0.988   1.605 -4.0281  1.3607 -0.6746
  683MOL0     H92140   4.600   0.962   1.591  0.6794  0.7696 -2.2155
  683MOL0     H92141   4.596   1.083   1.720  2.2595 -0.2087 -1.0768
  683MOL0     H92142   4.414   1.091   1.481  1.1651  1.7114 -0.2843
  683MOL0     H92143   4.368   1.037   1.655  1.9805  0.0692  2.4124
  683MOL0     H92144   4.425   1.270   1.733 -2.3166  0.9917  0.9237
  683MOL0     H92145   4.429   1.319   1.561 -0.4410  0.5536  0.5840
  683MOL0     H92146   4.208   1.288   1.510  0.8075 -1.9827 -1.0014
  683MOL0     H92147   4.183   1.175   1.640 -0.1535  0.1049 -1.1866
  683MOL0     H92148   4.197   1.333   1.806  0.7936 -0.4893 -0.4745
  683MOL0     H92149   4.258   1.465   1.700  1.1387 -0.1878  2.6903
  683MOL0     H92150   4.012   1.487   1.776 -3.2172  0.4392 -0.2883
  683MOL0     H92151   4.027   1.481   1.601  1.5313 -2.6055 -1.2965
  683MOL0     H92152   3.962   1.244   1.594 -2.7726 -0.0022 -0.9586
  683MOL0     H92153   3.951   1.236   1.770 -0.8645  0.2439  0.4844
  683MOL0     H92154   3.781   1.436   1.741  1.1763 -0.5623  1.0018
  683MOL0     H92155   3.752   1.268   1.704 -2.2122  1.1077 -1.8439
  683MOL0     H92156   3.828   1.211   1.419 -0.8002  0.0807 -0.7602
  683MOL0     H92157   3.815   1.242   1.153 -4.2915 -1.5121  2.2241
  683MOL0     H92158   3.700   1.363   1.115  0.7236 -2.1973 -0.7446
  683MOL0     H92159   3.981   1.463   1.168  0.9799 -2.8371 -0.4475
  683MOL0     H92160   3.854   1.538   1.079  1.6564  1.9180  2.9249
  683MOL0     H92161   4.049   1.355   0.961 -0.1364  0.0957 -0.8822
  683MOL0     H92162   3.978   1.504   0.903  0.8790 -1.1714 -1.1619
  683MOL0     H92163   3.809   1.258   0.915 -0.1314  0.4975  2.6009
  683MOL0     H92164   3.918   1.295   0.780 -1.0084 -1.1066  0.2604
  683MOL0     H92165   3.558   1.559   0.858  1.1778 -2.2206  0.4341
  683MOL0     H92166   3.232   1.499   0.919 -2.7893  1.2531 -2.1640
  683MOL0     H92167   3.341   1.624   0.850 -0.0525  0.8453 -0.5116
  683MOL0     H92168   3.227   1.551   0.745  2.4432  2.2878 -2.0769
  683MOL0     H92169   2.943   1.168   0.726 -1.1025 -0.1961  0.7886
  683MOL0     H92170   2.770   1.014   0.672 -0.0619 -2.1070 -1.2070
  683MOL0     H92171   2.865   0.591   0.534  2.4634 -0.6780  1.8389
  683MOL0     H92172   2.866   0.610   0.704  2.4480 -1.1580 -2.7432
  683MOL0     H92173   2.672   0.474   0.646 -0.7395  0.9443  1.8930
  683MOL0     H92174   2.593   0.615   0.684 -2.0285  1.2638 -2.4549
  683MOL0     H92175   2.623   0.681   0.426 -0.6513  0.4795  1.4487
  683MOL0     H92176   2.493   0.575   0.487  0.3470 -3.0218 -0.2562
  683MOL0     H92177   2.748   0.472   0.359  0.2232  1.6600  2.4621
  683MOL0     H92178   2.615   0.372   0.439 -3.8864  0.6622 -0.2321
  683MOL0     H92179   2.576   0.562   0.212  0.4852 -0.0849 -1.1226
  683MOL0     H92180   2.468   0.421   0.260  0.3644 -1.8770  1.4528
  683MOL0     H92181   2.753   0.399   0.155  0.5623  0.4125  0.8645
  683MOL0     H92182   2.650   0.268   0.190  1.1458 -0.0348 -0.7331
  683MOL0     H92183   2.510   0.455   0.007 -0.8027 -0.9930  0.2295
  683MOL0     H92184   2.571   0.299  -0.036  0.4472 -0.4145  0.7235
  683MOL0     H92185   2.791   0.399  -0.077 -0.2336 -0.1578 -1.2907
  683MOL0     H92186   2.722   0.562  -0.036  1.0505  0.8882 -1.5847
  683MOL0     H92187   3.056   0.716   0.566 -0.4503  0.1064  0.1687
  683MOL0     H92188   3.233   0.868   0.610  0.6336  0.0603  0.9490
  683MOL0     H92189   3.466   1.093   0.724  2.9762 -1.8429  0.4618
  683MOL0     H92190   3.687   1.180   0.750 -0.5478 -0.3148 -0.5820
  683MOL0     H92191   4.726   1.403   1.559 -0.4357 -0.0484 -1.1076
  683MOL0     H92192   4.964   1.470   1.615  0.7625 -0.2404  1.9377
  683MOL0     H92193   5.376   1.320   2.007 -0.3311 -0.1724 -0.9597
  683MOL0     H92194   5.623   1.391   2.028 -2.8263  0.6050  1.6215
  683MOL0     H92195   5.848   1.299   1.694 -2.5270  0.2092  0.8382
  683MOL0     H92196   5.868   1.469   1.655 -1.2030 -0.0785  1.1144
  683MOL0     H92197   6.073   1.368   1.685  0.3698 -1.2653 -0.6671
  683MOL0     H92198   6.037   1.280   1.829  0.9494  1.3981  1.1380
  683MOL0     H92199   5.996   1.492   1.958 -1.8654  0.7889 -0.2537
  683MOL0     H92200   6.046   1.586   1.825 -3.4732 -0.7723  0.7443
  683MOL0     H92201   6.283   1.551   1.893  0.0635  0.4125  1.6353
  683MOL0     H92202   6.260   1.382   1.873  3.2563  1.9013  0.7413
  683MOL0     H92203   6.260   1.417   2.292  1.4368  0.5289 -0.6885
  683MOL0     H92204   5.653   1.403   1.609 -1.5842 -0.6229 -0.7121
  683MOL0     H92205   5.399   1.358   1.584  1.9693 -3.5597 -0.2027
  684MOL0     O92206   7.132   3.292  10.888 -0.7144 -0.2735  0.2211
  684MOL0     C92207   7.140   3.233  10.997  1.1040  0.1063  1.0904
  684MOL0     O92208   7.241   3.249  11.084 -0.1744  0.0158  0.1023
  684MOL0     C92209   7.357   3.305  11.038  0.1059 -0.4620 -1.0184
  684MOL0     C92210   7.431   3.253  10.931 -0.1562 -0.3129  0.5481
  684MOL0     C92211   7.542   3.317  10.878  0.6341  0.8945  0.4463
  684MOL0     C92212   7.608   3.417  10.947 -0.2722 -0.2342  0.3239
  684MOL0     O92213   7.740   3.467  10.931  0.0359  0.0918  0.2015
  684MOL0     C92214   7.822   3.406  10.836  0.1031 -0.2618  0.4994
  684MOL0     C92215   7.958   3.473  10.827 -0.3249 -0.3378 -1.1188
  684MOL0     C92216   8.044   3.419  10.714 -0.2128 -0.3786  0.4472
  684MOL0     C92217   8.003   3.478  10.586  0.5996  0.2885  0.1696
  684MOL0     C92218   8.095   3.416  10.471 -0.2063 -0.3601  0.3731
  684MOL0     C92219   8.032   3.292  10.409  0.0198  0.1877 -0.1593
  684MOL0     C92220   7.947   3.309  10.285 -0.3177 -0.4124 -0.6079
  684MOL0     C92221   7.808   3.363  10.312  0.0228 -0.3957 -0.1630
  684MOL0     N92222   7.727   3.380  10.191  0.4795 -0.3775 -0.2021
  684MOL0     C92223   7.588   3.376  10.186 -0.0505 -0.3981 -0.5994
  684MOL0     C92224   7.563   3.388  10.044 -0.1158  0.3228  1.0728
  684MOL0     C92225   7.431   3.363   9.973  0.4621  0.5393 -0.1015
  684MOL0     C92226   7.320   3.374  10.069  0.5682 -0.4197  0.5344
  684MOL0     C92227   7.191   3.389   9.989  1.0754  0.3299 -0.4213
  684MOL0     C92228   7.070   3.394  10.091 -0.2365 -0.1610  0.9266
  684MOL0     O92229   7.045   3.262  10.142  1.3476  0.0514  0.0302
  684MOL0     C92230   6.921   3.192  10.119  0.7308 -0.3382  0.0119
  684MOL0     C92231   6.909   3.058  10.133  0.2307 -0.3930  0.4175
  684MOL0     C92232   6.802   2.978  10.095  0.6988 -0.4472 -0.2795
  684MOL0     C92233   6.825   2.832  10.092  0.1919  0.8750  0.2113
  684MOL0     C92234   6.683   3.039  10.053 -1.2309 -0.1639 -1.0418
  684MOL0     C92235   6.558   2.970  10.003 -0.1587  0.5515  0.1809
  684MOL0     O92236   6.454   3.043   9.956  0.5546 -0.8354  0.0187
  684MOL0     C92237   6.336   2.985   9.905 -1.2545 -0.0324 -0.5296
  684MOL0     C92238   6.253   3.074   9.844 -0.1454 -0.2277  0.1665
  684MOL0     C92239   6.134   3.042   9.797 -0.5134 -0.5708  0.5369
  684MOL0     C92240   6.100   2.908   9.792 -0.8039 -0.7301  0.9212
  684MOL0     O92241   5.999   2.890   9.708 -0.5978  0.8002  0.0257
  684MOL0     C92242   5.973   2.760   9.661  0.0184  0.0109 -1.0387
  684MOL0     C92243   5.839   2.771   9.579 -0.1531 -0.6668  0.4119
  684MOL0     C92244   5.850   2.854   9.449  0.0336  0.3666  0.2793
  684MOL0     C92245   5.722   2.883   9.369 -0.3103  0.2397  1.3259
  684MOL0     C92246   5.623   2.984   9.417 -0.4735  0.1794 -1.1350
  684MOL0     C92247   5.493   3.005   9.335  0.0853 -0.3662  0.6761
  684MOL0     C92248   5.408   3.120   9.394  0.5355 -0.4745 -0.6364
  684MOL0     C92249   5.279   3.131   9.308 -0.1208 -0.2063 -0.5288
  684MOL0    Cl92250   5.327   3.196   9.148 -0.1771  0.2856 -0.1052
  684MOL0     C92251   6.177   2.813   9.862 -0.1389  0.6468  0.1758
  684MOL0     C92252   6.289   2.852   9.921  0.4818  0.1964  1.4231
  684MOL0     O92253   6.565   2.849  10.000  0.2685  0.6677 -0.7661
  684MOL0     C92254   6.686   3.182  10.059  1.1650  0.4523  0.4324
  684MOL0     C92255   6.801   3.258  10.088  0.0317 -0.1112  0.6339
  684MOL0     N92256   7.686   3.413   9.985  0.0753  0.1984 -0.3357
  684MOL0     N92257   7.780   3.412  10.071  0.4160  0.7573 -0.0864
  684MOL0     C92258   7.541   3.470  11.058  1.0759  1.4901 -0.2416
  684MOL0     C92259   7.419   3.416  11.104  0.0877  0.8937  0.2700
  684MOL0     C92260   7.030   3.130  11.017 -0.6202 -0.2289  0.3139
  684MOL0     C92261   7.050   3.043  11.127  0.0569 -0.5421  0.7507
  684MOL0     C92262   6.965   2.932  11.136  0.4482 -0.1503 -0.1596
  684MOL0     C92263   6.850   2.918  11.049  0.2259 -0.4274 -1.2958
  684MOL0     O92264   6.745   2.828  11.062 -0.0826  0.6725 -0.4154
  684MOL0     C92265   6.787   2.719  11.147  0.7211  0.1098  0.5684
  684MOL0     C92266   6.774   2.737  11.307 -1.0445  0.1043 -0.4039
  684MOL0     C92267   6.628   2.768  11.349  0.9794 -0.5834 -0.3210
  684MOL0     C92268   6.516   2.654  11.332  0.3347 -0.3522 -0.1927
  684MOL0     C92269   6.426   2.682  11.446 -0.4141  0.4944 -0.9359
  684MOL0     C92270   6.356   2.722  11.540 -0.2814  0.0434 -0.4301
  684MOL0     C92271   6.845   3.003  10.946  0.6991 -0.0192 -0.9212
  684MOL0     C92272   6.930   3.102  10.925 -0.0205  1.0277 -0.3380
  684MOL0     H92273   7.400   3.160  10.886 -3.3752  0.7054  0.3863
  684MOL0     H92274   7.581   3.289  10.780  1.0060  0.6306  0.6637
  684MOL0     H92275   7.827   3.299  10.858  1.6421 -0.3348 -0.1304
  684MOL0     H92276   7.780   3.416  10.735 -1.2523 -1.2397  0.9306
  684MOL0     H92277   7.946   3.581  10.815  0.2963  0.3456  2.8564
  684MOL0     H92278   8.013   3.466  10.922 -0.3606 -0.8915 -1.1355
  684MOL0     H92279   8.146   3.441  10.744 -0.4711 -1.2471  2.0592
  684MOL0     H92280   8.033   3.310  10.722 -2.4151 -0.2527 -0.0302
  684MOL0     H92281   7.896   3.474  10.568 -0.1556  5.3924  1.9115
  684MOL0     H92282   8.034   3.582  10.598 -0.2852  0.4177  1.4426
  684MOL0     H92283   8.102   3.487  10.388 -0.8675  0.6104  1.1267
  684MOL0     H92284   8.193   3.395  10.514 -1.0895 -3.5399  1.0737
  684MOL0     H92285   8.114   3.224  10.386  0.6591  1.3781 -1.4591
  684MOL0     H92286   7.982   3.245  10.495 -0.6646 -0.8246 -1.0730
  684MOL0     H92287   7.982   3.396  10.229 -2.5440  1.4719  0.7323
  684MOL0     H92288   7.938   3.218  10.225  0.1092 -1.5090  0.9089
  684MOL0     H92289   7.808   3.457  10.368 -0.8265  0.9198 -2.2851
  684MOL0     H92290   7.761   3.287  10.375  1.0713 -1.9475 -1.1754
  684MOL0     H92291   7.516   3.363  10.266  0.6422  1.6888  0.4307
  684MOL0     H92292   7.423   3.443   9.899 -1.4228  2.0724  1.6422
  684MOL0     H92293   7.422   3.263   9.928 -1.1662  0.3333  0.6225
  684MOL0     H92294   7.325   3.459  10.137 -0.9474  1.2671 -1.3206
  684MOL0     H92295   7.319   3.282  10.129  1.6608 -0.0657  1.1208
  684MOL0     H92296   7.180   3.301   9.925 -1.3513  0.6803 -0.5903
  684MOL0     H92297   7.190   3.480   9.929  0.5926 -0.4487 -1.6356
  684MOL0     H92298   6.985   3.425  10.031  1.0558 -1.1514 -1.5515
  684MOL0     H92299   7.083   3.472  10.167 -2.2272  2.9758 -1.7155
  684MOL0     H92300   7.005   3.009  10.146  0.4987 -0.1124 -0.4570
  684MOL0     H92301   6.926   2.798  10.114 -0.3087  0.5323  2.1158
  684MOL0     H92302   6.755   2.780  10.158  1.7008 -1.7808 -0.1659
  684MOL0     H92303   6.803   2.796   9.991  0.7504  2.4093 -0.5021
  684MOL0     H92304   6.295   3.173   9.828 -1.8904  0.4171 -0.6031
  684MOL0     H92305   6.066   3.113   9.750 -0.9287 -2.3619 -1.7223
  684MOL0     H92306   6.049   2.719   9.593  0.1025 -1.0913 -0.3028
  684MOL0     H92307   5.953   2.699   9.749  0.5268  1.0828 -0.1540
  684MOL0     H92308   5.798   2.672   9.559 -0.6110 -0.4242  0.1530
  684MOL0     H92309   5.774   2.832   9.643  2.1205 -1.3893  3.7146
  684MOL0     H92310   5.918   2.796   9.386 -0.9204 -0.3394 -0.1306
  684MOL0     H92311   5.902   2.948   9.469 -0.1122  0.0604  2.2970
  684MOL0     H92312   5.749   2.913   9.267  1.0064 -1.4202  1.1523
  684MOL0     H92313   5.678   2.783   9.357 -0.9541  0.3798  2.3653
  684MOL0     H92314   5.687   3.073   9.421  1.0275 -0.8445 -1.1558
  684MOL0     H92315   5.605   2.955   9.521  1.6619 -0.1889 -0.8104
  684MOL0     H92316   5.523   3.024   9.232 -3.4824 -1.7652 -0.7665
  684MOL0     H92317   5.435   2.912   9.342 -3.0970  1.3977 -0.0494
  684MOL0     H92318   5.449   3.221   9.397 -5.9791  2.6735 -1.1385
  684MOL0     H92319   5.376   3.092   9.495  0.0384  1.9910 -0.0659
  684MOL0     H92320   5.199   3.193   9.350 -1.3908 -1.2727 -1.2946
  684MOL0     H92321   5.234   3.033   9.288 -1.9979  0.7162 -1.1093
  684MOL0     H92322   6.161   2.706   9.862  1.4324  0.1877  4.6292
  684MOL0     H92323   6.341   2.788   9.992  0.5226 -1.0332  0.3347
  684MOL0     H92324   6.593   3.235  10.045  0.0817 -1.7799 -1.4897
  684MOL0     H92325   6.796   3.367  10.095  2.1118  0.0057  0.9569
  684MOL0     H92326   7.586   3.548  11.119  2.9890 -0.7077  1.3484
  684MOL0     H92327   7.374   3.458  11.193  0.8353  0.9463  0.6326
  684MOL0     H92328   7.133   3.069  11.192  0.9253  2.0625 -1.2385
  684MOL0     H92329   6.988   2.860  11.213  0.9825 -0.1466 -0.3161
  684MOL0     H92330   6.724   2.634  11.118 -0.4944  0.9669  0.5987
  684MOL0     H92331   6.881   2.674  11.115 -1.2516 -1.8983 -3.0958
  684MOL0     H92332   6.841   2.816  11.340  1.4117 -0.8239 -2.7581
  684MOL0     H92333   6.816   2.650  11.358  0.7070 -0.2450 -2.3089
  684MOL0     H92334   6.585   2.859  11.307  0.3786 -1.7123 -2.2624
  684MOL0     H92335   6.639   2.802  11.452 -1.0433 -0.9190  0.0351
  684MOL0     H92336   6.562   2.554  11.340  0.4434 -0.2134  1.0518
  684MOL0     H92337   6.456   2.652  11.241  1.3466 -1.3917 -0.8776
  684MOL0     H92338   6.309   2.763  11.627  0.2867 -2.4555  1.1281
  684MOL0     H92339   6.761   2.998  10.878  0.5668  0.5888 -0.8006
  684MOL0     H92340   6.919   3.155  10.831  1.7877  3.3229  0.6371
  685MOL0     O92341   8.588   2.094   2.719  0.4753 -0.3849 -0.3370
  685MOL0     C92342   8.646   2.018   2.637  0.6784 -0.4637 -0.1265
  685MOL0     O92343   8.628   2.014   2.499  0.0286 -0.2243 -0.0650
  685MOL0     C92344   8.546   2.089   2.422  0.6152 -0.6250  0.0876
  685MOL0     C92345   8.580   2.106   2.292  0.6994 -0.1855 -0.6329
  685MOL0     C92346   8.493   2.176   2.208  0.7668 -0.4518 -0.3760
  685MOL0     C92347   8.371   2.230   2.251 -0.0736 -0.7380  1.0320
  685MOL0     O92348   8.266   2.281   2.174  0.1278 -0.4886 -0.0664
  685MOL0     C92349   8.238   2.216   2.049 -0.3330  0.0303  0.2454
  685MOL0     C92350   8.089   2.197   2.020 -0.3388  0.1712  0.0350
  685MOL0     C92351   8.032   2.333   1.979 -0.2258 -1.1402  0.1011
  685MOL0     C92352   7.877   2.323   1.958 -0.3744 -0.0499 -0.2254
  685MOL0     C92353   7.825   2.468   1.947  0.0171 -0.1895 -0.5926
  685MOL0     C92354   7.681   2.467   1.937  0.8703  1.0314 -0.6638
  685MOL0     C92355   7.627   2.606   1.941 -0.9255  0.1395  1.0745
  685MOL0     C92356   7.475   2.607   1.900  0.2311  0.0931  0.0880
  685MOL0     N92357   7.425   2.746   1.912  0.1230  0.0590 -0.3827
  685MOL0     C92358   7.408   2.820   2.029 -0.1846 -0.7190  0.3845
  685MOL0     C92359   7.348   2.934   1.981 -0.2347  0.7550  0.8185
  685MOL0     C92360   7.307   3.046   2.069 -0.1204 -0.0003 -0.2901
  685MOL0     C92361   7.152   3.059   2.096 -0.3326 -0.0341  0.0564
  685MOL0     C92362   7.080   3.138   1.985 -0.5869 -0.6941 -0.6912
  685MOL0     C92363   6.923   3.130   2.014  0.5497  0.2146 -0.2912
  685MOL0     O92364   6.842   3.231   1.943  0.4287  0.3920  0.3320
  685MOL0     C92365   6.830   3.221   1.808 -0.3246  0.9196  0.4752
  685MOL0     C92366   6.861   3.111   1.723 -0.3070  0.4832  0.4166
  685MOL0     C92367   6.824   3.111   1.588 -0.1812  0.2507  0.4244
  685MOL0     C92368   6.835   2.979   1.520  0.1991 -0.9129  0.0544
  685MOL0     C92369   6.766   3.230   1.522 -0.0147 -0.1127  0.8000
  685MOL0     C92370   6.731   3.236   1.373 -0.5492  0.3833  0.1419
  685MOL0     O92371   6.788   3.139   1.287  0.0077  0.2232  0.4830
  685MOL0     C92372   6.794   3.171   1.148 -0.1299 -0.0293 -0.1186
  685MOL0     C92373   6.780   3.306   1.094  0.7488 -0.0529  0.5084
  685MOL0     C92374   6.781   3.324   0.958 -0.7554  0.3372 -0.1970
  685MOL0     C92375   6.815   3.213   0.878  0.5809 -0.0904  0.0341
  685MOL0     O92376   6.802   3.237   0.734 -0.6648 -0.0985 -0.7272
  685MOL0     C92377   6.872   3.150   0.649  0.3499  0.3991 -0.2497
  685MOL0     C92378   6.858   3.198   0.509 -0.8530 -0.0089  0.5323
  685MOL0     C92379   6.710   3.218   0.466 -0.5096  0.7365 -0.4657
  685MOL0     C92380   6.687   3.281   0.334 -0.7745  0.7651 -0.2029
  685MOL0     C92381   6.720   3.197   0.209 -0.0749  0.6533  0.6634
  685MOL0     C92382   6.704   3.278   0.085 -0.3133  0.0040 -0.8138
  685MOL0     C92383   6.691   3.191  -0.046  0.2657  0.6733 -0.3259
  685MOL0     C92384   6.693   3.290  -0.161  0.1851  1.0887  0.2203
  685MOL0    Cl92385   6.548   3.392  -0.157 -0.3041 -0.2497 -0.3723
  685MOL0     C92386   6.854   3.095   0.933  0.8912 -0.0457  0.1349
  685MOL0     C92387   6.834   3.067   1.061  0.1963 -0.6130  0.0937
  685MOL0     O92388   6.634   3.304   1.348 -0.5201 -0.7703 -0.1626
  685MOL0     C92389   6.730   3.333   1.611 -0.4939 -0.1095 -0.6911
  685MOL0     C92390   6.758   3.321   1.750 -0.0015  0.2568 -0.5515
  685MOL0     N92391   7.327   2.921   1.845 -0.3267 -0.1313 -0.0246
  685MOL0     N92392   7.365   2.800   1.808 -0.2502 -0.3760  0.0849
  685MOL0     C92393   8.337   2.197   2.379 -0.6034 -0.8532 -1.4289
  685MOL0     C92394   8.419   2.132   2.464 -0.8386 -0.1533  0.1476
  685MOL0     C92395   8.738   1.910   2.706  0.5821  0.6626 -0.5304
  685MOL0     C92396   8.749   1.904   2.846 -0.7454 -0.3983 -0.2520
  685MOL0     C92397   8.843   1.820   2.910 -0.3612 -1.4112  0.9165
  685MOL0     C92398   8.932   1.746   2.832  0.7383 -0.3174  0.2349
  685MOL0     O92399   9.021   1.668   2.898  0.1095  0.6055 -0.0979
  685MOL0     C92400   9.101   1.568   2.829  0.4703 -0.3161 -0.0503
  685MOL0     C92401   9.225   1.638   2.768  0.4206 -0.3291  0.3618
  685MOL0     C92402   9.320   1.698   2.870 -0.1554 -0.2489 -0.3538
  685MOL0     C92403   9.309   1.851   2.875 -1.0010 -0.0866 -0.5793
  685MOL0     C92404   9.412   1.897   2.969  0.1081  0.3914  0.3448
  685MOL0     C92405   9.488   1.929   3.048 -0.1522  0.2332  0.4283
  685MOL0     C92406   8.920   1.747   2.688 -0.0240 -0.3037 -0.0758
  685MOL0     C92407   8.823   1.830   2.634 -0.8975 -0.0154  0.2578
  685MOL0     H92408   8.672   2.064   2.252 -0.0161  0.0948 -2.7183
  685MOL0     H92409   8.511   2.192   2.102 -1.2657 -2.8652 -1.1842
  685MOL0     H92410   8.271   2.277   1.964 -2.1959  1.0069  0.1610
  685MOL0     H92411   8.283   2.117   2.038  1.4242  0.7692  0.3960
  685MOL0     H92412   8.083   2.125   1.938 -0.8326  1.1048 -0.7701
  685MOL0     H92413   8.037   2.142   2.099  0.7985 -2.2687 -0.7970
  685MOL0     H92414   8.043   2.399   2.066 -2.1624 -2.0595  1.0940
  685MOL0     H92415   8.081   2.365   1.886  1.7504 -3.9280  0.0597
  685MOL0     H92416   7.857   2.257   1.873 -0.1498  0.3624 -0.6031
  685MOL0     H92417   7.835   2.285   2.052  0.6127 -1.4965 -0.3231
  685MOL0     H92418   7.855   2.535   2.029  1.1736  1.5212 -2.3060
  685MOL0     H92419   7.871   2.519   1.861  1.6364 -1.2638 -0.4191
  685MOL0     H92420   7.643   2.403   1.858 -1.3259 -1.8737  2.4498
  685MOL0     H92421   7.645   2.428   2.033  1.4396 -0.7655 -1.1409
  685MOL0     H92422   7.645   2.659   2.035  0.8108 -0.5171  1.1478
  685MOL0     H92423   7.677   2.661   1.860 -0.1943 -1.3126  0.5137
  685MOL0     H92424   7.421   2.537   1.964  0.0826 -2.0867 -2.2222
  685MOL0     H92425   7.473   2.577   1.794  0.2303  2.2706 -0.5853
  685MOL0     H92426   7.413   2.789   2.133  0.4921 -4.1861 -0.5525
  685MOL0     H92427   7.351   3.021   2.166  0.9018 -1.7662 -1.1689
  685MOL0     H92428   7.345   3.144   2.039  0.6007  0.5672  2.2399
  685MOL0     H92429   7.134   3.114   2.188 -2.6425 -0.3398 -0.1492
  685MOL0     H92430   7.112   2.957   2.103  1.2698 -0.6436  0.9454
  685MOL0     H92431   7.098   3.091   1.887  1.7987 -3.0781  0.7409
  685MOL0     H92432   7.113   3.241   1.976 -2.7934  0.0950 -0.4383
  685MOL0     H92433   6.897   3.145   2.119  1.3041  0.8896 -0.1951
  685MOL0     H92434   6.895   3.027   1.990  1.1429  0.0285 -0.1914
  685MOL0     H92435   6.907   3.021   1.762  0.5931  0.7539  0.0063
  685MOL0     H92436   6.736   2.945   1.486  0.4219 -0.3843 -1.1753
  685MOL0     H92437   6.899   2.980   1.432 -2.0435  0.4337 -1.6919
  685MOL0     H92438   6.873   2.896   1.580  1.0488 -1.4888 -1.2372
  685MOL0     H92439   6.761   3.383   1.169 -0.1924 -0.4686  0.7079
  685MOL0     H92440   6.755   3.413   0.903  0.1518  0.3948 -0.5536
  685MOL0     H92441   6.974   3.127   0.681  0.1635  1.2273  1.0437
  685MOL0     H92442   6.825   3.052   0.661 -0.7915  1.1119  1.6769
  685MOL0     H92443   6.922   3.281   0.481 -1.6239 -0.4826 -3.0418
  685MOL0     H92444   6.894   3.111   0.453 -1.2664 -1.1793  2.0071
  685MOL0     H92445   6.661   3.278   0.543 -1.9903  0.8592 -1.4712
  685MOL0     H92446   6.656   3.124   0.478 -0.7045  0.7162 -1.4056
  685MOL0     H92447   6.583   3.314   0.323 -1.1551  0.2722  1.6136
  685MOL0     H92448   6.743   3.375   0.336  1.0404 -0.2566 -0.6506
  685MOL0     H92449   6.652   3.111   0.203  1.1185 -0.2761  0.1480
  685MOL0     H92450   6.824   3.165   0.216 -0.1915  0.2194  0.4498
  685MOL0     H92451   6.620   3.347   0.096  0.9474  1.2380  1.8551
  685MOL0     H92452   6.788   3.346   0.070 -0.6021 -0.2135 -4.4700
  685MOL0     H92453   6.597   3.136  -0.043 -0.7992  2.4349  0.2448
  685MOL0     H92454   6.772   3.118  -0.058  1.3674  2.1275 -2.2148
  685MOL0     H92455   6.681   3.227  -0.249  2.2031 -1.2988  1.5292
  685MOL0     H92456   6.785   3.348  -0.159  3.5690 -3.6639 -0.2700
  685MOL0     H92457   6.886   3.014   0.868  2.0237  0.7433 -0.3352
  685MOL0     H92458   6.848   2.968   1.105 -1.9921 -0.3926  1.4520
  685MOL0     H92459   6.696   3.430   1.577 -1.6969 -0.0258  0.6273
  685MOL0     H92460   6.731   3.402   1.817 -1.3740  0.2940 -1.1164
  685MOL0     H92461   8.239   2.228   2.415 -0.8662 -2.9246 -0.2322
  685MOL0     H92462   8.384   2.114   2.565 -0.9695  0.3689  0.1995
  685MOL0     H92463   8.682   1.968   2.902  0.1136 -0.5192  0.9408
  685MOL0     H92464   8.848   1.819   3.019  1.3511  1.7239  0.9754
  685MOL0     H92465   9.134   1.491   2.899  1.5069  0.2485  0.1117
  685MOL0     H92466   9.043   1.518   2.751  1.7377 -0.5114 -0.8942
  685MOL0     H92467   9.198   1.720   2.702  1.5790 -0.2304 -0.0234
  685MOL0     H92468   9.280   1.560   2.713 -1.0310 -1.9705  1.1372
  685MOL0     H92469   9.426   1.692   2.846 -0.0648  3.4392 -1.5088
  685MOL0     H92470   9.305   1.647   2.965  0.3794 -0.0990 -0.1828
  685MOL0     H92471   9.213   1.894   2.906 -0.8391  0.4011 -0.7352
  685MOL0     H92472   9.331   1.889   2.775  1.2790 -0.5992 -0.3390
  685MOL0     H92473   9.564   1.960   3.118  1.6992 -1.3802 -0.7541
  685MOL0     H92474   8.989   1.687   2.630  0.8574  1.1010 -0.5292
  685MOL0     H92475   8.809   1.843   2.527  1.8461 -0.6501 -0.2610
  686MOL0     O92476  10.792   7.635   6.387  0.0399 -0.8503  0.3646
  686MOL0     C92477  10.869   7.709   6.326 -0.3369 -0.8567  0.0762
  686MOL0     O92478  10.835   7.829   6.262 -0.5472 -0.0506 -0.6960
  686MOL0     C92479  10.706   7.869   6.259  0.4305 -0.0477  0.1728
  686MOL0     C92480  10.662   7.960   6.364 -0.6954  0.1501  0.2640
  686MOL0     C92481  10.537   8.015   6.363  0.4741 -0.3866  0.7118
  686MOL0     C92482  10.445   7.986   6.265 -0.6865 -0.3401  0.9440
  686MOL0     O92483  10.322   8.045   6.266  0.6231  0.2761 -0.1685
  686MOL0     C92484  10.310   8.163   6.191  0.4428  0.5091  0.3751
  686MOL0     C92485  10.205   8.250   6.250  0.1948  0.1213  0.3767
  686MOL0     C92486  10.231   8.316   6.385 -0.0485 -0.6465  0.0767
  686MOL0     C92487  10.226   8.214   6.502 -1.1011  0.1590 -0.3809
  686MOL0     C92488  10.100   8.120   6.519  0.1330  0.0432 -0.3917
  686MOL0     C92489   9.982   8.210   6.525  0.3279  0.1490 -0.0434
  686MOL0     C92490   9.861   8.124   6.557 -0.4909 -0.1600  0.1466
  686MOL0     C92491   9.733   8.203   6.578  0.7556 -0.5265 -0.1615
  686MOL0     N92492   9.702   8.288   6.462 -0.7969 -0.4015 -0.4102
  686MOL0     C92493   9.748   8.415   6.454 -0.4400  0.5125  0.0033
  686MOL0     C92494   9.697   8.459   6.333 -0.6525 -0.1460 -0.0205
  686MOL0     C92495   9.730   8.587   6.258  0.5668  0.9411 -0.7860
  686MOL0     C92496   9.647   8.700   6.316 -0.3694 -0.3820  0.7057
  686MOL0     C92497   9.505   8.675   6.256  0.6283 -0.1185 -0.2282
  686MOL0     C92498   9.403   8.787   6.289 -0.3932 -0.2699 -0.3448
  686MOL0     O92499   9.382   8.796   6.428  0.7559  0.0864  0.1860
  686MOL0     C92500   9.253   8.842   6.451  0.6382  0.8195 -0.0021
  686MOL0     C92501   9.147   8.754   6.428 -0.0365 -0.2531  0.2526
  686MOL0     C92502   9.010   8.792   6.429 -0.3639  0.3579  0.2342
  686MOL0     C92503   8.916   8.686   6.380 -0.4245 -0.2352 -0.1911
  686MOL0     C92504   8.973   8.929   6.462 -0.4109 -0.3229  0.1884
  686MOL0     C92505   8.834   8.978   6.474  1.2031 -1.0645 -0.0641
  686MOL0     O92506   8.811   9.104   6.423  0.5309 -0.8219  0.0854
  686MOL0     C92507   8.694   9.174   6.429  0.1799 -0.6877 -0.5301
  686MOL0     C92508   8.669   9.275   6.331  0.6252  1.3272 -0.6111
  686MOL0     C92509   8.537   9.330   6.322 -0.3602  0.6933 -0.7426
  686MOL0     C92510   8.438   9.292   6.415 -0.7789  0.1696 -0.5404
  686MOL0     O92511   8.314   9.341   6.385  0.1181 -0.1868  1.1050
  686MOL0     C92512   8.215   9.344   6.494  0.7511  0.1721 -0.5471
  686MOL0     C92513   8.108   9.443   6.447  0.5608  0.4478  0.3322
  686MOL0     C92514   7.991   9.451   6.559 -1.3428 -0.1024  0.5624
  686MOL0     C92515   7.901   9.328   6.568 -0.5737 -0.5701  0.1762
  686MOL0     C92516   7.768   9.357   6.637 -1.3895 -0.8922 -0.0923
  686MOL0     C92517   7.783   9.349   6.794  0.4151 -0.3382 -0.8457
  686MOL0     C92518   7.662   9.414   6.867  0.1901  0.1567 -0.2327
  686MOL0     C92519   7.528   9.362   6.827  0.3764  0.2737 -0.3276
  686MOL0    Cl92520   7.516   9.188   6.871  0.1209 -0.0579  0.3857
  686MOL0     C92521   8.465   9.199   6.519 -0.0852 -0.0638  0.1978
  686MOL0     C92522   8.595   9.152   6.526 -0.3731  0.2048  0.2528
  686MOL0     O92523   8.742   8.903   6.513  0.0202  0.7897 -0.2467
  686MOL0     C92524   9.083   9.018   6.478 -0.2809 -0.5180 -0.2164
  686MOL0     C92525   9.216   8.981   6.479 -0.0487 -0.7209 -1.0931
  686MOL0     N92526   9.616   8.367   6.274 -1.0537 -0.9263  0.2515
  686MOL0     N92527   9.621   8.271   6.357 -0.5299 -0.5207 -0.3647
  686MOL0     C92528  10.482   7.895   6.165 -0.9040 -0.2570 -0.2509
  686MOL0     C92529  10.613   7.841   6.167 -0.4200  0.0968  0.0701
  686MOL0     C92530  11.009   7.669   6.339  0.1671 -0.7626 -0.3414
  686MOL0     C92531  11.113   7.765   6.343 -0.0694  0.6119 -0.2386
  686MOL0     C92532  11.249   7.724   6.360  0.0631 -0.4501 -0.7056
  686MOL0     C92533  11.278   7.583   6.364  0.6676  0.6271 -1.0398
  686MOL0     O92534  11.404   7.529   6.398 -0.0171  0.4185  0.0271
  686MOL0     C92535  11.518   7.615   6.419 -0.7794  0.8489 -0.2464
  686MOL0     C92536  11.640   7.527   6.459 -0.0850  0.5537 -0.3040
  686MOL0     C92537  11.679   7.421   6.355  0.5699  0.3968  0.0415
  686MOL0     C92538  11.650   7.284   6.396  0.3669  0.7196 -0.0076
  686MOL0     C92539  11.718   7.194   6.303  0.4569  0.8069 -0.1066
  686MOL0     C92540  11.771   7.140   6.208  1.3088 -0.2242 -0.1305
  686MOL0     C92541  11.176   7.495   6.356  0.2584  0.3074  0.2603
  686MOL0     C92542  11.044   7.530   6.340  0.4051  0.4883  0.6207
  686MOL0     H92543  10.737   7.981   6.440 -0.6961  4.2839 -0.6621
  686MOL0     H92544  10.513   8.090   6.438  1.8551  1.1032 -0.2767
  686MOL0     H92545  10.404   8.214   6.171  0.7972 -0.6566 -1.1137
  686MOL0     H92546  10.267   8.127   6.096  0.2047 -0.4102  0.8268
  686MOL0     H92547  10.175   8.330   6.182  1.3422  1.9650  1.9563
  686MOL0     H92548  10.111   8.193   6.254 -0.9864  1.7663 -1.6196
  686MOL0     H92549  10.332   8.359   6.390 -0.1152 -0.4176 -0.5359
  686MOL0     H92550  10.166   8.403   6.400  0.2291 -0.1773 -1.3100
  686MOL0     H92551  10.310   8.145   6.493 -1.3099 -0.2067  0.3561
  686MOL0     H92552  10.239   8.260   6.601  0.8347 -1.7362  0.3385
  686MOL0     H92553  10.100   8.050   6.435 -0.1839  0.6539 -0.8984
  686MOL0     H92554  10.105   8.064   6.613  2.0352 -1.3831 -1.2715
  686MOL0     H92555  10.006   8.299   6.584 -1.7924  0.1244  0.9455
  686MOL0     H92556   9.967   8.258   6.428  1.9924 -4.0614 -2.6702
  686MOL0     H92557   9.847   8.055   6.473  3.6276 -0.2813 -0.6168
  686MOL0     H92558   9.876   8.059   6.644  1.0875 -1.2866 -0.9217
  686MOL0     H92559   9.740   8.262   6.671  1.0848 -1.3112  0.3244
  686MOL0     H92560   9.658   8.126   6.598  1.3624 -1.0755  0.0720
  686MOL0     H92561   9.801   8.478   6.525 -1.0588 -0.6510  1.5512
  686MOL0     H92562   9.837   8.608   6.270  1.0999 -2.2640  1.1544
  686MOL0     H92563   9.711   8.570   6.152  1.7171 -2.2152 -0.6072
  686MOL0     H92564   9.685   8.793   6.274  0.5942 -1.0016  0.1524
  686MOL0     H92565   9.644   8.694   6.426  0.3572 -1.4972  0.6855
  686MOL0     H92566   9.462   8.582   6.294  1.6931 -0.5818 -0.1445
  686MOL0     H92567   9.513   8.678   6.147  0.2418  0.4740 -0.2437
  686MOL0     H92568   9.314   8.773   6.227  0.3255  0.1132 -1.4870
  686MOL0     H92569   9.447   8.879   6.252  2.6735 -1.9487 -1.2357
  686MOL0     H92570   9.183   8.657   6.396  2.3897 -0.0009  1.9026
  686MOL0     H92571   8.814   8.723   6.370 -0.3013 -0.1946 -1.4771
  686MOL0     H92572   8.942   8.638   6.285  5.1206 -0.4876  1.0994
  686MOL0     H92573   8.905   8.598   6.444  4.4666 -1.6029 -0.7693
  686MOL0     H92574   8.749   9.307   6.265  1.2471  1.2570  0.1031
  686MOL0     H92575   8.523   9.405   6.245  0.8264 -2.2508 -4.1740
  686MOL0     H92576   8.176   9.242   6.503 -0.4281  0.6255 -0.2701
  686MOL0     H92577   8.253   9.376   6.592  1.2111  0.4403 -0.8068
  686MOL0     H92578   8.156   9.541   6.438 -1.1276  1.2882  0.1417
  686MOL0     H92579   8.062   9.404   6.355  0.0814 -1.7995  1.4495
  686MOL0     H92580   7.936   9.546   6.561  1.8053  1.8714  4.0203
  686MOL0     H92581   8.044   9.452   6.654 -1.9962  1.1262  0.9372
  686MOL0     H92582   7.883   9.302   6.463  1.5189 -0.2769 -0.3002
  686MOL0     H92583   7.957   9.247   6.616 -0.6918  0.1428  1.5724
  686MOL0     H92584   7.690   9.285   6.608 -2.2908 -1.0868  2.5394
  686MOL0     H92585   7.726   9.454   6.607  0.9794  1.2894  3.1032
  686MOL0     H92586   7.780   9.243   6.821 -0.7431  0.5239  3.1058
  686MOL0     H92587   7.878   9.392   6.826  0.8130 -1.4800 -0.4491
  686MOL0     H92588   7.662   9.522   6.849 -1.5696 -0.0016 -1.4523
  686MOL0     H92589   7.667   9.404   6.976 -0.4791 -1.3643 -0.3145
  686MOL0     H92590   7.508   9.382   6.721  2.7776  4.3869 -0.2192
  686MOL0     H92591   7.447   9.410   6.883  1.3489 -0.3559  1.7149
  686MOL0     H92592   8.389   9.152   6.582 -0.2060  1.9898  1.6692
  686MOL0     H92593   8.607   9.082   6.608  1.0332 -1.6503 -1.4681
  686MOL0     H92594   9.071   9.126   6.484  3.1033 -0.1023  2.0962
  686MOL0     H92595   9.297   9.050   6.499 -1.4000  0.6545 -0.0703
  686MOL0     H92596  10.413   7.875   6.083  1.6273 -0.4271 -2.4605
  686MOL0     H92597  10.647   7.776   6.088  1.6147 -0.4146  1.2778
  686MOL0     H92598  11.084   7.870   6.342  0.0067  0.6545  0.6118
  686MOL0     H92599  11.325   7.800   6.370 -1.0083  0.6844 -0.8432
  686MOL0     H92600  11.537   7.674   6.329  0.9084  0.7367 -0.0017
  686MOL0     H92601  11.494   7.692   6.492  1.0285  2.1438 -0.9379
  686MOL0     H92602  11.618   7.478   6.554 -1.1050  0.2930 -0.6573
  686MOL0     H92603  11.713   7.606   6.479 -1.5121  1.5567  1.2130
  686MOL0     H92604  11.783   7.433   6.325  0.5787 -4.3935 -2.8322
  686MOL0     H92605  11.622   7.444   6.265  2.2976 -2.2708 -1.9115
  686MOL0     H92606  11.544   7.258   6.391  0.3706  0.5150  0.8101
  686MOL0     H92607  11.685   7.277   6.499  2.0225  2.2297 -0.4041
  686MOL0     H92608  11.813   7.101   6.118  1.6311  0.3207 -0.2178
  686MOL0     H92609  11.201   7.389   6.358  1.1444  0.4740 -0.7414
  686MOL0     H92610  10.971   7.452   6.322 -0.6988  1.6269  0.0397
  687MOL0     O92611   8.442   5.454   4.738  0.1320  0.1291  0.6468
  687MOL0     C92612   8.515   5.407   4.653 -0.1623  0.1226 -0.5824
  687MOL0     O92613   8.488   5.300   4.574  0.0011  0.0718 -0.0262
  687MOL0     C92614   8.359   5.265   4.547  0.4650 -0.4537 -0.5966
  687MOL0     C92615   8.289   5.172   4.628  0.0886 -0.0385  0.7246
  687MOL0     C92616   8.170   5.118   4.588  0.5760 -0.2125 -0.1759
  687MOL0     C92617   8.106   5.162   4.473 -0.2973 -0.3380  0.8219
  687MOL0     O92618   7.975   5.125   4.442  0.1321 -0.1292 -0.7393
  687MOL0     C92619   7.893   5.222   4.375  0.2186 -0.1293 -0.2054
  687MOL0     C92620   7.743   5.178   4.389 -0.6600  0.3881 -0.6580
  687MOL0     C92621   7.637   5.273   4.320  0.0114  0.6385 -0.0210
  687MOL0     C92622   7.534   5.194   4.241  0.0846  0.3089  0.5909
  687MOL0     C92623   7.456   5.290   4.156  0.2439  0.8784 -0.4697
  687MOL0     C92624   7.326   5.237   4.111 -0.0746  0.1717  0.1953
  687MOL0     C92625   7.288   5.331   3.999 -0.1157  0.1345 -0.7260
  687MOL0     C92626   7.142   5.311   3.986  0.6605 -0.5582  0.3849
  687MOL0     N92627   7.077   5.369   3.865  0.7598 -0.6341  0.0571
  687MOL0     C92628   6.979   5.465   3.876  0.1264 -0.2940  0.0549
  687MOL0     C92629   6.927   5.479   3.746  0.3122 -0.1653  0.0650
  687MOL0     C92630   6.825   5.574   3.707  0.6053  0.4873 -0.0509
  687MOL0     C92631   6.800   5.607   3.562 -0.2822  0.0103  0.5883
  687MOL0     C92632   6.715   5.735   3.556 -0.3044  0.2679  0.0516
  687MOL0     C92633   6.558   5.713   3.581 -0.0993  0.1371 -0.4295
  687MOL0     O92634   6.481   5.820   3.524  0.7091  0.4386 -0.1309
  687MOL0     C92635   6.339   5.807   3.537  0.1764  0.1780 -0.3109
  687MOL0     C92636   6.266   5.686   3.544 -0.4508  0.7696 -0.1008
  687MOL0     C92637   6.127   5.688   3.550  0.0753 -0.0404  0.1069
  687MOL0     C92638   6.061   5.546   3.550 -0.4761  0.4563  0.3765
  687MOL0     C92639   6.052   5.812   3.548 -0.5739  0.3601  1.3731
  687MOL0     C92640   5.909   5.832   3.566 -0.0947 -0.5226  0.2356
  687MOL0     O92641   5.827   5.724   3.597 -0.1066  0.0984  0.0611
  687MOL0     C92642   5.696   5.750   3.617  0.2207  0.0898  0.7324
  687MOL0     C92643   5.602   5.675   3.541 -1.0493 -0.5802 -0.2176
  687MOL0     C92644   5.470   5.709   3.552 -0.1851  0.5759  0.5023
  687MOL0     C92645   5.425   5.804   3.642 -0.6305  0.0816  0.0732
  687MOL0     O92646   5.294   5.838   3.661  0.0630  0.1358  0.1281
  687MOL0     C92647   5.195   5.813   3.557  0.0712  0.3636 -1.1276
  687MOL0     C92648   5.081   5.913   3.579  0.0625  1.1783  0.8494
  687MOL0     C92649   5.003   5.885   3.705 -0.1210  0.3102 -0.4766
  687MOL0     C92650   4.868   5.955   3.692 -0.0629  0.0121 -0.2203
  687MOL0     C92651   4.764   5.926   3.797 -0.4042 -0.5277 -0.4636
  687MOL0     C92652   4.645   6.026   3.786  0.5694 -0.6097 -0.7646
  687MOL0     C92653   4.557   5.998   3.906  0.3544  0.6363 -0.0223
  687MOL0     C92654   4.467   6.116   3.940  0.5986 -0.2877 -0.4538
  687MOL0    Cl92655   4.306   6.076   4.012  0.0203 -0.0436 -0.0483
  687MOL0     C92656   5.521   5.864   3.722  0.4734 -0.5243  0.0021
  687MOL0     C92657   5.658   5.851   3.711 -0.5301  0.0392  0.1096
  687MOL0     O92658   5.874   5.951   3.553 -0.0516  0.1260 -0.8194
  687MOL0     C92659   6.126   5.924   3.516 -0.0756 -0.2615  0.0730
  687MOL0     C92660   6.263   5.921   3.519 -0.2428 -0.6756 -0.6445
  687MOL0     N92661   6.990   5.390   3.661 -0.8162  0.0040  0.0519
  687MOL0     N92662   7.084   5.339   3.732  0.3158  0.4323 -0.2596
  687MOL0     C92663   8.176   5.253   4.392 -0.8739 -0.5461 -0.0627
  687MOL0     C92664   8.307   5.299   4.424 -0.1540 -0.4029  0.7137
  687MOL0     C92665   8.658   5.436   4.661  0.2345  0.1109  0.2727
  687MOL0     C92666   8.734   5.420   4.553 -0.2998  0.5077  0.0994
  687MOL0     C92667   8.867   5.448   4.562  0.5662 -0.8427 -0.7877
  687MOL0     C92668   8.927   5.510   4.676  0.0619  0.0103 -0.2326
  687MOL0     O92669   9.067   5.535   4.686 -0.0791 -0.3186 -0.3698
  687MOL0     C92670   9.103   5.649   4.768 -0.2156 -0.2740  0.2658
  687MOL0     C92671   9.145   5.625   4.907  0.2699  0.3899  0.4642
  687MOL0     C92672   9.298   5.597   4.920 -0.6300 -0.7852  0.4505
  687MOL0     C92673   9.328   5.456   4.850 -0.7783  0.4783 -1.0116
  687MOL0     C92674   9.471   5.430   4.873  0.5150  1.2144  0.5623
  687MOL0     C92675   9.591   5.428   4.880 -0.6298  0.4099  0.6703
  687MOL0     C92676   8.841   5.534   4.786 -0.5341  0.4119  1.1796
  687MOL0     C92677   8.713   5.493   4.776 -0.0876  0.1651 -0.5185
  687MOL0     H92678   8.337   5.134   4.717 -2.4722  1.2553  2.8060
  687MOL0     H92679   8.118   5.050   4.655 -3.9659  1.7420 -1.3392
  687MOL0     H92680   7.906   5.319   4.422  1.7316 -0.1739 -0.4651
  687MOL0     H92681   7.918   5.226   4.268 -0.5603 -3.0655 -0.6107
  687MOL0     H92682   7.736   5.082   4.338 -2.8299  0.7906 -1.2207
  687MOL0     H92683   7.731   5.165   4.497  3.4933  0.2642 -0.0606
  687MOL0     H92684   7.596   5.328   4.405 -1.4056  1.2423 -1.0620
  687MOL0     H92685   7.696   5.340   4.255  0.8711  0.6470  0.7532
  687MOL0     H92686   7.581   5.115   4.182  0.4618  0.1337  1.1194
  687MOL0     H92687   7.461   5.151   4.311  0.2903 -2.7174 -0.8806
  687MOL0     H92688   7.453   5.389   4.204  2.0444  0.9015 -0.3419
  687MOL0     H92689   7.516   5.312   4.068 -1.2824  0.6296 -1.6185
  687MOL0     H92690   7.327   5.130   4.087 -1.2461 -0.7476  3.7087
  687MOL0     H92691   7.253   5.244   4.192 -0.7110 -3.1876  0.0626
  687MOL0     H92692   7.308   5.432   4.035  1.4074 -0.8721  1.4471
  687MOL0     H92693   7.336   5.309   3.903  0.0194  2.7306 -1.3504
  687MOL0     H92694   7.102   5.366   4.072 -0.5924 -1.0987  0.1733
  687MOL0     H92695   7.114   5.206   3.984 -2.5252  0.1713  0.7363
  687MOL0     H92696   6.952   5.506   3.973  1.3587  0.4964  0.0948
  687MOL0     H92697   6.732   5.526   3.737  0.5562  1.9219  2.3271
  687MOL0     H92698   6.846   5.658   3.773 -2.6595 -0.4316  2.3923
  687MOL0     H92699   6.745   5.526   3.513 -1.8224  1.4891 -0.2690
  687MOL0     H92700   6.893   5.623   3.506 -0.6063 -2.9343 -0.9709
  687MOL0     H92701   6.731   5.795   3.466 -1.5215 -0.3751 -0.6158
  687MOL0     H92702   6.750   5.805   3.633 -0.1539 -0.5307  0.7226
  687MOL0     H92703   6.550   5.720   3.690 -1.1930 -0.1174 -0.4873
  687MOL0     H92704   6.529   5.616   3.541 -0.6325  1.0527 -2.3479
  687MOL0     H92705   6.313   5.588   3.552 -3.5123 -0.9477 -1.3176
  687MOL0     H92706   6.120   5.462   3.512  0.4243  0.8290  0.9385
  687MOL0     H92707   6.023   5.530   3.651 -0.0781  0.7627  0.5720
  687MOL0     H92708   5.970   5.544   3.488  0.1893  0.0954 -0.6080
  687MOL0     H92709   5.648   5.587   3.498  4.6340  1.8876 -0.0800
  687MOL0     H92710   5.392   5.652   3.502  0.9365 -0.6860  0.1205
  687MOL0     H92711   5.220   5.837   3.453 -0.3249 -0.6600 -1.4716
  687MOL0     H92712   5.175   5.707   3.576 -1.1410  1.0460  2.0832
  687MOL0     H92713   5.124   6.013   3.566  2.2205  0.3265  1.0024
  687MOL0     H92714   5.011   5.902   3.495  0.6766  4.0299 -0.1685
  687MOL0     H92715   5.058   5.915   3.795 -0.2333 -1.5594  0.2721
  687MOL0     H92716   4.985   5.777   3.712 -0.0050  0.3878  3.0402
  687MOL0     H92717   4.895   6.061   3.684 -0.6654  0.3053  1.3122
  687MOL0     H92718   4.818   5.927   3.598  2.0396  0.3461 -1.5153
  687MOL0     H92719   4.808   5.922   3.897 -1.1994 -1.1141 -0.1179
  687MOL0     H92720   4.724   5.825   3.782 -0.3515 -0.7568  0.8291
  687MOL0     H92721   4.673   6.132   3.785  2.1822 -0.9800  0.1024
  687MOL0     H92722   4.587   6.013   3.694  1.2400 -3.4179 -0.8865
  687MOL0     H92723   4.599   5.972   4.004 -3.2886 -1.4394  1.1637
  687MOL0     H92724   4.493   5.913   3.883 -0.9917  1.5133  0.3485
  687MOL0     H92725   4.442   6.166   3.846 -2.1296 -1.9021 -0.7172
  687MOL0     H92726   4.518   6.172   4.019 -0.5930 -2.7460  2.2624
  687MOL0     H92727   5.481   5.933   3.795  1.4097 -0.1051  0.1274
  687MOL0     H92728   5.715   5.915   3.778 -1.1483  0.4253  0.2746
  687MOL0     H92729   6.082   6.020   3.493  0.3276 -0.6301 -2.6272
  687MOL0     H92730   6.332   6.002   3.494 -1.3015 -0.3269 -2.6941
  687MOL0     H92731   8.133   5.288   4.298 -2.3765 -2.0288  0.0349
  687MOL0     H92732   8.367   5.362   4.358 -1.1698 -0.0199  0.1345
  687MOL0     H92733   8.700   5.382   4.457  1.2083  0.7460 -0.5437
  687MOL0     H92734   8.923   5.423   4.473  2.4481  0.3284 -0.0003
  687MOL0     H92735   9.184   5.700   4.715  0.5615  0.0053  1.6685
  687MOL0     H92736   9.024   5.724   4.760 -0.9954 -1.1846 -0.8100
  687MOL0     H92737   9.084   5.540   4.938  0.5552 -0.8270 -2.0125
  687MOL0     H92738   9.122   5.705   4.977 -0.8454  1.5589 -1.1435
  687MOL0     H92739   9.337   5.600   5.022  1.7281  1.4004 -0.4017
  687MOL0     H92740   9.352   5.678   4.870 -0.3912 -0.5628  1.0582
  687MOL0     H92741   9.313   5.475   4.743 -1.2277  0.5005 -0.9441
  687MOL0     H92742   9.265   5.376   4.888 -0.1159  0.4220  0.0235
  687MOL0     H92743   9.697   5.437   4.892 -0.1606  1.1402 -2.9295
  687MOL0     H92744   8.878   5.568   4.882 -4.2122  1.3877  2.4371
  687MOL0     H92745   8.648   5.502   4.863  1.9615  0.5605  1.0531
  688MOL0     O92746   8.160   7.949   2.960 -0.2447 -0.4814  0.7822
  688MOL0     C92747   8.181   8.002   2.847 -0.4467  0.3450 -0.4797
  688MOL0     O92748   8.092   8.082   2.778 -0.3285  0.3783  0.2838
  688MOL0     C92749   7.957   8.093   2.818  0.1413 -0.2282  0.7293
  688MOL0     C92750   7.890   8.217   2.819 -0.0017 -0.1383 -0.5465
  688MOL0     C92751   7.753   8.226   2.863 -1.6310  0.2612  0.0155
  688MOL0     C92752   7.681   8.104   2.880 -0.4775 -1.2232  0.7587
  688MOL0     O92753   7.548   8.125   2.913 -0.4379  0.5225 -0.3435
  688MOL0     C92754   7.461   8.022   2.860 -0.4523  0.9578 -0.2122
  688MOL0     C92755   7.334   8.100   2.822 -0.1321 -0.0653 -0.4654
  688MOL0     C92756   7.204   8.026   2.809 -1.3345  0.2856 -0.1361
  688MOL0     C92757   7.128   8.020   2.937 -0.3814 -0.8235 -0.2805
  688MOL0     C92758   7.000   7.925   2.935 -1.1448 -0.4298 -0.5685
  688MOL0     C92759   6.929   7.928   3.074 -0.5001  0.4251 -0.5928
  688MOL0     C92760   6.791   7.857   3.086 -0.1933 -0.0783  0.5323
  688MOL0     C92761   6.752   7.864   3.229  0.4275 -0.7945  0.2013
  688MOL0     N92762   6.615   7.806   3.242 -0.3616  0.1399  1.6876
  688MOL0     C92763   6.488   7.850   3.194  0.2154  0.7089  0.4551
  688MOL0     C92764   6.392   7.773   3.251 -0.1820  0.5694  0.2110
  688MOL0     C92765   6.248   7.787   3.219 -1.3341  0.5722 -0.8612
  688MOL0     C92766   6.154   7.689   3.302 -0.7145 -0.4724  0.6943
  688MOL0     C92767   6.015   7.748   3.328 -0.7293  0.7195  0.5741
  688MOL0     C92768   5.994   7.844   3.446 -0.1944  0.1168  0.1210
  688MOL0     O92769   5.881   7.930   3.424 -0.1170 -0.9106 -0.6338
  688MOL0     C92770   5.757   7.893   3.452  0.5618 -0.0390  0.2455
  688MOL0     C92771   5.734   7.778   3.529  0.3398  0.6323  0.7528
  688MOL0     C92772   5.614   7.725   3.546 -0.3960  0.8563  0.1048
  688MOL0     C92773   5.610   7.585   3.606  0.2995  0.1640  0.3370
  688MOL0     C92774   5.502   7.814   3.503 -0.3973  0.6716 -0.9461
  688MOL0     C92775   5.359   7.767   3.527  0.1758  0.6757  0.3557
  688MOL0     O92776   5.267   7.819   3.434  0.1748  0.3516 -0.0395
  688MOL0     C92777   5.128   7.807   3.449 -1.5911 -0.1203  1.4452
  688MOL0     C92778   5.060   7.819   3.322 -0.0378  0.0840 -0.1681
  688MOL0     C92779   4.914   7.824   3.333  1.0742 -1.1421 -0.2110
  688MOL0     C92780   4.847   7.810   3.454  0.7778  0.4568 -0.2212
  688MOL0     O92781   4.706   7.824   3.452 -0.0193  0.6899  0.0681
  688MOL0     C92782   4.634   7.857   3.571 -0.4303  0.0219  0.3030
  688MOL0     C92783   4.490   7.894   3.533  0.1708  0.7743  1.3070
  688MOL0     C92784   4.472   8.033   3.465  1.4355  0.8218  0.8174
  688MOL0     C92785   4.323   8.063   3.421 -0.4297 -0.2371  0.0340
  688MOL0     C92786   4.323   8.194   3.333  0.0489  0.2931 -0.9398
  688MOL0     C92787   4.170   8.226   3.291 -0.5302  1.3491 -0.9040
  688MOL0     C92788   4.161   8.370   3.227 -0.3846 -0.2558 -0.3801
  688MOL0     C92789   4.049   8.375   3.128  0.5894  0.2600  0.5115
  688MOL0    Cl92790   4.004   8.539   3.071 -0.4451 -0.0257  0.0731
  688MOL0     C92791   4.924   7.800   3.579 -0.2200 -0.2677 -0.0045
  688MOL0     C92792   5.063   7.794   3.576  0.9019 -0.4262  0.1827
  688MOL0     O92793   5.335   7.683   3.606  0.7190  0.0491 -0.1131
  688MOL0     C92794   5.533   7.932   3.435  1.4078 -0.3321 -0.2521
  688MOL0     C92795   5.652   7.975   3.409 -0.3010 -0.1822  0.4101
  688MOL0     N92796   6.457   7.697   3.344  0.9168 -0.7655 -1.1494
  688MOL0     N92797   6.585   7.713   3.337 -0.7044 -0.1592  0.6888
  688MOL0     C92798   7.745   7.981   2.870 -0.1217  0.0522 -0.6124
  688MOL0     C92799   7.885   7.971   2.848 -0.1767  0.4255  0.3537
  688MOL0     C92800   8.316   7.987   2.799 -0.3111 -0.3292 -0.1954
  688MOL0     C92801   8.368   8.050   2.687  0.6276 -0.7427  0.2240
  688MOL0     C92802   8.500   8.035   2.654  0.2691  0.3226 -0.3138
  688MOL0     C92803   8.586   7.948   2.730 -0.6950  0.5364  0.0546
  688MOL0     O92804   8.712   7.926   2.686 -0.0775 -0.3251 -0.3523
  688MOL0     C92805   8.811   7.860   2.761 -0.9870  0.9015 -0.0259
  688MOL0     C92806   8.954   7.865   2.704  0.1116 -0.1730  0.1580
  688MOL0     C92807   8.998   7.722   2.674  1.1183  0.0685 -0.2247
  688MOL0     C92808   9.148   7.708   2.637  0.5633  0.0536 -0.1569
  688MOL0     C92809   9.230   7.779   2.730  0.5806  0.0980  0.3174
  688MOL0     C92810   9.312   7.822   2.806 -0.2247  0.2535 -0.5882
  688MOL0     C92811   8.536   7.886   2.846 -0.3028  0.4271  0.1307
  688MOL0     C92812   8.395   7.891   2.869  0.1615 -0.0561 -0.7793
  688MOL0     H92813   7.932   8.312   2.786 -2.3098  1.8986  1.8795
  688MOL0     H92814   7.714   8.326   2.882  2.6320  1.7717  2.4022
  688MOL0     H92815   7.505   7.970   2.774  1.8765 -0.1257  1.5374
  688MOL0     H92816   7.438   7.950   2.939 -4.0627 -0.3648 -2.2107
  688MOL0     H92817   7.314   8.180   2.894  0.1506 -0.2344 -0.1951
  688MOL0     H92818   7.361   8.143   2.725  1.2926  0.5573  0.1902
  688MOL0     H92819   7.144   8.066   2.726 -0.1849 -2.2642 -2.3690
  688MOL0     H92820   7.239   7.925   2.787 -1.1538  0.6498 -1.6563
  688MOL0     H92821   7.203   8.004   3.015 -1.0689 -0.2350  0.5110
  688MOL0     H92822   7.082   8.119   2.944  0.3982 -0.5404  1.5296
  688MOL0     H92823   6.927   7.971   2.867 -0.6487  1.3642  0.0670
  688MOL0     H92824   7.015   7.824   2.897 -1.3349 -0.7087  0.0943
  688MOL0     H92825   7.000   7.885   3.145 -1.2784 -1.6764 -1.0356
  688MOL0     H92826   6.916   8.035   3.096  1.0640  0.2614  1.4031
  688MOL0     H92827   6.711   7.901   3.027 -0.2860  0.0255  0.7342
  688MOL0     H92828   6.804   7.755   3.050  2.4415  0.6252 -0.7048
  688MOL0     H92829   6.748   7.971   3.249  3.2459 -0.9672  2.2486
  688MOL0     H92830   6.819   7.812   3.298  2.1005  0.7049 -0.2430
  688MOL0     H92831   6.477   7.938   3.131  2.6867 -0.4276 -1.7594
  688MOL0     H92832   6.218   7.892   3.227 -0.5079  0.6894  1.3560
  688MOL0     H92833   6.242   7.760   3.113  2.3757  0.6704 -1.1999
  688MOL0     H92834   6.203   7.656   3.395  1.4395  1.7266  0.4264
  688MOL0     H92835   6.150   7.595   3.246  0.6948  0.2811 -0.7115
  688MOL0     H92836   5.953   7.658   3.328 -0.2196  0.3528 -0.0949
  688MOL0     H92837   5.992   7.789   3.230 -1.3459 -2.1421 -0.5965
  688MOL0     H92838   6.082   7.907   3.465 -0.5020 -0.2248  3.0852
  688MOL0     H92839   5.975   7.789   3.539 -3.3509  0.2671 -0.3195
  688MOL0     H92840   5.814   7.708   3.552  0.5587  0.6350  0.0248
  688MOL0     H92841   5.555   7.519   3.538  1.3229  0.1973 -0.5473
  688MOL0     H92842   5.710   7.542   3.607 -0.1054 -0.9477 -1.4309
  688MOL0     H92843   5.564   7.561   3.702  2.9846 -3.7621  0.8658
  688MOL0     H92844   5.104   7.851   3.228 -0.1651 -0.1881 -0.3218
  688MOL0     H92845   4.848   7.850   3.251  0.7057 -0.1124  0.3910
  688MOL0     H92846   4.623   7.771   3.638 -2.1118 -0.5940 -0.7003
  688MOL0     H92847   4.666   7.947   3.625 -0.0440 -1.9503  3.6200
  688MOL0     H92848   4.457   7.810   3.471  0.4096  0.4792  1.5769
  688MOL0     H92849   4.434   7.892   3.626  0.1986  1.3847  1.3434
  688MOL0     H92850   4.535   8.048   3.376 -2.1612  2.5050 -1.6594
  688MOL0     H92851   4.490   8.112   3.539 -0.4602 -0.6863  2.9915
  688MOL0     H92852   4.286   7.979   3.362 -2.8018  2.1723 -2.1869
  688MOL0     H92853   4.268   8.081   3.513  1.2999  2.5927  0.6319
  688MOL0     H92854   4.388   8.204   3.246  1.0626 -0.0855 -0.2516
  688MOL0     H92855   4.351   8.276   3.401 -0.6402 -1.2054  1.2821
  688MOL0     H92856   4.145   8.139   3.229  0.5547 -0.8928  1.6516
  688MOL0     H92857   4.105   8.225   3.379  3.0786  0.1010  1.9825
  688MOL0     H92858   4.254   8.386   3.171 -0.2685 -1.1480 -0.4637
  688MOL0     H92859   4.159   8.447   3.305 -0.2105  1.0292 -1.6085
  688MOL0     H92860   3.966   8.314   3.165  1.7062 -1.0473  0.9441
  688MOL0     H92861   4.079   8.319   3.039 -0.3533 -0.9155  0.9068
  688MOL0     H92862   4.875   7.793   3.676 -1.9780 -1.5130 -0.9181
  688MOL0     H92863   5.108   7.787   3.674  2.3353 -1.0725 -0.5050
  688MOL0     H92864   5.453   7.984   3.383  0.7216 -2.9868 -2.0414
  688MOL0     H92865   5.674   8.059   3.344  3.8906 -0.9923  0.5080
  688MOL0     H92866   7.677   7.897   2.877 -0.4432  0.1041 -2.6116
  688MOL0     H92867   7.939   7.878   2.835 -1.1854  0.0986 -1.7350
  688MOL0     H92868   8.289   8.090   2.623  0.0013 -0.1713  1.3302
  688MOL0     H92869   8.553   8.082   2.571  0.4716  4.8110  2.0039
  688MOL0     H92870   8.806   7.905   2.861 -0.3637 -0.8461  0.8265
  688MOL0     H92871   8.776   7.757   2.765 -1.9522  1.1042 -2.0167
  688MOL0     H92872   9.016   7.910   2.783  0.3477 -0.9662  0.4283
  688MOL0     H92873   8.962   7.918   2.609  3.0172 -1.8972 -0.6968
  688MOL0     H92874   8.941   7.674   2.594  0.3561 -1.2119  1.0349
  688MOL0     H92875   8.981   7.664   2.765  4.0664  1.2391  1.2236
  688MOL0     H92876   9.172   7.754   2.541  2.7661  0.2974  0.4620
  688MOL0     H92877   9.179   7.603   2.627  0.0406  0.1265 -3.5281
  688MOL0     H92878   9.376   7.857   2.885 -0.5610 -2.5620  1.0613
  688MOL0     H92879   8.604   7.837   2.914  0.3660 -0.0164 -0.8468
  688MOL0     H92880   8.365   7.833   2.956  0.3507 -2.1711 -2.0621
  689MOL0     O92881   8.620  11.109   8.967 -0.6530  0.0933 -0.4243
  689MOL0     C92882   8.588  11.127   9.082 -0.6756 -0.4437 -0.1548
  689MOL0     O92883   8.477  11.191   9.125  0.6167 -0.0726  1.1146
  689MOL0     C92884   8.381  11.223   9.021 -0.5547  0.7268  0.2852
  689MOL0     C92885   8.352  11.137   8.914  0.0838  0.7636  0.7078
  689MOL0     C92886   8.271  11.166   8.810  1.2783 -0.5072  0.2218
  689MOL0     C92887   8.199  11.279   8.808  0.3807 -0.3847  0.5857
  689MOL0     O92888   8.123  11.309   8.696  0.3122  0.0201 -1.0369
  689MOL0     C92889   8.159  11.428   8.622 -0.3320  0.3797  0.2058
  689MOL0     C92890   8.048  11.454   8.522 -0.0990  0.3358 -1.6370
  689MOL0     C92891   7.939  11.528   8.590 -0.0344 -0.8913  0.2293
  689MOL0     C92892   7.787  11.489   8.538  0.1267  0.2429 -0.0280
  689MOL0     C92893   7.706  11.610   8.512  0.0943 -0.2220 -0.6220
  689MOL0     C92894   7.579  11.564   8.445  1.1109  0.2511 -0.4454
  689MOL0     C92895   7.447  11.640   8.498  0.1960 -0.4369  0.9115
  689MOL0     C92896   7.392  11.585   8.627 -0.2389  0.0685 -0.6624
  689MOL0     N92897   7.279  11.669   8.671  0.8710  0.3046  0.1865
  689MOL0     C92898   7.155  11.668   8.612  0.9754  0.2409 -0.4929
  689MOL0     C92899   7.087  11.739   8.700  0.3563 -1.2806  0.1730
  689MOL0     C92900   6.942  11.776   8.690  0.2606  0.4194  0.2859
  689MOL0     C92901   6.853  11.689   8.775  0.0767  0.4069  0.0642
  689MOL0     C92902   6.837  11.545   8.728 -0.6554  0.6701 -0.4678
  689MOL0     C92903   6.751  11.463   8.830 -0.3675  0.5777 -0.0970
  689MOL0     O92904   6.629  11.528   8.861  0.1973 -0.1241 -0.3481
  689MOL0     C92905   6.507  11.460   8.866 -0.3041 -0.2492  0.7959
  689MOL0     C92906   6.502  11.324   8.913  0.0892 -0.5511 -0.2812
  689MOL0     C92907   6.375  11.256   8.917 -0.1798 -0.1567 -0.1977
  689MOL0     C92908   6.365  11.119   8.988  0.3770 -0.0180  0.1080
  689MOL0     C92909   6.257  11.326   8.869 -0.6474 -0.5420  0.3272
  689MOL0     C92910   6.125  11.265   8.873 -0.3925  0.3447 -0.0668
  689MOL0     O92911   6.106  11.158   8.795 -0.7656 -0.4219  0.6741
  689MOL0     C92912   5.988  11.089   8.817 -0.0693 -0.6083 -0.1009
  689MOL0     C92913   5.973  10.999   8.930 -0.1778 -0.0946 -0.2629
  689MOL0     C92914   5.852  10.940   8.957 -0.6693  0.6788 -0.4063
  689MOL0     C92915   5.749  10.953   8.864  0.7057  0.5937 -0.7232
  689MOL0     O92916   5.637  10.869   8.874 -0.1382 -0.3225 -0.2665
  689MOL0     C92917   5.566  10.875   8.993  0.1427 -0.1719 -0.7253
  689MOL0     C92918   5.428  10.806   8.971 -0.3343  0.4243  0.1665
  689MOL0     C92919   5.438  10.667   8.904  0.5465  0.0087  0.0523
  689MOL0     C92920   5.301  10.600   8.868 -0.0082 -0.7415 -0.2018
  689MOL0     C92921   5.316  10.446   8.825 -0.0330 -0.4655 -0.7575
  689MOL0     C92922   5.184  10.368   8.818  0.0206 -0.5218 -0.0499
  689MOL0     C92923   5.204  10.226   8.750  0.4407 -0.6162 -0.1055
  689MOL0     C92924   5.068  10.158   8.746  0.7086  0.8743  0.2267
  689MOL0    Cl92925   4.963  10.233   8.621 -0.0657 -0.0589 -0.3086
  689MOL0     C92926   5.762  11.042   8.758 -0.0405 -0.6367 -0.0888
  689MOL0     C92927   5.882  11.109   8.732  0.5145  0.0537 -0.4858
  689MOL0     O92928   6.036  11.323   8.941 -0.1964  0.5901  0.2942
  689MOL0     C92929   6.275  11.461   8.824  0.6825 -0.4485  0.3072
  689MOL0     C92930   6.393  11.533   8.824 -0.2419  0.4038 -0.1395
  689MOL0     N92931   7.163  11.775   8.811  0.4487 -0.4058  0.2941
  689MOL0     N92932   7.280  11.737   8.785 -0.2232 -0.1635 -0.2002
  689MOL0     C92933   8.221  11.368   8.906 -0.3757 -0.8683 -0.6519
  689MOL0     C92934   8.311  11.341   9.015  0.0043  0.3624 -0.2016
  689MOL0     C92935   8.695  11.091   9.184  1.0777 -0.4502  0.2500
  689MOL0     C92936   8.675  11.114   9.318 -0.7705  0.1028 -0.7100
  689MOL0     C92937   8.772  11.078   9.408  0.4071  0.4451  0.5098
  689MOL0     C92938   8.879  10.998   9.382 -0.3445 -0.3962 -0.0811
  689MOL0     O92939   8.955  10.962   9.493  0.0829 -0.2660 -0.2784
  689MOL0     C92940   9.093  10.931   9.477  0.1862  0.6780 -0.1524
  689MOL0     C92941   9.108  10.788   9.430  0.5223 -0.5972 -0.0297
  689MOL0     C92942   9.250  10.737   9.458  0.0794  0.0374  0.5413
  689MOL0     C92943   9.296  10.646   9.344  0.0395 -0.1061  0.1954
  689MOL0     C92944   9.434  10.609   9.374 -0.4545  1.1291 -0.3194
  689MOL0     C92945   9.544  10.587   9.410  0.4564 -0.1223 -1.0969
  689MOL0     C92946   8.902  10.973   9.250  0.2632 -0.0149 -0.6058
  689MOL0     C92947   8.810  11.020   9.150 -0.6541  0.2202 -0.4079
  689MOL0     H92948   8.394  11.037   8.923 -1.5829 -0.2569 -1.7127
  689MOL0     H92949   8.256  11.092   8.732 -3.8110  0.2103  0.1740
  689MOL0     H92950   8.173  11.511   8.691  0.4299  0.2794  0.1846
  689MOL0     H92951   8.251  11.393   8.573  0.4440 -0.3418  2.0770
  689MOL0     H92952   8.094  11.512   8.442 -1.5066  1.9728 -1.3274
  689MOL0     H92953   8.007  11.358   8.491  2.9032 -2.1491  1.3792
  689MOL0     H92954   7.943  11.513   8.699 -1.1879  0.0935  0.4302
  689MOL0     H92955   7.953  11.634   8.569  0.1176 -0.9526  0.0216
  689MOL0     H92956   7.791  11.428   8.448 -1.0885  1.8442 -1.2087
  689MOL0     H92957   7.743  11.436   8.623  4.8166 -1.1104  1.8937
  689MOL0     H92958   7.669  11.646   8.609 -1.4231 -1.8291 -0.5550
  689MOL0     H92959   7.756  11.691   8.458 -0.0306  1.9548  2.2989
  689MOL0     H92960   7.591  11.582   8.338 -0.9224  2.2468 -0.4032
  689MOL0     H92961   7.558  11.457   8.459  0.6292  0.3206 -0.6094
  689MOL0     H92962   7.452  11.749   8.509 -1.6687 -0.3630  1.3278
  689MOL0     H92963   7.371  11.613   8.424  1.6009  2.0092 -1.6172
  689MOL0     H92964   7.461  11.592   8.711 -0.5306 -2.0458 -0.1762
  689MOL0     H92965   7.370  11.478   8.616 -2.9868  0.3467  1.1897
  689MOL0     H92966   7.126  11.631   8.514  0.9294  2.5787 -1.4166
  689MOL0     H92967   6.930  11.881   8.719  1.9261  0.7404 -0.0331
  689MOL0     H92968   6.908  11.759   8.587 -0.2102  0.1501  0.4868
  689MOL0     H92969   6.757  11.742   8.779 -0.1570 -0.0890  1.7883
  689MOL0     H92970   6.898  11.688   8.875  2.2244 -0.3330 -0.8393
  689MOL0     H92971   6.929  11.489   8.708 -2.0668 -2.3245  0.7809
  689MOL0     H92972   6.784  11.557   8.633 -5.3899  0.4881  1.8279
  689MOL0     H92973   6.800  11.441   8.925 -4.2130 -2.2385  1.4764
  689MOL0     H92974   6.725  11.365   8.788  0.4943  0.4726 -0.3971
  689MOL0     H92975   6.588  11.282   8.962 -0.0875 -0.0725  0.4601
  689MOL0     H92976   6.265  11.100   9.029  1.9485  0.4997  4.7823
  689MOL0     H92977   6.397  11.038   8.922 -2.0303 -0.6508 -0.3644
  689MOL0     H92978   6.421  11.117   9.082 -1.6507 -1.5563  1.3737
  689MOL0     H92979   6.051  10.979   9.003 -0.3828  0.7054  0.1883
  689MOL0     H92980   5.840  10.878   9.045 -2.7717 -2.1610 -2.5055
  689MOL0     H92981   5.624  10.822   9.069  2.2194  1.7696 -0.8502
  689MOL0     H92982   5.552  10.981   9.019 -0.3028 -0.9604  2.8002
  689MOL0     H92983   5.404  10.771   9.071  1.3099 -2.2084 -0.2697
  689MOL0     H92984   5.366  10.883   8.924  2.9317  1.4724 -2.8814
  689MOL0     H92985   5.488  10.589   8.962  0.4713  0.0750  0.2063
  689MOL0     H92986   5.496  10.679   8.813 -0.3838  1.6385 -0.3753
  689MOL0     H92987   5.232  10.611   8.951  0.6946 -1.3543  0.4820
  689MOL0     H92988   5.263  10.654   8.780  0.1484 -1.4603 -0.7249
  689MOL0     H92989   5.380  10.400   8.901  0.7666 -1.1657 -1.8158
  689MOL0     H92990   5.364  10.423   8.730  1.3614 -2.6136  0.3782
  689MOL0     H92991   5.140  10.352   8.917  0.0112 -2.6348 -0.3334
  689MOL0     H92992   5.117  10.432   8.760 -0.2328 -2.0501 -1.5328
  689MOL0     H92993   5.269  10.161   8.809  2.9363  1.2666 -0.6273
  689MOL0     H92994   5.250  10.230   8.651  1.8695  0.1247  0.5696
  689MOL0     H92995   5.033  10.162   8.849  2.5351 -1.4316  1.0063
  689MOL0     H92996   5.081  10.053   8.721  2.6730  0.0774  3.9449
  689MOL0     H92997   5.675  11.056   8.695 -1.7608  2.2261  2.6487
  689MOL0     H92998   5.893  11.168   8.642  5.2227  3.8321  2.1003
  689MOL0     H92999   6.183  11.513   8.797  0.3712  0.1520  2.3814
  689MOL0     H93000   6.370  11.635   8.793 -0.0739  0.3444 -0.4663
  689MOL0     H93001   8.144  11.444   8.912  0.0268 -0.1560 -3.2041
  689MOL0     H93002   8.317  11.414   9.095 -0.3177  0.8566 -0.6217
  689MOL0     H93003   8.585  11.162   9.358 -0.3083  3.0698 -2.9041
  689MOL0     H93004   8.758  11.111   9.510 -0.9582 -1.5726  1.0425
  689MOL0     H93005   9.147  10.999   9.411  0.1026  0.5791 -0.3221
  689MOL0     H93006   9.150  10.935   9.570 -0.5311  1.5602  0.2726
  689MOL0     H93007   9.095  10.789   9.321 -0.1357  0.4303  0.0447
  689MOL0     H93008   9.039  10.712   9.467  0.0144 -1.9007 -3.2827
  689MOL0     H93009   9.261  10.692   9.557 -0.0314  0.7467  0.8792
  689MOL0     H93010   9.307  10.830   9.458 -1.8231  1.2483  0.3844
  689MOL0     H93011   9.297  10.707   9.253 -2.3252 -0.2985 -0.0302
  689MOL0     H93012   9.221  10.569   9.327  0.5732 -0.1566 -2.2562
  689MOL0     H93013   9.647  10.571   9.437 -0.0306 -1.5199  0.0842
  689MOL0     H93014   8.998  10.924   9.238  1.5870  0.9766  4.1513
  689MOL0     H93015   8.842  11.000   9.048  1.7530  2.3867 -0.1967
  690MOL0     O93016   8.962   3.014   4.028 -0.7278 -0.4561  0.0394
  690MOL0     C93017   8.947   3.043   4.142 -0.2270  1.2516 -0.5231
  690MOL0     O93018   8.837   3.056   4.215  0.3459 -0.3404 -0.0901
  690MOL0     C93019   8.708   3.030   4.172  0.0536  0.0167 -0.1351
  690MOL0     C93020   8.609   3.049   4.267  0.1192 -0.1646 -0.0277
  690MOL0     C93021   8.467   3.028   4.227  0.2764 -0.3386 -0.0165
  690MOL0     C93022   8.431   2.986   4.106 -0.9984  0.3243 -0.0257
  690MOL0     O93023   8.298   2.984   4.083 -0.2287  0.2703  0.4861
  690MOL0     C93024   8.268   2.905   3.967  0.1130  0.3616  0.5214
  690MOL0     C93025   8.157   2.810   4.011  0.4989 -0.2702 -0.0580
  690MOL0     C93026   8.018   2.880   4.013  0.6305 -0.0665  0.2081
  690MOL0     C93027   7.899   2.796   4.020 -0.0007  0.7916 -0.1990
  690MOL0     C93028   7.782   2.894   4.061 -0.0762  0.9479  0.1189
  690MOL0     C93029   7.644   2.864   3.991 -0.6947  0.3959 -0.1195
  690MOL0     C93030   7.598   2.712   3.999 -0.1978  0.4457  1.1303
  690MOL0     C93031   7.442   2.698   4.012 -0.9090  0.7288 -0.8542
  690MOL0     N93032   7.390   2.769   3.895 -0.2150  0.4606  0.1299
  690MOL0     C93033   7.416   2.734   3.766 -0.0034 -0.9834 -0.0295
  690MOL0     C93034   7.365   2.837   3.699  0.6370 -0.8185 -1.4328
  690MOL0     C93035   7.363   2.858   3.548  0.2177  1.1692 -0.3097
  690MOL0     C93036   7.268   2.758   3.476 -0.3003  0.1902  0.7489
  690MOL0     C93037   7.291   2.770   3.324  0.9390 -0.2834  0.4792
  690MOL0     C93038   7.219   2.657   3.230 -0.4963 -0.3467 -0.6510
  690MOL0     O93039   7.087   2.702   3.226 -0.7873 -0.4639 -0.9461
  690MOL0     C93040   6.986   2.623   3.189  0.4626  0.0650 -0.4858
  690MOL0     C93041   6.858   2.667   3.214 -0.5653 -0.3630 -0.5804
  690MOL0     C93042   6.744   2.596   3.176  0.8691 -1.8300  0.3397
  690MOL0     C93043   6.611   2.658   3.225 -0.2062  0.0885 -0.1572
  690MOL0     C93044   6.761   2.469   3.110 -0.6951 -1.0304 -0.0168
  690MOL0     C93045   6.643   2.389   3.070 -0.7865  0.3072  0.7130
  690MOL0     O93046   6.659   2.260   3.076  0.4822 -0.3653 -1.0388
  690MOL0     C93047   6.557   2.175   3.048  1.1611 -0.0655 -0.0597
  690MOL0     C93048   6.574   2.054   2.976  0.2316 -0.2021 -0.2295
  690MOL0     C93049   6.469   1.973   2.941  0.5128 -0.8150 -0.0248
  690MOL0     C93050   6.332   2.001   2.978 -0.8068  0.3393  0.8662
  690MOL0     O93051   6.208   1.941   2.957  0.0032 -0.0307  0.0684
  690MOL0     C93052   6.192   1.852   2.848  0.2808 -0.1496  0.3676
  690MOL0     C93053   6.046   1.824   2.815  0.4836  0.1400  0.2332
  690MOL0     C93054   5.986   1.703   2.886  0.1230 -0.0990  0.3556
  690MOL0     C93055   5.872   1.636   2.797  0.1602  0.3834  0.3906
  690MOL0     C93056   5.831   1.488   2.839 -0.5521  0.0208  0.1996
  690MOL0     C93057   5.686   1.479   2.819  0.3694  0.0436  0.0584
  690MOL0     C93058   5.639   1.336   2.826  0.2505 -0.0507 -0.7622
  690MOL0     C93059   5.615   1.279   2.967 -0.5682  0.7237  0.1284
  690MOL0    Cl93060   5.611   1.090   2.942  0.3998  0.0443  0.1789
  690MOL0     C93061   6.315   2.122   3.052  0.1356  0.4524 -0.3617
  690MOL0     C93062   6.419   2.201   3.090  0.9702 -0.1365  0.6336
  690MOL0     O93063   6.545   2.451   3.037 -0.1917 -0.3411 -0.0272
  690MOL0     C93064   6.892   2.414   3.095 -1.2614 -0.7994  0.7151
  690MOL0     C93065   7.002   2.496   3.135 -0.3851  1.1837 -0.0200
  690MOL0     N93066   7.299   2.922   3.780 -0.5759  0.1969  0.4812
  690MOL0     N93067   7.315   2.870   3.900  0.3350 -0.1033  0.6332
  690MOL0     C93068   8.544   2.982   4.010  0.4280 -0.1269 -0.3590
  690MOL0     C93069   8.670   3.003   4.041 -0.2076 -0.7426  0.5383
  690MOL0     C93070   9.069   3.043   4.228  0.5440  0.8457  0.2522
  690MOL0     C93071   9.050   3.046   4.371 -0.0579 -0.5462  0.1348
  690MOL0     C93072   9.171   3.048   4.447 -0.2040 -1.0473 -0.0505
  690MOL0     C93073   9.294   3.034   4.389 -0.4503 -0.3856 -0.3950
  690MOL0     O93074   9.414   3.043   4.455  0.0599  0.1846 -0.0724
  690MOL0     C93075   9.431   3.140   4.557 -0.5004  0.1330 -0.8788
  690MOL0     C93076   9.583   3.174   4.571 -0.2781 -0.0667 -0.5698
  690MOL0     C93077   9.606   3.270   4.452  0.2961  0.0809 -0.3455
  690MOL0     C93078   9.749   3.327   4.437  0.0940  0.2381  0.1550
  690MOL0     C93079   9.770   3.424   4.545 -0.7275 -0.9317  0.3694
  690MOL0     C93080   9.793   3.507   4.625  0.1841  0.4060 -0.4704
  690MOL0     C93081   9.308   3.005   4.253  0.4950  0.3245 -0.0406
  690MOL0     C93082   9.201   3.010   4.168  0.7737 -0.0226 -0.2267
  690MOL0     H93083   8.638   3.082   4.366 -0.3517 -1.4183  0.5507
  690MOL0     H93084   8.386   3.057   4.293 -1.0186 -0.5431 -1.4577
  690MOL0     H93085   8.233   2.977   3.893 -1.6046 -0.6612  0.2793
  690MOL0     H93086   8.351   2.842   3.935  0.1048 -0.8454  2.7073
  690MOL0     H93087   8.155   2.725   3.942 -2.4244  0.4851 -1.0321
  690MOL0     H93088   8.172   2.773   4.113 -2.3695 -0.5718  0.3211
  690MOL0     H93089   8.017   2.951   4.096 -1.4562 -0.5458  0.6642
  690MOL0     H93090   8.012   2.930   3.916  2.5249  0.6360  0.4151
  690MOL0     H93091   7.878   2.764   3.918 -0.8639 -4.2449  1.3154
  690MOL0     H93092   7.912   2.707   4.081 -0.6923  0.2243 -0.8618
  690MOL0     H93093   7.765   2.903   4.169 -0.1175  2.2348  0.0245
  690MOL0     H93094   7.806   2.996   4.031  0.8266  0.5018 -0.7449
  690MOL0     H93095   7.571   2.922   4.047  1.0068 -0.5148  3.3435
  690MOL0     H93096   7.652   2.898   3.888  0.2521  3.9679  1.0181
  690MOL0     H93097   7.634   2.673   3.904 -0.0832  1.9750  0.5167
  690MOL0     H93098   7.657   2.661   4.076  1.9961  2.4070  0.8732
  690MOL0     H93099   7.421   2.744   4.110  4.9068  1.2699  0.5064
  690MOL0     H93100   7.418   2.592   4.021  2.4880  0.0480  3.0098
  690MOL0     H93101   7.471   2.650   3.725  2.4634  0.9681 -1.0273
  690MOL0     H93102   7.334   2.962   3.529  2.5031  1.8176 -0.5534
  690MOL0     H93103   7.465   2.859   3.509  0.1258 -0.3245 -0.6437
  690MOL0     H93104   7.165   2.785   3.500 -2.1795 -2.7913 -2.9074
  690MOL0     H93105   7.286   2.657   3.513  1.3896  0.1993  0.0500
  690MOL0     H93106   7.400   2.766   3.314  1.3605 -1.6595  4.1229
  690MOL0     H93107   7.256   2.870   3.295  3.9972  1.3588  2.0205
  690MOL0     H93108   7.231   2.560   3.279  2.3725 -0.6966 -1.8404
  690MOL0     H93109   7.258   2.653   3.128 -0.2190  0.1309 -0.5664
  690MOL0     H93110   6.848   2.765   3.259 -1.9123 -0.8080  0.1538
  690MOL0     H93111   6.558   2.670   3.130  2.1701 -2.5451 -1.9867
  690MOL0     H93112   6.562   2.584   3.289 -0.4532  0.9842  0.7167
  690MOL0     H93113   6.639   2.751   3.276  5.2890 -1.9338  1.1837
  690MOL0     H93114   6.675   2.025   2.949  1.3172  1.2005  2.0438
  690MOL0     H93115   6.501   1.889   2.881  0.3107 -2.9724  2.6743
  690MOL0     H93116   6.245   1.893   2.761 -0.2792 -0.1656  0.0087
  690MOL0     H93117   6.244   1.757   2.865 -2.8991 -2.0598  0.1274
  690MOL0     H93118   5.999   1.919   2.841 -0.1200  0.9331 -3.2768
  690MOL0     H93119   6.028   1.821   2.708 -1.0135  0.8306  0.4394
  690MOL0     H93120   5.942   1.731   2.982 -0.9985 -1.0427  0.1371
  690MOL0     H93121   6.061   1.626   2.906  1.5740  0.9195 -0.9231
  690MOL0     H93122   5.787   1.704   2.810 -0.3255  0.0241 -0.8069
  690MOL0     H93123   5.881   1.635   2.688 -3.5105 -0.3676 -0.0593
  690MOL0     H93124   5.857   1.470   2.943  3.0212  0.9962 -0.4079
  690MOL0     H93125   5.869   1.411   2.771 -2.5573 -1.4596  0.6466
  690MOL0     H93126   5.638   1.538   2.898 -1.2136 -0.7469 -0.2717
  690MOL0     H93127   5.660   1.517   2.720 -4.0562  1.0668  1.4164
  690MOL0     H93128   5.713   1.271   2.778  0.7654 -0.3488  0.4059
  690MOL0     H93129   5.541   1.326   2.779 -0.1084 -3.9863  0.4759
  690MOL0     H93130   5.513   1.310   2.993 -1.4018 -0.7936 -1.1236
  690MOL0     H93131   5.688   1.307   3.043 -0.7843  1.0075  0.2358
  690MOL0     H93132   6.213   2.145   3.083 -0.1245 -0.0983 -0.7735
  690MOL0     H93133   6.403   2.294   3.144 -0.5163 -0.4880  0.8390
  690MOL0     H93134   6.911   2.316   3.053 -2.1819 -0.7661  0.1909
  690MOL0     H93135   7.100   2.464   3.100 -0.4508  1.0470 -0.0781
  690MOL0     H93136   8.508   2.970   3.908 -1.6992 -2.1870  0.5555
  690MOL0     H93137   8.742   2.987   3.962 -0.4072 -2.4277  0.6583
  690MOL0     H93138   8.956   3.055   4.424 -0.4974  3.3104 -0.9817
  690MOL0     H93139   9.155   3.051   4.555 -2.7050 -1.3908 -0.3397
  690MOL0     H93140   9.364   3.223   4.534 -0.1064  0.7521  0.1345
  690MOL0     H93141   9.402   3.093   4.652  1.8784 -0.4513 -0.3896
  690MOL0     H93142   9.641   3.082   4.570 -1.2054 -0.8009  2.5124
  690MOL0     H93143   9.606   3.224   4.665  3.3529 -0.4397 -1.1447
  690MOL0     H93144   9.533   3.352   4.461 -2.3144 -2.1832  0.2800
  690MOL0     H93145   9.590   3.213   4.360  0.6402  3.1487 -2.4729
  690MOL0     H93146   9.769   3.376   4.342  3.5061 -2.1052 -0.5586
  690MOL0     H93147   9.827   3.250   4.447  0.7083  1.1203  2.9972
  690MOL0     H93148   9.823   3.584   4.693  0.3560  1.6779 -1.9380
  690MOL0     H93149   9.411   2.987   4.223  2.7417  3.3463  4.6410
  690MOL0     H93150   9.212   3.012   4.060 -2.3058  0.5949 -0.6161
  691MOL0     O93151   6.950   3.239   8.877 -0.0725  0.4111  0.1207
  691MOL0     C93152   6.990   3.350   8.864 -1.4355  0.0005 -0.1285
  691MOL0     O93153   6.922   3.464   8.820 -0.0076 -0.7050 -0.6203
  691MOL0     C93154   6.793   3.460   8.814  0.6796  0.1682  0.1486
  691MOL0     C93155   6.703   3.455   8.919 -0.1839  0.3360 -0.0483
  691MOL0     C93156   6.561   3.431   8.891 -0.6306  0.0032 -1.1928
  691MOL0     C93157   6.515   3.429   8.755  0.1608 -0.0452  0.5719
  691MOL0     O93158   6.378   3.414   8.745 -0.1599  0.0338  0.4831
  691MOL0     C93159   6.316   3.374   8.616 -0.5234  0.7350  0.6485
  691MOL0     C93160   6.162   3.372   8.638 -0.2713  0.2360  0.3751
  691MOL0     C93161   6.088   3.308   8.520  0.1017  0.8117  0.1665
  691MOL0     C93162   5.950   3.343   8.511  0.5743  0.0198  0.2554
  691MOL0     C93163   5.897   3.315   8.372  1.5915  0.4240 -1.1434
  691MOL0     C93164   5.742   3.369   8.361 -0.0130  0.9285  0.1183
  691MOL0     C93165   5.735   3.524   8.364 -0.5567  0.2966 -0.1300
  691MOL0     C93166   5.580   3.553   8.377 -0.7376  0.0373 -0.0863
  691MOL0     N93167   5.499   3.562   8.254  1.0657  1.2056 -0.2269
  691MOL0     C93168   5.406   3.471   8.208  0.1464 -1.0808  0.0738
  691MOL0     C93169   5.361   3.528   8.091  0.0675  0.0554 -0.1273
  691MOL0     C93170   5.245   3.492   7.999 -0.0466 -0.0973  0.1138
  691MOL0     C93171   5.203   3.598   7.897  0.4355 -0.2992 -0.3007
  691MOL0     C93172   5.084   3.559   7.813  1.3720 -0.3620 -0.6225
  691MOL0     C93173   5.049   3.668   7.705 -0.7717  0.0214 -0.3161
  691MOL0     O93174   4.915   3.668   7.667  0.1891  0.1277  0.0699
  691MOL0     C93175   4.816   3.719   7.742  0.0266 -0.1715 -0.2714
  691MOL0     C93176   4.801   3.853   7.766  1.2925  0.3184  0.0213
  691MOL0     C93177   4.674   3.900   7.818 -0.3478 -0.2355 -0.0444
  691MOL0     C93178   4.657   4.058   7.819 -0.0089 -0.7228  0.5164
  691MOL0     C93179   4.577   3.803   7.864  0.3230 -0.8082 -0.2068
  691MOL0     C93180   4.449   3.833   7.932 -0.5641 -0.5506 -0.5833
  691MOL0     O93181   4.403   3.963   7.935  0.1104 -0.5590  0.3271
  691MOL0     C93182   4.279   3.973   7.994 -0.2913 -0.2092 -0.7516
  691MOL0     C93183   4.271   4.076   8.095  0.0628  0.4531  0.6123
  691MOL0     C93184   4.143   4.115   8.141 -0.1905 -0.2948 -0.4251
  691MOL0     C93185   4.025   4.049   8.094 -0.5256 -0.9982 -0.6341
  691MOL0     O93186   3.905   4.074   8.138  0.7022  0.8353  0.0353
  691MOL0     C93187   3.868   4.100   8.276 -0.8597  0.1958 -0.6013
  691MOL0     C93188   3.716   4.103   8.281  0.5471 -0.6029  0.6060
  691MOL0     C93189   3.672   4.191   8.398 -0.0699 -0.4853 -0.4714
  691MOL0     C93190   3.527   4.214   8.400 -0.4919 -0.2809 -0.8508
  691MOL0     C93191   3.483   4.292   8.527  0.4961 -0.1522  0.8992
  691MOL0     C93192   3.343   4.352   8.518 -0.8770 -0.4660 -0.5217
  691MOL0     C93193   3.296   4.397   8.659 -0.3576  0.0848 -0.6868
  691MOL0     C93194   3.393   4.518   8.700  0.0072 -0.2131 -0.3721
  691MOL0    Cl93195   3.314   4.648   8.793 -0.3302  0.4761  0.0979
  691MOL0     C93196   4.034   3.949   7.997  0.3434  0.2592  0.0560
  691MOL0     C93197   4.162   3.917   7.945  0.7287  0.3032  0.4037
  691MOL0     O93198   4.403   3.747   8.005 -0.6322  0.2821  0.0996
  691MOL0     C93199   4.609   3.667   7.846 -0.6517 -0.2697  0.5845
  691MOL0     C93200   4.722   3.620   7.787 -0.7090 -0.3309  0.6420
  691MOL0     N93201   5.442   3.636   8.059 -0.3773  0.9053 -0.5595
  691MOL0     N93202   5.528   3.650   8.158 -0.0221 -0.4034  0.3710
  691MOL0     C93203   6.614   3.430   8.651  0.2160 -0.4505 -0.1036
  691MOL0     C93204   6.749   3.447   8.683 -0.1492  0.1638 -0.1549
  691MOL0     C93205   7.130   3.386   8.896 -0.6560 -0.6744 -0.3569
  691MOL0     C93206   7.216   3.279   8.934  0.4779  0.2266  0.1549
  691MOL0     C93207   7.348   3.314   8.965 -1.0880  0.0145 -0.0120
  691MOL0     C93208   7.399   3.450   8.969 -0.0262  0.1819  0.2365
  691MOL0     O93209   7.525   3.469   9.019 -0.2428  0.1844 -0.1609
  691MOL0     C93210   7.600   3.583   8.979 -0.2146  0.1583 -0.5534
  691MOL0     C93211   7.628   3.590   8.828 -0.3719 -0.6944  0.1371
  691MOL0     C93212   7.674   3.462   8.764 -0.5637 -0.2547  0.4353
  691MOL0     C93213   7.738   3.472   8.629 -1.1145 -0.0424 -0.9624
  691MOL0     C93214   7.856   3.382   8.626 -0.1529 -0.3849  0.0846
  691MOL0     C93215   7.939   3.298   8.621  0.4216  0.3041 -0.2758
  691MOL0     C93216   7.316   3.549   8.922  0.2525 -0.0984  0.7611
  691MOL0     C93217   7.188   3.522   8.877  0.1721  0.2412  1.2983
  691MOL0     H93218   6.739   3.453   9.022 -0.3281  2.0370  0.0689
  691MOL0     H93219   6.493   3.418   8.975  0.6733  1.8303  0.2358
  691MOL0     H93220   6.337   3.449   8.540  4.0235 -1.8064 -0.9833
  691MOL0     H93221   6.359   3.281   8.576  0.0886  1.7650 -1.2041
  691MOL0     H93222   6.137   3.303   8.719 -2.2472 -2.6622 -2.4383
  691MOL0     H93223   6.128   3.474   8.658 -0.1242  0.2856  0.3736
  691MOL0     H93224   6.132   3.345   8.427 -1.9147  1.2011 -0.6913
  691MOL0     H93225   6.098   3.199   8.519 -0.7709  0.7265 -1.1124
  691MOL0     H93226   5.892   3.295   8.590 -0.4969 -0.9363 -1.0715
  691MOL0     H93227   5.941   3.452   8.516 -3.4987 -0.1907  0.8437
  691MOL0     H93228   5.961   3.357   8.294  1.1429 -0.4281 -1.9905
  691MOL0     H93229   5.900   3.207   8.354  2.1154  0.8248 -3.8549
  691MOL0     H93230   5.718   3.341   8.258  0.5434 -0.2198  0.2847
  691MOL0     H93231   5.688   3.307   8.432 -0.1529 -3.3873 -3.2907
  691MOL0     H93232   5.771   3.569   8.457  3.7436  1.0281 -1.9215
  691MOL0     H93233   5.782   3.577   8.281 -2.1476  0.0442 -1.2243
  691MOL0     H93234   5.582   3.652   8.423  0.8798 -0.8181  1.8495
  691MOL0     H93235   5.531   3.483   8.445  1.3238 -0.3935  1.0588
  691MOL0     H93236   5.363   3.387   8.262  1.1251 -0.2517  2.2539
  691MOL0     H93237   5.271   3.406   7.937 -0.4224  0.3712 -0.7168
  691MOL0     H93238   5.157   3.468   8.060  0.0170 -1.9690 -0.4581
  691MOL0     H93239   5.287   3.621   7.832 -0.5716 -2.5751 -2.5886
  691MOL0     H93240   5.179   3.678   7.967  0.9953  0.6440 -1.1682
  691MOL0     H93241   4.998   3.541   7.878  2.5690  1.4399  1.6399
  691MOL0     H93242   5.098   3.472   7.749 -3.0483 -1.8546  0.1134
  691MOL0     H93243   5.097   3.645   7.609  0.2554 -2.2431  0.6696
  691MOL0     H93244   5.064   3.770   7.742 -2.4251  0.9978 -2.1080
  691MOL0     H93245   4.876   3.925   7.737 -0.3540  0.9363 -3.2058
  691MOL0     H93246   4.745   4.116   7.790 -1.4262  1.0609 -0.4237
  691MOL0     H93247   4.578   4.083   7.747  0.9764 -1.9164 -1.0526
  691MOL0     H93248   4.637   4.098   7.919  0.8174 -0.0241  0.4121
  691MOL0     H93249   4.353   4.142   8.123 -0.1307  0.5539  0.9419
  691MOL0     H93250   4.138   4.202   8.206  3.7912  1.7936 -2.5344
  691MOL0     H93251   3.896   4.026   8.350 -0.3854  1.9377  1.0427
  691MOL0     H93252   3.904   4.199   8.305  3.5693 -1.4289  0.2433
  691MOL0     H93253   3.682   4.151   8.189  0.8558 -0.3140  0.6380
  691MOL0     H93254   3.680   4.002   8.299  0.2351 -0.4120  1.0610
  691MOL0     H93255   3.728   4.285   8.390  1.0677 -1.0110  0.8252
  691MOL0     H93256   3.710   4.148   8.492 -1.4639  0.3919  0.5247
  691MOL0     H93257   3.494   4.277   8.317 -0.6174  0.7077 -0.0685
  691MOL0     H93258   3.481   4.115   8.389  0.6343 -1.1701  1.6089
  691MOL0     H93259   3.554   4.376   8.532  1.1652 -0.7764  2.3210
  691MOL0     H93260   3.508   4.223   8.608 -1.1965 -1.6531  0.2038
  691MOL0     H93261   3.339   4.426   8.438  1.5728 -1.8796 -2.0537
  691MOL0     H93262   3.280   4.265   8.494  0.4069 -1.9046  1.0258
  691MOL0     H93263   3.319   4.317   8.729  0.7126  0.0231 -1.0809
  691MOL0     H93264   3.192   4.430   8.663 -0.7542 -1.2079  2.5203
  691MOL0     H93265   3.431   4.577   8.616 -2.2529  1.0099 -0.6222
  691MOL0     H93266   3.476   4.474   8.756  0.6806 -0.3155 -1.4256
  691MOL0     H93267   3.943   3.901   7.963  1.2043 -1.4560  0.0437
  691MOL0     H93268   4.184   3.857   7.857  1.6324 -0.5486  1.1792
  691MOL0     H93269   4.545   3.593   7.893  1.7161 -2.3396  0.7895
  691MOL0     H93270   4.739   3.516   7.764 -1.1545 -0.1226 -0.7157
  691MOL0     H93271   6.581   3.424   8.548  0.5404  1.7306 -0.3627
  691MOL0     H93272   6.821   3.442   8.602  0.7178  1.8717  0.4807
  691MOL0     H93273   7.190   3.174   8.943  1.5515 -0.3119 -2.1361
  691MOL0     H93274   7.424   3.241   8.992 -0.3638  0.3463 -1.1098
  691MOL0     H93275   7.554   3.677   9.010  1.2147  1.0182 -0.9096
  691MOL0     H93276   7.698   3.588   9.028 -0.7690  0.8299  0.5227
  691MOL0     H93277   7.701   3.671   8.820 -1.5764  0.3160 -1.2151
  691MOL0     H93278   7.549   3.629   8.763  2.8552  1.4218 -2.8277
  691MOL0     H93279   7.594   3.388   8.756 -1.6586  0.9778 -0.2806
  691MOL0     H93280   7.748   3.422   8.835 -0.8630  0.1523  0.9816
  691MOL0     H93281   7.776   3.573   8.608  1.3511 -1.1442 -2.1686
  691MOL0     H93282   7.684   3.433   8.542  2.5620 -1.2781 -2.9017
  691MOL0     H93283   8.015   3.223   8.626  0.4782  0.3956  0.3545
  691MOL0     H93284   7.349   3.652   8.911  0.2970 -0.1837  0.0197
  691MOL0     H93285   7.131   3.598   8.824  2.2612  1.4425  0.6574
  692MOL0     O93286   3.047   6.285   1.859  1.2268  0.5818  0.9688
  692MOL0     C93287   3.123   6.199   1.815  0.0849  0.2073  0.0334
  692MOL0     O93288   3.076   6.087   1.745 -0.4106 -0.0374 -0.4127
  692MOL0     C93289   2.946   6.069   1.742 -0.4369  1.0745 -0.4515
  692MOL0     C93290   2.881   6.053   1.621 -0.3203  1.0235  0.1133
  692MOL0     C93291   2.743   6.030   1.618 -0.0816 -0.1674  0.0699
  692MOL0     C93292   2.663   6.020   1.733 -0.8554  0.7611  0.4225
  692MOL0     O93293   2.530   6.018   1.731  0.6041 -0.2342 -0.3281
  692MOL0     C93294   2.456   6.041   1.856 -0.8193  1.3135 -0.4256
  692MOL0     C93295   2.310   6.048   1.812  0.1653  0.2515  0.0440
  692MOL0     C93296   2.205   6.022   1.932  0.7409 -1.1903 -0.0342
  692MOL0     C93297   2.067   6.035   1.867  0.8951 -0.7189  0.0406
  692MOL0     C93298   1.956   6.041   1.976 -0.0871  0.5172  0.5085
  692MOL0     C93299   1.806   6.020   1.943  0.1165 -0.3630  0.1575
  692MOL0     C93300   1.749   6.138   1.847  0.3374 -0.0121  0.0026
  692MOL0     C93301   1.785   6.278   1.893 -0.1192  0.0494  0.5643
  692MOL0     N93302   1.687   6.373   1.838  0.0740  0.8834 -0.4245
  692MOL0     C93303   1.561   6.407   1.889 -0.3606  0.2832 -0.8139
  692MOL0     C93304   1.504   6.487   1.798 -0.1274  1.1500  0.6952
  692MOL0     C93305   1.372   6.560   1.829 -0.7177  1.2088 -0.2593
  692MOL0     C93306   1.384   6.708   1.780 -0.1648  0.4804 -0.3702
  692MOL0     C93307   1.266   6.792   1.808  0.0938 -0.9886 -0.2456
  692MOL0     C93308   1.212   6.785   1.948 -0.5314 -0.0953  0.4385
  692MOL0     O93309   1.114   6.884   1.975  0.1003 -0.5639  0.2526
  692MOL0     C93310   1.008   6.854   2.055  0.6148 -0.2675 -0.2224
  692MOL0     C93311   0.890   6.924   2.043 -0.2589  0.2854  0.8143
  692MOL0     C93312   0.780   6.903   2.126  1.1370 -0.3960 -0.3395
  692MOL0     C93313   0.649   6.976   2.082 -0.2098  0.2406 -0.3671
  692MOL0     C93314   0.782   6.807   2.220  0.9434 -0.5838 -0.2053
  692MOL0     C93315   0.668   6.775   2.316  0.2589  0.4706  0.4263
  692MOL0     O93316   0.540   6.787   2.272 -0.3487  0.0702  0.0740
  692MOL0     C93317   0.422   6.774   2.342  1.0025 -0.3783 -0.5518
  692MOL0     C93318   0.304   6.762   2.254 -0.0376  0.4329  0.2924
  692MOL0     C93319   0.180   6.727   2.305  0.1674  0.0245  0.2848
  692MOL0     C93320   0.165   6.701   2.442  0.1781  0.0432 -0.1144
  692MOL0     O93321   0.040   6.669   2.495  0.0901  0.3677  0.3208
  692MOL0     C93322  -0.086   6.677   2.411 -0.0446  0.4993  0.0907
  692MOL0     C93323  -0.117   6.530   2.369  0.3193 -0.2830 -0.4966
  692MOL0     C93324  -0.248   6.516   2.293 -1.0625  0.4515 -0.6100
  692MOL0     C93325  -0.247   6.392   2.195  0.9713 -0.3327 -0.0847
  692MOL0     C93326  -0.389   6.377   2.136 -0.4395  0.2554  0.3346
  692MOL0     C93327  -0.400   6.457   2.009  0.0242 -0.2024 -0.7565
  692MOL0     C93328  -0.534   6.413   1.936 -0.4100 -0.3160 -0.3276
  692MOL0     C93329  -0.587   6.523   1.839 -0.4342  0.3437 -1.1580
  692MOL0    Cl93330  -0.649   6.648   1.935 -0.2662 -0.2782  0.0508
  692MOL0     C93331   0.277   6.718   2.530 -1.1089  0.1220  0.2214
  692MOL0     C93332   0.407   6.753   2.480 -0.0555  0.1113 -0.4432
  692MOL0     O93333   0.696   6.730   2.419  0.9620  0.5461 -0.6930
  692MOL0     C93334   0.898   6.730   2.237  0.3629 -0.7082 -0.6637
  692MOL0     C93335   1.014   6.757   2.163 -0.5914 -0.5720 -0.2156
  692MOL0     N93336   1.576   6.479   1.687 -0.7914  0.1876  0.5716
  692MOL0     N93337   1.682   6.421   1.714  0.4068  0.1610 -0.0927
  692MOL0     C93338   2.731   6.019   1.855 -0.1547  0.5754 -0.5918
  692MOL0     C93339   2.870   6.044   1.854  0.5155 -0.1769 -0.5506
  692MOL0     C93340   3.268   6.217   1.829  1.4498 -0.2689 -0.4589
  692MOL0     C93341   3.356   6.110   1.810 -0.4309 -0.5242  0.0211
  692MOL0     C93342   3.494   6.125   1.827  0.0444  0.0903  0.1852
  692MOL0     C93343   3.548   6.255   1.857  0.7601  0.3411  0.1054
  692MOL0     O93344   3.675   6.284   1.880 -0.4957 -0.1041  0.4321
  692MOL0     C93345   3.765   6.282   1.770 -0.4772  0.4363  0.0833
  692MOL0     C93346   3.789   6.421   1.720  0.5322 -0.7528  0.8417
  692MOL0     C93347   3.863   6.494   1.831 -0.2407  0.1328 -0.7286
  692MOL0     C93348   3.782   6.612   1.885  0.5687 -0.5586 -0.2976
  692MOL0     C93349   3.847   6.667   2.000 -0.5171  0.0028 -0.6900
  692MOL0     C93350   3.884   6.725   2.100  0.5177 -0.1631 -0.1535
  692MOL0     C93351   3.456   6.365   1.862 -0.0444  1.3374 -0.1730
  692MOL0     C93352   3.314   6.349   1.857 -0.3504 -0.2412 -0.7619
  692MOL0     H93353   2.932   6.059   1.525 -0.0800 -0.4250  0.1333
  692MOL0     H93354   2.700   6.026   1.519  0.5003 -0.2346 -0.1850
  692MOL0     H93355   2.460   5.962   1.931  1.3744  1.7620  0.0195
  692MOL0     H93356   2.491   6.128   1.912  0.1953 -1.1192  3.0605
  692MOL0     H93357   2.299   6.143   1.759 -0.6423  1.4529  2.2636
  692MOL0     H93358   2.296   5.973   1.734  0.9757  2.9736 -2.9290
  692MOL0     H93359   2.220   5.926   1.983  1.0672 -2.8156 -3.0198
  692MOL0     H93360   2.228   6.088   2.016  2.1085 -1.2541 -0.3296
  692MOL0     H93361   2.067   6.130   1.813  2.5483 -1.3145 -1.0861
  692MOL0     H93362   2.055   5.958   1.791  2.4316 -1.4810  0.5095
  692MOL0     H93363   1.984   5.961   2.045  2.0547 -2.5360 -3.4181
  692MOL0     H93364   1.956   6.138   2.026  1.2168  2.4318 -2.8609
  692MOL0     H93365   1.792   5.922   1.896  3.9921 -0.0089 -2.2133
  692MOL0     H93366   1.748   6.029   2.035 -0.6500  0.3008 -0.3747
  692MOL0     H93367   1.780   6.130   1.742  2.2286  3.7149  0.0920
  692MOL0     H93368   1.640   6.131   1.860  0.1952  2.3363  0.6749
  692MOL0     H93369   1.882   6.289   1.845 -2.0366  0.7087 -3.5390
  692MOL0     H93370   1.790   6.294   2.001 -3.3089 -0.5689  0.9121
  692MOL0     H93371   1.523   6.391   1.990  0.2445  4.9707  0.4093
  692MOL0     H93372   1.291   6.511   1.774 -1.7639  0.4692  1.8217
  692MOL0     H93373   1.341   6.546   1.933  0.6854  2.3593  0.3456
  692MOL0     H93374   1.396   6.702   1.671 -1.6151 -1.1285 -0.4857
  692MOL0     H93375   1.464   6.766   1.827  1.4698 -1.8960 -0.0593
  692MOL0     H93376   1.185   6.779   1.736 -2.5444  4.2228  1.2700
  692MOL0     H93377   1.287   6.899   1.795  0.7057 -1.2154 -1.2655
  692MOL0     H93378   1.297   6.815   2.010 -0.7023  3.2222 -0.7107
  692MOL0     H93379   1.166   6.688   1.969 -4.7242  1.6528  0.1208
  692MOL0     H93380   0.895   6.998   1.964 -0.6890 -1.3188 -0.7653
  692MOL0     H93381   0.617   7.043   2.163 -1.6775 -1.7467  0.7777
  692MOL0     H93382   0.657   7.022   1.983 -0.9442 -2.0149 -1.5430
  692MOL0     H93383   0.571   6.900   2.069 -0.0833 -0.1590  1.0570
  692MOL0     H93384   0.330   6.769   2.149 -0.3430 -1.1572  0.0962
  692MOL0     H93385   0.097   6.716   2.236 -0.7113  2.8120  0.7576
  692MOL0     H93386  -0.167   6.706   2.478  1.4463  1.7048  1.4598
  692MOL0     H93387  -0.092   6.747   2.327  0.4435  2.6071  1.6981
  692MOL0     H93388  -0.029   6.485   2.323  1.1964 -1.9632  2.5471
  692MOL0     H93389  -0.123   6.478   2.465  0.6567 -0.8258 -0.7613
  692MOL0     H93390  -0.264   6.608   2.236  0.4555  1.8205  1.0343
  692MOL0     H93391  -0.338   6.497   2.353 -0.7313 -3.1353 -1.0397
  692MOL0     H93392  -0.176   6.413   2.114 -0.3257  0.0019 -1.1824
  692MOL0     H93393  -0.219   6.301   2.248  1.2016  0.2481  0.8145
  692MOL0     H93394  -0.466   6.399   2.210 -1.7810  1.6643 -1.3825
  692MOL0     H93395  -0.407   6.272   2.110 -1.3614  0.9578 -2.2462
  692MOL0     H93396  -0.402   6.565   2.030  1.3223 -0.5793  1.7347
  692MOL0     H93397  -0.312   6.437   1.948  1.2513 -0.0461  0.8998
  692MOL0     H93398  -0.615   6.374   1.998  1.6174 -0.6146  2.2904
  692MOL0     H93399  -0.504   6.322   1.884 -3.1511 -0.5114 -1.7502
  692MOL0     H93400  -0.662   6.483   1.770  0.4388  1.0463 -2.5557
  692MOL0     H93401  -0.501   6.547   1.777  0.4789 -1.0341 -0.4753
  692MOL0     H93402   0.261   6.688   2.633  1.5785 -1.3815  0.2953
  692MOL0     H93403   0.493   6.754   2.546  0.8990 -1.0176 -1.6265
  692MOL0     H93404   0.905   6.659   2.318 -0.9852 -3.1286 -2.5305
  692MOL0     H93405   1.106   6.703   2.183  0.1739  1.0349  0.7979
  692MOL0     H93406   2.685   5.998   1.951 -0.1995  3.2728  0.0589
  692MOL0     H93407   2.911   6.054   1.954 -0.7107  3.4449 -0.2671
  692MOL0     H93408   3.312   6.018   1.773  1.7643 -1.8698  0.5323
  692MOL0     H93409   3.564   6.044   1.816  0.9615  1.0656 -1.7230
  692MOL0     H93410   3.858   6.236   1.805  0.8296  2.6154 -0.3352
  692MOL0     H93411   3.719   6.221   1.691 -0.2235  1.3859 -0.8112
  692MOL0     H93412   3.689   6.456   1.692  0.4526 -1.1919  0.5712
  692MOL0     H93413   3.851   6.426   1.630 -3.2186 -0.3855 -1.9910
  692MOL0     H93414   3.953   6.545   1.796 -0.8815  3.6503  2.1481
  692MOL0     H93415   3.899   6.435   1.916 -0.7186  1.9106  0.7927
  692MOL0     H93416   3.678   6.588   1.911  0.0813  0.4758 -1.2168
  692MOL0     H93417   3.769   6.678   1.799  1.4919 -0.0724 -0.0702
  692MOL0     H93418   3.879   6.781   2.192 -3.7168  1.4208 -1.1019
  692MOL0     H93419   3.501   6.463   1.876  4.9321 -0.7631  0.6184
  692MOL0     H93420   3.244   6.432   1.856 -3.7426 -2.8670 -2.6401
  693MOL0     O93421   3.755  10.705   1.124 -0.0473  0.6585  0.5215
  693MOL0     C93422   3.856  10.720   1.048  0.5378 -0.6584  0.5166
  693MOL0     O93423   3.862  10.803   0.938  0.4451 -0.3710  0.4998
  693MOL0     C93424   3.754  10.878   0.910  0.6441  0.4991  0.0011
  693MOL0     C93425   3.685  10.851   0.789 -0.3575 -0.1104 -0.6295
  693MOL0     C93426   3.593  10.934   0.731  0.3493 -0.2087 -0.5681
  693MOL0     C93427   3.557  11.052   0.803  0.3601  0.8473  0.3529
  693MOL0     O93428   3.472  11.135   0.738  0.2541 -0.0857 -0.0325
  693MOL0     C93429   3.337  11.096   0.756 -0.5667 -0.0490 -0.0175
  693MOL0     C93430   3.258  11.135   0.638  0.2246 -0.4001  0.3775
  693MOL0     C93431   3.118  11.070   0.647 -0.3300  0.9380 -0.2604
  693MOL0     C93432   3.006  11.158   0.706 -0.9881 -0.1062 -0.5509
  693MOL0     C93433   2.866  11.123   0.664  0.1939  0.3304 -0.1816
  693MOL0     C93434   2.809  11.000   0.735  0.7270  0.9164 -0.3494
  693MOL0     C93435   2.658  10.999   0.716  0.1367 -0.3219  0.3296
  693MOL0     C93436   2.613  10.940   0.581  0.0005  0.4526 -0.3045
  693MOL0     N93437   2.467  10.932   0.575 -0.0363  0.0098  0.4253
  693MOL0     C93438   2.384  10.840   0.650 -0.2629  0.1446 -0.0620
  693MOL0     C93439   2.265  10.852   0.588  0.5062 -1.0549 -0.0859
  693MOL0     C93440   2.150  10.757   0.608 -0.0259 -0.2267  0.3720
  693MOL0     C93441   2.048  10.823   0.693  0.3300 -0.1844 -0.2940
  693MOL0     C93442   1.925  10.733   0.713  0.0402 -0.1073  0.3210
  693MOL0     C93443   1.836  10.792   0.827  0.1310 -0.1854 -0.0150
  693MOL0     O93444   1.733  10.699   0.867 -0.1558 -0.5968 -0.4513
  693MOL0     C93445   1.611  10.690   0.806  0.1979  0.3139 -0.1233
  693MOL0     C93446   1.577  10.750   0.679  0.4284  0.3496 -0.5556
  693MOL0     C93447   1.442  10.749   0.636 -0.3178 -0.0416  0.0150
  693MOL0     C93448   1.427  10.821   0.505 -0.1177 -0.2330 -0.1742
  693MOL0     C93449   1.344  10.680   0.716 -0.0266 -0.2849  0.6534
  693MOL0     C93450   1.188  10.693   0.699 -0.5158  0.0727  0.2744
  693MOL0     O93451   1.118  10.664   0.810  0.2554 -0.8634 -0.0780
  693MOL0     C93452   0.977  10.650   0.812 -0.6331 -0.4304  0.1119
  693MOL0     C93453   0.908  10.527   0.793  1.3576 -0.2986 -0.6740
  693MOL0     C93454   0.770  10.515   0.818  1.3482 -0.7371 -0.3428
  693MOL0     C93455   0.696  10.622   0.879 -0.6771  0.0311  0.1410
  693MOL0     O93456   0.566  10.618   0.908  0.4065 -0.2366  0.2526
  693MOL0     C93457   0.495  10.744   0.870 -0.7060 -1.0272  0.9769
  693MOL0     C93458   0.347  10.705   0.838  0.2583 -0.2087 -1.0594
  693MOL0     C93459   0.278  10.651   0.963  0.2622 -0.0826 -0.8767
  693MOL0     C93460   0.131  10.637   0.928  0.8485 -0.9220 -0.5405
  693MOL0     C93461   0.040  10.619   1.048 -0.2439 -0.7528 -0.6265
  693MOL0     C93462  -0.113  10.604   1.003 -0.4991  0.0361  0.1045
  693MOL0     C93463  -0.196  10.566   1.127 -0.7870  1.1449 -0.6645
  693MOL0     C93464  -0.326  10.487   1.088  0.2005  0.0542 -0.8255
  693MOL0    Cl93465  -0.425  10.595   0.989  0.4190 -0.2609 -0.1008
  693MOL0     C93466   0.772  10.740   0.902 -0.0593 -0.2139 -0.9379
  693MOL0     C93467   0.902  10.754   0.860 -0.5917  0.2518 -0.3223
  693MOL0     O93468   1.139  10.709   0.579  0.8239  0.1321  0.3637
  693MOL0     C93469   1.386  10.606   0.823 -0.1964 -0.5042 -0.6194
  693MOL0     C93470   1.513  10.610   0.868  0.0199 -0.2045 -0.3826
  693MOL0     N93471   2.270  10.943   0.484  0.3765  0.6687  0.0368
  693MOL0     N93472   2.391  10.989   0.479  0.0656  0.0670 -0.5848
  693MOL0     C93473   3.621  11.078   0.921 -0.0230 -1.1546 -0.2482
  693MOL0     C93474   3.716  10.996   0.981  0.4056 -0.3043  0.1637
  693MOL0     C93475   3.980  10.639   1.083 -0.6081  0.1053  0.1502
  693MOL0     C93476   3.970  10.537   1.180  0.4766  0.1063  0.9388
  693MOL0     C93477   4.078  10.460   1.219 -0.2493 -0.4917  1.3246
  693MOL0     C93478   4.195  10.470   1.133  1.1875 -0.2272 -0.1233
  693MOL0     O93479   4.292  10.380   1.142 -1.0078 -0.9972  0.2552
  693MOL0     C93480   4.297  10.270   1.237 -0.3516  0.4133 -0.5001
  693MOL0     C93481   4.385  10.160   1.179  0.3904 -0.1964  0.6453
  693MOL0     C93482   4.538  10.198   1.174  0.3583 -0.5651  0.3938
  693MOL0     C93483   4.587  10.243   1.034 -0.3038  0.4006 -0.8987
  693MOL0     C93484   4.551  10.142   0.929 -0.2761  0.3134  0.9639
  693MOL0     C93485   4.528  10.054   0.852  0.1364  0.1940  0.0434
  693MOL0     C93486   4.199  10.567   1.029 -0.5624 -0.9610 -0.0039
  693MOL0     C93487   4.100  10.662   1.010  0.8272  0.6123 -0.1913
  693MOL0     H93488   3.711  10.761   0.735  0.6529 -0.3027  0.1503
  693MOL0     H93489   3.558  10.913   0.630 -0.4376  0.4648 -0.4396
  693MOL0     H93490   3.325  10.987   0.760  0.6318 -0.2391 -0.8988
  693MOL0     H93491   3.295  11.148   0.842  0.6642  3.3211 -1.3027
  693MOL0     H93492   3.245  11.243   0.643  0.4173 -0.2907 -1.0486
  693MOL0     H93493   3.310  11.109   0.545 -3.0470 -0.8438 -1.4778
  693MOL0     H93494   3.086  11.062   0.542  0.5915 -1.6586 -0.4247
  693MOL0     H93495   3.123  10.968   0.685 -0.3797  0.2090 -2.0815
  693MOL0     H93496   3.005  11.135   0.813 -1.0797  1.2703 -0.2347
  693MOL0     H93497   3.026  11.265   0.700  1.2279 -0.5324 -1.8376
  693MOL0     H93498   2.801  11.207   0.689  0.7788  0.3138  1.5842
  693MOL0     H93499   2.865  11.097   0.558 -3.6881 -2.3665  0.3052
  693MOL0     H93500   2.867  10.917   0.692  0.8387 -0.2032  1.8294
  693MOL0     H93501   2.829  11.007   0.842  0.0040  0.0654 -0.1492
  693MOL0     H93502   2.612  10.945   0.799  0.6182  0.0365  0.8403
  693MOL0     H93503   2.616  11.100   0.716  0.2692 -0.0566 -4.0702
  693MOL0     H93504   2.652  10.839   0.566  1.1336  0.9400 -0.7024
  693MOL0     H93505   2.656  11.000   0.501  1.0911  1.1875  0.7955
  693MOL0     H93506   2.418  10.771   0.726 -0.0488  1.5559  1.1621
  693MOL0     H93507   2.114  10.717   0.513  0.8441 -2.4085  0.8860
  693MOL0     H93508   2.179  10.668   0.665 -0.8885  0.8258  2.5481
  693MOL0     H93509   2.023  10.922   0.652  1.8429  0.1866 -0.3638
  693MOL0     H93510   2.085  10.853   0.791 -2.3086  1.7238  0.2154
  693MOL0     H93511   1.961  10.639   0.755 -4.2808 -2.5184 -0.7907
  693MOL0     H93512   1.874  10.705   0.621 -0.5095 -3.9691  1.6325
  693MOL0     H93513   1.784  10.884   0.799  2.5351  1.5741  0.9067
  693MOL0     H93514   1.901  10.820   0.910 -0.0048  2.1278 -0.6225
  693MOL0     H93515   1.652  10.806   0.624 -1.3468  2.0504 -1.3735
  693MOL0     H93516   1.370  10.759   0.435 -2.1410  2.2038 -0.8690
  693MOL0     H93517   1.364  10.910   0.521  1.5324  0.9923 -0.2862
  693MOL0     H93518   1.523  10.853   0.464 -0.0457 -1.2606 -0.8602
  693MOL0     H93519   0.969  10.439   0.773 -0.7593 -1.8890 -0.5967
  693MOL0     H93520   0.712  10.424   0.825 -0.4737  0.3682 -0.2642
  693MOL0     H93521   0.500  10.812   0.956 -1.0892 -0.2180  0.3707
  693MOL0     H93522   0.539  10.792   0.782 -2.2064  2.0751  1.7667
  693MOL0     H93523   0.300  10.795   0.797  1.6581 -0.1354 -2.6254
  693MOL0     H93524   0.348  10.632   0.756  2.7705  1.3957 -2.5808
  693MOL0     H93525   0.291  10.709   1.055 -2.6197 -1.5002  0.5601
  693MOL0     H93526   0.331  10.557   0.981  0.3056  0.5630  3.6552
  693MOL0     H93527   0.093  10.726   0.877 -0.1956 -0.1316  1.4930
  693MOL0     H93528   0.123  10.556   0.855  0.5475  1.8644 -3.8924
  693MOL0     H93529   0.037  10.715   1.102 -2.1839 -0.3558 -1.3674
  693MOL0     H93530   0.074  10.532   1.105 -1.9163 -0.6310  0.6292
  693MOL0     H93531  -0.149  10.699   0.965  0.4238  0.4583  0.2724
  693MOL0     H93532  -0.127  10.523   0.930  2.1894  1.0323 -1.6529
  693MOL0     H93533  -0.211  10.655   1.189 -0.2465  1.0373 -0.3692
  693MOL0     H93534  -0.134  10.503   1.192 -0.7995  0.1173 -1.6079
  693MOL0     H93535  -0.391  10.453   1.169 -1.5008 -1.4613 -2.7298
  693MOL0     H93536  -0.311  10.399   1.025 -0.3899 -0.1877 -0.6321
  693MOL0     H93537   0.731  10.832   0.941  3.3875  0.8696  0.5430
  693MOL0     H93538   0.949  10.851   0.879 -0.0259  0.0630 -0.7316
  693MOL0     H93539   1.313  10.552   0.882  1.8177 -0.8582  1.7253
  693MOL0     H93540   1.541  10.557   0.959  3.3521  0.2259 -1.0313
  693MOL0     H93541   3.609  11.174   0.971 -0.1176 -0.5959 -1.3200
  693MOL0     H93542   3.772  11.040   1.063 -1.1238 -0.3128  1.2647
  693MOL0     H93543   3.880  10.523   1.240 -0.5742 -1.6943 -0.9113
  693MOL0     H93544   4.077  10.389   1.301 -3.2770 -1.8596  0.2722
  693MOL0     H93545   4.329  10.318   1.330 -0.7284  0.1805 -0.2464
  693MOL0     H93546   4.199  10.225   1.255 -1.5274  3.5036  2.0200
  693MOL0     H93547   4.339  10.145   1.081  1.8578 -4.2653  0.3768
  693MOL0     H93548   4.356  10.066   1.226 -1.2288  0.0353  0.1768
  693MOL0     H93549   4.601  10.114   1.203  2.5353  0.0739 -2.0693
  693MOL0     H93550   4.550  10.281   1.244 -1.2199 -0.3100  0.3912
  693MOL0     H93551   4.696  10.249   1.044 -0.3713 -0.0357  0.2564
  693MOL0     H93552   4.538  10.336   1.004  0.7563  0.4253 -2.6923
  693MOL0     H93553   4.498   9.975   0.787 -1.3147  1.2664 -0.6524
  693MOL0     H93554   4.288  10.552   0.968  1.0400  1.3429  1.5994
  693MOL0     H93555   4.109  10.728   0.925  1.1314 -2.1046 -2.4328
  694MOL0     O93556   9.260   8.891   0.779  0.0623 -0.4035 -0.3402
  694MOL0     C93557   9.260   8.814   0.684  0.1004  0.2502 -0.0148
  694MOL0     O93558   9.153   8.754   0.632 -0.1846 -0.2440 -0.3789
  694MOL0     C93559   9.019   8.776   0.660 -0.7360 -1.5937 -0.8750
  694MOL0     C93560   8.969   8.881   0.741  0.0353 -0.1293  0.4000
  694MOL0     C93561   8.829   8.886   0.760 -0.6302  0.1770  0.3289
  694MOL0     C93562   8.737   8.805   0.698  0.2947  0.8221 -0.0556
  694MOL0     O93563   8.601   8.813   0.693  0.0997 -0.3860 -0.2326
  694MOL0     C93564   8.536   8.846   0.820  1.0893  1.1905 -0.2608
  694MOL0     C93565   8.434   8.732   0.856  0.1947 -0.2240  0.4691
  694MOL0     C93566   8.290   8.769   0.797 -0.1348  0.5322 -0.5466
  694MOL0     C93567   8.189   8.662   0.833 -0.0795  0.3220 -0.2609
  694MOL0     C93568   8.051   8.698   0.808 -0.6294 -0.3233 -0.0149
  694MOL0     C93569   7.956   8.650   0.922  0.9325 -0.6817  0.3665
  694MOL0     C93570   7.816   8.710   0.907  0.1742  0.3573  0.3184
  694MOL0     C93571   7.724   8.644   0.808  0.3272 -0.1176  0.2129
  694MOL0     N93572   7.587   8.699   0.809  0.5813  0.2022  0.1553
  694MOL0     C93573   7.522   8.765   0.705 -0.0740 -0.4457 -0.5544
  694MOL0     C93574   7.396   8.795   0.753 -0.8734 -0.2169  0.2430
  694MOL0     C93575   7.288   8.879   0.688  0.1254 -0.2598 -0.3080
  694MOL0     C93576   7.292   9.023   0.765  0.2497  0.3349 -0.7428
  694MOL0     C93577   7.214   9.124   0.691  0.7841 -0.1547  0.1479
  694MOL0     C93578   7.103   9.180   0.784  0.3398 -0.1972  0.6370
  694MOL0     O93579   7.032   9.277   0.705  0.0844  0.1030 -0.0360
  694MOL0     C93580   6.904   9.305   0.744  0.4559  0.7691 -0.3156
  694MOL0     C93581   6.793   9.300   0.663  0.3370  0.2485  0.0756
  694MOL0     C93582   6.656   9.300   0.707 -0.1331 -0.1181  1.1984
  694MOL0     C93583   6.548   9.328   0.598 -0.3501  0.0616 -0.4902
  694MOL0     C93584   6.628   9.321   0.841 -0.1781  0.3646 -0.0559
  694MOL0     C93585   6.490   9.312   0.889 -0.3306 -0.2505 -0.7900
  694MOL0     O93586   6.475   9.372   1.010  0.0824  0.3255  0.3985
  694MOL0     C93587   6.350   9.407   1.048  0.0566 -0.3425 -0.3347
  694MOL0     C93588   6.257   9.458   0.962  1.0026 -0.6731 -0.0222
  694MOL0     C93589   6.137   9.494   1.012  0.6362  0.1741  0.1648
  694MOL0     C93590   6.098   9.466   1.146  0.0493 -0.1656 -0.4274
  694MOL0     O93591   5.970   9.485   1.199 -1.0001  0.4884 -0.4478
  694MOL0     C93592   5.858   9.481   1.112  1.3244 -0.3127  0.2809
  694MOL0     C93593   5.739   9.463   1.200  0.6929 -0.1874 -0.2164
  694MOL0     C93594   5.613   9.475   1.107 -0.2141 -0.3614 -0.1161
  694MOL0     C93595   5.493   9.418   1.181  0.5856 -1.1743 -0.0347
  694MOL0     C93596   5.452   9.514   1.299 -0.2760  0.0816 -0.1594
  694MOL0     C93597   5.320   9.471   1.366  1.1597  0.6710 -0.1471
  694MOL0     C93598   5.206   9.489   1.270  0.2435 -0.7634  0.1524
  694MOL0     C93599   5.071   9.484   1.338  0.4394  0.0085  0.9741
  694MOL0    Cl93600   4.947   9.545   1.219 -0.1096  0.0786  0.1727
  694MOL0     C93601   6.198   9.421   1.238  1.4125 -0.1746 -0.4674
  694MOL0     C93602   6.324   9.389   1.187  0.4230 -0.1090  0.7793
  694MOL0     O93603   6.404   9.255   0.825 -0.5024  0.8232 -0.3518
  694MOL0     C93604   6.740   9.321   0.931 -0.5886 -0.2551 -0.2181
  694MOL0     C93605   6.877   9.316   0.880  0.0733 -0.4238 -0.1899
  694MOL0     N93606   7.388   8.749   0.880  0.2632  0.1895 -0.1481
  694MOL0     N93607   7.502   8.693   0.915  0.8969 -0.2740 -0.0916
  694MOL0     C93608   8.793   8.709   0.608  0.0875 -0.1523 -0.2736
  694MOL0     C93609   8.935   8.690   0.600 -0.5896  0.3093 -0.8031
  694MOL0     C93610   9.386   8.760   0.621  0.9065 -0.2074  0.2253
  694MOL0     C93611   9.510   8.806   0.673 -0.0975  0.1508 -0.0603
  694MOL0     C93612   9.628   8.752   0.624  0.0484  0.1925 -0.7663
  694MOL0     C93613   9.637   8.650   0.533  0.0025 -0.3614 -0.0827
  694MOL0     O93614   9.753   8.596   0.476  0.1173  0.2807  0.6033
  694MOL0     C93615   9.872   8.594   0.559 -0.0416  0.7788 -0.4069
  694MOL0     C93616   9.971   8.499   0.491 -0.0762  0.3591 -0.2355
  694MOL0     C93617  10.106   8.487   0.567 -0.0446 -0.7087  0.2350
  694MOL0     C93618  10.202   8.381   0.501  1.0865 -0.0702 -0.4857
  694MOL0     C93619  10.346   8.382   0.544 -0.2707  0.1270 -0.4343
  694MOL0     C93620  10.457   8.384   0.590 -1.1328  0.0327 -0.0157
  694MOL0     C93621   9.514   8.609   0.480 -0.1638  0.9195  0.5131
  694MOL0     C93622   9.390   8.658   0.523 -0.0323 -0.2706  0.3474
  694MOL0     H93623   9.031   8.951   0.797  1.6784  0.5282 -2.0995
  694MOL0     H93624   8.780   8.965   0.817 -1.6819  0.0575 -0.4082
  694MOL0     H93625   8.618   8.855   0.893  0.5180  1.5408  0.3445
  694MOL0     H93626   8.491   8.945   0.817  2.3570  1.7921 -0.2690
  694MOL0     H93627   8.472   8.637   0.818 -2.5178 -1.3191  0.2902
  694MOL0     H93628   8.429   8.721   0.964  1.0310 -1.2169  0.4248
  694MOL0     H93629   8.272   8.863   0.851  3.2763  1.1654 -0.2349
  694MOL0     H93630   8.298   8.791   0.690 -0.2887  1.1592 -0.4327
  694MOL0     H93631   8.221   8.565   0.794  1.4059 -0.1862  2.0092
  694MOL0     H93632   8.200   8.654   0.941  3.0646  1.2952 -0.3936
  694MOL0     H93633   8.030   8.804   0.789  4.0161  0.4315 -2.3070
  694MOL0     H93634   8.016   8.639   0.723 -2.7840 -1.0676  1.3049
  694MOL0     H93635   7.948   8.541   0.917 -0.5394 -0.5483 -1.3286
  694MOL0     H93636   7.990   8.683   1.021 -2.2031 -1.1006  1.6832
  694MOL0     H93637   7.768   8.707   1.005  0.1282 -0.2227  0.2831
  694MOL0     H93638   7.828   8.815   0.879  1.8417 -0.2114 -1.2548
  694MOL0     H93639   7.734   8.537   0.829 -2.3687 -0.3511  0.5793
  694MOL0     H93640   7.774   8.657   0.711  0.5003  0.6196  0.3938
  694MOL0     H93641   7.553   8.781   0.602  0.8959 -0.5250 -0.2863
  694MOL0     H93642   7.312   8.886   0.582  2.7591 -0.5871  0.1918
  694MOL0     H93643   7.185   8.843   0.692  0.5688 -1.5974 -0.3871
  694MOL0     H93644   7.394   9.062   0.777 -0.7747  2.5018  2.0554
  694MOL0     H93645   7.250   9.018   0.866 -1.7852  4.6300 -1.1524
  694MOL0     H93646   7.161   9.081   0.605  2.1200  1.2252 -1.4220
  694MOL0     H93647   7.271   9.209   0.653 -0.5774  0.1478 -1.3407
  694MOL0     H93648   7.145   9.231   0.871  0.5055  2.5111 -0.9083
  694MOL0     H93649   7.035   9.098   0.805 -2.6742  1.9540 -0.0864
  694MOL0     H93650   6.818   9.279   0.559  0.7213 -0.4462  0.3029
  694MOL0     H93651   6.606   9.338   0.506  1.3535  0.5629  0.5973
  694MOL0     H93652   6.493   9.234   0.586  3.1780 -2.5281  1.7879
  694MOL0     H93653   6.498   9.421   0.629 -0.8536 -0.8359  1.5729
  694MOL0     H93654   6.279   9.481   0.858 -1.2241  0.2254 -0.3472
  694MOL0     H93655   6.069   9.542   0.943  4.0473  1.6353 -2.4795
  694MOL0     H93656   5.842   9.576   1.059 -3.1371 -1.2267 -0.3514
  694MOL0     H93657   5.854   9.392   1.049  2.3381 -0.4646  0.4086
  694MOL0     H93658   5.731   9.365   1.247  0.0521 -1.9746 -3.7224
  694MOL0     H93659   5.741   9.545   1.273 -1.7349 -1.5199  1.4823
  694MOL0     H93660   5.618   9.410   1.019 -1.7728 -0.7446  0.0563
  694MOL0     H93661   5.593   9.580   1.084  1.7414  0.2990  1.0107
  694MOL0     H93662   5.409   9.420   1.111  1.0167  1.1657 -0.5661
  694MOL0     H93663   5.511   9.316   1.215 -0.3100 -1.5496 -0.6510
  694MOL0     H93664   5.448   9.616   1.261  1.5566 -0.1765 -1.1561
  694MOL0     H93665   5.525   9.511   1.381 -0.0730 -1.6741 -0.3544
  694MOL0     H93666   5.319   9.365   1.393 -0.2089 -0.0530 -2.6851
  694MOL0     H93667   5.302   9.538   1.451 -3.1614 -0.9267  0.4750
  694MOL0     H93668   5.214   9.399   1.208 -0.2249 -0.1678 -0.7943
  694MOL0     H93669   5.215   9.583   1.215  2.7066 -0.9534  0.0855
  694MOL0     H93670   5.080   9.539   1.432  0.2958  2.4787 -0.3863
  694MOL0     H93671   5.057   9.377   1.360  2.4936 -1.2325 -2.8994
  694MOL0     H93672   6.178   9.400   1.343  0.7941  0.2048 -0.4981
  694MOL0     H93673   6.399   9.344   1.251 -0.0824 -1.6579  0.3431
  694MOL0     H93674   6.732   9.330   1.039  0.8970 -0.5443 -0.0503
  694MOL0     H93675   6.955   9.324   0.955 -0.1880 -0.9587  0.1442
  694MOL0     H93676   8.726   8.648   0.548  1.9262 -2.5014 -0.0577
  694MOL0     H93677   8.973   8.599   0.556 -0.5088 -0.9370  1.6444
  694MOL0     H93678   9.509   8.880   0.752 -1.5260  1.0428 -0.8674
  694MOL0     H93679   9.725   8.791   0.655 -0.8369  0.6615  1.6550
  694MOL0     H93680   9.914   8.695   0.558  1.5398  0.1739 -1.7260
  694MOL0     H93681   9.851   8.576   0.665  1.5407 -0.0233 -0.2031
  694MOL0     H93682   9.985   8.516   0.384  0.4084 -2.6071 -0.7578
  694MOL0     H93683   9.925   8.401   0.509 -0.2564  0.6915  1.2242
  694MOL0     H93684  10.095   8.478   0.675  2.5633 -2.0569  0.4738
  694MOL0     H93685  10.149   8.587   0.562 -0.0886 -0.5793  1.8542
  694MOL0     H93686  10.192   8.390   0.393  0.2286 -0.8942 -0.4926
  694MOL0     H93687  10.149   8.289   0.530 -1.2334  1.7845  1.6568
  694MOL0     H93688  10.559   8.391   0.619 -0.3626  0.0161 -2.4424
  694MOL0     H93689   9.508   8.527   0.409 -2.3820  2.8443 -1.7198
  694MOL0     H93690   9.296   8.616   0.486  0.2613  0.9096 -1.9317
  695MOL0     O93691   5.253   5.646   0.869 -0.0038 -0.5053 -0.5473
  695MOL0     C93692   5.247   5.732   0.787  0.1824  0.4362  0.1456
  695MOL0     O93693   5.143   5.754   0.701  0.1974  0.2088  0.2522
  695MOL0     C93694   5.026   5.691   0.720 -0.2750 -0.4675  0.3842
  695MOL0     C93695   4.966   5.652   0.598 -0.4549 -0.2402 -0.2792
  695MOL0     C93696   4.839   5.604   0.590 -0.1348  0.6792  0.1418
  695MOL0     C93697   4.767   5.577   0.698 -0.1977 -1.0766 -0.2501
  695MOL0     O93698   4.632   5.536   0.675  0.0563  0.0536  0.4584
  695MOL0     C93699   4.545   5.539   0.795  0.5859  0.1215 -0.2173
  695MOL0     C93700   4.400   5.483   0.774  0.4209  0.0362 -1.2607
  695MOL0     C93701   4.403   5.330   0.758  0.3647  0.1859 -0.2610
  695MOL0     C93702   4.264   5.279   0.741  0.5118  0.3884 -0.1006
  695MOL0     C93703   4.264   5.136   0.691 -0.5842  0.6806 -0.1936
  695MOL0     C93704   4.135   5.079   0.659  0.4980  1.1533 -0.4308
  695MOL0     C93705   4.139   4.928   0.646 -0.2294 -0.8973  0.3058
  695MOL0     C93706   4.035   4.876   0.551  0.5691  0.1361 -0.3221
  695MOL0     N93707   3.898   4.922   0.586 -0.0499 -0.5660 -0.2745
  695MOL0     C93708   3.844   5.031   0.529 -0.0028 -0.0552 -0.2729
  695MOL0     C93709   3.715   5.035   0.571 -0.8267 -0.9100  0.6688
  695MOL0     C93710   3.600   5.114   0.525  1.3543  0.7148  0.3247
  695MOL0     C93711   3.517   5.026   0.432  0.7939 -0.2156 -0.4625
  695MOL0     C93712   3.364   5.052   0.459 -0.0162 -1.0232 -1.1898
  695MOL0     C93713   3.281   4.962   0.375 -1.0823  0.3236 -0.5938
  695MOL0     O93714   3.149   5.015   0.366 -0.0707 -0.6569 -1.5305
  695MOL0     C93715   3.048   4.954   0.298  0.3116 -1.4047 -0.1249
  695MOL0     C93716   3.056   4.822   0.256 -0.5895  0.3814  0.0875
  695MOL0     C93717   2.965   4.759   0.156  0.2569 -0.1380  0.3194
  695MOL0     C93718   2.982   4.611   0.121  0.6701  0.0944 -1.0071
  695MOL0     C93719   2.865   4.846   0.107 -0.3654  0.3400 -0.1632
  695MOL0     C93720   2.757   4.804   0.013 -0.3682  0.4684  1.0306
  695MOL0     O93721   2.666   4.900  -0.034  0.8984  0.6514  0.3764
  695MOL0     C93722   2.535   4.866  -0.066 -0.1948  0.4243 -0.6847
  695MOL0     C93723   2.469   4.920  -0.182  0.8488  0.2013 -0.4239
  695MOL0     C93724   2.336   4.900  -0.202 -0.1775 -0.3581 -0.1079
  695MOL0     C93725   2.266   4.823  -0.115 -0.1049  0.0293 -0.2001
  695MOL0     O93726   2.130   4.807  -0.126 -0.7771 -0.0028  1.2555
  695MOL0     C93727   2.110   4.681  -0.199 -0.0015 -0.3785 -0.3408
  695MOL0     C93728   1.958   4.646  -0.199  0.0670 -0.0139  0.2750
  695MOL0     C93729   1.924   4.545  -0.306  0.1498  0.2352  0.2760
  695MOL0     C93730   1.966   4.401  -0.257  0.1058 -0.4046  0.6140
  695MOL0     C93731   1.945   4.287  -0.366  0.7423 -0.3190 -1.0104
  695MOL0     C93732   2.043   4.316  -0.480 -0.3422  0.2986 -0.0943
  695MOL0     C93733   2.034   4.224  -0.599  0.1766 -0.0026  0.5047
  695MOL0     C93734   2.068   4.300  -0.726 -0.6140 -0.6109 -0.3592
  695MOL0    Cl93735   2.236   4.351  -0.734 -0.4041 -0.2029 -0.1314
  695MOL0     C93736   2.325   4.767  -0.001 -0.2516  0.4726 -0.3694
  695MOL0     C93737   2.456   4.791   0.031 -0.1854 -0.0534 -0.9188
  695MOL0     O93738   2.741   4.686  -0.003  0.0210 -0.0149  0.3568
  695MOL0     C93739   2.859   4.981   0.152 -0.0651 -0.0248  0.0902
  695MOL0     C93740   2.949   5.034   0.241 -0.8927  0.3418 -0.4597
  695MOL0     N93741   3.702   4.928   0.661  0.3359  0.4435 -0.0487
  695MOL0     N93742   3.808   4.862   0.670  0.3971 -0.5855 -0.1317
  695MOL0     C93743   4.818   5.616   0.826 -0.2408 -0.4369 -0.1114
  695MOL0     C93744   4.950   5.664   0.835 -0.1060  0.3897  0.2508
  695MOL0     C93745   5.356   5.835   0.798  1.1817  0.4443  0.6467
  695MOL0     C93746   5.327   5.966   0.756 -0.3005  0.8154 -0.0201
  695MOL0     C93747   5.418   6.061   0.781  0.7715  0.9582  0.1288
  695MOL0     C93748   5.532   6.045   0.865 -0.1234 -0.5554  1.1140
  695MOL0     O93749   5.608   6.159   0.881 -0.5297 -0.1686 -0.2445
  695MOL0     C93750   5.701   6.168   0.987  0.1297 -0.1710  0.6645
  695MOL0     C93751   5.782   6.300   0.995  0.4745 -0.1056 -1.3638
  695MOL0     C93752   5.693   6.423   1.009  0.4992 -0.3429  0.1729
  695MOL0     C93753   5.657   6.481   0.862 -0.0873  0.1567 -0.1353
  695MOL0     C93754   5.773   6.547   0.799 -0.2178  1.1102 -0.6099
  695MOL0     C93755   5.873   6.600   0.763  0.1379  0.4436  0.2552
  695MOL0     C93756   5.560   5.915   0.896 -0.1990  0.4619  0.0451
  695MOL0     C93757   5.477   5.810   0.864 -0.3750 -0.2541  0.3735
  695MOL0     H93758   5.018   5.651   0.502  1.0815 -2.6039  0.4905
  695MOL0     H93759   4.806   5.567   0.494  2.3504  0.8237 -0.8514
  695MOL0     H93760   4.574   5.494   0.890 -0.7553  1.2922  0.7774
  695MOL0     H93761   4.538   5.644   0.823 -0.5011 -0.2411  0.9875
  695MOL0     H93762   4.330   5.521   0.849  0.0784  0.4850 -1.7983
  695MOL0     H93763   4.363   5.518   0.677  0.0416 -1.6459 -1.7536
  695MOL0     H93764   4.462   5.308   0.669  0.4981  0.9628 -0.3709
  695MOL0     H93765   4.461   5.294   0.844  1.7810 -1.4907 -1.8520
  695MOL0     H93766   4.207   5.285   0.835 -2.0568 -0.9759 -1.4608
  695MOL0     H93767   4.206   5.337   0.668  1.5613 -0.2562 -1.4890
  695MOL0     H93768   4.321   5.131   0.598  1.3572  2.1725  0.8321
  695MOL0     H93769   4.330   5.079   0.757  1.0950  3.1114  0.3576
  695MOL0     H93770   4.068   5.103   0.741  0.0160  0.3877 -0.5888
  695MOL0     H93771   4.105   5.127   0.565 -0.5482  0.4096 -0.4959
  695MOL0     H93772   4.240   4.908   0.608  0.4994  0.0823  1.6572
  695MOL0     H93773   4.125   4.877   0.741 -0.6855 -0.4861  0.4623
  695MOL0     H93774   4.034   4.767   0.539 -0.7060  0.2189 -1.1353
  695MOL0     H93775   4.073   4.915   0.456  2.7311  0.3663  0.5909
  695MOL0     H93776   3.879   5.096   0.448 -0.2269  0.3598 -0.0406
  695MOL0     H93777   3.545   5.156   0.610  1.4255 -0.4756  0.9918
  695MOL0     H93778   3.636   5.204   0.475  1.4809  0.6124  0.2284
  695MOL0     H93779   3.543   4.923   0.456  0.6362 -0.2158 -0.2865
  695MOL0     H93780   3.541   5.040   0.327  0.2766 -0.9807 -0.6848
  695MOL0     H93781   3.337   5.157   0.442  0.1198 -0.1905  2.8064
  695MOL0     H93782   3.333   5.038   0.563 -0.4175 -0.0538 -1.1704
  695MOL0     H93783   3.288   4.864   0.423 -0.0411  0.9201  0.5382
  695MOL0     H93784   3.316   4.943   0.273  3.4873  2.7912  0.2004
  695MOL0     H93785   3.133   4.766   0.306  0.2033  1.0180 -0.3998
  695MOL0     H93786   2.899   4.564   0.174  3.4162 -2.1343  1.6270
  695MOL0     H93787   2.972   4.588   0.015 -4.2037 -0.0609 -0.7206
  695MOL0     H93788   3.069   4.568   0.173 -0.6188  3.0469  4.3293
  695MOL0     H93789   2.523   4.976  -0.258  2.1007 -0.2353  0.1205
  695MOL0     H93790   2.284   4.944  -0.286  2.4363  2.5660 -0.3721
  695MOL0     H93791   2.153   4.687  -0.299  0.4503  2.3493 -0.0512
  695MOL0     H93792   2.160   4.592  -0.160 -1.2311 -0.4058  1.2938
  695MOL0     H93793   1.915   4.620  -0.101 -0.3979 -0.3929 -0.0253
  695MOL0     H93794   1.903   4.737  -0.220 -0.2327 -0.0121  1.0192
  695MOL0     H93795   1.971   4.573  -0.401 -0.9516 -0.5827 -0.5345
  695MOL0     H93796   1.816   4.551  -0.319 -0.0890  1.0239  2.3341
  695MOL0     H93797   2.070   4.395  -0.223  0.5549 -0.0167 -0.6375
  695MOL0     H93798   1.903   4.379  -0.171 -1.3478  1.3568  0.0641
  695MOL0     H93799   1.840   4.282  -0.394  0.3951 -1.2643  0.3389
  695MOL0     H93800   1.972   4.194  -0.314 -2.5351 -0.5578  0.5141
  695MOL0     H93801   2.002   4.410  -0.519  0.8623  1.0616  0.3956
  695MOL0     H93802   2.145   4.335  -0.444 -1.2484  2.9990  1.3000
  695MOL0     H93803   1.932   4.187  -0.613 -0.5807  2.8473 -2.9471
  695MOL0     H93804   2.090   4.131  -0.586 -0.7728 -0.8601 -1.2479
  695MOL0     H93805   2.000   4.386  -0.718 -1.9527 -1.5920 -0.7116
  695MOL0     H93806   2.047   4.241  -0.816 -0.1128  1.2577 -1.7616
  695MOL0     H93807   2.251   4.710   0.055 -0.8821  0.8306 -0.8244
  695MOL0     H93808   2.498   4.744   0.120  1.9787 -0.6913 -2.2121
  695MOL0     H93809   2.786   5.053   0.114  1.1246  0.4242 -1.4332
  695MOL0     H93810   2.935   5.138   0.270 -0.7200  1.0822 -2.8810
  695MOL0     H93811   4.766   5.612   0.921  2.8440 -1.5591  1.6707
  695MOL0     H93812   4.998   5.686   0.929  0.2483 -1.4919  0.5393
  695MOL0     H93813   5.232   5.992   0.709 -1.4498  0.3487  1.9165
  695MOL0     H93814   5.386   6.162   0.761  0.3302  0.8523  0.3053
  695MOL0     H93815   5.650   6.149   1.081 -0.0258 -0.4966  0.5154
  695MOL0     H93816   5.766   6.080   0.977  0.8398  0.4080  0.0724
  695MOL0     H93817   5.846   6.314   0.907  1.9091 -0.4526 -0.4100
  695MOL0     H93818   5.832   6.299   1.093 -1.8954  1.1239 -0.0664
  695MOL0     H93819   5.737   6.495   1.079  0.6073 -2.8499  2.8426
  695MOL0     H93820   5.600   6.389   1.057  0.2726 -1.0632 -0.7616
  695MOL0     H93821   5.570   6.546   0.873 -2.2642 -1.6729 -4.2946
  695MOL0     H93822   5.625   6.405   0.790  2.2990 -1.2551  0.1807
  695MOL0     H93823   5.967   6.646   0.742 -0.6151  1.0514 -2.1289
  695MOL0     H93824   5.661   5.882   0.918  0.1424 -1.9888 -4.0608
  695MOL0     H93825   5.503   5.709   0.894  0.8045 -0.0425  0.0934
  696MOL0     O93826   0.241   1.341   4.602  0.0056 -0.2018 -0.6623
  696MOL0     C93827   0.243   1.465   4.619  0.5267  0.6814  0.4399
  696MOL0     O93828   0.133   1.548   4.624  0.5353 -0.2838 -0.1285
  696MOL0     C93829   0.006   1.493   4.614 -0.0408 -0.2285  0.6756
  696MOL0     C93830  -0.038   1.396   4.703 -0.3824  0.4267  1.2383
  696MOL0     C93831  -0.163   1.341   4.690 -0.5900 -0.7222 -0.4660
  696MOL0     C93832  -0.255   1.403   4.597  0.8693  1.3289 -0.2143
  696MOL0     O93833  -0.386   1.373   4.572 -0.1021 -0.1978  0.7095
  696MOL0     C93834  -0.406   1.234   4.595  0.1256 -0.6639  0.1427
  696MOL0     C93835  -0.527   1.188   4.517 -1.4682  0.1107  1.1954
  696MOL0     C93836  -0.662   1.233   4.572  0.1974  0.8110 -0.3787
  696MOL0     C93837  -0.777   1.224   4.467 -0.3808 -0.4898  0.0066
  696MOL0     C93838  -0.908   1.276   4.526  0.8584 -0.2747 -0.7086
  696MOL0     C93839  -1.005   1.183   4.603  0.2611  0.5320  0.0981
  696MOL0     C93840  -1.086   1.261   4.713 -0.0782  0.5224 -0.2987
  696MOL0     C93841  -1.166   1.155   4.792 -0.2731  0.2835 -0.6445
  696MOL0     N93842  -1.269   1.216   4.869 -0.2426 -0.3937  0.8478
  696MOL0     C93843  -1.393   1.247   4.813 -0.4147 -0.7654  0.3055
  696MOL0     C93844  -1.448   1.323   4.909  0.5112  0.1670  0.3412
  696MOL0     C93845  -1.576   1.391   4.901  0.2069  0.1398 -0.3477
  696MOL0     C93846  -1.575   1.518   4.812 -0.2141 -0.5113 -0.2431
  696MOL0     C93847  -1.653   1.636   4.859 -0.1315 -0.8297 -0.1871
  696MOL0     C93848  -1.804   1.602   4.881  0.0928 -0.4911 -0.2177
  696MOL0     O93849  -1.874   1.557   4.766  0.1113 -0.1525 -0.6724
  696MOL0     C93850  -1.993   1.492   4.788  0.1101  0.3205  0.3114
  696MOL0     C93851  -2.048   1.432   4.906  0.2778 -0.9554  0.2867
  696MOL0     C93852  -2.162   1.348   4.903 -0.2494 -0.2509 -0.3311
  696MOL0     C93853  -2.215   1.297   5.032 -0.8407 -0.7627 -0.4648
  696MOL0     C93854  -2.233   1.345   4.782 -0.1866  0.0828 -0.3875
  696MOL0     C93855  -2.361   1.273   4.771 -0.5328 -0.8854 -0.7986
  696MOL0     O93856  -2.446   1.325   4.683  0.0324 -0.8239 -0.1435
  696MOL0     C93857  -2.570   1.270   4.680  0.1996 -0.4570 -0.9695
  696MOL0     C93858  -2.671   1.281   4.779  0.7614 -0.4228  0.0166
  696MOL0     C93859  -2.804   1.240   4.756 -0.1725  0.6055  0.7906
  696MOL0     C93860  -2.830   1.150   4.655  0.1138 -0.4402 -0.0358
  696MOL0     O93861  -2.955   1.097   4.640 -0.1016 -0.8085 -0.9860
  696MOL0     C93862  -2.964   0.954   4.680  0.3622 -0.3287 -0.3403
  696MOL0     C93863  -2.953   0.937   4.834 -0.6548 -0.4312  0.0956
  696MOL0     C93864  -3.050   1.033   4.917 -0.2571 -0.0075 -0.2402
  696MOL0     C93865  -3.184   0.958   4.959  0.9671 -1.0021  0.4101
  696MOL0     C93866  -3.275   1.050   5.030 -0.3467 -0.6435 -0.8064
  696MOL0     C93867  -3.413   0.999   5.052 -1.2610  0.5751  0.2776
  696MOL0     C93868  -3.489   1.116   5.119  0.2852 -0.1304 -0.5826
  696MOL0     C93869  -3.632   1.139   5.055  0.0948 -0.5749  0.4394
  696MOL0    Cl93870  -3.714   1.250   5.165 -0.3129 -0.2087 -0.1517
  696MOL0     C93871  -2.729   1.118   4.566 -0.2729 -0.3714  0.6855
  696MOL0     C93872  -2.604   1.185   4.573 -0.0652  0.2932  0.3545
  696MOL0     O93873  -2.373   1.169   4.826 -0.1117  0.4868 -1.1670
  696MOL0     C93874  -2.188   1.420   4.670  0.4897  0.6913 -0.0571
  696MOL0     C93875  -2.061   1.478   4.666  0.4859  0.4110  0.1086
  696MOL0     N93876  -1.355   1.337   5.014  0.5447  0.0759 -0.5362
  696MOL0     N93877  -1.251   1.271   4.990 -0.1211  0.5231  0.4827
  696MOL0     C93878  -0.212   1.504   4.517  0.1122 -0.2555  1.0130
  696MOL0     C93879  -0.076   1.540   4.516  0.1045  0.5419  0.4092
  696MOL0     C93880   0.379   1.517   4.642 -0.3447 -0.5031  0.1469
  696MOL0     C93881   0.408   1.651   4.622 -0.4805 -0.0589  0.7348
  696MOL0     C93882   0.530   1.698   4.655  0.6051 -0.2206 -0.7681
  696MOL0     C93883   0.642   1.621   4.703  0.9191  0.8800  0.4965
  696MOL0     O93884   0.753   1.681   4.752  0.3373 -0.1626  0.1629
  696MOL0     C93885   0.869   1.602   4.774 -0.3478 -0.4711 -0.2133
  696MOL0     C93886   0.999   1.690   4.795 -0.6349 -0.7423 -0.6405
  696MOL0     C93887   1.123   1.608   4.828 -0.4142 -0.0480 -0.0143
  696MOL0     C93888   1.239   1.707   4.870 -0.7288 -0.4998 -0.3554
  696MOL0     C93889   1.217   1.777   4.999  0.3538  0.9836  1.2256
  696MOL0     C93890   1.187   1.837   5.105 -0.7521 -0.2548  0.1880
  696MOL0     C93891   0.615   1.485   4.707  0.5778 -0.3329  0.1324
  696MOL0     C93892   0.485   1.438   4.680  1.0008 -0.3738  0.4139
  696MOL0     H93893   0.028   1.356   4.779  0.3377  0.6195  0.7252
  696MOL0     H93894  -0.201   1.274   4.766 -3.1754  1.0246 -0.0706
  696MOL0     H93895  -0.321   1.174   4.562  1.0300  2.0171 -2.8281
  696MOL0     H93896  -0.435   1.213   4.699  0.9999  0.5566  0.6529
  696MOL0     H93897  -0.519   1.217   4.412  0.9087  0.6763  1.4728
  696MOL0     H93898  -0.525   1.078   4.519  0.6124 -0.1437 -3.4097
  696MOL0     H93899  -0.696   1.174   4.658 -0.4049  1.3203 -0.2527
  696MOL0     H93900  -0.643   1.334   4.610 -0.5993  0.3621  1.3494
  696MOL0     H93901  -0.751   1.288   4.383  1.3174  2.4231  2.5815
  696MOL0     H93902  -0.782   1.121   4.430 -1.0960 -0.7340  0.7397
  696MOL0     H93903  -0.888   1.363   4.589 -2.7224 -1.2854  2.2202
  696MOL0     H93904  -0.967   1.315   4.442  0.3085  0.1642 -0.1250
  696MOL0     H93905  -1.069   1.146   4.522  3.9566  0.8864 -3.2734
  696MOL0     H93906  -0.945   1.104   4.649 -1.5019 -0.0898  1.4303
  696MOL0     H93907  -1.023   1.322   4.779  0.0101 -0.2246  0.3223
  696MOL0     H93908  -1.158   1.330   4.669 -1.0360 -2.1420 -3.1755
  696MOL0     H93909  -1.104   1.084   4.849 -0.4736  0.9209  0.3916
  696MOL0     H93910  -1.215   1.096   4.714 -2.7534 -0.2179  1.1777
  696MOL0     H93911  -1.435   1.207   4.722 -0.1646  2.2473 -1.2371
  696MOL0     H93912  -1.647   1.323   4.853 -0.0603  0.8982 -1.0669
  696MOL0     H93913  -1.598   1.421   5.004  0.3039 -3.1823  0.7609
  696MOL0     H93914  -1.618   1.486   4.717 -3.9108 -0.0936  1.1157
  696MOL0     H93915  -1.473   1.546   4.783 -1.1230  1.4888 -1.7279
  696MOL0     H93916  -1.621   1.712   4.786  1.6090 -1.9038 -0.5816
  696MOL0     H93917  -1.612   1.671   4.954 -2.1875  1.7820 -0.1172
  696MOL0     H93918  -1.857   1.691   4.918 -1.3467 -2.0204  1.5807
  696MOL0     H93919  -1.821   1.531   4.962 -1.1949 -0.7592 -0.6998
  696MOL0     H93920  -2.008   1.444   5.006  0.1120 -1.2012  0.3846
  696MOL0     H93921  -2.217   1.188   5.031 -0.8781 -0.8608 -4.3057
  696MOL0     H93922  -2.153   1.320   5.119 -4.6735 -0.2879  2.4351
  696MOL0     H93923  -2.315   1.327   5.066  0.0452 -0.4479  2.0854
  696MOL0     H93924  -2.653   1.345   4.865 -0.9666  2.3391 -1.5567
  696MOL0     H93925  -2.881   1.256   4.831 -1.0279  1.6536 -0.2734
  696MOL0     H93926  -3.061   0.913   4.651  1.0176 -0.5865 -2.3024
  696MOL0     H93927  -2.893   0.892   4.624 -2.7935 -3.8898 -0.7574
  696MOL0     H93928  -2.979   0.833   4.856 -1.1549 -0.2484  0.3915
  696MOL0     H93929  -2.850   0.964   4.863 -0.5229  2.2962 -2.4302
  696MOL0     H93930  -3.079   1.124   4.864 -0.9198  0.2039  0.4597
  696MOL0     H93931  -2.996   1.066   5.007 -0.8108 -3.4616  1.5127
  696MOL0     H93932  -3.232   0.937   4.862 -1.3545  0.3402  1.1852
  696MOL0     H93933  -3.171   0.869   5.022  1.8711 -1.4336 -0.3584
  696MOL0     H93934  -3.278   1.141   4.970  0.0905  0.1748  0.3695
  696MOL0     H93935  -3.224   1.078   5.123 -2.6691  0.9107  0.0911
  696MOL0     H93936  -3.458   0.991   4.952 -1.1684  0.3402  0.2547
  696MOL0     H93937  -3.430   0.915   5.120 -0.0308 -0.5194 -0.7220
  696MOL0     H93938  -3.430   1.207   5.132 -1.3733  0.7631  1.2241
  696MOL0     H93939  -3.503   1.084   5.222 -2.1008  0.5083 -0.6454
  696MOL0     H93940  -3.682   1.041   5.057 -3.2596  0.9865 -0.4486
  696MOL0     H93941  -3.632   1.167   4.949 -3.0602 -1.5154  0.1049
  696MOL0     H93942  -2.740   1.056   4.478 -0.0240 -1.7813  1.6089
  696MOL0     H93943  -2.536   1.175   4.489 -2.5507  0.5983 -1.8536
  696MOL0     H93944  -2.254   1.406   4.585 -2.9437 -1.6484  2.7266
  696MOL0     H93945  -2.031   1.535   4.579  0.2060  0.9212  0.3430
  696MOL0     H93946  -0.271   1.560   4.445  2.2581  3.4919  1.9396
  696MOL0     H93947  -0.042   1.620   4.451 -2.6865  0.2160 -1.6213
  696MOL0     H93948   0.338   1.724   4.584  1.8920  1.6097 -0.7659
  696MOL0     H93949   0.535   1.805   4.640 -1.0411 -0.0744 -0.4546
  696MOL0     H93950   0.855   1.537   4.861 -2.7660 -1.3490 -1.1829
  696MOL0     H93951   0.877   1.519   4.702 -0.8582 -2.4012  1.8311
  696MOL0     H93952   0.979   1.755   4.881  0.1849 -1.1324 -0.1383
  696MOL0     H93953   1.012   1.751   4.705 -0.5927 -0.5994 -0.5395
  696MOL0     H93954   1.146   1.540   4.746 -2.7427  1.7736 -2.3814
  696MOL0     H93955   1.097   1.549   4.916 -0.9757  1.0979  0.6126
  696MOL0     H93956   1.257   1.790   4.801  6.1241 -1.4008 -0.3442
  696MOL0     H93957   1.339   1.664   4.862  0.7037  2.7015 -1.2474
  696MOL0     H93958   1.166   1.887   5.197  0.3063  1.6046 -0.5086
  696MOL0     H93959   0.675   1.402   4.744  1.7966  0.6025  0.3217
  696MOL0     H93960   0.461   1.338   4.716  2.2583  0.0538  2.5901
  697MOL0     O93961   0.654  10.562   6.515 -0.7190 -0.1860  0.6273
  697MOL0     C93962   0.661  10.647   6.603 -0.4637  0.5267  0.5787
  697MOL0     O93963   0.567  10.745   6.623 -0.1337  0.1457 -0.3134
  697MOL0     C93964   0.432  10.737   6.596  0.0169  0.9717  0.1980
  697MOL0     C93965   0.373  10.613   6.572 -0.4454  0.2168 -0.4525
  697MOL0     C93966   0.251  10.594   6.518 -0.0186  1.0379 -0.2345
  697MOL0     C93967   0.168  10.707   6.496  0.2832 -1.3058 -0.4809
  697MOL0     O93968   0.033  10.683   6.461 -0.5955 -0.1013  0.1172
  697MOL0     C93969  -0.061  10.769   6.497  0.5882  0.3040  0.8484
  697MOL0     C93970  -0.203  10.722   6.459 -0.3405 -0.3600 -0.3470
  697MOL0     C93971  -0.296  10.802   6.534  0.0716 -0.1972 -0.3561
  697MOL0     C93972  -0.441  10.752   6.519 -0.0651 -0.1611 -0.6880
  697MOL0     C93973  -0.529  10.793   6.641  0.1927  0.3520  0.5348
  697MOL0     C93974  -0.665  10.710   6.619 -0.0136 -0.3636 -1.0289
  697MOL0     C93975  -0.788  10.761   6.707  0.0139 -0.5666  0.4627
  697MOL0     C93976  -0.761  10.735   6.855  0.4371  0.8969 -0.5024
  697MOL0     N93977  -0.823  10.830   6.938  0.3174 -0.5445 -0.2493
  697MOL0     C93978  -0.761  10.936   7.006 -0.3525  1.0750  0.4156
  697MOL0     C93979  -0.864  11.018   7.036  0.0695 -1.3254  0.8555
  697MOL0     C93980  -0.855  11.148   7.106 -0.0861 -0.5263  0.4894
  697MOL0     C93981  -0.822  11.113   7.256 -0.5245  0.5385  0.4110
  697MOL0     C93982  -0.840  11.230   7.351  0.1253  0.4410 -0.0336
  697MOL0     C93983  -0.709  11.293   7.415 -0.0171  0.8257 -0.1211
  697MOL0     O93984  -0.655  11.190   7.500 -0.7494  0.5817  0.4851
  697MOL0     C93985  -0.528  11.142   7.474 -0.9962 -0.6432 -0.1753
  697MOL0     C93986  -0.494  11.051   7.574  0.2983 -1.6566 -0.0266
  697MOL0     C93987  -0.367  11.002   7.582 -0.8062 -0.4211  0.6198
  697MOL0     C93988  -0.348  10.899   7.688  0.6218 -0.2682  0.4228
  697MOL0     C93989  -0.267  11.038   7.487 -1.0803 -0.4348 -0.3961
  697MOL0     C93990  -0.126  10.987   7.491  0.2362 -0.3453 -0.6937
  697MOL0     O93991  -0.107  10.863   7.543 -0.4248  0.3572  0.0126
  697MOL0     C93992   0.020  10.812   7.552  0.0380  0.2564  0.0061
  697MOL0     C93993   0.097  10.786   7.434  0.7132  0.0633 -0.0579
  697MOL0     C93994   0.222  10.739   7.442 -0.8877 -0.2263  0.2255
  697MOL0     C93995   0.281  10.706   7.566 -0.5326 -0.2177  0.2816
  697MOL0     O93996   0.415  10.679   7.572  0.1550  0.4836 -0.3012
  697MOL0     C93997   0.471  10.645   7.695 -0.4534 -0.0993 -0.7881
  697MOL0     C93998   0.622  10.602   7.672 -0.0415 -0.0002  0.3539
  697MOL0     C93999   0.671  10.532   7.801 -0.4321  0.6184  0.9634
  697MOL0     C94000   0.820  10.494   7.769 -0.2989 -0.2628 -0.4093
  697MOL0     C94001   0.868  10.420   7.899 -0.5144 -0.9495  0.1561
  697MOL0     C94002   1.000  10.338   7.877 -0.3075 -0.5993 -0.5230
  697MOL0     C94003   1.030  10.236   7.986 -0.6911 -0.3141 -0.6067
  697MOL0     C94004   1.044  10.292   8.133 -0.9367 -0.3779  0.7247
  697MOL0    Cl94005   1.147  10.180   8.243  0.1339  0.2040 -0.0944
  697MOL0     C94006   0.205  10.736   7.685  0.0758  0.2718  0.3140
  697MOL0     C94007   0.072  10.778   7.676  0.4523  0.1066 -0.3177
  697MOL0     O94008  -0.034  11.064   7.472  1.2690  0.2577 -0.1502
  697MOL0     C94009  -0.300  11.142   7.398  0.2295 -0.0613 -0.1230
  697MOL0     C94010  -0.429  11.199   7.394  0.1989 -0.0145 -0.4116
  697MOL0     N94011  -0.987  10.947   7.004 -1.0227 -0.0477 -0.1582
  697MOL0     N94012  -0.958  10.834   6.958  0.4616  0.1191  0.4069
  697MOL0     C94013   0.221  10.834   6.534  0.0061  0.2638 -1.5204
  697MOL0     C94014   0.348  10.850   6.584  0.7527  0.2052 -1.3999
  697MOL0     C94015   0.787  10.642   6.684  0.6831 -0.6554 -0.2385
  697MOL0     C94016   0.897  10.569   6.633  0.0358  0.2564 -0.6245
  697MOL0     C94017   1.018  10.568   6.713  0.0311 -0.0245  0.5239
  697MOL0     C94018   1.030  10.637   6.831 -0.1923 -0.6795 -1.0624
  697MOL0     O94019   1.144  10.649   6.903  0.6011  0.2307 -0.0651
  697MOL0     C94020   1.252  10.547   6.900  1.0125  0.1802 -0.1899
  697MOL0     C94021   1.336  10.565   7.024 -0.0270 -0.4446 -1.0974
  697MOL0     C94022   1.429  10.447   7.052 -0.9885  0.1161 -0.0078
  697MOL0     C94023   1.357  10.358   7.160  0.3087  0.2634  0.9402
  697MOL0     C94024   1.394  10.222   7.136 -0.2324 -0.6589 -0.3477
  697MOL0     C94025   1.419  10.106   7.130 -0.1988 -0.1401 -0.2277
  697MOL0     C94026   0.925  10.713   6.873  0.6914  0.1737  0.2081
  697MOL0     C94027   0.804  10.729   6.794 -0.1847 -0.2895 -0.5119
  697MOL0     H94028   0.434  10.524   6.574  0.4138  0.7830 -0.9088
  697MOL0     H94029   0.229  10.490   6.496 -2.4847  1.4289  0.0974
  697MOL0     H94030  -0.055  10.795   6.603 -0.5040 -1.2250  1.3100
  697MOL0     H94031  -0.050  10.868   6.451 -2.2645 -1.2888 -3.9624
  697MOL0     H94032  -0.230  10.729   6.353 -0.8187  0.7136 -0.1665
  697MOL0     H94033  -0.217  10.617   6.485 -2.2863  0.3475  1.8017
  697MOL0     H94034  -0.259  10.799   6.637  0.2254  0.9684 -0.3648
  697MOL0     H94035  -0.298  10.907   6.502  2.2008  0.6693  2.0448
  697MOL0     H94036  -0.488  10.782   6.426 -1.6682 -1.2032 -0.2577
  697MOL0     H94037  -0.455  10.643   6.521 -3.6335  0.1447  2.4266
  697MOL0     H94038  -0.485  10.763   6.736 -2.7360 -1.6213  1.4148
  697MOL0     H94039  -0.550  10.900   6.653 -0.7973  0.2426 -0.1381
  697MOL0     H94040  -0.685  10.715   6.511  0.4184  1.0107 -1.0659
  697MOL0     H94041  -0.642  10.607   6.645 -3.5995 -0.4881  2.5701
  697MOL0     H94042  -0.791  10.867   6.680  0.3867  0.1530  2.9879
  697MOL0     H94043  -0.885  10.717   6.681  0.6781 -0.9106 -1.6057
  697MOL0     H94044  -0.654  10.731   6.877  0.0548  0.6848  1.4973
  697MOL0     H94045  -0.797  10.635   6.880  0.7920  1.0866  0.8278
  697MOL0     H94046  -0.655  10.955   7.018 -0.5005  0.6003  3.1672
  697MOL0     H94047  -0.778  11.205   7.054 -1.1645  1.1881  0.6886
  697MOL0     H94048  -0.955  11.189   7.090 -0.1848 -1.3695 -1.3703
  697MOL0     H94049  -0.722  11.068   7.262  0.6154  2.9002  0.2155
  697MOL0     H94050  -0.893  11.030   7.268 -0.4170  0.2080 -1.0299
  697MOL0     H94051  -0.894  11.179   7.431  0.3564 -0.7189 -0.6042
  697MOL0     H94052  -0.896  11.304   7.294 -0.9284 -0.7720 -0.6115
  697MOL0     H94053  -0.745  11.374   7.479  0.6215  0.4865  0.6841
  697MOL0     H94054  -0.635  11.346   7.354  0.6896  0.6137  0.5308
  697MOL0     H94055  -0.574  11.024   7.642  0.3890 -0.4637  0.5644
  697MOL0     H94056  -0.433  10.903   7.756  2.8250  0.9613  3.3084
  697MOL0     H94057  -0.340  10.800   7.643 -0.4555 -0.1110 -0.1362
  697MOL0     H94058  -0.259  10.917   7.749 -0.6694  0.3172  2.1824
  697MOL0     H94059   0.054  10.799   7.335  0.4093 -0.4819  0.0004
  697MOL0     H94060   0.284  10.727   7.354  1.7479  0.7959  1.8202
  697MOL0     H94061   0.468  10.723   7.771  0.5053 -1.6494  0.9435
  697MOL0     H94062   0.428  10.557   7.744  2.2004 -2.5704 -2.5044
  697MOL0     H94063   0.633  10.521   7.600  1.7541 -0.1888  0.7897
  697MOL0     H94064   0.678  10.691   7.645  2.9451 -1.8481 -0.0173
  697MOL0     H94065   0.610  10.447   7.832 -1.2640  0.5457 -0.7852
  697MOL0     H94066   0.674  10.597   7.889 -1.9681 -1.5321  2.6913
  697MOL0     H94067   0.811  10.423   7.687 -2.6218 -0.4566 -0.0455
  697MOL0     H94068   0.879  10.578   7.731 -1.9949  1.3160  0.2859
  697MOL0     H94069   0.787  10.359   7.941 -0.9521 -1.0328 -0.7764
  697MOL0     H94070   0.898  10.494   7.974  2.9924 -2.2858  0.2297
  697MOL0     H94071   0.997  10.283   7.783  2.7991 -2.0758  0.1256
  697MOL0     H94072   1.085  10.405   7.859 -1.3142  0.1608 -2.8388
  697MOL0     H94073   1.130  10.202   7.960 -0.4022  1.7574 -2.5125
  697MOL0     H94074   0.957  10.155   7.986  0.1015 -1.0407 -0.4407
  697MOL0     H94075   0.946  10.319   8.172 -1.2799 -1.2114  0.4678
  697MOL0     H94076   1.094  10.389   8.119  1.1036 -1.5783 -0.9163
  697MOL0     H94077   0.235  10.697   7.782  0.0747 -1.2928 -0.2769
  697MOL0     H94078   0.009  10.805   7.760 -0.9950  1.3217 -1.7205
  697MOL0     H94079  -0.224  11.179   7.329 -0.3465 -1.0040 -1.3073
  697MOL0     H94080  -0.451  11.271   7.316  0.6328  1.2593  0.6088
  697MOL0     H94081   0.156  10.920   6.530  1.3013  1.5265  1.6652
  697MOL0     H94082   0.377  10.952   6.606 -1.8322  0.4044  1.9500
  697MOL0     H94083   0.895  10.505   6.545  1.0672 -1.8804  0.8456
  697MOL0     H94084   1.098  10.499   6.687  0.4645 -0.4303  2.6749
  697MOL0     H94085   1.198  10.451   6.895  1.0801  0.1532 -0.4628
  697MOL0     H94086   1.307  10.563   6.807  2.5012 -0.8095  0.4860
  697MOL0     H94087   1.261  10.569   7.103 -0.7923 -1.1994 -1.7687
  697MOL0     H94088   1.387  10.662   7.025 -2.2460  0.7926  1.1971
  697MOL0     H94089   1.522  10.494   7.086 -1.0383  2.7159 -2.9237
  697MOL0     H94090   1.446  10.393   6.958  1.9958  1.2212 -0.2245
  697MOL0     H94091   1.249  10.370   7.150  0.4519  0.4649 -0.5587
  697MOL0     H94092   1.374  10.393   7.262 -0.0614 -0.0902  1.1265
  697MOL0     H94093   1.432   9.999   7.124  1.4237 -0.1417  1.9265
  697MOL0     H94094   0.945  10.772   6.962 -0.9421  1.4720 -0.2472
  697MOL0     H94095   0.728  10.806   6.810 -0.0261 -0.0362 -0.9451
  698MOL0     O94096  10.615  10.719   6.020 -0.0839  1.0060  0.6095
  698MOL0     C94097  10.661  10.617   6.064 -0.5128 -0.5528 -0.8784
  698MOL0     O94098  10.619  10.548   6.172  0.0396  0.0982  0.5434
  698MOL0     C94099  10.491  10.574   6.216  0.8726  0.6563 -0.9267
  698MOL0     C94100  10.402  10.469   6.227 -0.1318 -0.2102  0.2356
  698MOL0     C94101  10.275  10.489   6.286  0.4169  0.0034 -0.3093
  698MOL0     C94102  10.244  10.615   6.346 -0.3493 -0.0073  0.6830
  698MOL0     O94103  10.127  10.615   6.420 -0.7297  0.6851 -0.5897
  698MOL0     C94104  10.115  10.712   6.519 -0.8366 -0.6401  0.8890
  698MOL0     C94105  10.004  10.687   6.625 -0.6460 -0.0279  0.8734
  698MOL0     C94106  10.035  10.571   6.709  0.3092  0.2614 -0.1735
  698MOL0     C94107   9.903  10.516   6.771  0.6120 -0.5273 -0.2756
  698MOL0     C94108   9.905  10.391   6.850 -0.2931 -0.4809 -0.4422
  698MOL0     C94109   9.941  10.255   6.773 -0.4391  0.9599 -0.5897
  698MOL0     C94110   9.845  10.220   6.658 -1.1431 -1.1913 -0.3125
  698MOL0     C94111   9.907  10.230   6.524  0.6712  1.1067  0.6254
  698MOL0     N94112   9.823  10.246   6.404 -0.4795 -0.0376  0.4513
  698MOL0     C94113   9.730  10.160   6.354 -0.1753 -0.7784  0.1768
  698MOL0     C94114   9.644  10.244   6.288 -0.0802 -0.1428  0.4257
  698MOL0     C94115   9.517  10.196   6.223  0.7512 -0.0569 -0.2986
  698MOL0     C94116   9.422  10.293   6.281  0.5448  0.2595 -0.0402
  698MOL0     C94117   9.283  10.250   6.255  0.2389 -0.0503  0.8647
  698MOL0     C94118   9.165  10.310   6.340 -0.7560 -0.0898  0.0563
  698MOL0     O94119   9.132  10.221   6.448  0.0788 -0.0127 -0.2930
  698MOL0     C94120   9.065  10.272   6.559  0.0161 -0.6362  0.0168
  698MOL0     C94121   9.048  10.201   6.677 -0.7833  0.1785 -0.1951
  698MOL0     C94122   8.979  10.254   6.794 -0.3817 -0.2278 -0.0726
  698MOL0     C94123   8.971  10.171   6.928 -0.2011 -0.1605  1.0402
  698MOL0     C94124   8.921  10.385   6.789  0.4791  0.3336 -0.8511
  698MOL0     C94125   8.838  10.452   6.896 -0.1887 -0.0776  0.0444
  698MOL0     O94126   8.823  10.585   6.888  0.6712 -0.0798 -0.3479
  698MOL0     C94127   8.762  10.643   7.003 -1.1612  0.2621 -0.4191
  698MOL0     C94128   8.835  10.680   7.121  0.0318  0.8486  0.3593
  698MOL0     C94129   8.774  10.766   7.218  0.8153 -0.4949 -0.1986
  698MOL0     C94130   8.644  10.813   7.204 -0.8608  0.0780  0.1195
  698MOL0     O94131   8.599  10.893   7.310 -0.2020  0.2324 -0.3372
  698MOL0     C94132   8.471  10.953   7.309 -0.4742 -0.0572 -0.3671
  698MOL0     C94133   8.361  10.880   7.378  0.6024 -0.5142 -0.7659
  698MOL0     C94134   8.229  10.950   7.364 -0.0877 -0.9304 -0.0334
  698MOL0     C94135   8.123  10.862   7.437 -0.1897  0.3929  0.5126
  698MOL0     C94136   7.978  10.924   7.427 -0.5646  0.4980 -0.3187
  698MOL0     C94137   7.875  10.820   7.470  0.3706 -0.4590  0.2597
  698MOL0     C94138   7.730  10.850   7.413 -0.1421  0.0974  0.8109
  698MOL0     C94139   7.624  10.748   7.462 -0.3606  0.0870 -0.5636
  698MOL0    Cl94140   7.683  10.582   7.440  0.1369  0.3372  0.2633
  698MOL0     C94141   8.571  10.758   7.098 -0.5046 -0.4688 -0.6418
  698MOL0     C94142   8.633  10.686   6.997  0.2952 -0.6474  0.5258
  698MOL0     O94143   8.791  10.382   6.985  0.2815  0.5343  0.2462
  698MOL0     C94144   8.938  10.462   6.672 -0.2427  0.4752  0.9668
  698MOL0     C94145   9.016  10.409   6.562  1.2495  0.1128 -1.0787
  698MOL0     N94146   9.693  10.375   6.307  0.4669  0.1489 -0.2580
  698MOL0     N94147   9.802  10.370   6.360 -0.2763  0.0418  0.4398
  698MOL0     C94148  10.335  10.724   6.334 -0.5443  0.2973  0.0539
  698MOL0     C94149  10.454  10.696   6.272  0.0665  0.0178  0.0632
  698MOL0     C94150  10.778  10.554   5.994  1.1437 -0.0912  0.5745
  698MOL0     C94151  10.869  10.627   5.917 -0.3362 -0.2829  0.1862
  698MOL0     C94152  10.986  10.555   5.866  0.3566 -0.7421  0.6474
  698MOL0     C94153  11.000  10.420   5.878 -0.1823  0.5190 -0.2710
  698MOL0     O94154  11.102  10.355   5.814 -0.1807  0.1365 -0.0115
  698MOL0     C94155  11.076  10.315   5.680 -0.3361  0.4776  0.2795
  698MOL0     C94156  11.198  10.247   5.621 -0.0401 -0.0846  0.4755
  698MOL0     C94157  11.255  10.138   5.703 -0.2089  0.1396 -0.3972
  698MOL0     C94158  11.376  10.068   5.640 -0.1680 -0.3705  0.9606
  698MOL0     C94159  11.323   9.952   5.560  0.3110  1.1232 -0.0361
  698MOL0     C94160  11.297   9.848   5.510 -0.2051 -0.1125 -0.0902
  698MOL0     C94161  10.893  10.352   5.938 -0.0655 -0.0952  0.6726
  698MOL0     C94162  10.784  10.419   5.995 -0.4458  0.0169  0.0371
  698MOL0     H94163  10.427  10.372   6.187 -1.7716 -0.9568  0.8988
  698MOL0     H94164  10.198  10.413   6.297 -0.7643  1.3429  1.2353
  698MOL0     H94165  10.205  10.720   6.581 -0.4324  0.0611  0.2243
  698MOL0     H94166  10.108  10.809   6.468 -1.0740 -1.0660  0.1048
  698MOL0     H94167   9.982  10.773   6.688 -1.9878  0.1561  0.1845
  698MOL0     H94168   9.912  10.667   6.569  1.1784 -0.9890 -1.9971
  698MOL0     H94169  10.086  10.490   6.655  1.6232  0.7024  0.3599
  698MOL0     H94170  10.103  10.601   6.789  0.2493 -1.5988  0.6420
  698MOL0     H94171   9.869  10.598   6.835  1.1988 -0.9025  0.5284
  698MOL0     H94172   9.836  10.496   6.687  2.0037 -1.6940 -1.1502
  698MOL0     H94173   9.981  10.409   6.926 -0.5227 -1.4938  0.0328
  698MOL0     H94174   9.807  10.384   6.898 -0.4259  0.8502 -0.4750
  698MOL0     H94175  10.043  10.265   6.736 -0.1945  0.3476 -0.0700
  698MOL0     H94176   9.935  10.182   6.854  1.9680  1.8512  0.4732
  698MOL0     H94177   9.792  10.125   6.673 -1.2072 -1.0192  0.6106
  698MOL0     H94178   9.758  10.286   6.665 -2.6963 -3.2123  0.6763
  698MOL0     H94179   9.960  10.140   6.493 -0.5074  0.6955 -0.2994
  698MOL0     H94180   9.973  10.317   6.518  3.3533 -0.8868 -2.2634
  698MOL0     H94181   9.723  10.052   6.344 -3.1591 -0.7847  1.2698
  698MOL0     H94182   9.513  10.202   6.114 -3.4872  4.0707 -0.2572
  698MOL0     H94183   9.493  10.095   6.256 -0.3778  0.1202 -0.5316
  698MOL0     H94184   9.434  10.397   6.248 -0.7003  0.2605 -0.5199
  698MOL0     H94185   9.439  10.295   6.389  1.2047 -0.5858 -0.1150
  698MOL0     H94186   9.281  10.143   6.276  0.4463 -0.0816  0.7339
  698MOL0     H94187   9.259  10.269   6.150  0.9632 -3.2313  0.0046
  698MOL0     H94188   9.075  10.332   6.282 -0.5795  2.1814  0.5735
  698MOL0     H94189   9.198  10.411   6.364 -0.9156  0.0092 -0.1349
  698MOL0     H94190   9.064  10.096   6.697 -1.6817  0.5171  2.7447
  698MOL0     H94191   9.002  10.223   7.019  2.4847  0.2259 -0.0284
  698MOL0     H94192   8.866  10.142   6.940 -0.3862  0.8484  2.0164
  698MOL0     H94193   9.028  10.078   6.915  1.4973  0.8780  0.8275
  698MOL0     H94194   8.935  10.642   7.133 -0.4721 -1.6538 -2.2805
  698MOL0     H94195   8.825  10.796   7.310 -1.0300 -0.4808  0.8574
  698MOL0     H94196   8.494  11.046   7.362  0.8902  0.4321 -1.7727
  698MOL0     H94197   8.451  10.977   7.204  1.8933  1.4848 -0.5181
  698MOL0     H94198   8.351  10.781   7.332  1.3089 -1.1579  0.4241
  698MOL0     H94199   8.383  10.866   7.484  1.6577  1.0191 -0.7482
  698MOL0     H94200   8.205  10.960   7.258 -1.6809  0.2590  0.4122
  698MOL0     H94201   8.228  11.050   7.409 -4.2902 -0.8012 -0.0993
  698MOL0     H94202   8.113  10.768   7.381 -0.5134  0.0608  1.1146
  698MOL0     H94203   8.144  10.827   7.539 -0.7697 -0.6290  0.2916
  698MOL0     H94204   7.951  10.951   7.324 -2.1645 -0.3625 -0.1565
  698MOL0     H94205   7.977  11.017   7.485  2.3571 -0.3749  1.3071
  698MOL0     H94206   7.893  10.720   7.429 -4.0162 -0.4624 -2.2985
  698MOL0     H94207   7.867  10.809   7.578  0.2099 -0.0464  0.2914
  698MOL0     H94208   7.731  10.852   7.303  0.8153 -0.6977  0.7945
  698MOL0     H94209   7.701  10.951   7.445 -1.6338  0.9837 -2.7403
  698MOL0     H94210   7.528  10.771   7.416  0.2370  1.4968 -1.1666
  698MOL0     H94211   7.601  10.758   7.568  3.3920  1.6305  0.2810
  698MOL0     H94212   8.469  10.795   7.091 -1.1373 -2.0991 -0.3149
  698MOL0     H94213   8.572  10.673   6.908  1.2367 -1.5980 -0.0022
  698MOL0     H94214   8.899  10.563   6.668  0.7055  0.8094 -2.0531
  698MOL0     H94215   9.014  10.477   6.477  1.4208  4.1866  1.8708
  698MOL0     H94216  10.305  10.823   6.367  1.8719  1.3652 -0.6728
  698MOL0     H94217  10.519  10.783   6.268  0.2506 -0.0942  0.5569
  698MOL0     H94218  10.866  10.735   5.917 -4.2833 -0.2518  0.2624
  698MOL0     H94219  11.052  10.622   5.811  1.6910 -0.6488  2.2831
  698MOL0     H94220  10.989  10.248   5.673  1.1116 -1.3520 -1.4197
  698MOL0     H94221  11.055  10.397   5.612 -1.4054 -0.2857 -0.3401
  698MOL0     H94222  11.271  10.329   5.624 -0.6984  0.5370  4.2220
  698MOL0     H94223  11.168  10.211   5.522  0.5269  1.1760 -0.1810
  698MOL0     H94224  11.175  10.064   5.714  0.1643 -0.3789 -1.0819
  698MOL0     H94225  11.283  10.192   5.794  0.1523  1.9908 -1.5602
  698MOL0     H94226  11.459  10.043   5.708  4.2493 -1.1886 -4.0234
  698MOL0     H94227  11.421  10.138   5.569 -1.8679 -0.4262 -0.2072
  698MOL0     H94228  11.259   9.757   5.469 -3.8964  0.3674  1.8218
  698MOL0     H94229  10.889  10.244   5.934 -1.4224 -0.0413 -0.0123
  698MOL0     H94230  10.707  10.352   6.032 -0.3622  0.1355  0.4335
  699MOL0     O94231  11.223   2.684   6.591  0.3630 -0.4033  0.0427
  699MOL0     C94232  11.229   2.778   6.517 -0.1699  0.0713 -0.1720
  699MOL0     O94233  11.182   2.904   6.550  0.4384  0.5736 -0.0184
  699MOL0     C94234  11.216   2.954   6.665 -1.0086  0.2006 -0.6343
  699MOL0     C94235  11.117   3.036   6.726  0.1743 -1.1481 -0.9006
  699MOL0     C94236  11.132   3.084   6.858 -0.7130  0.5920  0.3921
  699MOL0     C94237  11.245   3.051   6.940 -0.0996  0.0699  0.0253
  699MOL0     O94238  11.259   3.093   7.071  1.2252 -0.2141 -0.3451
  699MOL0     C94239  11.350   3.196   7.108 -0.8024  0.1340  0.9023
  699MOL0     C94240  11.363   3.210   7.260 -0.7324 -0.2873  1.3608
  699MOL0     C94241  11.224   3.199   7.325  0.4067 -0.1046 -0.6748
  699MOL0     C94242  11.241   3.250   7.471 -0.2394  0.0868 -0.4473
  699MOL0     C94243  11.124   3.257   7.556  0.5832  0.1375 -0.4246
  699MOL0     C94244  11.036   3.383   7.540  0.0645 -0.2177 -0.4763
  699MOL0     C94245  10.901   3.372   7.610 -0.2440  0.4071 -0.4513
  699MOL0     C94246  10.826   3.504   7.589 -0.6064  0.3317 -0.6858
  699MOL0     N94247  10.701   3.521   7.671 -0.0830  0.0001 -0.3972
  699MOL0     C94248  10.571   3.486   7.633  0.7715  0.0949  0.6597
  699MOL0     C94249  10.490   3.524   7.737 -0.1071  0.3157  0.5049
  699MOL0     C94250  10.336   3.524   7.749 -0.5347  0.5456 -0.2221
  699MOL0     C94251  10.278   3.664   7.772 -0.5245 -0.1079 -0.0214
  699MOL0     C94252  10.310   3.731   7.904  0.9034 -1.3360 -0.2523
  699MOL0     C94253  10.215   3.850   7.941  0.3745 -0.3972  0.1584
  699MOL0     O94254  10.085   3.796   7.959  0.0029 -0.1560  0.8099
  699MOL0     C94255   9.979   3.878   7.993  0.1017 -1.1927 -0.4295
  699MOL0     C94256   9.988   4.010   8.045 -0.4169 -0.6162 -0.0834
  699MOL0     C94257   9.875   4.082   8.081 -0.0527  0.3032 -1.0667
  699MOL0     C94258   9.895   4.233   8.105 -0.6488  0.0821 -0.0857
  699MOL0     C94259   9.743   4.021   8.077  0.1313  0.4006 -1.1101
  699MOL0     C94260   9.618   4.087   8.119 -0.0544 -1.0318 -0.7525
  699MOL0     O94261   9.630   4.198   8.196  0.0999 -0.0232 -0.6259
  699MOL0     C94262   9.532   4.225   8.288 -0.3950  0.0084 -0.3766
  699MOL0     C94263   9.522   4.357   8.337  0.2162 -0.6448  0.1169
  699MOL0     C94264   9.427   4.392   8.441 -0.2316 -0.1050  0.4155
  699MOL0     C94265   9.340   4.296   8.494  0.2141 -0.3923 -0.1640
  699MOL0     O94266   9.240   4.347   8.581 -0.0160 -0.3750 -0.1858
  699MOL0     C94267   9.156   4.244   8.634  0.9000  0.6384  0.0586
  699MOL0     C94268   9.064   4.306   8.746  0.1632 -0.0648  0.2594
  699MOL0     C94269   8.976   4.202   8.801  0.3550  0.4283 -1.3139
  699MOL0     C94270   8.898   4.267   8.919  0.5557 -0.2079 -0.3122
  699MOL0     C94271   8.783   4.181   8.981  0.3088 -0.5971 -0.5927
  699MOL0     C94272   8.670   4.142   8.879 -0.5488 -0.1061  0.2630
  699MOL0     C94273   8.559   4.055   8.936 -0.1597  0.2403  0.9222
  699MOL0     C94274   8.495   4.100   9.076 -0.3973 -0.4958  0.2063
  699MOL0    Cl94275   8.381   3.968   9.129 -0.2456 -0.1755  0.0322
  699MOL0     C94276   9.354   4.163   8.457 -0.1150  0.4955 -0.2922
  699MOL0     C94277   9.442   4.129   8.353  0.2137  0.1255 -0.9955
  699MOL0     O94278   9.513   4.027   8.087 -0.6661 -0.5073  0.7514
  699MOL0     C94279   9.736   3.892   8.034 -0.0766  0.0649 -0.0268
  699MOL0     C94280   9.851   3.827   7.990  0.1594  0.1148 -0.4085
  699MOL0     N94281  10.575   3.571   7.840 -0.4147 -0.4920 -0.0455
  699MOL0     N94282  10.700   3.563   7.799  0.3394  0.2607 -0.7126
  699MOL0     C94283  11.345   2.968   6.885  0.0048  0.5649 -0.0312
  699MOL0     C94284  11.326   2.923   6.752 -0.3609  0.5928 -0.7506
  699MOL0     C94285  11.256   2.757   6.370 -0.3286 -0.0735  0.3734
  699MOL0     C94286  11.300   2.870   6.290  0.1389  0.4343  1.2164
  699MOL0     C94287  11.335   2.838   6.155 -0.1667  1.0470 -0.3145
  699MOL0     C94288  11.333   2.712   6.099 -0.5628 -0.4265 -0.1264
  699MOL0     O94289  11.371   2.683   5.968  0.2355  0.9465 -0.9017
  699MOL0     C94290  11.419   2.790   5.879 -0.1562  0.8490 -0.3107
  699MOL0     C94291  11.509   2.724   5.782 -0.1467  0.8789 -0.0924
  699MOL0     C94292  11.606   2.631   5.855  0.8285 -0.3478 -0.3623
  699MOL0     C94293  11.699   2.552   5.754 -0.0410 -0.9290  0.0261
  699MOL0     C94294  11.802   2.634   5.689 -0.1071  0.0107  0.4771
  699MOL0     C94295  11.886   2.695   5.617  0.3411  0.6515  0.6365
  699MOL0     C94296  11.292   2.609   6.183  0.6113  0.1137 -0.2394
  699MOL0     C94297  11.252   2.627   6.317 -1.0981  1.2223  0.1654
  699MOL0     H94298  11.026   3.066   6.675 -0.3406 -2.6879 -0.9409
  699MOL0     H94299  11.065   3.150   6.912 -0.1736  1.0317  0.5343
  699MOL0     H94300  11.448   3.177   7.064  0.1699  0.7365  2.6751
  699MOL0     H94301  11.321   3.294   7.070 -1.4095 -0.1419  0.6435
  699MOL0     H94302  11.425   3.125   7.290 -1.0006 -1.2304 -0.5989
  699MOL0     H94303  11.414   3.305   7.282 -0.2925  0.2537 -1.6308
  699MOL0     H94304  11.145   3.254   7.271  0.3998  2.0063  1.3446
  699MOL0     H94305  11.192   3.094   7.319  0.6083 -0.1006 -2.8567
  699MOL0     H94306  11.307   3.177   7.518 -0.6130 -0.2765 -0.4789
  699MOL0     H94307  11.292   3.347   7.468 -2.3059  1.4621  2.5796
  699MOL0     H94308  11.061   3.168   7.553  2.2263 -1.1455  0.8630
  699MOL0     H94309  11.151   3.253   7.662 -2.4754 -4.1210  0.4457
  699MOL0     H94310  11.086   3.471   7.582  0.0272 -0.3647 -0.1254
  699MOL0     H94311  11.009   3.393   7.434 -1.1321 -0.2241 -0.1836
  699MOL0     H94312  10.834   3.293   7.575  3.3432 -3.0098 -0.3429
  699MOL0     H94313  10.919   3.353   7.717  1.7730  1.2012 -0.6005
  699MOL0     H94314  10.792   3.512   7.485  1.9725 -1.5778 -1.7803
  699MOL0     H94315  10.887   3.591   7.615  1.2578 -1.8908  3.2672
  699MOL0     H94316  10.533   3.447   7.539 -1.5932  2.3350  0.5788
  699MOL0     H94317  10.298   3.495   7.650 -0.7833  2.9843 -0.9260
  699MOL0     H94318  10.309   3.451   7.825 -2.0376 -0.3846 -1.5849
  699MOL0     H94319  10.169   3.664   7.770 -0.5508  0.5145  0.7793
  699MOL0     H94320  10.303   3.738   7.695  1.7672  1.9875  2.5238
  699MOL0     H94321  10.410   3.775   7.910  0.7832 -1.2631  1.6596
  699MOL0     H94322  10.307   3.653   7.980 -2.8006 -1.4316 -0.3135
  699MOL0     H94323  10.203   3.926   7.864 -2.3640 -0.9165 -0.0415
  699MOL0     H94324  10.255   3.892   8.034  0.9025 -2.3808  0.8860
  699MOL0     H94325  10.091   4.043   8.055 -0.1815 -1.5681  0.6983
  699MOL0     H94326   9.857   4.257   8.205 -1.3322 -1.1896 -0.0140
  699MOL0     H94327   9.997   4.272   8.100 -1.2737  1.8588  0.3153
  699MOL0     H94328   9.842   4.291   8.029  1.0897 -1.7849 -2.9240
  699MOL0     H94329   9.590   4.428   8.290  1.7456 -2.4099 -0.4432
  699MOL0     H94330   9.423   4.494   8.478  1.3366  0.9080 -1.9754
  699MOL0     H94331   9.081   4.202   8.567 -1.5589  2.6328  1.3812
  699MOL0     H94332   9.220   4.167   8.678 -1.2142 -1.7630 -0.8357
  699MOL0     H94333   9.138   4.346   8.816  1.1802 -1.0334 -0.2321
  699MOL0     H94334   9.003   4.381   8.694  0.4800 -1.1007 -1.7154
  699MOL0     H94335   9.040   4.121   8.836  0.3146  0.3153 -1.4983
  699MOL0     H94336   8.911   4.159   8.724 -2.4269  2.1699 -0.0871
  699MOL0     H94337   8.967   4.296   8.998  0.9997  1.2175 -1.1805
  699MOL0     H94338   8.865   4.364   8.879  2.2149  0.2332 -0.6814
  699MOL0     H94339   8.731   4.230   9.063  1.3797 -1.2929  0.5570
  699MOL0     H94340   8.827   4.093   9.029  1.6109 -0.2460 -1.0925
  699MOL0     H94341   8.629   4.236   8.841  0.0816 -1.1215 -3.2775
  699MOL0     H94342   8.713   4.104   8.786 -1.1163  0.6702 -0.3203
  699MOL0     H94343   8.591   3.951   8.945 -0.6493  0.2063  2.9485
  699MOL0     H94344   8.473   4.050   8.869  0.2601 -0.2679  0.4179
  699MOL0     H94345   8.448   4.194   9.047 -0.3401 -0.8684 -1.1465
  699MOL0     H94346   8.568   4.132   9.152 -1.0220 -1.4233  1.2224
  699MOL0     H94347   9.286   4.094   8.505 -1.4727  1.1821 -1.1620
  699MOL0     H94348   9.460   4.025   8.327  1.8513 -1.1759  4.1572
  699MOL0     H94349   9.635   3.853   8.032  0.0701 -0.3065 -2.4677
  699MOL0     H94350   9.834   3.732   7.940  1.0249  0.4877 -1.4527
  699MOL0     H94351  11.426   2.931   6.948 -0.7856 -0.7277  0.2594
  699MOL0     H94352  11.393   2.843   6.722 -3.6661 -2.3692 -0.9315
  699MOL0     H94353  11.322   2.967   6.335  3.3365 -0.4788  1.8986
  699MOL0     H94354  11.373   2.916   6.090 -2.2289  1.7333 -0.7782
  699MOL0     H94355  11.336   2.840   5.828  0.3442  0.4041 -1.6075
  699MOL0     H94356  11.474   2.869   5.932 -0.1243  1.0960 -0.7111
  699MOL0     H94357  11.561   2.794   5.715  3.2926 -2.8743 -1.7274
  699MOL0     H94358  11.453   2.661   5.712  1.1088 -0.6199  0.1940
  699MOL0     H94359  11.544   2.556   5.904 -1.5242 -0.2242 -2.9078
  699MOL0     H94360  11.661   2.696   5.925  2.6765 -0.0689 -1.9679
  699MOL0     H94361  11.636   2.503   5.680 -0.9083  0.3939 -0.1441
  699MOL0     H94362  11.740   2.471   5.815 -0.1270  0.2656  1.7526
  699MOL0     H94363  11.963   2.745   5.561  0.6671  1.0876  1.4475
  699MOL0     H94364  11.302   2.508   6.145 -2.1263 -0.3191 -0.0280
  699MOL0     H94365  11.233   2.542   6.381 -0.7113  0.0523 -1.2264
  700MOL0     O94366   1.820   6.843  10.063  0.1333  0.0932  0.9479
  700MOL0     C94367   1.920   6.910  10.024  0.7893  0.5355 -0.0854
  700MOL0     O94368   1.927   6.987   9.916 -0.1084  0.0126  0.2965
  700MOL0     C94369   1.820   6.979   9.830  0.4766 -0.1307  0.3678
  700MOL0     C94370   1.845   6.944   9.693  0.0073  0.8374 -0.6855
  700MOL0     C94371   1.744   6.941   9.603 -0.0706  0.5663  0.6701
  700MOL0     C94372   1.622   6.998   9.640 -0.3488 -0.1494  0.6202
  700MOL0     O94373   1.520   6.985   9.553  0.2249 -0.6626  0.5214
  700MOL0     C94374   1.407   7.073   9.563 -0.2320 -0.3267 -0.4741
  700MOL0     C94375   1.347   7.078   9.422 -0.1039  0.4330 -1.0936
  700MOL0     C94376   1.252   6.973   9.398  0.4890  0.5936 -0.0421
  700MOL0     C94377   1.277   6.924   9.254  0.8085 -0.9547 -0.7801
  700MOL0     C94378   1.168   6.822   9.209 -0.1665 -0.1263 -0.1198
  700MOL0     C94379   1.217   6.767   9.082  0.1568 -0.3691 -0.3092
  700MOL0     C94380   1.128   6.649   9.032 -0.6500  0.1108  0.4727
  700MOL0     C94381   1.031   6.707   8.927  0.1332 -0.0612  0.1415
  700MOL0     N94382   1.074   6.785   8.813  0.3554 -0.2011 -0.0436
  700MOL0     C94383   1.107   6.742   8.692 -0.4674 -1.5131  0.1267
  700MOL0     C94384   1.103   6.853   8.606 -0.2976 -0.8196  0.7690
  700MOL0     C94385   1.143   6.863   8.457  0.1258  0.0543  0.5068
  700MOL0     C94386   1.087   6.981   8.378 -0.1650 -0.0323 -0.6319
  700MOL0     C94387   0.934   6.981   8.366  0.1291 -0.3441 -0.6439
  700MOL0     C94388   0.864   6.855   8.329 -0.2925  0.5193  0.3617
  700MOL0     O94389   0.724   6.870   8.327  0.5879 -0.1522  1.0425
  700MOL0     C94390   0.645   6.854   8.435  0.3802  0.4127 -0.9299
  700MOL0     C94391   0.682   6.858   8.571  0.1032 -0.3347 -0.5772
  700MOL0     C94392   0.601   6.825   8.679  0.2687 -0.9517 -0.4464
  700MOL0     C94393   0.665   6.826   8.818  0.2680 -0.1797  0.4638
  700MOL0     C94394   0.462   6.801   8.652 -0.8818  0.6842 -0.6486
  700MOL0     C94395   0.358   6.771   8.763 -0.0077  0.1249 -0.5623
  700MOL0     O94396   0.254   6.710   8.713 -0.3574  0.1896 -1.1450
  700MOL0     C94397   0.142   6.673   8.785 -0.7827  0.0982  0.4729
  700MOL0     C94398   0.058   6.598   8.701 -0.7604 -0.6889  0.5520
  700MOL0     C94399  -0.067   6.559   8.732 -0.1628  0.2928  0.1045
  700MOL0     C94400  -0.110   6.586   8.868 -1.1882  0.5821 -0.1282
  700MOL0     O94401  -0.226   6.541   8.918  0.1160 -0.4496  0.1893
  700MOL0     C94402  -0.340   6.538   8.824 -0.4315 -0.6586  0.0065
  700MOL0     C94403  -0.479   6.553   8.882 -0.3865  0.4419 -0.5658
  700MOL0     C94404  -0.595   6.558   8.781  1.0296 -0.6507 -0.5835
  700MOL0     C94405  -0.729   6.558   8.860  0.3179 -0.2679 -0.0719
  700MOL0     C94406  -0.844   6.585   8.763  0.1419  0.4667  0.1720
  700MOL0     C94407  -0.984   6.534   8.803 -0.5049 -0.3619  0.7997
  700MOL0     C94408  -1.083   6.600   8.710 -0.9522  0.5951  0.4689
  700MOL0     C94409  -1.224   6.562   8.755  0.6479  0.1531  0.1531
  700MOL0    Cl94410  -1.239   6.384   8.726 -0.2637  0.3566 -0.1680
  700MOL0     C94411  -0.027   6.651   8.956 -0.0302  0.3061 -0.0845
  700MOL0     C94412   0.096   6.705   8.916 -0.5391  0.2730  0.2800
  700MOL0     O94413   0.370   6.807   8.876  0.7705 -1.0311 -0.8638
  700MOL0     C94414   0.421   6.793   8.522  0.6769 -0.1126  0.7390
  700MOL0     C94415   0.509   6.809   8.412 -0.7465 -0.5235 -0.0134
  700MOL0     N94416   1.070   6.962   8.686  0.0582 -0.1981  0.1814
  700MOL0     N94417   1.053   6.919   8.808  0.5211  0.1184 -0.0363
  700MOL0     C94418   1.599   7.041   9.770 -0.4194 -0.2802  0.4763
  700MOL0     C94419   1.694   7.040   9.861  0.6010  0.8019  1.0818
  700MOL0     C94420   2.043   6.904  10.108  0.5752  0.9889 -0.1586
  700MOL0     C94421   2.054   6.823  10.228  0.4364  0.6790 -0.2648
  700MOL0     C94422   2.179   6.812  10.290  0.2671 -0.1862 -0.2475
  700MOL0     C94423   2.292   6.871  10.241 -0.0567 -1.2524 -0.2174
  700MOL0     O94424   2.409   6.841  10.298 -0.2987 -0.9314  0.1373
  700MOL0     C94425   2.533   6.865  10.229 -0.5936 -0.6097 -0.8295
  700MOL0     C94426   2.653   6.819  10.319  0.2855  0.2368  1.0299
  700MOL0     C94427   2.800   6.846  10.268  0.7505  0.2783  0.0266
  700MOL0     C94428   2.894   6.791  10.366  0.5520  0.1686 -0.0697
  700MOL0     C94429   3.033   6.821  10.340 -0.4646 -0.5267 -0.4125
  700MOL0     C94430   3.150   6.847  10.311  0.2010 -0.5930  0.1097
  700MOL0     C94431   2.281   6.950  10.120 -0.0462  0.7932 -0.1441
  700MOL0     C94432   2.162   6.950  10.047  0.8425 -0.4339 -0.1590
  700MOL0     H94433   1.944   6.907   9.672  0.0440  1.9381 -2.6279
  700MOL0     H94434   1.757   6.892   9.507 -1.8876  3.8039 -1.4398
  700MOL0     H94435   1.332   7.038   9.634 -1.6596 -2.4095 -2.8380
  700MOL0     H94436   1.437   7.174   9.592  0.9165 -0.9567  0.6191
  700MOL0     H94437   1.290   7.171   9.409  0.4184  1.1892  1.4154
  700MOL0     H94438   1.433   7.078   9.355  1.0148  1.7688  0.2616
  700MOL0     H94439   1.241   6.890   9.468 -3.2831 -0.2853 -1.4709
  700MOL0     H94440   1.156   7.023   9.412 -0.3816 -1.1573  0.4822
  700MOL0     H94441   1.280   7.015   9.193 -1.6295 -0.7562 -0.7289
  700MOL0     H94442   1.376   6.879   9.249  1.6254  0.6062  0.3745
  700MOL0     H94443   1.169   6.748   9.289 -1.5408  1.3533  1.3336
  700MOL0     H94444   1.070   6.872   9.204 -1.4378 -2.5087 -0.5331
  700MOL0     H94445   1.254   6.840   9.009  1.9229  1.4759  2.2233
  700MOL0     H94446   1.300   6.708   9.121  0.9196  0.9359  0.0961
  700MOL0     H94447   1.200   6.581   8.986  1.2802  0.6877  2.4711
  700MOL0     H94448   1.070   6.602   9.113 -2.1519  2.3011  0.7453
  700MOL0     H94449   0.959   6.771   8.980  1.3329  1.4096  0.0412
  700MOL0     H94450   0.973   6.620   8.893  2.5552 -2.5280  1.9390
  700MOL0     H94451   1.135   6.643   8.658  2.0801 -0.6118 -0.6383
  700MOL0     H94452   1.252   6.874   8.466  0.1275 -1.3939  3.4226
  700MOL0     H94453   1.123   6.773   8.398 -1.9476  0.5864  0.3045
  700MOL0     H94454   1.124   6.976   8.276 -2.4266  0.8003 -1.5591
  700MOL0     H94455   1.120   7.075   8.425 -0.8152  1.0014 -2.1885
  700MOL0     H94456   0.917   7.065   8.297  2.4768  0.2440 -0.6044
  700MOL0     H94457   0.905   7.010   8.468  0.6022 -0.3518 -0.5051
  700MOL0     H94458   0.894   6.776   8.399  1.3830  0.0366 -0.8425
  700MOL0     H94459   0.900   6.831   8.229  1.3503  0.5225  0.9350
  700MOL0     H94460   0.778   6.891   8.609 -0.6560  0.5758  0.6746
  700MOL0     H94461   0.774   6.817   8.811  0.2584  0.2197 -0.3280
  700MOL0     H94462   0.624   6.921   8.853 -0.6061 -0.6121  0.6526
  700MOL0     H94463   0.627   6.757   8.894  0.8487 -0.4375  0.5218
  700MOL0     H94464   0.086   6.572   8.600  1.3683  0.5009  0.7940
  700MOL0     H94465  -0.126   6.507   8.657 -0.8357  0.3611  0.5703
  700MOL0     H94466  -0.328   6.627   8.761 -1.3814 -1.9271 -2.0697
  700MOL0     H94467  -0.331   6.452   8.758 -0.0119  0.2914 -1.2054
  700MOL0     H94468  -0.495   6.466   8.946  1.9133  1.6608  1.8691
  700MOL0     H94469  -0.483   6.647   8.938  2.5355  1.5459 -1.9949
  700MOL0     H94470  -0.591   6.464   8.727 -2.1494 -1.2653  0.0363
  700MOL0     H94471  -0.601   6.642   8.711 -3.9618 -1.1381 -1.0629
  700MOL0     H94472  -0.745   6.462   8.910  2.7982 -0.3226  0.7217
  700MOL0     H94473  -0.718   6.638   8.933  0.3516 -2.2814  2.2388
  700MOL0     H94474  -0.815   6.538   8.668  0.8799  1.3729 -0.0636
  700MOL0     H94475  -0.841   6.690   8.732  2.5616  0.6695  0.9138
  700MOL0     H94476  -0.995   6.425   8.806 -1.7106 -0.3251 -0.9254
  700MOL0     H94477  -1.004   6.558   8.907 -3.2496  1.3551 -0.0213
  700MOL0     H94478  -1.077   6.560   8.609 -0.8157 -1.0049  1.0878
  700MOL0     H94479  -1.063   6.708   8.708  1.1130  0.3047  1.8165
  700MOL0     H94480  -1.293   6.617   8.690  0.1986 -1.5965 -0.9181
  700MOL0     H94481  -1.242   6.589   8.859 -2.1200  0.5309 -0.3550
  700MOL0     H94482  -0.057   6.675   9.058 -0.9430  0.8629 -0.4684
  700MOL0     H94483   0.151   6.770   8.983  3.2048 -3.3872  1.1933
  700MOL0     H94484   0.322   6.778   8.479 -0.3032  2.1733  1.9903
  700MOL0     H94485   0.475   6.792   8.311 -1.3456 -1.4283  0.3237
  700MOL0     H94486   1.497   7.063   9.799 -0.2842  0.4119  0.4519
  700MOL0     H94487   1.678   7.061   9.966  1.3618 -1.7218  1.7603
  700MOL0     H94488   1.966   6.765  10.253  0.5104  1.3772  1.8008
  700MOL0     H94489   2.184   6.752  10.380  0.3835  1.3598  0.8198
  700MOL0     H94490   2.543   6.830  10.126 -0.6481 -0.2874 -0.9490
  700MOL0     H94491   2.537   6.973  10.209 -0.9602 -0.9227 -2.7225
  700MOL0     H94492   2.649   6.714  10.348  2.8529  0.0163  0.7796
  700MOL0     H94493   2.646   6.850  10.424  1.8878 -0.4953  1.3825
  700MOL0     H94494   2.803   6.953  10.247  0.7226  0.1530 -0.6290
  700MOL0     H94495   2.809   6.798  10.171 -1.5246 -0.2302  0.0035
  700MOL0     H94496   2.881   6.683  10.371 -4.1844  0.4546 -1.6000
  700MOL0     H94497   2.861   6.827  10.464 -1.3945 -3.4210  0.7592
  700MOL0     H94498   3.244   6.885  10.276 -1.2815  2.2599 -1.1428
  700MOL0     H94499   2.372   6.978  10.068  0.0577  0.6369 -0.0487
  700MOL0     H94500   2.147   6.990   9.947 -1.0131  0.7232  0.5321
  701MOL0     O94501   8.276   4.833   8.603  0.0018 -0.0673  0.0931
  701MOL0     C94502   8.304   4.948   8.590  0.7795  0.0008 -0.3198
  701MOL0     O94503   8.209   5.051   8.585 -0.9951 -0.2845 -0.3591
  701MOL0     C94504   8.074   5.011   8.594 -0.6429  0.1971 -0.3313
  701MOL0     C94505   7.994   5.038   8.489  1.1880  0.3167 -0.9383
  701MOL0     C94506   7.853   5.028   8.498 -0.6258  0.0344 -0.1801
  701MOL0     C94507   7.803   4.966   8.612 -0.0801 -0.8383 -0.5455
  701MOL0     O94508   7.674   4.946   8.629  0.0012  0.1572 -0.4611
  701MOL0     C94509   7.608   4.835   8.563  0.4173 -0.2987  0.3896
  701MOL0     C94510   7.492   4.797   8.666 -0.3296  0.3095  0.3161
  701MOL0     C94511   7.405   4.668   8.630  0.0510  0.0850  0.6327
  701MOL0     C94512   7.497   4.545   8.643 -0.3088  0.3261 -0.4670
  701MOL0     C94513   7.433   4.411   8.587  0.0019 -0.6809 -0.0574
  701MOL0     C94514   7.362   4.321   8.697 -0.7136  0.4011 -1.2882
  701MOL0     C94515   7.240   4.397   8.754 -0.8820  0.3179 -0.1436
  701MOL0     C94516   7.165   4.312   8.865  0.6230 -0.1513 -0.8423
  701MOL0     N94517   7.035   4.367   8.876 -0.3774 -0.0760 -0.5318
  701MOL0     C94518   7.015   4.504   8.903 -0.7198  0.1853 -0.3163
  701MOL0     C94519   6.884   4.513   8.921  0.2703 -0.0186  0.2882
  701MOL0     C94520   6.802   4.635   8.928 -0.7106 -0.1539 -0.2224
  701MOL0     C94521   6.712   4.635   9.054  0.4365  0.5857  0.5903
  701MOL0     C94522   6.604   4.735   9.033  0.1536 -1.0362 -0.2912
  701MOL0     C94523   6.505   4.754   9.157 -0.0670 -0.3068 -0.3299
  701MOL0     O94524   6.434   4.633   9.190 -0.0836 -0.0411 -0.5078
  701MOL0     C94525   6.308   4.659   9.251 -0.1621 -1.0570  0.6245
  701MOL0     C94526   6.306   4.705   9.382  0.2438  0.5288  0.8044
  701MOL0     C94527   6.188   4.711   9.456  0.1467 -0.0903 -0.2830
  701MOL0     C94528   6.208   4.756   9.600 -0.4171 -0.7600 -0.2011
  701MOL0     C94529   6.056   4.684   9.402  0.0841 -0.3609  0.5225
  701MOL0     C94530   5.927   4.685   9.474  0.4436 -0.5141  0.7077
  701MOL0     O94531   5.821   4.632   9.393 -0.1247  0.1687 -0.1666
  701MOL0     C94532   5.709   4.601   9.464 -0.0561 -0.0772 -0.2993
  701MOL0     C94533   5.704   4.510   9.574  0.0751  0.1417 -0.3260
  701MOL0     C94534   5.582   4.485   9.633  0.3126 -0.6120 -0.1772
  701MOL0     C94535   5.471   4.561   9.589 -1.3456  0.8712  0.9174
  701MOL0     O94536   5.339   4.541   9.619  0.0010 -0.1640 -0.0913
  701MOL0     C94537   5.293   4.443   9.712  0.0584 -0.1218 -0.1622
  701MOL0     C94538   5.144   4.470   9.754  0.8898 -0.4873  0.8025
  701MOL0     C94539   5.034   4.424   9.654 -0.5421 -0.0932  1.1338
  701MOL0     C94540   4.908   4.513   9.683 -1.1994  0.7932 -0.3737
  701MOL0     C94541   4.794   4.486   9.585  0.5398 -0.0829 -0.1192
  701MOL0     C94542   4.679   4.577   9.604  0.2594  0.2088  0.6576
  701MOL0     C94543   4.569   4.545   9.495 -0.7667  0.9218 -0.3462
  701MOL0     C94544   4.448   4.632   9.485  0.2017 -0.0704 -0.3854
  701MOL0    Cl94545   4.507   4.791   9.410 -0.2623  0.2517 -0.3575
  701MOL0     C94546   5.486   4.661   9.491  0.4722  0.5602  0.4337
  701MOL0     C94547   5.606   4.678   9.428  0.4851 -0.8175 -0.5041
  701MOL0     O94548   5.914   4.723   9.586 -0.5348 -0.4933  0.0029
  701MOL0     C94549   6.060   4.643   9.271 -0.5878 -0.6017  0.6046
  701MOL0     C94550   6.181   4.628   9.198 -0.5719 -0.2910 -0.0110
  701MOL0     N94551   6.827   4.385   8.908  0.6110 -0.1750 -0.2282
  701MOL0     N94552   6.922   4.297   8.886  0.0607  0.1810  0.4461
  701MOL0     C94553   7.888   4.930   8.722  1.1020 -0.6753 -0.0120
  701MOL0     C94554   8.020   4.959   8.709 -0.3029  0.2196 -0.7899
  701MOL0     C94555   8.446   4.990   8.586  0.2027  0.7080  0.1841
  701MOL0     C94556   8.542   4.895   8.611 -0.2844 -0.6186 -0.0770
  701MOL0     C94557   8.678   4.933   8.586 -0.7051 -1.5687 -0.4949
  701MOL0     C94558   8.720   5.067   8.561 -0.0857 -0.5766  0.1947
  701MOL0     O94559   8.853   5.113   8.557 -0.8632  0.4710 -0.7290
  701MOL0     C94560   8.964   5.031   8.536 -0.3544  0.7163 -0.2166
  701MOL0     C94561   9.100   5.106   8.550 -0.5308 -0.2947  0.2369
  701MOL0     C94562   9.138   5.160   8.691 -0.8550 -0.1421 -0.1455
  701MOL0     C94563   9.282   5.206   8.688 -0.4772 -0.7988  0.9237
  701MOL0     C94564   9.379   5.096   8.692 -0.5201  0.5485  0.0959
  701MOL0     C94565   9.443   4.994   8.705  0.7149  0.0731  0.1613
  701MOL0     C94566   8.616   5.162   8.553  0.4851 -0.6790  0.1683
  701MOL0     C94567   8.479   5.126   8.558 -1.1007  0.2474  0.5552
  701MOL0     H94568   8.018   5.071   8.388  0.0614 -0.3992 -1.4617
  701MOL0     H94569   7.791   5.058   8.414 -0.5278  0.4963 -0.0876
  701MOL0     H94570   7.558   4.869   8.472 -0.1500  0.0161  0.8205
  701MOL0     H94571   7.668   4.744   8.548  1.5389  0.5995 -0.8112
  701MOL0     H94572   7.543   4.791   8.762  3.0182  1.0830 -1.2321
  701MOL0     H94573   7.418   4.877   8.665  1.2753  1.9649  2.9859
  701MOL0     H94574   7.318   4.674   8.696  0.9855  1.2988  1.8086
  701MOL0     H94575   7.368   4.677   8.527 -0.1763  0.6839  0.7620
  701MOL0     H94576   7.590   4.561   8.589 -1.1025  0.2599 -1.8969
  701MOL0     H94577   7.517   4.529   8.750  0.1640  0.3847 -0.5443
  701MOL0     H94578   7.370   4.432   8.500  0.8504  3.7619  0.1707
  701MOL0     H94579   7.519   4.348   8.560  0.9533  0.9349 -0.9029
  701MOL0     H94580   7.334   4.222   8.660  0.4276 -0.6261  0.4263
  701MOL0     H94581   7.432   4.307   8.780 -1.4677  0.9774 -0.5394
  701MOL0     H94582   7.273   4.489   8.802 -0.3787  0.0945 -0.0621
  701MOL0     H94583   7.173   4.435   8.676 -0.9211 -0.4296 -0.4872
  701MOL0     H94584   7.227   4.326   8.955  1.4403 -1.3588 -1.1939
  701MOL0     H94585   7.159   4.206   8.839 -1.9628 -0.2903  0.0225
  701MOL0     H94586   7.101   4.570   8.911  1.9643 -3.0535  0.0153
  701MOL0     H94587   6.861   4.727   8.929 -1.3365  0.2528  0.4866
  701MOL0     H94588   6.739   4.621   8.839 -0.2243 -1.5612 -0.3764
  701MOL0     H94589   6.770   4.648   9.146  1.5454 -0.9102  0.1537
  701MOL0     H94590   6.669   4.534   9.058 -0.1435  0.8600  1.6819
  701MOL0     H94591   6.538   4.705   8.951 -1.7609  0.4612  0.6377
  701MOL0     H94592   6.650   4.832   9.010  0.9101 -0.6525  2.4690
  701MOL0     H94593   6.433   4.832   9.133 -0.8664 -0.5424  1.2311
  701MOL0     H94594   6.551   4.789   9.249  0.2189 -0.4128 -0.4312
  701MOL0     H94595   6.404   4.721   9.427  1.4421  1.3884 -1.8990
  701MOL0     H94596   6.138   4.832   9.636  0.9767  0.0239  0.9942
  701MOL0     H94597   6.188   4.675   9.670  1.3332 -3.0168 -2.1592
  701MOL0     H94598   6.311   4.792   9.606  0.1868 -2.3880 -0.3040
  701MOL0     H94599   5.791   4.446   9.587 -0.5035 -0.7750 -0.8999
  701MOL0     H94600   5.558   4.401   9.698 -3.1341  0.4108  0.0592
  701MOL0     H94601   5.313   4.348   9.660  2.1043  0.3893 -0.3821
  701MOL0     H94602   5.351   4.444   9.804 -0.2299 -0.9189  0.0439
  701MOL0     H94603   5.118   4.432   9.853  1.4117  0.7334  1.4248
  701MOL0     H94604   5.143   4.579   9.762  1.8961 -0.5500  2.0303
  701MOL0     H94605   5.014   4.317   9.670 -1.7808  0.0500  0.6726
  701MOL0     H94606   5.074   4.445   9.554 -0.8024 -0.5288  0.9366
  701MOL0     H94607   4.871   4.480   9.781 -0.4892 -0.4538 -0.4946
  701MOL0     H94608   4.933   4.619   9.676  0.4501  0.4781  0.2226
  701MOL0     H94609   4.750   4.387   9.595 -1.2257  0.3144 -2.7670
  701MOL0     H94610   4.837   4.492   9.484  1.1134 -0.0152  0.1306
  701MOL0     H94611   4.636   4.574   9.705 -1.9009  4.0507  0.0543
  701MOL0     H94612   4.707   4.681   9.585  0.1661  0.1156 -0.0347
  701MOL0     H94613   4.532   4.446   9.525 -0.3401  1.5611  2.6441
  701MOL0     H94614   4.623   4.528   9.402 -2.0835 -0.8654 -0.8266
  701MOL0     H94615   4.410   4.646   9.586  0.4392  1.6284 -0.5002
  701MOL0     H94616   4.368   4.597   9.419  1.6895  0.9138 -2.8529
  701MOL0     H94617   5.406   4.727   9.457 -1.1742 -1.7519 -0.4220
  701MOL0     H94618   5.620   4.745   9.344 -0.2262  0.6632  0.5072
  701MOL0     H94619   5.970   4.612   9.219 -1.1165  0.1945  1.0350
  701MOL0     H94620   6.187   4.577   9.102  0.3587 -2.6812  1.2390
  701MOL0     H94621   7.852   4.885   8.814  0.9727  2.1987  1.4492
  701MOL0     H94622   8.089   4.935   8.790 -0.3991 -0.5247 -0.9243
  701MOL0     H94623   8.523   4.790   8.631 -0.7962 -0.6547 -0.7394
  701MOL0     H94624   8.756   4.863   8.615  1.2648  0.4498 -0.6418
  701MOL0     H94625   8.969   4.950   8.610 -0.8927 -0.0108 -0.9552
  701MOL0     H94626   8.953   4.988   8.436 -0.4775  1.0822 -0.3611
  701MOL0     H94627   9.097   5.193   8.484  2.1630  0.6484  1.2455
  701MOL0     H94628   9.184   5.056   8.500  2.7036  3.6020  1.2603
  701MOL0     H94629   9.117   5.089   8.771 -1.8951  0.2318 -0.0791
  701MOL0     H94630   9.073   5.244   8.714  0.4871  1.5379 -2.0328
  701MOL0     H94631   9.297   5.268   8.776  3.0297 -1.7173  1.1255
  701MOL0     H94632   9.290   5.263   8.595 -2.2879 -3.5632 -1.0995
  701MOL0     H94633   9.495   4.902   8.722 -3.3902 -2.4873  0.1843
  701MOL0     H94634   8.627   5.268   8.533 -0.1604 -0.8395 -1.1527
  701MOL0     H94635   8.397   5.197   8.545 -0.8350  0.5695  0.6168
  702MOL0     O94636   4.732   8.566  10.329 -0.6692  0.0949 -0.1177
  702MOL0     C94637   4.840   8.632  10.329  0.6714 -0.1581 -0.1814
  702MOL0     O94638   4.855   8.760  10.359 -0.6290 -0.2660 -0.2754
  702MOL0     C94639   4.761   8.859  10.346 -0.4894  0.2495  0.1554
  702MOL0     C94640   4.657   8.867  10.257  0.8730 -0.0805  0.5438
  702MOL0     C94641   4.556   8.967  10.268 -0.8858  1.2049  0.3739
  702MOL0     C94642   4.556   9.052  10.375 -0.6045 -0.4606  0.0804
  702MOL0     O94643   4.454   9.145  10.385 -0.3619  0.3949  0.0952
  702MOL0     C94644   4.479   9.269  10.454 -0.2526  0.1028  0.3628
  702MOL0     C94645   4.358   9.353  10.464 -0.2466  0.1703  1.1824
  702MOL0     C94646   4.238   9.277  10.534 -0.3743  0.2442 -0.1403
  702MOL0     C94647   4.107   9.345  10.484  0.1960  0.0031 -0.7837
  702MOL0     C94648   3.980   9.257  10.489 -1.6763 -0.3625  0.6938
  702MOL0     C94649   3.865   9.350  10.441  0.5858 -0.3994 -0.0682
  702MOL0     C94650   3.723   9.289  10.450 -0.9452 -0.4390  0.1101
  702MOL0     C94651   3.661   9.259  10.588 -0.3446  0.1718  0.3577
  702MOL0     N94652   3.526   9.198  10.568 -0.6230 -0.4455 -0.1192
  702MOL0     C94653   3.494   9.080  10.517  0.1484  1.0725  0.5080
  702MOL0     C94654   3.353   9.085  10.521 -0.8661  0.6008  0.0757
  702MOL0     C94655   3.265   8.991  10.444  0.0288 -0.4102 -0.5048
  702MOL0     C94656   3.291   8.839  10.463 -0.4277 -0.1207 -0.3764
  702MOL0     C94657   3.232   8.755  10.338 -0.5228  0.7191  1.0013
  702MOL0     C94658   3.088   8.764  10.307 -0.2823  0.1600 -0.0494
  702MOL0     O94659   2.999   8.724  10.412 -0.1694 -0.4508  0.1146
  702MOL0     C94660   2.863   8.715  10.393 -0.3832 -0.3996 -0.0277
  702MOL0     C94661   2.774   8.704  10.500 -0.2652 -0.0215 -0.0486
  702MOL0     C94662   2.635   8.689  10.487 -0.3368 -0.0876  0.4542
  702MOL0     C94663   2.551   8.668  10.611  0.5824  0.1905  1.1770
  702MOL0     C94664   2.582   8.695  10.346  0.4045  0.1351 -0.5145
  702MOL0     C94665   2.435   8.706  10.311  0.1101 -0.9580  0.4588
  702MOL0     O94666   2.340   8.647  10.401 -0.1077 -0.0119  0.4193
  702MOL0     C94667   2.210   8.673  10.383  0.9779  0.6627  0.5723
  702MOL0     C94668   2.135   8.697  10.261 -0.4964 -0.4040 -0.0621
  702MOL0     C94669   1.994   8.715  10.259 -0.3812  0.3224 -0.1042
  702MOL0     C94670   1.923   8.720  10.377 -0.5107  0.2008 -0.0569
  702MOL0     O94671   1.796   8.742  10.361 -0.0342  0.4518 -0.1429
  702MOL0     C94672   1.705   8.740  10.477 -0.8803  0.2218  0.4437
  702MOL0     C94673   1.555   8.756  10.421 -0.2226  0.0821  0.6976
  702MOL0     C94674   1.518   8.905  10.406 -0.1668  0.9324 -0.1834
  702MOL0     C94675   1.412   8.926  10.298 -0.0459  0.0966 -0.1272
  702MOL0     C94676   1.276   8.871  10.326 -0.6838 -0.5910 -0.0292
  702MOL0     C94677   1.193   8.906  10.208 -0.1599  0.2089  1.1829
  702MOL0     C94678   1.054   8.923  10.249 -0.8883 -0.1215 -0.4674
  702MOL0     C94679   0.972   8.974  10.138  0.6216 -0.1997  0.6725
  702MOL0    Cl94680   1.001   9.154  10.108 -0.2436 -0.4895 -0.6264
  702MOL0     C94681   1.986   8.695  10.499  0.0378  0.0196  0.6756
  702MOL0     C94682   2.130   8.663  10.497  0.4590  0.5510 -0.2699
  702MOL0     O94683   2.405   8.740  10.201  0.0898 -0.0794  0.4250
  702MOL0     C94684   2.674   8.709  10.240  0.2121  0.0906 -0.4714
  702MOL0     C94685   2.807   8.713  10.265 -0.1232 -0.2196  0.8336
  702MOL0     N94686   3.313   9.210  10.566 -0.1974  0.6340 -0.1374
  702MOL0     N94687   3.419   9.274  10.601 -0.4893  0.0034  0.2029
  702MOL0     C94688   4.659   9.048  10.467  1.3675  0.3889  0.8938
  702MOL0     C94689   4.757   8.951  10.449  0.2286 -0.4767  0.8413
  702MOL0     C94690   4.956   8.550  10.301 -0.2278 -0.2198 -0.4136
  702MOL0     C94691   4.949   8.427  10.242  0.0975 -0.7348  1.2861
  702MOL0     C94692   5.072   8.358  10.207  0.5487 -0.5582 -0.3525
  702MOL0     C94693   5.194   8.419  10.223  0.3547 -0.6329 -0.3478
  702MOL0     O94694   5.309   8.365  10.195  0.0164 -0.2147  0.2163
  702MOL0     C94695   5.315   8.248  10.106 -0.9032 -0.0097  0.7103
  702MOL0     C94696   5.326   8.120  10.195  0.0736  0.7600  0.3301
  702MOL0     C94697   5.295   7.999  10.102 -0.1136 -0.3672  0.0528
  702MOL0     C94698   5.316   7.873  10.193 -0.3546  0.0565 -0.0069
  702MOL0     C94699   5.305   7.740  10.120 -0.4738  0.5557 -0.3473
  702MOL0     C94700   5.302   7.644  10.041  0.5608 -0.0695  0.0566
  702MOL0     C94701   5.199   8.538  10.295  0.0187  0.7778  0.6719
  702MOL0     C94702   5.085   8.604  10.334  0.0347 -0.3084 -0.7418
  702MOL0     H94703   4.650   8.778  10.196  3.1725 -1.7653  2.5696
  702MOL0     H94704   4.472   8.965  10.200  0.8878 -0.2685 -1.9349
  702MOL0     H94705   4.510   9.249  10.557  2.3944 -2.4342 -0.7890
  702MOL0     H94706   4.561   9.321  10.405  0.2089 -2.8057 -2.2296
  702MOL0     H94707   4.385   9.449  10.507  2.9991  0.5873 -1.3711
  702MOL0     H94708   4.327   9.379  10.362 -0.0866 -2.4132  0.3971
  702MOL0     H94709   4.234   9.169  10.514  1.0736 -0.2850  2.1232
  702MOL0     H94710   4.237   9.290  10.642 -3.2650  1.0496 -0.1777
  702MOL0     H94711   4.094   9.428  10.554 -0.6900 -1.2496  0.6063
  702MOL0     H94712   4.111   9.374  10.378 -2.3845 -1.7826 -1.4787
  702MOL0     H94713   4.007   9.180  10.417  2.6780  1.4844  0.0330
  702MOL0     H94714   3.967   9.208  10.586  2.3163  0.1324  1.6365
  702MOL0     H94715   3.875   9.441  10.501 -0.8721 -0.3300  0.1243
  702MOL0     H94716   3.866   9.366  10.332  1.4929  0.2418  0.0225
  702MOL0     H94717   3.660   9.370  10.411  2.4494  2.6093  0.4147
  702MOL0     H94718   3.721   9.197  10.392  0.3970 -0.5225  0.1565
  702MOL0     H94719   3.644   9.354  10.639 -1.7070  0.0083  0.2447
  702MOL0     H94720   3.723   9.186  10.640 -2.0332 -0.7638  1.1256
  702MOL0     H94721   3.566   9.009  10.477 -0.2498  0.5521  0.6994
  702MOL0     H94722   3.161   9.006  10.475  0.2595 -0.7362  0.4691
  702MOL0     H94723   3.277   9.018  10.338 -0.1710  0.9937 -0.1865
  702MOL0     H94724   3.228   8.802  10.544 -0.6109  0.4558 -0.2569
  702MOL0     H94725   3.395   8.819  10.488 -0.0661  0.1472 -1.6094
  702MOL0     H94726   3.255   8.649  10.353 -2.5741 -0.1759 -1.4129
  702MOL0     H94727   3.299   8.775  10.254 -0.2555  1.2027  1.3259
  702MOL0     H94728   3.063   8.711  10.214  0.1250  1.9398 -1.2220
  702MOL0     H94729   3.072   8.867  10.273  1.0432  0.2880 -0.3551
  702MOL0     H94730   2.811   8.711  10.602 -0.0873 -0.0361 -0.1126
  702MOL0     H94731   2.466   8.603  10.588  2.1517 -0.6393 -3.2737
  702MOL0     H94732   2.605   8.632  10.699 -2.5137 -0.1133  3.0746
  702MOL0     H94733   2.507   8.766  10.632 -2.1900 -1.2119  2.4032
  702MOL0     H94734   2.176   8.705  10.161 -0.0755  0.1016  0.1472
  702MOL0     H94735   1.939   8.720  10.166 -5.5318 -0.2974  2.5750
  702MOL0     H94736   1.709   8.654  10.544 -2.2734  0.2047  0.5298
  702MOL0     H94737   1.722   8.822  10.548 -1.5906 -1.0991  2.2023
  702MOL0     H94738   1.541   8.715  10.321  0.9764  0.2110  0.4563
  702MOL0     H94739   1.490   8.698  10.488  1.0338  0.0455  1.9419
  702MOL0     H94740   1.610   8.961  10.385  1.2647 -0.7022  1.4456
  702MOL0     H94741   1.482   8.937  10.504  0.1052  3.9653 -0.9624
  702MOL0     H94742   1.398   9.034  10.294 -1.4351 -0.1064 -1.7340
  702MOL0     H94743   1.454   8.895  10.201  0.4467  1.4630 -0.3609
  702MOL0     H94744   1.242   8.922  10.417 -3.6230 -1.3739 -0.5802
  702MOL0     H94745   1.276   8.764  10.348 -1.5045 -0.3527  1.2546
  702MOL0     H94746   1.227   8.998  10.158 -0.9375 -0.0677  0.1027
  702MOL0     H94747   1.191   8.833  10.126  0.1985 -0.6959  1.9644
  702MOL0     H94748   1.054   8.996  10.331  0.1116 -1.0933  0.4355
  702MOL0     H94749   1.021   8.825  10.285  2.5082 -0.7826  1.2616
  702MOL0     H94750   0.866   8.961  10.163 -0.7560 -1.4345 -4.5363
  702MOL0     H94751   0.985   8.913  10.048  3.1330 -0.9478  1.4565
  702MOL0     H94752   1.937   8.698  10.596  1.7456 -1.1624  1.6278
  702MOL0     H94753   2.195   8.641  10.582  1.0973 -1.3165 -1.1878
  702MOL0     H94754   2.636   8.722  10.139 -2.1318  1.0189  0.4752
  702MOL0     H94755   2.859   8.714  10.170 -2.1227 -1.0956 -0.3374
  702MOL0     H94756   4.637   9.101  10.559 -5.9544  1.7577 -0.9895
  702MOL0     H94757   4.841   8.947  10.518  1.7094  0.0809 -0.8482
  702MOL0     H94758   4.855   8.383  10.212 -0.4074  0.5519  0.9200
  702MOL0     H94759   5.069   8.254  10.177 -4.2669 -0.5023 -0.8645
  702MOL0     H94760   5.228   8.243  10.040 -0.5013  1.6074 -0.0066
  702MOL0     H94761   5.406   8.247  10.046 -0.1037 -1.1054  1.8860
  702MOL0     H94762   5.259   8.116  10.281 -0.2714  4.1240  0.3744
  702MOL0     H94763   5.428   8.113  10.234  0.4268  4.4395  0.4630
  702MOL0     H94764   5.374   7.999  10.027  0.1165  0.2418  0.2857
  702MOL0     H94765   5.201   8.001  10.046  1.7182  1.9239 -3.2693
  702MOL0     H94766   5.239   7.868  10.271 -0.8271 -0.4426 -0.4931
  702MOL0     H94767   5.414   7.874  10.242 -0.6320  1.5153  0.5501
  702MOL0     H94768   5.299   7.569   9.965 -1.4632  1.2359 -1.2677
  702MOL0     H94769   5.288   8.580  10.343 -0.3813  1.1667  1.0791
  702MOL0     H94770   5.091   8.693  10.395 -0.5110 -0.6665 -0.1549
  703MOL0     O94771   3.003   6.769   1.886 -0.0782 -0.1966  0.3097
  703MOL0     C94772   2.958   6.798   1.775 -0.5285  0.5845  1.0730
  703MOL0     O94773   2.977   6.918   1.720 -0.2699 -0.8019  0.3709
  703MOL0     C94774   3.049   7.013   1.786  1.0759  0.2523 -0.5930
  703MOL0     C94775   3.183   7.018   1.765 -0.3038 -0.1221 -0.0635
  703MOL0     C94776   3.258   7.114   1.830 -0.0868  0.2171  0.0757
  703MOL0     C94777   3.202   7.221   1.901 -0.2643  0.7096 -0.9386
  703MOL0     O94778   3.270   7.318   1.970 -0.4480  0.1025 -0.3048
  703MOL0     C94779   3.409   7.295   1.972 -0.0492 -0.3941 -0.1924
  703MOL0     C94780   3.481   7.406   2.058  0.1492  0.1771 -0.3156
  703MOL0     C94781   3.402   7.457   2.187 -0.3418 -0.1124  0.4588
  703MOL0     C94782   3.490   7.556   2.271 -0.2960 -0.0469 -0.2890
  703MOL0     C94783   3.426   7.590   2.396 -0.9062 -0.1703 -0.6866
  703MOL0     C94784   3.496   7.709   2.469  0.2354 -0.3563  0.2447
  703MOL0     C94785   3.393   7.753   2.581 -0.2005  0.2259 -0.1306
  703MOL0     C94786   3.457   7.858   2.677 -0.7353  0.1589  0.3405
  703MOL0     N94787   3.366   7.935   2.753  0.6399  0.5987  0.5557
  703MOL0     C94788   3.257   8.014   2.714 -0.2498  0.8920 -0.8938
  703MOL0     C94789   3.214   8.086   2.821 -0.1802  0.6078  0.6449
  703MOL0     C94790   3.101   8.183   2.829 -0.4322 -0.1219  0.7220
  703MOL0     C94791   2.996   8.118   2.911 -0.0732 -0.5143  0.2640
  703MOL0     C94792   2.880   8.206   2.935 -0.3033 -0.1467  0.2894
  703MOL0     C94793   2.790   8.120   3.038  0.0952 -0.2620  0.4107
  703MOL0     O94794   2.656   8.171   3.048  1.0612 -0.5460  0.7057
  703MOL0     C94795   2.559   8.099   3.119 -1.5381  0.8138 -0.1109
  703MOL0     C94796   2.427   8.150   3.134  0.1561  0.1505 -0.4945
  703MOL0     C94797   2.322   8.084   3.202 -0.5587 -0.1864  0.6990
  703MOL0     C94798   2.201   8.157   3.224  0.5684  0.1000  0.7105
  703MOL0     C94799   2.348   7.956   3.259 -0.5389 -1.0245  0.0541
  703MOL0     C94800   2.252   7.868   3.328  0.0115  0.8746  0.4122
  703MOL0     O94801   2.147   7.926   3.388  0.2456 -1.0127  0.7317
  703MOL0     C94802   2.048   7.843   3.421 -1.0566 -0.6261  0.1863
  703MOL0     C94803   1.973   7.777   3.314  0.7551  0.5494  0.9518
  703MOL0     C94804   1.873   7.685   3.344  0.0930 -0.2058  0.2830
  703MOL0     C94805   1.842   7.664   3.483  1.1058  0.1538  0.1527
  703MOL0     O94806   1.746   7.568   3.499  0.2567 -1.1107  0.2059
  703MOL0     C94807   1.792   7.468   3.590 -0.2448  0.1240 -0.0943
  703MOL0     C94808   1.698   7.344   3.583 -0.3317  0.3626 -0.2070
  703MOL0     C94809   1.735   7.251   3.691 -0.4149  0.0032  0.3198
  703MOL0     C94810   1.656   7.119   3.669  0.4473  0.0279  0.0031
  703MOL0     C94811   1.705   7.019   3.558  0.4633 -0.3031  0.3898
  703MOL0     C94812   1.620   6.898   3.569  0.3927  0.5443 -0.2661
  703MOL0     C94813   1.680   6.794   3.475  0.1723 -0.2742 -0.7370
  703MOL0     C94814   1.648   6.650   3.501 -0.1340 -0.3136 -0.4649
  703MOL0    Cl94815   1.741   6.557   3.394  0.0735 -0.1701 -0.2496
  703MOL0     C94816   1.903   7.742   3.585 -0.3539  0.4950 -0.2851
  703MOL0     C94817   2.016   7.825   3.559  0.5221  0.5912  0.5374
  703MOL0     O94818   2.276   7.743   3.326  0.5455 -0.1335  0.0187
  703MOL0     C94819   2.483   7.913   3.258  0.3083  0.3374  0.1195
  703MOL0     C94820   2.591   7.979   3.187  0.3189  0.4983 -0.6393
  703MOL0     N94821   3.298   8.055   2.928  0.0076  0.5180 -0.7969
  703MOL0     N94822   3.380   7.957   2.892  0.2108  0.4727  0.1727
  703MOL0     C94823   3.061   7.227   1.897 -0.6243  0.1306  0.1556
  703MOL0     C94824   2.979   7.125   1.841 -0.6037 -0.3771 -0.0039
  703MOL0     C94825   2.868   6.710   1.704  1.5149  0.3900  0.2462
  703MOL0     C94826   2.856   6.577   1.746  0.3780  0.3105 -0.5956
  703MOL0     C94827   2.764   6.491   1.687  0.3064 -0.1481 -1.0079
  703MOL0     C94828   2.674   6.541   1.599 -0.1762  0.2099  0.5358
  703MOL0     O94829   2.571   6.453   1.566 -0.5687 -0.3678  0.0868
  703MOL0     C94830   2.453   6.498   1.489 -0.6776  0.4805 -1.2689
  703MOL0     C94831   2.330   6.508   1.573 -0.1526 -0.8489 -0.1514
  703MOL0     C94832   2.190   6.539   1.509 -0.0423 -0.9071  0.4009
  703MOL0     C94833   2.143   6.445   1.406 -0.3016  0.4442 -0.3031
  703MOL0     C94834   2.122   6.309   1.465  0.1766 -1.1613  0.1863
  703MOL0     C94835   2.120   6.204   1.519  0.4707  0.7926 -0.3651
  703MOL0     C94836   2.690   6.675   1.548 -0.3449 -0.6161 -0.2834
  703MOL0     C94837   2.791   6.756   1.602  0.6078  0.3090  0.0573
  703MOL0     H94838   3.225   6.933   1.713 -0.7871  0.4715 -1.4993
  703MOL0     H94839   3.366   7.103   1.821 -0.0091 -2.4774  2.6217
  703MOL0     H94840   3.411   7.208   2.039 -1.1935  1.7293  2.7959
  703MOL0     H94841   3.465   7.275   1.881  1.5204 -1.9110  1.0311
  703MOL0     H94842   3.563   7.341   2.089 -1.3224 -1.3702  0.5392
  703MOL0     H94843   3.516   7.494   2.002 -0.1399 -1.9376 -4.1749
  703MOL0     H94844   3.317   7.513   2.147 -1.5086 -2.6318 -0.7505
  703MOL0     H94845   3.355   7.385   2.255 -3.3820  0.3476 -1.0090
  703MOL0     H94846   3.588   7.511   2.293 -0.3417  0.3230  0.7228
  703MOL0     H94847   3.505   7.648   2.213  0.0833  1.0375  1.4594
  703MOL0     H94848   3.330   7.627   2.362 -0.4718 -0.0797 -1.8594
  703MOL0     H94849   3.435   7.505   2.465  2.8335 -0.8846 -1.7966
  703MOL0     H94850   3.592   7.686   2.516  0.7963 -0.4747 -0.9258
  703MOL0     H94851   3.517   7.783   2.392  0.0550  1.3800  1.7835
  703MOL0     H94852   3.309   7.807   2.535  0.5602  1.1797 -0.4426
  703MOL0     H94853   3.370   7.669   2.647 -0.0337  1.2273  1.2460
  703MOL0     H94854   3.518   7.928   2.619  0.2655 -0.0567  1.1154
  703MOL0     H94855   3.534   7.806   2.734 -1.7322 -2.2863 -0.4107
  703MOL0     H94856   3.200   8.015   2.622 -0.3554  1.0459 -0.8278
  703MOL0     H94857   3.136   8.277   2.873  0.4637 -0.7133  1.2941
  703MOL0     H94858   3.069   8.205   2.727 -0.9924 -2.3826  0.3520
  703MOL0     H94859   3.036   8.085   3.007 -1.0918 -2.6377  0.0023
  703MOL0     H94860   2.974   8.026   2.856  2.7414 -0.0760 -1.7754
  703MOL0     H94861   2.825   8.228   2.843 -4.2470  3.3842  3.0505
  703MOL0     H94862   2.898   8.305   2.978 -0.9331  0.1467 -0.1094
  703MOL0     H94863   2.835   8.127   3.137 -0.7251  1.2083  0.7002
  703MOL0     H94864   2.781   8.019   2.996 -1.7403  0.2266 -0.5011
  703MOL0     H94865   2.399   8.241   3.082  0.1149  1.0002  0.9665
  703MOL0     H94866   2.136   8.090   3.167  0.4561  0.6267  0.2101
  703MOL0     H94867   2.172   8.157   3.329 -2.0051 -0.8286  0.0804
  703MOL0     H94868   2.209   8.256   3.179  0.5969 -0.6027 -0.9044
  703MOL0     H94869   1.997   7.796   3.210 -0.8413  1.1268  0.6586
  703MOL0     H94870   1.828   7.640   3.255 -1.6551  2.8311 -0.5374
  703MOL0     H94871   1.893   7.437   3.561  0.0748 -0.6648  1.7247
  703MOL0     H94872   1.793   7.515   3.688 -0.9506  2.1472 -0.9977
  703MOL0     H94873   1.599   7.386   3.602  0.0347  1.1913 -0.0978
  703MOL0     H94874   1.712   7.289   3.489 -1.8340  1.0679 -0.8981
  703MOL0     H94875   1.700   7.293   3.786 -0.1973 -1.9330  1.2966
  703MOL0     H94876   1.843   7.236   3.700 -0.6130 -2.7097 -0.9480
  703MOL0     H94877   1.673   7.069   3.765  0.6224  1.0643  0.5262
  703MOL0     H94878   1.552   7.148   3.653 -0.2002 -2.2312 -0.1692
  703MOL0     H94879   1.810   6.991   3.567  0.8520  0.7750 -0.5264
  703MOL0     H94880   1.696   7.061   3.458  0.3872 -1.3846 -0.0702
  703MOL0     H94881   1.635   6.860   3.671  0.9000  1.5170  0.0346
  703MOL0     H94882   1.515   6.926   3.562  1.2286  4.9020  1.2410
  703MOL0     H94883   1.789   6.788   3.480  0.1047 -0.5858  0.8615
  703MOL0     H94884   1.650   6.806   3.370  0.3534  0.3878 -0.7153
  703MOL0     H94885   1.542   6.636   3.479 -0.6002  0.6167  1.0040
  703MOL0     H94886   1.667   6.627   3.607  0.4029  0.2929 -0.4227
  703MOL0     H94887   1.872   7.730   3.688 -4.1972  4.8973 -0.6097
  703MOL0     H94888   2.062   7.866   3.648 -0.8704 -0.6603  1.9100
  703MOL0     H94889   2.509   7.820   3.306  0.9049  0.9538  1.0103
  703MOL0     H94890   2.690   7.933   3.190 -0.7825 -1.9856  1.1183
  703MOL0     H94891   3.027   7.314   1.951  2.7543  1.2434  0.7437
  703MOL0     H94892   2.871   7.141   1.838 -0.7787 -0.8914  2.2651
  703MOL0     H94893   2.920   6.545   1.827 -0.7437  3.0528  1.5423
  703MOL0     H94894   2.762   6.389   1.724  0.9202 -0.0106 -0.5728
  703MOL0     H94895   2.480   6.593   1.442  1.8269  0.0342 -0.8633
  703MOL0     H94896   2.443   6.426   1.407  2.3297 -2.5421  0.7542
  703MOL0     H94897   2.349   6.586   1.647  0.3762 -0.9171 -0.2133
  703MOL0     H94898   2.328   6.412   1.626  3.2534 -0.6915  0.5035
  703MOL0     H94899   2.179   6.634   1.456  0.0738 -1.6352 -0.9736
  703MOL0     H94900   2.117   6.552   1.589  1.0964  1.4467  1.1634
  703MOL0     H94901   2.216   6.443   1.324  0.1595  2.2932  0.0246
  703MOL0     H94902   2.046   6.476   1.368 -0.3995  2.1451  1.1927
  703MOL0     H94903   2.122   6.110   1.570 -0.8706  1.0781  0.2337
  703MOL0     H94904   2.624   6.727   1.479 -2.0091 -2.3985 -0.1218
  703MOL0     H94905   2.797   6.856   1.560  1.4197 -0.4925 -1.7932
  704MOL0     O94906   9.321   9.787   5.425  0.0779 -0.9667  0.1416
  704MOL0     C94907   9.338   9.833   5.535 -1.0007 -0.8376 -0.1261
  704MOL0     O94908   9.239   9.846   5.628  0.5101 -0.1005  0.8441
  704MOL0     C94909   9.113   9.828   5.583 -0.2190 -0.1687  0.1793
  704MOL0     C94910   9.047   9.901   5.487  0.3875  0.4235  0.6310
  704MOL0     C94911   8.911   9.882   5.446  0.2976  0.3332 -0.0449
  704MOL0     C94912   8.850   9.766   5.500  0.7301  0.9119  0.5253
  704MOL0     O94913   8.731   9.717   5.460 -0.0340  0.5975  0.5099
  704MOL0     C94914   8.660   9.760   5.348 -0.3327  0.2015 -0.0066
  704MOL0     C94915   8.554   9.863   5.374 -0.5139  1.1111  0.0558
  704MOL0     C94916   8.441   9.803   5.453  0.5236 -0.2453  0.4703
  704MOL0     C94917   8.341   9.919   5.501 -0.5172  0.0325 -0.1316
  704MOL0     C94918   8.220   9.856   5.571 -0.0458  0.0655 -0.6265
  704MOL0     C94919   8.159   9.953   5.674 -0.3960  0.3960  0.3223
  704MOL0     C94920   8.060  10.054   5.623 -0.1542  0.1262  0.8523
  704MOL0     C94921   8.005  10.117   5.749 -0.3987 -0.1234 -0.0297
  704MOL0     N94922   7.875  10.177   5.717 -0.4171  0.8627 -0.1154
  704MOL0     C94923   7.760  10.133   5.771 -0.5339 -0.6759 -0.8679
  704MOL0     C94924   7.668  10.228   5.751 -0.1117  0.2359 -0.7219
  704MOL0     C94925   7.519  10.213   5.777 -0.1223  0.8534 -0.3017
  704MOL0     C94926   7.438  10.138   5.670  0.5318  0.1501 -0.4442
  704MOL0     C94927   7.290  10.097   5.700 -0.8691 -0.7722  0.2344
  704MOL0     C94928   7.204  10.228   5.721 -0.9047  0.9795  0.1102
  704MOL0     O94929   7.081  10.183   5.775  0.0332  0.1171 -0.3586
  704MOL0     C94930   6.978  10.272   5.782 -0.5121 -0.7783 -0.7848
  704MOL0     C94931   6.853  10.229   5.815  0.5121 -0.1963 -0.1219
  704MOL0     C94932   6.739  10.311   5.828  0.6173  0.0716  1.2056
  704MOL0     C94933   6.622  10.253   5.891 -0.1972  0.0547 -0.7688
  704MOL0     C94934   6.754  10.445   5.777  0.3859  0.7280  0.3372
  704MOL0     C94935   6.635  10.539   5.783  0.0389  0.9717 -0.3531
  704MOL0     O94936   6.638  10.634   5.688 -0.5464  0.5194 -0.0394
  704MOL0     C94937   6.542  10.733   5.688 -0.7463 -0.3252 -1.1108
  704MOL0     C94938   6.571  10.848   5.763  0.1275 -0.6260  1.0467
  704MOL0     C94939   6.484  10.957   5.765  0.6593 -0.4754 -0.2673
  704MOL0     C94940   6.351  10.946   5.705  0.2696  0.2930 -0.2957
  704MOL0     O94941   6.285  11.065   5.667  0.4990  0.5397  0.1322
  704MOL0     C94942   6.292  11.186   5.748  0.2631  0.0269 -0.4530
  704MOL0     C94943   6.195  11.285   5.680 -0.0269 -0.4068 -0.0332
  704MOL0     C94944   6.270  11.396   5.617 -0.0537  0.5340  0.1425
  704MOL0     C94945   6.322  11.498   5.728 -1.1310  0.9664  0.5661
  704MOL0     C94946   6.387  11.612   5.641  0.4515 -0.3438  0.0989
  704MOL0     C94947   6.432  11.731   5.726 -1.0662 -0.2860  0.2165
  704MOL0     C94948   6.558  11.697   5.811 -0.4605  0.8616  0.1307
  704MOL0     C94949   6.635  11.817   5.870 -0.2233  0.5763  0.2276
  704MOL0    Cl94950   6.771  11.775   5.972 -0.4791  0.3488  0.0596
  704MOL0     C94951   6.318  10.828   5.646 -0.4775  0.2111  0.9131
  704MOL0     C94952   6.412  10.726   5.630 -1.5111 -0.1708  0.4205
  704MOL0     O94953   6.544  10.520   5.866 -0.3204 -0.3118  0.2138
  704MOL0     C94954   6.875  10.488   5.720 -0.4331 -0.0021 -0.3308
  704MOL0     C94955   6.986  10.400   5.727 -0.0728 -0.4708 -0.6849
  704MOL0     N94956   7.739  10.335   5.709  0.3532 -0.8258  0.6338
  704MOL0     N94957   7.857  10.306   5.687  0.1444  0.4971 -0.7965
  704MOL0     C94958   8.919   9.697   5.605 -0.1299  0.6216  0.2031
  704MOL0     C94959   9.041   9.735   5.647  0.1279 -0.9269  0.4114
  704MOL0     C94960   9.477   9.878   5.582 -0.7292 -0.3148  0.3857
  704MOL0     C94961   9.600   9.836   5.525 -0.7332 -0.6503  0.8060
  704MOL0     C94962   9.731   9.872   5.581  0.0880  0.1228 -0.0045
  704MOL0     C94963   9.742   9.946   5.694 -0.1873  0.2983  0.0978
  704MOL0     O94964   9.864   9.962   5.759  0.1271  0.4693  0.3371
  704MOL0     C94965   9.952  10.055   5.699  0.3319  0.4116 -0.2189
  704MOL0     C94966  10.053  10.091   5.803  0.3355 -0.0764  0.3408
  704MOL0     C94967   9.993  10.155   5.932 -0.5684 -0.2295 -0.1337
  704MOL0     C94968  10.090  10.137   6.055  0.5201 -0.1385  0.4565
  704MOL0     C94969  10.117   9.997   6.101 -0.6077 -0.4265  0.2756
  704MOL0     C94970  10.147   9.889   6.145 -0.2353 -0.4459 -0.1654
  704MOL0     C94971   9.626   9.999   5.741 -0.4564  0.1386  0.9131
  704MOL0     C94972   9.501   9.963   5.690 -1.4555 -0.7435 -0.4510
  704MOL0     H94973   9.094   9.994   5.457  0.2731 -0.4411 -2.5842
  704MOL0     H94974   8.875   9.954   5.373  1.5588 -0.4880 -1.5406
  704MOL0     H94975   8.725   9.802   5.271 -2.9235  1.3717 -1.7067
  704MOL0     H94976   8.612   9.683   5.287  0.7444  1.1034 -2.1040
  704MOL0     H94977   8.605   9.943   5.429 -1.1652  0.9924  0.8465
  704MOL0     H94978   8.509   9.913   5.287 -1.4502  2.3183  1.1801
  704MOL0     H94979   8.397   9.724   5.391 -0.6237 -0.0311  0.9832
  704MOL0     H94980   8.489   9.750   5.536  1.0045  1.5860  1.4145
  704MOL0     H94981   8.392   9.992   5.565  1.5871 -2.3822  1.1295
  704MOL0     H94982   8.298   9.972   5.417 -0.9078  3.7068  2.1840
  704MOL0     H94983   8.146   9.831   5.494 -1.1289  0.5576  0.2314
  704MOL0     H94984   8.246   9.765   5.625 -1.0528  0.2342  0.1786
  704MOL0     H94985   8.112   9.897   5.756  1.2394  1.0131  1.7211
  704MOL0     H94986   8.240  10.006   5.725 -0.3734 -0.2917  1.0171
  704MOL0     H94987   8.117  10.118   5.554 -3.3285  0.0122 -2.1392
  704MOL0     H94988   7.980  10.005   5.567  1.9707 -2.2047 -0.3485
  704MOL0     H94989   8.061  10.207   5.776 -0.2604 -0.0999 -0.3838
  704MOL0     H94990   7.997  10.067   5.845 -2.1976  1.4183  0.6896
  704MOL0     H94991   7.750  10.032   5.811 -1.5252 -0.9055 -1.6334
  704MOL0     H94992   7.514  10.144   5.862 -2.1064  0.2555 -0.8625
  704MOL0     H94993   7.470  10.305   5.810  1.5141  2.2176 -1.5024
  704MOL0     H94994   7.499  10.053   5.640  1.1894  1.3293 -2.7304
  704MOL0     H94995   7.442  10.191   5.574  0.5492 -1.7582 -1.5319
  704MOL0     H94996   7.283  10.044   5.796 -0.7159  5.0239  3.9271
  704MOL0     H94997   7.270  10.039   5.609  3.5058  0.0606 -1.5053
  704MOL0     H94998   7.185  10.267   5.621 -1.2170  0.6315  0.0350
  704MOL0     H94999   7.241  10.309   5.784  0.0578  1.3294 -0.8829
  704MOL0     H95000   6.840  10.124   5.843 -1.4492  0.1543  0.4829
  704MOL0     H95001   6.523  10.291   5.863 -0.0643 -0.1127 -1.4937
  704MOL0     H95002   6.612  10.147   5.864 -6.7483 -0.1026  0.6398
  704MOL0     H95003   6.623  10.263   6.000  0.9750 -0.1845 -0.7481
  704MOL0     H95004   6.670  10.864   5.803  0.0751 -1.7114  1.6368
  704MOL0     H95005   6.516  11.055   5.799  1.0468 -1.3347  2.0801
  704MOL0     H95006   6.266  11.166   5.853 -0.1378  1.5587 -0.2415
  704MOL0     H95007   6.392  11.224   5.768 -0.3998  0.8869  1.5307
  704MOL0     H95008   6.137  11.236   5.601 -0.9672  0.1653  0.2867
  704MOL0     H95009   6.130  11.329   5.756  1.5338 -1.6985  2.1716
  704MOL0     H95010   6.208  11.443   5.540 -1.0746 -1.1318 -0.1053
  704MOL0     H95011   6.363  11.354   5.578 -1.9756 -2.3967 -1.6952
  704MOL0     H95012   6.240  11.543   5.785 -3.0618 -0.1238 -1.2130
  704MOL0     H95013   6.399  11.454   5.793  1.5205  1.7564 -1.8700
  704MOL0     H95014   6.314  11.656   5.573  0.8120  1.4283  0.8260
  704MOL0     H95015   6.466  11.562   5.585 -0.7087 -1.6037 -0.4731
  704MOL0     H95016   6.453  11.813   5.657 -4.3802  0.1170 -0.4841
  704MOL0     H95017   6.360  11.762   5.803 -1.6534 -0.4094 -0.2773
  704MOL0     H95018   6.627  11.649   5.742  0.3380  1.4385  0.5175
  704MOL0     H95019   6.527  11.633   5.894 -0.0601  0.3690 -0.0942
  704MOL0     H95020   6.579  11.892   5.927  0.5042  0.6714  0.8356
  704MOL0     H95021   6.679  11.870   5.786 -0.0295  3.0212  1.7602
  704MOL0     H95022   6.228  10.809   5.588  1.2286 -1.4906 -1.3818
  704MOL0     H95023   6.403  10.639   5.566  1.8730  0.6904 -1.4644
  704MOL0     H95024   6.893  10.588   5.682 -0.5984  0.4849  0.8434
  704MOL0     H95025   7.082  10.444   5.702 -0.7185  1.6754  0.3507
  704MOL0     H95026   8.879   9.605   5.646 -0.8620  0.2732 -1.2180
  704MOL0     H95027   9.093   9.673   5.719  2.3115 -0.0668 -0.3683
  704MOL0     H95028   9.589   9.759   5.449  0.9097  0.0320 -0.1840
  704MOL0     H95029   9.826   9.840   5.539  0.3104  1.4694 -0.5869
  704MOL0     H95030   9.998  10.010   5.611 -0.4029 -1.1711  0.1662
  704MOL0     H95031   9.892  10.141   5.667  0.3558  0.3792 -0.3486
  704MOL0     H95032  10.111  10.169   5.754 -0.0894 -0.3734 -0.6553
  704MOL0     H95033  10.109  10.000   5.827 -1.9940 -1.4858  0.8165
  704MOL0     H95034   9.898  10.112   5.966 -0.5907 -0.0642  0.0177
  704MOL0     H95035   9.974  10.263   5.921 -1.2565 -0.0943  1.9837
  704MOL0     H95036  10.048  10.196   6.138 -0.0007  0.1654 -0.0113
  704MOL0     H95037  10.193  10.170   6.039  0.8474  0.3815  3.1844
  704MOL0     H95038  10.159   9.787   6.175 -1.3971 -0.9976 -1.4705
  704MOL0     H95039   9.636  10.064   5.827  2.4624  1.9224 -0.6532
  704MOL0     H95040   9.415  10.005   5.742 -0.9293  0.9029 -0.8253
  705MOL0     O95041   9.873   0.110   0.814 -0.2331  0.1701 -0.1254
  705MOL0     C95042   9.956   0.128   0.908  0.3630 -0.3561 -0.3453
  705MOL0     O95043   9.922   0.151   1.045 -0.3460 -0.1902  0.9190
  705MOL0     C95044   9.789   0.167   1.066 -0.2009 -0.8375 -0.6211
  705MOL0     C95045   9.708   0.059   1.061  0.0759  0.2463  0.1526
  705MOL0     C95046   9.569   0.083   1.063  0.2275  0.8852 -0.4439
  705MOL0     C95047   9.508   0.204   1.105 -1.1224 -0.0943  0.0560
  705MOL0     O95048   9.377   0.210   1.121  0.3187  0.5606 -0.2532
  705MOL0     C95049   9.317   0.191   1.246  0.2481  0.2439 -0.3980
  705MOL0     C95050   9.304   0.328   1.314 -0.3154  0.4874  0.4288
  705MOL0     C95051   9.262   0.318   1.466  0.0552  0.1071  0.5990
  705MOL0     C95052   9.109   0.306   1.467  0.3381 -1.5244  1.2600
  705MOL0     C95053   9.066   0.245   1.608  0.4942  0.2956  0.0637
  705MOL0     C95054   8.924   0.262   1.636 -0.2671 -0.5307 -0.3369
  705MOL0     C95055   8.827   0.206   1.535  0.8465 -0.3573 -0.8859
  705MOL0     C95056   8.858   0.054   1.514  0.1387  0.0245 -0.7780
  705MOL0     N95057   8.751  -0.007   1.441 -1.1548 -0.1069 -0.1192
  705MOL0     C95058   8.632  -0.052   1.490  0.3312 -0.1715 -0.1550
  705MOL0     C95059   8.561  -0.103   1.381  0.3569  0.0296  0.5493
  705MOL0     C95060   8.420  -0.158   1.389  0.0251  0.3689 -0.1970
  705MOL0     C95061   8.436  -0.314   1.401  0.2477 -0.0058  0.7098
  705MOL0     C95062   8.321  -0.402   1.349  0.2467 -0.3061 -0.4153
  705MOL0     C95063   8.179  -0.347   1.387 -0.1247 -0.0224  0.0856
  705MOL0     O95064   8.100  -0.468   1.386 -0.0842 -0.0406  0.1418
  705MOL0     C95065   7.970  -0.447   1.356 -0.2505  0.6154 -1.1938
  705MOL0     C95066   7.885  -0.374   1.446 -0.4768  0.3940  0.9394
  705MOL0     C95067   7.748  -0.373   1.424 -0.0689  0.2383 -0.2826
  705MOL0     C95068   7.652  -0.299   1.516 -0.1979  0.2775  0.7408
  705MOL0     C95069   7.697  -0.425   1.308 -0.5265 -0.6294  1.1125
  705MOL0     C95070   7.559  -0.420   1.258 -0.1542 -0.3561  0.6449
  705MOL0     O95071   7.534  -0.363   1.136  0.6038 -0.4100  0.1674
  705MOL0     C95072   7.406  -0.352   1.087  0.7033  0.1605  0.1777
  705MOL0     C95073   7.317  -0.259   1.140  0.5505 -0.2526 -0.5675
  705MOL0     C95074   7.196  -0.230   1.065  0.8288  0.9016 -0.0559
  705MOL0     C95075   7.167  -0.297   0.945  0.7529 -0.0676 -0.9192
  705MOL0     O95076   7.046  -0.270   0.899  0.1058 -0.3080  0.0823
  705MOL0     C95077   7.000  -0.340   0.780  0.7005 -0.7714  0.1556
  705MOL0     C95078   6.857  -0.303   0.781  0.6255  0.1452 -0.3319
  705MOL0     C95079   6.785  -0.374   0.665  0.2629  1.2643 -0.0366
  705MOL0     C95080   6.651  -0.313   0.639 -0.3453 -0.3491 -0.5806
  705MOL0     C95081   6.586  -0.372   0.521  0.1670 -0.2249 -0.1998
  705MOL0     C95082   6.447  -0.310   0.497  0.3462  0.9854  0.4269
  705MOL0     C95083   6.387  -0.384   0.378  1.2631  0.0015  0.2919
  705MOL0     C95084   6.275  -0.292   0.323  0.1258  0.5383 -0.4216
  705MOL0    Cl95085   6.116  -0.319   0.411 -0.1554 -0.3336  0.0564
  705MOL0     C95086   7.258  -0.392   0.900 -0.6387 -0.1260 -0.2556
  705MOL0     C95087   7.380  -0.417   0.961  0.1524  0.3496 -0.1708
  705MOL0     O95088   7.473  -0.463   1.331 -0.0462 -0.3954 -0.2240
  705MOL0     C95089   7.783  -0.490   1.220  0.7623 -0.3420  0.2149
  705MOL0     C95090   7.918  -0.508   1.248 -0.6407 -0.0814  0.5366
  705MOL0     N95091   8.640  -0.071   1.272 -0.4358 -0.7672  0.0834
  705MOL0     N95092   8.753  -0.020   1.305  0.3659  0.4522 -0.7296
  705MOL0     C95093   9.595   0.314   1.105  0.9525  0.3554 -0.1672
  705MOL0     C95094   9.738   0.300   1.072  0.7975  0.4198 -0.6233
  705MOL0     C95095  10.098   0.097   0.888  0.0140 -0.5338  0.3258
  705MOL0     C95096  10.132  -0.005   0.789 -0.9238  0.3344  0.7287
  705MOL0     C95097  10.267  -0.017   0.758 -0.2466 -0.7200  1.1807
  705MOL0     C95098  10.360   0.060   0.819  0.1270 -0.2947 -0.2771
  705MOL0     O95099  10.491   0.050   0.783  0.0244 -0.1140 -0.1958
  705MOL0     C95100  10.551  -0.077   0.813  0.5455  0.1824  0.6210
  705MOL0     C95101  10.693  -0.094   0.756 -0.3817  0.0592 -0.5290
  705MOL0     C95102  10.795  -0.037   0.850 -0.9931 -0.0895 -0.2458
  705MOL0     C95103  10.896   0.062   0.785  0.1079  0.5389  0.2276
  705MOL0     C95104  10.830   0.176   0.715  0.4500 -0.6066  0.1778
  705MOL0     C95105  10.755   0.265   0.676  0.2018  0.3554 -0.0545
  705MOL0     C95106  10.328   0.147   0.911  0.2515 -0.2548 -0.1033
  705MOL0     C95107  10.198   0.169   0.950  0.0686 -0.3034  0.1790
  705MOL0     H95108   9.744  -0.043   1.052  0.8494  0.4384  0.8996
  705MOL0     H95109   9.504  -0.000   1.041 -0.7475  1.2195  0.9941
  705MOL0     H95110   9.221   0.140   1.234 -0.7143  1.7036  0.7173
  705MOL0     H95111   9.363   0.114   1.308  0.2868  1.5260  1.2261
  705MOL0     H95112   9.404   0.372   1.310 -0.2790  0.2868 -2.3671
  705MOL0     H95113   9.237   0.397   1.263  0.1502  0.4519 -0.2493
  705MOL0     H95114   9.309   0.233   1.515  0.5933  0.0133 -0.0540
  705MOL0     H95115   9.291   0.412   1.513  0.7161 -0.0797  0.5739
  705MOL0     H95116   9.074   0.409   1.457  2.2898 -0.4906  3.8716
  705MOL0     H95117   9.061   0.257   1.382  0.7023 -0.1094  0.1977
  705MOL0     H95118   9.084   0.137   1.604 -0.3820 -0.0441  2.9263
  705MOL0     H95119   9.120   0.276   1.698 -0.9468 -1.2386  1.5206
  705MOL0     H95120   8.897   0.212   1.730  1.3685 -2.8430 -1.0157
  705MOL0     H95121   8.893   0.367   1.643 -0.0118 -0.4793  0.0691
  705MOL0     H95122   8.723   0.209   1.569  1.0727 -2.3459  0.1051
  705MOL0     H95123   8.823   0.257   1.438  1.4466 -0.7160 -1.1066
  705MOL0     H95124   8.873  -0.002   1.607  1.6542 -0.6439 -1.3932
  705MOL0     H95125   8.945   0.049   1.448 -0.4330  0.5317 -1.5904
  705MOL0     H95126   8.613  -0.059   1.597  0.9691  1.0798  0.0648
  705MOL0     H95127   8.359  -0.129   1.475  1.0499  1.7064  0.1220
  705MOL0     H95128   8.363  -0.129   1.300 -1.8295  2.5398  1.5890
  705MOL0     H95129   8.465  -0.339   1.503  2.4942  1.6381  0.5550
  705MOL0     H95130   8.526  -0.349   1.349  0.9988  0.5129  1.6324
  705MOL0     H95131   8.341  -0.487   1.414  0.1890  1.0680  1.4993
  705MOL0     H95132   8.329  -0.415   1.240 -1.1059 -1.5925 -0.3960
  705MOL0     H95133   8.131  -0.271   1.325 -3.0826 -0.0193  2.1389
  705MOL0     H95134   8.178  -0.314   1.491 -1.2380 -1.0459  0.4300
  705MOL0     H95135   7.950  -0.341   1.526  1.3054 -2.3915  0.7793
  705MOL0     H95136   7.707  -0.236   1.587  1.0878  1.2377 -1.0454
  705MOL0     H95137   7.585  -0.239   1.455 -1.8999 -1.1825  1.0847
  705MOL0     H95138   7.605  -0.380   1.573  0.8203 -0.9579 -0.1285
  705MOL0     H95139   7.328  -0.212   1.237 -2.7466  0.7211 -0.5365
  705MOL0     H95140   7.130  -0.158   1.113 -1.5250 -2.4994  2.3210
  705MOL0     H95141   7.043  -0.309   0.684 -2.0338 -0.4459 -1.0607
  705MOL0     H95142   7.014  -0.449   0.776  4.0942 -0.4272 -0.3062
  705MOL0     H95143   6.815  -0.345   0.873 -0.8491 -0.3924 -1.1986
  705MOL0     H95144   6.840  -0.195   0.790  0.2462  0.2464 -1.9301
  705MOL0     H95145   6.775  -0.481   0.687  2.4876  0.3416 -2.9596
  705MOL0     H95146   6.851  -0.378   0.578  2.1111  2.4852  1.2387
  705MOL0     H95147   6.591  -0.326   0.729 -0.5367  0.9630 -0.5003
  705MOL0     H95148   6.665  -0.206   0.619 -0.3041 -0.8138 -3.5124
  705MOL0     H95149   6.574  -0.479   0.508 -0.9230  0.2231 -3.7427
  705MOL0     H95150   6.649  -0.343   0.436 -1.5933  1.2790 -1.0609
  705MOL0     H95151   6.389  -0.329   0.588 -1.8994 -3.1307 -1.5823
  705MOL0     H95152   6.462  -0.204   0.476 -0.3659  0.7122 -1.7648
  705MOL0     H95153   6.340  -0.472   0.423 -0.3788  1.3245  1.2780
  705MOL0     H95154   6.460  -0.405   0.300  1.3339 -1.0112  0.6179
  705MOL0     H95155   6.265  -0.314   0.216 -1.1784  1.3509 -0.4890
  705MOL0     H95156   6.319  -0.192   0.334 -0.5491  0.6699  1.3886
  705MOL0     H95157   7.244  -0.436   0.802 -0.4222 -5.6205  1.8156
  705MOL0     H95158   7.445  -0.494   0.921 -0.6985  0.5527 -2.0465
  705MOL0     H95159   7.736  -0.522   1.128  0.3683 -1.9261  0.9491
  705MOL0     H95160   7.986  -0.554   1.177  2.0276 -0.1406  2.9836
  705MOL0     H95161   9.552   0.413   1.118  1.9682  0.4401  3.3982
  705MOL0     H95162   9.805   0.386   1.078 -2.1896  2.8447  3.5451
  705MOL0     H95163  10.065  -0.073   0.737 -0.7075  1.6328 -1.3637
  705MOL0     H95164  10.290  -0.082   0.675  0.0590  0.8789 -0.0459
  705MOL0     H95165  10.557  -0.089   0.921  0.7302 -0.6098  0.5264
  705MOL0     H95166  10.498  -0.162   0.770  0.5316  0.4262  0.1449
  705MOL0     H95167  10.691  -0.062   0.651 -0.4445 -0.8784 -0.8169
  705MOL0     H95168  10.708  -0.201   0.742  0.7192 -0.1655  1.8907
  705MOL0     H95169  10.854  -0.120   0.890 -1.3302 -0.1730  0.0861
  705MOL0     H95170  10.748   0.007   0.938 -2.1839  0.6681 -1.2120
  705MOL0     H95171  10.964   0.019   0.711 -0.6772  0.1770 -0.2989
  705MOL0     H95172  10.956   0.093   0.870 -2.8521  1.5760  2.1204
  705MOL0     H95173  10.690   0.344   0.644 -2.1983 -1.4261  0.1756
  705MOL0     H95174  10.405   0.208   0.957  0.1683  0.7863 -1.2831
  705MOL0     H95175  10.169   0.243   1.024 -0.6417  0.5690 -0.9404
  706MOL0     O95176   8.419   7.621   1.786  0.0021  0.1093 -0.5679
  706MOL0     C95177   8.444   7.743   1.793 -0.4704  0.4444 -0.0075
  706MOL0     O95178   8.571   7.805   1.792  0.0528 -0.3598  0.3874
  706MOL0     C95179   8.684   7.730   1.776  0.2198  0.2250  0.5445
  706MOL0     C95180   8.755   7.737   1.656 -0.7818 -1.0450 -0.4126
  706MOL0     C95181   8.857   7.649   1.631 -0.3504 -0.1383  0.1514
  706MOL0     C95182   8.900   7.552   1.711 -0.0524 -0.5265  0.1311
  706MOL0     O95183   8.991   7.459   1.691  0.6783 -0.0854 -0.2174
  706MOL0     C95184   9.111   7.504   1.625  0.4319  0.3612 -0.5402
  706MOL0     C95185   9.213   7.393   1.636 -1.0101 -0.4210 -0.2533
  706MOL0     C95186   9.342   7.446   1.578 -0.6040  0.1715 -0.0751
  706MOL0     C95187   9.457   7.340   1.554 -1.1193 -0.5617 -0.6643
  706MOL0     C95188   9.598   7.394   1.509  0.0926 -0.5391 -0.0849
  706MOL0     C95189   9.675   7.452   1.629  0.1708 -0.3148  0.0151
  706MOL0     C95190   9.825   7.479   1.593  0.2460  0.1877 -1.1427
  706MOL0     C95191   9.900   7.533   1.724  0.0469 -0.5572 -0.1446
  706MOL0     N95192  10.033   7.592   1.690  0.2004  0.3690 -0.6207
  706MOL0     C95193  10.072   7.727   1.704 -0.1005  0.1651  0.5240
  706MOL0     C95194  10.209   7.718   1.702  0.1689 -0.3458 -0.1277
  706MOL0     C95195  10.298   7.835   1.727 -0.0435 -0.0318  0.1534
  706MOL0     C95196  10.412   7.818   1.824 -0.5157 -0.0471  0.5002
  706MOL0     C95197  10.363   7.764   1.959 -1.6949  1.1544  0.9362
  706MOL0     C95198  10.472   7.669   2.018  0.0227 -0.0749  0.8427
  706MOL0     O95199  10.410   7.589   2.121 -0.7665  0.1155 -0.4833
  706MOL0     C95200  10.322   7.491   2.084 -1.0376 -1.2452 -0.2827
  706MOL0     C95201  10.254   7.420   2.184 -0.5530  0.0511 -0.2082
  706MOL0     C95202  10.170   7.313   2.158  1.2877 -0.5459 -0.3436
  706MOL0     C95203  10.104   7.251   2.269  0.2866 -1.2738  0.6126
  706MOL0     C95204  10.156   7.269   2.024  0.2294  0.5015  1.0102
  706MOL0     C95205  10.051   7.165   1.980  0.6194 -0.2154  0.2026
  706MOL0     O95206  10.039   7.147   1.840 -0.0893  0.1895  0.1948
  706MOL0     C95207   9.928   7.081   1.785 -0.2629 -0.0448 -0.0460
  706MOL0     C95208   9.945   6.990   1.680 -0.0603  0.3093 -0.1010
  706MOL0     C95209   9.834   6.930   1.617  0.5858  0.2245 -0.3366
  706MOL0     C95210   9.702   6.964   1.650 -0.2562 -0.6274 -0.2258
  706MOL0     O95211   9.602   6.898   1.590 -0.4227  0.9183 -0.2627
  706MOL0     C95212   9.483   6.875   1.663  0.1672 -0.3659 -0.2106
  706MOL0     C95213   9.404   6.745   1.635  0.4135  0.0916  0.9091
  706MOL0     C95214   9.368   6.729   1.483 -0.6791  0.4491  0.3355
  706MOL0     C95215   9.263   6.817   1.425 -0.6400 -0.4727 -0.5699
  706MOL0     C95216   9.287   6.809   1.269  0.7082  0.1545  0.0129
  706MOL0     C95217   9.179   6.893   1.192  0.5025 -0.2829  0.1630
  706MOL0     C95218   9.224   6.901   1.048 -0.3566  1.0862  0.2275
  706MOL0     C95219   9.112   6.958   0.977 -0.3281 -0.1552  1.6514
  706MOL0    Cl95220   9.088   7.136   1.015 -0.2960 -0.0519 -0.5569
  706MOL0     C95221   9.687   7.049   1.760 -0.6318  0.1178  0.7710
  706MOL0     C95222   9.794   7.108   1.823  0.4184 -0.3312  0.0595
  706MOL0     O95223   9.979   7.106   2.068 -0.9900  1.4464  0.4040
  706MOL0     C95224  10.234   7.330   1.922  0.2777  0.1259  0.2635
  706MOL0     C95225  10.315   7.438   1.955 -0.3454 -0.0147 -0.1949
  706MOL0     N95226  10.246   7.586   1.693  0.8711 -0.9800  0.5337
  706MOL0     N95227  10.142   7.514   1.694 -0.9711  0.0769  0.6132
  706MOL0     C95228   8.832   7.543   1.837  0.0365  0.3066 -0.3488
  706MOL0     C95229   8.714   7.627   1.867 -0.3623 -0.3635  0.0148
  706MOL0     C95230   8.332   7.822   1.833 -0.3334 -0.7396 -0.6195
  706MOL0     C95231   8.348   7.956   1.881 -0.9748  0.5034  0.7199
  706MOL0     C95232   8.241   8.037   1.908 -0.7080 -0.8082  0.0673
  706MOL0     C95233   8.119   8.002   1.864  0.6510  1.0795  0.4401
  706MOL0     O95234   8.006   8.070   1.870 -0.1238 -0.2084  0.3185
  706MOL0     C95235   7.994   8.171   1.977  1.0833  0.2957  0.4497
  706MOL0     C95236   7.867   8.253   1.978  0.4611  0.9066 -0.5775
  706MOL0     C95237   7.856   8.337   1.859  0.3997  0.8732  0.8877
  706MOL0     C95238   7.823   8.488   1.867 -0.2326 -0.3155  0.8659
  706MOL0     C95239   7.696   8.514   1.932 -0.0179 -0.2494 -0.1450
  706MOL0     C95240   7.589   8.540   1.987 -0.3541 -0.5390 -0.3162
  706MOL0     C95241   8.098   7.869   1.808 -0.5551 -0.7756  0.4547
  706MOL0     C95242   8.203   7.782   1.801  0.4555  0.0827 -0.1423
  706MOL0     H95243   8.743   7.819   1.585 -0.3332  1.3748  2.1378
  706MOL0     H95244   8.911   7.660   1.537 -1.4721  0.3635 -0.4505
  706MOL0     H95245   9.092   7.518   1.519  0.7430 -1.6549 -0.9066
  706MOL0     H95246   9.153   7.590   1.678 -0.2586 -0.0998  0.8243
  706MOL0     H95247   9.233   7.375   1.742 -1.2590  1.5927  0.1871
  706MOL0     H95248   9.177   7.303   1.586 -1.9373 -1.4062  2.0296
  706MOL0     H95249   9.318   7.484   1.478 -0.2296 -3.0124 -1.5107
  706MOL0     H95250   9.383   7.521   1.645  0.1813 -1.5512  1.4625
  706MOL0     H95251   9.460   7.272   1.640 -0.7074 -2.1474 -1.8645
  706MOL0     H95252   9.431   7.288   1.461 -2.8038 -1.6356  0.3513
  706MOL0     H95253   9.660   7.318   1.460  1.3561  0.2056  0.3089
  706MOL0     H95254   9.578   7.468   1.431 -2.5571  0.4225  1.3777
  706MOL0     H95255   9.623   7.545   1.654 -0.7422 -0.3173 -1.7625
  706MOL0     H95256   9.669   7.380   1.711  0.1853 -2.1464 -1.5333
  706MOL0     H95257   9.876   7.389   1.559  0.8276 -0.7084  1.8261
  706MOL0     H95258   9.827   7.551   1.510  1.5568  1.9637  0.3478
  706MOL0     H95259   9.919   7.441   1.781 -0.1657 -0.5049  0.0101
  706MOL0     H95260   9.831   7.590   1.787 -0.6221 -2.2615  0.7469
  706MOL0     H95261  10.005   7.809   1.728 -0.9724  0.4574 -2.4368
  706MOL0     H95262  10.327   7.863   1.626 -3.1742 -0.5676 -1.0145
  706MOL0     H95263  10.241   7.918   1.770  0.8920  0.7915 -0.1839
  706MOL0     H95264  10.475   7.907   1.832 -0.6647  0.3505 -1.8143
  706MOL0     H95265  10.475   7.742   1.777 -1.2567  0.3338 -1.2010
  706MOL0     H95266  10.265   7.716   1.944 -0.0847 -1.7618 -1.2668
  706MOL0     H95267  10.350   7.838   2.038 -2.0316 -1.0869  3.1117
  706MOL0     H95268  10.549   7.735   2.058  0.8450  0.5702 -1.6185
  706MOL0     H95269  10.514   7.601   1.944 -1.3132 -0.4032  0.3606
  706MOL0     H95270  10.295   7.446   2.281  1.6119  1.1789 -1.3519
  706MOL0     H95271  10.115   7.142   2.273 -3.9582 -1.9328 -0.9921
  706MOL0     H95272  10.148   7.277   2.365 -0.3339 -1.8960  1.0750
  706MOL0     H95273   9.997   7.262   2.253  0.6961  0.6178 -1.3702
  706MOL0     H95274  10.050   6.970   1.658 -0.2582 -0.4933 -0.3683
  706MOL0     H95275   9.852   6.861   1.535  0.8745 -1.4882  1.1193
  706MOL0     H95276   9.488   6.869   1.773 -1.2180  1.0996 -0.0213
  706MOL0     H95277   9.425   6.965   1.637  1.2832  1.2533  2.4291
  706MOL0     H95278   9.476   6.669   1.668 -0.6009 -0.0949  2.7873
  706MOL0     H95279   9.312   6.748   1.693 -0.3120  0.5103 -0.2370
  706MOL0     H95280   9.331   6.628   1.464 -4.6082  2.0605 -1.7965
  706MOL0     H95281   9.461   6.734   1.425 -1.6299 -2.0243 -1.5782
  706MOL0     H95282   9.165   6.782   1.460  0.8238 -1.8987  2.5504
  706MOL0     H95283   9.274   6.921   1.457 -2.2765 -0.6144  0.5807
  706MOL0     H95284   9.285   6.702   1.249 -1.2526 -0.6391  3.6161
  706MOL0     H95285   9.387   6.852   1.261  1.5206 -1.0088  2.6077
  706MOL0     H95286   9.079   6.851   1.204 -0.7371  2.1156 -1.1125
  706MOL0     H95287   9.176   6.990   1.241  0.1277 -1.5942  2.9609
  706MOL0     H95288   9.246   6.801   1.010 -1.0559  0.8676  0.3792
  706MOL0     H95289   9.314   6.959   1.029  0.8438 -0.5778  0.6353
  706MOL0     H95290   9.017   6.906   0.995 -0.2472 -0.2758  1.7322
  706MOL0     H95291   9.136   6.933   0.873  0.1028  1.9008  1.2180
  706MOL0     H95292   9.586   7.082   1.776 -1.1970 -0.8355 -0.5697
  706MOL0     H95293   9.778   7.194   1.887 -0.5478 -1.1858  1.0109
  706MOL0     H95294  10.225   7.301   1.818  1.3247 -1.1953  0.5048
  706MOL0     H95295  10.372   7.470   1.868 -0.2069  1.4323  0.3931
  706MOL0     H95296   8.867   7.471   1.911 -1.5270 -0.4838 -0.3408
  706MOL0     H95297   8.651   7.622   1.955  0.8284 -0.1249  0.9188
  706MOL0     H95298   8.446   7.982   1.919 -1.0352  2.3798 -0.2742
  706MOL0     H95299   8.259   8.132   1.957 -2.1014 -0.4190 -0.1522
  706MOL0     H95300   7.983   8.115   2.070 -0.4062 -3.0081 -1.5196
  706MOL0     H95301   8.080   8.239   1.980  2.0818 -0.9083 -0.2500
  706MOL0     H95302   7.875   8.312   2.070 -1.2678  0.5448 -0.1563
  706MOL0     H95303   7.777   8.193   1.995  0.7427  0.9077  1.1140
  706MOL0     H95304   7.790   8.300   1.779 -0.0054 -0.8485  1.9689
  706MOL0     H95305   7.953   8.330   1.809 -0.6124 -0.7185 -1.0173
  706MOL0     H95306   7.836   8.531   1.767  2.8623  0.2863  1.4000
  706MOL0     H95307   7.896   8.541   1.929 -0.5998 -0.0695  1.0916
  706MOL0     H95308   7.494   8.565   2.029  0.9495  1.0042  1.8961
  706MOL0     H95309   8.001   7.831   1.776 -0.5981 -0.0190 -0.3583
  706MOL0     H95310   8.171   7.693   1.748 -3.0078  0.4906  1.0370
  707MOL0     O95311  11.234   7.090   5.354  0.0453 -0.6422 -0.2460
  707MOL0     C95312  11.240   6.977   5.303  0.0715 -0.1523  0.1203
  707MOL0     O95313  11.141   6.906   5.237  0.0465 -0.2459  0.1980
  707MOL0     C95314  11.012   6.952   5.254  0.6253 -0.3778 -0.0745
  707MOL0     C95315  10.968   7.085   5.223 -0.7102 -0.5151  0.0131
  707MOL0     C95316  10.845   7.131   5.266  0.3728 -0.2283  0.5394
  707MOL0     C95317  10.750   7.045   5.332 -0.0729  0.5117  0.0768
  707MOL0     O95318  10.630   7.092   5.384  0.2012  0.0764 -0.1083
  707MOL0     C95319  10.509   7.030   5.334 -1.7159  0.5311  0.3083
  707MOL0     C95320  10.392   7.127   5.323  0.8581 -0.0710  0.3864
  707MOL0     C95321  10.267   7.062   5.261  0.0182  0.2258 -0.4793
  707MOL0     C95322  10.169   7.163   5.181  0.1413  0.0297  0.1203
  707MOL0     C95323  10.063   7.080   5.111 -0.0590  0.4104  0.5277
  707MOL0     C95324   9.974   7.001   5.207  0.1615  0.0459  0.0982
  707MOL0     C95325   9.864   6.914   5.147  0.2284  0.9342 -0.1786
  707MOL0     C95326   9.791   6.849   5.266  0.1290  0.0540 -0.6210
  707MOL0     N95327   9.738   6.944   5.374 -1.4356 -0.6073  0.1125
  707MOL0     C95328   9.632   7.032   5.362 -0.4802 -0.0269 -0.1949
  707MOL0     C95329   9.598   7.071   5.485 -0.4169  0.1880 -1.2219
  707MOL0     C95330   9.475   7.157   5.540 -0.5596  0.6089 -0.7068
  707MOL0     C95331   9.343   7.154   5.452  0.1053 -0.2080 -0.0343
  707MOL0     C95332   9.256   7.275   5.499  0.3311 -0.7068  0.2628
  707MOL0     C95333   9.223   7.265   5.650 -0.5231  0.4408  0.1207
  707MOL0     O95334   9.172   7.137   5.678 -0.2893 -0.4113 -0.5579
  707MOL0     C95335   9.038   7.098   5.659 -0.3078  0.0304 -0.4831
  707MOL0     C95336   8.931   7.185   5.627 -0.3677  0.1252  0.2398
  707MOL0     C95337   8.804   7.135   5.597 -0.6509 -0.3620 -1.0770
  707MOL0     C95338   8.690   7.227   5.575 -0.1886 -0.3039  0.0223
  707MOL0     C95339   8.781   6.998   5.598  0.2847 -0.4879 -0.1624
  707MOL0     C95340   8.651   6.931   5.563 -0.6959 -0.7571 -0.4180
  707MOL0     O95341   8.664   6.839   5.462 -0.2428 -0.3135 -0.4514
  707MOL0     C95342   8.552   6.773   5.419  0.0409 -0.5245 -0.6935
  707MOL0     C95343   8.574   6.633   5.392  0.4747 -0.6580 -0.4443
  707MOL0     C95344   8.458   6.562   5.351 -0.3613  0.0612  0.5003
  707MOL0     C95345   8.338   6.628   5.321  0.8565 -0.4927 -0.0395
  707MOL0     O95346   8.216   6.576   5.290 -0.2114  0.4524  0.8589
  707MOL0     C95347   8.172   6.447   5.342 -0.4163  0.8816 -0.1131
  707MOL0     C95348   8.134   6.469   5.486 -1.1698 -0.9536  0.2707
  707MOL0     C95349   7.998   6.540   5.505  0.4906  0.3655 -0.0885
  707MOL0     C95350   7.889   6.455   5.450 -0.0720  0.0062  0.2988
  707MOL0     C95351   7.753   6.486   5.506  0.5575  0.3868 -0.6554
  707MOL0     C95352   7.703   6.631   5.486  0.3057  0.1656  0.0596
  707MOL0     C95353   7.586   6.663   5.580  0.4242 -0.3375  0.3666
  707MOL0     C95354   7.500   6.761   5.510 -0.5311 -0.0986 -0.1984
  707MOL0    Cl95355   7.595   6.919   5.497  0.0356 -0.4341  0.3062
  707MOL0     C95356   8.324   6.763   5.350 -0.3628 -0.4492  0.1680
  707MOL0     C95357   8.433   6.841   5.389  1.1111 -0.9664 -0.3204
  707MOL0     O95358   8.547   6.960   5.624 -0.1974  0.0525  0.2270
  707MOL0     C95359   8.883   6.912   5.641 -0.1178  0.0862  0.0700
  707MOL0     C95360   9.011   6.959   5.670 -0.3297  0.0377 -0.1119
  707MOL0     N95361   9.689   7.006   5.575  0.2326 -0.8613 -0.2905
  707MOL0     N95362   9.782   6.941   5.502  0.2416 -0.1566 -0.4128
  707MOL0     C95363  10.791   6.913   5.361 -0.1345  0.0757 -0.6150
  707MOL0     C95364  10.918   6.869   5.311  0.6474  0.3102  0.6273
  707MOL0     C95365  11.368   6.910   5.318  0.3344  0.1396 -0.8301
  707MOL0     C95366  11.378   6.768   5.319 -0.0986  0.2514 -0.1714
  707MOL0     C95367  11.504   6.715   5.330 -0.7910  0.1783 -0.5322
  707MOL0     C95368  11.618   6.795   5.344  0.3982  0.8555  0.9141
  707MOL0     O95369  11.731   6.719   5.361  0.6553 -0.3841 -0.4575
  707MOL0     C95370  11.852   6.798   5.369  0.0471  0.4678  0.5853
  707MOL0     C95371  11.978   6.717   5.396 -0.0025 -0.0746  0.7501
  707MOL0     C95372  12.108   6.803   5.394  0.1602 -0.1692  0.4185
  707MOL0     C95373  12.222   6.703   5.397  1.3046 -0.4458 -0.0090
  707MOL0     C95374  12.351   6.774   5.401  0.6034 -0.2566 -0.6345
  707MOL0     C95375  12.428   6.853   5.439 -0.4236 -0.1103 -0.4132
  707MOL0     C95376  11.606   6.930   5.348 -0.1467  0.0094 -0.7551
  707MOL0     C95377  11.485   6.986   5.331 -0.4566 -0.1283  0.1462
  707MOL0     H95378  11.030   7.150   5.162 -1.5449  2.5450  2.1557
  707MOL0     H95379  10.819   7.236   5.255  2.0093  0.3576  1.7946
  707MOL0     H95380  10.532   6.980   5.239 -1.6443 -0.9700  1.0857
  707MOL0     H95381  10.484   6.944   5.397 -1.3254 -0.6207 -1.0553
  707MOL0     H95382  10.362   7.170   5.419 -0.2688 -1.4052  0.6715
  707MOL0     H95383  10.421   7.209   5.257 -2.2303 -1.1645 -2.6400
  707MOL0     H95384  10.295   6.984   5.191  0.8077 -0.1205  0.2078
  707MOL0     H95385  10.218   7.002   5.338  1.4145  0.6491  0.7886
  707MOL0     H95386  10.116   7.222   5.257  0.9282 -0.4811  1.0932
  707MOL0     H95387  10.223   7.218   5.103 -0.0114 -2.5633 -1.9345
  707MOL0     H95388  10.000   7.144   5.048  0.9286 -0.5556 -1.5392
  707MOL0     H95389  10.107   7.009   5.040 -0.5840  0.5205  0.0866
  707MOL0     H95390  10.035   6.937   5.271  0.3250  1.5114  1.4779
  707MOL0     H95391   9.930   7.076   5.273 -1.0972 -0.9687  0.4478
  707MOL0     H95392   9.808   6.981   5.081  0.3578  1.3765  0.1587
  707MOL0     H95393   9.914   6.840   5.084  2.3984  0.2329  2.1882
  707MOL0     H95394   9.862   6.785   5.319 -1.2888  0.2822  1.6973
  707MOL0     H95395   9.718   6.779   5.226  3.3400 -1.8965 -3.6265
  707MOL0     H95396   9.577   7.070   5.277 -0.6839  0.8925  0.3295
  707MOL0     H95397   9.449   7.119   5.639 -2.8355  0.8392 -1.1434
  707MOL0     H95398   9.502   7.261   5.554 -0.1818  0.7330 -2.2284
  707MOL0     H95399   9.299   7.055   5.470  0.5994 -0.2003  1.3562
  707MOL0     H95400   9.361   7.167   5.345 -2.9885 -0.2973 -0.6711
  707MOL0     H95401   9.159   7.278   5.448 -0.5840 -1.1855  1.8935
  707MOL0     H95402   9.302   7.371   5.475  1.8932 -1.5953 -0.3770
  707MOL0     H95403   9.151   7.345   5.670 -1.1755 -0.5150  1.7903
  707MOL0     H95404   9.313   7.290   5.707 -1.0301  1.2703  0.5806
  707MOL0     H95405   8.959   7.289   5.613 -0.6142  0.0010 -1.2818
  707MOL0     H95406   8.638   7.242   5.669 -1.4650  0.4955 -0.7769
  707MOL0     H95407   8.730   7.321   5.536 -0.4738  1.0244  2.7350
  707MOL0     H95408   8.624   7.191   5.495 -1.8782  1.4389  0.5608
  707MOL0     H95409   8.672   6.590   5.407  1.1785  0.2208 -2.2186
  707MOL0     H95410   8.468   6.456   5.331 -3.4328 -0.2748  0.3055
  707MOL0     H95411   8.084   6.403   5.295 -0.0729 -0.4324  0.4378
  707MOL0     H95412   8.256   6.377   5.336  0.0948  1.4946 -0.2717
  707MOL0     H95413   8.147   6.374   5.539  0.8056 -0.3721  0.9499
  707MOL0     H95414   8.213   6.527   5.534  0.1472 -2.9411  0.6349
  707MOL0     H95415   8.007   6.645   5.474 -0.9567  1.2320  2.1841
  707MOL0     H95416   7.993   6.538   5.614  1.9742  3.9640  0.1875
  707MOL0     H95417   7.882   6.476   5.343 -1.9603  0.8501  0.5567
  707MOL0     H95418   7.913   6.348   5.460  4.0465  0.6267 -1.0162
  707MOL0     H95419   7.765   6.477   5.614  1.2211 -0.8363 -0.8236
  707MOL0     H95420   7.679   6.421   5.459 -0.3592  1.6125 -0.9912
  707MOL0     H95421   7.783   6.704   5.499 -0.0119  0.2784  1.5854
  707MOL0     H95422   7.678   6.628   5.380  0.0666 -1.8448  0.1385
  707MOL0     H95423   7.624   6.702   5.675  1.4419  0.2531 -0.2689
  707MOL0     H95424   7.531   6.571   5.604 -3.5094  1.0438 -2.2668
  707MOL0     H95425   7.407   6.792   5.558 -1.1395  0.3122 -1.5873
  707MOL0     H95426   7.476   6.729   5.408 -1.5607 -0.0245  0.0063
  707MOL0     H95427   8.223   6.804   5.354 -0.5745 -0.8391 -0.8947
  707MOL0     H95428   8.429   6.948   5.404 -1.0577 -1.2884  2.0890
  707MOL0     H95429   8.867   6.805   5.650 -1.3640 -0.0318 -2.5006
  707MOL0     H95430   9.083   6.883   5.698 -0.3055  0.8207  2.0653
  707MOL0     H95431  10.739   6.856   5.437  0.3524 -1.6088 -1.4968
  707MOL0     H95432  10.941   6.765   5.330  0.1610 -0.1131 -0.9496
  707MOL0     H95433  11.296   6.701   5.296 -0.1390 -0.4128  1.6994
  707MOL0     H95434  11.531   6.610   5.343  2.0165  0.9596  0.7961
  707MOL0     H95435  11.882   6.850   5.278  2.3060  1.2391  1.6731
  707MOL0     H95436  11.847   6.866   5.455  1.7936  0.1862  0.9499
  707MOL0     H95437  12.004   6.639   5.325 -0.1845  1.2016 -0.7737
  707MOL0     H95438  11.963   6.684   5.499  4.1042 -0.0326  1.5672
  707MOL0     H95439  12.111   6.873   5.478 -0.8331 -1.9412  1.9950
  707MOL0     H95440  12.116   6.863   5.303  1.8158 -1.1479 -0.1211
  707MOL0     H95441  12.213   6.629   5.316 -1.4107 -2.5559  2.0271
  707MOL0     H95442  12.234   6.634   5.481 -0.9424 -3.9303 -2.2796
  707MOL0     H95443  12.496   6.930   5.468  0.5854 -1.0401 -0.2303
  707MOL0     H95444  11.687   7.001   5.363  2.2393 -2.8696  0.9942
  707MOL0     H95445  11.473   7.092   5.315 -2.9946 -0.4896 -0.6331
  708MOL0     O95446   1.502   1.188   9.113 -0.1353 -0.1689 -0.3257
  708MOL0     C95447   1.512   1.068   9.108  0.2846 -0.1442  0.2585
  708MOL0     O95448   1.408   0.978   9.104  0.0950 -0.0703 -0.0068
  708MOL0     C95449   1.279   1.013   9.104  0.6684 -0.2552 -0.7348
  708MOL0     C95450   1.187   0.918   9.070 -0.7125  0.8137  0.4570
  708MOL0     C95451   1.051   0.937   9.057 -0.4669  0.8560 -0.0037
  708MOL0     C95452   1.002   1.060   9.104 -0.5667 -0.4482  0.7027
  708MOL0     O95453   0.868   1.072   9.118  0.4579 -0.5669 -0.5175
  708MOL0     C95454   0.769   0.971   9.094 -0.1797  1.3003 -0.4181
  708MOL0     C95455   0.634   1.028   9.043  0.0440  0.4816  0.4663
  708MOL0     C95456   0.639   1.107   8.911 -0.2675 -0.3006 -0.1029
  708MOL0     C95457   0.504   1.161   8.863  0.6994  0.0814 -0.0732
  708MOL0     C95458   0.471   1.297   8.921  0.4346  0.0852 -0.5982
  708MOL0     C95459   0.362   1.354   8.840  0.3216 -0.3089  0.3500
  708MOL0     C95460   0.333   1.491   8.895  0.3843 -0.3930 -0.0073
  708MOL0     C95461   0.175   1.508   8.862 -0.7516 -0.5815  0.1671
  708MOL0     N95462   0.074   1.446   8.944 -0.0613 -0.2332  0.5103
  708MOL0     C95463   0.030   1.474   9.074 -0.8615 -0.2189  0.0901
  708MOL0     C95464  -0.061   1.384   9.096  0.6102 -0.7131 -0.5402
  708MOL0     C95465  -0.129   1.383   9.220 -0.1232 -0.5904 -0.6833
  708MOL0     C95466  -0.238   1.488   9.217  0.8143  0.2584 -0.7824
  708MOL0     C95467  -0.330   1.491   9.340  0.3501 -0.1265  0.2917
  708MOL0     C95468  -0.270   1.473   9.479  0.1197  0.4023  0.3027
  708MOL0     O95469  -0.369   1.444   9.577 -0.2391  0.5263 -0.5191
  708MOL0     C95470  -0.329   1.421   9.709 -0.2389  0.5351 -0.3479
  708MOL0     C95471  -0.423   1.378   9.799  1.0590  0.1855 -0.3072
  708MOL0     C95472  -0.385   1.345   9.941 -0.0993 -0.4847  0.6570
  708MOL0     C95473  -0.496   1.323  10.034  0.3872  0.6196  0.2467
  708MOL0     C95474  -0.247   1.349   9.980 -0.5635  0.9998 -0.9231
  708MOL0     C95475  -0.194   1.308  10.119  0.6501  0.1907 -0.3206
  708MOL0     O95476  -0.057   1.327  10.138 -0.6229 -0.1820 -0.1419
  708MOL0     C95477  -0.025   1.325  10.266 -0.0825  0.3644  0.7493
  708MOL0     C95478   0.011   1.455  10.322  0.6581  0.6180  0.7340
  708MOL0     C95479   0.069   1.465  10.454 -0.4445 -0.0198 -0.0036
  708MOL0     C95480   0.071   1.344  10.530 -0.5280 -0.5396 -0.1733
  708MOL0     O95481   0.117   1.365  10.656 -0.3018 -0.5432  0.7541
  708MOL0     C95482   0.241   1.316  10.694 -0.1058 -0.6544 -0.7254
  708MOL0     C95483   0.351   1.399  10.629 -0.1179  0.1289 -0.0000
  708MOL0     C95484   0.391   1.335  10.495 -0.1157  0.3786 -0.1659
  708MOL0     C95485   0.532   1.390  10.444  0.7566 -0.1920  0.2013
  708MOL0     C95486   0.571   1.334  10.312 -0.0676 -0.4436  0.0159
  708MOL0     C95487   0.724   1.342  10.270  0.2739 -0.7855  0.1489
  708MOL0     C95488   0.770   1.486  10.287  0.2449  0.0519 -0.4866
  708MOL0     C95489   0.920   1.492  10.253  0.0187  0.2068  0.0226
  708MOL0    Cl95490   0.968   1.655  10.226 -0.2182  0.0359  0.0263
  708MOL0     C95491   0.025   1.222  10.478 -0.2466 -0.8898 -0.7640
  708MOL0     C95492  -0.025   1.216  10.347 -0.6501  0.0346 -0.3970
  708MOL0     O95493  -0.276   1.255  10.199 -0.2969 -0.0081 -0.7071
  708MOL0     C95494  -0.152   1.384   9.884  0.8491  0.4960  1.3445
  708MOL0     C95495  -0.197   1.420   9.752 -0.3406 -1.0208  0.2657
  708MOL0     N95496  -0.075   1.300   8.994  0.6075  0.4903 -0.7353
  708MOL0     N95497   0.004   1.332   8.900 -0.1499  0.0926 -0.0409
  708MOL0     C95498   1.083   1.164   9.139  0.3052  0.2907 -1.4743
  708MOL0     C95499   1.227   1.146   9.126 -0.3620  0.6746  0.1833
  708MOL0     C95500   1.650   1.002   9.097  0.4562 -0.1946 -0.0113
  708MOL0     C95501   1.762   1.077   9.089 -0.0132 -0.1463 -1.2662
  708MOL0     C95502   1.887   1.021   9.058  0.9982  0.8449  0.5107
  708MOL0     C95503   1.904   0.886   9.038  0.6561  0.0284  0.1088
  708MOL0     O95504   2.029   0.826   9.012 -0.0402  0.6470  0.1725
  708MOL0     C95505   2.128   0.912   8.944 -0.2689  0.3995  0.0113
  708MOL0     C95506   2.260   0.843   8.926 -0.9179 -0.1313 -0.3692
  708MOL0     C95507   2.238   0.714   8.848 -0.7744  0.6705 -0.3060
  708MOL0     C95508   2.358   0.630   8.801 -0.8286 -0.5404  0.0342
  708MOL0     C95509   2.414   0.678   8.674 -0.0153  1.1007  0.0003
  708MOL0     C95510   2.456   0.708   8.562  0.1894 -0.6238  0.7251
  708MOL0     C95511   1.790   0.799   9.059 -0.1882 -0.4634  0.6427
  708MOL0     C95512   1.662   0.861   9.075 -0.5372 -0.1266  0.9228
  708MOL0     H95513   1.229   0.819   9.053 -1.2635  0.2116  2.3776
  708MOL0     H95514   0.996   0.848   9.030 -1.2562 -0.0509  3.9578
  708MOL0     H95515   0.789   0.911   9.005 -2.3488  0.6210 -0.5123
  708MOL0     H95516   0.755   0.902   9.178  1.8365 -0.1598 -1.1991
  708MOL0     H95517   0.569   0.940   9.032 -0.1800  0.9214 -2.3536
  708MOL0     H95518   0.594   1.087   9.126 -1.9228 -0.0959 -0.0093
  708MOL0     H95519   0.719   1.181   8.914  0.4856 -1.0512 -0.9934
  708MOL0     H95520   0.666   1.034   8.835 -1.9333  0.6513 -1.7164
  708MOL0     H95521   0.510   1.165   8.754  0.0994  0.0737 -0.1095
  708MOL0     H95522   0.421   1.091   8.871 -0.1964  1.1973  0.7383
  708MOL0     H95523   0.446   1.289   9.027  3.5045 -1.2395  0.1578
  708MOL0     H95524   0.563   1.354   8.935  0.0071  0.0268  3.8960
  708MOL0     H95525   0.387   1.358   8.734  1.2299  1.1822  0.5856
  708MOL0     H95526   0.278   1.285   8.847  1.0452 -1.3568 -0.9498
  708MOL0     H95527   0.352   1.506   9.001 -1.4339  0.6213  0.2228
  708MOL0     H95528   0.397   1.562   8.841 -1.0187 -1.6428 -3.6800
  708MOL0     H95529   0.168   1.492   8.754 -0.5862  0.8425 -0.0767
  708MOL0     H95530   0.152   1.614   8.866  0.3687 -0.3575  1.4303
  708MOL0     H95531   0.058   1.560   9.134  1.8248 -2.4654  2.3411
  708MOL0     H95532  -0.181   1.288   9.234 -3.7068  1.4417  1.0425
  708MOL0     H95533  -0.056   1.415   9.296 -1.2395  0.0611  0.1465
  708MOL0     H95534  -0.304   1.474   9.131 -0.0483  0.2047 -0.1294
  708MOL0     H95535  -0.191   1.586   9.198 -0.3889  0.5130 -2.7167
  708MOL0     H95536  -0.405   1.413   9.322 -0.3863  0.6043  0.0870
  708MOL0     H95537  -0.393   1.581   9.342 -0.1647 -0.4395 -0.7565
  708MOL0     H95538  -0.209   1.561   9.500  1.8398 -0.9727  1.4300
  708MOL0     H95539  -0.202   1.387   9.485 -0.2620  0.1751  2.1096
  708MOL0     H95540  -0.526   1.385   9.767  0.3349  2.3649  2.1174
  708MOL0     H95541  -0.490   1.367  10.135  1.5646 -3.4289  2.1415
  708MOL0     H95542  -0.587   1.351   9.981  1.3937 -1.1911 -2.6057
  708MOL0     H95543  -0.490   1.217  10.058  0.5767  0.7163  0.6396
  708MOL0     H95544   0.023   1.529  10.243  0.8757  1.0623  1.1720
  708MOL0     H95545   0.105   1.559  10.495 -3.2515  1.0926  0.1766
  708MOL0     H95546   0.237   1.333  10.802  1.6741 -0.3607 -0.6775
  708MOL0     H95547   0.241   1.208  10.675 -1.4594 -0.3302 -2.9557
  708MOL0     H95548   0.320   1.503  10.617  1.6058  0.7081  0.1917
  708MOL0     H95549   0.443   1.413  10.688  0.4090 -0.6185 -0.6367
  708MOL0     H95550   0.317   1.352  10.416 -0.3762  0.6883  0.1431
  708MOL0     H95551   0.404   1.227  10.508  0.8090  0.5431  0.3781
  708MOL0     H95552   0.502   1.494  10.427  0.9269  0.0242  1.2069
  708MOL0     H95553   0.616   1.391  10.513  1.1817 -1.6076 -0.2660
  708MOL0     H95554   0.520   1.378  10.227 -0.6828  2.0688  1.5814
  708MOL0     H95555   0.536   1.230  10.317  1.2772 -0.9693 -0.8576
  708MOL0     H95556   0.775   1.270  10.334 -0.1298 -1.7625 -0.6040
  708MOL0     H95557   0.732   1.309  10.166 -0.2836  3.0583 -1.2902
  708MOL0     H95558   0.752   1.530  10.386  1.1461 -0.4112 -0.1051
  708MOL0     H95559   0.717   1.545  10.212 -4.3337 -2.3871  0.4379
  708MOL0     H95560   0.936   1.423  10.170 -0.5089  0.1902 -0.0707
  708MOL0     H95561   0.965   1.455  10.346 -2.0713  1.7894  1.7838
  708MOL0     H95562   0.024   1.131  10.538  0.3642  0.2867  1.0963
  708MOL0     H95563  -0.044   1.118  10.304 -0.6730 -1.7908  3.4064
  708MOL0     H95564  -0.044   1.396   9.893  1.8004  0.0142 -5.1165
  708MOL0     H95565  -0.123   1.453   9.680 -2.4650 -1.4148 -2.1963
  708MOL0     H95566   1.034   1.250   9.184  3.9619  1.9286 -0.2580
  708MOL0     H95567   1.287   1.230   9.159  1.3777  0.6125 -2.5077
  708MOL0     H95568   1.751   1.183   9.112  1.8951 -0.3362  0.8408
  708MOL0     H95569   1.974   1.085   9.047 -0.0083  2.0105 -1.1601
  708MOL0     H95570   2.094   0.931   8.842  3.3103 -2.5566 -2.0051
  708MOL0     H95571   2.150   1.005   8.997 -2.2976  1.0076 -0.1356
  708MOL0     H95572   2.304   0.823   9.024  1.4927  2.3818 -0.8075
  708MOL0     H95573   2.323   0.908   8.864 -0.0857 -1.8301 -1.3898
  708MOL0     H95574   2.181   0.721   8.755  1.5632 -3.9251 -2.4455
  708MOL0     H95575   2.193   0.640   8.916  2.3542  0.7033  2.0406
  708MOL0     H95576   2.339   0.524   8.784 -1.1007 -0.7970  1.7849
  708MOL0     H95577   2.437   0.625   8.876  1.9267  2.0728 -2.3928
  708MOL0     H95578   2.488   0.708   8.460 -1.0878 -0.1194  0.3044
  708MOL0     H95579   1.794   0.691   9.051  0.0328 -0.3221 -1.8070
  708MOL0     H95580   1.568   0.807   9.082 -1.0696  0.6398  0.0403
  709MOL0     O95581   4.712   5.065   5.631  0.2591 -0.3614  0.3837
  709MOL0     C95582   4.678   4.953   5.600  0.2730  0.1632  0.0227
  709MOL0     O95583   4.719   4.842   5.663  0.0478  0.4886 -0.2253
  709MOL0     C95584   4.780   4.854   5.775 -0.6522 -0.9153 -0.3339
  709MOL0     C95585   4.705   4.836   5.896  0.1336 -0.3631 -0.6973
  709MOL0     C95586   4.765   4.844   6.023 -0.4679  0.3543  0.3109
  709MOL0     C95587   4.893   4.865   6.041  0.5770  0.3591  0.4030
  709MOL0     O95588   4.954   4.851   6.168  0.1604  0.0448 -0.2753
  709MOL0     C95589   4.899   4.760   6.270 -0.1786  0.0811 -0.0801
  709MOL0     C95590   4.987   4.774   6.394  0.0081 -0.9701  0.2327
  709MOL0     C95591   4.945   4.655   6.494  0.7577 -0.3780  0.5357
  709MOL0     C95592   5.014   4.663   6.630 -0.4037 -0.1764  0.1239
  709MOL0     C95593   5.007   4.808   6.698  0.4689  0.0326 -0.2299
  709MOL0     C95594   4.867   4.821   6.750  0.2009  0.3478  0.6559
  709MOL0     C95595   4.837   4.957   6.820 -0.0817  0.6962 -0.7347
  709MOL0     C95596   4.895   4.963   6.965  0.3956 -0.1894  1.0184
  709MOL0     N95597   4.802   5.045   7.041  0.5727  0.1177 -0.4863
  709MOL0     C95598   4.789   5.184   7.034 -0.5928  0.3530 -0.3176
  709MOL0     C95599   4.666   5.206   7.092  0.1653 -0.4451 -0.2153
  709MOL0     C95600   4.576   5.332   7.075 -0.2233  0.2178 -0.6086
  709MOL0     C95601   4.458   5.338   7.175  0.1526 -0.1602 -1.3086
  709MOL0     C95602   4.374   5.464   7.153  0.5744  0.2158 -0.0856
  709MOL0     C95603   4.246   5.450   7.235  0.4601 -0.5003 -1.1849
  709MOL0     O95604   4.167   5.573   7.232  0.5465 -0.1944  0.5522
  709MOL0     C95605   4.062   5.586   7.318 -0.2950  0.7097 -0.0816
  709MOL0     C95606   4.004   5.470   7.381  0.0867  0.2698 -0.3232
  709MOL0     C95607   3.903   5.482   7.477 -0.4213  0.4126  0.1464
  709MOL0     C95608   3.852   5.357   7.551 -0.1536  0.6729  0.6739
  709MOL0     C95609   3.856   5.618   7.502  0.1568  0.2195 -0.1725
  709MOL0     C95610   3.759   5.644   7.617 -0.2606 -0.2621 -0.0406
  709MOL0     O95611   3.724   5.538   7.698  0.6996  0.3550  0.8105
  709MOL0     C95612   3.593   5.525   7.742  0.4008  0.3392 -0.4403
  709MOL0     C95613   3.477   5.530   7.660 -0.1815 -0.9015 -0.4872
  709MOL0     C95614   3.343   5.505   7.718 -0.3629 -0.1815 -0.5577
  709MOL0     C95615   3.334   5.481   7.857  0.1880  0.3007 -0.3586
  709MOL0     O95616   3.222   5.444   7.924  0.8106 -0.6497 -0.0595
  709MOL0     C95617   3.097   5.435   7.863 -0.6330 -0.9972 -0.4944
  709MOL0     C95618   3.017   5.561   7.873  0.4253 -0.8073 -0.0794
  709MOL0     C95619   2.971   5.587   8.023  0.4452  0.1951 -0.4929
  709MOL0     C95620   2.894   5.709   8.046  0.2516 -0.7710  0.2526
  709MOL0     C95621   2.981   5.839   8.065  0.1132  0.6837 -1.7835
  709MOL0     C95622   2.906   5.974   8.071  0.6674 -0.0279  1.3842
  709MOL0     C95623   2.826   5.979   7.942 -0.0629 -0.2897 -0.5140
  709MOL0     C95624   2.787   6.128   7.918 -0.1348  0.2923  0.9084
  709MOL0    Cl95625   2.650   6.124   7.798  0.3321 -0.1781 -0.4480
  709MOL0     C95626   3.454   5.503   7.929  0.3882 -0.5541  0.0159
  709MOL0     C95627   3.573   5.529   7.877 -0.0357  0.4062 -0.3767
  709MOL0     O95628   3.703   5.756   7.619  0.1587 -0.1743 -0.1230
  709MOL0     C95629   3.910   5.731   7.431  0.6379  0.8461  0.3457
  709MOL0     C95630   4.015   5.711   7.341  0.6674 -0.2295 -0.2125
  709MOL0     N95631   4.605   5.095   7.137 -0.0711 -0.3615  0.3577
  709MOL0     N95632   4.686   4.996   7.111 -0.8750  0.1730  0.2860
  709MOL0     C95633   4.975   4.886   5.925 -0.2733 -0.5770 -0.1970
  709MOL0     C95634   4.918   4.891   5.801  0.9642 -0.1159 -0.1457
  709MOL0     C95635   4.585   4.938   5.487 -0.5003 -0.4015 -0.2828
  709MOL0     C95636   4.545   4.812   5.444 -0.2298  0.3356  0.3999
  709MOL0     C95637   4.460   4.792   5.342  1.6422  0.2433 -0.3374
  709MOL0     C95638   4.400   4.903   5.279  0.2366  0.2959 -0.2502
  709MOL0     O95639   4.304   4.878   5.173  0.6339 -0.5323  0.5189
  709MOL0     C95640   4.288   4.979   5.068 -0.9407  1.0931  0.1945
  709MOL0     C95641   4.163   5.061   5.099 -0.2003 -0.1303  0.1358
  709MOL0     C95642   4.045   4.974   5.137  0.4836  0.6780  0.5922
  709MOL0     C95643   3.918   5.059   5.158 -1.0173 -0.0606 -0.3545
  709MOL0     C95644   3.809   4.970   5.177  1.0815 -0.8079  0.1044
  709MOL0     C95645   3.710   4.902   5.183 -0.3256  0.2710  0.1908
  709MOL0     C95646   4.450   5.031   5.311  1.3018  0.4381  0.4729
  709MOL0     C95647   4.538   5.049   5.412 -0.2164  0.4845 -0.0733
  709MOL0     H95648   4.599   4.820   5.884  0.1451 -0.4702 -0.6577
  709MOL0     H95649   4.706   4.828   6.113  1.0545  0.1732  1.3178
  709MOL0     H95650   4.793   4.780   6.292  0.1418  1.4468  0.3195
  709MOL0     H95651   4.927   4.662   6.230  2.3454  0.7847 -0.2131
  709MOL0     H95652   5.093   4.758   6.374 -0.4632 -1.1850 -2.4463
  709MOL0     H95653   4.980   4.877   6.428 -4.1101  0.7119 -4.5081
  709MOL0     H95654   4.836   4.668   6.500  0.2129 -3.4129 -0.7059
  709MOL0     H95655   4.957   4.560   6.441  2.2055 -0.4167  0.8860
  709MOL0     H95656   4.970   4.588   6.697 -0.3483  0.6320  1.0879
  709MOL0     H95657   5.121   4.647   6.618 -0.1859 -0.5741  2.2441
  709MOL0     H95658   5.069   4.804   6.787 -1.7324 -0.7467  1.3610
  709MOL0     H95659   5.032   4.891   6.631 -1.6094  0.6747 -0.2847
  709MOL0     H95660   4.803   4.815   6.661  2.5386  0.2059 -1.1069
  709MOL0     H95661   4.845   4.738   6.819  1.2296 -0.6820 -0.2100
  709MOL0     H95662   4.881   5.040   6.764  2.9582 -0.8576 -0.8716
  709MOL0     H95663   4.732   4.980   6.839  0.8559  3.2550  2.1791
  709MOL0     H95664   4.997   5.001   6.969  0.2388  0.5778 -1.0082
  709MOL0     H95665   4.893   4.864   7.013  0.1967 -0.2680  0.8523
  709MOL0     H95666   4.865   5.243   6.982 -0.6217  0.9539  0.3067
  709MOL0     H95667   4.644   5.414   7.101  1.7990 -0.7952 -2.3231
  709MOL0     H95668   4.542   5.320   6.972 -0.5728 -1.2985 -0.3399
  709MOL0     H95669   4.499   5.343   7.277  0.4933 -0.3144 -1.4343
  709MOL0     H95670   4.390   5.253   7.181  0.6309 -0.4470  1.0410
  709MOL0     H95671   4.342   5.453   7.049 -2.2446 -3.0349  0.9363
  709MOL0     H95672   4.425   5.557   7.181 -0.2433  0.4137  0.8026
  709MOL0     H95673   4.271   5.433   7.340  0.6981 -1.2052 -1.3471
  709MOL0     H95674   4.186   5.363   7.207 -0.4123 -0.2819 -0.0565
  709MOL0     H95675   4.047   5.371   7.364  1.0901 -0.1602  3.5656
  709MOL0     H95676   3.890   5.367   7.653  4.2716 -1.0110 -0.5682
  709MOL0     H95677   3.742   5.356   7.548 -0.1518  0.8225  0.5657
  709MOL0     H95678   3.896   5.274   7.495 -0.6716  2.2653 -2.2794
  709MOL0     H95679   3.500   5.517   7.555  1.2530 -1.4685 -0.1326
  709MOL0     H95680   3.264   5.488   7.646 -1.5020 -1.6373  0.9460
  709MOL0     H95681   3.104   5.402   7.759 -0.5598  2.5883 -1.7412
  709MOL0     H95682   3.037   5.362   7.919 -0.0359 -1.7417 -0.8074
  709MOL0     H95683   3.072   5.649   7.840 -1.9722  1.2116  0.9615
  709MOL0     H95684   2.936   5.551   7.800  1.0875 -1.0519 -0.7993
  709MOL0     H95685   3.060   5.604   8.085  1.4880  2.3370 -2.3995
  709MOL0     H95686   2.915   5.502   8.064  0.7688  0.0401 -0.3683
  709MOL0     H95687   2.834   5.713   7.955 -0.1573  0.5852  0.5507
  709MOL0     H95688   2.835   5.700   8.138 -2.5365 -0.4264 -1.4031
  709MOL0     H95689   3.056   5.855   7.986 -0.1587  1.2429 -1.9356
  709MOL0     H95690   3.025   5.825   8.164 -1.3482 -0.2925 -1.2490
  709MOL0     H95691   2.838   5.977   8.156 -3.5757 -3.2637 -1.4656
  709MOL0     H95692   2.979   6.055   8.078 -0.8643  1.7160 -0.9572
  709MOL0     H95693   2.733   5.923   7.956 -0.2417 -0.1202 -1.0192
  709MOL0     H95694   2.878   5.937   7.855  0.9840 -0.3825  0.1375
  709MOL0     H95695   2.869   6.180   7.869  0.2323 -0.9972  0.1066
  709MOL0     H95696   2.774   6.181   8.013 -0.5551  0.9231  0.5055
  709MOL0     H95697   3.452   5.489   8.037  2.2070  2.9712  0.6263
  709MOL0     H95698   3.660   5.540   7.941 -1.5835 -0.2911  1.9298
  709MOL0     H95699   3.865   5.827   7.457 -1.2850 -0.9975  4.8831
  709MOL0     H95700   4.062   5.796   7.292  0.3198 -0.6306 -1.2749
  709MOL0     H95701   5.079   4.916   5.932 -1.1740  2.7471  1.3383
  709MOL0     H95702   4.972   4.924   5.713  0.3620 -2.4089 -1.4770
  709MOL0     H95703   4.581   4.714   5.474  0.5211 -0.2389 -2.1309
  709MOL0     H95704   4.433   4.692   5.309  1.8832 -0.1145  0.5246
  709MOL0     H95705   4.377   5.042   5.057  0.6646 -1.2134 -0.6980
  709MOL0     H95706   4.266   4.938   4.968 -0.9945 -0.9904  1.0106
  709MOL0     H95707   4.155   5.117   5.005 -0.1134 -1.9568 -1.0214
  709MOL0     H95708   4.175   5.138   5.175 -1.5904  1.2406 -0.9738
  709MOL0     H95709   4.070   4.915   5.227  1.6625 -0.9061 -0.7026
  709MOL0     H95710   4.029   4.889   5.070  1.8439  0.3732  0.6212
  709MOL0     H95711   3.898   5.111   5.063 -2.8272 -0.7056 -0.3773
  709MOL0     H95712   3.927   5.132   5.239  0.2077 -0.5734 -0.0121
  709MOL0     H95713   3.625   4.837   5.194  0.7410 -0.7992  3.2100
  709MOL0     H95714   4.409   5.122   5.269 -1.1097 -0.1519  1.3890
  709MOL0     H95715   4.562   5.154   5.428  1.3965 -0.0416  1.2025
  710MOL0     O95716   0.354   1.827   1.582  0.0514 -0.1465 -0.1802
  710MOL0     C95717   0.321   1.710   1.606 -0.7210  0.4624 -0.0299
  710MOL0     O95718   0.201   1.662   1.660  0.6781  0.0551 -0.1038
  710MOL0     C95719   0.093   1.744   1.651 -0.6558  0.0055 -1.0105
  710MOL0     C95720  -0.023   1.710   1.574  0.3609  0.2756  0.2892
  710MOL0     C95721  -0.130   1.789   1.567  0.2927  0.4838 -0.4418
  710MOL0     C95722  -0.146   1.893   1.655  0.7121 -0.6888  0.1629
  710MOL0     O95723  -0.267   1.966   1.661  0.7279 -0.3129 -0.6731
  710MOL0     C95724  -0.313   2.031   1.544 -0.2684  0.7735 -0.3830
  710MOL0     C95725  -0.387   2.162   1.577  0.2402 -0.1251 -0.4321
  710MOL0     C95726  -0.532   2.150   1.626 -0.3555 -0.4484 -0.1554
  710MOL0     C95727  -0.564   2.295   1.667 -0.8370  0.0757  0.1443
  710MOL0     C95728  -0.720   2.328   1.684  0.2063 -0.2530 -0.1695
  710MOL0     C95729  -0.792   2.224   1.777 -0.0980 -0.3868 -1.1551
  710MOL0     C95730  -0.943   2.259   1.785 -0.4001  0.0499 -0.9698
  710MOL0     C95731  -1.020   2.199   1.901 -0.7785  0.8819 -0.1517
  710MOL0     N95732  -1.161   2.237   1.892  0.9959  0.9924 -0.8249
  710MOL0     C95733  -1.216   2.360   1.919  0.0739  0.0930 -0.2482
  710MOL0     C95734  -1.352   2.332   1.925 -0.7593 -0.3505  0.3468
  710MOL0     C95735  -1.445   2.446   1.941  0.0011  0.7259  0.9072
  710MOL0     C95736  -1.471   2.491   2.086 -0.2376  0.3376 -0.9629
  710MOL0     C95737  -1.554   2.383   2.162 -0.8136 -0.1787 -0.4670
  710MOL0     C95738  -1.577   2.428   2.310 -0.7157 -0.2250 -0.1293
  710MOL0     O95739  -1.619   2.565   2.340 -0.0455  0.4028  0.1430
  710MOL0     C95740  -1.753   2.600   2.318  0.3840 -0.6300 -0.2215
  710MOL0     C95741  -1.858   2.508   2.276  0.0363 -0.2689 -0.5739
  710MOL0     C95742  -1.990   2.547   2.260 -0.4880  0.2352  0.1374
  710MOL0     C95743  -2.080   2.441   2.203 -0.0487  0.7426 -0.2962
  710MOL0     C95744  -2.035   2.679   2.291  0.3165 -0.3504  1.3526
  710MOL0     C95745  -2.172   2.730   2.266  0.8396 -0.1445  0.3435
  710MOL0     O95746  -2.257   2.671   2.172  0.4097 -0.7383  0.5398
  710MOL0     C95747  -2.395   2.694   2.166  0.1989 -0.2768 -1.0070
  710MOL0     C95748  -2.477   2.597   2.102  0.4050  0.9561  0.2911
  710MOL0     C95749  -2.619   2.608   2.086 -0.9815 -0.5218  0.7604
  710MOL0     C95750  -2.683   2.711   2.158 -0.2731  0.0675 -1.0402
  710MOL0     O95751  -2.815   2.719   2.183  0.9031 -0.4618 -0.5993
  710MOL0     C95752  -2.906   2.695   2.075  0.2165  0.1200  0.0508
  710MOL0     C95753  -3.056   2.730   2.117  1.2881 -0.6777  0.0270
  710MOL0     C95754  -3.115   2.609   2.194  0.0512  0.4130 -0.7856
  710MOL0     C95755  -3.225   2.639   2.293  0.7081 -0.3416  1.2131
  710MOL0     C95756  -3.349   2.699   2.219  0.0809 -1.4214  0.1816
  710MOL0     C95757  -3.463   2.751   2.312  0.5767  0.3429  0.2492
  710MOL0     C95758  -3.591   2.810   2.255 -0.0720  0.0494  0.0167
  710MOL0     C95759  -3.567   2.942   2.170 -0.7129  0.2226  0.4325
  710MOL0    Cl95760  -3.726   3.020   2.152  0.0595 -0.0981 -0.2802
  710MOL0     C95761  -2.606   2.810   2.217 -0.1904  0.2528  0.0281
  710MOL0     C95762  -2.465   2.807   2.221 -0.2253  0.1748 -0.5461
  710MOL0     O95763  -2.209   2.821   2.340 -0.2507 -0.4765  0.2562
  710MOL0     C95764  -1.938   2.772   2.334 -1.0553  1.0201  0.5958
  710MOL0     C95765  -1.801   2.735   2.346 -0.0744  0.7662  0.5605
  710MOL0     N95766  -1.377   2.206   1.883  0.0660  0.4238  0.2686
  710MOL0     N95767  -1.264   2.150   1.865  0.1008  0.1809  0.4649
  710MOL0     C95768  -0.044   1.926   1.740 -0.8548  0.3840  0.3324
  710MOL0     C95769   0.082   1.859   1.731  0.5468  0.2069 -0.1575
  710MOL0     C95770   0.425   1.602   1.591  0.1606  0.3471 -0.3689
  710MOL0     C95771   0.382   1.469   1.583 -0.5768 -1.3611  0.4597
  710MOL0     C95772   0.470   1.367   1.547  0.0227  0.2604 -0.0711
  710MOL0     C95773   0.606   1.398   1.540  0.7892  1.2073 -0.0921
  710MOL0     O95774   0.694   1.307   1.496 -0.3569  0.2925 -0.0663
  710MOL0     C95775   0.754   1.223   1.593  0.1550 -0.3882  0.0514
  710MOL0     C95776   0.884   1.178   1.518  0.0475 -0.4648  0.6604
  710MOL0     C95777   0.970   1.063   1.590 -0.2647  0.1083 -0.1343
  710MOL0     C95778   1.096   1.003   1.527 -0.3189  0.2741 -0.5318
  710MOL0     C95779   1.196   0.954   1.625 -0.3696 -0.2269  0.9482
  710MOL0     C95780   1.282   0.915   1.704  0.8999  0.4369  0.4106
  710MOL0     C95781   0.653   1.528   1.572  0.0880  0.8301 -0.3208
  710MOL0     C95782   0.565   1.628   1.588  0.2128  0.6694 -0.0600
  710MOL0     H95783  -0.017   1.624   1.508  2.6698  0.3938  0.2575
  710MOL0     H95784  -0.206   1.768   1.492  0.2563 -0.2253 -0.2109
  710MOL0     H95785  -0.229   2.044   1.475  1.2001 -0.8262  1.0079
  710MOL0     H95786  -0.396   1.975   1.498  1.0938  0.4345 -2.5836
  710MOL0     H95787  -0.320   2.214   1.646  0.5382 -0.0371 -0.7826
  710MOL0     H95788  -0.385   2.231   1.492  0.2556 -0.4004 -0.6579
  710MOL0     H95789  -0.598   2.108   1.549 -1.4290 -1.9687  1.4975
  710MOL0     H95790  -0.547   2.083   1.712  0.7011 -1.0385 -0.4161
  710MOL0     H95791  -0.500   2.321   1.751  1.2141  2.1978 -1.9176
  710MOL0     H95792  -0.530   2.365   1.591  0.4955 -0.6864  0.0086
  710MOL0     H95793  -0.719   2.429   1.726  2.0099 -0.3718  0.1582
  710MOL0     H95794  -0.772   2.325   1.588  0.1941 -1.6405 -0.1416
  710MOL0     H95795  -0.791   2.120   1.745 -1.4133 -0.7725 -0.0606
  710MOL0     H95796  -0.743   2.230   1.875 -2.8307  0.7007  0.2778
  710MOL0     H95797  -0.952   2.367   1.799  1.5339 -0.1261  2.9210
  710MOL0     H95798  -0.992   2.229   1.692 -0.5142  2.3954 -1.7349
  710MOL0     H95799  -0.977   2.238   1.994  1.3488  0.7070 -1.0051
  710MOL0     H95800  -1.011   2.090   1.889  4.2676  0.8411  1.5949
  710MOL0     H95801  -1.159   2.452   1.926  1.9559 -0.9725 -0.7372
  710MOL0     H95802  -1.407   2.533   1.886  0.9097  0.0184  0.3869
  710MOL0     H95803  -1.539   2.422   1.889 -0.8316  0.7596  2.3610
  710MOL0     H95804  -1.529   2.583   2.091 -0.8810 -0.0999  0.2296
  710MOL0     H95805  -1.375   2.487   2.139 -1.5233 -3.1458  1.5562
  710MOL0     H95806  -1.509   2.283   2.174  2.0425  0.8560 -1.7412
  710MOL0     H95807  -1.648   2.370   2.107 -2.0469 -0.8178  1.6648
  710MOL0     H95808  -1.488   2.405   2.369  0.5616  3.0307 -0.5525
  710MOL0     H95809  -1.648   2.358   2.355 -1.2581  1.6779  2.2004
  710MOL0     H95810  -1.830   2.404   2.264 -2.7758 -1.4974  2.2349
  710MOL0     H95811  -2.094   2.457   2.096 -1.2579  0.6410 -0.1628
  710MOL0     H95812  -2.024   2.347   2.212  1.8236  1.9384  1.2882
  710MOL0     H95813  -2.178   2.443   2.250  0.4484  1.2421  0.7455
  710MOL0     H95814  -2.430   2.513   2.051 -1.5958  2.1756 -3.9864
  710MOL0     H95815  -2.678   2.531   2.038 -2.2170 -1.5940  3.7325
  710MOL0     H95816  -2.872   2.747   1.985  1.4390 -0.9485 -0.1414
  710MOL0     H95817  -2.898   2.587   2.059  0.8446  0.2439 -0.5190
  710MOL0     H95818  -3.072   2.820   2.178  2.1276 -1.7688  1.9389
  710MOL0     H95819  -3.120   2.742   2.030  1.2220  2.8278  0.3906
  710MOL0     H95820  -3.031   2.550   2.232 -0.4991  0.6008  0.7745
  710MOL0     H95821  -3.163   2.545   2.120 -0.4751 -3.7561  2.7956
  710MOL0     H95822  -3.247   2.546   2.347  1.7535 -0.4878  1.3984
  710MOL0     H95823  -3.176   2.704   2.365  2.1825 -1.6407  1.4449
  710MOL0     H95824  -3.388   2.616   2.159  0.2280 -2.6716  1.7514
  710MOL0     H95825  -3.315   2.783   2.158 -1.1278  0.4528  1.9648
  710MOL0     H95826  -3.503   2.669   2.373  1.7868  0.8600  1.8152
  710MOL0     H95827  -3.413   2.813   2.386 -0.4591 -0.1790  1.4318
  710MOL0     H95828  -3.644   2.844   2.344  1.3828  2.5338  0.0383
  710MOL0     H95829  -3.653   2.737   2.202  0.9671 -1.5736  0.9502
  710MOL0     H95830  -3.522   2.922   2.073  0.5659 -0.1643  1.0899
  710MOL0     H95831  -3.499   3.006   2.227  1.1987 -0.5208 -0.9079
  710MOL0     H95832  -2.662   2.895   2.255  2.0858  1.3211  1.1783
  710MOL0     H95833  -2.412   2.890   2.266  0.2307  0.6227 -1.8598
  710MOL0     H95834  -1.962   2.875   2.361  0.5700  1.1681  1.6340
  710MOL0     H95835  -1.722   2.801   2.379 -0.1361  1.6960 -1.0640
  710MOL0     H95836  -0.065   1.999   1.817 -2.6505 -0.6894  0.9389
  710MOL0     H95837   0.163   1.897   1.793  0.4074  2.5628 -1.3256
  710MOL0     H95838   0.275   1.452   1.582 -0.5742 -1.4455  1.1258
  710MOL0     H95839   0.432   1.265   1.553 -1.2107  0.8139  2.6502
  710MOL0     H95840   0.789   1.284   1.677 -0.6420 -1.1101  0.9478
  710MOL0     H95841   0.691   1.140   1.627 -1.9813  0.5467 -1.4115
  710MOL0     H95842   0.952   1.262   1.499  1.5039 -1.9126 -0.9284
  710MOL0     H95843   0.854   1.150   1.417 -0.2045 -1.2233  0.9416
  710MOL0     H95844   0.894   0.987   1.611  0.2675 -0.2791  0.4184
  710MOL0     H95845   0.993   1.114   1.684  3.1400  0.4865 -1.0359
  710MOL0     H95846   1.150   1.072   1.463  3.2311 -1.9565 -0.2105
  710MOL0     H95847   1.068   0.917   1.465 -1.1357  0.9464 -1.1298
  710MOL0     H95848   1.361   0.892   1.773  2.0152 -0.2702 -1.0475
  710MOL0     H95849   0.760   1.550   1.572  0.7408 -1.9707 -0.4567
  710MOL0     H95850   0.605   1.729   1.598 -3.0639  1.9277  1.7259
  711MOL0     O95851   1.292   0.385   4.582 -0.1616  0.0776  0.4615
  711MOL0     C95852   1.279   0.335   4.471  0.8371  1.1802  0.2716
  711MOL0     O95853   1.158   0.329   4.401 -0.1923  1.0054  0.4387
  711MOL0     C95854   1.057   0.383   4.469  0.9692  1.3013 -0.2157
  711MOL0     C95855   1.051   0.522   4.479  0.7653  0.2578 -0.0395
  711MOL0     C95856   0.955   0.583   4.557 -0.3811 -0.7334 -0.5135
  711MOL0     C95857   0.871   0.507   4.631 -0.1280  0.4428  0.2477
  711MOL0     O95858   0.778   0.573   4.696  0.0233 -0.2390  0.9933
  711MOL0     C95859   0.645   0.525   4.703  0.3625  0.3465 -0.5426
  711MOL0     C95860   0.592   0.594   4.827  0.2278  0.3924 -0.5656
  711MOL0     C95861   0.452   0.535   4.854 -0.4078 -0.3532 -0.0964
  711MOL0     C95862   0.334   0.587   4.762  0.2399  0.9574  0.4440
  711MOL0     C95863   0.191   0.591   4.824  1.5940  0.5346  1.1129
  711MOL0     C95864   0.092   0.476   4.786 -0.3215 -0.4816  0.0224
  711MOL0     C95865  -0.000   0.424   4.898  0.7363  0.6808 -0.2191
  711MOL0     C95866  -0.091   0.529   4.965  0.3307  0.1220  0.5308
  711MOL0     N95867  -0.218   0.454   4.995  1.1206 -0.2145 -0.3101
  711MOL0     C95868  -0.242   0.361   5.093 -0.5633 -0.2795  1.0558
  711MOL0     C95869  -0.374   0.336   5.068 -1.1129  0.2438  0.1429
  711MOL0     C95870  -0.454   0.231   5.142 -1.0580  0.0448  0.6144
  711MOL0     C95871  -0.373   0.097   5.150  0.2304 -0.2988  0.1778
  711MOL0     C95872  -0.299   0.071   5.282 -0.2404 -0.0820  0.2161
  711MOL0     C95873  -0.211  -0.056   5.293 -0.0868  0.3753  0.4075
  711MOL0     O95874  -0.297  -0.172   5.272 -0.2292 -0.0849  0.3708
  711MOL0     C95875  -0.239  -0.287   5.314  0.4529  0.3168 -0.3061
  711MOL0     C95876  -0.333  -0.383   5.351 -0.6558 -0.3960 -0.0958
  711MOL0     C95877  -0.295  -0.503   5.416 -0.2767  0.1744  0.7743
  711MOL0     C95878  -0.410  -0.593   5.468  0.7826 -0.8929 -0.4476
  711MOL0     C95879  -0.158  -0.541   5.437 -0.2132  0.0251  0.6938
  711MOL0     C95880  -0.099  -0.666   5.497  0.5572 -0.9522 -0.9507
  711MOL0     O95881   0.027  -0.656   5.557  0.1480  0.3623  0.7659
  711MOL0     C95882   0.072  -0.770   5.617  0.2294  0.2784  0.1750
  711MOL0     C95883   0.136  -0.865   5.536  0.4731  0.1295 -0.0416
  711MOL0     C95884   0.200  -0.976   5.591 -0.7545 -0.1083 -0.3282
  711MOL0     C95885   0.196  -0.993   5.728 -0.2753  0.2815 -0.2290
  711MOL0     O95886   0.260  -1.110   5.765 -0.2382 -0.2839  0.6620
  711MOL0     C95887   0.251  -1.161   5.903  0.4097  0.4192  0.4823
  711MOL0     C95888   0.362  -1.269   5.923 -0.3438 -1.1233 -0.0431
  711MOL0     C95889   0.492  -1.195   5.941  0.2508 -0.7085  0.0289
  711MOL0     C95890   0.604  -1.298   5.937  0.6785  0.1597  0.8332
  711MOL0     C95891   0.743  -1.247   5.987  0.5211 -0.0368  0.3745
  711MOL0     C95892   0.848  -1.357   5.996  0.1905  0.2048 -1.4979
  711MOL0     C95893   0.902  -1.413   5.871 -0.0983 -0.6265 -0.6098
  711MOL0     C95894   1.005  -1.521   5.896 -0.4997  0.7084 -0.7311
  711MOL0    Cl95895   1.150  -1.444   5.969 -0.3565  0.2126  0.0831
  711MOL0     C95896   0.144  -0.894   5.814 -0.2034  0.9727  0.4278
  711MOL0     C95897   0.074  -0.787   5.753 -0.2735  1.1173  0.0149
  711MOL0     O95898  -0.162  -0.772   5.477  0.2702 -1.3330 -0.0687
  711MOL0     C95899  -0.067  -0.439   5.389  0.3687 -0.2511  0.2359
  711MOL0     C95900  -0.100  -0.315   5.332  0.3714  0.2198 -1.0287
  711MOL0     N95901  -0.427   0.416   4.978  0.4332 -0.3145 -0.3402
  711MOL0     N95902  -0.335   0.489   4.930 -0.4183 -0.2258 -0.6392
  711MOL0     C95903   0.878   0.367   4.630  0.1406  0.3957 -0.3997
  711MOL0     C95904   0.979   0.308   4.549  0.5844  0.1095 -0.2054
  711MOL0     C95905   1.389   0.272   4.394  0.2668  0.6735  0.1844
  711MOL0     C95906   1.381   0.232   4.261 -0.1505 -0.0579  0.1316
  711MOL0     C95907   1.488   0.175   4.190  0.8009 -0.5082 -0.9679
  711MOL0     C95908   1.612   0.167   4.248 -0.6764  0.0773  1.2083
  711MOL0     O95909   1.716   0.123   4.169  0.6313  0.1427 -0.6560
  711MOL0     C95910   1.814   0.046   4.233 -0.6798  0.0217 -0.8816
  711MOL0     C95911   1.945   0.121   4.257  0.0066  0.9039  0.3417
  711MOL0     C95912   2.015   0.140   4.126  0.5241  0.0778 -0.2070
  711MOL0     C95913   2.159   0.187   4.146  0.5672  0.2320  0.1641
  711MOL0     C95914   2.236   0.181   4.016 -0.6645  0.8547 -0.1017
  711MOL0     C95915   2.300   0.176   3.914  0.5690  0.2072  0.1015
  711MOL0     C95916   1.624   0.208   4.380 -0.7569  0.3757 -0.2318
  711MOL0     C95917   1.511   0.258   4.453  0.7467  0.4053 -0.8941
  711MOL0     H95918   1.120   0.587   4.426 -2.6443  4.3929  0.0208
  711MOL0     H95919   0.943   0.690   4.553  4.8571  0.1413  0.4829
  711MOL0     H95920   0.582   0.561   4.622  0.1788  3.3157  0.7774
  711MOL0     H95921   0.635   0.416   4.707  0.9275  0.3210  0.6838
  711MOL0     H95922   0.661   0.580   4.911  2.8040 -2.4953 -2.9272
  711MOL0     H95923   0.587   0.702   4.812  2.3803  0.9077  1.6232
  711MOL0     H95924   0.457   0.426   4.845  1.2639 -0.1801 -1.6162
  711MOL0     H95925   0.430   0.568   4.956  0.7952 -0.0520  0.0800
  711MOL0     H95926   0.350   0.693   4.741 -4.7178  2.0429  0.8492
  711MOL0     H95927   0.337   0.548   4.660  2.5456  0.8823  0.4892
  711MOL0     H95928   0.193   0.589   4.934 -0.8606  2.9258  1.3038
  711MOL0     H95929   0.143   0.685   4.795  0.5955 -0.7464 -1.7178
  711MOL0     H95930   0.029   0.499   4.700  2.6149 -1.0778 -2.4744
  711MOL0     H95931   0.152   0.398   4.738  1.8845  1.7083 -0.9405
  711MOL0     H95932  -0.067   0.347   4.858 -0.8704  1.4744  0.8057
  711MOL0     H95933   0.057   0.377   4.977  0.7122 -0.0533 -0.6310
  711MOL0     H95934  -0.111   0.617   4.904 -4.4902 -0.7538  0.4115
  711MOL0     H95935  -0.047   0.549   5.063 -0.0245  1.1924  0.4830
  711MOL0     H95936  -0.176   0.318   5.167 -0.1279  0.1274  0.9116
  711MOL0     H95937  -0.489   0.251   5.244 -1.6167 -3.2801  1.2008
  711MOL0     H95938  -0.544   0.219   5.081 -1.0060 -1.3502  0.7744
  711MOL0     H95939  -0.293   0.101   5.075  0.0358  0.1565 -0.0079
  711MOL0     H95940  -0.442   0.018   5.119  2.0844 -1.6730 -0.6937
  711MOL0     H95941  -0.365   0.076   5.369 -0.2211  1.6061  0.1657
  711MOL0     H95942  -0.229   0.155   5.284  0.3255 -0.3856 -2.5137
  711MOL0     H95943  -0.153  -0.051   5.385 -0.4572  1.1760  0.6049
  711MOL0     H95944  -0.136  -0.057   5.214  1.9484 -1.1690  2.2490
  711MOL0     H95945  -0.438  -0.362   5.332 -0.5510  1.0075  0.7545
  711MOL0     H95946  -0.432  -0.664   5.388  0.1139  0.0343 -1.1191
  711MOL0     H95947  -0.379  -0.644   5.559  1.0167 -1.3973 -0.8084
  711MOL0     H95948  -0.501  -0.539   5.497  2.3420  1.1303  0.9443
  711MOL0     H95949   0.146  -0.861   5.428  0.2628 -1.3999 -0.1398
  711MOL0     H95950   0.257  -1.050   5.535  1.6094  1.0838  0.3710
  711MOL0     H95951   0.261  -1.091   5.987 -0.7310 -1.6994  2.4932
  711MOL0     H95952   0.151  -1.201   5.921 -0.4396  2.3195  0.3221
  711MOL0     H95953   0.335  -1.323   6.014 -0.6277  0.4634  0.8391
  711MOL0     H95954   0.357  -1.353   5.852  3.8021  1.2485 -3.5937
  711MOL0     H95955   0.495  -1.131   6.030 -5.2426  1.5394 -1.0127
  711MOL0     H95956   0.505  -1.126   5.857 -0.9826 -0.5006 -0.0113
  711MOL0     H95957   0.562  -1.366   6.012 -2.3108  2.5402  1.5125
  711MOL0     H95958   0.605  -1.355   5.843 -1.2025  0.0117  0.8485
  711MOL0     H95959   0.721  -1.204   6.085 -2.1684 -0.5682  0.0755
  711MOL0     H95960   0.783  -1.174   5.916 -0.1948 -0.1768 -0.1904
  711MOL0     H95961   0.929  -1.320   6.059 -0.5743  0.3182 -0.5523
  711MOL0     H95962   0.804  -1.431   6.064  3.1720  1.5620  2.2192
  711MOL0     H95963   0.940  -1.324   5.821 -3.3724  3.0467  2.6931
  711MOL0     H95964   0.813  -1.453   5.821 -0.9201  0.5244 -0.1181
  711MOL0     H95965   1.020  -1.586   5.810 -0.2521 -0.0336 -0.1298
  711MOL0     H95966   0.966  -1.584   5.976  1.2687  0.6504  0.1211
  711MOL0     H95967   0.150  -0.904   5.922  2.2972  0.7366  0.3201
  711MOL0     H95968   0.030  -0.710   5.815  1.1367  1.5690  0.4928
  711MOL0     H95969   0.038  -0.462   5.406  0.4904  0.0147 -0.1351
  711MOL0     H95970  -0.033  -0.233   5.308  2.3958 -0.9284  0.4082
  711MOL0     H95971   0.810   0.305   4.687 -1.4392  1.3645 -1.1357
  711MOL0     H95972   0.999   0.201   4.554  0.0740  0.0052 -0.3634
  711MOL0     H95973   1.287   0.230   4.207  0.4146 -0.9424 -0.8617
  711MOL0     H95974   1.483   0.157   4.083 -1.2023  1.4910 -1.2962
  711MOL0     H95975   1.781   0.011   4.332 -1.8034  2.4296 -0.3446
  711MOL0     H95976   1.830  -0.038   4.165  0.6517 -1.7535  1.4545
  711MOL0     H95977   2.003   0.055   4.323  0.6781  1.4348  0.2907
  711MOL0     H95978   1.932   0.215   4.311 -0.7216  0.9321  0.1273
  711MOL0     H95979   1.955   0.219   4.079  3.0606  2.5672  0.4636
  711MOL0     H95980   2.014   0.044   4.073  0.9374 -0.8205  1.3403
  711MOL0     H95981   2.212   0.129   4.222 -0.6497 -0.1803  0.7240
  711MOL0     H95982   2.162   0.290   4.184 -5.1339  0.7063  0.1729
  711MOL0     H95983   2.338   0.188   3.814 -1.1305  2.5842 -0.3487
  711MOL0     H95984   1.722   0.214   4.427 -0.3883  0.5067 -1.0035
  711MOL0     H95985   1.523   0.310   4.547  3.2637  0.7248 -1.3455
  712MOL0     O95986   8.569   9.805   1.760 -0.6217  0.9240 -0.7302
  712MOL0     C95987   8.522   9.738   1.846 -0.3448  0.8546 -0.2457
  712MOL0     O95988   8.589   9.629   1.908 -0.1938  0.4585  0.4237
  712MOL0     C95989   8.721   9.601   1.880  0.0063  0.0644  0.1238
  712MOL0     C95990   8.802   9.566   1.988  0.3777 -0.2290 -0.2185
  712MOL0     C95991   8.926   9.522   1.968 -0.0278  0.7038  0.4633
  712MOL0     C95992   8.979   9.520   1.842 -0.2644  0.3040  0.1326
  712MOL0     O95993   9.116   9.510   1.807  1.1789 -0.2680 -0.0797
  712MOL0     C95994   9.191   9.413   1.873 -0.4640  0.6080  0.0403
  712MOL0     C95995   9.307   9.487   1.941  0.2841  0.5130 -0.1076
  712MOL0     C95996   9.393   9.381   2.008  0.0401 -0.0039 -0.4483
  712MOL0     C95997   9.521   9.456   2.048 -0.6835 -0.2639  0.4071
  712MOL0     C95998   9.640   9.366   2.094 -0.1662 -0.8554 -0.2769
  712MOL0     C95999   9.605   9.284   2.220  0.8336  0.0484 -0.0358
  712MOL0     C96000   9.727   9.202   2.268 -0.3984 -0.9339  0.8205
  712MOL0     C96001   9.752   9.076   2.177  0.7268 -0.0325  0.2669
  712MOL0     N96002   9.845   8.981   2.241 -0.2206  0.7154 -0.3320
  712MOL0     C96003   9.810   8.879   2.326 -0.1582  0.4245  0.8154
  712MOL0     C96004   9.931   8.820   2.357  0.7753 -0.9996  0.7671
  712MOL0     C96005   9.954   8.715   2.459 -0.2535  0.2301 -0.5765
  712MOL0     C96006   9.843   8.724   2.562 -0.4950  0.5667 -0.6566
  712MOL0     C96007   9.871   8.626   2.677  0.6538  0.4116  0.2955
  712MOL0     C96008   9.755   8.633   2.778  0.1633  0.3398 -0.2476
  712MOL0     O96009   9.646   8.569   2.711 -0.3448 -0.1198 -0.2857
  712MOL0     C96010   9.527   8.627   2.729  0.2164 -0.8065  0.0013
  712MOL0     C96011   9.491   8.689   2.853  0.4965 -1.0666  0.5150
  712MOL0     C96012   9.353   8.740   2.868  0.6715 -0.6121  0.2679
  712MOL0     C96013   9.335   8.812   3.003 -0.5621 -0.5328  0.0183
  712MOL0     C96014   9.259   8.721   2.768  1.0145  0.8445  0.4261
  712MOL0     C96015   9.124   8.768   2.767  0.0080 -0.8879 -0.3011
  712MOL0     O96016   9.031   8.683   2.717  0.9595 -0.3926  0.2801
  712MOL0     C96017   8.918   8.751   2.690  0.3726  0.2494  0.1438
  712MOL0     C96018   8.834   8.798   2.790  0.2935 -0.2478 -1.1738
  712MOL0     C96019   8.718   8.863   2.760 -0.6459 -0.1702 -0.6569
  712MOL0     C96020   8.669   8.876   2.627  0.4866  1.1637 -0.2641
  712MOL0     O96021   8.549   8.937   2.599  0.2450 -0.5356 -0.1269
  712MOL0     C96022   8.431   8.861   2.601 -0.1980 -0.0227  0.0645
  712MOL0     C96023   8.321   8.965   2.616 -0.6366 -0.0192 -0.5829
  712MOL0     C96024   8.186   8.907   2.647 -0.2946 -0.2652 -0.0458
  712MOL0     C96025   8.074   9.014   2.642 -0.5658  0.6631  0.7573
  712MOL0     C96026   7.940   8.950   2.642  0.4848 -0.0208  0.3534
  712MOL0     C96027   7.833   9.060   2.611 -0.0904  1.1776  0.0826
  712MOL0     C96028   7.692   9.011   2.572  0.3044  0.4524  0.5610
  712MOL0     C96029   7.589   9.117   2.536 -0.0332 -0.7043  0.4915
  712MOL0    Cl96030   7.458   9.136   2.657 -0.0034  0.1004 -0.7085
  712MOL0     C96031   8.754   8.831   2.526 -0.1609  0.1824 -0.3264
  712MOL0     C96032   8.880   8.772   2.560  0.1718 -0.2431  1.0425
  712MOL0     O96033   9.114   8.883   2.807 -0.3189 -0.1325 -0.2413
  712MOL0     C96034   9.298   8.664   2.651  0.3008 -0.4991  0.1002
  712MOL0     C96035   9.423   8.605   2.633 -1.1553 -0.1002 -1.2329
  712MOL0     N96036  10.026   8.888   2.291 -0.2913 -0.1143 -0.0667
  712MOL0     N96037   9.979   8.977   2.212 -0.0360 -0.4640  0.3795
  712MOL0     C96038   8.911   9.572   1.734 -0.2175 -0.4258 -0.3993
  712MOL0     C96039   8.772   9.607   1.754  0.2637  0.6934 -0.9240
  712MOL0     C96040   8.376   9.761   1.872 -0.5249  0.1088  0.3258
  712MOL0     C96041   8.314   9.677   1.971  0.2104 -0.7963 -0.0123
  712MOL0     C96042   8.183   9.690   2.008 -0.3503 -0.1691 -0.3361
  712MOL0     C96043   8.098   9.766   1.931  0.4647 -0.3317 -0.3737
  712MOL0     O96044   7.961   9.771   1.949  0.2056  0.2515  0.2830
  712MOL0     C96045   7.887   9.708   2.052 -1.4449 -0.0649  0.2654
  712MOL0     C96046   7.830   9.574   1.982 -0.3685  0.4435  1.2015
  712MOL0     C96047   7.779   9.471   2.081 -0.0649  0.9832 -0.5721
  712MOL0     C96048   7.772   9.318   2.030  0.5771 -1.1437  0.3651
  712MOL0     C96049   7.649   9.258   2.081 -0.3710  0.1134 -0.2398
  712MOL0     C96050   7.549   9.191   2.112 -0.4592  0.0096 -0.6776
  712MOL0     C96051   8.158   9.853   1.834  0.5687  1.2523 -0.5508
  712MOL0     C96052   8.294   9.847   1.800 -0.3596  0.1743  0.2064
  712MOL0     H96053   8.757   9.554   2.086  0.0350  0.2511 -0.3156
  712MOL0     H96054   8.993   9.507   2.051  0.2751 -0.9321 -0.0468
  712MOL0     H96055   9.135   9.357   1.948 -1.1160 -0.2569 -1.0419
  712MOL0     H96056   9.226   9.341   1.798  2.3561  0.5415  1.2757
  712MOL0     H96057   9.372   9.536   1.868  2.4146 -0.9355  0.7298
  712MOL0     H96058   9.267   9.564   2.007  1.3521 -0.3365  1.6096
  712MOL0     H96059   9.330   9.336   2.086  0.5646 -2.4960 -1.3656
  712MOL0     H96060   9.425   9.296   1.948  1.6269  0.1848  0.0647
  712MOL0     H96061   9.552   9.492   1.949 -1.4157 -3.9392 -1.3062
  712MOL0     H96062   9.504   9.534   2.123  2.3233 -0.1633  1.1435
  712MOL0     H96063   9.672   9.288   2.025 -0.3439 -0.4883 -0.7760
  712MOL0     H96064   9.733   9.421   2.115 -0.3525 -0.3754 -0.7126
  712MOL0     H96065   9.553   9.341   2.297  1.3322 -0.0319  0.3673
  712MOL0     H96066   9.527   9.209   2.200  0.9240  0.2147 -1.0608
  712MOL0     H96067   9.816   9.266   2.272 -1.4172  0.4672  2.7155
  712MOL0     H96068   9.708   9.167   2.370  2.0528 -2.2767  0.8968
  712MOL0     H96069   9.785   9.097   2.075 -0.5052 -1.7014 -0.5338
  712MOL0     H96070   9.658   9.023   2.156  1.2672 -1.1016  0.4674
  712MOL0     H96071   9.720   8.861   2.383  1.3509 -1.0905  2.8904
  712MOL0     H96072   9.954   8.614   2.417 -0.7016 -0.5676  1.2016
  712MOL0     H96073  10.048   8.731   2.513 -0.2924 -2.2949  0.4094
  712MOL0     H96074   9.743   8.702   2.522  0.0176 -2.6345 -0.4779
  712MOL0     H96075   9.847   8.829   2.592  0.3159  0.2992  0.2007
  712MOL0     H96076   9.966   8.648   2.727  1.8521 -1.1931 -1.1457
  712MOL0     H96077   9.880   8.523   2.642 -1.5291 -0.7812  2.8536
  712MOL0     H96078   9.741   8.737   2.809 -1.9422  0.4574 -1.4267
  712MOL0     H96079   9.785   8.574   2.865 -0.5990 -1.2880 -1.0477
  712MOL0     H96080   9.564   8.716   2.928  1.5660  5.0625 -2.1122
  712MOL0     H96081   9.367   8.916   2.987 -1.2295 -0.6838 -2.8313
  712MOL0     H96082   9.233   8.815   3.043 -0.1964  1.0223  0.9453
  712MOL0     H96083   9.403   8.769   3.077  0.2794  1.0853  0.2297
  712MOL0     H96084   8.864   8.787   2.894 -1.2122  0.9732 -0.5711
  712MOL0     H96085   8.654   8.912   2.833 -1.5554  0.0164 -1.5661
  712MOL0     H96086   8.421   8.799   2.512  0.0647 -0.6563  0.4651
  712MOL0     H96087   8.427   8.799   2.691  1.2742 -0.2742 -0.0220
  712MOL0     H96088   8.343   9.029   2.702  0.1820 -1.0937  0.0418
  712MOL0     H96089   8.320   9.025   2.525  1.5507 -0.3554 -0.8862
  712MOL0     H96090   8.191   8.862   2.747  0.0379  0.5714  0.3287
  712MOL0     H96091   8.161   8.826   2.579  2.8307 -2.3644  1.0682
  712MOL0     H96092   8.089   9.090   2.720 -0.5520 -0.1898  1.6098
  712MOL0     H96093   8.085   9.071   2.549  0.6480 -0.0967  0.4184
  712MOL0     H96094   7.911   8.912   2.740 -0.7240  2.1495  0.9284
  712MOL0     H96095   7.921   8.870   2.570 -2.9693  0.8693  0.0527
  712MOL0     H96096   7.831   9.126   2.698  2.0702  1.0232  0.3101
  712MOL0     H96097   7.869   9.117   2.525 -1.5326  0.7300 -0.8515
  712MOL0     H96098   7.661   8.960   2.664  0.2404 -2.3690 -0.9162
  712MOL0     H96099   7.695   8.940   2.489 -1.5003  0.0217  0.8220
  712MOL0     H96100   7.544   9.094   2.439 -0.4803 -0.6242  0.6789
  712MOL0     H96101   7.643   9.211   2.521  2.2777 -1.6780  2.1601
  712MOL0     H96102   8.726   8.836   2.422  0.3585  4.3981 -0.4448
  712MOL0     H96103   8.948   8.737   2.483  0.2420  1.7121  0.1441
  712MOL0     H96104   9.233   8.649   2.566 -1.0922  1.3935  0.7576
  712MOL0     H96105   9.451   8.545   2.547  2.5892 -1.5338  0.7231
  712MOL0     H96106   8.957   9.595   1.638 -0.8748  1.7813 -0.2397
  712MOL0     H96107   8.713   9.633   1.667 -2.5978 -2.9208 -0.3141
  712MOL0     H96108   8.375   9.623   2.043 -0.1756 -0.6947  0.3894
  712MOL0     H96109   8.149   9.639   2.098 -0.3051  0.2845 -0.0568
  712MOL0     H96110   7.956   9.685   2.134  1.7659  3.0004 -1.2903
  712MOL0     H96111   7.807   9.779   2.075  1.5108  4.0847 -0.9866
  712MOL0     H96112   7.915   9.532   1.929 -0.4550 -0.0468  1.4375
  712MOL0     H96113   7.760   9.584   1.899  1.2676 -1.5333 -0.5074
  712MOL0     H96114   7.677   9.503   2.105 -2.1813 -2.0529 -4.3213
  712MOL0     H96115   7.845   9.461   2.168 -1.3534 -2.4358  0.1857
  712MOL0     H96116   7.863   9.262   2.054  2.5576  1.1710 -1.2845
  712MOL0     H96117   7.774   9.311   1.921  2.3075  0.8061  0.2156
  712MOL0     H96118   7.454   9.144   2.129 -1.1261  0.2877 -3.2143
  712MOL0     H96119   8.083   9.905   1.777  0.6449  0.1570 -1.6897
  712MOL0     H96120   8.330   9.903   1.715 -2.4872  3.2119  1.1643
  713MOL0     O96121   0.486   0.136   1.715 -0.0717  0.3336 -0.0684
  713MOL0     C96122   0.517   0.211   1.617  1.0710  0.0337 -0.3505
  713MOL0     O96123   0.431   0.296   1.552  0.1130  0.0173  0.7669
  713MOL0     C96124   0.291   0.314   1.583 -0.3470 -0.3471  0.7895
  713MOL0     C96125   0.204   0.340   1.483 -0.0213  0.8374  0.5841
  713MOL0     C96126   0.072   0.383   1.515 -0.0639  0.2741  0.0526
  713MOL0     C96127   0.024   0.385   1.647  0.3851 -0.4327 -0.1286
  713MOL0     O96128  -0.101   0.443   1.663 -0.3844  0.0727 -0.0765
  713MOL0     C96129  -0.107   0.552   1.767  0.1294 -0.3079 -0.1748
  713MOL0     C96130  -0.256   0.590   1.772  0.2698 -0.3256 -1.4139
  713MOL0     C96131  -0.323   0.652   1.649 -0.1278 -0.0157 -1.2177
  713MOL0     C96132  -0.467   0.683   1.666  0.6258  0.2656 -0.5656
  713MOL0     C96133  -0.558   0.661   1.542  0.3347  0.0269 -0.2603
  713MOL0     C96134  -0.695   0.714   1.542  0.1918  0.2730 -0.6549
  713MOL0     C96135  -0.767   0.695   1.405  0.4262 -0.8097  0.4869
  713MOL0     C96136  -0.901   0.780   1.389 -0.8397  0.1185  0.8381
  713MOL0     N96137  -0.961   0.823   1.516 -0.1343 -0.5669 -0.7777
  713MOL0     C96138  -0.989   0.746   1.638 -0.0517 -0.5145  0.2992
  713MOL0     C96139  -1.030   0.841   1.729  0.0731 -0.3116 -0.0664
  713MOL0     C96140  -1.070   0.814   1.881  0.1819 -0.1273  0.7237
  713MOL0     C96141  -1.215   0.789   1.879  0.5440  0.1077  0.1907
  713MOL0     C96142  -1.303   0.923   1.890  0.5550 -0.0573  0.7729
  713MOL0     C96143  -1.452   0.885   1.925  0.0921  0.1897  0.1143
  713MOL0     O96144  -1.531   1.002   1.963 -0.2095  0.0586 -0.5257
  713MOL0     C96145  -1.640   0.992   2.046 -0.4156  0.7613  0.2566
  713MOL0     C96146  -1.692   1.113   2.099 -0.1439  0.7806  0.0505
  713MOL0     C96147  -1.798   1.112   2.195 -0.6646  0.0501 -0.2532
  713MOL0     C96148  -1.850   1.249   2.253  0.6783 -0.3882 -0.4257
  713MOL0     C96149  -1.868   0.987   2.223 -0.2649  0.6435 -0.3965
  713MOL0     C96150  -1.982   0.964   2.315 -0.2540  0.0955 -1.0292
  713MOL0     O96151  -2.025   0.831   2.334  0.2733  0.4347  0.2108
  713MOL0     C96152  -2.142   0.809   2.396  0.7257 -0.8390 -0.0967
  713MOL0     C96153  -2.268   0.875   2.366 -0.0792  0.2628  0.2342
  713MOL0     C96154  -2.385   0.853   2.448 -0.5675  0.4712 -0.1988
  713MOL0     C96155  -2.386   0.771   2.560 -0.1082  1.0194 -0.4135
  713MOL0     O96156  -2.499   0.748   2.634  0.0959 -0.0068  0.9462
  713MOL0     C96157  -2.488   0.804   2.761 -0.4937  0.2874  0.4341
  713MOL0     C96158  -2.626   0.821   2.824  0.0036  0.3081 -0.5069
  713MOL0     C96159  -2.688   0.946   2.768  0.0790  0.3538  0.3284
  713MOL0     C96160  -2.834   0.944   2.799 -0.2500 -1.0495 -0.4259
  713MOL0     C96161  -2.897   1.089   2.790 -0.5042  0.8713 -0.5859
  713MOL0     C96162  -3.043   1.089   2.805  0.4359 -0.0769  0.4849
  713MOL0     C96163  -3.100   1.229   2.777  0.2177  0.0214  0.0354
  713MOL0     C96164  -3.251   1.227   2.790  0.1629 -0.5369 -0.6962
  713MOL0    Cl96165  -3.344   1.123   2.674 -0.1416 -0.6139  0.3208
  713MOL0     C96166  -2.272   0.698   2.584 -0.4190 -0.0143 -0.6786
  713MOL0     C96167  -2.149   0.714   2.504  0.1900  0.0855  0.4652
  713MOL0     O96168  -2.033   1.058   2.381  0.2675 -0.0793 -0.0207
  713MOL0     C96169  -1.815   0.874   2.163  0.4886  0.7344 -0.3574
  713MOL0     C96170  -1.699   0.872   2.078  0.1382 -0.3189 -1.3457
  713MOL0     N96171  -1.026   0.963   1.669 -0.4470 -0.4976 -0.0459
  713MOL0     N96172  -1.000   0.953   1.536  0.3196  0.4070  0.0593
  713MOL0     C96173   0.112   0.346   1.743 -0.1915 -0.4236 -0.3154
  713MOL0     C96174   0.246   0.312   1.712  0.2238  0.3835 -0.6602
  713MOL0     C96175   0.656   0.216   1.574 -0.1156 -0.4019 -0.6169
  713MOL0     C96176   0.691   0.280   1.452  0.7332 -0.0287 -0.1311
  713MOL0     C96177   0.817   0.262   1.409 -0.5965  0.0739 -0.3045
  713MOL0     C96178   0.921   0.197   1.478 -0.1902 -0.1032  0.2955
  713MOL0     O96179   1.042   0.193   1.412 -0.0143  0.0523 -0.3814
  713MOL0     C96180   1.164   0.173   1.488  0.1258 -0.5270  0.0166
  713MOL0     C96181   1.283   0.155   1.392  0.0381 -0.8768  0.6585
  713MOL0     C96182   1.352   0.017   1.414  0.0913 -0.1385  0.2516
  713MOL0     C96183   1.435  -0.021   1.301  0.3310 -0.3137  0.2714
  713MOL0     C96184   1.526  -0.137   1.329  0.0099 -1.2662  0.2009
  713MOL0     C96185   1.624  -0.193   1.362 -0.1770 -0.1240 -0.7749
  713MOL0     C96186   0.887   0.141   1.604  0.0218  0.1553  0.3776
  713MOL0     C96187   0.751   0.140   1.642 -0.3026 -0.2230 -0.2205
  713MOL0     H96188   0.216   0.331   1.376 -0.2588  0.9406  0.5478
  713MOL0     H96189   0.011   0.398   1.426 -2.3870 -2.6967  0.9716
  713MOL0     H96190  -0.069   0.517   1.864  2.8922 -0.2923 -1.1572
  713MOL0     H96191  -0.052   0.640   1.730  0.7246  0.2468  1.8892
  713MOL0     H96192  -0.314   0.509   1.818 -2.6906  2.5332  0.3461
  713MOL0     H96193  -0.263   0.668   1.849 -0.4763 -2.3961  0.7131
  713MOL0     H96194  -0.260   0.739   1.628 -0.1176  0.7009  1.4452
  713MOL0     H96195  -0.301   0.581   1.568 -3.2072 -1.4634 -0.9583
  713MOL0     H96196  -0.508   0.621   1.747  3.0282 -1.8632 -0.8328
  713MOL0     H96197  -0.464   0.790   1.691  2.7224  0.8312 -2.8277
  713MOL0     H96198  -0.515   0.717   1.458 -1.1925  1.0236 -0.4078
  713MOL0     H96199  -0.568   0.553   1.536  1.1582 -0.1447  1.1102
  713MOL0     H96200  -0.758   0.668   1.619 -2.0004  1.2022 -1.7936
  713MOL0     H96201  -0.680   0.820   1.562  0.9779 -0.0881  0.7680
  713MOL0     H96202  -0.711   0.720   1.314  1.5791  0.8663  1.5888
  713MOL0     H96203  -0.793   0.589   1.401  1.1906 -1.0003  0.3483
  713MOL0     H96204  -0.972   0.728   1.324  2.7823 -1.1542 -2.4966
  713MOL0     H96205  -0.867   0.869   1.336 -0.2212 -0.8113 -0.3780
  713MOL0     H96206  -0.985   0.638   1.651  1.2495 -0.3014  2.0121
  713MOL0     H96207  -1.022   0.719   1.909 -2.9418 -1.8248  0.8046
  713MOL0     H96208  -1.048   0.897   1.948 -2.7097  0.3892  1.1339
  713MOL0     H96209  -1.233   0.734   1.973  1.0978 -2.7230 -1.2392
  713MOL0     H96210  -1.247   0.722   1.798  0.1626  0.9360 -0.3479
  713MOL0     H96211  -1.301   0.984   1.799 -0.6678  2.2923  2.2106
  713MOL0     H96212  -1.258   0.982   1.971 -1.1982  0.0819  1.6776
  713MOL0     H96213  -1.450   0.822   2.015  0.8377 -2.1311 -1.4321
  713MOL0     H96214  -1.504   0.830   1.846 -0.5151 -1.6416  1.6757
  713MOL0     H96215  -1.656   1.212   2.070  0.9791  0.0439 -1.1655
  713MOL0     H96216  -1.953   1.278   2.228  0.4098 -1.8265 -1.1013
  713MOL0     H96217  -1.847   1.245   2.362  2.0454  1.3041 -0.3559
  713MOL0     H96218  -1.782   1.332   2.236  1.1262 -0.9561 -1.5126
  713MOL0     H96219  -2.274   0.939   2.278 -2.6113  1.5750  1.2383
  713MOL0     H96220  -2.481   0.901   2.427  0.0992  1.8698 -0.1620
  713MOL0     H96221  -2.424   0.741   2.822  0.3901  1.4495  0.7503
  713MOL0     H96222  -2.447   0.906   2.763  1.8500 -0.6121  1.7651
  713MOL0     H96223  -2.692   0.737   2.800  0.9284 -0.0144 -2.0484
  713MOL0     H96224  -2.617   0.835   2.932 -0.8002  0.8575 -0.4985
  713MOL0     H96225  -2.676   0.961   2.660 -1.4641 -0.6841 -0.0178
  713MOL0     H96226  -2.642   1.030   2.821 -2.8594  3.3476 -1.4613
  713MOL0     H96227  -2.879   0.866   2.736 -0.3258  0.5085 -2.4176
  713MOL0     H96228  -2.854   0.925   2.904 -5.5930  4.7333  0.2190
  713MOL0     H96229  -2.873   1.147   2.701 -0.6727  0.3823 -0.9577
  713MOL0     H96230  -2.851   1.144   2.872 -1.2746  1.6989 -0.6972
  713MOL0     H96231  -3.095   1.016   2.743 -0.1715 -0.1502  1.0779
  713MOL0     H96232  -3.055   1.063   2.911  4.8602  1.5994  1.6322
  713MOL0     H96233  -3.073   1.259   2.675 -2.8260  2.0200 -0.3189
  713MOL0     H96234  -3.046   1.306   2.832  0.6638 -0.3423  0.1180
  713MOL0     H96235  -3.276   1.333   2.785  2.4824  0.0061 -2.2088
  713MOL0     H96236  -3.271   1.188   2.890 -1.5705 -2.9174 -1.8766
  713MOL0     H96237  -2.272   0.646   2.679 -1.7772  0.2819 -0.4864
  713MOL0     H96238  -2.065   0.649   2.527 -1.1934 -1.9187  0.0584
  713MOL0     H96239  -1.850   0.777   2.197  0.1510  0.7477 -0.6543
  713MOL0     H96240  -1.666   0.779   2.032 -0.2621 -0.3615 -1.5478
  713MOL0     H96241   0.087   0.355   1.848  2.3992 -0.6840  0.3761
  713MOL0     H96242   0.322   0.292   1.787 -0.6210 -2.7914 -0.5234
  713MOL0     H96243   0.618   0.339   1.398 -1.6657 -1.8683  0.9253
  713MOL0     H96244   0.848   0.306   1.314 -0.5286 -1.7615 -1.1713
  713MOL0     H96245   1.172   0.252   1.563 -2.7329 -1.2026  1.1632
  713MOL0     H96246   1.144   0.082   1.545 -0.9787 -0.4890 -0.2759
  713MOL0     H96247   1.348   0.241   1.412  0.7252 -0.6908 -2.0529
  713MOL0     H96248   1.251   0.158   1.287 -1.0004 -1.4178  0.9386
  713MOL0     H96249   1.277  -0.060   1.436  0.1243 -0.4248 -0.5806
  713MOL0     H96250   1.409   0.030   1.506  1.2281 -1.0305 -0.3094
  713MOL0     H96251   1.500   0.056   1.259 -1.4723  1.4719  0.5582
  713MOL0     H96252   1.362  -0.048   1.224  0.4411 -1.3526  0.5187
  713MOL0     H96253   1.712  -0.248   1.388 -1.1651 -0.8239  1.2961
  713MOL0     H96254   0.969   0.091   1.656 -0.4303 -2.0672 -0.9189
  713MOL0     H96255   0.714   0.093   1.733  0.2199  2.1184  1.2909
  714MOL0     O96256   7.975   9.817   3.805 -0.3201  0.5419 -0.3418
  714MOL0     C96257   7.937   9.804   3.689  0.5266 -0.9703 -0.2627
  714MOL0     O96258   7.818   9.827   3.638  0.3632  0.0823  0.3365
  714MOL0     C96259   7.719   9.885   3.718 -0.6628 -1.1000 -0.0445
  714MOL0     C96260   7.672   9.828   3.830  0.7840  0.7216  0.1260
  714MOL0     C96261   7.569   9.895   3.913  0.1916  0.4407  0.5428
  714MOL0     C96262   7.522  10.020   3.881  0.1420  0.2441  0.0025
  714MOL0     O96263   7.422  10.077   3.963 -0.0858  0.4339  0.0483
  714MOL0     C96264   7.407  10.219   3.967 -0.0603  0.5544 -0.0361
  714MOL0     C96265   7.307  10.263   4.074  0.0303 -0.3182 -0.0429
  714MOL0     C96266   7.299  10.411   4.091  0.3565  0.5221  0.6961
  714MOL0     C96267   7.199  10.444   4.203 -0.2088  0.7830  1.5349
  714MOL0     C96268   7.199  10.598   4.231  0.5918  0.8782  0.7366
  714MOL0     C96269   7.330  10.632   4.319  0.3760 -0.3208  0.3909
  714MOL0     C96270   7.328  10.566   4.456  0.9669 -0.2779 -0.0248
  714MOL0     C96271   7.203  10.581   4.547 -0.1034  1.1181 -0.2798
  714MOL0     N96272   7.167  10.716   4.570 -0.7223  0.3669 -0.9430
  714MOL0     C96273   7.062  10.781   4.507 -0.7359  0.1363  0.3157
  714MOL0     C96274   7.075  10.913   4.527 -0.5446  0.5249  0.6911
  714MOL0     C96275   6.981  11.019   4.486 -0.1086 -0.1282  0.6112
  714MOL0     C96276   6.946  10.995   4.347 -0.3949  0.6537  0.8884
  714MOL0     C96277   7.065  11.006   4.245 -0.1370 -1.3958 -0.3220
  714MOL0     C96278   7.009  11.005   4.110 -0.3124  0.2434  0.4808
  714MOL0     O96279   6.954  10.881   4.079  0.5600  0.1632 -0.6457
  714MOL0     C96280   6.860  10.869   3.976 -0.1713  0.4390 -0.7958
  714MOL0     C96281   6.797  10.749   3.959 -0.5693 -0.2203 -0.3356
  714MOL0     C96282   6.695  10.723   3.877  0.7929  0.7499  0.2350
  714MOL0     C96283   6.625  10.590   3.896  0.6008  0.4003 -0.7225
  714MOL0     C96284   6.645  10.832   3.809  0.3871  0.5259  0.5677
  714MOL0     C96285   6.533  10.831   3.709  0.9683  0.6778 -0.5956
  714MOL0     O96286   6.463  10.955   3.706 -0.1188  0.5087  0.2679
  714MOL0     C96287   6.340  10.973   3.650  0.1201 -0.4310  0.4595
  714MOL0     C96288   6.310  11.103   3.622 -0.4370 -0.6166 -0.0511
  714MOL0     C96289   6.188  11.136   3.566  0.5418  0.0192  0.0372
  714MOL0     C96290   6.087  11.039   3.544 -0.8633 -0.7103 -1.1148
  714MOL0     O96291   5.967  11.057   3.482 -0.5412 -0.3675  0.9151
  714MOL0     C96292   5.944  11.184   3.417  0.1348 -0.2509 -0.0238
  714MOL0     C96293   5.975  11.172   3.267  0.0130 -0.6146 -0.0389
  714MOL0     C96294   5.870  11.101   3.184 -0.0929  0.2516  0.3256
  714MOL0     C96295   5.773  11.196   3.126 -0.2477  0.6090  0.1448
  714MOL0     C96296   5.670  11.125   3.035 -0.3489  0.1685  0.6206
  714MOL0     C96297   5.593  11.220   2.940 -0.0760  0.0358 -0.2564
  714MOL0     C96298   5.508  11.132   2.843  0.1753  0.5404 -0.0215
  714MOL0     C96299   5.470  11.207   2.722  0.1753 -0.5066  0.2907
  714MOL0    Cl96300   5.349  11.118   2.628  0.5397 -0.0897 -0.3486
  714MOL0     C96301   6.120  10.909   3.578  0.8425 -0.1838  0.7639
  714MOL0     C96302   6.248  10.873   3.622  0.5906  0.3322 -0.0446
  714MOL0     O96303   6.500  10.723   3.659  0.0624  0.0768  0.7256
  714MOL0     C96304   6.718  10.949   3.806 -0.1820 -0.3410  0.9047
  714MOL0     C96305   6.834  10.969   3.879 -0.5621 -0.0082 -0.2927
  714MOL0     N96306   7.189  10.920   4.598  0.0767 -1.2376  0.3453
  714MOL0     N96307   7.246  10.813   4.626  0.2070 -0.8222  0.4642
  714MOL0     C96308   7.570  10.081   3.757 -0.0189 -0.2187 -1.2336
  714MOL0     C96309   7.665  10.014   3.680  0.1305  0.6816  0.0903
  714MOL0     C96310   8.048   9.769   3.596  0.4156  0.0753  0.7087
  714MOL0     C96311   8.030   9.709   3.472 -0.0325 -0.5896 -0.5426
  714MOL0     C96312   8.142   9.662   3.409  0.1420 -0.1953 -0.2839
  714MOL0     C96313   8.269   9.676   3.446 -0.9694 -0.6422  0.3295
  714MOL0     O96314   8.368   9.606   3.376  0.0983 -0.2002 -0.4798
  714MOL0     C96315   8.499   9.653   3.361  0.0767 -0.5274 -0.2959
  714MOL0     C96316   8.608   9.604   3.468  0.2398 -0.3016  0.1664
  714MOL0     C96317   8.753   9.609   3.409  0.9659  0.2698  0.7478
  714MOL0     C96318   8.768   9.519   3.283  1.3388  0.0516 -0.2146
  714MOL0     C96319   8.906   9.481   3.281 -1.1004 -0.4573  0.3352
  714MOL0     C96320   9.026   9.445   3.285 -0.0891  0.6642 -0.1584
  714MOL0     C96321   8.291   9.744   3.565  0.1058 -0.0402  0.8719
  714MOL0     C96322   8.180   9.791   3.639  0.2705  0.1691  0.0132
  714MOL0     H96323   7.726   9.737   3.855 -0.9745 -0.6350 -0.7991
  714MOL0     H96324   7.523   9.854   4.002 -1.2993 -1.9018 -1.1849
  714MOL0     H96325   7.502  10.273   3.966 -0.2744  0.9350 -1.1635
  714MOL0     H96326   7.364  10.244   3.870 -1.4100  1.2930  0.7202
  714MOL0     H96327   7.207  10.223   4.053  1.2415 -2.4751 -2.3780
  714MOL0     H96328   7.336  10.217   4.168  0.7705 -0.9083 -0.5420
  714MOL0     H96329   7.400  10.449   4.111  0.5457  0.3444  0.0976
  714MOL0     H96330   7.267  10.452   3.994 -2.5559 -1.7987  0.5683
  714MOL0     H96331   7.100  10.409   4.171  1.0216 -2.4124  0.8293
  714MOL0     H96332   7.215  10.386   4.294 -2.2276 -0.9011  0.9075
  714MOL0     H96333   7.192  10.657   4.140 -1.3275 -0.8760 -0.3247
  714MOL0     H96334   7.107  10.624   4.285  0.5563  1.6617  0.3122
  714MOL0     H96335   7.418  10.601   4.261 -1.4019 -0.5590 -2.3726
  714MOL0     H96336   7.331  10.739   4.339  1.5584 -0.4103  0.8987
  714MOL0     H96337   7.336  10.458   4.436 -1.0786 -0.8701  1.9455
  714MOL0     H96338   7.411  10.600   4.519  1.2972  1.9574 -1.5455
  714MOL0     H96339   7.225  10.533   4.642  0.1050 -3.9562 -2.5935
  714MOL0     H96340   7.112  10.532   4.511  1.3886 -2.2826  0.1968
  714MOL0     H96341   6.981  10.736   4.450 -2.1074  1.6920  0.9355
  714MOL0     H96342   6.893  11.016   4.551 -0.3956  0.0665  0.2311
  714MOL0     H96343   7.032  11.114   4.503 -1.0347  0.3582  0.7483
  714MOL0     H96344   6.876  11.077   4.326 -1.5860 -1.1545 -3.0253
  714MOL0     H96345   6.902  10.897   4.331  1.2035  0.1429 -0.8010
  714MOL0     H96346   7.141  10.928   4.254  1.7358  0.4262  0.5100
  714MOL0     H96347   7.111  11.102   4.272  0.5747 -1.1119 -2.3988
  714MOL0     H96348   7.081  11.041   4.036  1.0441 -0.2074  1.5354
  714MOL0     H96349   6.930  11.079   4.092  1.3215  1.6595 -1.3957
  714MOL0     H96350   6.824  10.682   4.041  1.1093  1.9545  0.9850
  714MOL0     H96351   6.665  10.539   3.984 -2.3528 -2.1355 -0.6648
  714MOL0     H96352   6.516  10.590   3.908  0.9282  1.0481  3.8367
  714MOL0     H96353   6.640  10.528   3.807  0.3412  2.4431 -2.2788
  714MOL0     H96354   6.380  11.181   3.648 -1.4556 -0.0249  0.9926
  714MOL0     H96355   6.157  11.239   3.560 -1.4739 -0.5112  0.5920
  714MOL0     H96356   5.837  11.200   3.434 -0.0522 -2.6351  1.5202
  714MOL0     H96357   5.989  11.269   3.469 -1.3658  0.5427  0.0403
  714MOL0     H96358   6.002  11.270   3.225 -1.6120  0.2857  0.9025
  714MOL0     H96359   6.071  11.120   3.262  1.9349  2.6240 -0.3266
  714MOL0     H96360   5.831  11.011   3.233 -0.8523 -1.2295 -2.7362
  714MOL0     H96361   5.930  11.084   3.094 -2.5968 -0.8088 -1.2614
  714MOL0     H96362   5.709  11.238   3.204  0.3512  2.1606 -0.1692
  714MOL0     H96363   5.830  11.271   3.070 -1.9721  1.0748 -1.0714
  714MOL0     H96364   5.585  11.085   3.090 -0.0684  1.5110  2.1019
  714MOL0     H96365   5.724  11.053   2.972 -1.7974 -1.3914  1.1049
  714MOL0     H96366   5.528  11.295   2.986 -0.5664 -0.1535 -0.6296
  714MOL0     H96367   5.662  11.284   2.884  0.9160  0.6805  1.6022
  714MOL0     H96368   5.422  11.089   2.894  0.5962 -0.2569  0.0372
  714MOL0     H96369   5.568  11.048   2.805 -0.4895  1.3631 -3.2222
  714MOL0     H96370   5.553  11.233   2.657 -1.2572  2.8423 -0.4376
  714MOL0     H96371   5.434  11.305   2.755  0.8753  0.1720 -0.8991
  714MOL0     H96372   6.040  10.836   3.571  1.9409 -1.4804  1.2498
  714MOL0     H96373   6.277  10.773   3.654 -1.0353 -0.3444 -0.5453
  714MOL0     H96374   6.691  11.028   3.736  2.5664  2.8710  3.1420
  714MOL0     H96375   6.904  11.052   3.874 -2.1780  1.3419 -2.5293
  714MOL0     H96376   7.562  10.185   3.729  1.8303 -0.1347 -1.5931
  714MOL0     H96377   7.713  10.058   3.593  2.6014 -2.7247 -0.4994
  714MOL0     H96378   7.927   9.695   3.442 -1.0227  2.0843  1.2071
  714MOL0     H96379   8.135   9.612   3.313  1.1516 -1.9681  0.5310
  714MOL0     H96380   8.528   9.620   3.261  0.8093  1.4753 -0.7828
  714MOL0     H96381   8.510   9.761   3.363  2.0216 -0.5775  4.2759
  714MOL0     H96382   8.577   9.502   3.492 -0.1346 -0.6474 -1.6363
  714MOL0     H96383   8.600   9.652   3.566 -1.1344 -0.8261  0.3305
  714MOL0     H96384   8.809   9.574   3.496  1.5015  0.7720  0.6137
  714MOL0     H96385   8.788   9.710   3.387  0.7933 -0.0256 -1.0454
  714MOL0     H96386   8.732   9.550   3.184  0.2186 -2.0455 -0.5314
  714MOL0     H96387   8.704   9.431   3.295 -0.0574  1.0446 -0.0575
  714MOL0     H96388   9.131   9.432   3.307  0.0851  0.9977 -0.7706
  714MOL0     H96389   8.391   9.740   3.606  0.5195  0.0596 -0.1012
  714MOL0     H96390   8.204   9.846   3.730  2.1066 -0.6857  0.1059
  715MOL0     O96391   7.575   1.152   7.906 -0.1687 -0.2301 -0.5734
  715MOL0     C96392   7.619   1.057   7.965  0.1326  0.0310  0.5719
  715MOL0     O96393   7.557   0.973   8.044 -0.5534  0.9299  0.0575
  715MOL0     C96394   7.433   1.000   8.092 -0.3068  0.0312 -0.0320
  715MOL0     C96395   7.320   0.985   8.009  0.4659  0.1960 -0.1289
  715MOL0     C96396   7.193   1.015   8.060 -0.8361 -0.2083  0.1545
  715MOL0     C96397   7.179   1.076   8.183  0.4191 -0.3004 -0.6196
  715MOL0     O96398   7.054   1.113   8.228  0.2170 -0.1767 -0.2206
  715MOL0     C96399   6.959   1.008   8.249  0.2108 -0.2506  0.3955
  715MOL0     C96400   6.848   1.064   8.346 -0.0170 -0.1855  0.6178
  715MOL0     C96401   6.794   1.194   8.283 -0.6251 -0.5593  0.1840
  715MOL0     C96402   6.669   1.241   8.351  0.4574  0.9201 -0.6937
  715MOL0     C96403   6.694   1.295   8.497  0.1457  0.3920  0.0770
  715MOL0     C96404   6.560   1.350   8.559 -0.0301  0.7347 -0.8186
  715MOL0     C96405   6.579   1.398   8.706  0.6305 -0.4295  0.0043
  715MOL0     C96406   6.443   1.423   8.764 -0.2200  0.4179  0.5525
  715MOL0     N96407   6.364   1.534   8.711  0.0433  0.3848  0.6084
  715MOL0     C96408   6.296   1.541   8.593 -0.2341  0.4364  0.4217
  715MOL0     C96409   6.250   1.670   8.586  0.0915  0.7278 -0.1295
  715MOL0     C96410   6.149   1.720   8.481 -0.6912 -0.8642 -0.1228
  715MOL0     C96411   6.005   1.729   8.542  0.0518  0.4640 -1.3468
  715MOL0     C96412   5.989   1.844   8.638  1.2145 -0.9085  0.0895
  715MOL0     C96413   5.845   1.897   8.660 -0.2402  0.5158  0.9414
  715MOL0     O96414   5.788   1.953   8.537 -0.6316 -0.2641  0.7505
  715MOL0     C96415   5.649   1.945   8.532 -0.2606 -0.3660  0.1141
  715MOL0     C96416   5.586   1.937   8.407  0.4855  0.3451  0.5933
  715MOL0     C96417   5.450   1.942   8.391  0.1905 -0.8297 -0.0450
  715MOL0     C96418   5.399   1.883   8.267  0.0176 -0.5700 -0.2668
  715MOL0     C96419   5.364   1.957   8.509 -0.4095  0.4627 -0.2115
  715MOL0     C96420   5.210   1.966   8.514 -0.3601 -0.3702 -0.6800
  715MOL0     O96421   5.152   1.996   8.392 -0.7835 -0.3057  1.1327
  715MOL0     C96422   5.016   2.008   8.383 -0.5594  0.7952 -0.9440
  715MOL0     C96423   4.925   1.938   8.470  0.1153  0.2344 -0.0394
  715MOL0     C96424   4.781   1.951   8.454 -0.2047 -0.2216  0.8448
  715MOL0     C96425   4.738   2.047   8.366  0.7109 -0.3211 -0.8768
  715MOL0     O96426   4.602   2.059   8.367 -0.1272 -0.5409 -0.5687
  715MOL0     C96427   4.536   2.107   8.246  1.1552  0.0557  1.1946
  715MOL0     C96428   4.518   2.258   8.268 -0.0504 -0.4892 -0.2732
  715MOL0     C96429   4.412   2.324   8.175 -0.8857  0.2756 -0.4398
  715MOL0     C96430   4.361   2.467   8.221  0.4543 -0.7130  0.0292
  715MOL0     C96431   4.275   2.460   8.353 -0.3180  0.3702  0.9595
  715MOL0     C96432   4.240   2.588   8.416 -0.2254 -0.6329 -0.2604
  715MOL0     C96433   4.151   2.576   8.541  0.0342 -0.3401 -0.2402
  715MOL0     C96434   4.003   2.558   8.515 -0.0997  0.0285 -0.5440
  715MOL0    Cl96435   3.908   2.507   8.660  0.5732  0.2142  0.0260
  715MOL0     C96436   4.823   2.106   8.274 -0.7321 -1.1893 -0.5120
  715MOL0     C96437   4.962   2.087   8.281 -0.4200  0.5481  0.8891
  715MOL0     O96438   5.152   1.944   8.620  0.4623 -0.0327  0.1144
  715MOL0     C96439   5.435   1.958   8.636 -0.3576 -0.3115  0.5243
  715MOL0     C96440   5.575   1.966   8.649 -0.5475 -0.3024  0.6814
  715MOL0     N96441   6.285   1.740   8.703 -0.9438  0.2406 -0.5930
  715MOL0     N96442   6.358   1.655   8.772 -0.7697 -0.1900  0.2660
  715MOL0     C96443   7.291   1.102   8.261 -0.4692 -0.3543  0.2677
  715MOL0     C96444   7.412   1.054   8.218  0.1216  0.3479 -0.3216
  715MOL0     C96445   7.763   1.033   7.933  0.5699 -0.3700  0.3179
  715MOL0     C96446   7.828   0.938   8.020 -0.5118 -0.8862  0.6320
  715MOL0     C96447   7.963   0.902   7.986 -0.2880 -0.3263 -0.9210
  715MOL0     C96448   8.035   0.974   7.895  0.8317 -0.0548 -0.6769
  715MOL0     O96449   8.160   0.930   7.885 -0.7711 -0.3348 -0.1021
  715MOL0     C96450   8.263   1.007   7.826  0.4934 -0.6222  0.3315
  715MOL0     C96451   8.308   1.117   7.917 -0.5760 -0.7896  0.3030
  715MOL0     C96452   8.413   1.063   8.029  0.4834 -0.7743 -0.3641
  715MOL0     C96453   8.489   1.173   8.096 -0.2556 -0.1659 -0.7408
  715MOL0     C96454   8.607   1.128   8.174 -0.2963  0.3291 -0.8946
  715MOL0     C96455   8.722   1.098   8.221 -0.6134 -0.4684 -0.0587
  715MOL0     C96456   7.968   1.070   7.814  0.0398  0.3932  0.4599
  715MOL0     C96457   7.834   1.102   7.832  0.5127  0.4914 -0.6076
  715MOL0     H96458   7.327   0.930   7.916 -0.6650 -3.3832  1.7217
  715MOL0     H96459   7.103   1.005   8.000  0.7771  1.0246 -2.6957
  715MOL0     H96460   6.913   0.987   8.152  1.4209  2.7370 -0.9599
  715MOL0     H96461   6.994   0.914   8.291 -0.1777 -0.1945  0.8584
  715MOL0     H96462   6.761   1.001   8.366 -0.6828 -0.7723 -3.3221
  715MOL0     H96463   6.898   1.069   8.443 -0.6324 -2.0654  1.0588
  715MOL0     H96464   6.867   1.275   8.290  1.0377 -2.0654  1.3138
  715MOL0     H96465   6.773   1.176   8.177 -0.0745 -3.5722  0.4921
  715MOL0     H96466   6.641   1.329   8.293 -0.5836  0.7540 -0.4687
  715MOL0     H96467   6.588   1.167   8.360  0.3921  1.1620  1.1468
  715MOL0     H96468   6.736   1.222   8.568 -0.9830 -1.0969 -0.7169
  715MOL0     H96469   6.768   1.374   8.483 -1.1290  2.1235  2.4261
  715MOL0     H96470   6.534   1.434   8.495  2.1139  3.5655  1.7282
  715MOL0     H96471   6.475   1.282   8.546 -0.5122  1.3776 -1.0421
  715MOL0     H96472   6.639   1.326   8.763  0.0885 -1.9901 -1.3098
  715MOL0     H96473   6.632   1.493   8.705 -2.2520  1.3083 -0.0788
  715MOL0     H96474   6.450   1.447   8.871  0.1599  1.5538  0.2839
  715MOL0     H96475   6.383   1.331   8.762 -0.5323  0.5613 -2.9970
  715MOL0     H96476   6.269   1.470   8.515  0.7939  0.0764  0.3820
  715MOL0     H96477   6.195   1.811   8.443 -1.0935  0.4988  2.4560
  715MOL0     H96478   6.138   1.649   8.399 -0.4172  1.1798 -2.0137
  715MOL0     H96479   5.999   1.631   8.591 -1.3090  1.9150  1.5939
  715MOL0     H96480   5.927   1.730   8.465 -2.8455  1.3401  1.3909
  715MOL0     H96481   6.040   1.935   8.608 -2.7447  2.0288  1.4396
  715MOL0     H96482   6.027   1.820   8.738 -2.0703 -3.0768  0.9948
  715MOL0     H96483   5.845   1.974   8.738  2.0642  0.6105  0.9159
  715MOL0     H96484   5.789   1.807   8.686  0.7839 -0.1193  0.9878
  715MOL0     H96485   5.649   1.913   8.322  0.2674  3.3279 -0.5447
  715MOL0     H96486   5.443   1.784   8.252 -2.6372 -1.7324 -0.9009
  715MOL0     H96487   5.291   1.878   8.256 -0.1045  1.8450 -0.8508
  715MOL0     H96488   5.419   1.959   8.190 -1.7613 -0.2672 -0.4656
  715MOL0     H96489   4.949   1.875   8.555 -1.9520  1.3616  1.4993
  715MOL0     H96490   4.714   1.891   8.515 -2.1864 -0.4331 -1.3924
  715MOL0     H96491   4.592   2.082   8.156  2.4121  3.1219  0.9796
  715MOL0     H96492   4.433   2.071   8.238  1.8496 -2.7123  3.1942
  715MOL0     H96493   4.480   2.280   8.369 -0.9350 -0.3141 -0.6355
  715MOL0     H96494   4.617   2.302   8.254 -1.2778  2.0699 -1.6940
  715MOL0     H96495   4.330   2.252   8.171 -0.2770 -0.4770  0.2558
  715MOL0     H96496   4.454   2.330   8.074  2.0581  0.8847  0.7082
  715MOL0     H96497   4.445   2.536   8.230 -1.0311  1.2354 -0.4511
  715MOL0     H96498   4.301   2.510   8.140 -0.4664 -0.6883  0.7217
  715MOL0     H96499   4.323   2.400   8.431  2.3233  0.4380 -0.4922
  715MOL0     H96500   4.183   2.406   8.329  0.2661 -0.1668 -0.1501
  715MOL0     H96501   4.336   2.632   8.445  0.3894 -1.2805 -1.2595
  715MOL0     H96502   4.192   2.650   8.339 -0.9694 -0.2875  0.4648
  715MOL0     H96503   4.159   2.661   8.610 -0.4794 -1.6979  1.5782
  715MOL0     H96504   4.170   2.487   8.601  1.0152 -2.2985 -3.2294
  715MOL0     H96505   3.989   2.477   8.443  0.3686  2.2864 -3.3636
  715MOL0     H96506   3.956   2.650   8.480 -0.5003  0.1170  0.1878
  715MOL0     H96507   4.767   2.151   8.193 -0.7273 -2.7841 -1.4532
  715MOL0     H96508   5.028   2.143   8.217  1.2720 -0.2227  1.8909
  715MOL0     H96509   5.390   1.981   8.732 -1.2942 -3.5205  0.9620
  715MOL0     H96510   5.614   2.004   8.743 -0.6709  1.4088  0.0742
  715MOL0     H96511   7.299   1.169   8.346  2.9207  2.7957 -2.1723
  715MOL0     H96512   7.493   1.072   8.288  0.5196 -0.4814 -0.5552
  715MOL0     H96513   7.777   0.893   8.105 -1.9332 -0.7350 -0.1141
  715MOL0     H96514   8.020   0.822   8.032 -2.4938 -2.8103 -2.2327
  715MOL0     H96515   8.350   0.943   7.809  2.2060  1.0163  2.2864
  715MOL0     H96516   8.240   1.047   7.727  2.5712  1.4805  0.5951
  715MOL0     H96517   8.224   1.161   7.972 -1.6559  0.3328 -2.1150
  715MOL0     H96518   8.365   1.187   7.855  3.9379 -2.2593  2.3864
  715MOL0     H96519   8.481   0.993   7.981  1.8807  1.7677 -2.3411
  715MOL0     H96520   8.357   1.023   8.115 -2.3961  2.4737 -0.5000
  715MOL0     H96521   8.418   1.202   8.175  1.3722  0.4848  0.5569
  715MOL0     H96522   8.519   1.255   8.030  3.9967 -0.3357  0.7094
  715MOL0     H96523   8.820   1.071   8.255 -1.1486 -0.8220  1.2764
  715MOL0     H96524   8.013   1.135   7.740  1.2253 -2.5918 -1.6132
  715MOL0     H96525   7.784   1.173   7.766 -0.2157  0.3669 -0.2080
  716MOL0     O96526  11.331   8.158   2.456  0.1946 -0.2751 -0.2688
  716MOL0     C96527  11.319   8.166   2.574 -0.2036  0.0544 -0.2977
  716MOL0     O96528  11.422   8.178   2.660  0.4962  0.4008  0.3940
  716MOL0     C96529  11.543   8.160   2.615 -0.2944 -0.3370  0.3126
  716MOL0     C96530  11.592   8.031   2.593  0.0034 -0.0449 -0.1315
  716MOL0     C96531  11.719   8.011   2.540  0.5967  0.5578 -0.3154
  716MOL0     C96532  11.800   8.121   2.514  0.3824 -0.3212 -1.0312
  716MOL0     O96533  11.925   8.117   2.457  0.5112 -0.4559 -0.2018
  716MOL0     C96534  11.911   8.083   2.322 -0.8127  0.7324 -0.4950
  716MOL0     C96535  12.040   8.135   2.242 -0.1688 -0.2756  0.5567
  716MOL0     C96536  12.172   8.126   2.316 -0.1111  1.0417  0.8233
  716MOL0     C96537  12.287   8.131   2.225 -0.6511 -0.1382  0.7467
  716MOL0     C96538  12.419   8.079   2.282 -0.0599  0.1491  0.1929
  716MOL0     C96539  12.541   8.133   2.208 -0.3680 -1.2432 -0.3658
  716MOL0     C96540  12.666   8.124   2.300 -0.3216  0.2012  0.7047
  716MOL0     C96541  12.797   8.132   2.224 -0.3672  0.0832  0.5686
  716MOL0     N96542  12.917   8.157   2.297 -0.4071  0.2885 -0.6576
  716MOL0     C96543  12.977   8.069   2.377  0.1953  0.2548 -0.2137
  716MOL0     C96544  13.095   8.119   2.414 -0.6131 -0.0081  0.0186
  716MOL0     C96545  13.190   8.037   2.500 -0.5233 -0.9097 -0.0696
  716MOL0     C96546  13.212   7.886   2.464  0.4842 -0.1552  0.7282
  716MOL0     C96547  13.290   7.856   2.329  0.5036  1.2677 -0.1876
  716MOL0     C96548  13.435   7.889   2.327 -0.4814  0.1583 -0.1710
  716MOL0     O96549  13.516   7.804   2.409 -0.3917 -0.2171  0.0902
  716MOL0     C96550  13.646   7.811   2.376 -0.1747 -0.3603 -0.5337
  716MOL0     C96551  13.718   7.700   2.429  0.2086  0.1971 -0.8610
  716MOL0     C96552  13.850   7.672   2.398  0.8718 -0.4641  0.1969
  716MOL0     C96553  13.923   7.554   2.462 -0.3602  0.4706  0.0577
  716MOL0     C96554  13.917   7.757   2.307 -0.8050 -1.2582 -0.2846
  716MOL0     C96555  14.065   7.759   2.262  0.0855  0.6712 -0.0309
  716MOL0     O96556  14.106   7.848   2.173  0.6948  0.0391  0.2524
  716MOL0     C96557  14.235   7.858   2.139 -1.1291  0.0982 -0.4770
  716MOL0     C96558  14.311   7.740   2.097  0.2653  0.4367 -0.0921
  716MOL0     C96559  14.450   7.750   2.066  0.1395  0.1348  0.0010
  716MOL0     C96560  14.514   7.876   2.066  0.5049 -0.5322  0.9696
  716MOL0     O96561  14.647   7.890   2.039 -0.1713  0.4452  0.0087
  716MOL0     C96562  14.697   8.020   2.004  0.2580  0.1278  0.6922
  716MOL0     C96563  14.843   7.999   1.946  0.4085  0.6459  0.1326
  716MOL0     C96564  14.946   7.959   2.055 -0.6732 -0.1888 -0.1646
  716MOL0     C96565  15.080   8.008   2.004 -0.4742 -0.6659  0.2817
  716MOL0     C96566  15.183   8.025   2.114 -0.4574  0.2365  0.1031
  716MOL0     C96567  15.190   7.917   2.222 -0.4889  0.4458 -0.6381
  716MOL0     C96568  15.310   7.941   2.312  0.1796 -0.0080  0.4639
  716MOL0     C96569  15.324   7.851   2.431 -0.3043 -0.6167  0.5067
  716MOL0    Cl96570  15.488   7.841   2.500 -0.5610 -0.4320  0.1224
  716MOL0     C96571  14.442   7.989   2.102  0.8839  0.3868  0.8143
  716MOL0     C96572  14.305   7.983   2.132  0.0065 -0.5793  0.0668
  716MOL0     O96573  14.137   7.687   2.328 -0.0790  0.7340 -0.3393
  716MOL0     C96574  13.840   7.869   2.261 -0.4270  0.0082 -0.0261
  716MOL0     C96575  13.713   7.900   2.299 -0.3124  0.4381  0.6765
  716MOL0     N96576  13.109   8.245   2.352  0.2136  0.8958 -0.5812
  716MOL0     N96577  12.997   8.264   2.287  0.2589  0.0619  0.1198
  716MOL0     C96578  11.752   8.245   2.539  0.1299  0.3271  0.0882
  716MOL0     C96579  11.624   8.266   2.585  0.1022  0.0931 -0.9502
  716MOL0     C96580  11.180   8.156   2.631  0.5340  0.0031  0.0672
  716MOL0     C96581  11.066   8.143   2.544 -0.7379 -0.1235  0.0942
  716MOL0     C96582  10.947   8.115   2.599 -0.8587 -0.5183 -0.6302
  716MOL0     C96583  10.928   8.104   2.735  0.3046 -1.0435  0.4612
  716MOL0     O96584  10.797   8.076   2.762  0.0579  0.4573 -0.3951
  716MOL0     C96585  10.759   8.062   2.900  0.7010 -0.3533 -0.2094
  716MOL0     C96586  10.612   8.056   2.892 -0.5889 -0.2212 -0.2546
  716MOL0     C96587  10.563   7.984   3.024  0.5957 -0.1764 -0.3352
  716MOL0     C96588  10.408   7.999   3.040  0.0726 -0.8122  0.0444
  716MOL0     C96589  10.341   7.883   2.983  0.1461  0.2653  0.4314
  716MOL0     C96590  10.276   7.788   2.937  0.4525 -0.4835 -0.5962
  716MOL0     C96591  11.037   8.129   2.823 -0.2781  0.3245  0.0894
  716MOL0     C96592  11.162   8.150   2.769 -0.5139  0.0933  1.3790
  716MOL0     H96593  11.514   7.961   2.622 -1.0853  0.9930 -0.4987
  716MOL0     H96594  11.752   7.908   2.531  1.1696  0.9205 -3.6870
  716MOL0     H96595  11.920   7.974   2.318  0.5688  0.8062  0.0491
  716MOL0     H96596  11.820   8.114   2.270  0.6129  0.6164 -3.2346
  716MOL0     H96597  12.041   8.084   2.145 -2.8893 -0.6491  0.6367
  716MOL0     H96598  12.020   8.242   2.239 -0.9261 -0.4210 -0.1480
  716MOL0     H96599  12.175   8.204   2.392  1.2664 -0.8747  2.8635
  716MOL0     H96600  12.172   8.030   2.368  2.5384 -0.3871 -1.5325
  716MOL0     H96601  12.262   8.061   2.145 -0.5675  2.4327 -1.6876
  716MOL0     H96602  12.298   8.228   2.175 -3.1717  0.1225  0.5674
  716MOL0     H96603  12.432   8.130   2.379 -1.3713 -0.4050  0.6767
  716MOL0     H96604  12.415   7.970   2.296  0.3045  0.2193  0.9321
  716MOL0     H96605  12.550   8.083   2.111 -2.7934 -1.1422 -0.7137
  716MOL0     H96606  12.529   8.239   2.183 -0.0056 -0.2124  3.2121
  716MOL0     H96607  12.656   8.203   2.375  0.1491 -0.3701  1.3829
  716MOL0     H96608  12.656   8.029   2.352  1.4101 -0.7742 -0.6380
  716MOL0     H96609  12.794   8.204   2.142  2.6514  0.0514  0.3106
  716MOL0     H96610  12.812   8.032   2.181 -0.6354 -0.6182  2.0306
  716MOL0     H96611  12.934   7.973   2.403  0.2225  0.3179  0.0617
  716MOL0     H96612  13.284   8.090   2.519  1.7551 -2.6742 -4.7211
  716MOL0     H96613  13.147   8.039   2.600  2.8718 -0.2412  1.5239
  716MOL0     H96614  13.114   7.841   2.446  1.2624 -1.7424  0.2275
  716MOL0     H96615  13.267   7.842   2.547  0.5379  2.4977  2.2125
  716MOL0     H96616  13.244   7.909   2.246  2.9774 -1.2631 -3.4316
  716MOL0     H96617  13.286   7.754   2.290  2.2265  0.0628  2.4984
  716MOL0     H96618  13.445   7.995   2.349  1.0132 -0.0571  0.2684
  716MOL0     H96619  13.462   7.875   2.223 -0.8471 -1.6450 -0.0679
  716MOL0     H96620  13.662   7.635   2.494  1.4412 -0.2345 -0.1878
  716MOL0     H96621  13.930   7.466   2.397 -3.2043  0.2793 -0.1192
  716MOL0     H96622  14.016   7.581   2.512 -1.0279  0.6628  1.2380
  716MOL0     H96623  13.863   7.519   2.547  2.8905 -1.1982  1.8492
  716MOL0     H96624  14.265   7.641   2.100  0.7201  0.2094 -0.4352
  716MOL0     H96625  14.498   7.655   2.044  1.5866  1.1581 -1.5600
  716MOL0     H96626  14.636   8.065   1.926 -1.3075  0.5805  2.1084
  716MOL0     H96627  14.706   8.088   2.090 -0.1094 -1.5356  2.1224
  716MOL0     H96628  14.846   7.925   1.865  1.9670  3.0114 -2.1498
  716MOL0     H96629  14.869   8.093   1.896  0.3646 -0.2114 -1.5757
  716MOL0     H96630  14.945   7.850   2.068  0.2127 -0.1381  0.3559
  716MOL0     H96631  14.921   8.016   2.145  1.5007 -0.0684  0.4134
  716MOL0     H96632  15.112   7.938   1.927 -0.6780  0.3673 -0.7637
  716MOL0     H96633  15.078   8.103   1.950 -0.1453 -0.9142 -0.1691
  716MOL0     H96634  15.179   8.125   2.158  2.4626  0.0827  0.9609
  716MOL0     H96635  15.278   8.022   2.061 -0.9131 -0.0271 -0.7048
  716MOL0     H96636  15.095   7.904   2.273 -0.0938 -1.3016 -0.2985
  716MOL0     H96637  15.216   7.827   2.166 -0.3742  0.2644 -0.2984
  716MOL0     H96638  15.307   8.043   2.353 -1.7942 -1.0175  3.1084
  716MOL0     H96639  15.406   7.924   2.263  0.3907  0.5081  0.6884
  716MOL0     H96640  15.302   7.756   2.381  0.6850  0.2385 -1.6727
  716MOL0     H96641  15.245   7.878   2.501  0.0018  1.1171  0.2311
  716MOL0     H96642  14.493   8.083   2.123  0.9787  0.3761  0.6385
  716MOL0     H96643  14.258   8.078   2.153  2.2491  0.3559  1.1779
  716MOL0     H96644  13.891   7.939   2.196  1.3533  0.0787  1.3913
  716MOL0     H96645  13.673   7.993   2.260 -1.9712  0.2454  1.8386
  716MOL0     H96646  11.809   8.338   2.535 -0.0711  0.4926  0.8503
  716MOL0     H96647  11.584   8.367   2.595 -0.0966  0.0068 -0.8572
  716MOL0     H96648  11.070   8.162   2.437  0.1174  0.3114  0.1912
  716MOL0     H96649  10.856   8.106   2.541 -2.1286 -0.7400  1.3063
  716MOL0     H96650  10.810   7.978   2.948 -0.4435 -1.6750 -1.2265
  716MOL0     H96651  10.779   8.153   2.957 -3.1076  0.4340  0.1482
  716MOL0     H96652  10.571   8.011   2.801 -0.6503 -1.0636  0.1807
  716MOL0     H96653  10.566   8.155   2.899 -3.8739 -1.5943 -0.4988
  716MOL0     H96654  10.614   8.036   3.106  1.4197  1.9043 -2.0445
  716MOL0     H96655  10.583   7.877   3.027  0.0775 -0.3100 -1.3697
  716MOL0     H96656  10.384   8.092   2.988  1.5331 -0.8406 -0.7568
  716MOL0     H96657  10.382   8.011   3.145  3.1475 -1.0653  0.9373
  716MOL0     H96658  10.202   7.728   2.888 -0.9473  0.6144  0.0648
  716MOL0     H96659  11.024   8.121   2.930 -2.6094  1.4777 -0.0612
  716MOL0     H96660  11.244   8.169   2.838  0.1322 -0.9431  0.9300
  717MOL0     O96661   0.798   2.950   4.365 -0.0405  0.0013 -0.4206
  717MOL0     C96662   0.871   2.919   4.454  0.1377  0.7209 -0.5821
  717MOL0     O96663   0.835   2.841   4.566 -0.3660  0.5174 -0.0692
  717MOL0     C96664   0.714   2.778   4.557  0.1590  0.5505  0.1410
  717MOL0     C96665   0.708   2.644   4.523 -0.3237  0.1519 -0.2601
  717MOL0     C96666   0.592   2.576   4.523  0.3778 -0.1398  0.6499
  717MOL0     C96667   0.467   2.642   4.549 -0.6315  0.5771 -0.1490
  717MOL0     O96668   0.345   2.583   4.526 -0.1859  0.5697  0.0445
  717MOL0     C96669   0.329   2.511   4.402 -0.2878 -0.4513  0.4995
  717MOL0     C96670   0.180   2.506   4.374 -0.4550  0.3102 -0.7803
  717MOL0     C96671   0.124   2.358   4.389 -0.4892  0.8740 -0.3574
  717MOL0     C96672   0.154   2.262   4.271  0.5474 -0.2230  1.1274
  717MOL0     C96673   0.136   2.116   4.313 -0.8583 -0.1818  0.0738
  717MOL0     C96674   0.194   2.018   4.205  0.1852 -0.2921  0.1078
  717MOL0     C96675   0.214   1.885   4.272  0.8260  0.5024 -0.4460
  717MOL0     C96676   0.100   1.809   4.347  0.0886  0.5709 -0.5682
  717MOL0     N96677  -0.021   1.799   4.258  0.0434  0.1178 -0.0292
  717MOL0     C96678  -0.036   1.699   4.158  0.1578 -0.6492 -0.4574
  717MOL0     C96679  -0.175   1.706   4.132 -0.2176  0.0522 -0.2549
  717MOL0     C96680  -0.251   1.622   4.028  0.4186  0.5284  0.6783
  717MOL0     C96681  -0.364   1.563   4.101  0.7565  0.2514  0.1117
  717MOL0     C96682  -0.465   1.510   3.994  0.0350  0.3714 -0.3348
  717MOL0     C96683  -0.578   1.441   4.065  0.2266  0.1843  0.2647
  717MOL0     O96684  -0.640   1.359   3.964 -0.0437 -0.9839 -0.4470
  717MOL0     C96685  -0.765   1.328   4.012 -0.0411 -0.5901 -0.2991
  717MOL0     C96686  -0.886   1.408   3.985  0.6929  0.3663  0.1955
  717MOL0     C96687  -1.007   1.395   4.046  0.2591  0.3890  0.3469
  717MOL0     C96688  -1.108   1.500   4.029 -0.1714  0.2717  0.4447
  717MOL0     C96689  -1.014   1.285   4.141  0.8342 -0.9113  0.7133
  717MOL0     C96690  -1.148   1.248   4.201  1.1821 -0.0733  0.8612
  717MOL0     O96691  -1.172   1.293   4.330  0.4423  0.3463  0.6522
  717MOL0     C96692  -1.291   1.279   4.383 -0.1111  0.1645 -0.3188
  717MOL0     C96693  -1.349   1.396   4.431 -0.6535 -0.1248  0.4702
  717MOL0     C96694  -1.481   1.390   4.488  0.8075  0.2963  0.1468
  717MOL0     C96695  -1.554   1.268   4.496 -0.7422  0.2720  0.6060
  717MOL0     O96696  -1.675   1.265   4.557 -0.0868 -1.0202 -0.2741
  717MOL0     C96697  -1.738   1.140   4.568  0.3618  0.4941  0.5184
  717MOL0     C96698  -1.852   1.163   4.656 -0.0029 -0.0783 -1.0324
  717MOL0     C96699  -1.941   1.035   4.657  0.1021  0.2677  0.5259
  717MOL0     C96700  -2.085   1.069   4.627  0.6518 -0.5589  0.0736
  717MOL0     C96701  -2.164   0.941   4.645  1.0569  0.6198  0.3442
  717MOL0     C96702  -2.310   0.943   4.580  0.0235  0.5412 -0.1570
  717MOL0     C96703  -2.384   0.824   4.622  0.2080  0.6690  0.1169
  717MOL0     C96704  -2.530   0.856   4.636 -0.1405  0.9531  0.3049
  717MOL0    Cl96705  -2.608   0.703   4.661 -0.1468  0.3267 -0.2845
  717MOL0     C96706  -1.485   1.155   4.457  0.4767 -0.2150  0.2829
  717MOL0     C96707  -1.360   1.159   4.400 -0.1567  0.1093 -0.5931
  717MOL0     O96708  -1.237   1.193   4.128 -0.1148 -0.5240  0.1207
  717MOL0     C96709  -0.908   1.184   4.151  0.1355 -0.1997 -0.6775
  717MOL0     C96710  -0.788   1.215   4.098 -0.0539 -0.6040 -0.0687
  717MOL0     N96711  -0.230   1.806   4.217 -0.0153  0.3402  0.4301
  717MOL0     N96712  -0.135   1.856   4.297 -0.1604  0.3219  0.1227
  717MOL0     C96713   0.476   2.769   4.602 -0.0372  0.4133  0.0983
  717MOL0     C96714   0.599   2.837   4.599  0.7083 -0.0360 -0.9052
  717MOL0     C96715   1.015   2.950   4.447  0.5217 -0.4225  0.6615
  717MOL0     C96716   1.111   2.885   4.521  0.3979 -0.3634 -0.3605
  717MOL0     C96717   1.240   2.942   4.527  0.6480  0.1401 -0.3638
  717MOL0     C96718   1.282   3.038   4.436  0.5029 -0.2439 -0.2906
  717MOL0     O96719   1.418   3.052   4.439  0.0220  0.1132  0.6016
  717MOL0     C96720   1.482   3.072   4.311 -0.1273  0.5480  0.5316
  717MOL0     C96721   1.516   3.216   4.286  0.2369 -0.3774  0.5374
  717MOL0     C96722   1.619   3.274   4.384  0.4539  0.3639  0.4351
  717MOL0     C96723   1.762   3.209   4.364  0.2006 -0.1622 -0.6323
  717MOL0     C96724   1.853   3.314   4.411 -0.4169  0.6341  0.2106
  717MOL0     C96725   1.928   3.397   4.441 -0.0981  0.1434  0.8453
  717MOL0     C96726   1.192   3.082   4.338 -0.4804  0.9881  0.1292
  717MOL0     C96727   1.054   3.046   4.347 -0.7717  0.2550 -0.5098
  717MOL0     H96728   0.803   2.596   4.503 -0.3564  0.4871 -1.2508
  717MOL0     H96729   0.586   2.472   4.493  2.1959 -0.6873  1.9861
  717MOL0     H96730   0.385   2.550   4.317 -0.4863  0.8096  0.9316
  717MOL0     H96731   0.365   2.411   4.429  0.4892 -0.2622  0.2113
  717MOL0     H96732   0.126   2.560   4.452 -0.2571  1.4307 -1.3979
  717MOL0     H96733   0.161   2.548   4.274  0.5244  0.2985 -0.9801
  717MOL0     H96734   0.170   2.318   4.479  0.6764  1.3644 -0.7221
  717MOL0     H96735   0.016   2.350   4.408 -1.1030 -1.1618 -3.7899
  717MOL0     H96736   0.081   2.286   4.193 -0.0178  0.0500  1.7249
  717MOL0     H96737   0.245   2.290   4.218  0.4413 -0.1998  0.9541
  717MOL0     H96738   0.180   2.106   4.413  0.8934  3.5817 -0.1419
  717MOL0     H96739   0.028   2.106   4.323 -0.6612 -0.5379  2.6460
  717MOL0     H96740   0.134   2.007   4.114  2.0701  2.6120 -1.6930
  717MOL0     H96741   0.294   2.049   4.170 -0.5849 -1.0835 -3.1885
  717MOL0     H96742   0.256   1.811   4.203  2.0771  0.2010  0.5932
  717MOL0     H96743   0.297   1.886   4.344  1.9431 -4.2007 -1.3188
  717MOL0     H96744   0.090   1.873   4.435  4.3677  1.9266 -0.8303
  717MOL0     H96745   0.135   1.713   4.387 -0.4070  1.6936  2.9113
  717MOL0     H96746   0.038   1.631   4.115  0.5800 -0.2949 -0.2999
  717MOL0     H96747  -0.280   1.686   3.944 -0.4177  0.6160  1.0234
  717MOL0     H96748  -0.182   1.542   3.999 -0.5582 -0.9116  2.0984
  717MOL0     H96749  -0.405   1.626   4.180 -3.2604 -1.6248 -0.1958
  717MOL0     H96750  -0.322   1.472   4.144 -2.4304 -2.8090 -2.5789
  717MOL0     H96751  -0.429   1.424   3.936 -2.4542 -1.7099  1.0000
  717MOL0     H96752  -0.492   1.594   3.929 -2.5255  0.3113  0.5505
  717MOL0     H96753  -0.641   1.524   4.097 -0.2903 -0.2947  0.4998
  717MOL0     H96754  -0.545   1.376   4.147 -0.6465 -1.8520 -0.9102
  717MOL0     H96755  -0.870   1.497   3.925  1.4205 -1.0512 -1.8167
  717MOL0     H96756  -1.203   1.465   3.989  1.5211 -1.5029 -2.3728
  717MOL0     H96757  -1.132   1.538   4.129 -1.8448  0.2863  0.0686
  717MOL0     H96758  -1.073   1.580   3.963 -0.3319 -2.1436 -2.7865
  717MOL0     H96759  -1.300   1.490   4.411 -3.1295  1.0077 -0.7240
  717MOL0     H96760  -1.524   1.485   4.521 -0.4205 -0.2626  0.2040
  717MOL0     H96761  -1.774   1.119   4.467  0.7187 -0.5959  0.6069
  717MOL0     H96762  -1.679   1.058   4.610  1.1649  0.5482 -0.4710
  717MOL0     H96763  -1.815   1.165   4.759 -1.4633 -2.5935 -0.3640
  717MOL0     H96764  -1.894   1.262   4.637  1.0765  1.0156  1.6937
  717MOL0     H96765  -1.933   0.983   4.753 -0.9315 -3.0435 -1.0327
  717MOL0     H96766  -1.902   0.968   4.581  0.5911  0.6283  0.4497
  717MOL0     H96767  -2.119   1.144   4.700  2.1286  0.7789 -0.5683
  717MOL0     H96768  -2.116   1.113   4.531 -1.7466  0.3440  1.1615
  717MOL0     H96769  -2.184   0.927   4.751  4.7122  0.1305  1.1151
  717MOL0     H96770  -2.107   0.857   4.604 -1.0122  0.1189 -1.6999
  717MOL0     H96771  -2.361   1.030   4.622 -2.2387 -0.0707 -1.4757
  717MOL0     H96772  -2.302   0.953   4.471 -1.3798  0.7909 -0.2477
  717MOL0     H96773  -2.344   0.782   4.715 -0.7439  0.1937  0.3165
  717MOL0     H96774  -2.373   0.747   4.545 -0.7440  0.2537  0.3896
  717MOL0     H96775  -2.569   0.909   4.549 -0.4046  1.2820  0.6229
  717MOL0     H96776  -2.541   0.922   4.722 -1.6071  1.4702 -0.2607
  717MOL0     H96777  -1.522   1.053   4.461  0.2981 -0.1576  0.1144
  717MOL0     H96778  -1.320   1.073   4.346 -2.7310 -1.9062  0.4743
  717MOL0     H96779  -0.926   1.099   4.216 -0.8855  1.8861  1.9416
  717MOL0     H96780  -0.701   1.152   4.115  2.4173  3.1352  2.8652
  717MOL0     H96781   0.386   2.823   4.629  0.0117 -0.0916  1.2868
  717MOL0     H96782   0.608   2.940   4.630 -2.2563 -0.1061  0.6073
  717MOL0     H96783   1.081   2.803   4.586  0.4765 -0.3440 -0.2992
  717MOL0     H96784   1.312   2.901   4.597  0.1518  0.9663  0.6623
  717MOL0     H96785   1.571   3.009   4.308 -1.3515 -1.2600  0.4212
  717MOL0     H96786   1.424   3.042   4.223  0.8435 -0.1075  0.1039
  717MOL0     H96787   1.419   3.267   4.286  0.0757 -0.5689 -2.0353
  717MOL0     H96788   1.551   3.233   4.184 -1.6329 -1.7256 -0.3871
  717MOL0     H96789   1.596   3.265   4.490  2.6695 -3.9834  0.7855
  717MOL0     H96790   1.624   3.381   4.364 -0.2624  0.5130  1.0515
  717MOL0     H96791   1.792   3.183   4.262  1.1295  1.8853 -0.9163
  717MOL0     H96792   1.757   3.118   4.426  1.3668  0.4066  0.3272
  717MOL0     H96793   2.004   3.470   4.460  0.2539 -1.0901  4.9694
  717MOL0     H96794   1.222   3.158   4.266 -1.0676  0.4245 -0.7338
  717MOL0     H96795   0.978   3.087   4.281  0.4955  0.0829 -2.1510
  718MOL0     O96796   9.058   2.439   3.702  0.0317 -0.1277  0.0548
  718MOL0     C96797   9.144   2.453   3.615 -0.3021  0.0104  0.5352
  718MOL0     O96798   9.132   2.432   3.486  0.3121 -0.8891 -0.6212
  718MOL0     C96799   9.009   2.417   3.418 -0.3647 -0.0265 -0.2764
  718MOL0     C96800   8.991   2.463   3.291  0.4603  0.3120 -0.3144
  718MOL0     C96801   8.878   2.423   3.216  0.5823  0.1451 -0.0522
  718MOL0     C96802   8.776   2.343   3.270 -0.6980 -0.8597  0.5377
  718MOL0     O96803   8.672   2.303   3.187 -0.0498  0.3858 -0.6649
  718MOL0     C96804   8.634   2.170   3.196  0.1416 -0.2046 -0.2226
  718MOL0     C96805   8.528   2.137   3.094  0.5167 -0.5745  0.3803
  718MOL0     C96806   8.393   2.182   3.154 -0.5796 -0.0146  0.1735
  718MOL0     C96807   8.281   2.107   3.080  0.4864 -0.4824 -0.2394
  718MOL0     C96808   8.144   2.123   3.143 -0.7627  0.0636 -0.0010
  718MOL0     C96809   8.027   2.091   3.062  0.0969  0.0199  0.1759
  718MOL0     C96810   8.016   1.945   3.056  0.0832 -0.3290  0.4468
  718MOL0     C96811   7.904   1.896   2.968 -0.2500  0.1451  0.4559
  718MOL0     N96812   7.774   1.928   3.032  0.7261 -0.5810  0.6731
  718MOL0     C96813   7.697   2.043   2.999  0.0901  0.0147 -0.6466
  718MOL0     C96814   7.587   2.029   3.070 -0.0459  0.2226 -0.1340
  718MOL0     C96815   7.466   2.114   3.067  0.3211 -0.3490 -0.6839
  718MOL0     C96816   7.372   2.074   3.180 -0.5657 -0.0067 -0.4193
  718MOL0     C96817   7.256   2.169   3.198 -0.1930  0.1335  0.0218
  718MOL0     C96818   7.184   2.138   3.325 -0.1259 -0.4285  0.4256
  718MOL0     O96819   7.052   2.168   3.310  1.0765  0.5429 -0.2161
  718MOL0     C96820   6.968   2.072   3.261 -0.0071  0.0779  0.1870
  718MOL0     C96821   7.003   1.938   3.208  0.3707 -0.2089  0.2928
  718MOL0     C96822   6.912   1.834   3.193  0.3204  0.2567 -0.9094
  718MOL0     C96823   6.970   1.697   3.156 -0.1483  0.7535  0.1150
  718MOL0     C96824   6.777   1.861   3.216 -0.2888 -0.9172  0.9542
  718MOL0     C96825   6.678   1.766   3.192 -0.6966 -0.6723  1.3005
  718MOL0     O96826   6.672   1.737   3.059 -0.1727  0.4000  0.1994
  718MOL0     C96827   6.581   1.645   3.014 -0.5457 -0.4397  0.7249
  718MOL0     C96828   6.445   1.631   3.040 -0.6365  0.6387 -0.0497
  718MOL0     C96829   6.379   1.522   2.970  0.2786 -0.2734 -0.0661
  718MOL0     C96830   6.443   1.442   2.869 -0.0340 -0.6780  0.7828
  718MOL0     O96831   6.376   1.355   2.781 -0.3350  0.4722 -0.0652
  718MOL0     C96832   6.269   1.278   2.837 -0.2033 -0.1729 -0.2143
  718MOL0     C96833   6.221   1.166   2.759 -0.3010  0.2872  0.3551
  718MOL0     C96834   6.148   1.207   2.635  0.0901 -0.4672  0.2906
  718MOL0     C96835   6.103   1.085   2.552  0.6796  0.3044 -0.1193
  718MOL0     C96836   6.044   1.125   2.421 -0.6982  0.4410 -0.0487
  718MOL0     C96837   5.903   1.195   2.448 -0.0605 -0.5491 -0.0407
  718MOL0     C96838   5.832   1.226   2.319 -0.3462  0.6798  0.5582
  718MOL0     C96839   5.700   1.284   2.338  0.0836  0.5797 -0.9428
  718MOL0    Cl96840   5.586   1.172   2.425  0.5108  0.5080 -0.4503
  718MOL0     C96841   6.571   1.477   2.836 -0.0496  0.4252 -0.4875
  718MOL0     C96842   6.645   1.569   2.909 -0.1320  0.5461 -0.5885
  718MOL0     O96843   6.582   1.751   3.272  0.0567  0.5139 -0.4783
  718MOL0     C96844   6.737   1.990   3.254 -0.1028 -1.0084  0.2883
  718MOL0     C96845   6.832   2.090   3.287  0.2320  0.8404  0.2494
  718MOL0     N96846   7.602   1.911   3.146  0.3916  0.9750 -0.0623
  718MOL0     N96847   7.709   1.845   3.112  0.6853  0.1404  0.2497
  718MOL0     C96848   8.794   2.305   3.406 -0.6913  0.1770  0.1434
  718MOL0     C96849   8.902   2.343   3.479 -0.3854 -0.2508 -0.4599
  718MOL0     C96850   9.282   2.470   3.660 -0.4888  0.0941 -0.3143
  718MOL0     C96851   9.314   2.439   3.789 -0.1134  1.0541 -0.5501
  718MOL0     C96852   9.447   2.449   3.826  0.5235 -0.1605 -0.1511
  718MOL0     C96853   9.552   2.463   3.737 -0.0006 -0.9934  0.5363
  718MOL0     O96854   9.681   2.488   3.776  0.9674  0.1522 -0.9492
  718MOL0     C96855   9.739   2.382   3.857 -0.0192 -0.8561 -0.0007
  718MOL0     C96856   9.767   2.245   3.791  0.4807  0.5083  0.1851
  718MOL0     C96857   9.645   2.176   3.723  0.5207 -0.2115 -0.2143
  718MOL0     C96858   9.666   2.029   3.695  0.1872  0.2046 -0.1788
  718MOL0     C96859   9.790   1.998   3.632  0.0865 -0.0083  0.2928
  718MOL0     C96860   9.894   1.960   3.583 -0.9982 -0.6048  0.5998
  718MOL0     C96861   9.519   2.502   3.605 -0.5371  1.5225 -0.0904
  718MOL0     C96862   9.384   2.509   3.569 -0.2591 -0.6302 -0.0547
  718MOL0     H96863   9.054   2.540   3.248  1.9119  1.0462  2.7892
  718MOL0     H96864   8.871   2.471   3.119  0.8624  1.2834  0.4708
  718MOL0     H96865   8.723   2.107   3.182  0.8224  1.0050 -1.4688
  718MOL0     H96866   8.594   2.144   3.295  0.3436  1.1210  0.2220
  718MOL0     H96867   8.538   2.188   2.998  0.9171 -2.0897 -0.4179
  718MOL0     H96868   8.546   2.029   3.089  0.5685 -0.5681  0.4232
  718MOL0     H96869   8.389   2.159   3.261 -0.8262  1.5187  0.5162
  718MOL0     H96870   8.391   2.291   3.154  1.2505  0.0649 -0.4326
  718MOL0     H96871   8.289   2.147   2.978  3.0299  0.3194  0.1921
  718MOL0     H96872   8.302   1.999   3.077 -2.2454 -1.1080  0.8257
  718MOL0     H96873   8.137   2.073   3.240  2.7290 -1.9316 -0.6332
  718MOL0     H96874   8.133   2.231   3.157 -0.9944 -0.1968  2.1682
  718MOL0     H96875   7.933   2.127   3.105 -0.9819 -1.3893 -0.9294
  718MOL0     H96876   8.044   2.132   2.962 -2.3219 -0.9010 -0.6851
  718MOL0     H96877   8.107   1.903   3.011 -0.0293  2.2440 -2.5198
  718MOL0     H96878   8.005   1.905   3.157 -2.6169  2.6627  1.5243
  718MOL0     H96879   7.922   1.788   2.963 -0.5093  0.1235 -0.1086
  718MOL0     H96880   7.911   1.929   2.864 -1.9779 -0.4039  0.1337
  718MOL0     H96881   7.720   2.121   2.928  1.4513 -0.0401 -0.2923
  718MOL0     H96882   7.491   2.219   3.086 -1.3402  0.3620 -2.1250
  718MOL0     H96883   7.413   2.104   2.971 -3.2823  0.7146  1.0240
  718MOL0     H96884   7.434   2.078   3.271  0.7531  2.1312 -1.3130
  718MOL0     H96885   7.329   1.975   3.171 -0.0571 -0.3752  0.9103
  718MOL0     H96886   7.194   2.173   3.108  0.2381  0.9783 -0.2548
  718MOL0     H96887   7.300   2.269   3.206  1.6832 -0.5066 -1.4181
  718MOL0     H96888   7.232   2.195   3.406 -1.9074  2.9530 -0.7056
  718MOL0     H96889   7.192   2.035   3.360 -1.6670 -0.5230  0.5339
  718MOL0     H96890   7.110   1.924   3.193  0.3692 -0.0584  0.1424
  718MOL0     H96891   6.941   1.623   3.231  0.1885 -1.6731 -2.0016
  718MOL0     H96892   6.937   1.656   3.060 -1.9788 -1.3970  1.5722
  718MOL0     H96893   7.079   1.692   3.167  0.0821 -1.4560 -2.1898
  718MOL0     H96894   6.382   1.693   3.102 -2.2800 -0.5174 -0.4844
  718MOL0     H96895   6.273   1.504   2.987  0.6320 -0.5292  2.1687
  718MOL0     H96896   6.300   1.241   2.936 -2.7635 -0.6661  0.4776
  718MOL0     H96897   6.192   1.353   2.857 -0.7493 -0.6438 -0.5245
  718MOL0     H96898   6.297   1.090   2.738 -1.7595 -1.0765 -0.3065
  718MOL0     H96899   6.147   1.123   2.827 -2.1466 -0.2282 -1.8420
  718MOL0     H96900   6.209   1.273   2.573  1.9334  2.4123  4.6867
  718MOL0     H96901   6.066   1.263   2.681  0.8162 -0.1421  1.2029
  718MOL0     H96902   6.190   1.026   2.522  0.4136 -0.9052  1.3341
  718MOL0     H96903   6.030   1.023   2.605  0.1035 -1.3495 -2.6816
  718MOL0     H96904   6.034   1.041   2.352  1.6727 -1.2878  1.5563
  718MOL0     H96905   6.118   1.182   2.365 -2.2438  1.7348 -0.8507
  718MOL0     H96906   5.841   1.131   2.511 -1.1364  2.5561  2.3025
  718MOL0     H96907   5.918   1.284   2.509  0.7772  0.4344 -1.6097
  718MOL0     H96908   5.809   1.133   2.266 -2.5867  0.1735  2.2539
  718MOL0     H96909   5.896   1.290   2.257 -0.3617  0.3218  0.1721
  718MOL0     H96910   5.657   1.294   2.238  0.4293 -1.7956 -1.3782
  718MOL0     H96911   5.691   1.379   2.391 -1.5582 -1.4600  2.8449
  718MOL0     H96912   6.627   1.435   2.753  2.3648  0.3483  1.0840
  718MOL0     H96913   6.749   1.591   2.887  1.0879 -2.6839  1.2943
  718MOL0     H96914   6.632   2.017   3.253  0.5518  1.9664 -1.6666
  718MOL0     H96915   6.799   2.192   3.305  0.4482  1.4808 -2.5907
  718MOL0     H96916   8.703   2.259   3.444 -1.8471 -0.1968 -2.8294
  718MOL0     H96917   8.919   2.308   3.580  1.7576 -1.5566 -1.2021
  718MOL0     H96918   9.237   2.418   3.862  0.8383 -0.9456 -0.0358
  718MOL0     H96919   9.477   2.449   3.931  1.1777 -1.5599 -0.3041
  718MOL0     H96920   9.823   2.428   3.910 -0.4429  0.4553 -0.4296
  718MOL0     H96921   9.678   2.354   3.943  1.8806  1.9830  2.4588
  718MOL0     H96922   9.811   2.172   3.860  1.1004 -0.5895 -1.3105
  718MOL0     H96923   9.845   2.265   3.717 -1.4622 -2.3486 -2.8877
  718MOL0     H96924   9.609   2.229   3.635 -1.7614  1.2386  1.4732
  718MOL0     H96925   9.569   2.185   3.802  0.7701  2.1058 -0.1620
  718MOL0     H96926   9.598   1.985   3.622  2.0232 -1.9168 -0.7171
  718MOL0     H96927   9.650   1.968   3.785  3.4648  0.4594  0.6958
  718MOL0     H96928   9.982   1.927   3.531 -1.1051  2.2781 -1.6695
  718MOL0     H96929   9.602   2.527   3.541  1.1632 -1.6058  0.7061
  718MOL0     H96930   9.357   2.542   3.469 -0.7174 -2.1822 -0.4669
  719MOL0     O96931  10.552   4.426   0.916 -0.2183  0.6757  0.6949
  719MOL0     C96932  10.627   4.397   1.002  0.8714  0.9421 -1.1142
  719MOL0     O96933  10.584   4.361   1.129 -0.3137  0.7883 -0.4411
  719MOL0     C96934  10.461   4.335   1.158 -0.4921  0.2656 -0.0263
  719MOL0     C96935  10.372   4.438   1.182 -0.2988  0.2476 -0.1292
  719MOL0     C96936  10.240   4.405   1.208 -0.5250 -0.3556 -0.4753
  719MOL0     C96937  10.194   4.279   1.230 -0.1639 -0.0409 -0.5847
  719MOL0     O96938  10.068   4.233   1.269  0.2302  0.7992 -0.2106
  719MOL0     C96939   9.967   4.331   1.283  0.4182  0.7154 -0.4028
  719MOL0     C96940   9.859   4.252   1.354 -0.6589  0.9985  0.3456
  719MOL0     C96941   9.739   4.339   1.390  0.5340  0.0757 -0.4618
  719MOL0     C96942   9.633   4.239   1.452  0.3730  0.5241  0.4790
  719MOL0     C96943   9.498   4.310   1.469  1.0024 -0.5316  0.7217
  719MOL0     C96944   9.386   4.231   1.528  0.6501  0.6904 -1.1980
  719MOL0     C96945   9.258   4.324   1.529 -1.0650  0.2629  0.7824
  719MOL0     C96946   9.265   4.450   1.624 -0.4339  0.8153 -0.8327
  719MOL0     N96947   9.205   4.413   1.751 -0.2931  0.5803 -0.4467
  719MOL0     C96948   9.283   4.383   1.866  0.2445  0.3837 -0.4530
  719MOL0     C96949   9.203   4.399   1.966  0.2882 -0.5879  0.0656
  719MOL0     C96950   9.250   4.393   2.115 -0.3309 -0.6082  0.0243
  719MOL0     C96951   9.168   4.483   2.219 -0.5754  1.5142  0.6183
  719MOL0     C96952   9.180   4.630   2.168  0.1048  0.1122  0.3702
  719MOL0     C96953   9.090   4.720   2.254 -0.4466 -0.5323 -1.1205
  719MOL0     O96954   8.976   4.642   2.317 -0.8472 -0.3897  0.0793
  719MOL0     C96955   8.862   4.621   2.241 -0.8691 -0.0259 -0.7408
  719MOL0     C96956   8.849   4.613   2.100 -0.3937 -0.5013 -0.3770
  719MOL0     C96957   8.737   4.569   2.040 -0.0974  0.2458 -0.0541
  719MOL0     C96958   8.735   4.561   1.891 -0.1923  0.6673  0.0707
  719MOL0     C96959   8.626   4.522   2.118  0.1454 -0.2747  0.1059
  719MOL0     C96960   8.503   4.458   2.068 -0.0146  0.0281  0.6995
  719MOL0     O96961   8.443   4.361   2.144  0.2401  0.0329 -0.3640
  719MOL0     C96962   8.344   4.281   2.087 -0.4091 -0.3426  0.4685
  719MOL0     C96963   8.231   4.261   2.159 -0.3055 -0.8322 -0.2649
  719MOL0     C96964   8.134   4.167   2.115  0.2921 -1.0162 -0.2495
  719MOL0     C96965   8.141   4.107   1.987 -0.1128  0.7672 -0.0706
  719MOL0     O96966   8.040   4.033   1.934 -0.1603 -0.0310  0.3651
  719MOL0     C96967   7.977   3.932   2.017  0.1139 -0.1474  0.1214
  719MOL0     C96968   7.838   3.901   1.945 -0.0176  0.4902 -0.9652
  719MOL0     C96969   7.745   3.796   2.033  0.6286  0.1261 -0.0333
  719MOL0     C96970   7.587   3.787   1.992 -0.4068  0.0479  0.0200
  719MOL0     C96971   7.571   3.764   1.844  0.8999 -0.3553  0.4453
  719MOL0     C96972   7.425   3.770   1.806 -0.3778  0.4956  0.2542
  719MOL0     C96973   7.408   3.749   1.660 -0.1368  0.1906  0.3113
  719MOL0     C96974   7.276   3.750   1.606  0.8130  0.4104  0.1696
  719MOL0    Cl96975   7.188   3.895   1.665  0.2433  0.6286 -0.2628
  719MOL0     C96976   8.249   4.148   1.898 -0.7673  0.0541 -0.0171
  719MOL0     C96977   8.352   4.221   1.956  0.2206 -0.3496 -0.2016
  719MOL0     O96978   8.463   4.498   1.961 -0.5912 -0.4080 -0.1994
  719MOL0     C96979   8.638   4.522   2.259  0.1186 -0.6390  1.0124
  719MOL0     C96980   8.748   4.584   2.315  0.7265  0.2317  0.4515
  719MOL0     N96981   9.079   4.440   1.916  0.4899 -0.7165 -0.5506
  719MOL0     N96982   9.080   4.443   1.791 -0.1995 -0.2299 -0.8162
  719MOL0     C96983  10.299   4.179   1.218  0.3364 -0.2007  0.2858
  719MOL0     C96984  10.421   4.205   1.187 -0.1712 -0.7068  0.7152
  719MOL0     C96985  10.775   4.395   0.989 -1.2051 -0.3505  0.0486
  719MOL0     C96986  10.836   4.483   0.894  0.1720  1.0411 -0.4474
  719MOL0     C96987  10.972   4.473   0.868 -0.1769  0.5752  0.7319
  719MOL0     C96988  11.052   4.370   0.930 -0.0125 -0.5059 -1.1053
  719MOL0     O96989  11.192   4.365   0.901  0.5864  0.3989  0.1308
  719MOL0     C96990  11.279   4.268   0.968  0.2236  0.3281 -0.5073
  719MOL0     C96991  11.423   4.299   0.928 -0.7356 -0.7153 -0.2394
  719MOL0     C96992  11.468   4.446   0.945 -0.5496  1.2275 -0.3329
  719MOL0     C96993  11.608   4.462   0.900  0.2906  0.7116  0.7507
  719MOL0     C96994  11.637   4.607   0.887  0.5531 -0.2389 -0.6573
  719MOL0     C96995  11.646   4.726   0.876 -0.9007 -0.2101 -0.3024
  719MOL0     C96996  10.988   4.281   1.021  0.1366 -0.5116 -0.5979
  719MOL0     C96997  10.850   4.287   1.052 -0.8032 -0.6654 -0.1413
  719MOL0     H96998  10.413   4.538   1.175 -0.2241  0.3706  1.5491
  719MOL0     H96999  10.178   4.493   1.221  0.2311 -0.1911  2.9196
  719MOL0     H97000  10.000   4.422   1.333  2.0245  0.0755 -0.2594
  719MOL0     H97001   9.940   4.368   1.183  3.0396 -0.7787 -1.7779
  719MOL0     H97002   9.823   4.173   1.287  0.2257  1.5191 -0.7688
  719MOL0     H97003   9.897   4.200   1.443 -1.8300  1.6691  1.2687
  719MOL0     H97004   9.768   4.404   1.473  0.0837 -0.1303 -0.1403
  719MOL0     H97005   9.712   4.389   1.296  0.4150 -2.1084 -1.6672
  719MOL0     H97006   9.605   4.162   1.379 -5.1201  1.0049  1.6501
  719MOL0     H97007   9.657   4.204   1.553 -1.7191  0.1389  0.9039
  719MOL0     H97008   9.515   4.398   1.532 -0.6652  0.7978 -0.5727
  719MOL0     H97009   9.472   4.351   1.371  2.3141 -0.8348  0.2275
  719MOL0     H97010   9.371   4.149   1.457 -0.4150 -1.5282  1.4066
  719MOL0     H97011   9.403   4.184   1.626  0.7925 -1.7164 -2.2997
  719MOL0     H97012   9.258   4.365   1.427  1.9393  0.2713  0.7154
  719MOL0     H97013   9.160   4.276   1.529 -0.7222 -0.9724 -4.3873
  719MOL0     H97014   9.216   4.537   1.580 -1.8836 -0.0112 -0.9212
  719MOL0     H97015   9.365   4.487   1.649  0.9424 -3.2383  0.4224
  719MOL0     H97016   9.385   4.345   1.868  0.5515  0.9789 -2.6673
  719MOL0     H97017   9.249   4.291   2.155 -1.3231 -0.5843  0.0845
  719MOL0     H97018   9.356   4.417   2.127 -0.8831  3.0764 -1.2779
  719MOL0     H97019   9.208   4.468   2.320  0.5759 -0.4968 -0.0860
  719MOL0     H97020   9.065   4.447   2.214 -1.0614  2.7766  1.1464
  719MOL0     H97021   9.164   4.656   2.063 -0.8407  0.5611  0.6097
  719MOL0     H97022   9.281   4.665   2.192  0.8683 -1.3750 -0.5400
  719MOL0     H97023   9.056   4.802   2.190  0.2044  0.3081 -0.4075
  719MOL0     H97024   9.140   4.772   2.336 -1.1678  1.1609 -1.7045
  719MOL0     H97025   8.933   4.620   2.032 -0.5004 -1.5694 -0.6358
  719MOL0     H97026   8.817   4.622   1.852  2.2863 -1.1337  2.0476
  719MOL0     H97027   8.760   4.458   1.862 -2.4829 -0.5788  2.0888
  719MOL0     H97028   8.642   4.588   1.842  0.3101 -0.9794 -1.9389
  719MOL0     H97029   8.222   4.295   2.262  1.6959 -0.0242 -0.3257
  719MOL0     H97030   8.059   4.145   2.190 -0.3002  3.3969  0.7815
  719MOL0     H97031   8.036   3.840   2.025  0.8057  0.4053  1.6365
  719MOL0     H97032   7.969   3.964   2.121 -0.2854 -1.6485  0.5722
  719MOL0     H97033   7.787   3.998   1.933  0.7645  0.7804 -2.1608
  719MOL0     H97034   7.858   3.857   1.847  1.5983  1.8467 -1.2940
  719MOL0     H97035   7.755   3.832   2.136 -1.2775  3.5468 -0.8837
  719MOL0     H97036   7.791   3.698   2.020  1.0947 -0.0759  2.6561
  719MOL0     H97037   7.536   3.711   2.051  2.5467  0.2334  3.1336
  719MOL0     H97038   7.536   3.880   2.017 -3.8892 -1.5451 -0.5889
  719MOL0     H97039   7.619   3.676   1.801 -1.2240  0.5627 -4.5528
  719MOL0     H97040   7.620   3.842   1.785 -2.0823  1.5420  0.2429
  719MOL0     H97041   7.368   3.689   1.851  1.6582 -1.2705 -0.1975
  719MOL0     H97042   7.398   3.873   1.830  0.1442  0.6931  0.0055
  719MOL0     H97043   7.454   3.653   1.636  0.2291  0.7914 -1.6379
  719MOL0     H97044   7.445   3.838   1.607 -2.2037  0.8043 -0.1989
  719MOL0     H97045   7.206   3.670   1.633 -0.5751  1.4867 -0.1386
  719MOL0     H97046   7.283   3.744   1.497 -0.0159  1.3946  0.0445
  719MOL0     H97047   8.250   4.103   1.799 -0.7259 -1.7732  0.7649
  719MOL0     H97048   8.449   4.227   1.907 -0.1666  1.4698 -0.8478
  719MOL0     H97049   8.552   4.510   2.325  1.4880  0.6327  3.1605
  719MOL0     H97050   8.746   4.593   2.423  1.0406 -1.7525  0.6713
  719MOL0     H97051  10.279   4.073   1.232 -0.5299  0.1629  2.1522
  719MOL0     H97052  10.491   4.122   1.183  1.7301  0.8120  1.0220
  719MOL0     H97053  10.769   4.552   0.844 -0.6436 -0.9591 -2.2765
  719MOL0     H97054  11.022   4.534   0.793  0.9131  0.5160  1.3963
  719MOL0     H97055  11.279   4.289   1.075  4.9925 -2.4845  0.3275
  719MOL0     H97056  11.238   4.168   0.953  0.7134 -0.4191  2.5049
  719MOL0     H97057  11.431   4.270   0.823 -1.1201  4.5157 -1.9581
  719MOL0     H97058  11.489   4.238   0.991  0.6960 -0.4816 -1.4659
  719MOL0     H97059  11.469   4.486   1.047  2.3537 -0.6766  0.5233
  719MOL0     H97060  11.404   4.501   0.876 -0.5238  1.7045  0.0213
  719MOL0     H97061  11.619   4.409   0.805 -1.2713  1.0489  0.3492
  719MOL0     H97062  11.680   4.419   0.970 -0.2877 -0.9228  0.4068
  719MOL0     H97063  11.664   4.831   0.889  0.2302 -0.6388  1.9778
  719MOL0     H97064  11.037   4.199   1.072  1.4267  1.8671  2.2613
  719MOL0     H97065  10.787   4.221   1.111 -0.7445 -1.6593 -1.1576
  720MOL0     O97066   5.643   0.959   0.094 -0.2030  0.0336  0.2825
  720MOL0     C97067   5.733   0.871   0.099 -0.3259 -0.1882 -0.1871
  720MOL0     O97068   5.727   0.748   0.037  0.2231 -0.2978  0.0514
  720MOL0     C97069   5.627   0.723  -0.051 -0.4948  0.2150 -0.1016
  720MOL0     C97070   5.665   0.725  -0.183 -0.4470  0.4470 -0.1082
  720MOL0     C97071   5.568   0.708  -0.281 -0.4271 -0.2726 -0.7830
  720MOL0     C97072   5.436   0.666  -0.250  0.5897  0.5318  0.1141
  720MOL0     O97073   5.358   0.631  -0.362  0.2142  0.1642  0.0518
  720MOL0     C97074   5.221   0.583  -0.340  0.5035  0.1903 -0.0101
  720MOL0     C97075   5.174   0.529  -0.464  0.0276 -0.2959  1.2291
  720MOL0     C97076   5.022   0.495  -0.468 -0.4450  0.7147 -0.5362
  720MOL0     C97077   4.984   0.449  -0.604 -0.1142  0.4027  1.0110
  720MOL0     C97078   4.838   0.402  -0.597 -0.1021 -0.1773  0.1046
  720MOL0     C97079   4.789   0.372  -0.747  0.4020 -0.0483  0.4081
  720MOL0     C97080   4.788   0.500  -0.847 -0.1032  0.1219  0.6728
  720MOL0     C97081   4.730   0.630  -0.793  0.6195 -0.2101 -0.0229
  720MOL0     N97082   4.583   0.640  -0.799  0.5506 -0.1546  0.7709
  720MOL0     C97083   4.520   0.627  -0.917 -0.1159  0.0807  0.8413
  720MOL0     C97084   4.395   0.582  -0.895  1.1878 -0.6258 -0.8360
  720MOL0     C97085   4.280   0.548  -0.991 -0.2232  0.8491 -0.1066
  720MOL0     C97086   4.308   0.417  -1.065 -1.2850  0.7983  0.5494
  720MOL0     C97087   4.184   0.369  -1.148  0.5229 -0.6337  0.8917
  720MOL0     C97088   4.169   0.442  -1.283 -0.2332  0.3667 -0.2068
  720MOL0     O97089   4.061   0.379  -1.347  0.0265 -0.2952 -0.6704
  720MOL0     C97090   4.001   0.431  -1.458 -0.4158 -0.5285  0.1573
  720MOL0     C97091   4.055   0.537  -1.533  0.0846  0.6216  0.8331
  720MOL0     C97092   3.992   0.590  -1.650  0.3094  0.3388 -0.5402
  720MOL0     C97093   4.063   0.712  -1.718 -0.1538 -0.0760  1.2314
  720MOL0     C97094   3.867   0.535  -1.682  0.4029 -0.8948  0.1564
  720MOL0     C97095   3.784   0.581  -1.798  0.2552 -0.2400  0.0414
  720MOL0     O97096   3.685   0.501  -1.850 -0.7403 -0.3257  0.2619
  720MOL0     C97097   3.633   0.539  -1.974 -0.4247  0.4455 -0.0439
  720MOL0     C97098   3.705   0.587  -2.083  0.0936  0.4017 -0.1810
  720MOL0     C97099   3.643   0.600  -2.206  0.0321  0.1105 -0.2929
  720MOL0     C97100   3.509   0.563  -2.224 -0.0830 -0.4969 -0.0468
  720MOL0     O97101   3.448   0.572  -2.346  0.5895 -0.2173  0.2171
  720MOL0     C97102   3.516   0.616  -2.457 -0.1270  0.1266  0.5429
  720MOL0     C97103   3.420   0.625  -2.582 -0.2407  0.5686 -0.6480
  720MOL0     C97104   3.359   0.494  -2.609  0.6142  0.5052 -0.2826
  720MOL0     C97105   3.285   0.470  -2.742 -0.2710 -0.4386 -0.0259
  720MOL0     C97106   3.137   0.523  -2.734  0.3556 -0.1634  0.6703
  720MOL0     C97107   3.037   0.415  -2.690 -0.1352  0.0061 -0.1015
  720MOL0     C97108   2.893   0.455  -2.717 -0.3706  0.3229 -0.3493
  720MOL0     C97109   2.793   0.340  -2.669  0.6477  0.3210  0.3952
  720MOL0    Cl97110   2.627   0.386  -2.685  0.2764 -0.0047 -0.3384
  720MOL0     C97111   3.432   0.514  -2.115  0.2548  0.5424 -0.0161
  720MOL0     C97112   3.508   0.492  -1.999  0.9929  0.2953 -0.2934
  720MOL0     O97113   3.798   0.701  -1.838 -0.1548 -0.4436  0.2742
  720MOL0     C97114   3.820   0.426  -1.621 -0.4976  0.5983 -0.3442
  720MOL0     C97115   3.881   0.376  -1.503 -0.0828  0.4520 -0.4078
  720MOL0     N97116   4.391   0.558  -0.755  0.7832  0.1097  0.1162
  720MOL0     N97117   4.508   0.594  -0.702  0.4060  0.6578 -0.3806
  720MOL0     C97118   5.397   0.662  -0.116 -0.0888 -0.0013  0.4256
  720MOL0     C97119   5.489   0.700  -0.018  0.1394 -0.1826 -0.0201
  720MOL0     C97120   5.850   0.911   0.176 -0.6815 -0.2730  0.1795
  720MOL0     C97121   5.851   1.031   0.249 -0.5627 -0.2082  0.0407
  720MOL0     C97122   5.968   1.072   0.318  0.5508 -1.1196  0.1230
  720MOL0     C97123   6.089   1.001   0.314 -1.4135 -0.0498 -0.1096
  720MOL0     O97124   6.204   1.038   0.377 -0.4226 -0.7795 -0.7200
  720MOL0     C97125   6.247   0.956   0.481 -0.2399  0.6559 -0.3231
  720MOL0     C97126   6.323   1.049   0.568 -0.4561  0.5246  0.4218
  720MOL0     C97127   6.340   1.010   0.714  0.0799  0.1327  0.0811
  720MOL0     C97128   6.387   0.866   0.718  0.8992  0.0373 -0.0526
  720MOL0     C97129   6.281   0.785   0.781 -0.0319  0.1909  0.4800
  720MOL0     C97130   6.195   0.718   0.832 -0.8255 -0.3632  0.5603
  720MOL0     C97131   6.079   0.875   0.243 -1.2320 -0.8608  0.1438
  720MOL0     C97132   5.964   0.825   0.180  0.0367 -0.5432  0.3560
  720MOL0     H97133   5.773   0.736  -0.191 -0.3047 -0.7550 -0.0272
  720MOL0     H97134   5.597   0.715  -0.386 -0.6533 -2.8695 -1.0791
  720MOL0     H97135   5.218   0.502  -0.266  2.9696  0.8461  0.9212
  720MOL0     H97136   5.164   0.666  -0.298  1.1106  1.1967 -1.1355
  720MOL0     H97137   5.172   0.608  -0.540 -1.4350 -1.0853  0.3899
  720MOL0     H97138   5.230   0.443  -0.502 -0.6653  1.0066 -3.4392
  720MOL0     H97139   4.986   0.419  -0.399  1.5820 -1.0576 -1.3210
  720MOL0     H97140   4.966   0.586  -0.443 -1.9405 -0.5469  0.9352
  720MOL0     H97141   4.998   0.528  -0.679 -2.5753 -1.6822 -1.9097
  720MOL0     H97142   5.036   0.359  -0.640 -2.5391 -0.2477 -1.1904
  720MOL0     H97143   4.839   0.308  -0.541  2.5481 -0.8925 -0.9893
  720MOL0     H97144   4.769   0.476  -0.555 -2.3681 -1.9028 -0.4092
  720MOL0     H97145   4.846   0.290  -0.790  0.6017  1.1803 -1.7813
  720MOL0     H97146   4.688   0.334  -0.726  1.7577 -2.7313  2.7950
  720MOL0     H97147   4.893   0.520  -0.868 -0.0211 -0.3640  0.6022
  720MOL0     H97148   4.734   0.471  -0.938  0.6566  0.9200 -0.0466
  720MOL0     H97149   4.761   0.727  -0.833 -1.2332  1.7402  2.8990
  720MOL0     H97150   4.770   0.650  -0.693 -0.8495 -0.2439  0.5976
  720MOL0     H97151   4.554   0.653  -1.017 -0.5102 -0.0513  0.6729
  720MOL0     H97152   4.188   0.543  -0.932  0.3654  2.4343  1.0147
  720MOL0     H97153   4.271   0.627  -1.066  2.6882  0.2565 -1.1939
  720MOL0     H97154   4.335   0.339  -0.993  0.9988 -0.1023 -1.1540
  720MOL0     H97155   4.391   0.427  -1.136 -1.4838  0.9774  0.3427
  720MOL0     H97156   4.097   0.402  -1.090 -1.1284 -3.4640  0.2030
  720MOL0     H97157   4.181   0.265  -1.181  0.5325  0.0708 -1.4984
  720MOL0     H97158   4.260   0.420  -1.340  0.0248  0.1480  0.2749
  720MOL0     H97159   4.156   0.550  -1.278 -1.8852  0.1500  2.1013
  720MOL0     H97160   4.154   0.568  -1.503  0.9123  1.0706 -2.1004
  720MOL0     H97161   4.171   0.697  -1.719 -0.4307 -2.4909  1.6441
  720MOL0     H97162   4.031   0.731  -1.821  1.4866  3.4283  1.2223
  720MOL0     H97163   4.030   0.795  -1.654 -3.0469  0.0108 -0.2054
  720MOL0     H97164   3.811   0.602  -2.066 -0.0072 -0.8647  1.8653
  720MOL0     H97165   3.715   0.638  -2.278  1.0311  2.2860  1.7369
  720MOL0     H97166   3.564   0.713  -2.442  0.2883 -0.0534  0.3907
  720MOL0     H97167   3.598   0.549  -2.484 -0.0441  1.6368 -3.6069
  720MOL0     H97168   3.337   0.694  -2.570 -0.4413 -0.0482  2.1463
  720MOL0     H97169   3.466   0.671  -2.670 -2.4172  0.1535 -2.0637
  720MOL0     H97170   3.293   0.456  -2.531  0.3727 -0.3085 -0.8774
  720MOL0     H97171   3.440   0.422  -2.614 -1.4775 -2.1048  0.8858
  720MOL0     H97172   3.346   0.522  -2.816 -0.9685 -0.2855 -0.5076
  720MOL0     H97173   3.286   0.363  -2.765 -1.0350 -0.0603 -2.0908
  720MOL0     H97174   3.123   0.557  -2.837  2.8529 -0.4488  0.1689
  720MOL0     H97175   3.125   0.603  -2.661  0.8015  0.7775 -0.2593
  720MOL0     H97176   3.061   0.325  -2.747  3.2199  0.6695  0.0575
  720MOL0     H97177   3.049   0.402  -2.582  1.1450  0.0138 -0.2357
  720MOL0     H97178   2.885   0.472  -2.824 -0.2425 -1.7992 -0.7400
  720MOL0     H97179   2.875   0.544  -2.657 -2.2638 -0.4319  0.3086
  720MOL0     H97180   2.799   0.320  -2.562  0.0248 -3.0727 -0.0599
  720MOL0     H97181   2.810   0.251  -2.731  1.5177  1.2678 -0.7829
  720MOL0     H97182   3.326   0.490  -2.114  0.8426 -2.7146  2.0775
  720MOL0     H97183   3.443   0.460  -1.918 -1.4540  5.5150  0.2584
  720MOL0     H97184   3.728   0.375  -1.648  0.0143 -0.2675 -0.5053
  720MOL0     H97185   3.833   0.297  -1.445  1.0689 -1.2674 -1.7029
  720MOL0     H97186   5.297   0.640  -0.080 -0.4348 -0.9881 -1.0322
  720MOL0     H97187   5.452   0.701   0.084  3.4141 -1.9509  1.3473
  720MOL0     H97188   5.768   1.100   0.241 -1.4307 -1.1231  0.9249
  720MOL0     H97189   5.942   1.158   0.379 -0.8918 -2.2908  1.2597
  720MOL0     H97190   6.164   0.914   0.539  1.0019  0.0516  1.1063
  720MOL0     H97191   6.304   0.870   0.443  1.6231  1.9725 -0.6770
  720MOL0     H97192   6.268   1.144   0.567 -0.6992  0.4277 -1.9873
  720MOL0     H97193   6.418   1.083   0.526 -0.5848  2.2240  1.4130
  720MOL0     H97194   6.241   1.019   0.761 -0.2916  1.2721 -0.8754
  720MOL0     H97195   6.421   1.068   0.759  1.2389 -2.7194  1.9466
  720MOL0     H97196   6.469   0.864   0.790  2.8382 -3.1639 -2.1027
  720MOL0     H97197   6.423   0.819   0.626  0.1405  0.7850 -0.7430
  720MOL0     H97198   6.122   0.664   0.889 -2.9612  1.2255 -0.5366
  720MOL0     H97199   6.165   0.810   0.241 -1.3246 -1.0268  1.1158
  720MOL0     H97200   5.971   0.735   0.120 -0.0267 -0.9760  0.9860
  721MOL0     O97201   2.032   6.817   7.126  0.8941 -0.5750 -0.7087
  721MOL0     C97202   2.078   6.840   7.235  0.2784 -0.7813 -0.5067
  721MOL0     O97203   2.006   6.837   7.356 -0.3768 -0.3004  0.4367
  721MOL0     C97204   1.877   6.784   7.369 -0.6050 -0.1962  0.1881
  721MOL0     C97205   1.795   6.701   7.288 -1.4851  0.0982  0.4374
  721MOL0     C97206   1.677   6.642   7.329 -0.0222 -0.1435 -0.9211
  721MOL0     C97207   1.632   6.666   7.468  0.5094  0.1054  0.1081
  721MOL0     O97208   1.522   6.613   7.524 -0.0529  0.0853  0.1739
  721MOL0     C97209   1.443   6.525   7.451 -0.2317 -0.1516  0.8375
  721MOL0     C97210   1.341   6.458   7.546 -0.4089  0.1132  0.5562
  721MOL0     C97211   1.247   6.357   7.477 -0.0861  0.3810  0.2542
  721MOL0     C97212   1.119   6.349   7.559  0.1270  0.7435  0.8958
  721MOL0     C97213   1.019   6.231   7.518  0.1203 -0.2873 -0.3050
  721MOL0     C97214   0.886   6.252   7.592  0.2418  0.6102  0.9455
  721MOL0     C97215   0.768   6.162   7.541 -0.3624 -0.3956 -0.2076
  721MOL0     C97216   0.806   6.018   7.510 -0.1029  0.3154  0.0280
  721MOL0     N97217   0.694   5.957   7.453  0.0554 -0.0695 -0.1044
  721MOL0     C97218   0.636   5.975   7.329 -1.6332  0.1164  1.1567
  721MOL0     C97219   0.529   5.897   7.337 -0.1326 -0.4586 -0.3213
  721MOL0     C97220   0.416   5.906   7.240 -0.4818 -0.0054 -0.0591
  721MOL0     C97221   0.337   6.032   7.264  1.0325 -0.3019  0.8880
  721MOL0     C97222   0.284   6.052   7.404  0.3489  0.4145 -0.2933
  721MOL0     C97223   0.236   6.188   7.418 -0.0938 -0.1868  0.4688
  721MOL0     O97224   0.132   6.233   7.326 -0.3096  0.1218  0.3855
  721MOL0     C97225   0.007   6.186   7.357 -0.5173  0.7870  0.2384
  721MOL0     C97226  -0.038   6.113   7.475  0.5092  0.0510 -0.4582
  721MOL0     C97227  -0.168   6.062   7.481  0.5685  0.5181 -0.5984
  721MOL0     C97228  -0.208   5.971   7.592  0.4286  0.6013  0.0087
  721MOL0     C97229  -0.251   6.079   7.371  0.2112 -0.4112  0.7892
  721MOL0     C97230  -0.399   6.038   7.363 -0.0665 -0.9666  1.1037
  721MOL0     O97231  -0.469   6.056   7.251 -1.1802 -0.2303 -0.1762
  721MOL0     C97232  -0.603   6.055   7.264 -0.8109  0.2489  1.0188
  721MOL0     C97233  -0.679   6.169   7.289  0.4356  0.0064 -0.3030
  721MOL0     C97234  -0.822   6.160   7.267 -0.4381  0.4646 -1.2483
  721MOL0     C97235  -0.879   6.046   7.207 -0.1708 -0.5412 -0.7962
  721MOL0     O97236  -0.999   6.044   7.147  0.7899 -0.3199  0.2677
  721MOL0     C97237  -1.076   6.161   7.108 -0.2272 -0.2595 -0.4403
  721MOL0     C97238  -1.207   6.119   7.027  0.6393  0.0199  0.2247
  721MOL0     C97239  -1.261   6.231   6.939 -0.6828  0.2026  0.0971
  721MOL0     C97240  -1.361   6.318   7.017  0.1352  0.2027 -0.4852
  721MOL0     C97241  -1.418   6.429   6.935 -0.7573 -0.1081 -0.4567
  721MOL0     C97242  -1.504   6.536   7.019  0.1504 -0.1571 -0.3638
  721MOL0     C97243  -1.505   6.680   6.956 -0.4512 -1.2877 -0.1610
  721MOL0     C97244  -1.634   6.757   6.988  0.0647  0.6514 -0.0174
  721MOL0    Cl97245  -1.781   6.699   6.901  0.2620  0.1903  0.2859
  721MOL0     C97246  -0.793   5.942   7.175  0.6953 -0.1462  0.0926
  721MOL0     C97247  -0.662   5.943   7.203  0.1699  0.9142 -0.1914
  721MOL0     O97248  -0.445   5.990   7.465 -0.4764  0.1989  0.1858
  721MOL0     C97249  -0.207   6.155   7.258  0.7528  0.3696 -0.5773
  721MOL0     C97250  -0.085   6.214   7.257 -0.2535 -0.1929 -0.4206
  721MOL0     N97251   0.526   5.821   7.451 -0.2740 -0.7637  0.1925
  721MOL0     N97252   0.619   5.864   7.524  0.5285 -0.4674  0.1241
  721MOL0     C97253   1.708   6.752   7.546 -0.3119 -0.2269  0.7038
  721MOL0     C97254   1.830   6.804   7.494 -0.3665 -0.9620  0.0542
  721MOL0     C97255   2.218   6.892   7.251  0.4829 -0.5568  0.3033
  721MOL0     C97256   2.299   6.868   7.366 -0.6331  0.4623  0.6287
  721MOL0     C97257   2.426   6.921   7.366 -1.5623  0.1133 -0.7588
  721MOL0     C97258   2.479   7.000   7.263  0.3685 -0.9312 -0.0335
  721MOL0     O97259   2.603   7.064   7.248 -0.2800 -0.2499  0.6668
  721MOL0     C97260   2.711   7.019   7.328 -0.0432 -0.7923 -1.1644
  721MOL0     C97261   2.704   7.089   7.467 -0.4025  0.4250 -0.5964
  721MOL0     C97262   2.829   7.061   7.553  0.6373 -0.3474 -0.3519
  721MOL0     C97263   2.812   6.931   7.635  0.4273 -1.0017  0.4663
  721MOL0     C97264   2.934   6.906   7.712 -0.0547 -0.1029  0.7348
  721MOL0     C97265   3.031   6.864   7.775  0.6557  0.3341  0.1872
  721MOL0     C97266   2.394   7.033   7.159 -0.2341  0.0300 -0.2334
  721MOL0     C97267   2.274   6.968   7.150 -0.3290 -0.4744  0.0115
  721MOL0     H97268   1.841   6.671   7.194  1.3646  1.9583  1.0951
  721MOL0     H97269   1.619   6.576   7.264  0.3718  0.3732 -1.8071
  721MOL0     H97270   1.393   6.586   7.376  0.7618 -1.4622 -0.9592
  721MOL0     H97271   1.497   6.443   7.403 -2.7727 -0.4777 -1.7550
  721MOL0     H97272   1.394   6.396   7.618 -2.6615 -2.4827  0.1690
  721MOL0     H97273   1.279   6.535   7.594 -1.5928  0.0094 -0.7230
  721MOL0     H97274   1.215   6.404   7.384 -0.5605  1.5136  0.9702
  721MOL0     H97275   1.304   6.266   7.454 -2.1921 -0.5378 -1.6423
  721MOL0     H97276   1.141   6.333   7.665  1.4250 -3.4893  0.1723
  721MOL0     H97277   1.073   6.447   7.544  1.2502  1.1063 -0.3665
  721MOL0     H97278   1.013   6.228   7.409 -0.5822 -0.0255 -0.2790
  721MOL0     H97279   1.066   6.136   7.548 -0.1382 -1.1630 -2.5138
  721MOL0     H97280   0.898   6.228   7.698 -0.9059 -2.1305  0.5363
  721MOL0     H97281   0.855   6.357   7.585  2.2987  1.1655 -2.5218
  721MOL0     H97282   0.689   6.170   7.616 -0.0241 -3.0787  0.5276
  721MOL0     H97283   0.727   6.201   7.447 -5.0975 -0.7939  1.4568
  721MOL0     H97284   0.826   5.964   7.603 -0.5754 -3.8387 -2.0449
  721MOL0     H97285   0.901   6.009   7.457  0.2267  0.3487  0.6077
  721MOL0     H97286   0.661   6.050   7.254  0.0475 -1.0893  0.4370
  721MOL0     H97287   0.450   5.902   7.136  0.3203  1.5537  0.1211
  721MOL0     H97288   0.363   5.811   7.257  2.9909 -2.1508 -0.2528
  721MOL0     H97289   0.257   6.034   7.189 -0.1547 -0.9838  2.0994
  721MOL0     H97290   0.395   6.121   7.237 -0.0697  0.9677  2.4828
  721MOL0     H97291   0.356   6.037   7.484 -0.9837 -3.0813  0.4565
  721MOL0     H97292   0.199   5.991   7.438 -2.1367  4.6982  2.0891
  721MOL0     H97293   0.329   6.246   7.410 -1.2516  1.5205 -1.6325
  721MOL0     H97294   0.204   6.213   7.519  0.4807  2.4115  0.0959
  721MOL0     H97295   0.033   6.092   7.555  0.6434  1.2447 -0.2378
  721MOL0     H97296  -0.121   5.942   7.651  0.8942 -0.9591 -1.3949
  721MOL0     H97297  -0.270   6.032   7.659 -0.9013 -1.3743  0.6509
  721MOL0     H97298  -0.259   5.883   7.552 -0.5872  0.8688  0.6660
  721MOL0     H97299  -0.635   6.262   7.324  0.8044  0.5772 -2.1504
  721MOL0     H97300  -0.898   6.237   7.264 -3.0056 -1.8468 -0.2924
  721MOL0     H97301  -1.112   6.221   7.193  3.4895  2.6505 -0.6370
  721MOL0     H97302  -1.016   6.221   7.039 -0.2307  0.3439  0.0626
  721MOL0     H97303  -1.173   6.031   6.971  0.8022  0.5276 -0.4822
  721MOL0     H97304  -1.288   6.073   7.085 -0.2518  0.6851 -0.4530
  721MOL0     H97305  -1.314   6.203   6.847 -0.7441  1.4088 -0.2596
  721MOL0     H97306  -1.175   6.297   6.922 -1.2066  0.7556 -0.4577
  721MOL0     H97307  -1.443   6.256   7.054 -0.9481  0.9968 -1.4952
  721MOL0     H97308  -1.308   6.358   7.104  1.5251  0.2897 -1.3360
  721MOL0     H97309  -1.471   6.398   6.844  1.1944  0.0816 -1.7053
  721MOL0     H97310  -1.320   6.471   6.911  0.4092 -1.2168  1.9782
  721MOL0     H97311  -1.610   6.509   7.026 -1.2693  4.5391 -0.3150
  721MOL0     H97312  -1.454   6.550   7.115  1.1601  0.1181 -0.9236
  721MOL0     H97313  -1.495   6.674   6.847 -2.1507  1.4352 -0.5623
  721MOL0     H97314  -1.418   6.733   6.997 -1.4510  0.2136  0.0763
  721MOL0     H97315  -1.612   6.858   6.952 -0.2510  0.6051 -0.3440
  721MOL0     H97316  -1.656   6.760   7.095  0.1163  0.3291  0.0044
  721MOL0     H97317  -0.839   5.856   7.127  0.0502 -1.3595  2.6478
  721MOL0     H97318  -0.606   5.858   7.167  1.0162  0.4745  1.9630
  721MOL0     H97319  -0.274   6.161   7.173 -0.8512  0.6705  0.6523
  721MOL0     H97320  -0.061   6.267   7.165 -0.3394 -0.2311 -0.4652
  721MOL0     H97321   1.689   6.769   7.651  1.2952  0.4842  0.9132
  721MOL0     H97322   1.895   6.864   7.557  0.7247 -0.8226 -1.1745
  721MOL0     H97323   2.258   6.816   7.452  1.0819 -1.5704  0.2834
  721MOL0     H97324   2.473   6.909   7.463 -0.9443  2.3576 -0.7375
  721MOL0     H97325   2.718   6.912   7.350  0.2753 -0.7423 -1.0283
  721MOL0     H97326   2.806   7.044   7.281  0.8613  3.2559  2.2375
  721MOL0     H97327   2.614   7.077   7.528 -1.2218  1.5284 -1.5309
  721MOL0     H97328   2.693   7.197   7.450 -1.8546  0.7750  2.0470
  721MOL0     H97329   2.846   7.153   7.609 -1.7168  1.6652 -2.6726
  721MOL0     H97330   2.923   7.047   7.498  1.3615  2.2478  0.0854
  721MOL0     H97331   2.791   6.846   7.569 -0.9414  0.1776 -0.6882
  721MOL0     H97332   2.728   6.953   7.702  0.4567  0.6179  0.0198
  721MOL0     H97333   3.109   6.819   7.833  1.9336  0.7573 -1.1425
  721MOL0     H97334   2.421   7.099   7.077  6.5905 -3.6202 -1.6968
  721MOL0     H97335   2.216   6.966   7.059  0.4972  1.0560 -0.5845
  722MOL0     O97336   3.577  10.823   0.389 -0.0349 -0.7026 -0.7228
  722MOL0     C97337   3.617  10.822   0.273 -0.6805  0.0503 -0.0097
  722MOL0     O97338   3.539  10.848   0.166 -0.2064  0.0800  0.5485
  722MOL0     C97339   3.400  10.858   0.175 -0.5310  0.8299  0.0629
  722MOL0     C97340   3.337  10.969   0.238  0.4112  0.2801 -0.1543
  722MOL0     C97341   3.197  10.963   0.230  0.9546 -0.6721  0.1521
  722MOL0     C97342   3.122  10.859   0.169  0.0205 -0.1470  0.7729
  722MOL0     O97343   2.986  10.858   0.159 -0.4590  0.5310  0.2898
  722MOL0     C97344   2.899  10.921   0.255  0.8735  0.0811 -0.5114
  722MOL0     C97345   2.761  10.957   0.189  0.4737  0.0490 -0.1748
  722MOL0     C97346   2.672  10.840   0.143 -1.1923  0.4580 -0.3994
  722MOL0     C97347   2.536  10.896   0.103  0.6909 -1.0238 -0.2207
  722MOL0     C97348   2.446  10.802   0.018  0.7376 -0.4523  0.9747
  722MOL0     C97349   2.326  10.880  -0.035  0.1168  0.6317 -0.4513
  722MOL0     C97350   2.248  10.808  -0.146  0.3212 -0.8537 -0.0826
  722MOL0     C97351   2.138  10.886  -0.224 -1.0645 -1.0289 -0.8296
  722MOL0     N97352   2.048  10.807  -0.296 -0.1900  0.1684 -0.1658
  722MOL0     C97353   2.013  10.819  -0.425  0.5745 -0.0985  0.5181
  722MOL0     C97354   1.906  10.732  -0.440 -1.1764 -1.2828  0.0951
  722MOL0     C97355   1.829  10.711  -0.562  0.3797  0.5243  0.4779
  722MOL0     C97356   1.747  10.585  -0.568  0.6268 -0.7778 -0.8348
  722MOL0     C97357   1.695  10.556  -0.703 -0.5413  0.5148 -0.0394
  722MOL0     C97358   1.622  10.423  -0.711  1.1379  0.2865 -0.1262
  722MOL0     O97359   1.520  10.412  -0.616  0.1874  0.5482  0.3794
  722MOL0     C97360   1.385  10.427  -0.642  0.3544 -0.4586 -0.6002
  722MOL0     C97361   1.318  10.445  -0.761 -0.4481 -0.1745 -0.3319
  722MOL0     C97362   1.178  10.443  -0.776  0.0076  0.2938  0.5363
  722MOL0     C97363   1.115  10.468  -0.914 -0.7928 -0.1632 -1.0616
  722MOL0     C97364   1.097  10.424  -0.668  0.0078 -0.0690 -0.0775
  722MOL0     C97365   0.950  10.409  -0.681 -0.8415  0.9286 -0.8720
  722MOL0     O97366   0.902  10.312  -0.759 -0.3806 -0.3307 -0.1238
  722MOL0     C97367   0.771  10.324  -0.795 -0.4369  0.2669 -0.0475
  722MOL0     C97368   0.662  10.332  -0.704  0.1158 -0.5174  0.6644
  722MOL0     C97369   0.531  10.356  -0.751 -0.0842 -0.0290 -0.0840
  722MOL0     C97370   0.502  10.377  -0.886  0.1247 -0.5621  0.1550
  722MOL0     O97371   0.369  10.395  -0.919 -0.1490  0.2303  0.5250
  722MOL0     C97372   0.320  10.487  -1.021  0.0211 -0.1790  0.5809
  722MOL0     C97373   0.329  10.630  -0.974 -1.1307  0.9282  0.7821
  722MOL0     C97374   0.259  10.658  -0.837  0.4009 -0.2161  0.1545
  722MOL0     C97375   0.108  10.625  -0.840 -0.1090  0.3247  1.0454
  722MOL0     C97376   0.012  10.684  -0.735 -0.0191 -0.0047 -0.3392
  722MOL0     C97377   0.023  10.828  -0.709 -0.0728 -0.1952  0.3361
  722MOL0     C97378  -0.054  10.873  -0.586 -0.5657  0.4767  0.2884
  722MOL0     C97379   0.028  10.833  -0.463  0.6423 -0.6401  0.2030
  722MOL0    Cl97380  -0.077  10.892  -0.343  0.5250 -0.5405  0.0537
  722MOL0     C97381   0.602  10.360  -0.977  0.1956 -0.6028  0.4607
  722MOL0     C97382   0.736  10.337  -0.932  0.6397  0.3005 -0.0724
  722MOL0     O97383   0.887  10.476  -0.601  0.2118  0.5374  0.0281
  722MOL0     C97384   1.158  10.416  -0.543  0.1216 -0.3809  0.6348
  722MOL0     C97385   1.300  10.422  -0.529  0.3459 -0.6641 -0.1821
  722MOL0     N97386   1.885  10.656  -0.332  0.7554  0.2349  0.0952
  722MOL0     N97387   1.972  10.710  -0.248  0.2793 -0.6705 -1.0467
  722MOL0     C97388   3.193  10.751   0.105  0.4833 -0.0385 -1.1302
  722MOL0     C97389   3.326  10.741   0.120 -0.5582  0.6342 -0.1557
  722MOL0     C97390   3.766  10.778   0.253  0.5755 -0.3799 -0.4602
  722MOL0     C97391   3.830  10.797   0.129 -0.5829  0.2239 -0.5534
  722MOL0     C97392   3.964  10.762   0.126  0.0519 -0.3176  0.5103
  722MOL0     C97393   4.037  10.708   0.230  0.9475  0.6943 -0.2414
  722MOL0     O97394   4.170  10.684   0.239 -1.1343  0.4686 -0.0729
  722MOL0     C97395   4.255  10.705   0.121 -0.3493  0.3109  0.0983
  722MOL0     C97396   4.396  10.647   0.124  0.1206 -0.4639  0.3599
  722MOL0     C97397   4.489  10.738   0.204 -0.3464  1.0343 -0.1109
  722MOL0     C97398   4.633  10.692   0.197  0.1358 -0.4501  0.2622
  722MOL0     C97399   4.660  10.567   0.260 -0.6286 -0.1983  0.1829
  722MOL0     C97400   4.690  10.456   0.298  0.1447  0.3052  0.3710
  722MOL0     C97401   3.970  10.696   0.349  0.2111  0.2512 -0.4506
  722MOL0     C97402   3.842  10.742   0.364  0.1990  0.8845  0.4337
  722MOL0     H97403   3.379  11.060   0.280 -3.0591  1.8728  0.2685
  722MOL0     H97404   3.150  11.050   0.275  2.2167 -0.7754  1.7700
  722MOL0     H97405   2.874  10.836   0.319 -2.9410 -0.7896 -2.8110
  722MOL0     H97406   2.938  11.008   0.308 -2.6146  0.8102  1.1721
  722MOL0     H97407   2.696  11.000   0.266 -0.6536 -2.3938  0.3204
  722MOL0     H97408   2.784  11.032   0.112 -0.6955 -0.7250 -1.3291
  722MOL0     H97409   2.719  10.786   0.060 -0.2694 -1.1922  1.1352
  722MOL0     H97410   2.659  10.768   0.223 -2.9524 -0.9042 -1.8196
  722MOL0     H97411   2.482  10.924   0.194 -0.4507 -0.4745 -1.0450
  722MOL0     H97412   2.539  10.987   0.043 -0.1919 -1.2504 -0.6334
  722MOL0     H97413   2.511  10.764  -0.061  3.5913  2.5564  1.6247
  722MOL0     H97414   2.419  10.715   0.078  2.9510 -0.6569  1.7583
  722MOL0     H97415   2.258  10.908   0.046  0.9095 -1.1409  0.8973
  722MOL0     H97416   2.360  10.973  -0.082  0.6616 -0.4416 -2.2939
  722MOL0     H97417   2.326  10.783  -0.219  0.2577  0.3152 -0.5742
  722MOL0     H97418   2.207  10.714  -0.108 -1.6205 -0.0762 -0.1108
  722MOL0     H97419   2.184  10.965  -0.285 -1.7358 -0.1414 -0.2084
  722MOL0     H97420   2.075  10.923  -0.143  1.7673 -2.1239  2.0934
  722MOL0     H97421   2.051  10.885  -0.503  0.9486  0.4918  1.1863
  722MOL0     H97422   1.758  10.792  -0.581  0.2210  0.8897  2.4142
  722MOL0     H97423   1.906  10.706  -0.640 -1.1241 -0.2432 -1.0332
  722MOL0     H97424   1.669  10.584  -0.491  0.1922 -2.9891 -1.2385
  722MOL0     H97425   1.825  10.510  -0.546  1.7473  0.9612  1.6919
  722MOL0     H97426   1.783  10.556  -0.767  0.5109 -1.9534  1.2660
  722MOL0     H97427   1.626  10.638  -0.724  0.6057  1.9261  1.4572
  722MOL0     H97428   1.688  10.339  -0.688 -0.9275 -0.8104  2.1491
  722MOL0     H97429   1.583  10.422  -0.813 -1.7202 -0.5118  0.8824
  722MOL0     H97430   1.381  10.442  -0.850  1.3702  0.2118  0.8765
  722MOL0     H97431   1.180  10.514  -0.988  0.3813  3.3303  1.8153
  722MOL0     H97432   1.075  10.371  -0.945 -0.4085 -1.1717  1.3755
  722MOL0     H97433   1.035  10.541  -0.897 -2.3103 -1.9863  0.0927
  722MOL0     H97434   0.676  10.319  -0.597  1.2045  1.1409  0.7701
  722MOL0     H97435   0.457  10.349  -0.672  0.9247 -1.2400  0.7961
  722MOL0     H97436   0.373  10.491  -1.117 -0.1329  1.1845  0.5445
  722MOL0     H97437   0.222  10.462  -1.064  0.3674  2.8208 -2.3410
  722MOL0     H97438   0.432  10.665  -0.966  0.1839 -2.4434  0.3822
  722MOL0     H97439   0.278  10.680  -1.057 -1.7829 -0.7240  0.1365
  722MOL0     H97440   0.278  10.764  -0.817  2.7436 -0.3225 -1.1293
  722MOL0     H97441   0.305  10.597  -0.759  0.5002  0.0999  0.3410
  722MOL0     H97442   0.072  10.649  -0.941  0.3499 -0.2741  0.7269
  722MOL0     H97443   0.098  10.516  -0.831  0.8744  0.0578 -0.6481
  722MOL0     H97444   0.042  10.635  -0.641  0.8746  1.0330 -0.0655
  722MOL0     H97445  -0.093  10.664  -0.754 -0.4569 -2.0352  3.1745
  722MOL0     H97446   0.131  10.849  -0.707  0.1059 -0.6633 -1.8620
  722MOL0     H97447  -0.029  10.884  -0.786 -1.2634  0.3638  1.5033
  722MOL0     H97448  -0.154  10.829  -0.592 -0.2384 -0.0758 -2.3719
  722MOL0     H97449  -0.057  10.981  -0.602 -1.9103  0.1016 -2.5246
  722MOL0     H97450   0.127  10.878  -0.457  1.1852 -1.9203  1.4342
  722MOL0     H97451   0.039  10.724  -0.461  0.4982 -0.6470  0.9427
  722MOL0     H97452   0.564  10.375  -1.078  0.6773  0.2390  0.3866
  722MOL0     H97453   0.815  10.316  -1.004  0.7632  2.0668 -0.5006
  722MOL0     H97454   1.096  10.400  -0.456  0.4161 -0.8666  0.7637
  722MOL0     H97455   1.342  10.403  -0.431 -1.1581 -0.9188  0.4491
  722MOL0     H97456   3.133  10.673   0.059  0.1563  0.5423 -1.7108
  722MOL0     H97457   3.377  10.652   0.085 -0.7716 -0.3585  1.9080
  722MOL0     H97458   3.772  10.826   0.042  0.1678 -2.1018 -1.9233
  722MOL0     H97459   3.999  10.778   0.024 -2.3498  0.1041 -0.3066
  722MOL0     H97460   4.195  10.662   0.041  0.0053 -0.8264  0.4314
  722MOL0     H97461   4.268  10.812   0.099  1.6714 -0.0191 -0.5305
  722MOL0     H97462   4.431  10.654   0.020 -1.8307  0.9747 -0.2779
  722MOL0     H97463   4.401  10.540   0.146 -2.8216 -0.6932  0.3871
  722MOL0     H97464   4.451  10.737   0.307 -1.1442  1.3807 -0.3959
  722MOL0     H97465   4.466  10.834   0.158  2.3193  0.1425 -3.7345
  722MOL0     H97466   4.699  10.769   0.239  0.6426 -0.0466 -1.2118
  722MOL0     H97467   4.659  10.681   0.091 -2.8930 -0.1371 -0.6084
  722MOL0     H97468   4.703  10.355   0.332 -1.3508 -0.5606 -1.4064
  722MOL0     H97469   4.025  10.662   0.436 -3.1788 -0.9009  1.4042
  722MOL0     H97470   3.797  10.733   0.462  1.8566 -0.5401  1.1267
  723MOL0     O97471   6.333   5.669   8.457  0.3173  0.3371  0.2410
  723MOL0     C97472   6.343   5.587   8.546  0.0119 -0.0174 -0.4109
  723MOL0     O97473   6.234   5.524   8.615 -0.4767  0.0484 -0.1519
  723MOL0     C97474   6.114   5.581   8.576 -0.1553  0.1622  0.4127
  723MOL0     C97475   6.037   5.522   8.479 -0.5358 -0.7944  0.5597
  723MOL0     C97476   5.902   5.546   8.470 -0.2686  0.2532 -0.4251
  723MOL0     C97477   5.840   5.642   8.554 -0.4674  0.9515 -0.3605
  723MOL0     O97478   5.711   5.660   8.522 -0.3899 -0.0642  0.3361
  723MOL0     C97479   5.647   5.759   8.594  0.4929 -0.3464 -0.3492
  723MOL0     C97480   5.514   5.766   8.512 -0.9723  0.1647 -0.2051
  723MOL0     C97481   5.436   5.876   8.577 -0.2195  0.5270 -0.7005
  723MOL0     C97482   5.289   5.847   8.579 -0.3689 -0.3810  0.0645
  723MOL0     C97483   5.214   5.963   8.645  0.4615  0.3434  0.0124
  723MOL0     C97484   5.059   5.939   8.656 -0.7701  0.0805  0.1432
  723MOL0     C97485   4.979   6.044   8.733  0.7501 -0.0763  0.9270
  723MOL0     C97486   4.833   5.995   8.765 -0.0394  0.6322 -0.2937
  723MOL0     N97487   4.736   6.097   8.779 -0.8266 -0.6759 -0.6483
  723MOL0     C97488   4.750   6.209   8.854  0.6591 -0.2417  0.0178
  723MOL0     C97489   4.627   6.263   8.877 -0.1316  0.6132  0.6210
  723MOL0     C97490   4.588   6.394   8.949  0.0053  0.6326  0.1332
  723MOL0     C97491   4.448   6.404   9.017 -0.1326  0.7438  0.6774
  723MOL0     C97492   4.425   6.308   9.138 -0.0491  0.3009 -0.0333
  723MOL0     C97493   4.296   6.345   9.216  0.5923 -0.1564  0.2204
  723MOL0     O97494   4.183   6.368   9.127 -0.6763 -0.7112 -0.0348
  723MOL0     C97495   4.067   6.423   9.174 -0.1118  0.1364 -0.3574
  723MOL0     C97496   3.960   6.393   9.096 -0.5268  0.4170  0.0603
  723MOL0     C97497   3.828   6.432   9.135 -1.2936  0.2178  0.8845
  723MOL0     C97498   3.718   6.405   9.039 -0.3734  0.1883 -0.2072
  723MOL0     C97499   3.811   6.507   9.255 -0.6456  0.6053 -0.0722
  723MOL0     C97500   3.678   6.555   9.303 -0.2655 -0.6477 -0.9612
  723MOL0     O97501   3.657   6.512   9.430 -0.2542 -0.0611  0.0833
  723MOL0     C97502   3.537   6.548   9.494 -0.1728  0.7657  0.1633
  723MOL0     C97503   3.464   6.444   9.550  0.2163 -0.1811  0.7161
  723MOL0     C97504   3.348   6.462   9.608  0.4478 -0.0924 -0.3019
  723MOL0     C97505   3.293   6.591   9.616  0.5190 -0.3490 -0.2341
  723MOL0     O97506   3.173   6.607   9.679  0.3697 -0.7426  0.7664
  723MOL0     C97507   3.075   6.658   9.582  0.7862  0.9227 -0.5716
  723MOL0     C97508   2.945   6.612   9.622  0.5387 -0.1831  0.1688
  723MOL0     C97509   2.839   6.616   9.514  0.1938 -0.1637 -0.3601
  723MOL0     C97510   2.697   6.575   9.561 -0.3894 -0.2583  1.1146
  723MOL0     C97511   2.620   6.532   9.432 -0.4302  0.0042  0.8869
  723MOL0     C97512   2.471   6.517   9.449  0.3043 -0.5216 -0.4994
  723MOL0     C97513   2.431   6.435   9.569  0.4437  0.6607 -0.3090
  723MOL0     C97514   2.463   6.284   9.560 -0.3425 -0.6851 -0.5624
  723MOL0    Cl97515   2.402   6.185   9.693  0.0216  0.0002 -0.2485
  723MOL0     C97516   3.357   6.700   9.560 -0.4686  0.1754 -0.0677
  723MOL0     C97517   3.479   6.674   9.499  0.6085 -1.2078 -0.4025
  723MOL0     O97518   3.601   6.630   9.241 -0.3148  0.8357 -0.0205
  723MOL0     C97519   3.919   6.532   9.336 -0.7816 -0.4363  0.9233
  723MOL0     C97520   4.050   6.484   9.298 -0.2212 -1.5705  0.5794
  723MOL0     N97521   4.541   6.174   8.814  0.3734  0.5229 -0.0275
  723MOL0     N97522   4.605   6.072   8.762 -0.0415 -0.5714  0.8589
  723MOL0     C97523   5.919   5.710   8.638  0.5436  0.6441 -0.3213
  723MOL0     C97524   6.052   5.679   8.652 -0.2999 -0.0768  0.3214
  723MOL0     C97525   6.484   5.565   8.598  0.5911  0.7374  1.2205
  723MOL0     C97526   6.588   5.656   8.580  0.3416 -0.5692 -0.9389
  723MOL0     C97527   6.712   5.646   8.648 -0.2656  0.5870  0.3892
  723MOL0     C97528   6.738   5.530   8.715 -0.2629  0.0608  0.1821
  723MOL0     O97529   6.860   5.501   8.763 -0.5535  0.7837  0.2143
  723MOL0     C97530   6.981   5.582   8.740 -0.8746  1.0423 -1.0394
  723MOL0     C97531   7.093   5.525   8.832  0.7597  0.2346  0.1254
  723MOL0     C97532   7.228   5.583   8.794  0.1861  0.2919 -0.4850
  723MOL0     C97533   7.325   5.586   8.907 -0.0906 -0.6949 -0.1398
  723MOL0     C97534   7.453   5.653   8.858  0.2727 -0.6701  0.3815
  723MOL0     C97535   7.547   5.706   8.802 -0.2302 -0.5749 -0.3144
  723MOL0     C97536   6.638   5.443   8.751 -0.0768 -0.8724 -0.1924
  723MOL0     C97537   6.516   5.459   8.690  0.7920  0.4383  0.5893
  723MOL0     H97538   6.077   5.437   8.424  2.1986 -0.0388  1.2233
  723MOL0     H97539   5.843   5.488   8.400  5.4316 -2.5099 -3.5852
  723MOL0     H97540   5.622   5.737   8.698 -0.5364  0.5960 -0.3795
  723MOL0     H97541   5.706   5.851   8.593  1.1471 -0.7392  0.5445
  723MOL0     H97542   5.543   5.795   8.411  3.0367 -1.4226  0.2912
  723MOL0     H97543   5.456   5.675   8.492  1.8921 -1.4192 -2.0721
  723MOL0     H97544   5.471   5.890   8.679  1.2233  0.1164 -1.1182
  723MOL0     H97545   5.454   5.975   8.534  3.5278  1.1375  1.8315
  723MOL0     H97546   5.253   5.818   8.480  2.3202 -0.1890 -1.0569
  723MOL0     H97547   5.271   5.764   8.649  2.0444  0.4525  1.8123
  723MOL0     H97548   5.264   5.990   8.739  0.2913 -3.1338  1.2433
  723MOL0     H97549   5.226   6.044   8.573 -2.8513 -1.7419 -3.2194
  723MOL0     H97550   5.033   5.940   8.550 -1.7021  3.0057  0.3055
  723MOL0     H97551   5.039   5.842   8.702 -2.0621  1.3596  2.5136
  723MOL0     H97552   5.034   6.054   8.827  0.5199 -4.2897  1.7137
  723MOL0     H97553   4.968   6.142   8.686 -2.2292 -0.1017  1.3650
  723MOL0     H97554   4.835   5.922   8.847  1.6193  1.6676  0.6445
  723MOL0     H97555   4.806   5.937   8.676  2.1159 -0.4549 -0.2925
  723MOL0     H97556   4.848   6.240   8.889  1.6226 -2.6401 -0.3790
  723MOL0     H97557   4.660   6.421   9.027 -0.9953  7.0722 -0.6502
  723MOL0     H97558   4.602   6.474   8.876  1.4867 -0.2997 -0.6553
  723MOL0     H97559   4.373   6.384   8.940 -0.4238  0.6814  0.9782
  723MOL0     H97560   4.435   6.503   9.060  1.1153  1.9421 -1.5216
  723MOL0     H97561   4.505   6.306   9.213 -0.1235  1.6666  0.1190
  723MOL0     H97562   4.406   6.209   9.097 -3.1254  0.4746  0.7875
  723MOL0     H97563   4.322   6.437   9.270 -0.5617 -0.0638  0.6289
  723MOL0     H97564   4.272   6.266   9.287 -1.2352 -1.9839 -2.2680
  723MOL0     H97565   3.982   6.332   9.009  0.3417  0.0293  0.5370
  723MOL0     H97566   3.695   6.498   8.987  2.6749 -0.4412 -2.9628
  723MOL0     H97567   3.760   6.340   8.962  0.3272 -3.1406  2.7463
  723MOL0     H97568   3.632   6.365   9.094  0.8791 -0.5254  1.3155
  723MOL0     H97569   3.507   6.346   9.537  0.7022  0.3056 -2.2268
  723MOL0     H97570   3.296   6.376   9.649  1.0524  0.3852  1.5821
  723MOL0     H97571   3.088   6.767   9.579  2.7570  0.7530 -3.8656
  723MOL0     H97572   3.093   6.642   9.475 -1.8508  1.9957 -1.2442
  723MOL0     H97573   2.950   6.513   9.669  0.2482  0.2291  1.0862
  723MOL0     H97574   2.906   6.674   9.704 -0.3578 -0.0158 -0.3673
  723MOL0     H97575   2.869   6.538   9.444  2.5498  0.0146  0.3650
  723MOL0     H97576   2.843   6.713   9.464  2.9571 -0.2352 -0.4081
  723MOL0     H97577   2.700   6.497   9.638  1.4290 -0.3260  1.0230
  723MOL0     H97578   2.652   6.668   9.597  1.3400  0.9730  0.2691
  723MOL0     H97579   2.648   6.436   9.387 -2.6100  0.7000 -2.2669
  723MOL0     H97580   2.650   6.608   9.359  3.7271 -1.7700  0.4384
  723MOL0     H97581   2.435   6.619   9.465  1.7855  0.0468 -0.5573
  723MOL0     H97582   2.415   6.494   9.358 -3.3638 -0.6872  1.6260
  723MOL0     H97583   2.322   6.444   9.581  0.3394  1.2418 -1.4833
  723MOL0     H97584   2.479   6.474   9.659  2.0244  0.7881 -1.1658
  723MOL0     H97585   2.566   6.253   9.542  0.2947  0.0533  1.5350
  723MOL0     H97586   2.400   6.258   9.474 -0.7040 -2.7224  0.2567
  723MOL0     H97587   3.318   6.800   9.575  0.1317  0.5801 -1.0955
  723MOL0     H97588   3.528   6.758   9.450 -0.0328  0.3208  1.4418
  723MOL0     H97589   3.921   6.596   9.424  0.1418 -2.2568  2.2879
  723MOL0     H97590   4.125   6.516   9.369  2.0190 -1.4615 -1.7147
  723MOL0     H97591   5.878   5.794   8.691 -0.3486  0.4326 -0.6520
  723MOL0     H97592   6.098   5.742   8.727 -1.6851  1.6075 -0.1945
  723MOL0     H97593   6.580   5.743   8.515  1.7513 -0.1856 -0.6283
  723MOL0     H97594   6.789   5.721   8.634  1.4926 -1.2189 -0.1527
  723MOL0     H97595   7.031   5.576   8.643  3.6664 -0.1181  1.1048
  723MOL0     H97596   6.961   5.688   8.760 -3.3811  0.1272  2.2260
  723MOL0     H97597   7.088   5.417   8.819 -5.1457  0.1893  0.1955
  723MOL0     H97598   7.071   5.543   8.938  1.1832 -2.5873  0.7650
  723MOL0     H97599   7.222   5.690   8.771  0.1380  0.3387 -0.2552
  723MOL0     H97600   7.281   5.523   8.720  0.1979  0.1838 -0.3903
  723MOL0     H97601   7.344   5.491   8.956 -2.0857 -1.3182 -0.4700
  723MOL0     H97602   7.290   5.656   8.984  3.3815  1.0739  0.0514
  723MOL0     H97603   7.630   5.763   8.764 -1.1717  0.9226 -0.2277
  723MOL0     H97604   6.676   5.364   8.814  1.2547  1.9281  2.8239
  723MOL0     H97605   6.435   5.388   8.703 -0.6890  1.9910  0.1781
  724MOL0     O97606   1.510   4.759   2.840  0.0193 -0.6651  0.2361
  724MOL0     C97607   1.569   4.740   2.734  0.1491  0.0312 -0.1247
  724MOL0     O97608   1.520   4.666   2.631 -1.1609  0.2591 -0.7368
  724MOL0     C97609   1.401   4.601   2.613  0.4191 -0.0179 -0.1729
  724MOL0     C97610   1.306   4.572   2.717 -0.2075  0.9985 -1.1769
  724MOL0     C97611   1.179   4.525   2.694  0.0487  0.5671 -0.2608
  724MOL0     C97612   1.140   4.513   2.564  0.8921  0.3174  1.0772
  724MOL0     O97613   1.009   4.483   2.525  0.4947  0.5727 -0.5010
  724MOL0     C97614   0.939   4.584   2.454 -1.2000 -0.2304 -0.0192
  724MOL0     C97615   0.792   4.572   2.483 -0.5937  0.2525 -0.5562
  724MOL0     C97616   0.726   4.453   2.404 -0.0927 -0.0092  0.2029
  724MOL0     C97617   0.585   4.428   2.453  0.1859 -0.8872 -0.8879
  724MOL0     C97618   0.518   4.314   2.377 -0.1590 -0.1497  0.6772
  724MOL0     C97619   0.399   4.265   2.455 -0.3362  0.5771 -0.3326
  724MOL0     C97620   0.304   4.172   2.379 -0.2061 -0.5201  0.2755
  724MOL0     C97621   0.199   4.118   2.476  0.4849 -0.2600  0.0596
  724MOL0     N97622   0.123   4.006   2.424  0.1547 -0.1553 -0.4602
  724MOL0     C97623   0.178   3.883   2.401 -0.0304  0.7703  0.2759
  724MOL0     C97624   0.076   3.801   2.364  0.2985  0.0604  0.2422
  724MOL0     C97625   0.085   3.654   2.328  0.9448 -0.0178  0.2989
  724MOL0     C97626  -0.043   3.602   2.267 -0.3362 -0.7416  0.0195
  724MOL0     C97627  -0.138   3.553   2.376  0.0808 -0.9372  1.1448
  724MOL0     C97628  -0.193   3.654   2.473  0.4335 -0.7236 -0.3256
  724MOL0     O97629  -0.285   3.583   2.554 -0.0286  0.1624 -0.1729
  724MOL0     C97630  -0.385   3.657   2.621 -0.7201  0.2867  0.0521
  724MOL0     C97631  -0.381   3.791   2.650  0.3470  0.4755  0.6135
  724MOL0     C97632  -0.469   3.862   2.733  0.0767  0.5569 -0.1011
  724MOL0     C97633  -0.447   4.003   2.761  0.8556 -0.7104 -0.3967
  724MOL0     C97634  -0.566   3.789   2.797 -0.2052  0.6251  0.5078
  724MOL0     C97635  -0.665   3.847   2.887  0.2382 -0.7023  0.3559
  724MOL0     O97636  -0.693   3.778   2.999 -0.1736 -0.2530 -0.0646
  724MOL0     C97637  -0.803   3.787   3.075  0.3290  0.3687 -1.0255
  724MOL0     C97638  -0.901   3.686   3.082  0.1717 -0.1577 -0.1604
  724MOL0     C97639  -1.014   3.702   3.162  0.0819  0.0651 -0.8974
  724MOL0     C97640  -1.037   3.825   3.220  0.3524  0.1505 -0.1044
  724MOL0     O97641  -1.147   3.829   3.304  0.0332 -0.7347 -0.2453
  724MOL0     C97642  -1.196   3.946   3.357  0.9808 -0.6530 -0.5497
  724MOL0     C97643  -1.347   3.924   3.385  0.4615 -0.1276  0.5566
  724MOL0     C97644  -1.430   3.880   3.257 -0.8582  0.6477 -0.6126
  724MOL0     C97645  -1.415   3.996   3.162 -0.2557 -0.2169 -0.0472
  724MOL0     C97646  -1.536   4.000   3.066  0.2262 -0.6229  0.0618
  724MOL0     C97647  -1.657   4.074   3.111  0.4293 -0.1271  0.1351
  724MOL0     C97648  -1.788   4.001   3.098 -0.8211 -0.0090  0.2737
  724MOL0     C97649  -1.887   4.058   3.199 -0.6228 -0.4319  0.0367
  724MOL0    Cl97650  -1.849   4.037   3.376  0.1152  0.1129  0.0352
  724MOL0     C97651  -0.940   3.921   3.221 -0.5764 -0.6905 -0.2113
  724MOL0     C97652  -0.825   3.905   3.149 -0.2683 -0.6593  0.4717
  724MOL0     O97653  -0.736   3.942   2.844  0.2483 -0.2249  0.1534
  724MOL0     C97654  -0.568   3.652   2.779 -0.6573 -0.2484 -0.2213
  724MOL0     C97655  -0.485   3.584   2.686 -0.4893 -0.2594 -0.1010
  724MOL0     N97656  -0.034   3.883   2.352  0.6249 -0.7205  0.2255
  724MOL0     N97657  -0.008   4.008   2.390  0.2390 -0.2415  0.1819
  724MOL0     C97658   1.230   4.532   2.459 -0.1117 -0.3125  0.1342
  724MOL0     C97659   1.359   4.579   2.481 -0.5832  0.5533 -0.2803
  724MOL0     C97660   1.709   4.789   2.718  0.5888 -0.3111 -0.2109
  724MOL0     C97661   1.784   4.769   2.603 -0.1487 -0.6873  0.1497
  724MOL0     C97662   1.920   4.812   2.602 -0.4925  0.9148 -0.3077
  724MOL0     C97663   1.985   4.874   2.715 -0.3377  0.8426 -0.1684
  724MOL0     O97664   2.119   4.896   2.718  1.2175 -0.5214  0.0495
  724MOL0     C97665   2.193   4.781   2.762  0.1355 -0.4402  0.5039
  724MOL0     C97666   2.342   4.804   2.737  0.7343 -0.1694 -0.0494
  724MOL0     C97667   2.378   4.803   2.574 -0.4069  0.8564 -0.0446
  724MOL0     C97668   2.527   4.772   2.532  0.4159 -0.0026 -0.1849
  724MOL0     C97669   2.604   4.890   2.577  0.2017  0.3581  0.1782
  724MOL0     C97670   2.676   4.991   2.595  0.4428  0.1484  0.3010
  724MOL0     C97671   1.903   4.905   2.820 -0.0860  0.1242  0.1344
  724MOL0     C97672   1.773   4.856   2.825  0.6011 -0.4281  0.8362
  724MOL0     H97673   1.336   4.588   2.820 -2.4307  2.0180 -0.6232
  724MOL0     H97674   1.109   4.508   2.775 -1.6970  0.3758 -1.7603
  724MOL0     H97675   0.978   4.684   2.478 -1.5386 -0.1346  0.1353
  724MOL0     H97676   0.947   4.567   2.346 -0.1544  2.0897 -0.3773
  724MOL0     H97677   0.784   4.559   2.592  2.5811 -1.8030 -0.4445
  724MOL0     H97678   0.748   4.668   2.453  3.3050  1.2731 -3.7871
  724MOL0     H97679   0.731   4.477   2.298 -3.0504  0.4640  0.1007
  724MOL0     H97680   0.784   4.365   2.436 -1.9463 -0.6523  2.0485
  724MOL0     H97681   0.587   4.406   2.560 -1.0049  2.0999 -0.1333
  724MOL0     H97682   0.528   4.521   2.444 -1.1490 -1.6938 -1.0452
  724MOL0     H97683   0.494   4.364   2.283  0.7258  0.1630  0.6019
  724MOL0     H97684   0.583   4.231   2.347  0.0014  0.4872 -0.8361
  724MOL0     H97685   0.422   4.214   2.549 -0.2876  1.7708  0.3245
  724MOL0     H97686   0.331   4.348   2.477 -2.5608 -1.3957  0.6865
  724MOL0     H97687   0.260   4.212   2.287  0.3629 -0.9791 -0.2069
  724MOL0     H97688   0.363   4.088   2.341 -0.9267 -0.9403  0.0645
  724MOL0     H97689   0.138   4.205   2.504 -0.6250 -1.3493  1.1068
  724MOL0     H97690   0.246   4.078   2.566  0.0975  0.1529  0.4518
  724MOL0     H97691   0.277   3.839   2.396 -1.0453 -1.8826  1.5627
  724MOL0     H97692   0.170   3.637   2.261 -0.4589 -2.0692 -1.0910
  724MOL0     H97693   0.104   3.601   2.422  0.2661 -0.3540  0.2491
  724MOL0     H97694  -0.011   3.521   2.201  1.9345 -0.0469  0.1823
  724MOL0     H97695  -0.082   3.687   2.210  0.2033  1.4453  2.7131
  724MOL0     H97696  -0.086   3.479   2.437  2.5882  0.8627  1.3096
  724MOL0     H97697  -0.220   3.502   2.324  0.1019  0.7946 -0.7121
  724MOL0     H97698  -0.238   3.743   2.427 -0.7067 -1.3799 -0.5185
  724MOL0     H97699  -0.120   3.687   2.547  0.7739 -2.9239  0.3800
  724MOL0     H97700  -0.303   3.848   2.601  1.4028  1.3439  3.1396
  724MOL0     H97701  -0.537   4.060   2.735  1.3178  1.1743  1.7852
  724MOL0     H97702  -0.424   4.029   2.865 -0.8091  0.9131 -0.3625
  724MOL0     H97703  -0.367   4.037   2.695  2.1886 -1.3432  0.8578
  724MOL0     H97704  -0.874   3.593   3.033  0.2554  0.0980 -0.6040
  724MOL0     H97705  -1.075   3.615   3.183 -0.3045  1.3275  5.4623
  724MOL0     H97706  -1.148   3.985   3.448  0.7831  0.5151 -0.9234
  724MOL0     H97707  -1.195   4.029   3.286 -1.2516 -0.6440 -0.6433
  724MOL0     H97708  -1.371   3.850   3.462 -0.3603 -0.6725 -0.1971
  724MOL0     H97709  -1.396   4.019   3.410 -0.0841 -0.3804  0.4817
  724MOL0     H97710  -1.537   3.863   3.273 -1.0946  1.9177 -0.7575
  724MOL0     H97711  -1.385   3.791   3.211 -0.2944  1.2761 -1.2971
  724MOL0     H97712  -1.406   4.088   3.220 -3.8825  1.2764 -1.5482
  724MOL0     H97713  -1.331   3.987   3.093  1.4201  2.7120  1.4396
  724MOL0     H97714  -1.554   3.896   3.040 -0.5580  0.4633 -4.8955
  724MOL0     H97715  -1.502   4.028   2.965 -4.1701 -1.1640 -1.7814
  724MOL0     H97716  -1.646   4.095   3.218 -1.7931  1.9539  0.0521
  724MOL0     H97717  -1.646   4.172   3.065 -0.4895 -0.5175 -0.9727
  724MOL0     H97718  -1.774   3.894   3.115  0.9977  0.2557  0.5955
  724MOL0     H97719  -1.821   4.011   2.994  3.1490 -2.5555 -1.4475
  724MOL0     H97720  -1.986   4.017   3.177 -0.7018  0.1264 -0.6959
  724MOL0     H97721  -1.885   4.167   3.187  3.2039 -0.3721 -0.1362
  724MOL0     H97722  -0.955   4.014   3.276  1.3827 -0.3152 -0.2459
  724MOL0     H97723  -0.746   3.980   3.160 -0.9747  0.4579 -1.4653
  724MOL0     H97724  -0.645   3.591   2.826 -0.9122 -1.0560 -1.6176
  724MOL0     H97725  -0.495   3.478   2.667 -3.5635 -0.2359  0.8117
  724MOL0     H97726   1.187   4.521   2.360 -3.2334 -0.9558  1.4426
  724MOL0     H97727   1.431   4.602   2.403  1.0722  0.3449  1.1263
  724MOL0     H97728   1.734   4.708   2.528 -2.4109  0.3941  0.6897
  724MOL0     H97729   1.991   4.792   2.522 -1.8322  2.3923 -1.9653
  724MOL0     H97730   2.172   4.764   2.868 -1.5399 -1.3640  0.0616
  724MOL0     H97731   2.162   4.685   2.718  0.6242 -0.7042  0.7267
  724MOL0     H97732   2.402   4.726   2.784 -0.8235 -1.1778  0.3355
  724MOL0     H97733   2.366   4.903   2.776  0.0108  0.0335 -0.1050
  724MOL0     H97734   2.343   4.891   2.519  1.0820  0.7175 -1.2863
  724MOL0     H97735   2.322   4.716   2.538 -1.7001  0.9625  1.5992
  724MOL0     H97736   2.526   4.748   2.426  0.0990 -1.3477  0.0958
  724MOL0     H97737   2.565   4.680   2.579  1.2371 -0.8033 -2.3187
  724MOL0     H97738   2.731   5.082   2.611 -1.0808  0.8432  1.9460
  724MOL0     H97739   1.952   4.944   2.909 -0.5279 -2.7721  1.7866
  724MOL0     H97740   1.717   4.862   2.917 -0.3089  0.3444  0.2552
  725MOL0     O97741   5.701  10.658   3.908  0.0784 -0.2418 -0.5611
  725MOL0     C97742   5.807  10.715   3.879  0.8523  0.3425 -0.5232
  725MOL0     O97743   5.819  10.839   3.819  0.7365  0.2615  0.3202
  725MOL0     C97744   5.701  10.914   3.800  0.8975 -1.0456  0.4272
  725MOL0     C97745   5.661  10.998   3.907  0.0899 -0.3553  0.0529
  725MOL0     C97746   5.533  11.067   3.904  0.6752  0.1521  0.4005
  725MOL0     C97747   5.448  11.057   3.794  0.5753  0.1111  0.4387
  725MOL0     O97748   5.325  11.118   3.782 -0.0616 -0.4372  0.3180
  725MOL0     C97749   5.250  11.138   3.902 -0.3332  0.3628  0.1774
  725MOL0     C97750   5.098  11.151   3.882  0.4920  0.6063 -0.2257
  725MOL0     C97751   5.017  11.139   4.017 -0.1808  0.2999 -0.1943
  725MOL0     C97752   4.868  11.138   3.969 -0.0064 -0.7208 -0.5017
  725MOL0     C97753   4.763  11.167   4.085  0.1889 -0.4296  0.4825
  725MOL0     C97754   4.616  11.193   4.028  0.7976 -0.9853 -0.0780
  725MOL0     C97755   4.543  11.072   3.975 -0.3291 -0.7578 -0.5721
  725MOL0     C97756   4.523  10.951   4.069 -0.2255 -0.3786  0.0893
  725MOL0     N97757   4.438  10.976   4.187  0.5650 -0.2270 -0.2800
  725MOL0     C97758   4.481  10.993   4.317  0.1135  0.3317  0.4433
  725MOL0     C97759   4.381  11.018   4.397  0.4180 -0.1364  0.3162
  725MOL0     C97760   4.376  11.045   4.541  0.4829 -0.1037  0.0915
  725MOL0     C97761   4.430  11.183   4.568 -0.6288 -0.0331 -0.4108
  725MOL0     C97762   4.344  11.300   4.494 -0.1320 -0.1024  0.5714
  725MOL0     C97763   4.366  11.437   4.544 -0.1402  0.3266 -0.4055
  725MOL0     O97764   4.500  11.479   4.545  0.5406 -0.3962  0.2559
  725MOL0     C97765   4.558  11.507   4.428 -0.5189 -0.2307  0.0354
  725MOL0     C97766   4.696  11.523   4.437  0.1805 -0.1412  0.0138
  725MOL0     C97767   4.774  11.556   4.327 -0.0747  0.2265 -0.3580
  725MOL0     C97768   4.922  11.593   4.346 -0.2182 -0.6028  0.6224
  725MOL0     C97769   4.714  11.545   4.200  1.0553 -0.3838 -0.1062
  725MOL0     C97770   4.787  11.539   4.066 -0.5932  0.5976 -0.1208
  725MOL0     O97771   4.713  11.562   3.953 -0.1118 -0.6265 -0.0640
  725MOL0     C97772   4.789  11.553   3.842  0.1350  0.5935 -0.1740
  725MOL0     C97773   4.861  11.667   3.803 -0.3908 -0.4122  0.1636
  725MOL0     C97774   4.929  11.675   3.682  0.2567  0.0163  0.1230
  725MOL0     C97775   4.934  11.563   3.599 -0.4618 -0.1756 -0.0379
  725MOL0     O97776   5.021  11.567   3.494 -0.3754  0.7263  0.6673
  725MOL0     C97777   5.116  11.465   3.482  0.3016 -0.3162 -0.7858
  725MOL0     C97778   5.244  11.481   3.573  0.7064  0.1481 -0.2648
  725MOL0     C97779   5.354  11.389   3.529 -0.4710  0.3478 -0.8185
  725MOL0     C97780   5.484  11.406   3.618  0.9015 -0.3621 -0.3525
  725MOL0     C97781   5.617  11.350   3.566  0.1240  0.1464  0.3676
  725MOL0     C97782   5.740  11.401   3.642 -0.5146  0.7641  0.2294
  725MOL0     C97783   5.772  11.545   3.613 -0.4335 -0.4741  0.2135
  725MOL0     C97784   5.886  11.592   3.708  0.8222  0.5402  0.3564
  725MOL0    Cl97785   6.036  11.504   3.666 -0.3748 -0.0150  0.3348
  725MOL0     C97786   4.857  11.447   3.635  0.0861  0.1225  0.8457
  725MOL0     C97787   4.782  11.444   3.751 -0.3012  0.2087 -0.2992
  725MOL0     O97788   4.904  11.492   4.067 -0.1200 -0.5235 -0.2682
  725MOL0     C97789   4.575  11.523   4.187 -0.3837 -0.0197 -0.9469
  725MOL0     C97790   4.496  11.516   4.301  0.1195  0.6772  0.7525
  725MOL0     N97791   4.268  10.999   4.316 -0.3149  0.7325 -0.1529
  725MOL0     N97792   4.301  10.968   4.191  0.7480  0.5872 -0.0625
  725MOL0     C97793   5.494  10.975   3.687 -0.1685  0.3483 -0.4501
  725MOL0     C97794   5.609  10.908   3.686 -0.3448 -0.4359 -0.0564
  725MOL0     C97795   5.923  10.643   3.918 -0.6033 -0.2070  0.0691
  725MOL0     C97796   5.924  10.521   3.980 -0.1022 -0.2749 -0.8670
  725MOL0     C97797   6.045  10.459   4.011  0.0758  0.1876  0.5163
  725MOL0     C97798   6.169  10.522   3.983 -0.7549  0.4663 -0.1814
  725MOL0     O97799   6.290  10.462   4.013 -0.0166 -0.4230  0.3835
  725MOL0     C97800   6.299  10.316   4.024  0.2120 -0.2645  0.2862
  725MOL0     C97801   6.447  10.277   4.029  0.2852  0.2126 -0.5106
  725MOL0     C97802   6.509  10.358   4.136  1.0124  0.2699 -1.6573
  725MOL0     C97803   6.652  10.297   4.168  0.1156 -0.0914  0.0582
  725MOL0     C97804   6.744  10.304   4.056 -0.1243  0.6033 -0.4134
  725MOL0     C97805   6.822  10.307   3.966  0.3077  0.6082  0.5120
  725MOL0     C97806   6.167  10.645   3.914  0.1252 -0.2590  0.2942
  725MOL0     C97807   6.049  10.705   3.893 -0.5955  0.0662  0.3944
  725MOL0     H97808   5.726  11.011   3.993 -0.7088 -1.4279  0.8546
  725MOL0     H97809   5.519  11.131   3.990 -2.5846 -0.3898  0.3959
  725MOL0     H97810   5.257  11.058   3.976 -1.2747 -0.8791 -1.0130
  725MOL0     H97811   5.285  11.232   3.945  0.6541  0.7612 -1.4347
  725MOL0     H97812   5.079  11.244   3.828 -0.7464 -0.7256 -2.2196
  725MOL0     H97813   5.073  11.069   3.814 -4.6531  0.4274  1.4777
  725MOL0     H97814   5.029  11.046   4.074  1.0212 -0.9188 -2.3000
  725MOL0     H97815   5.034  11.226   4.081  0.6453 -0.0122  0.0196
  725MOL0     H97816   4.861  11.218   3.894  1.4117  0.4753  0.5767
  725MOL0     H97817   4.847  11.041   3.923  0.3690 -1.7878  1.5021
  725MOL0     H97818   4.758  11.079   4.151  3.9421  0.5278  2.3446
  725MOL0     H97819   4.802  11.250   4.145  3.1848 -1.5826  0.3254
  725MOL0     H97820   4.556  11.232   4.110 -0.2680  1.3413 -1.8289
  725MOL0     H97821   4.631  11.272   3.954  2.0028 -0.5694  0.5775
  725MOL0     H97822   4.439  11.102   3.960 -0.6143  0.0626  2.3976
  725MOL0     H97823   4.600  11.037   3.888 -1.9893 -3.8912 -0.5330
  725MOL0     H97824   4.611  10.896   4.103  1.0069  1.4704  0.0585
  725MOL0     H97825   4.461  10.879   4.015 -2.1003  1.1748  0.0497
  725MOL0     H97826   4.580  10.979   4.359  0.6154  1.8925 -0.1749
  725MOL0     H97827   4.272  11.024   4.571  0.5813 -2.9877 -1.2690
  725MOL0     H97828   4.439  10.970   4.590  0.4823 -0.8699 -1.0272
  725MOL0     H97829   4.538  11.187   4.548 -0.6589  0.2628 -0.5049
  725MOL0     H97830   4.426  11.212   4.673  0.8278  0.4716 -0.4697
  725MOL0     H97831   4.235  11.291   4.506 -0.3632 -0.6336 -1.4763
  725MOL0     H97832   4.360  11.287   4.386 -1.9773  1.4381  0.0485
  725MOL0     H97833   4.323  11.454   4.644 -3.8719 -1.6615 -1.4713
  725MOL0     H97834   4.307  11.506   4.482 -0.7600  0.9155  0.8018
  725MOL0     H97835   4.739  11.530   4.536  1.7837  0.8032 -0.6989
  725MOL0     H97836   4.932  11.702   4.346  0.5180 -0.6680  0.1126
  725MOL0     H97837   4.956  11.556   4.444 -1.5982 -1.1936  0.9023
  725MOL0     H97838   4.992  11.553   4.272 -0.2424  1.5236 -0.6117
  725MOL0     H97839   4.828  11.752   3.862 -0.2809  1.6009 -2.5053
  725MOL0     H97840   4.994  11.757   3.656 -0.3308  1.1987  2.1426
  725MOL0     H97841   5.065  11.369   3.489 -1.8348  0.8638  1.0782
  725MOL0     H97842   5.133  11.468   3.374 -1.0219  1.8734 -1.0088
  725MOL0     H97843   5.276  11.585   3.577 -0.5285  0.7467 -3.2968
  725MOL0     H97844   5.226  11.446   3.675 -1.8743  0.5368 -0.5355
  725MOL0     H97845   5.392  11.421   3.431 -2.1260  0.1032 -1.5715
  725MOL0     H97846   5.320  11.285   3.520  0.5726 -0.3013  1.7751
  725MOL0     H97847   5.496  11.513   3.635 -2.5182  0.6671 -3.1316
  725MOL0     H97848   5.465  11.359   3.715  2.8679 -0.7962 -0.1229
  725MOL0     H97849   5.615  11.373   3.459 -0.1325 -1.0746  0.1021
  725MOL0     H97850   5.611  11.241   3.574  0.0132  0.2530  2.2576
  725MOL0     H97851   5.716  11.387   3.748  1.3584  1.1518  0.7538
  725MOL0     H97852   5.825  11.340   3.612 -1.0217  1.8178 -4.0587
  725MOL0     H97853   5.688  11.609   3.641  1.5287  3.0094 -1.1275
  725MOL0     H97854   5.799  11.557   3.507  0.9004 -3.1857  0.1484
  725MOL0     H97855   5.857  11.573   3.812  3.2012 -0.7660  0.8433
  725MOL0     H97856   5.886  11.701   3.703  0.4954  0.4731 -1.7483
  725MOL0     H97857   4.840  11.368   3.563  0.2403 -0.9636  1.9553
  725MOL0     H97858   4.709  11.365   3.765 -2.0290  1.3970 -1.9110
  725MOL0     H97859   4.534  11.523   4.087 -0.4672  1.5547 -0.9354
  725MOL0     H97860   4.390  11.527   4.280  0.0710 -0.9071  0.0479
  725MOL0     H97861   5.428  10.968   3.602 -1.4555 -0.1390  0.5601
  725MOL0     H97862   5.614  10.835   3.606 -4.1386 -0.3700 -0.5546
  725MOL0     H97863   5.833  10.475   4.016  2.1602 -3.1632  1.7620
  725MOL0     H97864   6.045  10.370   4.074  1.6539  0.4715  0.9646
  725MOL0     H97865   6.241  10.294   4.115  0.7666 -3.2060  0.0244
  725MOL0     H97866   6.256  10.265   3.938 -1.6430  0.9293  0.4469
  725MOL0     H97867   6.490  10.303   3.931  0.6508  0.8958 -0.1750
  725MOL0     H97868   6.459  10.170   4.052  0.4595  0.3853  0.2147
  725MOL0     H97869   6.454  10.344   4.229 -0.1572  3.6834 -1.7037
  725MOL0     H97870   6.518  10.464   4.110  1.9546  1.2583  2.1161
  725MOL0     H97871   6.637  10.194   4.204 -1.1395 -0.3262 -1.0795
  725MOL0     H97872   6.695  10.355   4.250  0.4025  1.2182 -0.9888
  725MOL0     H97873   6.892  10.327   3.887 -1.1460 -0.5349 -1.1427
  725MOL0     H97874   6.255  10.706   3.896  1.0880 -2.1608 -1.8418
  725MOL0     H97875   6.053  10.806   3.854 -0.9307  1.3096  3.3094
  726MOL0     O97876   3.540   0.114   4.392 -0.3674 -0.2274 -0.0239
  726MOL0     C97877   3.511   0.233   4.420 -0.7522  0.4149 -0.0111
  726MOL0     O97878   3.604   0.328   4.462  0.4148 -0.1779 -0.1165
  726MOL0     C97879   3.716   0.286   4.527 -0.4150  0.1398 -0.1702
  726MOL0     C97880   3.737   0.321   4.657  0.4706 -0.2054 -0.1980
  726MOL0     C97881   3.852   0.300   4.731  0.5735  0.1522  0.2320
  726MOL0     C97882   3.958   0.230   4.676 -0.1403  0.0265 -0.0491
  726MOL0     O97883   4.077   0.212   4.732 -0.4262 -0.4401  0.8064
  726MOL0     C97884   4.109   0.297   4.838 -0.3255 -0.0111  0.7878
  726MOL0     C97885   4.256   0.350   4.822 -0.0618 -0.6153  0.0878
  726MOL0     C97886   4.250   0.467   4.711  0.2790 -0.2495  0.1923
  726MOL0     C97887   4.379   0.548   4.707  0.2081 -0.2562  0.1696
  726MOL0     C97888   4.391   0.652   4.595  0.2688 -0.2716  0.2762
  726MOL0     C97889   4.329   0.795   4.615  0.6192 -0.0357 -0.8968
  726MOL0     C97890   4.383   0.865   4.740 -0.0414 -0.1114  0.0614
  726MOL0     C97891   4.527   0.864   4.716 -0.5681  0.2051  0.1856
  726MOL0     N97892   4.593   0.970   4.795 -0.3323  0.2220  0.2235
  726MOL0     C97893   4.623   0.963   4.929 -0.0745  0.3606  0.1886
  726MOL0     C97894   4.667   1.087   4.963  0.4512  0.1477  0.3182
  726MOL0     C97895   4.700   1.129   5.106 -0.1869 -0.0154  0.2573
  726MOL0     C97896   4.571   1.120   5.186 -0.1539 -0.4703 -0.2431
  726MOL0     C97897   4.608   1.133   5.339  0.5968  0.0687 -0.0414
  726MOL0     C97898   4.482   1.102   5.428 -0.4715  1.1129 -0.4097
  726MOL0     O97899   4.495   1.124   5.562  0.3582  0.3880 -0.1594
  726MOL0     C97900   4.397   1.119   5.656  0.3556 -0.9731 -0.6332
  726MOL0     C97901   4.436   1.135   5.791 -0.1897 -0.2880  0.1085
  726MOL0     C97902   4.348   1.134   5.891 -0.3070 -0.1927 -0.4035
  726MOL0     C97903   4.392   1.172   6.034 -0.3328 -0.4228  0.5163
  726MOL0     C97904   4.207   1.108   5.863  0.8582 -0.3839 -0.4328
  726MOL0     C97905   4.105   1.092   5.968  0.1331  0.5579  0.3805
  726MOL0     O97906   3.976   1.119   5.921  0.0909 -0.7063  0.1928
  726MOL0     C97907   3.869   1.143   6.011 -0.7273  0.5861 -0.4495
  726MOL0     C97908   3.888   1.215   6.124  0.5890 -0.1856  0.1536
  726MOL0     C97909   3.787   1.243   6.218 -0.0493 -0.3915 -0.0620
  726MOL0     C97910   3.658   1.195   6.191  0.4844  0.3240 -0.2049
  726MOL0     O97911   3.559   1.212   6.278 -0.9423  0.0258  0.2031
  726MOL0     C97912   3.574   1.291   6.392 -0.6061 -0.4278 -1.0876
  726MOL0     C97913   3.465   1.244   6.480  0.1526  0.6844 -0.7182
  726MOL0     C97914   3.460   1.327   6.612  0.1026 -0.5174  0.2737
  726MOL0     C97915   3.339   1.278   6.695  0.0780 -0.5730  1.1218
  726MOL0     C97916   3.340   1.350   6.825  0.2785 -0.5144  0.0030
  726MOL0     C97917   3.205   1.320   6.910 -0.4639  0.0986  0.2418
  726MOL0     C97918   3.216   1.373   7.058 -1.1796 -0.2338 -0.2167
  726MOL0     C97919   3.102   1.333   7.151  0.7951 -0.0361 -0.0530
  726MOL0    Cl97920   2.971   1.457   7.119 -0.2026  0.4494 -0.2475
  726MOL0     C97921   3.636   1.123   6.067 -0.1673  0.4321  0.5175
  726MOL0     C97922   3.741   1.100   5.978 -0.2881  0.2416  0.4181
  726MOL0     O97923   4.128   1.064   6.083  0.0250  0.6372 -0.3333
  726MOL0     C97924   4.169   1.070   5.730  0.5131  0.3971 -0.2857
  726MOL0     C97925   4.268   1.079   5.636 -0.2458  0.0747  0.7303
  726MOL0     N97926   4.667   1.166   4.850  0.6162  0.3923  0.3933
  726MOL0     N97927   4.627   1.096   4.744  0.0265 -1.0258 -0.4835
  726MOL0     C97928   3.943   0.195   4.536 -0.2397 -0.7705 -0.6727
  726MOL0     C97929   3.818   0.210   4.470  0.3940 -0.8633  0.6442
  726MOL0     C97930   3.373   0.272   4.418  0.4222  0.5522 -1.2269
  726MOL0     C97931   3.334   0.408   4.448  0.0853  0.2153  1.2493
  726MOL0     C97932   3.201   0.457   4.450  0.1874 -0.5290 -0.2527
  726MOL0     C97933   3.102   0.353   4.448  0.6312  0.3196 -0.1547
  726MOL0     O97934   2.975   0.402   4.458  0.4613 -0.0437 -0.1655
  726MOL0     C97935   2.859   0.317   4.473 -0.0485 -1.1975  0.2337
  726MOL0     C97936   2.851   0.265   4.619 -0.0778 -0.4900 -0.4813
  726MOL0     C97937   2.850   0.390   4.715  0.5877 -0.0798 -0.1662
  726MOL0     C97938   2.860   0.356   4.864  0.1199 -0.6434 -0.3701
  726MOL0     C97939   2.984   0.284   4.895  0.5688  0.1151 -0.6941
  726MOL0     C97940   3.076   0.203   4.904  0.0282 -0.4531  0.4154
  726MOL0     C97941   3.134   0.217   4.419 -0.0683  0.0510 -0.9147
  726MOL0     C97942   3.264   0.175   4.395 -1.1240 -0.2599  0.1112
  726MOL0     H97943   3.647   0.358   4.706  1.0504  2.1574 -0.8153
  726MOL0     H97944   3.854   0.330   4.836  2.7080 -0.7813  0.5082
  726MOL0     H97945   4.046   0.387   4.839 -0.3669 -0.0055 -0.7166
  726MOL0     H97946   4.082   0.244   4.930 -0.6214  1.6511  1.7134
  726MOL0     H97947   4.283   0.406   4.912 -0.3543  0.8216 -0.6881
  726MOL0     H97948   4.331   0.271   4.811  0.2256 -0.2535 -0.5953
  726MOL0     H97949   4.218   0.418   4.618 -1.2996  1.6688 -0.3239
  726MOL0     H97950   4.175   0.543   4.734 -0.0877 -1.1880  2.2925
  726MOL0     H97951   4.401   0.601   4.800  0.3494  0.4820 -0.2829
  726MOL0     H97952   4.458   0.475   4.684  2.7156  2.2744  0.2233
  726MOL0     H97953   4.496   0.666   4.568  0.1772  0.7929  0.4209
  726MOL0     H97954   4.346   0.611   4.504 -0.3286  0.4806  0.2234
  726MOL0     H97955   4.352   0.848   4.522 -0.0712 -2.2897 -2.4309
  726MOL0     H97956   4.223   0.770   4.608  1.1601 -2.5481 -1.1260
  726MOL0     H97957   4.351   0.970   4.735 -0.6337 -0.2968 -0.1079
  726MOL0     H97958   4.352   0.815   4.832 -1.1311  0.8233  0.2229
  726MOL0     H97959   4.554   0.879   4.611 -1.2992  0.2651  0.0022
  726MOL0     H97960   4.575   0.772   4.751  1.0511  0.9098 -0.0854
  726MOL0     H97961   4.600   0.885   5.001  0.1043 -0.2274 -0.3780
  726MOL0     H97962   4.771   1.056   5.146  0.7622 -0.8750 -2.7291
  726MOL0     H97963   4.747   1.228   5.110 -0.2710  0.0900 -1.0988
  726MOL0     H97964   4.516   1.027   5.172 -1.0559 -0.0235  0.2498
  726MOL0     H97965   4.497   1.195   5.156 -1.4182 -1.4574  0.3331
  726MOL0     H97966   4.637   1.236   5.363  2.4526 -0.5231  0.4526
  726MOL0     H97967   4.698   1.077   5.366  0.0618 -1.9454 -2.2062
  726MOL0     H97968   4.466   0.994   5.415  0.5016  0.9106 -0.0345
  726MOL0     H97969   4.395   1.160   5.397  0.5073  2.4849 -0.6837
  726MOL0     H97970   4.542   1.154   5.802 -0.3821  0.1670  1.3343
  726MOL0     H97971   4.486   1.227   6.022 -0.9744  1.4788  3.1951
  726MOL0     H97972   4.315   1.240   6.070 -0.8782 -2.1170  2.7915
  726MOL0     H97973   4.412   1.088   6.102  0.3089  1.2481  2.4865
  726MOL0     H97974   3.991   1.245   6.139  1.6522 -1.7410 -3.2032
  726MOL0     H97975   3.803   1.313   6.299  1.0283  0.9165 -1.3563
  726MOL0     H97976   3.664   1.274   6.453  0.3032  2.2610 -1.5554
  726MOL0     H97977   3.570   1.398   6.371  0.3153  0.2924  1.8710
  726MOL0     H97978   3.370   1.258   6.427 -0.3041 -0.3787 -0.2140
  726MOL0     H97979   3.487   1.140   6.505 -0.0546  0.8445  0.1978
  726MOL0     H97980   3.456   1.434   6.589 -0.4362 -0.2049  1.6843
  726MOL0     H97981   3.555   1.315   6.666  0.2159 -0.5643  0.0643
  726MOL0     H97982   3.248   1.290   6.636 -1.4390 -1.5365  3.1430
  726MOL0     H97983   3.342   1.172   6.720 -1.3116 -0.8335  0.2827
  726MOL0     H97984   3.321   1.455   6.805 -0.8834 -0.3881  1.5839
  726MOL0     H97985   3.433   1.327   6.878 -0.7286 -2.1966  1.1570
  726MOL0     H97986   3.119   1.363   6.859  0.8435  0.7321 -1.5575
  726MOL0     H97987   3.188   1.212   6.914 -1.6600  0.3164  1.6106
  726MOL0     H97988   3.225   1.481   7.042  1.5011 -0.7652 -3.1325
  726MOL0     H97989   3.311   1.341   7.101 -0.1619 -0.8840 -2.7301
  726MOL0     H97990   3.130   1.347   7.256  0.4064 -0.5073  0.1204
  726MOL0     H97991   3.064   1.232   7.132  1.3065 -0.7320  2.2680
  726MOL0     H97992   3.541   1.072   6.050  1.2361 -2.2478  0.1142
  726MOL0     H97993   3.721   1.050   5.884 -0.6326  0.6281  0.2810
  726MOL0     H97994   4.069   1.044   5.697  0.2564 -0.1863  0.9050
  726MOL0     H97995   4.228   1.066   5.536 -1.3379 -3.5506  1.4930
  726MOL0     H97996   4.033   0.153   4.491  2.0713  3.0328 -0.1299
  726MOL0     H97997   3.805   0.178   4.367  0.6628  1.6536 -0.2562
  726MOL0     H97998   3.414   0.479   4.463  0.8124 -0.1259 -0.7813
  726MOL0     H97999   3.169   0.561   4.452 -1.2746 -0.9480 -0.2742
  726MOL0     H98000   2.764   0.366   4.453  1.0537  1.3140  0.8355
  726MOL0     H98001   2.875   0.240   4.396  1.1249 -0.1244 -0.6278
  726MOL0     H98002   2.943   0.208   4.636  1.0335  1.2095 -0.4493
  726MOL0     H98003   2.760   0.207   4.637  0.3557 -0.9406  0.3515
  726MOL0     H98004   2.762   0.455   4.703  0.9437  1.4614  3.9793
  726MOL0     H98005   2.936   0.455   4.698  2.7235 -2.0776  2.1870
  726MOL0     H98006   2.776   0.289   4.887  0.7604 -1.9597 -1.6510
  726MOL0     H98007   2.839   0.448   4.918 -0.7410 -0.3151 -1.2221
  726MOL0     H98008   3.159   0.135   4.903 -0.2525 -0.8241 -1.8994
  726MOL0     H98009   3.053   0.145   4.425 -0.6316  0.6816 -0.8200
  726MOL0     H98010   3.288   0.074   4.361  0.7332  0.4829 -0.9172
  727MOL0     O98011   3.396   2.655   5.479 -0.2293  0.0127  0.3043
  727MOL0     C98012   3.458   2.706   5.385 -0.3280 -0.1635  0.9934
  727MOL0     O98013   3.423   2.828   5.324 -0.3468  1.2491  0.2438
  727MOL0     C98014   3.320   2.904   5.371 -0.8808 -0.7658  0.0029
  727MOL0     C98015   3.269   2.914   5.504 -0.3586  0.5512  0.2208
  727MOL0     C98016   3.156   2.984   5.535  0.0093 -1.0566 -0.0661
  727MOL0     C98017   3.096   3.068   5.447 -0.4022 -0.1372  1.1156
  727MOL0     O98018   2.983   3.139   5.488 -0.5976 -0.1897  0.0209
  727MOL0     C98019   2.930   3.250   5.413  0.2615  0.3742 -0.6058
  727MOL0     C98020   2.817   3.225   5.315  0.2974 -0.6357 -0.1613
  727MOL0     C98021   2.736   3.104   5.359 -0.5575 -0.4724 -0.0020
  727MOL0     C98022   2.599   3.100   5.292 -0.2765  0.3618  0.8290
  727MOL0     C98023   2.492   3.069   5.392 -1.4862  0.8649 -0.2173
  727MOL0     C98024   2.353   3.095   5.344 -0.1905 -0.2051  0.0237
  727MOL0     C98025   2.246   3.092   5.457  0.3503 -0.4320 -0.6778
  727MOL0     C98026   2.258   3.220   5.546  0.2131 -0.4065 -0.0633
  727MOL0     N98027   2.151   3.202   5.649  0.3406 -0.2588  0.0399
  727MOL0     C98028   2.030   3.266   5.638  0.3084  0.0673 -0.3888
  727MOL0     C98029   1.961   3.202   5.743  0.5186  0.0091  0.0055
  727MOL0     C98030   1.828   3.244   5.787 -0.2793 -0.2581 -0.8930
  727MOL0     C98031   1.840   3.335   5.902 -0.2772 -0.1812  0.0099
  727MOL0     C98032   1.701   3.387   5.943 -0.4243 -0.6492 -1.0342
  727MOL0     C98033   1.627   3.280   6.023  0.8152  0.9261 -0.8895
  727MOL0     O98034   1.512   3.336   6.076  0.3198 -0.2372 -0.0423
  727MOL0     C98035   1.388   3.356   6.022 -0.5287 -0.2482  0.8506
  727MOL0     C98036   1.371   3.343   5.888 -0.1768 -0.2716  0.5175
  727MOL0     C98037   1.252   3.357   5.825 -0.1186  0.7738 -0.0389
  727MOL0     C98038   1.240   3.325   5.680  0.3257 -0.5497 -0.5437
  727MOL0     C98039   1.145   3.414   5.897 -0.3455 -0.7286  1.0493
  727MOL0     C98040   1.027   3.471   5.822 -0.9657  1.5413 -0.2916
  727MOL0     O98041   0.926   3.476   5.907  0.4140  0.2952 -0.1194
  727MOL0     C98042   0.795   3.518   5.879 -0.7045  0.0555 -0.3579
  727MOL0     C98043   0.728   3.478   5.768  0.4731 -0.1272 -0.1046
  727MOL0     C98044   0.594   3.527   5.747 -0.5139  0.0715  0.0341
  727MOL0     C98045   0.545   3.626   5.845 -0.1606 -0.0857  0.3443
  727MOL0     O98046   0.415   3.672   5.845  1.2016 -0.6436 -1.2688
  727MOL0     C98047   0.343   3.655   5.724  0.0047  0.5357  0.0331
  727MOL0     C98048   0.224   3.748   5.712 -0.2723  0.3248 -0.3027
  727MOL0     C98049   0.126   3.731   5.822  0.5018 -0.1782 -1.0990
  727MOL0     C98050  -0.013   3.796   5.799  0.2154 -0.0198 -0.4922
  727MOL0     C98051   0.002   3.950   5.812  0.2479  0.1767  0.3257
  727MOL0     C98052   0.003   3.985   5.963  0.3728  0.4478 -0.2241
  727MOL0     C98053  -0.129   3.954   6.051  0.2888  0.1451  0.4730
  727MOL0     C98054  -0.238   4.050   6.014  0.1439 -0.0467  1.0057
  727MOL0    Cl98055  -0.360   4.063   6.145 -0.5846 -0.6098  0.5391
  727MOL0     C98056   0.622   3.661   5.963  0.4287 -0.1454  0.0983
  727MOL0     C98057   0.748   3.604   5.975  0.2121  0.5709  0.5663
  727MOL0     O98058   1.035   3.525   5.714  0.4439 -1.0165 -0.4545
  727MOL0     C98059   1.159   3.436   6.031 -0.0213 -0.1409  0.0279
  727MOL0     C98060   1.280   3.403   6.102 -0.2654 -0.5536 -0.5956
  727MOL0     N98061   2.034   3.100   5.808 -0.5160  0.1444 -0.4840
  727MOL0     N98062   2.138   3.095   5.735 -0.4114  0.5367 -0.5591
  727MOL0     C98063   3.148   3.071   5.320 -0.2412 -1.1500 -0.1659
  727MOL0     C98064   3.267   2.996   5.287  0.0669  0.3786  0.7269
  727MOL0     C98065   3.588   2.649   5.340  0.2667 -0.0002 -0.1515
  727MOL0     C98066   3.638   2.686   5.213 -0.0164  0.7143  0.6228
  727MOL0     C98067   3.735   2.593   5.157  0.4151 -1.1118 -0.0118
  727MOL0     C98068   3.798   2.486   5.228  0.4571  0.4441  0.1840
  727MOL0     O98069   3.909   2.411   5.203  0.2832  0.2990 -0.2500
  727MOL0     C98070   3.974   2.409   5.078  0.5513  0.5931  0.0602
  727MOL0     C98071   4.113   2.354   5.099  0.4698 -0.6599  0.0090
  727MOL0     C98072   4.117   2.219   5.170 -0.0956  0.3335 -0.9596
  727MOL0     C98073   4.263   2.159   5.179 -0.0592 -1.2351  0.2826
  727MOL0     C98074   4.331   2.153   5.048  0.3930  0.4987 -0.3830
  727MOL0     C98075   4.374   2.171   4.934 -0.1006 -0.4751 -0.1907
  727MOL0     C98076   3.749   2.463   5.355 -0.2388 -0.3332 -0.3797
  727MOL0     C98077   3.645   2.541   5.413 -0.2101  0.4932  0.0751
  727MOL0     H98078   3.306   2.851   5.585 -0.0879  2.5243  1.7109
  727MOL0     H98079   3.121   2.995   5.637  1.1771  0.9610  0.1618
  727MOL0     H98080   2.882   3.311   5.490  0.6974  1.2257 -0.9928
  727MOL0     H98081   3.005   3.312   5.363 -1.2419  0.9655 -2.2069
  727MOL0     H98082   2.749   3.308   5.297 -1.4109 -1.2773  2.5537
  727MOL0     H98083   2.874   3.205   5.224  1.9216  1.4711  0.3167
  727MOL0     H98084   2.787   3.011   5.331  0.0228 -0.6162  1.4334
  727MOL0     H98085   2.723   3.088   5.466  0.5124 -2.5906 -0.1379
  727MOL0     H98086   2.569   3.202   5.270 -3.0134 -0.2073  1.5952
  727MOL0     H98087   2.600   3.037   5.202 -0.3495  0.6717  0.6103
  727MOL0     H98088   2.504   2.971   5.438  1.8368  2.4441  2.7992
  727MOL0     H98089   2.503   3.141   5.474 -0.8221 -0.8106  1.2330
  727MOL0     H98090   2.351   3.191   5.292 -0.1883 -0.6139 -0.7381
  727MOL0     H98091   2.338   3.020   5.266  1.5530 -0.6989  0.1161
  727MOL0     H98092   2.147   3.093   5.409  0.2938  0.9935 -0.5547
  727MOL0     H98093   2.251   2.994   5.506 -2.0251 -1.0292 -1.4808
  727MOL0     H98094   2.230   3.311   5.493 -2.5033 -1.1091  0.0223
  727MOL0     H98095   2.351   3.238   5.600 -0.5724  0.2229  1.1291
  727MOL0     H98096   1.986   3.352   5.588 -2.4224 -0.4867  0.8793
  727MOL0     H98097   1.784   3.295   5.701  0.0093 -2.8349 -2.6673
  727MOL0     H98098   1.772   3.152   5.806 -0.4253 -0.3696 -1.8455
  727MOL0     H98099   1.892   3.426   5.870 -1.0092  0.1149 -0.3663
  727MOL0     H98100   1.886   3.290   5.990  0.1711 -0.5520 -0.4098
  727MOL0     H98101   1.640   3.429   5.863 -0.8418  2.7508  0.8726
  727MOL0     H98102   1.718   3.472   6.010 -0.5186 -0.4631 -1.2448
  727MOL0     H98103   1.688   3.244   6.106 -0.0802  0.4995 -0.4154
  727MOL0     H98104   1.596   3.200   5.956  1.7851 -0.1075 -0.1393
  727MOL0     H98105   1.445   3.300   5.821 -1.5621 -1.2949 -0.4072
  727MOL0     H98106   1.142   3.280   5.666 -0.1244 -0.2891  1.4870
  727MOL0     H98107   1.256   3.418   5.623  1.2482 -1.2608 -1.4853
  727MOL0     H98108   1.303   3.241   5.652  1.3546 -0.0447  0.2014
  727MOL0     H98109   0.769   3.395   5.711  0.4174  0.6547 -1.3167
  727MOL0     H98110   0.544   3.501   5.654 -2.0192  4.2725 -0.5609
  727MOL0     H98111   0.399   3.655   5.630 -3.8203 -4.0121 -2.6990
  727MOL0     H98112   0.302   3.553   5.718 -1.0899  1.0025 -0.7819
  727MOL0     H98113   0.275   3.845   5.716  0.2036  0.0268  1.9083
  727MOL0     H98114   0.163   3.737   5.622 -0.6884 -1.1181  0.1255
  727MOL0     H98115   0.174   3.765   5.915 -1.3529 -2.0517  0.6515
  727MOL0     H98116   0.102   3.625   5.835 -0.1127  0.0016 -0.7170
  727MOL0     H98117  -0.046   3.777   5.697 -0.5545 -0.3909 -0.1808
  727MOL0     H98118  -0.080   3.759   5.878  0.2828 -0.1400 -0.4906
  727MOL0     H98119  -0.082   4.004   5.768  0.6421  1.2809  0.8838
  727MOL0     H98120   0.099   3.980   5.771 -0.1430 -0.1117 -0.8362
  727MOL0     H98121   0.078   3.927   6.018 -1.1187 -1.0374  0.3492
  727MOL0     H98122   0.028   4.091   5.971  0.5087  0.3181  1.3877
  727MOL0     H98123  -0.101   3.980   6.153 -1.7429  1.6452  0.7186
  727MOL0     H98124  -0.162   3.851   6.041  0.1897  0.2007  0.2018
  727MOL0     H98125  -0.284   4.031   5.916 -0.4830  0.1705  1.2520
  727MOL0     H98126  -0.207   4.153   5.995  1.8696 -0.9866 -2.0484
  727MOL0     H98127   0.577   3.730   6.034  0.9714 -1.9521  2.3272
  727MOL0     H98128   0.801   3.626   6.067 -0.5269  0.0657  1.1252
  727MOL0     H98129   1.082   3.487   6.087 -1.2425  2.4544 -3.6507
  727MOL0     H98130   1.295   3.426   6.207  2.0805  1.9638 -1.3646
  727MOL0     H98131   3.116   3.140   5.242  1.4957 -1.7765 -1.4655
  727MOL0     H98132   3.293   2.989   5.182 -2.6593 -1.2756  0.0579
  727MOL0     H98133   3.592   2.767   5.157 -2.3750 -1.0399 -0.1417
  727MOL0     H98134   3.779   2.628   5.064  2.3174 -2.5936  0.2885
  727MOL0     H98135   3.914   2.346   5.012 -1.6468  2.9577 -0.3425
  727MOL0     H98136   3.963   2.506   5.029 -5.5903  1.1777  1.8309
  727MOL0     H98137   4.188   2.424   5.138  1.2804 -0.0473 -2.4361
  727MOL0     H98138   4.152   2.338   4.998  0.0472  1.2102 -0.4819
  727MOL0     H98139   4.056   2.139   5.126  0.2644 -0.7049  0.3426
  727MOL0     H98140   4.077   2.226   5.271 -1.1751  3.3063 -1.5006
  727MOL0     H98141   4.254   2.060   5.225 -0.0497 -1.8797 -1.0372
  727MOL0     H98142   4.315   2.223   5.250 -1.9363 -0.2587  0.8368
  727MOL0     H98143   4.417   2.184   4.837 -0.2804  1.5142 -0.0298
  727MOL0     H98144   3.790   2.390   5.424  0.1828  0.6367  0.4262
  727MOL0     H98145   3.620   2.515   5.516  0.7428 -1.4428 -0.1481
  728MOL0     O98146   9.886   4.946   8.915  0.1941 -0.4696  0.9117
  728MOL0     C98147   9.949   4.874   8.994  0.0231  0.4551  0.2416
  728MOL0     O98148   9.895   4.763   9.050  0.1639 -0.2095 -0.3875
  728MOL0     C98149   9.761   4.744   9.023  0.1180 -0.8388  0.0896
  728MOL0     C98150   9.658   4.790   9.104  0.1172 -0.1791  0.5553
  728MOL0     C98151   9.531   4.768   9.067 -0.3403  0.0531 -0.8016
  728MOL0     C98152   9.499   4.690   8.948  0.5549 -0.9772  0.4805
  728MOL0     O98153   9.369   4.668   8.897 -0.2811 -0.7174  0.2668
  728MOL0     C98154   9.261   4.746   8.938  0.0164  0.2325  0.6011
  728MOL0     C98155   9.132   4.673   8.909 -0.1105  0.9367 -0.0348
  728MOL0     C98156   9.012   4.743   8.964  0.8303 -0.5556  0.5902
  728MOL0     C98157   8.884   4.671   8.933  0.4137 -0.6084 -0.2614
  728MOL0     C98158   8.760   4.743   8.994 -0.3139  0.0851 -0.4489
  728MOL0     C98159   8.636   4.651   9.013  0.0774  0.1187  0.0786
  728MOL0     C98160   8.564   4.612   8.884  0.0023 -0.7963 -0.0456
  728MOL0     C98161   8.456   4.514   8.925 -0.1455 -0.2574 -0.3399
  728MOL0     N98162   8.356   4.490   8.815  0.3882 -0.5946  0.8226
  728MOL0     C98163   8.260   4.580   8.786  0.3486  0.6070 -0.3665
  728MOL0     C98164   8.164   4.513   8.724  0.9112  0.5883  0.0615
  728MOL0     C98165   8.049   4.567   8.657 -0.5292  0.7300 -0.2918
  728MOL0     C98166   7.917   4.492   8.682 -0.1242  0.0906  0.1671
  728MOL0     C98167   7.901   4.416   8.818 -0.0738 -0.0916  0.4178
  728MOL0     C98168   7.925   4.485   8.944  0.8048 -0.7852  0.3094
  728MOL0     O98169   7.842   4.592   8.978 -0.6311  0.6513 -0.1063
  728MOL0     C98170   7.715   4.558   9.020  0.4702  0.4661  0.2644
  728MOL0     C98171   7.628   4.662   9.033  0.0802  0.5186  0.0998
  728MOL0     C98172   7.498   4.650   9.079 -0.1287 -0.2730  0.3450
  728MOL0     C98173   7.419   4.777   9.077  0.4091 -0.0806 -0.0325
  728MOL0     C98174   7.442   4.522   9.103 -0.2924  0.5073 -0.6806
  728MOL0     C98175   7.301   4.490   9.146 -0.8504  0.3146  0.1987
  728MOL0     O98176   7.288   4.372   9.219  0.3501 -0.0370 -0.3855
  728MOL0     C98177   7.166   4.306   9.240  0.1647  0.9010  0.9089
  728MOL0     C98178   7.177   4.201   9.323 -0.1070  0.5253 -0.2150
  728MOL0     C98179   7.063   4.135   9.373 -1.1746 -0.8128 -0.7067
  728MOL0     C98180   6.933   4.177   9.341 -0.4999  0.3228 -0.7199
  728MOL0     O98181   6.820   4.121   9.391 -0.1180 -0.5076  0.0530
  728MOL0     C98182   6.834   4.000   9.466  0.0859  1.7797  0.6311
  728MOL0     C98183   6.699   3.935   9.509  0.5189 -0.9003  0.8880
  728MOL0     C98184   6.592   3.939   9.396 -0.1453  0.3445  0.0008
  728MOL0     C98185   6.475   3.844   9.428 -0.2273 -0.5404 -0.5058
  728MOL0     C98186   6.375   3.858   9.306 -0.1893  0.0039 -0.3973
  728MOL0     C98187   6.266   3.750   9.320 -0.2823 -0.6053  0.5408
  728MOL0     C98188   6.150   3.749   9.215 -0.0336 -0.6834 -0.2928
  728MOL0     C98189   6.195   3.705   9.073 -0.0453  0.3297 -1.0218
  728MOL0    Cl98190   6.074   3.758   8.955 -0.1718  0.1334 -0.0808
  728MOL0     C98191   6.921   4.286   9.260  0.3654 -0.3983  0.4820
  728MOL0     C98192   7.036   4.343   9.206 -0.3805 -0.7029  0.4422
  728MOL0     O98193   7.213   4.571   9.127  0.0461 -0.2439 -0.4663
  728MOL0     C98194   7.533   4.417   9.099 -0.2659  0.0530  0.0080
  728MOL0     C98195   7.667   4.432   9.059  1.2403  0.2147 -0.0173
  728MOL0     N98196   8.209   4.382   8.713  0.4610  0.4006  0.4435
  728MOL0     N98197   8.316   4.374   8.771 -0.4763 -0.7389 -0.0788
  728MOL0     C98198   9.605   4.641   8.868 -1.2070 -0.0986 -0.1610
  728MOL0     C98199   9.734   4.672   8.909 -0.8013  0.5770  0.2049
  728MOL0     C98200  10.093   4.904   9.019  0.0356  0.9797  0.0533
  728MOL0     C98201  10.164   4.818   9.106  1.1286 -0.5662  0.2731
  728MOL0     C98202  10.300   4.841   9.118  0.1329  0.6030 -0.1612
  728MOL0     C98203  10.367   4.949   9.064  0.7726 -0.3686  0.2470
  728MOL0     O98204  10.492   4.970   9.109  0.6561  0.3684 -0.6149
  728MOL0     C98205  10.579   5.048   9.026 -0.3833  0.3284 -0.4044
  728MOL0     C98206  10.708   4.961   9.031 -0.9417  0.1166  0.1693
  728MOL0     C98207  10.701   4.819   8.980 -0.7966  0.5333 -0.1248
  728MOL0     C98208  10.832   4.735   9.014 -0.0357  0.4201 -0.2423
  728MOL0     C98209  10.840   4.715   9.165 -0.1522 -0.8500  0.7366
  728MOL0     C98210  10.830   4.681   9.285  0.4545  0.0291  0.6457
  728MOL0     C98211  10.296   5.040   8.980 -0.4416  0.6310 -0.8063
  728MOL0     C98212  10.155   5.015   8.962  0.1483  0.7560 -0.3863
  728MOL0     H98213   9.681   4.844   9.196  1.9862 -1.7673  1.0825
  728MOL0     H98214   9.462   4.814   9.137  1.4357  1.4678  0.0898
  728MOL0     H98215   9.265   4.767   9.045 -0.9013  0.6548  0.5668
  728MOL0     H98216   9.258   4.839   8.880 -0.2114  0.6539  1.2807
  728MOL0     H98217   9.110   4.656   8.803 -1.9894 -1.8382  0.6835
  728MOL0     H98218   9.133   4.575   8.957 -0.9348  1.2355  0.6236
  728MOL0     H98219   9.015   4.739   9.074 -0.7724 -4.5863  0.6452
  728MOL0     H98220   8.995   4.843   8.923  0.2187 -0.4568  1.0622
  728MOL0     H98221   8.865   4.663   8.826  3.9256 -2.1784 -0.8917
  728MOL0     H98222   8.899   4.574   8.981  1.6540  0.2951  1.2699
  728MOL0     H98223   8.790   4.782   9.092  0.4578  0.8221 -0.9704
  728MOL0     H98224   8.726   4.827   8.934  0.3671  0.2436 -0.6197
  728MOL0     H98225   8.666   4.560   9.064  2.4619 -0.6212 -2.3745
  728MOL0     H98226   8.564   4.704   9.076  1.6182  1.4183  0.8248
  728MOL0     H98227   8.522   4.704   8.842 -0.8176 -1.0363  0.2281
  728MOL0     H98228   8.635   4.566   8.814 -0.4044 -3.0009  0.8971
  728MOL0     H98229   8.397   4.557   9.006 -1.1244  2.1340 -2.2103
  728MOL0     H98230   8.504   4.422   8.959  2.0293  0.1791 -2.0156
  728MOL0     H98231   8.266   4.687   8.801  1.5630  0.5485 -0.3729
  728MOL0     H98232   8.036   4.670   8.691 -0.5213  0.1190  1.7194
  728MOL0     H98233   8.070   4.567   8.550 -1.7516 -0.2472 -0.5491
  728MOL0     H98234   7.910   4.412   8.608  4.4816 -1.7732  1.3907
  728MOL0     H98235   7.840   4.569   8.665  0.7831  0.6261 -1.8358
  728MOL0     H98236   7.974   4.335   8.806  0.0592  0.2615 -1.5108
  728MOL0     H98237   7.800   4.375   8.826 -0.8680  1.2001 -2.0739
  728MOL0     H98238   8.022   4.534   8.937 -0.9516  3.4154  1.8998
  728MOL0     H98239   7.941   4.415   9.026  3.2949  2.3930  2.7848
  728MOL0     H98240   7.673   4.756   9.002  2.7800 -0.1833  1.5470
  728MOL0     H98241   7.486   4.851   9.032 -1.3000  0.9182 -0.9912
  728MOL0     H98242   7.330   4.778   9.014 -0.9590 -0.9834  1.7733
  728MOL0     H98243   7.382   4.792   9.179  1.3513 -1.2433  0.5063
  728MOL0     H98244   7.281   4.180   9.348  0.5414  3.2606 -0.2395
  728MOL0     H98245   7.077   4.044   9.431 -1.9443 -0.9436 -0.7133
  728MOL0     H98246   6.891   3.928   9.407  0.1201  2.1753  0.1715
  728MOL0     H98247   6.893   4.000   9.558  1.8749 -4.4352 -0.0428
  728MOL0     H98248   6.712   3.835   9.552 -1.7188 -0.9538  1.6090
  728MOL0     H98249   6.654   3.999   9.587  0.2705  0.0248  0.0121
  728MOL0     H98250   6.644   3.912   9.304  2.4731 -1.3628  1.8157
  728MOL0     H98251   6.547   4.034   9.368  0.5314 -0.0569 -2.6723
  728MOL0     H98252   6.511   3.742   9.442 -1.8081 -1.3104 -1.8027
  728MOL0     H98253   6.441   3.877   9.527  1.1779  1.2719 -0.5744
  728MOL0     H98254   6.433   3.834   9.217 -1.4767  0.7611 -1.4640
  728MOL0     H98255   6.336   3.960   9.296 -2.8126 -1.1061 -2.8400
  728MOL0     H98256   6.316   3.652   9.315  0.4006 -0.2291 -0.4034
  728MOL0     H98257   6.221   3.769   9.418  0.4950 -3.4928  1.5820
  728MOL0     H98258   6.114   3.852   9.205  3.1959  0.5404 -0.5943
  728MOL0     H98259   6.072   3.676   9.238 -0.0603 -1.0664 -1.5120
  728MOL0     H98260   6.177   3.598   9.060  1.1330 -0.1563  0.9333
  728MOL0     H98261   6.295   3.737   9.044 -1.4722  3.3589 -3.1250
  728MOL0     H98262   6.824   4.329   9.235 -0.9872 -0.8849  4.2105
  728MOL0     H98263   7.018   4.435   9.151  1.7452 -0.6906 -0.3356
  728MOL0     H98264   7.490   4.319   9.118 -0.8337  0.1683 -0.6457
  728MOL0     H98265   7.733   4.346   9.050 -0.2108 -0.9417 -0.0445
  728MOL0     H98266   9.593   4.579   8.780 -0.0230  0.7418 -0.9362
  728MOL0     H98267   9.815   4.620   8.858 -1.5212 -3.4831  2.7556
  728MOL0     H98268  10.132   4.740   9.174  3.1182 -0.6559  1.1691
  728MOL0     H98269  10.357   4.771   9.179 -0.6556 -1.5632 -1.7684
  728MOL0     H98270  10.544   5.062   8.923  0.6743  3.6903 -0.4222
  728MOL0     H98271  10.596   5.149   9.063  0.0112  1.1818 -2.7392
  728MOL0     H98272  10.750   4.961   9.132 -0.1160 -0.8972 -0.1590
  728MOL0     H98273  10.780   5.016   8.970 -1.6477  2.3611  1.2677
  728MOL0     H98274  10.700   4.815   8.871 -0.5793 -0.9361 -0.0999
  728MOL0     H98275  10.607   4.771   9.008 -0.1890 -1.3934 -1.1944
  728MOL0     H98276  10.919   4.783   8.969  1.9220 -2.1557  0.4964
  728MOL0     H98277  10.825   4.632   8.978  2.0721 -0.0220  0.4914
  728MOL0     H98278  10.813   4.659   9.388 -1.6145 -2.2623 -0.0741
  728MOL0     H98279  10.350   5.122   8.934 -1.9450  1.4573 -1.1586
  728MOL0     H98280  10.106   5.083   8.892  0.1339  0.7884 -0.3446
  729MOL0     O98281   2.305   0.937  10.097 -0.0535  0.2621 -0.7260
  729MOL0     C98282   2.357   0.931   9.986  0.3430  0.2064 -0.3153
  729MOL0     O98283   2.290   0.925   9.862 -0.4824 -0.1338  0.1038
  729MOL0     C98284   2.154   0.915   9.867 -0.4503  0.5216  0.1295
  729MOL0     C98285   2.073   1.019   9.896  0.6181 -0.7637  0.2880
  729MOL0     C98286   1.925   1.021   9.887 -0.3766  0.2273  1.1376
  729MOL0     C98287   1.864   0.901   9.834 -0.4501 -0.0506  0.0367
  729MOL0     O98288   1.733   0.894   9.797  1.2427  0.2874 -0.4142
  729MOL0     C98289   1.652   0.792   9.853  0.3783 -0.3181  0.4306
  729MOL0     C98290   1.498   0.825   9.847  0.2163 -0.0030  0.2894
  729MOL0     C98291   1.462   0.956   9.918 -0.2871  0.4339  0.4759
  729MOL0     C98292   1.510   0.974  10.060 -1.1941  0.2130  0.5733
  729MOL0     C98293   1.426   0.894  10.165  0.4368  0.2883  0.1677
  729MOL0     C98294   1.443   0.959  10.313  0.2167  1.2391 -0.2087
  729MOL0     C98295   1.347   0.883  10.410 -0.1460 -1.2422 -0.2187
  729MOL0     C98296   1.382   0.902  10.558  0.4529 -0.2314 -0.0813
  729MOL0     N98297   1.386   1.046  10.602  0.5807 -0.0273 -0.0105
  729MOL0     C98298   1.273   1.123  10.633 -0.0935 -0.3675 -0.6265
  729MOL0     C98299   1.316   1.245  10.629  0.9269 -1.1923  0.3671
  729MOL0     C98300   1.234   1.369  10.627 -0.0910 -0.7338 -0.3683
  729MOL0     C98301   1.108   1.379  10.715 -0.7475 -0.0722  0.3594
  729MOL0     C98302   0.977   1.357  10.638  0.2452  0.4413  0.2092
  729MOL0     C98303   0.868   1.282  10.717  0.0011 -0.3977 -0.7902
  729MOL0     O98304   0.759   1.228  10.639 -0.3034  0.7675  0.3083
  729MOL0     C98305   0.657   1.161  10.708 -0.1611 -0.9982 -0.4218
  729MOL0     C98306   0.578   1.076  10.638  0.3665 -0.5663  0.0045
  729MOL0     C98307   0.461   1.024  10.697 -0.1844  0.1191  0.0127
  729MOL0     C98308   0.354   0.954  10.608  0.1038 -0.5974 -0.2199
  729MOL0     C98309   0.433   1.041  10.829 -0.8640 -0.3740 -0.2334
  729MOL0     C98310   0.301   1.009  10.899 -0.8522  0.4272  0.3889
  729MOL0     O98311   0.254   0.889  10.864 -0.2426 -0.3329 -0.0165
  729MOL0     C98312   0.136   0.843  10.912  0.5111 -0.4564 -0.8879
  729MOL0     C98313   0.023   0.825  10.827 -0.3920  0.1754  0.4411
  729MOL0     C98314  -0.106   0.803  10.877 -0.4426 -0.7330  0.2606
  729MOL0     C98315  -0.120   0.819  11.018  0.3103 -0.8700  0.5465
  729MOL0     O98316  -0.250   0.805  11.065 -0.7828 -0.1151 -0.3056
  729MOL0     C98317  -0.256   0.785  11.210  0.1252  0.1344  0.3284
  729MOL0     C98318  -0.393   0.733  11.242  0.8287 -0.2860 -0.1857
  729MOL0     C98319  -0.519   0.823  11.227 -0.6765  0.1701 -0.3044
  729MOL0     C98320  -0.640   0.750  11.290  0.2968  0.7461 -0.3391
  729MOL0     C98321  -0.762   0.839  11.285 -0.2067 -0.2806 -0.5157
  729MOL0     C98322  -0.883   0.770  11.360  0.3721 -0.4505 -0.2696
  729MOL0     C98323  -1.024   0.843  11.365 -0.6028 -0.6140 -0.2999
  729MOL0     C98324  -1.126   0.772  11.450  0.9661  0.8200 -0.3228
  729MOL0    Cl98325  -1.284   0.844  11.439 -0.1297 -0.0080 -0.1384
  729MOL0     C98326  -0.010   0.820  11.096  0.3534 -0.2180  1.0619
  729MOL0     C98327   0.116   0.824  11.047 -1.0371 -0.2385 -0.6150
  729MOL0     O98328   0.244   1.094  10.966  0.7120  0.3863  0.2521
  729MOL0     C98329   0.535   1.111  10.908  0.5306 -0.5765 -0.4929
  729MOL0     C98330   0.644   1.171  10.841  0.2075 -0.7892 -0.5439
  729MOL0     N98331   1.450   1.254  10.618 -0.8838  0.4714 -0.3489
  729MOL0     N98332   1.493   1.130  10.607  0.0907 -0.9277 -0.4224
  729MOL0     C98333   1.948   0.786   9.816 -0.7797 -0.0303  0.2812
  729MOL0     C98334   2.094   0.795   9.836  0.2850  0.0991 -0.0553
  729MOL0     C98335   2.503   0.942   9.978  0.2819 -0.2271  0.4606
  729MOL0     C98336   2.588   0.892  10.072 -0.2844  0.1383  0.4008
  729MOL0     C98337   2.728   0.914  10.051  0.5819  0.3963  0.4394
  729MOL0     C98338   2.781   0.974   9.941  0.3770  0.1490  0.5767
  729MOL0     O98339   2.918   0.978   9.943  0.6226  0.7897  0.6075
  729MOL0     C98340   2.981   1.042   9.835 -0.6835 -0.3422 -0.6906
  729MOL0     C98341   3.134   1.012   9.834 -0.0146 -0.3610  0.2728
  729MOL0     C98342   3.166   0.870   9.872  0.4896  0.7046  0.6826
  729MOL0     C98343   3.312   0.847   9.921  0.1295  0.1432  0.2922
  729MOL0     C98344   3.364   0.929  10.039 -0.8979 -0.0147 -1.2483
  729MOL0     C98345   3.404   0.992  10.141 -0.2142 -0.3814 -0.4377
  729MOL0     C98346   2.694   1.027   9.849  0.1913 -1.0836 -0.3251
  729MOL0     C98347   2.559   1.004   9.866 -0.1812  0.4849 -0.3229
  729MOL0     H98348   2.121   1.113   9.921  1.5954 -0.9986 -0.6041
  729MOL0     H98349   1.872   1.112   9.913 -0.0849  1.4361 -2.0891
  729MOL0     H98350   1.660   0.695   9.804  1.6038 -2.2010  3.9799
  729MOL0     H98351   1.670   0.781   9.961  0.3592 -0.7614  0.3874
  729MOL0     H98352   1.470   0.855   9.745 -1.2480 -1.7718  0.1371
  729MOL0     H98353   1.445   0.736   9.880  2.5928 -1.7766 -0.3992
  729MOL0     H98354   1.495   1.036   9.852 -2.1299  0.7178 -0.1624
  729MOL0     H98355   1.353   0.962   9.908 -0.0772  0.2849 -2.8642
  729MOL0     H98356   1.614   0.943  10.066 -1.1938 -0.8182 -2.7809
  729MOL0     H98357   1.507   1.078  10.093  2.5489  0.1820  1.4155
  729MOL0     H98358   1.321   0.908  10.138  0.1413 -0.0767  1.0703
  729MOL0     H98359   1.454   0.788  10.168 -1.5174 -0.2870 -0.6899
  729MOL0     H98360   1.545   0.959  10.352 -1.2034  0.4956  4.0783
  729MOL0     H98361   1.411   1.064  10.313  0.2031  1.2421  0.5359
  729MOL0     H98362   1.243   0.916  10.393  0.1542  0.9791  1.7935
  729MOL0     H98363   1.349   0.778  10.379  0.8135 -1.3340  0.1270
  729MOL0     H98364   1.481   0.859  10.574 -0.6955 -2.7210  1.0111
  729MOL0     H98365   1.315   0.845  10.622  0.0252 -2.2174 -2.1370
  729MOL0     H98366   1.179   1.082  10.669  0.8021 -0.0698  2.3240
  729MOL0     H98367   1.306   1.448  10.653  0.8428 -2.7149  3.9184
  729MOL0     H98368   1.210   1.396  10.524  1.1437 -3.0426 -1.3153
  729MOL0     H98369   1.098   1.468  10.777  3.1385  1.0365 -0.3358
  729MOL0     H98370   1.126   1.307  10.796 -1.3642  1.5511  1.9902
  729MOL0     H98371   1.008   1.296  10.552  0.4598 -2.3878  2.1722
  729MOL0     H98372   0.937   1.454  10.608  0.5688  0.1903 -1.1174
  729MOL0     H98373   0.839   1.354  10.793  2.1846 -0.9545  0.6714
  729MOL0     H98374   0.924   1.198  10.760  2.7951  0.6847 -2.0498
  729MOL0     H98375   0.590   1.043  10.535 -0.0151 -3.0531  0.6912
  729MOL0     H98376   0.266   1.018  10.617  1.5453  1.1574  3.2955
  729MOL0     H98377   0.388   0.946  10.504 -1.1623  1.8644 -0.8891
  729MOL0     H98378   0.325   0.856  10.646  2.0772 -2.1944 -2.5346
  729MOL0     H98379   0.035   0.842  10.720 -0.8140  3.6436  0.8247
  729MOL0     H98380  -0.194   0.802  10.814  1.0779  0.0533 -1.9928
  729MOL0     H98381  -0.189   0.707  11.245  2.0047  1.7425  0.4510
  729MOL0     H98382  -0.231   0.871  11.272  6.1333 -2.2857  1.9247
  729MOL0     H98383  -0.411   0.647  11.177 -2.1816  0.4739 -0.5138
  729MOL0     H98384  -0.384   0.706  11.348  1.5344 -0.9973 -0.4140
  729MOL0     H98385  -0.533   0.840  11.120 -1.3558  2.0547  0.0430
  729MOL0     H98386  -0.504   0.913  11.287 -1.7205  1.1136 -1.3912
  729MOL0     H98387  -0.667   0.658  11.237 -1.9530  1.3344 -0.3338
  729MOL0     H98388  -0.624   0.717  11.393 -0.6249 -1.9193 -0.9552
  729MOL0     H98389  -0.782   0.868  11.181  1.8364  1.5130 -0.4830
  729MOL0     H98390  -0.749   0.931  11.343 -0.1077  0.3649 -1.5423
  729MOL0     H98391  -0.897   0.668  11.323 -0.2303 -0.3178 -0.4064
  729MOL0     H98392  -0.838   0.755  11.459  1.0772  2.3034 -0.0833
  729MOL0     H98393  -1.056   0.850  11.261 -1.9420  1.2666  0.1838
  729MOL0     H98394  -1.011   0.944  11.406 -0.6774  0.0697 -1.9017
  729MOL0     H98395  -1.103   0.758  11.556  0.4979  0.0453 -0.3181
  729MOL0     H98396  -1.138   0.669  11.416 -2.1411  0.6844  0.8834
  729MOL0     H98397  -0.012   0.804  11.204 -0.8322 -1.3474  0.9010
  729MOL0     H98398   0.198   0.813  11.118 -2.5980  1.2100  1.5111
  729MOL0     H98399   0.500   1.110  11.011  0.0688 -0.6547 -0.6479
  729MOL0     H98400   0.709   1.235  10.898 -3.3523  3.4471 -0.7425
  729MOL0     H98401   1.897   0.697   9.782  0.4509  0.2668 -2.6059
  729MOL0     H98402   2.153   0.706   9.815  1.2936  0.3891  1.3601
  729MOL0     H98403   2.545   0.846  10.160 -1.7401 -1.2723 -0.9862
  729MOL0     H98404   2.793   0.872  10.127  0.9695 -1.8799 -1.0273
  729MOL0     H98405   2.944   1.008   9.738  2.8376  0.3678 -2.4420
  729MOL0     H98406   2.962   1.150   9.835 -0.7653 -0.3470  0.4529
  729MOL0     H98407   3.180   1.082   9.905  0.2546 -1.7123  1.4658
  729MOL0     H98408   3.173   1.035   9.735 -3.0624 -0.5994 -1.0832
  729MOL0     H98409   3.146   0.804   9.786 -0.7615 -2.7401  3.3772
  729MOL0     H98410   3.101   0.835   9.952 -1.4454 -0.1273 -1.1373
  729MOL0     H98411   3.373   0.870   9.834  0.3456 -1.4182  0.0102
  729MOL0     H98412   3.317   0.739   9.935 -0.6173  0.0124 -0.4002
  729MOL0     H98413   3.410   1.050  10.231  2.7163 -1.2246  0.0087
  729MOL0     H98414   2.735   1.079   9.762  0.7301 -1.6520 -0.4165
  729MOL0     H98415   2.487   1.032   9.790 -0.6412  0.0678 -0.0429
  730MOL0     O98416   0.522   7.318   2.660  0.3322 -0.0513  0.3033
  730MOL0     C98417   0.564   7.206   2.686  1.4502 -0.6761  0.1868
  730MOL0     O98418   0.521   7.131   2.782 -1.2465  0.1138 -0.1884
  730MOL0     C98419   0.410   7.159   2.851 -0.0923  0.6181 -0.0919
  730MOL0     C98420   0.291   7.186   2.789 -0.3438  0.5956  0.1954
  730MOL0     C98421   0.185   7.220   2.876 -0.0612  0.0409  0.7223
  730MOL0     C98422   0.200   7.207   3.015 -0.8173 -0.1828  0.3310
  730MOL0     O98423   0.078   7.219   3.066  0.6084 -0.2689 -0.5630
  730MOL0     C98424   0.060   7.173   3.203  0.9850 -0.7102  0.6384
  730MOL0     C98425  -0.075   7.231   3.256 -0.4865  0.3470  0.5123
  730MOL0     C98426  -0.207   7.205   3.174  0.4927  0.4911  0.4717
  730MOL0     C98427  -0.237   7.064   3.165  0.5366 -0.5143  0.1047
  730MOL0     C98428  -0.377   7.036   3.105  0.5685 -0.8133  1.1560
  730MOL0     C98429  -0.387   6.888   3.062 -0.1654 -0.0504  0.0813
  730MOL0     C98430  -0.529   6.858   3.021  0.0927  0.1774  0.0183
  730MOL0     C98431  -0.531   6.727   2.939 -0.4830  0.5979 -0.1211
  730MOL0     N98432  -0.666   6.687   2.904  0.7810  0.7926  0.1016
  730MOL0     C98433  -0.731   6.735   2.794  0.4323  0.2072  0.0777
  730MOL0     C98434  -0.849   6.670   2.798 -0.9521  1.3390  1.3333
  730MOL0     C98435  -0.955   6.692   2.694 -0.3518 -0.9154 -0.0955
  730MOL0     C98436  -0.975   6.577   2.586 -0.0598  0.2626  0.6295
  730MOL0     C98437  -1.077   6.611   2.478  0.3609  0.8758 -0.1340
  730MOL0     C98438  -1.031   6.733   2.384 -0.1219  0.1288 -0.1216
  730MOL0     O98439  -1.139   6.773   2.292 -0.0186 -0.3217 -0.4019
  730MOL0     C98440  -1.144   6.719   2.163 -0.4691 -0.4892 -0.2302
  730MOL0     C98441  -1.047   6.639   2.099 -0.1773  1.2648 -0.2371
  730MOL0     C98442  -1.064   6.593   1.966 -0.5800  0.2386 -0.1313
  730MOL0     C98443  -0.951   6.514   1.908  0.0387  0.6825  0.0178
  730MOL0     C98444  -1.176   6.633   1.887 -0.2476 -1.1199  0.2411
  730MOL0     C98445  -1.219   6.595   1.742 -0.3273 -0.3142 -0.4145
  730MOL0     O98446  -1.351   6.619   1.713 -0.7518 -0.2276 -0.3117
  730MOL0     C98447  -1.418   6.574   1.606 -0.5228  0.3143  0.1991
  730MOL0     C98448  -1.550   6.618   1.584 -0.4020 -0.3316 -0.1285
  730MOL0     C98449  -1.621   6.570   1.470 -0.0939 -0.4586 -0.4158
  730MOL0     C98450  -1.569   6.473   1.384 -0.8553 -0.5924  0.1024
  730MOL0     O98451  -1.624   6.439   1.264  0.0471 -0.1659 -0.3664
  730MOL0     C98452  -1.704   6.320   1.265  0.1603  0.5815  0.1292
  730MOL0     C98453  -1.838   6.349   1.340 -0.8357 -0.0747  0.1801
  730MOL0     C98454  -1.948   6.249   1.314  0.4118  0.4290 -0.2033
  730MOL0     C98455  -1.996   6.232   1.172  0.0713  0.5527  0.7650
  730MOL0     C98456  -2.057   6.355   1.106  0.0613  0.5994  0.3176
  730MOL0     C98457  -2.193   6.377   1.162  0.0801  0.3266  0.2660
  730MOL0     C98458  -2.260   6.483   1.081  0.4829 -0.2148  0.2003
  730MOL0     C98459  -2.384   6.522   1.148  0.0311 -0.0993  0.7847
  730MOL0    Cl98460  -2.511   6.581   1.035 -0.0888  0.1447  0.3015
  730MOL0     C98461  -1.436   6.427   1.410 -0.2957  0.0962 -0.1247
  730MOL0     C98462  -1.358   6.484   1.519  0.1491  0.0937  0.3023
  730MOL0     O98463  -1.131   6.579   1.663  0.3012  0.6057 -0.6887
  730MOL0     C98464  -1.267   6.717   1.956  0.0660  0.0108 -0.2539
  730MOL0     C98465  -1.249   6.752   2.090 -0.5658  0.3699 -0.4167
  730MOL0     N98466  -0.848   6.591   2.906  0.6952 -0.5334 -0.1843
  730MOL0     N98467  -0.733   6.585   2.962  0.7901 -0.6657 -0.4418
  730MOL0     C98468   0.325   7.181   3.078  0.2601 -0.0311  0.3056
  730MOL0     C98469   0.437   7.164   2.993 -0.3259  0.2205 -0.1349
  730MOL0     C98470   0.693   7.164   2.610  0.2441  0.2202  0.3051
  730MOL0     C98471   0.745   7.258   2.527 -1.0639  0.3689 -0.2412
  730MOL0     C98472   0.866   7.225   2.459  0.2108  1.3967 -0.5796
  730MOL0     C98473   0.925   7.097   2.470 -0.1146 -0.7431  0.9257
  730MOL0     O98474   1.037   7.084   2.395 -0.0743  0.5293  0.1395
  730MOL0     C98475   1.121   6.971   2.427  0.6478  0.2915  0.8268
  730MOL0     C98476   1.241   6.959   2.325  1.2737 -0.8761 -0.0011
  730MOL0     C98477   1.360   7.045   2.368 -0.1774  0.1954  0.4684
  730MOL0     C98478   1.463   7.037   2.256 -0.3636 -0.5162  0.5260
  730MOL0     C98479   1.423   7.066   2.118  0.4119 -0.1642  0.0877
  730MOL0     C98480   1.409   7.112   2.002 -0.8449  0.4928  0.2875
  730MOL0     C98481   0.878   7.005   2.561  0.2679 -1.1468  0.1005
  730MOL0     C98482   0.758   7.035   2.628 -0.4433 -1.0029 -0.3919
  730MOL0     H98483   0.279   7.190   2.681 -1.7298  1.8147  0.3559
  730MOL0     H98484   0.086   7.246   2.843 -1.7680 -2.2457  3.5330
  730MOL0     H98485   0.057   7.065   3.218  0.0980 -0.8701 -0.5477
  730MOL0     H98486   0.140   7.216   3.264 -0.3107 -1.1562  2.7592
  730MOL0     H98487  -0.079   7.193   3.358 -0.0981 -1.2338 -0.0225
  730MOL0     H98488  -0.071   7.340   3.259  1.9647  0.3891 -0.9796
  730MOL0     H98489  -0.285   7.255   3.233  0.0768 -0.7897  1.0504
  730MOL0     H98490  -0.210   7.243   3.071 -3.0532 -3.1346 -1.0378
  730MOL0     H98491  -0.165   7.006   3.106 -0.1021 -1.0475 -0.1710
  730MOL0     H98492  -0.244   7.029   3.269  0.8469  2.2000  1.1049
  730MOL0     H98493  -0.444   7.071   3.183  3.5236  0.0836  3.4903
  730MOL0     H98494  -0.398   7.100   3.018  3.0383  1.8034  2.3102
  730MOL0     H98495  -0.323   6.883   2.973  0.2345 -0.2636  0.3784
  730MOL0     H98496  -0.339   6.820   3.133 -0.8130  0.3626  0.9308
  730MOL0     H98497  -0.594   6.847   3.109 -0.9121  2.5896 -0.3519
  730MOL0     H98498  -0.574   6.944   2.970 -0.4682  1.1624  2.0610
  730MOL0     H98499  -0.489   6.646   3.000  1.5410  0.3031 -1.8008
  730MOL0     H98500  -0.470   6.748   2.851 -1.1749  2.6351 -0.1642
  730MOL0     H98501  -0.687   6.808   2.726 -0.2340  0.4030 -0.1533
  730MOL0     H98502  -1.045   6.701   2.757  1.2106  0.1182  2.1410
  730MOL0     H98503  -0.935   6.790   2.648  1.5604 -0.5555  1.3837
  730MOL0     H98504  -0.996   6.481   2.635  1.2442 -0.1779  0.3921
  730MOL0     H98505  -0.884   6.561   2.527 -0.4554  0.5623 -0.0779
  730MOL0     H98506  -1.176   6.627   2.521  0.4478  4.1202 -0.8597
  730MOL0     H98507  -1.067   6.522   2.416  2.0611 -0.4722  1.9308
  730MOL0     H98508  -0.939   6.712   2.329  0.1789 -0.9614  0.7651
  730MOL0     H98509  -1.020   6.817   2.453 -0.7143  0.1494 -0.0463
  730MOL0     H98510  -0.954   6.615   2.150 -0.0862  0.3271 -0.8305
  730MOL0     H98511  -0.907   6.567   1.823  3.3218  0.0560  1.1596
  730MOL0     H98512  -0.870   6.492   1.978  0.0298 -1.2722 -0.5233
  730MOL0     H98513  -1.004   6.422   1.878 -1.5653  1.1058  1.4205
  730MOL0     H98514  -1.600   6.684   1.654  1.3848  1.0484 -0.0666
  730MOL0     H98515  -1.717   6.613   1.444  0.9728  0.2792 -3.5851
  730MOL0     H98516  -1.728   6.297   1.161  1.3172 -2.0615  0.3855
  730MOL0     H98517  -1.647   6.240   1.312 -0.9664  0.6916  1.7640
  730MOL0     H98518  -1.812   6.339   1.446 -1.0247 -1.5530  0.1163
  730MOL0     H98519  -1.873   6.449   1.313 -1.7377 -0.8638 -1.7946
  730MOL0     H98520  -2.039   6.269   1.370  0.6360  0.0247  0.3096
  730MOL0     H98521  -1.910   6.153   1.350 -1.8154  0.0821  1.3598
  730MOL0     H98522  -1.913   6.196   1.110  0.5437  2.6185  0.1199
  730MOL0     H98523  -2.063   6.145   1.171  1.1539 -0.4144 -2.9719
  730MOL0     H98524  -2.081   6.331   1.002 -1.3488 -2.7258  1.2735
  730MOL0     H98525  -1.993   6.444   1.107  0.9993  0.0724 -2.5418
  730MOL0     H98526  -2.252   6.285   1.155  1.2363 -0.2912 -3.6045
  730MOL0     H98527  -2.195   6.412   1.266 -0.8145  0.9562  0.0438
  730MOL0     H98528  -2.274   6.447   0.979  1.7314 -2.3528  0.7126
  730MOL0     H98529  -2.194   6.571   1.086 -2.6815  2.4215 -0.5526
  730MOL0     H98530  -2.368   6.607   1.215  2.1200 -1.4027  2.0692
  730MOL0     H98531  -2.433   6.438   1.198  0.1483 -1.0788 -0.6678
  730MOL0     H98532  -1.389   6.347   1.354 -3.0183 -1.1533 -0.7747
  730MOL0     H98533  -1.261   6.439   1.538 -0.3301 -2.3127 -2.1940
  730MOL0     H98534  -1.347   6.765   1.900  1.2000  0.7502 -1.2839
  730MOL0     H98535  -1.324   6.815   2.137 -1.7254 -2.3794  1.6123
  730MOL0     H98536   0.332   7.165   3.185  3.2595 -3.7509 -0.2189
  730MOL0     H98537   0.534   7.129   3.027  0.1462 -2.6629 -3.8333
  730MOL0     H98538   0.696   7.354   2.516 -2.5766  0.3487  4.3549
  730MOL0     H98539   0.910   7.288   2.382  1.1935  1.2620 -0.1483
  730MOL0     H98540   1.163   7.005   2.523  0.6594  0.8859  0.6136
  730MOL0     H98541   1.071   6.874   2.426  2.1157 -0.4945  0.4065
  730MOL0     H98542   1.210   6.998   2.228  1.4505 -0.7083  0.0102
  730MOL0     H98543   1.272   6.854   2.317  2.6336 -0.4284 -0.8428
  730MOL0     H98544   1.399   7.002   2.461 -0.2995 -0.3981  0.2441
  730MOL0     H98545   1.321   7.148   2.371 -0.1870  0.2631 -1.4022
  730MOL0     H98546   1.508   6.938   2.250 -2.0375 -1.2121 -2.5883
  730MOL0     H98547   1.546   7.102   2.284  0.5506 -1.5688  0.3159
  730MOL0     H98548   1.390   7.147   1.903  0.1605  0.4003  0.0498
  730MOL0     H98549   0.920   6.906   2.571 -0.3840 -1.3960  0.3859
  730MOL0     H98550   0.704   6.959   2.683  1.1940 -1.0613  1.2059
  731MOL0     O98551   8.740   1.959   2.040 -0.2078 -0.1920 -0.3948
  731MOL0     C98552   8.786   1.940   1.929 -0.3368 -0.7411 -0.9583
  731MOL0     O98553   8.709   1.934   1.813  0.4360 -0.3543 -0.4838
  731MOL0     C98554   8.571   1.934   1.808  0.5529  0.7907  0.7067
  731MOL0     C98555   8.486   1.872   1.909  0.6411 -0.3335  0.5639
  731MOL0     C98556   8.350   1.867   1.895  0.9143 -0.0708  0.3969
  731MOL0     C98557   8.287   1.924   1.783  0.6719  0.0488  1.1125
  731MOL0     O98558   8.152   1.930   1.765  0.6593 -0.2949 -0.7149
  731MOL0     C98559   8.113   1.871   1.644  1.0433  0.1481 -0.2194
  731MOL0     C98560   7.970   1.816   1.652  0.3980 -0.5383  0.9618
  731MOL0     C98561   7.852   1.916   1.681 -0.2694  0.1525  0.4613
  731MOL0     C98562   7.764   1.834   1.765  0.4008  0.1231  0.5715
  731MOL0     C98563   7.651   1.930   1.793  0.4444  0.0131 -0.5677
  731MOL0     C98564   7.585   1.889   1.933 -0.6546  0.3850  1.1537
  731MOL0     C98565   7.500   1.998   1.987  0.9026 -0.1963  0.7465
  731MOL0     C98566   7.372   2.020   1.895 -0.0345 -0.8068 -0.3644
  731MOL0     N98567   7.286   2.129   1.948 -0.1547 -0.5956 -0.7506
  731MOL0     C98568   7.159   2.150   1.914 -0.3400  0.0666  0.6093
  731MOL0     C98569   7.116   2.255   1.993  0.5532  0.3191  0.9109
  731MOL0     C98570   6.980   2.317   2.001 -0.4809 -0.2744 -0.8777
  731MOL0     C98571   6.934   2.365   2.136 -0.3284  0.0314  0.0473
  731MOL0     C98572   6.927   2.260   2.247 -0.7037 -0.4517  0.1954
  731MOL0     C98573   6.798   2.175   2.246 -0.1530  0.2457 -0.4880
  731MOL0     O98574   6.689   2.261   2.252 -0.6831 -0.2716 -0.0403
  731MOL0     C98575   6.561   2.212   2.220 -0.6998 -0.4231  0.5222
  731MOL0     C98576   6.466   2.302   2.163  0.0171 -0.7582 -0.5100
  731MOL0     C98577   6.339   2.270   2.116 -0.3331 -0.6698 -0.3587
  731MOL0     C98578   6.266   2.372   2.039 -0.2811 -0.2242  0.5833
  731MOL0     C98579   6.291   2.145   2.145  0.1446 -1.3751  0.6823
  731MOL0     C98580   6.150   2.106   2.127  0.1702 -0.2923 -0.5870
  731MOL0     O98581   6.057   2.215   2.142 -0.0873  0.5152 -0.3091
  731MOL0     C98582   5.932   2.177   2.104  0.6655  0.3034  0.8532
  731MOL0     C98583   5.867   2.227   1.992  0.0429  0.0924 -0.0035
  731MOL0     C98584   5.744   2.191   1.945  0.3213  0.5068  0.7866
  731MOL0     C98585   5.679   2.080   2.010  0.8866 -0.0086  1.1883
  731MOL0     O98586   5.573   2.019   1.954 -0.6611 -0.0771  0.2948
  731MOL0     C98587   5.443   2.078   1.964  0.1459  0.5053 -0.4165
  731MOL0     C98588   5.390   2.072   2.108  0.0404 -0.4861 -0.5532
  731MOL0     C98589   5.242   2.120   2.099 -0.7158 -0.6471 -0.5701
  731MOL0     C98590   5.191   2.118   2.245  0.1652  0.5401 -0.0035
  731MOL0     C98591   5.154   1.978   2.302 -0.4984 -0.3917 -0.6296
  731MOL0     C98592   5.051   1.989   2.413  0.1636 -0.9442  0.4981
  731MOL0     C98593   5.020   1.854   2.476  0.9456  0.4781 -0.9156
  731MOL0     C98594   4.913   1.865   2.591  0.4546  0.3393  0.0528
  731MOL0    Cl98595   4.893   1.709   2.677  0.4542 -0.7483  0.2184
  731MOL0     C98596   5.730   2.035   2.134 -0.0000  0.7982  0.8609
  731MOL0     C98597   5.847   2.094   2.180  0.2575 -0.3339 -0.8180
  731MOL0     O98598   6.119   1.984   2.109 -0.8207 -0.1240 -0.2251
  731MOL0     C98599   6.377   2.046   2.193 -0.4109 -0.1237  0.0217
  731MOL0     C98600   6.509   2.079   2.226  0.0452  0.1468  0.0542
  731MOL0     N98601   7.228   2.308   2.059 -0.0810  0.6776  0.3961
  731MOL0     N98602   7.327   2.236   2.021  0.1794  0.2723  0.2325
  731MOL0     C98603   8.368   1.979   1.681 -0.4247  0.1408  0.2553
  731MOL0     C98604   8.503   1.982   1.696 -0.3853 -0.2706  0.0040
  731MOL0     C98605   8.936   1.930   1.928 -1.1016  0.0715  0.4683
  731MOL0     C98606   9.022   1.926   2.044 -0.7097 -1.3630  0.4133
  731MOL0     C98607   9.166   1.932   2.034  0.6890  0.2050 -0.3304
  731MOL0     C98608   9.222   1.937   1.902 -1.4098 -0.4554 -0.1762
  731MOL0     O98609   9.354   1.961   1.879  0.2329 -0.8124 -0.3226
  731MOL0     C98610   9.454   1.951   1.978 -0.0690 -0.2000  0.1179
  731MOL0     C98611   9.589   1.965   1.899 -0.1822 -0.1811  0.4914
  731MOL0     C98612   9.712   1.972   1.997  0.2019 -0.4648  0.0499
  731MOL0     C98613   9.749   1.857   2.082 -0.3039  0.5334 -0.4374
  731MOL0     C98614   9.764   1.729   2.007 -0.9255 -0.9219  0.0256
  731MOL0     C98615   9.768   1.625   1.952  0.1662  0.4528 -0.4128
  731MOL0     C98616   9.147   1.941   1.783 -0.0966  0.2744  0.3158
  731MOL0     C98617   9.011   1.927   1.800  0.1125  0.8901  0.0917
  731MOL0     H98618   8.538   1.826   1.993 -1.4142  0.0891  2.1377
  731MOL0     H98619   8.295   1.827   1.980  2.1150  1.4456  1.9602
  731MOL0     H98620   8.117   1.938   1.559  2.2245  1.0847  0.5399
  731MOL0     H98621   8.172   1.784   1.614  0.0823 -0.4079 -0.5363
  731MOL0     H98622   7.940   1.764   1.560 -2.8206  1.1955  0.8849
  731MOL0     H98623   7.976   1.740   1.731  1.6949  1.3525  2.8019
  731MOL0     H98624   7.892   2.003   1.735  0.1383  0.6166 -0.5677
  731MOL0     H98625   7.800   1.958   1.595  0.7507  3.9114  1.4833
  731MOL0     H98626   7.722   1.750   1.708  1.5748  0.1244 -0.3135
  731MOL0     H98627   7.811   1.791   1.854 -2.1966 -2.9561  0.6691
  731MOL0     H98628   7.691   2.031   1.806 -0.4094  0.2368  0.5536
  731MOL0     H98629   7.577   1.933   1.713 -3.4152 -2.1155  2.5429
  731MOL0     H98630   7.530   1.798   1.908 -0.4444  1.1053 -2.6712
  731MOL0     H98631   7.655   1.850   2.007  0.6822 -1.4515 -0.9520
  731MOL0     H98632   7.465   1.963   2.084 -2.6028  1.6729  0.3385
  731MOL0     H98633   7.560   2.089   1.992  1.4575 -0.5521  0.6312
  731MOL0     H98634   7.334   1.918   1.883  0.7677 -1.1517 -0.0138
  731MOL0     H98635   7.397   2.058   1.795  3.7477  1.2549  1.1803
  731MOL0     H98636   7.102   2.084   1.850  0.3035  2.5912 -2.8333
  731MOL0     H98637   6.978   2.406   1.937 -0.6749  0.7858  0.5648
  731MOL0     H98638   6.901   2.245   1.975  0.0025 -1.2710  0.3063
  731MOL0     H98639   6.840   2.421   2.132 -0.0178  0.6449  1.1388
  731MOL0     H98640   7.004   2.446   2.158  1.0261 -0.7621 -1.1299
  731MOL0     H98641   6.933   2.322   2.337  1.7385 -1.4839  0.8190
  731MOL0     H98642   7.020   2.203   2.243  0.4174  1.0098 -6.8473
  731MOL0     H98643   6.796   2.112   2.336 -2.2423 -0.2201 -0.8066
  731MOL0     H98644   6.792   2.118   2.153 -3.2913  2.9057 -2.1124
  731MOL0     H98645   6.508   2.402   2.150 -1.2409  0.6277  4.1900
  731MOL0     H98646   6.218   2.321   1.955 -1.2824 -0.2510  1.1543
  731MOL0     H98647   6.180   2.414   2.092 -0.0608  2.5480 -1.0931
  731MOL0     H98648   6.324   2.457   2.003 -3.4922  1.4260 -1.0540
  731MOL0     H98649   5.913   2.304   1.931  1.3464  0.0767  0.9244
  731MOL0     H98650   5.693   2.246   1.867  0.2308 -0.1786  0.3563
  731MOL0     H98651   5.442   2.184   1.936  0.0471  0.9233  1.1310
  731MOL0     H98652   5.370   2.028   1.899  0.3595 -1.1382  0.5393
  731MOL0     H98653   5.394   1.969   2.146 -0.5437 -1.7506 -3.6605
  731MOL0     H98654   5.440   2.143   2.175 -2.9895  3.2196 -1.8781
  731MOL0     H98655   5.179   2.059   2.034 -3.6086  0.5228  0.9661
  731MOL0     H98656   5.253   2.219   2.056  1.4380  0.3230  1.9083
  731MOL0     H98657   5.255   2.174   2.314 -0.3343  2.0777 -0.7442
  731MOL0     H98658   5.102   2.181   2.250  0.0583  0.3842  0.0446
  731MOL0     H98659   5.245   1.930   2.339  0.3232  0.1622 -1.8593
  731MOL0     H98660   5.122   1.919   2.215  0.5779  0.1924 -1.4519
  731MOL0     H98661   5.076   2.055   2.496 -1.3732  1.7241 -1.0127
  731MOL0     H98662   4.951   2.013   2.375 -0.0482 -2.7618 -0.2002
  731MOL0     H98663   5.113   1.818   2.521  0.1153 -1.6174 -0.7550
  731MOL0     H98664   5.000   1.769   2.410  4.1161 -1.6451  0.6385
  731MOL0     H98665   4.820   1.893   2.542  1.6918  2.5828 -1.1422
  731MOL0     H98666   4.939   1.937   2.669  0.9444  0.4309 -0.1921
  731MOL0     H98667   5.671   1.961   2.185 -0.1992  0.2281 -0.1696
  731MOL0     H98668   5.891   2.063   2.275  1.0599  0.4724 -0.9115
  731MOL0     H98669   6.341   1.944   2.192 -1.1089  0.0531 -3.0539
  731MOL0     H98670   6.569   1.997   2.264 -0.5386 -0.1381  0.3690
  731MOL0     H98671   8.325   2.004   1.585  0.9118  2.5651  0.2118
  731MOL0     H98672   8.563   2.010   1.609  0.0826 -0.3462  0.2976
  731MOL0     H98673   8.994   1.949   2.146 -0.3129 -0.6990  0.3747
  731MOL0     H98674   9.226   1.917   2.123  0.8806 -2.7797 -0.8589
  731MOL0     H98675   9.442   2.033   2.050 -4.7785  1.3662 -2.0461
  731MOL0     H98676   9.439   1.865   2.044  1.0244 -0.1511  0.4482
  731MOL0     H98677   9.586   2.047   1.826 -1.2232 -2.3352 -2.0346
  731MOL0     H98678   9.590   1.875   1.838  1.5201 -0.1007  0.3665
  731MOL0     H98679   9.684   2.056   2.061 -0.8434 -0.6550 -0.1385
  731MOL0     H98680   9.795   2.005   1.932 -0.9590  3.9001  0.4944
  731MOL0     H98681   9.670   1.844   2.157  0.5231  0.6606  0.4691
  731MOL0     H98682   9.836   1.871   2.146 -1.8561  2.0543  1.4683
  731MOL0     H98683   9.781   1.528   1.908 -0.4832  0.0631  0.2190
  731MOL0     H98684   9.184   1.952   1.681  2.5165  1.9381  1.3526
  731MOL0     H98685   8.959   1.908   1.707 -0.3856 -2.6658  0.9371
  732MOL0     O98686   2.712   1.474   0.107 -0.2464 -0.5103  0.0347
  732MOL0     C98687   2.711   1.593   0.071 -0.0955 -0.3790  0.2166
  732MOL0     O98688   2.616   1.649   0.001  0.8066  0.1187 -0.0222
  732MOL0     C98689   2.501   1.579  -0.037  0.2686 -0.1780  0.9098
  732MOL0     C98690   2.440   1.606  -0.158 -0.5656 -0.1355  0.3664
  732MOL0     C98691   2.328   1.540  -0.205 -0.2330 -0.2511 -0.2817
  732MOL0     C98692   2.254   1.455  -0.123 -0.3317 -0.3432  0.6778
  732MOL0     O98693   2.147   1.391  -0.182  0.5708  0.8280  0.2840
  732MOL0     C98694   2.100   1.257  -0.132 -0.0392 -0.1166  0.1416
  732MOL0     C98695   1.990   1.199  -0.216 -0.5262  0.0533 -0.4626
  732MOL0     C98696   1.848   1.242  -0.175 -0.6114 -0.1934 -0.0785
  732MOL0     C98697   1.763   1.254  -0.304 -0.5988  0.1007  0.1327
  732MOL0     C98698   1.616   1.239  -0.275 -0.1073 -0.7852  0.0456
  732MOL0     C98699   1.529   1.202  -0.400  0.4629 -0.0093  0.3874
  732MOL0     C98700   1.384   1.146  -0.367 -0.2601 -0.3187  0.3798
  732MOL0     C98701   1.368   0.996  -0.397 -0.7409  0.3681 -0.8753
  732MOL0     N98702   1.226   0.954  -0.386 -0.3334 -0.2367  0.5539
  732MOL0     C98703   1.179   0.920  -0.265  1.5573  0.3626 -0.3658
  732MOL0     C98704   1.041   0.934  -0.290 -0.5700 -0.0874 -0.0748
  732MOL0     C98705   0.937   0.903  -0.182 -0.5152  1.0135 -0.4298
  732MOL0     C98706   0.904   0.751  -0.195 -0.3960  0.3024  0.1806
  732MOL0     C98707   0.788   0.708  -0.107  0.3467  0.3981  0.1951
  732MOL0     C98708   0.767   0.558  -0.120  0.0351  0.5763  0.0783
  732MOL0     O98709   0.666   0.532  -0.027  0.1998  0.4837  0.1853
  732MOL0     C98710   0.628   0.405   0.002  0.1277  0.2954 -0.0110
  732MOL0     C98711   0.690   0.290  -0.043 -0.0908  0.7966  0.3423
  732MOL0     C98712   0.667   0.163  -0.002  0.6444  0.5780 -0.7760
  732MOL0     C98713   0.746   0.048  -0.058 -1.5915  0.3572  0.2916
  732MOL0     C98714   0.554   0.138   0.084  0.2006 -0.2772  1.0264
  732MOL0     C98715   0.506   0.007   0.113  0.1661 -0.5210 -0.4400
  732MOL0     O98716   0.441  -0.012   0.230 -0.5105 -0.1225  0.6395
  732MOL0     C98717   0.383  -0.131   0.256  0.3238 -0.1488 -0.3437
  732MOL0     C98718   0.428  -0.252   0.220 -0.4823 -0.1475  0.5293
  732MOL0     C98719   0.365  -0.377   0.263 -0.0754 -0.3061 -0.3818
  732MOL0     C98720   0.257  -0.378   0.339 -0.1814 -0.3643 -0.4585
  732MOL0     O98721   0.216  -0.500   0.390 -0.2674  0.0332  0.2516
  732MOL0     C98722   0.128  -0.490   0.505  0.2317  0.2128  0.1620
  732MOL0     C98723   0.073  -0.625   0.563  0.3209  0.1707 -0.2594
  732MOL0     C98724  -0.015  -0.706   0.467  0.8336  0.5318  0.0244
  732MOL0     C98725  -0.152  -0.658   0.432  0.2723  0.8238  0.5533
  732MOL0     C98726  -0.248  -0.618   0.553 -0.4139 -0.2537 -0.7172
  732MOL0     C98727  -0.375  -0.548   0.514  0.1521  0.0654 -1.0622
  732MOL0     C98728  -0.472  -0.555   0.635  0.5220  0.3829  0.3495
  732MOL0     C98729  -0.617  -0.516   0.593 -0.4165  0.6988 -1.3571
  732MOL0    Cl98730  -0.617  -0.357   0.523  0.0625  0.1506  0.9964
  732MOL0     C98731   0.199  -0.250   0.378  0.0632  1.0003  1.0456
  732MOL0     C98732   0.265  -0.133   0.335 -0.1771  0.2978  0.8165
  732MOL0     O98733   0.495  -0.073   0.019 -0.2086  0.9787 -0.0891
  732MOL0     C98734   0.500   0.255   0.144  0.0885  0.1635 -1.1156
  732MOL0     C98735   0.538   0.382   0.097  0.5834  0.3839 -0.3654
  732MOL0     N98736   1.021   0.970  -0.423  0.5495  0.6433  0.6262
  732MOL0     N98737   1.137   0.991  -0.481 -0.2423 -1.2692  0.4463
  732MOL0     C98738   2.313   1.432   0.000  0.7097  0.1846  0.0338
  732MOL0     C98739   2.432   1.491   0.041  0.5520 -0.3375 -1.0911
  732MOL0     C98740   2.825   1.669   0.089 -1.0518  0.3664 -0.5492
  732MOL0     C98741   2.836   1.807   0.055  0.0131 -0.6398 -0.5321
  732MOL0     C98742   2.936   1.892   0.099 -0.4002  0.3110  0.5161
  732MOL0     C98743   3.041   1.835   0.173  0.2556  0.2821 -0.3674
  732MOL0     O98744   3.146   1.909   0.213  0.1636  0.4852  0.1937
  732MOL0     C98745   3.274   1.853   0.183  0.4764  0.5539 -0.7094
  732MOL0     C98746   3.339   1.919   0.065 -0.0310  0.8403  0.5885
  732MOL0     C98747   3.383   2.063   0.087  0.6363  0.0086  0.1668
  732MOL0     C98748   3.461   2.114  -0.030 -0.8176 -0.2527  0.3540
  732MOL0     C98749   3.581   2.043  -0.068 -0.1092  0.2933 -0.0494
  732MOL0     C98750   3.695   1.998  -0.080  0.2501 -0.2396 -0.1555
  732MOL0     C98751   3.035   1.699   0.205 -0.6903 -0.3019 -0.2947
  732MOL0     C98752   2.937   1.615   0.152 -0.3966 -0.1073 -0.4434
  732MOL0     H98753   2.492   1.677  -0.221  0.9198 -1.2245  0.3059
  732MOL0     H98754   2.295   1.561  -0.306 -1.2669 -1.7383 -0.2808
  732MOL0     H98755   2.189   1.197  -0.148 -0.2805 -0.0404 -1.8580
  732MOL0     H98756   2.058   1.259  -0.031 -1.5169  0.1479 -0.4497
  732MOL0     H98757   2.015   1.226  -0.319  3.0291  0.5733  0.4089
  732MOL0     H98758   1.991   1.089  -0.219 -2.0547 -0.0001  0.3620
  732MOL0     H98759   1.805   1.172  -0.103 -0.8343 -1.2841 -1.2535
  732MOL0     H98760   1.855   1.337  -0.121 -3.0736  0.1334 -0.2494
  732MOL0     H98761   1.782   1.349  -0.355 -0.9306 -0.0227 -0.2230
  732MOL0     H98762   1.790   1.173  -0.372  0.8315  1.3647 -0.9052
  732MOL0     H98763   1.600   1.153  -0.209  2.6522 -0.2316  1.5862
  732MOL0     H98764   1.578   1.330  -0.226  0.7006 -0.1353 -0.5182
  732MOL0     H98765   1.522   1.293  -0.461  1.5503  0.3940  0.8243
  732MOL0     H98766   1.588   1.125  -0.450  1.1148  2.1834 -2.5225
  732MOL0     H98767   1.365   1.163  -0.261  0.9448 -0.8340  0.6897
  732MOL0     H98768   1.310   1.209  -0.418  3.0678  3.5474 -0.1848
  732MOL0     H98769   1.426   0.939  -0.323  0.0812  1.0914 -0.9472
  732MOL0     H98770   1.407   0.980  -0.499  1.1647 -0.8147 -0.0292
  732MOL0     H98771   1.228   0.901  -0.170 -0.7355  0.1407  0.8512
  732MOL0     H98772   0.982   0.921  -0.084  0.8914  0.9352 -1.0347
  732MOL0     H98773   0.844   0.954  -0.210 -2.7984 -3.3640 -1.8630
  732MOL0     H98774   0.985   0.689  -0.156 -2.6318 -1.5944  2.0764
  732MOL0     H98775   0.884   0.728  -0.300 -2.6244  0.3534  0.5615
  732MOL0     H98776   0.701   0.771  -0.125  1.4977  2.3623  1.0911
  732MOL0     H98777   0.820   0.715  -0.002  2.7216 -2.2436 -0.2376
  732MOL0     H98778   0.862   0.509  -0.097  0.7446  0.5840 -2.5027
  732MOL0     H98779   0.743   0.537  -0.224 -3.3227  2.2727  0.3572
  732MOL0     H98780   0.766   0.306  -0.119 -2.5423 -1.0248 -2.7351
  732MOL0     H98781   0.754  -0.037   0.010 -0.0909 -1.2225 -1.7340
  732MOL0     H98782   0.697   0.001  -0.144 -0.4277 -3.4833  1.5602
  732MOL0     H98783   0.849   0.075  -0.081 -1.1266 -1.2160  0.4295
  732MOL0     H98784   0.517  -0.273   0.161  0.6840 -0.6341  2.3633
  732MOL0     H98785   0.402  -0.477   0.243 -0.5171 -0.5673  0.0709
  732MOL0     H98786   0.180  -0.441   0.588 -1.1924  1.3037  0.4548
  732MOL0     H98787   0.038  -0.442   0.465  0.1826 -1.0344 -1.3574
  732MOL0     H98788   0.155  -0.691   0.593 -0.0346  0.2614  1.0032
  732MOL0     H98789   0.013  -0.593   0.649  0.5474  0.9265 -0.3744
  732MOL0     H98790  -0.035  -0.804   0.511 -1.2431  0.6712 -0.5285
  732MOL0     H98791   0.051  -0.728   0.382  2.7471  1.4835  1.2030
  732MOL0     H98792  -0.145  -0.571   0.366 -0.6682 -0.2630 -1.0386
  732MOL0     H98793  -0.202  -0.742   0.383 -1.5095  2.0901  0.0819
  732MOL0     H98794  -0.195  -0.551   0.622  0.1199  0.0081 -1.3729
  732MOL0     H98795  -0.263  -0.708   0.613  2.1811 -0.5652 -0.4468
  732MOL0     H98796  -0.361  -0.442   0.490  3.8089 -0.2916 -1.1253
  732MOL0     H98797  -0.419  -0.599   0.428  1.6109 -1.1405 -1.1327
  732MOL0     H98798  -0.451  -0.487   0.719  0.5782  2.0385 -0.9663
  732MOL0     H98799  -0.479  -0.661   0.660 -2.2599  0.5650  0.6921
  732MOL0     H98800  -0.681  -0.515   0.683 -1.1389 -1.2846 -1.8042
  732MOL0     H98801  -0.654  -0.588   0.521  0.9131 -0.9372 -0.4621
  732MOL0     H98802   0.112  -0.236   0.442  1.6964  1.0210  3.3875
  732MOL0     H98803   0.217  -0.039   0.363 -1.2740  0.3344 -0.9894
  732MOL0     H98804   0.428   0.239   0.222  1.7859 -2.0312  0.1155
  732MOL0     H98805   0.489   0.460   0.155  0.0675 -1.6509  2.1195
  732MOL0     H98806   2.263   1.369   0.074 -0.5046  3.2385  2.0405
  732MOL0     H98807   2.480   1.483   0.138 -0.2908  0.7874 -0.5507
  732MOL0     H98808   2.752   1.851   0.003 -0.7648  0.9309  1.8561
  732MOL0     H98809   2.938   1.998   0.076  2.2815  0.2980  0.3626
  732MOL0     H98810   3.333   1.881   0.271 -1.0316 -0.5782  0.7256
  732MOL0     H98811   3.281   1.745   0.168 -1.6472  0.0048  1.6010
  732MOL0     H98812   3.267   1.924  -0.017 -1.1792 -0.5684  1.4551
  732MOL0     H98813   3.430   1.872   0.024  0.2232  2.4800 -0.8568
  732MOL0     H98814   3.456   2.065   0.169  3.0011 -1.8918 -1.7773
  732MOL0     H98815   3.296   2.123   0.118 -0.9121 -2.0084 -0.1070
  732MOL0     H98816   3.504   2.207   0.010 -2.0261  0.6695 -0.4274
  732MOL0     H98817   3.395   2.135  -0.114 -1.8076 -2.8915  0.3645
  732MOL0     H98818   3.792   1.953  -0.086 -0.7058 -2.4113 -0.3880
  732MOL0     H98819   3.116   1.654   0.261  1.0649  3.0302  0.1517
  732MOL0     H98820   2.961   1.511   0.174  0.0936  0.1480  0.2701
  733MOL0     O98821  10.147   2.843   5.849  0.0541  0.7927 -0.0072
  733MOL0     C98822  10.234   2.833   5.769 -0.2924 -0.9444  0.2712
  733MOL0     O98823  10.234   2.896   5.645 -0.9569  0.2128 -0.5599
  733MOL0     C98824  10.129   2.958   5.595  0.7663 -0.7544  0.2052
  733MOL0     C98825   9.994   2.958   5.637  0.1251 -0.4611  0.4622
  733MOL0     C98826   9.895   3.012   5.559  0.7286 -0.9861 -1.1875
  733MOL0     C98827   9.925   3.086   5.443  0.2012 -0.0554  0.6873
  733MOL0     O98828   9.841   3.153   5.352 -0.9692  0.2734 -0.3884
  733MOL0     C98829   9.711   3.165   5.383 -0.2378 -0.5935 -0.1651
  733MOL0     C98830   9.675   3.289   5.465  0.2561 -0.4518 -1.0168
  733MOL0     C98831   9.698   3.419   5.398  0.0318 -0.4358  0.3804
  733MOL0     C98832   9.656   3.536   5.481 -1.3102 -0.5818  0.2451
  733MOL0     C98833   9.505   3.554   5.486  0.1032  0.9152  0.2164
  733MOL0     C98834   9.418   3.541   5.361  0.3685  0.3907  0.4952
  733MOL0     C98835   9.451   3.650   5.261 -0.0446 -0.1416 -0.5656
  733MOL0     C98836   9.363   3.622   5.137 -0.2937  0.0768 -0.2210
  733MOL0     N98837   9.213   3.624   5.159 -0.6390 -0.7167 -0.1576
  733MOL0     C98838   9.139   3.730   5.219  0.1173  0.0949  0.0073
  733MOL0     C98839   9.010   3.690   5.194  0.1059  1.0556 -0.7089
  733MOL0     C98840   8.892   3.771   5.236 -1.0948 -0.0272  0.7277
  733MOL0     C98841   8.768   3.750   5.162 -0.2378  0.9399 -0.2767
  733MOL0     C98842   8.779   3.804   5.012  0.6069  1.0768 -0.0471
  733MOL0     C98843   8.645   3.817   4.948  0.2855  0.3642 -0.1358
  733MOL0     O98844   8.664   3.866   4.806 -0.0639  0.7121 -0.2968
  733MOL0     C98845   8.554   3.924   4.741 -0.6010  0.5988  0.1219
  733MOL0     C98846   8.429   3.939   4.803 -0.5283 -0.5297 -0.5442
  733MOL0     C98847   8.315   3.989   4.739 -0.4045  0.4042 -0.1444
  733MOL0     C98848   8.188   3.980   4.821  0.5669  0.1019 -0.0190
  733MOL0     C98849   8.326   4.040   4.607  0.1060  0.7800  0.1875
  733MOL0     C98850   8.210   4.080   4.523 -0.0926 -0.2800  0.4034
  733MOL0     O98851   8.241   4.106   4.396 -0.6032  0.0236 -0.9375
  733MOL0     C98852   8.154   4.197   4.339  0.4871 -0.9030 -0.0963
  733MOL0     C98853   8.027   4.159   4.292 -0.3082 -0.1999 -0.2859
  733MOL0     C98854   7.944   4.256   4.239  0.8748  0.0619  0.2640
  733MOL0     C98855   7.977   4.393   4.240  0.2046 -0.1782 -0.2666
  733MOL0     O98856   7.889   4.486   4.187 -0.4931 -0.2570 -0.3986
  733MOL0     C98857   7.923   4.617   4.160  0.0546  0.3061  0.5016
  733MOL0     C98858   7.803   4.685   4.089 -0.0041  0.3822  0.4404
  733MOL0     C98859   7.683   4.683   4.181  0.2577 -0.6888 -0.1751
  733MOL0     C98860   7.560   4.737   4.098 -0.3587  1.0323 -1.2731
  733MOL0     C98861   7.425   4.728   4.176  0.9700  0.1449  0.2614
  733MOL0     C98862   7.408   4.824   4.295  0.1274  0.0965 -0.3141
  733MOL0     C98863   7.293   4.776   4.386 -0.3452 -0.0797 -0.1536
  733MOL0     C98864   7.247   4.867   4.505 -0.3255  0.6756  0.0785
  733MOL0    Cl98865   7.175   5.025   4.454 -0.0786  0.2038 -0.1749
  733MOL0     C98866   8.104   4.426   4.299  0.5525 -1.2106 -1.5049
  733MOL0     C98867   8.192   4.333   4.344  0.3002 -0.8016 -0.1644
  733MOL0     O98868   8.094   4.090   4.567 -0.1705 -0.5123 -0.4886
  733MOL0     C98869   8.457   4.048   4.556  0.4557 -0.2596  0.9471
  733MOL0     C98870   8.567   3.995   4.621 -0.1521 -0.2166 -0.4290
  733MOL0     N98871   9.012   3.572   5.128  0.3252  0.4464  1.0056
  733MOL0     N98872   9.133   3.530   5.108  0.0006 -0.7351  1.5568
  733MOL0     C98873  10.055   3.081   5.396  0.5447 -1.4739  1.1452
  733MOL0     C98874  10.151   3.017   5.469 -0.0596  0.6526  0.7075
  733MOL0     C98875  10.362   2.758   5.808  0.7076 -0.1185  0.0510
  733MOL0     C98876  10.368   2.691   5.930  0.2103  0.3133  0.6495
  733MOL0     C98877  10.479   2.602   5.957  0.5623 -0.0419 -0.2822
  733MOL0     C98878  10.587   2.605   5.882 -0.5217  0.0001 -0.1025
  733MOL0     O98879  10.686   2.531   5.937  0.0931 -0.1221  0.9062
  733MOL0     C98880  10.812   2.522   5.860  0.5434 -0.1388  0.7557
  733MOL0     C98881  10.922   2.492   5.959  0.5613 -0.3279 -0.1807
  733MOL0     C98882  10.908   2.347   6.017  0.5035 -0.0366 -0.0902
  733MOL0     C98883  11.012   2.306   6.109 -0.3821 -0.1746 -0.0125
  733MOL0     C98884  11.011   2.368   6.238 -0.6019 -1.0121  0.0695
  733MOL0     C98885  10.986   2.411   6.350 -0.2446  1.5542 -0.0481
  733MOL0     C98886  10.584   2.680   5.765 -0.8437  0.1702  0.6968
  733MOL0     C98887  10.475   2.760   5.732 -0.1423 -1.1604  0.3908
  733MOL0     H98888   9.952   2.910   5.725  1.2224 -2.3103  0.0473
  733MOL0     H98889   9.791   3.008   5.591  1.1200  1.0796  0.5504
  733MOL0     H98890   9.663   3.171   5.285  2.4013 -0.4207 -1.5473
  733MOL0     H98891   9.667   3.078   5.432  0.5956 -2.5580 -2.7041
  733MOL0     H98892   9.582   3.276   5.521  1.3348  0.7053  1.1672
  733MOL0     H98893   9.747   3.292   5.547  1.2904  0.2287 -1.9235
  733MOL0     H98894   9.805   3.423   5.375 -0.0068 -2.7270 -0.3916
  733MOL0     H98895   9.658   3.431   5.297  3.3080  2.1161 -0.7755
  733MOL0     H98896   9.696   3.524   5.582  0.3233 -0.8643 -0.4096
  733MOL0     H98897   9.689   3.634   5.445 -0.4484 -0.2492  1.8419
  733MOL0     H98898   9.472   3.470   5.549 -0.5787  1.4757  0.6255
  733MOL0     H98899   9.484   3.656   5.519 -2.5494  1.3073 -2.2186
  733MOL0     H98900   9.425   3.440   5.318 -0.1043  1.0767 -1.2672
  733MOL0     H98901   9.312   3.556   5.383  0.3113 -1.2514  1.5473
  733MOL0     H98902   9.433   3.745   5.313 -0.3531 -0.2625 -0.4498
  733MOL0     H98903   9.558   3.642   5.240 -0.3650  1.9074 -3.5629
  733MOL0     H98904   9.396   3.525   5.097  0.0812 -0.1109  0.5140
  733MOL0     H98905   9.386   3.685   5.051  1.3015 -1.7793 -1.2586
  733MOL0     H98906   9.170   3.822   5.268  0.5062  0.6627 -1.2671
  733MOL0     H98907   8.876   3.765   5.344  1.8766 -4.3207  1.1760
  733MOL0     H98908   8.916   3.874   5.208  0.6838 -0.1446  1.6700
  733MOL0     H98909   8.688   3.802   5.216  3.6602  3.1577  4.2371
  733MOL0     H98910   8.741   3.645   5.156 -1.5563  1.3605 -4.4525
  733MOL0     H98911   8.846   3.734   4.961  0.8383  1.2396  0.0286
  733MOL0     H98912   8.830   3.900   5.017  1.4282  0.8045 -2.1651
  733MOL0     H98913   8.593   3.884   5.017  2.8824  1.1751  1.1679
  733MOL0     H98914   8.581   3.729   4.936 -2.3647  2.1045  0.1949
  733MOL0     H98915   8.411   3.890   4.899  2.1405 -1.7479 -0.5916
  733MOL0     H98916   8.210   3.987   4.928 -1.1432  1.7768  0.2919
  733MOL0     H98917   8.129   4.066   4.789  0.1015 -0.1912  0.0404
  733MOL0     H98918   8.126   3.891   4.805 -0.6198  0.8894 -0.0008
  733MOL0     H98919   8.005   4.055   4.308  2.5392 -0.7979  0.2848
  733MOL0     H98920   7.849   4.228   4.196  1.0883 -0.5450  0.1785
  733MOL0     H98921   7.951   4.677   4.247  0.6666 -1.8153  1.8586
  733MOL0     H98922   7.998   4.627   4.081 -0.0873  0.0465  0.3318
  733MOL0     H98923   7.826   4.791   4.073  3.3506  0.1310  2.4269
  733MOL0     H98924   7.791   4.644   3.989  2.8513  0.1347  0.1098
  733MOL0     H98925   7.698   4.745   4.270 -1.1132  1.1790 -1.1728
  733MOL0     H98926   7.669   4.581   4.220 -2.2362  0.5648  2.6331
  733MOL0     H98927   7.575   4.844   4.081  2.9011  1.3904  2.5016
  733MOL0     H98928   7.560   4.685   4.001  0.1606  2.6396 -2.1710
  733MOL0     H98929   7.403   4.625   4.207 -1.9933  0.4229 -0.5257
  733MOL0     H98930   7.335   4.748   4.116  1.1366  0.7070  0.2025
  733MOL0     H98931   7.496   4.828   4.360  0.1384  2.4569 -0.3668
  733MOL0     H98932   7.392   4.925   4.255  0.5984  1.1638  2.0361
  733MOL0     H98933   7.303   4.674   4.426  1.0178 -0.3010 -0.9986
  733MOL0     H98934   7.208   4.780   4.317 -0.0051 -0.3315 -0.5932
  733MOL0     H98935   7.336   4.878   4.568 -0.3873  1.7328 -0.0068
  733MOL0     H98936   7.169   4.808   4.554 -0.9186  0.1369 -1.4739
  733MOL0     H98937   8.136   4.530   4.297 -1.8229 -0.4344 -2.2097
  733MOL0     H98938   8.291   4.352   4.384 -0.7160 -0.7948  2.5842
  733MOL0     H98939   8.459   4.097   4.459  0.1033  0.0468  1.0953
  733MOL0     H98940   8.665   3.995   4.575 -0.4709 -0.0176 -1.1231
  733MOL0     H98941  10.076   3.125   5.298 -2.4742  0.7866  1.3613
  733MOL0     H98942  10.255   3.016   5.436 -0.6414 -1.4118 -1.2343
  733MOL0     H98943  10.280   2.686   5.993  1.1274 -1.5115  1.8721
  733MOL0     H98944  10.469   2.531   6.039 -0.8195  0.1601 -0.2416
  733MOL0     H98945  10.795   2.452   5.778 -1.5299  0.8339  0.2873
  733MOL0     H98946  10.836   2.613   5.803  2.2354 -0.5327  0.7910
  733MOL0     H98947  10.912   2.558   6.045 -0.9036  0.4382 -0.9022
  733MOL0     H98948  11.018   2.511   5.909 -0.2921  0.8206 -1.4657
  733MOL0     H98949  10.904   2.290   5.924  1.5443  0.5708 -0.5274
  733MOL0     H98950  10.809   2.331   6.060 -1.1931 -1.2636 -3.9819
  733MOL0     H98951  11.105   2.330   6.058 -0.3113  1.1596  0.6870
  733MOL0     H98952  11.020   2.200   6.134 -3.4816 -0.4165  0.4172
  733MOL0     H98953  10.949   2.438   6.447 -2.6358 -0.9432 -0.1404
  733MOL0     H98954  10.655   2.669   5.684 -0.5636  1.5533  0.7387
  733MOL0     H98955  10.472   2.811   5.636 -3.9238  0.0618  0.9785
  734MOL0     O98956   3.235   5.138   3.707 -0.1988 -0.3530  0.3332
  734MOL0     C98957   3.188   5.118   3.591 -0.2239 -0.0723  0.1130
  734MOL0     O98958   3.233   5.182   3.479  0.1433  0.3706  0.0810
  734MOL0     C98959   3.331   5.270   3.491  0.3193  0.2934 -1.5309
  734MOL0     C98960   3.313   5.408   3.466 -0.0660 -0.0934 -0.1193
  734MOL0     C98961   3.417   5.500   3.472 -0.9850 -0.2933 -0.1953
  734MOL0     C98962   3.548   5.456   3.495 -0.0973 -0.5131 -0.4504
  734MOL0     O98963   3.661   5.532   3.485 -0.4923  0.0488 -0.2067
  734MOL0     C98964   3.653   5.670   3.542  1.7957  0.1697 -0.6000
  734MOL0     C98965   3.793   5.736   3.566  0.6119 -0.5781 -1.1290
  734MOL0     C98966   3.858   5.769   3.436 -0.7288 -0.3365  1.3394
  734MOL0     C98967   3.780   5.851   3.330 -0.0854  0.5162 -0.7171
  734MOL0     C98968   3.849   5.880   3.197 -0.9274 -0.0203 -0.3142
  734MOL0     C98969   3.874   5.754   3.106 -0.2795 -0.3762  0.1431
  734MOL0     C98970   3.741   5.696   3.054  0.2907 -0.8132  0.0178
  734MOL0     C98971   3.776   5.584   2.953 -0.2641  0.4848  0.2643
  734MOL0     N98972   3.664   5.487   2.954  0.2887 -0.0379  0.4264
  734MOL0     C98973   3.624   5.417   3.056  0.4669  0.9273 -1.1785
  734MOL0     C98974   3.537   5.318   3.012 -1.2549  1.0732  0.4074
  734MOL0     C98975   3.491   5.212   3.104 -0.0425  0.3576  0.7957
  734MOL0     C98976   3.388   5.125   3.031 -0.4973  0.6774  0.3065
  734MOL0     C98977   3.316   5.032   3.136 -0.3334  0.3747  0.2328
  734MOL0     C98978   3.217   4.949   3.064 -0.9638  1.0947 -0.0329
  734MOL0     O98979   3.155   4.860   3.165 -0.6484 -0.4367  0.3529
  734MOL0     C98980   3.050   4.782   3.120 -0.0169 -0.1032 -0.5445
  734MOL0     C98981   2.984   4.789   2.986 -0.2725 -0.4178 -0.7832
  734MOL0     C98982   2.888   4.698   2.959 -0.1380  0.6330  0.7107
  734MOL0     C98983   2.824   4.723   2.826  0.0697  0.8369  0.0888
  734MOL0     C98984   2.847   4.600   3.057  0.3095 -0.6716  0.7664
  734MOL0     C98985   2.737   4.510   3.027  0.7400  0.5603  0.2265
  734MOL0     O98986   2.639   4.510   3.122 -1.1812 -0.2295 -0.3411
  734MOL0     C98987   2.519   4.446   3.107  0.4362  0.9343  0.3240
  734MOL0     C98988   2.419   4.521   3.038 -0.4287  0.1618 -0.0632
  734MOL0     C98989   2.291   4.462   3.014 -0.8690 -0.8148  0.1458
  734MOL0     C98990   2.264   4.332   3.048 -0.0508  0.0761  0.4928
  734MOL0     O98991   2.140   4.296   2.993  0.2919 -0.5004 -0.1673
  734MOL0     C98992   2.104   4.148   2.986  1.1717 -0.6355 -0.4884
  734MOL0     C98993   1.955   4.139   2.955  0.0446 -0.6834  0.1617
  734MOL0     C98994   1.901   3.993   2.941 -0.5582  1.1039 -0.5363
  734MOL0     C98995   1.769   4.007   2.872  0.7467  0.1032 -0.3526
  734MOL0     C98996   1.709   3.871   2.857 -0.0654  0.1634  0.4123
  734MOL0     C98997   1.558   3.877   2.857 -0.4226  0.0536 -0.3348
  734MOL0     C98998   1.499   3.749   2.802  0.3889  0.1165  0.2656
  734MOL0     C98999   1.350   3.757   2.791 -0.2282  0.1468  0.2926
  734MOL0    Cl99000   1.277   3.754   2.958 -0.4222 -0.6122 -0.0307
  734MOL0     C99001   2.364   4.253   3.108 -0.6674 -0.0671  0.2031
  734MOL0     C99002   2.490   4.311   3.137  0.8003 -0.3868  0.7796
  734MOL0     O99003   2.731   4.436   2.923 -0.4437  0.6845 -0.0284
  734MOL0     C99004   2.900   4.601   3.184 -0.8329 -1.4763 -0.5463
  734MOL0     C99005   3.007   4.680   3.207  0.4758  0.0359  0.4333
  734MOL0     N99006   3.520   5.353   2.878  0.4003  0.3310  0.2229
  734MOL0     N99007   3.584   5.462   2.849 -0.7747  0.4127  0.3095
  734MOL0     C99008   3.564   5.314   3.516 -0.6511 -0.2041 -1.6868
  734MOL0     C99009   3.461   5.227   3.523 -0.1196  0.6963  0.4003
  734MOL0     C99010   3.081   5.015   3.582 -0.4514  0.0700 -0.3522
  734MOL0     C99011   3.045   4.941   3.693  1.1336  0.7053  0.3976
  734MOL0     C99012   2.930   4.867   3.692  0.4356  0.9185 -0.6465
  734MOL0     C99013   2.867   4.842   3.576  0.4081 -0.1489  0.5489
  734MOL0     O99014   2.760   4.755   3.563  0.0262 -0.6309 -0.1358
  734MOL0     C99015   2.678   4.742   3.676 -0.5776 -0.6068 -0.1201
  734MOL0     C99016   2.550   4.671   3.634  0.3261  0.0047 -0.3979
  734MOL0     C99017   2.455   4.757   3.540  0.4317  0.1553  0.5865
  734MOL0     C99018   2.334   4.667   3.508 -0.4300  0.3903  0.3965
  734MOL0     C99019   2.224   4.669   3.606 -0.0797  0.5284  0.6562
  734MOL0     C99020   2.137   4.626   3.676 -0.0532  0.2833 -0.2424
  734MOL0     C99021   2.906   4.907   3.455 -1.2192 -0.0172 -0.9296
  734MOL0     C99022   3.019   4.993   3.463 -0.1129 -0.3828 -0.5938
  734MOL0     H99023   3.213   5.438   3.436  0.2901  0.5996 -0.6543
  734MOL0     H99024   3.398   5.602   3.442  1.3200  0.2926  0.1200
  734MOL0     H99025   3.601   5.730   3.466  2.6356 -0.2372 -1.5226
  734MOL0     H99026   3.593   5.676   3.633 -0.6889  1.1198 -2.1589
  734MOL0     H99027   3.782   5.826   3.628  0.6372 -2.2686  1.4651
  734MOL0     H99028   3.851   5.671   3.632 -0.1032  1.2270  1.4243
  734MOL0     H99029   3.957   5.809   3.457 -0.6628 -0.2717  0.9134
  734MOL0     H99030   3.877   5.679   3.377 -0.3139  2.0223 -2.5088
  734MOL0     H99031   3.681   5.808   3.315  0.1347 -1.0948  1.8039
  734MOL0     H99032   3.765   5.947   3.379  2.8334  1.2072 -0.9518
  734MOL0     H99033   3.783   5.955   3.151 -0.9651 -0.9643 -1.8895
  734MOL0     H99034   3.948   5.926   3.195  0.0649 -2.0303 -2.7763
  734MOL0     H99035   3.929   5.787   3.017 -1.1268  0.8168  0.0255
  734MOL0     H99036   3.941   5.687   3.159  1.9815  2.9995  1.9629
  734MOL0     H99037   3.689   5.653   3.139  1.8639 -2.0970  0.3872
  734MOL0     H99038   3.678   5.775   3.011 -2.2935 -2.2890  0.9005
  734MOL0     H99039   3.867   5.531   2.980  0.9394  2.0371 -0.6062
  734MOL0     H99040   3.802   5.624   2.854  1.3060  0.5046  0.6633
  734MOL0     H99041   3.648   5.406   3.162  0.7091  1.7500 -1.1420
  734MOL0     H99042   3.566   5.139   3.134  0.0696  1.4272  3.3569
  734MOL0     H99043   3.447   5.249   3.197  1.9211 -1.4695  2.5267
  734MOL0     H99044   3.427   5.072   2.943  0.4284  2.2343 -0.2646
  734MOL0     H99045   3.298   5.181   3.003 -2.1148 -1.6234  0.6550
  734MOL0     H99046   3.274   5.093   3.217  0.4123 -0.4358  1.2602
  734MOL0     H99047   3.400   4.970   3.171  0.2962 -1.3598 -3.8002
  734MOL0     H99048   3.271   4.888   2.991 -0.1583  1.3764  0.3176
  734MOL0     H99049   3.144   5.006   3.005 -3.7712 -1.3124  0.8729
  734MOL0     H99050   3.023   4.854   2.909  1.2454 -0.5296 -0.1554
  734MOL0     H99051   2.769   4.818   2.829 -0.2276  0.6372  2.8767
  734MOL0     H99052   2.895   4.727   2.743 -0.4914  0.9867 -0.3917
  734MOL0     H99053   2.759   4.642   2.791  0.2760  1.0527 -0.8432
  734MOL0     H99054   2.451   4.616   2.997 -3.9774  1.1515 -0.8473
  734MOL0     H99055   2.211   4.520   2.969 -0.9952 -1.3594 -0.3511
  734MOL0     H99056   2.161   4.096   2.909 -2.0242  1.3631 -4.5805
  734MOL0     H99057   2.126   4.095   3.080 -1.5269  2.7202  2.3196
  734MOL0     H99058   1.900   4.176   3.041  0.2048  0.1970 -0.1010
  734MOL0     H99059   1.939   4.202   2.867 -0.2972 -2.1907 -0.8872
  734MOL0     H99060   1.886   3.936   3.033  2.2901 -0.8608 -1.1597
  734MOL0     H99061   1.953   3.934   2.865  0.0286  1.9035 -0.7575
  734MOL0     H99062   1.716   4.074   2.939  2.9236  1.4446  0.1320
  734MOL0     H99063   1.788   4.052   2.774  3.1007 -0.6710 -0.3164
  734MOL0     H99064   1.723   3.802   2.941 -2.2760  0.4507  1.0786
  734MOL0     H99065   1.748   3.831   2.764  0.7872  1.4144  0.2121
  734MOL0     H99066   1.514   3.891   2.956 -0.3680 -0.5299 -0.2257
  734MOL0     H99067   1.533   3.956   2.786  1.8427  1.3311  0.1820
  734MOL0     H99068   1.523   3.662   2.865  0.4063  1.0661  1.6110
  734MOL0     H99069   1.541   3.740   2.701 -1.9298 -1.4954 -0.6530
  734MOL0     H99070   1.308   3.674   2.735 -1.2239 -0.6543  2.1327
  734MOL0     H99071   1.321   3.855   2.753 -1.4756  0.3040  1.5732
  734MOL0     H99072   2.360   4.145   3.122  2.8797 -0.7893 -2.8725
  734MOL0     H99073   2.574   4.253   3.176  1.2067  1.1923  2.3767
  734MOL0     H99074   2.862   4.537   3.263 -0.6464  0.1795  0.9367
  734MOL0     H99075   3.066   4.657   3.295  0.5520  1.5685  0.8216
  734MOL0     H99076   3.669   5.294   3.536 -0.6422  2.3682  1.9077
  734MOL0     H99077   3.494   5.124   3.529  1.2394  1.0702 -0.4055
  734MOL0     H99078   3.079   4.967   3.793 -1.6427  0.8582  1.3766
  734MOL0     H99079   2.897   4.829   3.788  2.1655  1.3611  0.1658
  734MOL0     H99080   2.724   4.696   3.764  1.4934 -1.0956 -1.3939
  734MOL0     H99081   2.664   4.842   3.717  2.1807 -0.7852  1.4979
  734MOL0     H99082   2.501   4.652   3.730  1.1798  0.9572  0.2426
  734MOL0     H99083   2.560   4.570   3.592 -0.8257 -0.8425  1.2313
  734MOL0     H99084   2.503   4.792   3.448 -2.6170 -0.2931 -1.2994
  734MOL0     H99085   2.412   4.847   3.585 -1.9404  0.1167 -1.4091
  734MOL0     H99086   2.364   4.563   3.493  1.5503  1.1371 -1.1870
  734MOL0     H99087   2.297   4.715   3.417 -1.4771 -0.3238  0.4224
  734MOL0     H99088   2.060   4.596   3.745  0.3291 -1.8934 -0.6866
  734MOL0     H99089   2.878   4.877   3.354 -1.1527 -1.7350 -0.4685
  734MOL0     H99090   3.051   5.037   3.369 -2.1475  0.3587 -1.0024
  735MOL0     O99091   1.662   4.449   9.007 -0.3456  0.8786 -0.3839
  735MOL0     C99092   1.594   4.366   9.069  0.0519  0.4663  0.2800
  735MOL0     O99093   1.642   4.249   9.124 -0.9642 -0.5384 -0.0030
  735MOL0     C99094   1.764   4.195   9.092  0.3670  0.6842 -1.3116
  735MOL0     C99095   1.854   4.214   8.982  0.4846 -0.1169 -1.3548
  735MOL0     C99096   1.972   4.144   8.970 -0.6285  0.2920  0.0273
  735MOL0     C99097   2.000   4.035   9.058  0.5539  0.4297  0.2597
  735MOL0     O99098   2.120   3.977   9.073 -0.0635  0.6903  0.3211
  735MOL0     C99099   2.212   3.988   8.966 -0.5158  0.3924  0.0893
  735MOL0     C99100   2.296   3.869   8.992 -0.1766  0.2960  0.3176
  735MOL0     C99101   2.422   3.881   8.911  0.3323 -0.0340 -0.2222
  735MOL0     C99102   2.462   3.753   8.847  0.1469 -0.4648 -0.2748
  735MOL0     C99103   2.597   3.757   8.769  0.3673  0.0726  0.5209
  735MOL0     C99104   2.619   3.627   8.692  0.0789  0.1382 -0.3221
  735MOL0     C99105   2.758   3.601   8.647 -0.5315  0.4246  0.0644
  735MOL0     C99106   2.788   3.684   8.524 -0.3586  0.3748 -0.5251
  735MOL0     N99107   2.927   3.675   8.484 -0.6370 -0.6512  1.1012
  735MOL0     C99108   3.013   3.566   8.485  0.3559 -0.1547  0.5807
  735MOL0     C99109   3.127   3.618   8.434 -0.9024  0.4147 -0.2516
  735MOL0     C99110   3.260   3.538   8.436 -0.1690 -1.1548  0.1837
  735MOL0     C99111   3.304   3.447   8.539  0.6671  0.3400  0.1384
  735MOL0     C99112   3.339   3.518   8.674  0.1472  0.3769  1.0731
  735MOL0     C99113   3.220   3.541   8.768 -1.1313 -0.1335  0.1106
  735MOL0     O99114   3.136   3.423   8.781 -0.4020 -0.3256  0.2894
  735MOL0     C99115   3.026   3.440   8.860  0.3881 -0.0300 -0.3127
  735MOL0     C99116   2.995   3.563   8.924  0.0865  0.1622 -0.1634
  735MOL0     C99117   2.881   3.569   9.007  0.8506  0.3941  0.4436
  735MOL0     C99118   2.871   3.694   9.093  0.4904  0.1900  0.8055
  735MOL0     C99119   2.781   3.465   8.995 -0.3732 -0.9939  0.1960
  735MOL0     C99120   2.651   3.469   9.065 -0.8767  0.6398  0.1810
  735MOL0     O99121   2.618   3.576   9.143 -0.2418  0.5718  0.0435
  735MOL0     C99122   2.512   3.583   9.232  0.1093 -0.4189 -0.0224
  735MOL0     C99123   2.428   3.491   9.275 -0.2762 -0.6679  0.5484
  735MOL0     C99124   2.327   3.512   9.369 -0.2838 -0.2287 -0.6530
  735MOL0     C99125   2.298   3.639   9.420  0.2114  0.2344  1.0918
  735MOL0     O99126   2.195   3.650   9.515 -0.4367  0.5271  0.0993
  735MOL0     C99127   2.139   3.783   9.537  0.0401 -0.0082  0.1142
  735MOL0     C99128   2.031   3.769   9.645 -0.2028  1.5400 -0.0677
  735MOL0     C99129   1.904   3.694   9.600 -0.1503  0.3535  0.8645
  735MOL0     C99130   1.834   3.746   9.475 -0.4555  0.3979 -0.0103
  735MOL0     C99131   1.702   3.664   9.453 -0.3004  0.1972 -0.2936
  735MOL0     C99132   1.629   3.735   9.344  0.1668 -0.0747  1.7473
  735MOL0     C99133   1.489   3.677   9.304 -0.2304 -0.3039 -0.1693
  735MOL0     C99134   1.449   3.716   9.164  0.2145  0.4270 -0.1311
  735MOL0    Cl99135   1.427   3.893   9.142 -0.1027 -0.1743 -0.4182
  735MOL0     C99136   2.383   3.744   9.369 -0.1736 -0.5768 -0.7895
  735MOL0     C99137   2.489   3.719   9.279 -0.4443  0.9259 -0.9284
  735MOL0     O99138   2.577   3.374   9.030  0.2481  0.2988 -0.0341
  735MOL0     C99139   2.822   3.354   8.930  0.4084 -0.0955  0.1567
  735MOL0     C99140   2.934   3.339   8.855  0.1829  0.3712 -0.3856
  735MOL0     N99141   3.108   3.745   8.388 -0.7403  0.2640  0.5389
  735MOL0     N99142   2.988   3.778   8.415  0.4354 -0.0364  0.2349
  735MOL0     C99143   1.909   3.998   9.152 -0.1006 -0.1798  0.5323
  735MOL0     C99144   1.787   4.077   9.169  0.3786 -0.0739 -0.4184
  735MOL0     C99145   1.460   4.420   9.100  0.1476 -0.1241  0.2651
  735MOL0     C99146   1.379   4.344   9.182  0.9245 -1.0278 -0.0917
  735MOL0     C99147   1.259   4.390   9.236  0.5627  0.1865 -0.7900
  735MOL0     C99148   1.217   4.522   9.211 -0.0831 -0.4208 -0.2500
  735MOL0     O99149   1.096   4.572   9.262 -0.4862 -0.0321 -0.2661
  735MOL0     C99150   1.010   4.477   9.322  1.0591  0.1268  0.0686
  735MOL0     C99151   0.866   4.527   9.318  0.1324 -0.0972  0.5756
  735MOL0     C99152   0.778   4.421   9.374 -0.4025  0.2957 -0.4840
  735MOL0     C99153   0.731   4.439   9.524 -0.2129 -0.2153  0.7021
  735MOL0     C99154   0.638   4.336   9.566 -0.0698 -0.0240  0.4649
  735MOL0     C99155   0.581   4.250   9.626  0.8497 -0.8236  0.0190
  735MOL0     C99156   1.291   4.597   9.124  0.0721 -0.5494  0.5968
  735MOL0     C99157   1.408   4.549   9.068 -0.1195  1.1095  0.0519
  735MOL0     H99158   1.845   4.306   8.924  3.5627  1.5394  0.5271
  735MOL0     H99159   2.053   4.176   8.905 -0.9374  1.2252  0.0833
  735MOL0     H99160   2.174   3.988   8.864 -0.2414  2.7013 -0.0504
  735MOL0     H99161   2.270   4.079   8.985  2.4196 -1.0836 -1.1631
  735MOL0     H99162   2.311   3.873   9.101 -0.0498 -0.1165  0.3169
  735MOL0     H99163   2.235   3.778   8.986 -0.2773  0.1320  2.7950
  735MOL0     H99164   2.410   3.944   8.822  1.8502 -0.2273 -0.6033
  735MOL0     H99165   2.500   3.918   8.978  1.5807 -1.5440 -0.7877
  735MOL0     H99166   2.472   3.686   8.933 -0.5056  0.5146  0.5767
  735MOL0     H99167   2.383   3.728   8.775 -0.2626  3.2975 -1.3345
  735MOL0     H99168   2.589   3.837   8.695  0.9864 -1.7251 -1.5906
  735MOL0     H99169   2.683   3.776   8.834 -1.5203  0.6694  2.9698
  735MOL0     H99170   2.583   3.554   8.765 -1.1711  2.3125  1.3791
  735MOL0     H99171   2.542   3.604   8.617  1.4215  0.9214 -1.9911
  735MOL0     H99172   2.834   3.628   8.721  0.0877 -0.2422 -0.3167
  735MOL0     H99173   2.775   3.497   8.617 -2.6069  0.1116 -0.1525
  735MOL0     H99174   2.773   3.787   8.558  1.2519  1.3270 -2.4692
  735MOL0     H99175   2.724   3.658   8.439  0.1360  1.5052 -1.2747
  735MOL0     H99176   2.993   3.463   8.515 -1.4889 -0.9231 -2.7705
  735MOL0     H99177   3.250   3.480   8.344 -2.7148  0.1399 -0.4765
  735MOL0     H99178   3.339   3.609   8.412 -1.4076  0.1491 -0.1620
  735MOL0     H99179   3.382   3.379   8.504 -0.5883  0.1909 -2.5949
  735MOL0     H99180   3.217   3.384   8.560  0.5246  1.1733  2.4125
  735MOL0     H99181   3.385   3.614   8.652  2.5508 -0.7108  1.0476
  735MOL0     H99182   3.400   3.453   8.737 -1.9925 -1.6078  1.2479
  735MOL0     H99183   3.158   3.625   8.734 -2.6720 -1.9506 -1.8339
  735MOL0     H99184   3.269   3.576   8.860  1.1039  0.1103 -1.1277
  735MOL0     H99185   3.059   3.650   8.914  0.3690  0.2482  1.9982
  735MOL0     H99186   2.789   3.755   9.054  1.6051  0.5547 -1.1008
  735MOL0     H99187   2.861   3.669   9.199  0.6207  2.3024  1.3727
  735MOL0     H99188   2.960   3.756   9.079  0.7785 -0.3840  0.0345
  735MOL0     H99189   2.455   3.390   9.243  1.4581  0.0882 -0.5137
  735MOL0     H99190   2.272   3.426   9.407 -0.2179 -0.4798 -1.1134
  735MOL0     H99191   2.218   3.850   9.573  0.0847 -1.1308  2.2650
  735MOL0     H99192   2.100   3.821   9.442  1.8916  0.0580 -0.6710
  735MOL0     H99193   2.078   3.713   9.726 -1.1010 -0.6992 -1.0286
  735MOL0     H99194   2.005   3.868   9.685 -0.3948  0.4642  2.7375
  735MOL0     H99195   1.832   3.692   9.681 -2.8707  3.0132 -1.2845
  735MOL0     H99196   1.932   3.592   9.570  2.6082  1.4104 -0.5443
  735MOL0     H99197   1.834   3.855   9.478 -0.8202  0.4215 -0.6002
  735MOL0     H99198   1.893   3.711   9.390  1.4510  0.6094  1.1544
  735MOL0     H99199   1.656   3.658   9.552  3.1778 -0.4149  1.4164
  735MOL0     H99200   1.720   3.559   9.426 -2.4973 -0.2041 -0.4070
  735MOL0     H99201   1.624   3.843   9.358  2.1379  0.0970  1.3465
  735MOL0     H99202   1.687   3.728   9.252 -3.9373 -1.7008 -0.9942
  735MOL0     H99203   1.415   3.706   9.379 -0.3815  0.2101 -0.5103
  735MOL0     H99204   1.501   3.568   9.307  1.7133 -0.2670 -2.5806
  735MOL0     H99205   1.363   3.655   9.136  1.7950 -1.5639 -0.9047
  735MOL0     H99206   1.532   3.694   9.096  0.7142  1.5709  0.0786
  735MOL0     H99207   2.362   3.846   9.396 -1.1261 -0.4622 -1.8670
  735MOL0     H99208   2.560   3.795   9.245  3.2789 -2.4469 -1.4199
  735MOL0     H99209   2.762   3.264   8.919  1.1816 -0.5072 -0.8989
  735MOL0     H99210   2.958   3.250   8.798  2.4968  1.5057 -1.3411
  735MOL0     H99211   1.927   3.908   9.208  3.8077 -0.1568 -0.3644
  735MOL0     H99212   1.715   4.050   9.245  2.3217 -1.6763  0.9577
  735MOL0     H99213   1.406   4.246   9.219 -1.9994 -2.7144 -2.0385
  735MOL0     H99214   1.213   4.324   9.309  2.7306  0.4895  0.9714
  735MOL0     H99215   1.012   4.381   9.270 -2.6881 -0.7926  1.2977
  735MOL0     H99216   1.035   4.463   9.428 -1.4838  1.1315  0.8762
  735MOL0     H99217   0.830   4.548   9.217  0.2562 -1.4224  0.2490
  735MOL0     H99218   0.849   4.621   9.372 -2.3476  0.1075 -0.4029
  735MOL0     H99219   0.821   4.323   9.351 -1.4834 -0.0185 -1.2755
  735MOL0     H99220   0.687   4.409   9.314  1.5716  0.3505 -3.7440
  735MOL0     H99221   0.680   4.535   9.534 -1.3878 -0.9786  2.4757
  735MOL0     H99222   0.827   4.429   9.576 -0.0396 -0.1511  0.3983
  735MOL0     H99223   0.536   4.171   9.683  0.2469 -0.9757 -0.6619
  735MOL0     H99224   1.257   4.700   9.113  1.1920 -0.2988 -0.9728
  735MOL0     H99225   1.478   4.608   9.010  0.1162 -0.3692 -1.2397
  736MOL0     O99226   8.566   8.985   7.129 -1.0223  0.0826 -1.3440
  736MOL0     C99227   8.538   9.070   7.043  0.1634 -0.1795 -0.1261
  736MOL0     O99228   8.631   9.129   6.963 -0.3192  0.1001  0.3986
  736MOL0     C99229   8.762   9.076   6.959  0.1769  0.2345  0.6466
  736MOL0     C99230   8.842   9.075   7.078  0.4258 -0.2413  0.0340
  736MOL0     C99231   8.958   9.007   7.080  0.4052 -0.8603 -0.9728
  736MOL0     C99232   9.025   8.954   6.967  0.8763  0.7818  0.2243
  736MOL0     O99233   9.148   8.900   6.980 -0.2460  0.3442 -0.6692
  736MOL0     C99234   9.203   8.876   7.111  0.2729 -0.6320  0.0015
  736MOL0     C99235   9.344   8.833   7.092 -0.0254  0.7377  0.5796
  736MOL0     C99236   9.351   8.688   7.039 -0.3783 -0.1839 -0.4644
  736MOL0     C99237   9.384   8.692   6.889 -0.0811 -0.2576  0.2733
  736MOL0     C99238   9.394   8.550   6.836 -0.9783  0.4290 -0.1914
  736MOL0     C99239   9.354   8.528   6.685  0.6658 -0.5054 -0.5602
  736MOL0     C99240   9.379   8.378   6.649 -1.3754  0.7376 -0.7117
  736MOL0     C99241   9.357   8.337   6.507 -0.4821 -0.4861  0.5970
  736MOL0     N99242   9.217   8.339   6.456 -0.4139  0.7384 -0.6928
  736MOL0     C99243   9.101   8.298   6.521  0.8533 -0.0700  0.7974
  736MOL0     C99244   9.004   8.331   6.427  0.0243 -0.5033 -0.6414
  736MOL0     C99245   8.857   8.311   6.435 -0.2331  0.8280 -0.7265
  736MOL0     C99246   8.820   8.173   6.507  0.6855  1.0267 -0.0186
  736MOL0     C99247   8.668   8.150   6.508  0.4857  0.2194  0.8664
  736MOL0     C99248   8.639   8.031   6.599 -0.9470  0.0366 -0.6635
  736MOL0     O99249   8.499   7.996   6.589  0.0585  0.7771  0.6184
  736MOL0     C99250   8.423   8.022   6.701  0.1642 -1.0000  1.2103
  736MOL0     C99251   8.351   7.926   6.762  0.4653 -0.0786 -0.3876
  736MOL0     C99252   8.266   7.948   6.867  0.3303  0.5852 -0.0165
  736MOL0     C99253   8.187   7.822   6.915 -0.5787 -0.6919  0.1585
  736MOL0     C99254   8.249   8.079   6.919 -0.0094  0.3260  0.2243
  736MOL0     C99255   8.160   8.119   7.025 -0.6233  0.3210  0.2361
  736MOL0     O99256   8.144   8.255   7.037  0.8063  0.3194 -0.2376
  736MOL0     C99257   8.109   8.297   7.158  0.3185  0.3963  0.4910
  736MOL0     C99258   7.980   8.346   7.188 -0.7028  0.9968  0.6035
  736MOL0     C99259   7.941   8.376   7.319  0.7945  0.8251 -0.3334
  736MOL0     C99260   8.033   8.362   7.423  0.1652 -0.4446  0.5888
  736MOL0     O99261   7.990   8.383   7.560 -0.0058  0.4856  0.6136
  736MOL0     C99262   8.084   8.435   7.661 -0.4199 -0.7373  0.8974
  736MOL0     C99263   8.030   8.560   7.728 -0.7123  0.0804 -0.0634
  736MOL0     C99264   7.926   8.531   7.828  0.3566  0.0589 -0.9311
  736MOL0     C99265   7.871   8.649   7.896  0.5792  0.2923  0.1350
  736MOL0     C99266   7.736   8.639   7.968  0.6669 -0.5820 -0.9734
  736MOL0     C99267   7.738   8.755   8.074  0.0445  1.5142  1.0317
  736MOL0     C99268   7.643   8.873   8.033  0.7745  0.3719 -0.2764
  736MOL0     C99269   7.612   8.975   8.143 -0.2946 -0.8997 -0.2192
  736MOL0    Cl99270   7.510   9.095   8.058 -0.1457  0.3149 -0.0743
  736MOL0     C99271   8.159   8.302   7.390 -0.8526 -0.5148 -0.7472
  736MOL0     C99272   8.200   8.281   7.259 -0.7145 -0.1745  0.3332
  736MOL0     O99273   8.114   8.033   7.100 -0.2226  0.4833 -0.9093
  736MOL0     C99274   8.322   8.180   6.851  0.7879  0.2087  0.2647
  736MOL0     C99275   8.406   8.157   6.744 -0.3094  0.7375  0.2459
  736MOL0     N99276   9.070   8.379   6.308  0.0411  0.0658  0.2802
  736MOL0     N99277   9.192   8.379   6.329 -0.4943 -0.5324  0.2729
  736MOL0     C99278   8.959   8.974   6.846  0.2442  0.3180  0.5022
  736MOL0     C99279   8.830   9.029   6.845  0.1301 -0.1011  0.1758
  736MOL0     C99280   8.393   9.117   7.037 -0.1831 -0.3816  0.1139
  736MOL0     C99281   8.306   9.080   7.137 -0.2553 -0.4231 -0.7314
  736MOL0     C99282   8.179   9.127   7.146 -0.1734  0.2195 -0.6334
  736MOL0     C99283   8.125   9.209   7.045 -0.4602 -0.5259  0.3383
  736MOL0     O99284   7.997   9.257   7.038 -0.2901 -0.8647  0.3717
  736MOL0     C99285   7.919   9.290   7.149 -0.3015  1.0321  0.0138
  736MOL0     C99286   7.796   9.202   7.161 -0.4046 -1.1896  0.4811
  736MOL0     C99287   7.736   9.213   7.295  0.0235 -0.2292  0.1941
  736MOL0     C99288   7.650   9.343   7.315  0.3511  0.1992  0.0300
  736MOL0     C99289   7.518   9.311   7.266 -0.4649  0.0460 -0.0710
  736MOL0     C99290   7.405   9.287   7.220 -0.0845  0.1944 -0.2907
  736MOL0     C99291   8.210   9.240   6.940 -0.4064  0.0519 -0.4502
  736MOL0     C99292   8.345   9.193   6.937 -0.4730 -0.0575  0.7429
  736MOL0     H99293   8.808   9.114   7.173 -1.8917 -2.8301  0.3896
  736MOL0     H99294   9.014   8.992   7.172  0.4696 -1.1103 -1.0512
  736MOL0     H99295   9.212   8.969   7.169  0.0341 -0.1005 -0.8100
  736MOL0     H99296   9.145   8.813   7.179 -0.3928 -2.8881 -2.5094
  736MOL0     H99297   9.415   8.892   7.034  1.7680 -0.6309  1.2755
  736MOL0     H99298   9.400   8.840   7.186  3.9604 -1.9393 -1.3030
  736MOL0     H99299   9.427   8.634   7.095 -0.8243  0.4520  0.7871
  736MOL0     H99300   9.259   8.631   7.056 -0.3127 -0.5905 -1.4131
  736MOL0     H99301   9.300   8.750   6.851 -1.1727 -1.7113  0.3887
  736MOL0     H99302   9.471   8.752   6.863  0.4137 -0.8702  0.4819
  736MOL0     H99303   9.499   8.522   6.850 -1.0299  0.6056  0.5648
  736MOL0     H99304   9.331   8.480   6.892 -0.3297 -0.8284 -0.9992
  736MOL0     H99305   9.253   8.570   6.679  2.2062  4.1845  2.1035
  736MOL0     H99306   9.422   8.585   6.620 -0.6778 -0.6808 -2.1957
  736MOL0     H99307   9.484   8.373   6.678 -1.0557  3.1746 -1.2665
  736MOL0     H99308   9.309   8.321   6.711 -2.9282  2.5961 -0.6480
  736MOL0     H99309   9.409   8.241   6.493 -3.7232 -2.7257  2.6952
  736MOL0     H99310   9.403   8.410   6.439 -1.1786 -1.1203 -0.5988
  736MOL0     H99311   9.082   8.259   6.620 -1.8055  0.3891  0.5448
  736MOL0     H99312   8.817   8.396   6.492  0.3245  1.7416 -1.6438
  736MOL0     H99313   8.810   8.307   6.336 -0.1589  0.1295 -0.7382
  736MOL0     H99314   8.854   8.178   6.611 -0.3940  2.1904  0.3115
  736MOL0     H99315   8.869   8.100   6.443 -0.0092  2.1939 -1.9828
  736MOL0     H99316   8.632   8.134   6.406  0.7962 -0.0622  0.7995
  736MOL0     H99317   8.613   8.235   6.550 -2.7687 -0.9640 -0.6745
  736MOL0     H99318   8.672   8.041   6.703  1.0921  2.6387 -1.4364
  736MOL0     H99319   8.697   7.947   6.558 -0.4385  1.0555 -2.1179
  736MOL0     H99320   8.372   7.829   6.718  2.5929  1.1509 -2.3678
  736MOL0     H99321   8.083   7.837   6.948  0.0168 -0.7286  2.1616
  736MOL0     H99322   8.188   7.747   6.835  0.0452 -0.1339 -0.3650
  736MOL0     H99323   8.238   7.782   7.003  0.4912  0.9967  0.3383
  736MOL0     H99324   7.921   8.360   7.097  3.0168  0.2082 -2.1756
  736MOL0     H99325   7.842   8.419   7.319 -0.6785 -1.9634 -4.5277
  736MOL0     H99326   8.100   8.359   7.738 -0.4024  0.2029  1.8392
  736MOL0     H99327   8.180   8.461   7.616 -2.4783  1.5041 -2.6504
  736MOL0     H99328   8.101   8.622   7.782 -1.1602  0.4267  0.1340
  736MOL0     H99329   7.997   8.631   7.651 -1.7966 -0.0401  0.2702
  736MOL0     H99330   7.971   8.476   7.912  0.2404  1.9952  0.4667
  736MOL0     H99331   7.845   8.467   7.790 -2.6288  2.0295  1.5750
  736MOL0     H99332   7.949   8.678   7.966  0.2280  1.1366  0.1905
  736MOL0     H99333   7.866   8.736   7.831  2.3680  0.6568  0.4380
  736MOL0     H99334   7.754   8.542   8.017  2.6553  1.7502  3.5100
  736MOL0     H99335   7.647   8.636   7.905  0.5886 -0.5651 -0.8629
  736MOL0     H99336   7.714   8.711   8.171  0.9370  2.1552  1.5541
  736MOL0     H99337   7.838   8.798   8.084  0.4357  1.4464 -1.6688
  736MOL0     H99338   7.547   8.834   7.998 -0.8616  3.0732  0.8525
  736MOL0     H99339   7.688   8.915   7.943 -2.5141  0.7396 -1.8811
  736MOL0     H99340   7.697   9.031   8.183 -0.7646 -0.2144 -0.1663
  736MOL0     H99341   7.547   8.942   8.225  1.9923  1.6493  2.9274
  736MOL0     H99342   8.232   8.281   7.467  1.0408  4.1762 -0.9008
  736MOL0     H99343   8.294   8.228   7.247 -0.4619  0.3249  0.0604
  736MOL0     H99344   8.309   8.283   6.883 -2.0420  0.2727 -0.7890
  736MOL0     H99345   8.456   8.236   6.688 -0.3591  1.0630  0.6565
  736MOL0     H99346   9.009   8.925   6.763 -1.2908 -0.5880  0.0564
  736MOL0     H99347   8.771   9.022   6.754 -0.2163  1.9679  0.1978
  736MOL0     H99348   8.336   9.015   7.218  0.6799  0.9346  0.0704
  736MOL0     H99349   8.109   9.110   7.227  1.1320  2.9597  1.2242
  736MOL0     H99350   7.987   9.282   7.235  0.8261  1.5704 -0.7957
  736MOL0     H99351   7.874   9.389   7.139 -3.0245 -0.2406 -1.4052
  736MOL0     H99352   7.837   9.100   7.160  0.4123 -0.8776  1.3044
  736MOL0     H99353   7.723   9.212   7.080 -0.6542 -0.0991  0.8306
  736MOL0     H99354   7.812   9.202   7.372 -1.7884 -0.2934  2.0805
  736MOL0     H99355   7.674   9.123   7.302 -0.3611 -0.0789 -1.0694
  736MOL0     H99356   7.685   9.433   7.264  0.2401  0.2091 -0.0289
  736MOL0     H99357   7.645   9.370   7.421  3.1722  1.5446 -0.0947
  736MOL0     H99358   7.309   9.251   7.189  0.1940 -0.5267 -0.3255
  736MOL0     H99359   8.170   9.308   6.866  0.9693  0.6181 -0.7185
  736MOL0     H99360   8.401   9.219   6.848 -1.6901 -1.6661 -0.5393
  737MOL0     O99361  10.950   6.941   8.355 -0.1593 -0.4549 -0.0930
  737MOL0     C99362  10.977   6.944   8.475 -0.0077 -0.3299  0.4511
  737MOL0     O99363  10.893   6.894   8.569  0.3024  0.4281 -0.0513
  737MOL0     C99364  10.766   6.866   8.531 -0.7413  0.4242  0.1166
  737MOL0     C99365  10.671   6.962   8.557 -0.0757 -0.1722  0.1107
  737MOL0     C99366  10.540   6.939   8.515 -0.1264  0.3691 -0.7037
  737MOL0     C99367  10.503   6.817   8.460  0.4052 -0.2438 -0.4664
  737MOL0     O99368  10.379   6.772   8.420 -0.3443 -0.5167  0.8235
  737MOL0     C99369  10.275   6.862   8.412  0.8512 -1.1705 -0.2681
  737MOL0     C99370  10.156   6.768   8.373 -0.4776  0.3481  0.2428
  737MOL0     C99371  10.017   6.843   8.393 -0.0521  0.6229 -0.7332
  737MOL0     C99372   9.912   6.809   8.285 -0.3197  0.2881 -0.1516
  737MOL0     C99373   9.784   6.895   8.294 -0.4959 -0.0655  0.5723
  737MOL0     C99374   9.692   6.889   8.166  0.3668 -0.1868 -0.7165
  737MOL0     C99375   9.570   6.984   8.166 -0.2369 -0.9177  0.4987
  737MOL0     C99376   9.464   6.973   8.278  0.3629  1.0566  0.4503
  737MOL0     N99377   9.426   6.831   8.273  0.2990  0.4542  0.4384
  737MOL0     C99378   9.341   6.768   8.187 -0.4075  0.0345  1.2009
  737MOL0     C99379   9.341   6.634   8.222  0.0787  1.0259 -0.3747
  737MOL0     C99380   9.253   6.517   8.175 -0.4635  0.1902  0.2298
  737MOL0     C99381   9.351   6.393   8.142  0.3049 -0.2158 -0.6626
  737MOL0     C99382   9.276   6.279   8.077  0.0506 -0.0800  0.8382
  737MOL0     C99383   9.148   6.244   8.157 -0.6038 -0.2131 -0.0072
  737MOL0     O99384   9.128   6.099   8.142 -1.0882  0.1255 -0.4511
  737MOL0     C99385   8.999   6.053   8.144 -0.4319  0.0737  0.0120
  737MOL0     C99386   8.888   6.129   8.097 -0.3888 -0.1474 -0.8030
  737MOL0     C99387   8.754   6.073   8.095 -1.3097 -0.8511 -0.0002
  737MOL0     C99388   8.648   6.162   8.027 -0.9144 -0.5557 -1.1541
  737MOL0     C99389   8.735   5.948   8.143 -0.0071  0.0232 -1.0176
  737MOL0     C99390   8.613   5.864   8.134 -0.0240  0.4117 -0.5406
  737MOL0     O99391   8.578   5.789   8.236  0.8389  0.3759 -0.0340
  737MOL0     C99392   8.478   5.695   8.226  0.2156 -0.4469 -0.5360
  737MOL0     C99393   8.395   5.701   8.335 -0.7468  0.1928  0.6852
  737MOL0     C99394   8.288   5.608   8.346  0.0739 -0.0169 -0.5267
  737MOL0     C99395   8.277   5.504   8.250  1.4482  0.9489 -0.0320
  737MOL0     O99396   8.190   5.398   8.265  0.1908  0.1716  0.3660
  737MOL0     C99397   8.149   5.352   8.389 -0.4846 -0.2430 -1.1365
  737MOL0     C99398   8.009   5.397   8.421  0.5375  0.5346 -0.4451
  737MOL0     C99399   7.913   5.375   8.303 -0.2995  0.3740 -1.0966
  737MOL0     C99400   7.769   5.421   8.332  0.0628 -0.5852 -0.3356
  737MOL0     C99401   7.673   5.382   8.217  1.3467  0.3394  0.2202
  737MOL0     C99402   7.617   5.235   8.219 -1.1896  0.1526  0.6800
  737MOL0     C99403   7.551   5.191   8.351  0.8391 -0.1940  0.1205
  737MOL0     C99404   7.407   5.237   8.356 -0.4645  0.5741  0.4598
  737MOL0    Cl99405   7.301   5.104   8.403  0.3403 -0.0478 -0.1702
  737MOL0     C99406   8.354   5.510   8.134  0.6084  0.6320 -0.3703
  737MOL0     C99407   8.457   5.601   8.120 -0.3285  0.4941  0.2403
  737MOL0     O99408   8.555   5.872   8.027 -0.0929 -0.5862 -0.0632
  737MOL0     C99409   8.847   5.875   8.209  0.5851 -0.3079  1.0772
  737MOL0     C99410   8.975   5.930   8.201  0.2536 -0.0316 -0.3687
  737MOL0     N99411   9.432   6.628   8.320 -0.4748  0.5162 -0.2772
  737MOL0     N99412   9.473   6.740   8.362 -0.1698  0.1526 -0.5174
  737MOL0     C99413  10.602   6.724   8.432  0.2113 -0.2429 -0.6553
  737MOL0     C99414  10.734   6.746   8.464  0.4478 -0.0610 -0.7714
  737MOL0     C99415  11.109   6.967   8.526  0.0502  0.3792 -0.2171
  737MOL0     C99416  11.149   6.927   8.655  0.5384 -0.3467 -0.2119
  737MOL0     C99417  11.286   6.959   8.694 -0.2718  0.1802  0.1447
  737MOL0     C99418  11.377   7.025   8.625  0.7127 -0.0176 -0.6291
  737MOL0     O99419  11.506   7.043   8.673 -0.2638 -0.4899 -0.5216
  737MOL0     C99420  11.523   7.080   8.811  1.1141 -1.1452  0.0976
  737MOL0     C99421  11.604   7.209   8.810  0.3960 -0.1984  0.0290
  737MOL0     C99422  11.748   7.185   8.763  0.1802  0.5143  0.7295
  737MOL0     C99423  11.861   7.268   8.819 -0.0746 -0.4455 -0.7802
  737MOL0     C99424  11.991   7.256   8.750  0.0748  0.4697 -0.5485
  737MOL0     C99425  12.100   7.232   8.697 -0.8064 -0.4467 -0.6129
  737MOL0     C99426  11.339   7.066   8.501  0.2213  0.6152  0.2540
  737MOL0     C99427  11.214   7.032   8.447 -0.4732  0.4501  0.4077
  737MOL0     H99428  10.707   7.053   8.605 -0.8945  0.6117 -0.7174
  737MOL0     H99429  10.461   7.012   8.526 -2.3294 -1.4906 -3.0039
  737MOL0     H99430  10.262   6.902   8.513  0.0566  0.8067 -1.0935
  737MOL0     H99431  10.288   6.951   8.349  0.7742 -0.2014  1.0516
  737MOL0     H99432  10.153   6.734   8.269 -3.4310  1.8552 -0.2854
  737MOL0     H99433  10.155   6.678   8.435  1.1328  0.4016  0.3893
  737MOL0     H99434   9.975   6.814   8.490 -0.2888 -0.6284 -1.2003
  737MOL0     H99435  10.049   6.948   8.388  0.8337  0.5919  2.1527
  737MOL0     H99436   9.958   6.838   8.190  3.3957 -2.7615  0.4420
  737MOL0     H99437   9.888   6.703   8.291 -1.9450  0.6792  1.0678
  737MOL0     H99438   9.727   6.869   8.383  0.1432  1.4395  1.4590
  737MOL0     H99439   9.808   7.002   8.300 -2.5155  0.3906  1.2907
  737MOL0     H99440   9.745   6.920   8.075  0.0767 -2.7329 -1.8206
  737MOL0     H99441   9.663   6.784   8.153  2.0425 -0.7481 -0.0908
  737MOL0     H99442   9.605   7.087   8.158 -4.2103  0.4663 -2.8301
  737MOL0     H99443   9.513   6.966   8.074  2.7370 -1.7077 -1.3547
  737MOL0     H99444   9.380   7.041   8.255  1.1609  1.8769 -0.1164
  737MOL0     H99445   9.502   6.993   8.378 -2.2488 -0.3278  1.8273
  737MOL0     H99446   9.280   6.816   8.110 -2.3275 -4.0990 -0.1381
  737MOL0     H99447   9.186   6.479   8.254  1.7619 -1.7465  1.3370
  737MOL0     H99448   9.182   6.547   8.098 -1.3721  3.1688  2.0506
  737MOL0     H99449   9.403   6.359   8.232  1.3625  0.9034 -0.8319
  737MOL0     H99450   9.437   6.419   8.079  0.9672 -2.5278 -0.8100
  737MOL0     H99451   9.348   6.198   8.069  0.2163 -0.1870  2.8613
  737MOL0     H99452   9.239   6.305   7.977 -0.0314  0.3524  0.9785
  737MOL0     H99453   9.069   6.303   8.109  0.1840 -1.7812 -3.5582
  737MOL0     H99454   9.146   6.274   8.262  2.1011  0.8118 -0.1744
  737MOL0     H99455   8.904   6.225   8.051 -1.0015  1.2835  1.7661
  737MOL0     H99456   8.603   6.096   7.951  0.6351 -0.9949 -1.7138
  737MOL0     H99457   8.578   6.194   8.105  1.2191 -0.4445  0.8054
  737MOL0     H99458   8.698   6.250   7.986  1.8990  0.7068  4.1531
  737MOL0     H99459   8.415   5.773   8.413 -0.1057 -0.9517  1.6278
  737MOL0     H99460   8.224   5.625   8.431  0.3010 -0.5731 -0.2393
  737MOL0     H99461   8.148   5.244   8.370 -1.4389 -0.1186 -1.8738
  737MOL0     H99462   8.212   5.373   8.476 -1.4128 -2.0296  0.0091
  737MOL0     H99463   7.972   5.339   8.506  0.0233  0.3063 -0.8166
  737MOL0     H99464   8.025   5.504   8.434  0.5933  0.6656 -1.4777
  737MOL0     H99465   7.919   5.267   8.287  0.4490 -0.0287  1.5339
  737MOL0     H99466   7.959   5.436   8.224 -1.1946  2.2565 -0.2085
  737MOL0     H99467   7.732   5.380   8.427  1.0446 -0.3951  0.1307
  737MOL0     H99468   7.766   5.529   8.342 -0.8683 -0.4287 -1.9054
  737MOL0     H99469   7.725   5.398   8.122 -0.4994 -1.4891 -1.1961
  737MOL0     H99470   7.588   5.449   8.205  1.3700  0.2052 -0.8463
  737MOL0     H99471   7.558   5.216   8.130  2.3506  0.0262 -1.8390
  737MOL0     H99472   7.703   5.167   8.215 -3.4821 -2.8429 -0.9688
  737MOL0     H99473   7.603   5.225   8.441  2.1280 -1.1642 -0.2399
  737MOL0     H99474   7.549   5.082   8.351 -1.7985 -0.2473  2.4397
  737MOL0     H99475   7.366   5.260   8.257  0.1228 -0.8015 -0.1339
  737MOL0     H99476   7.390   5.321   8.424 -4.9016 -1.6037  2.4675
  737MOL0     H99477   8.340   5.439   8.054  2.5861 -1.6866  1.2123
  737MOL0     H99478   8.511   5.616   8.028 -2.6195  3.9495 -0.7444
  737MOL0     H99479   8.846   5.778   8.256  1.9985 -1.3892 -0.9534
  737MOL0     H99480   9.059   5.874   8.239  1.1011  0.4197 -1.5156
  737MOL0     H99481  10.580   6.638   8.370  0.8240  0.3159 -1.6722
  737MOL0     H99482  10.815   6.680   8.436  1.3750  0.7031  0.0234
  737MOL0     H99483  11.082   6.888   8.730 -0.1691 -0.5153 -0.9203
  737MOL0     H99484  11.313   6.913   8.789  0.7204  0.4744  0.0195
  737MOL0     H99485  11.429   7.103   8.862  1.5352  1.9614 -0.3515
  737MOL0     H99486  11.578   7.003   8.867  0.2906 -2.4806 -0.8683
  737MOL0     H99487  11.617   7.245   8.912  0.3174  0.1188 -0.0717
  737MOL0     H99488  11.546   7.287   8.758 -2.7223 -1.3680  1.5057
  737MOL0     H99489  11.746   7.183   8.654 -0.8296 -1.0635  0.7386
  737MOL0     H99490  11.774   7.083   8.794  0.5596  0.1695 -0.6621
  737MOL0     H99491  11.872   7.231   8.921  0.6618 -0.0155 -0.6946
  737MOL0     H99492  11.823   7.370   8.830  0.2113 -0.5403  1.6647
  737MOL0     H99493  12.199   7.200   8.672 -1.4286 -1.3995 -2.0250
  737MOL0     H99494  11.418   7.120   8.448  0.3088  1.5627  1.3246
  737MOL0     H99495  11.197   7.042   8.340 -0.4066 -0.4960  0.3022
  738MOL0     O99496   9.284   0.607   3.408  0.0961 -0.2659  0.0563
  738MOL0     C99497   9.383   0.565   3.464  0.5030 -0.2423  0.0393
  738MOL0     O99498   9.378   0.495   3.585 -0.2244  0.2930 -0.0534
  738MOL0     C99499   9.265   0.420   3.625  0.2762  0.3404  1.5503
  738MOL0     C99500   9.167   0.355   3.546 -0.0268  0.4316  0.2783
  738MOL0     C99501   9.061   0.296   3.619  0.0614  0.4723 -0.3494
  738MOL0     C99502   9.059   0.293   3.756 -0.6938 -0.1631  0.5597
  738MOL0     O99503   8.949   0.238   3.807 -0.2299  0.5367  0.0061
  738MOL0     C99504   8.918   0.258   3.955 -0.1609 -0.2625 -0.5818
  738MOL0     C99505   8.856   0.127   4.007 -0.9487  0.2960  0.3988
  738MOL0     C99506   8.726   0.087   3.935 -0.1186  0.3616  0.5779
  738MOL0     C99507   8.595   0.154   3.997 -0.3611 -0.4359  0.1287
  738MOL0     C99508   8.466   0.090   3.943  0.8908  0.3349  0.5103
  738MOL0     C99509   8.344   0.108   4.036  0.3908 -0.3349 -0.5374
  738MOL0     C99510   8.203   0.100   3.953 -0.3614 -0.5225  0.5478
  738MOL0     C99511   8.162   0.245   3.905 -1.1803 -0.1521  1.0750
  738MOL0     N99512   8.048   0.239   3.813  0.6047 -0.1190  0.1567
  738MOL0     C99513   8.055   0.200   3.681 -1.2785 -0.8499  0.0688
  738MOL0     C99514   7.929   0.224   3.639 -0.9177  0.3824 -0.5061
  738MOL0     C99515   7.893   0.168   3.501  0.0164 -0.7137 -0.1050
  738MOL0     C99516   7.865   0.016   3.493  0.2696 -0.2304 -0.6890
  738MOL0     C99517   7.721  -0.011   3.549 -0.0197 -0.0580  0.1259
  738MOL0     C99518   7.669  -0.151   3.500  0.0088 -0.5694  0.2493
  738MOL0     O99519   7.757  -0.249   3.549  0.1794 -0.2964 -0.0154
  738MOL0     C99520   7.707  -0.378   3.533  0.4942  0.3685  0.9777
  738MOL0     C99521   7.778  -0.466   3.446 -1.2629  0.2907  0.1123
  738MOL0     C99522   7.738  -0.595   3.425 -0.6094 -0.0285  0.8276
  738MOL0     C99523   7.830  -0.681   3.344  1.0097 -1.1874  0.0185
  738MOL0     C99524   7.626  -0.652   3.488  0.2849  1.5809 -0.6867
  738MOL0     C99525   7.578  -0.789   3.461  0.5873  0.2111  0.7175
  738MOL0     O99526   7.523  -0.853   3.567  0.6662 -0.1828  0.9644
  738MOL0     C99527   7.440  -0.962   3.551  1.1333 -0.8453 -0.4127
  738MOL0     C99528   7.317  -0.950   3.613  0.1933  0.3787 -0.7251
  738MOL0     C99529   7.224  -1.057   3.604  0.0720 -0.6038 -0.5172
  738MOL0     C99530   7.270  -1.184   3.553 -0.5287 -0.4494 -0.3170
  738MOL0     O99531   7.199  -1.298   3.543 -0.1908 -0.7222  0.3378
  738MOL0     C99532   7.090  -1.312   3.639 -0.8752  0.3031  0.5337
  738MOL0     C99533   7.147  -1.341   3.773 -0.1810 -1.5843  0.4606
  738MOL0     C99534   7.037  -1.386   3.862 -0.9508 -0.2196 -0.0547
  738MOL0     C99535   7.101  -1.444   3.981 -0.8567 -0.7220  0.4955
  738MOL0     C99536   6.986  -1.502   4.079  0.0403  0.8552 -0.2447
  738MOL0     C99537   6.902  -1.386   4.132 -0.2548 -0.2651 -0.4933
  738MOL0     C99538   6.840  -1.421   4.270  0.1568  0.2909 -0.2411
  738MOL0     C99539   6.716  -1.511   4.261 -0.9916  0.0506 -0.1772
  738MOL0    Cl99540   6.576  -1.430   4.192 -0.3163 -0.1934  0.2965
  738MOL0     C99541   7.395  -1.187   3.485 -0.1945 -1.0849  0.0296
  738MOL0     C99542   7.483  -1.078   3.496 -0.2059 -0.1557 -0.1010
  738MOL0     O99543   7.568  -0.824   3.346 -0.5612 -0.0097  0.1607
  738MOL0     C99544   7.562  -0.566   3.580  0.1391  0.3331  0.8439
  738MOL0     C99545   7.596  -0.433   3.603 -0.0705  0.6707 -0.0841
  738MOL0     N99546   7.847   0.276   3.739  0.6644  0.0828 -0.6363
  738MOL0     N99547   7.920   0.274   3.841 -0.3487  0.2501 -0.4699
  738MOL0     C99548   9.166   0.351   3.826  0.2559 -0.0986 -0.4390
  738MOL0     C99549   9.270   0.399   3.761 -0.4876  0.5320 -0.7126
  738MOL0     C99550   9.512   0.623   3.422 -0.4034  0.1255  0.5683
  738MOL0     C99551   9.523   0.720   3.318  0.4579  0.5116  0.5989
  738MOL0     C99552   9.643   0.778   3.275 -0.5557  0.2802  0.2353
  738MOL0     C99553   9.758   0.730   3.342  0.6780 -0.7863  0.7051
  738MOL0     O99554   9.876   0.788   3.303  0.4248 -0.2714  0.3403
  738MOL0     C99555   9.947   0.720   3.203  0.1055 -0.2087 -0.1549
  738MOL0     C99556  10.058   0.810   3.139 -0.2097 -0.3653  0.3482
  738MOL0     C99557  10.172   0.848   3.236  0.7743  0.1888 -0.3316
  738MOL0     C99558  10.270   0.941   3.166  0.6681  0.0102  0.6930
  738MOL0     C99559  10.386   0.963   3.248 -0.1988 -0.2926  0.1265
  738MOL0     C99560  10.479   0.986   3.319 -0.3556 -0.1539  0.3631
  738MOL0     C99561   9.753   0.629   3.438  0.1512  0.6963  0.3208
  738MOL0     C99562   9.634   0.564   3.468 -0.4702 -1.1386 -0.1884
  738MOL0     H99563   9.171   0.362   3.438  3.6881 -2.8971 -0.0232
  738MOL0     H99564   8.979   0.260   3.558 -1.0979  1.2028  0.7307
  738MOL0     H99565   9.001   0.285   4.021  0.1043  1.8260 -1.6967
  738MOL0     H99566   8.843   0.337   3.965  0.6487  0.5838 -1.0625
  738MOL0     H99567   8.936   0.053   4.000  1.0223  2.3738 -0.3387
  738MOL0     H99568   8.847   0.152   4.113  1.1401  1.2239  0.4024
  738MOL0     H99569   8.718   0.120   3.831  2.9447  0.6534  0.3652
  738MOL0     H99570   8.716  -0.021   3.923  4.2931 -0.0682 -1.0986
  738MOL0     H99571   8.579   0.150   4.105 -0.6233  1.9625  0.2158
  738MOL0     H99572   8.605   0.261   3.976 -0.4913  0.2111  3.0116
  738MOL0     H99573   8.454   0.137   3.844  0.1652  2.4758  1.5530
  738MOL0     H99574   8.497  -0.012   3.919 -0.6361 -0.1607  0.4782
  738MOL0     H99575   8.350   0.035   4.116 -0.6915  1.1322  0.9523
  738MOL0     H99576   8.337   0.209   4.079 -1.6851 -1.4793  2.0950
  738MOL0     H99577   8.211   0.029   3.870  0.1993  1.3867 -1.1207
  738MOL0     H99578   8.123   0.069   4.020  0.9882 -2.1948  1.4316
  738MOL0     H99579   8.242   0.283   3.841 -1.7353 -3.0582 -1.6443
  738MOL0     H99580   8.138   0.306   3.992  0.9341  0.9197  0.9543
  738MOL0     H99581   8.142   0.155   3.633  0.3769  1.7250  0.4331
  738MOL0     H99582   7.804   0.222   3.466  0.2311 -0.4270 -0.2152
  738MOL0     H99583   7.980   0.192   3.438  2.0391 -0.2818  2.6637
  738MOL0     H99584   7.935  -0.040   3.554 -4.0490 -4.7449  0.7959
  738MOL0     H99585   7.872  -0.019   3.389  0.6450 -2.8816  0.1572
  738MOL0     H99586   7.661   0.062   3.495  1.9571  1.1382 -0.5601
  738MOL0     H99587   7.713   0.000   3.657  0.0748  0.8763  0.0393
  738MOL0     H99588   7.665  -0.144   3.391  1.2952 -0.3103  0.1959
  738MOL0     H99589   7.568  -0.154   3.540  1.0714 -0.2543  3.1889
  738MOL0     H99590   7.874  -0.430   3.410 -1.1751 -0.6386 -0.6491
  738MOL0     H99591   7.786  -0.699   3.246 -3.5422 -0.0130  1.5886
  738MOL0     H99592   7.929  -0.638   3.329  0.7414  0.1799  1.7627
  738MOL0     H99593   7.834  -0.781   3.388  1.1533 -1.0222  0.3899
  738MOL0     H99594   7.299  -0.858   3.667  1.0068  0.1384 -0.0232
  738MOL0     H99595   7.127  -1.049   3.654  1.4227 -1.6059  2.5281
  738MOL0     H99596   7.024  -1.226   3.629  1.1190  1.7930 -0.5120
  738MOL0     H99597   7.030  -1.399   3.610  2.3299 -1.7987 -0.4608
  738MOL0     H99598   7.218  -1.423   3.766  0.0041 -1.4088  0.2672
  738MOL0     H99599   7.205  -1.259   3.816  1.0405 -1.2407 -1.7289
  738MOL0     H99600   6.986  -1.475   3.823 -0.2310 -1.5585  1.8884
  738MOL0     H99601   6.968  -1.307   3.892 -0.5294 -0.1862  0.8802
  738MOL0     H99602   7.168  -1.524   3.950 -2.6044 -1.6382 -1.1121
  738MOL0     H99603   7.156  -1.366   4.036  1.0486 -1.1236 -0.7483
  738MOL0     H99604   7.037  -1.548   4.164  1.7178  0.9951 -1.1203
  738MOL0     H99605   6.923  -1.574   4.027  1.8596 -0.7886 -0.2981
  738MOL0     H99606   6.960  -1.295   4.149  0.0313 -1.0634  4.1699
  738MOL0     H99607   6.822  -1.357   4.063  1.6051  0.0611 -2.6386
  738MOL0     H99608   6.802  -1.335   4.327 -1.9549 -0.9624  0.3429
  738MOL0     H99609   6.929  -1.464   4.318  1.4816  2.0607 -1.0085
  738MOL0     H99610   6.685  -1.539   4.362  2.8039 -2.5486  0.4324
  738MOL0     H99611   6.733  -1.603   4.206 -2.1810 -0.1128 -0.3083
  738MOL0     H99612   7.419  -1.277   3.429 -0.7439 -0.2646 -1.5673
  738MOL0     H99613   7.576  -1.075   3.440 -0.5010 -1.3118 -0.6708
  738MOL0     H99614   7.480  -0.612   3.636  0.4873 -0.0167  1.0750
  738MOL0     H99615   7.541  -0.371   3.673 -0.2205 -0.6724  1.0369
  738MOL0     H99616   9.177   0.342   3.933 -3.0728 -2.2731 -0.1401
  738MOL0     H99617   9.351   0.447   3.815 -1.9624  2.4672 -0.1444
  738MOL0     H99618   9.437   0.755   3.263 -1.2652 -1.0342  2.1908
  738MOL0     H99619   9.647   0.858   3.202  0.3335 -0.5115 -0.6037
  738MOL0     H99620  10.004   0.635   3.243  0.7621 -0.0695 -0.7694
  738MOL0     H99621   9.873   0.686   3.131 -2.0644  1.6832  1.0504
  738MOL0     H99622  10.011   0.900   3.098 -0.8689 -0.5606  0.6515
  738MOL0     H99623  10.097   0.760   3.050 -0.5237  0.5571 -0.3140
  738MOL0     H99624  10.228   0.758   3.265 -1.2691 -1.3378 -0.8691
  738MOL0     H99625  10.121   0.894   3.321  0.6978 -0.7701  0.1601
  738MOL0     H99626  10.211   1.025   3.129 -1.6148 -1.8272 -0.1189
  738MOL0     H99627  10.305   0.890   3.076  0.6731 -0.1450  0.7828
  738MOL0     H99628  10.558   1.003   3.389  2.6378 -0.7928 -2.6065
  738MOL0     H99629   9.841   0.584   3.483 -0.9785 -2.8681 -0.7194
  738MOL0     H99630   9.631   0.488   3.546 -1.7503  0.5019  1.4611
  739MOL0     O99631   0.330   7.108   7.595 -0.2413 -0.0972 -0.2768
  739MOL0     C99632   0.378   7.208   7.635  0.4760 -0.1222 -0.3545
  739MOL0     O99633   0.304   7.311   7.669  0.8257 -0.6971  0.4876
  739MOL0     C99634   0.172   7.307   7.715 -0.3454 -0.0485 -0.8098
  739MOL0     C99635   0.126   7.208   7.797 -0.4175  0.7541  0.1201
  739MOL0     C99636  -0.009   7.207   7.848 -0.4605 -1.0475 -0.4259
  739MOL0     C99637  -0.104   7.308   7.805  0.1455  0.4598 -0.1822
  739MOL0     O99638  -0.235   7.317   7.846  0.2710 -0.4693  0.3225
  739MOL0     C99639  -0.294   7.188   7.884 -0.2965  0.2105  0.4219
  739MOL0     C99640  -0.442   7.215   7.885  0.7908  0.3024 -0.0967
  739MOL0     C99641  -0.538   7.106   7.958 -0.0602 -0.0509 -0.2973
  739MOL0     C99642  -0.551   6.974   7.879  0.3969 -0.3847 -0.3886
  739MOL0     C99643  -0.528   6.850   7.973  0.2980 -0.2008 -0.1054
  739MOL0     C99644  -0.641   6.830   8.070  0.1518 -0.2055 -0.0641
  739MOL0     C99645  -0.780   6.805   8.024 -0.1814 -0.4330 -0.1174
  739MOL0     C99646  -0.867   6.919   8.060  0.6770 -0.0943  0.5420
  739MOL0     N99647  -1.005   6.885   8.003  0.0107 -0.5803 -0.2951
  739MOL0     C99648  -1.045   6.844   7.874 -0.5881 -0.1268 -0.3101
  739MOL0     C99649  -1.181   6.832   7.881 -0.1339 -0.5003 -0.0087
  739MOL0     C99650  -1.284   6.795   7.776 -0.5996  0.8666 -0.4094
  739MOL0     C99651  -1.294   6.893   7.655 -0.2725  0.2097 -0.3963
  739MOL0     C99652  -1.425   6.985   7.645  0.0523 -0.3779 -1.0810
  739MOL0     C99653  -1.443   7.073   7.780 -0.5583  0.2307  0.2954
  739MOL0     O99654  -1.568   7.138   7.783 -1.0036  0.6078  0.6485
  739MOL0     C99655  -1.680   7.063   7.766 -0.1420  0.3894 -0.2844
  739MOL0     C99656  -1.693   6.932   7.813  0.2357 -1.4370  0.6849
  739MOL0     C99657  -1.808   6.867   7.811  0.3834  0.1080 -0.4563
  739MOL0     C99658  -1.795   6.737   7.883  0.7059 -0.3638 -0.5620
  739MOL0     C99659  -1.929   6.929   7.771  0.0588  0.2470 -0.3380
  739MOL0     C99660  -2.068   6.869   7.774 -0.1871  0.3279  0.6127
  739MOL0     O99661  -2.089   6.748   7.809 -0.4233  0.0562 -0.3129
  739MOL0     C99662  -2.217   6.705   7.847  0.0060  0.7397 -0.6459
  739MOL0     C99663  -2.232   6.572   7.817  0.4001  0.0800 -0.4004
  739MOL0     C99664  -2.346   6.502   7.841 -0.0189 -0.4433 -0.5764
  739MOL0     C99665  -2.464   6.571   7.884  0.6995  0.4769  0.5103
  739MOL0     O99666  -2.591   6.516   7.882  0.7190  0.8820  0.3050
  739MOL0     C99667  -2.675   6.547   7.762 -0.1300 -0.1468  0.0811
  739MOL0     C99668  -2.822   6.573   7.784 -0.8132 -0.2023 -0.2499
  739MOL0     C99669  -2.907   6.452   7.817  0.7178  0.2432 -0.0673
  739MOL0     C99670  -3.054   6.471   7.789 -0.6132 -0.1461  0.1396
  739MOL0     C99671  -3.124   6.334   7.819 -0.5212 -0.3378 -0.3729
  739MOL0     C99672  -3.277   6.325   7.778  0.9113 -0.1501 -0.0929
  739MOL0     C99673  -3.308   6.311   7.631 -1.0905 -0.0721  0.2328
  739MOL0     C99674  -3.458   6.325   7.598 -0.8815  0.0217 -0.3411
  739MOL0    Cl99675  -3.516   6.496   7.611  0.7332 -0.2928 -0.0679
  739MOL0     C99676  -2.452   6.709   7.913 -0.2579  0.3380 -0.4805
  739MOL0     C99677  -2.328   6.771   7.906 -0.5678  0.1358 -0.2190
  739MOL0     O99678  -2.157   6.946   7.747 -1.2866 -0.3402  0.0612
  739MOL0     C99679  -1.920   7.054   7.700  0.0015  0.2082 -0.1003
  739MOL0     C99680  -1.791   7.126   7.708  0.2035  0.7700  0.8698
  739MOL0     N99681  -1.223   6.866   8.013  0.1956 -0.4437  0.1343
  739MOL0     N99682  -1.117   6.894   8.081 -0.1092 -0.0010 -0.5366
  739MOL0     C99683  -0.050   7.411   7.728  0.1486 -0.4196  0.8062
  739MOL0     C99684   0.085   7.406   7.676  0.0271  0.1019 -0.9647
  739MOL0     C99685   0.516   7.231   7.592 -0.8808 -0.3234 -0.8266
  739MOL0     C99686   0.581   7.354   7.555  0.7080 -0.4349  0.3616
  739MOL0     C99687   0.714   7.345   7.506 -0.2923 -0.2849 -1.0124
  739MOL0     C99688   0.785   7.224   7.502  0.3420 -0.1806 -0.4440
  739MOL0     O99689   0.916   7.219   7.458 -0.1792 -0.9234 -0.1196
  739MOL0     C99690   0.973   7.329   7.381  0.0755  0.2052 -0.1403
  739MOL0     C99691   0.911   7.361   7.254 -0.2252  0.0549 -0.0003
  739MOL0     C99692   0.865   7.230   7.172 -0.3052  0.0298  0.5458
  739MOL0     C99693   0.807   7.273   7.037  0.5897  0.7755  0.2662
  739MOL0     C99694   0.728   7.161   6.972  0.0679 -0.8295 -0.0414
  739MOL0     C99695   0.662   7.072   6.914  0.0510 -0.6159  0.1786
  739MOL0     C99696   0.716   7.105   7.536  0.6216 -0.5432 -0.2848
  739MOL0     C99697   0.586   7.110   7.586 -0.7803 -0.5955  0.2736
  739MOL0     H99698   0.194   7.130   7.829  0.3958  1.3288 -0.1678
  739MOL0     H99699  -0.042   7.134   7.921 -0.8134  0.2800  0.8001
  739MOL0     H99700  -0.263   7.114   7.809 -0.7796  2.2154 -1.8982
  739MOL0     H99701  -0.254   7.163   7.982 -1.3228  4.4416  2.1349
  739MOL0     H99702  -0.444   7.308   7.941  2.5591 -0.4845  1.3771
  739MOL0     H99703  -0.484   7.238   7.786 -0.5880 -2.0166 -0.1387
  739MOL0     H99704  -0.497   7.080   8.056 -2.0970  0.8600  0.8782
  739MOL0     H99705  -0.640   7.144   7.976 -0.7438 -1.1864 -1.6283
  739MOL0     H99706  -0.649   6.972   7.830 -2.5909  1.4769  4.8000
  739MOL0     H99707  -0.467   6.966   7.808 -1.1632 -0.5748 -2.2970
  739MOL0     H99708  -0.517   6.759   7.913  1.6652 -0.6497  0.7857
  739MOL0     H99709  -0.440   6.860   8.036 -0.4249 -0.9881  1.0726
  739MOL0     H99710  -0.601   6.744   8.125 -0.0128 -0.6904 -0.6943
  739MOL0     H99711  -0.640   6.911   8.144  0.4584 -1.3817  1.2685
  739MOL0     H99712  -0.778   6.783   7.917 -2.1173  0.3325 -0.3627
  739MOL0     H99713  -0.826   6.722   8.078 -2.1919  0.8064  0.1944
  739MOL0     H99714  -0.833   7.008   8.007 -0.7963  0.8550  1.1303
  739MOL0     H99715  -0.862   6.940   8.167  1.2106  0.7949  0.3598
  739MOL0     H99716  -0.980   6.826   7.789  0.4633 -1.9911  0.8118
  739MOL0     H99717  -1.273   6.690   7.744 -3.8417  0.2138  0.2595
  739MOL0     H99718  -1.377   6.773   7.828  1.0110 -0.4218  2.1708
  739MOL0     H99719  -1.274   6.851   7.556  0.2945 -0.6294  0.0673
  739MOL0     H99720  -1.220   6.972   7.671 -1.6867  2.0755 -2.5017
  739MOL0     H99721  -1.516   6.926   7.628  0.1315 -1.1765  0.9409
  739MOL0     H99722  -1.420   7.059   7.565 -0.2418  1.8664  0.8382
  739MOL0     H99723  -1.362   7.147   7.775  1.2408 -1.7249 -2.6941
  739MOL0     H99724  -1.425   7.008   7.866  0.4717  0.8461  0.5594
  739MOL0     H99725  -1.601   6.887   7.848  2.0461  0.6771 -1.0909
  739MOL0     H99726  -1.698   6.705   7.924  1.1705  2.0328  0.3522
  739MOL0     H99727  -1.873   6.729   7.959 -0.1466  0.4888 -1.3358
  739MOL0     H99728  -1.817   6.661   7.807  2.2376 -0.8440 -0.5706
  739MOL0     H99729  -2.152   6.511   7.775  1.5430 -0.3515  2.2033
  739MOL0     H99730  -2.357   6.398   7.812 -1.3327 -0.2722 -0.7517
  739MOL0     H99731  -2.624   6.630   7.712 -0.5785 -0.2162 -0.5046
  739MOL0     H99732  -2.665   6.466   7.689 -0.1533  0.8597 -1.0728
  739MOL0     H99733  -2.829   6.640   7.870 -3.1251 -2.2235  1.2671
  739MOL0     H99734  -2.850   6.625   7.692 -0.1910 -0.3999 -0.5498
  739MOL0     H99735  -2.886   6.421   7.920  0.0485  1.8714  0.5958
  739MOL0     H99736  -2.875   6.373   7.748 -0.7072  0.0717 -0.5744
  739MOL0     H99737  -3.085   6.552   7.856 -2.9021  0.6077 -1.7188
  739MOL0     H99738  -3.081   6.499   7.687 -1.9197 -0.9696  0.2375
  739MOL0     H99739  -3.115   6.320   7.927  0.2785 -1.5784 -0.5850
  739MOL0     H99740  -3.069   6.254   7.768  0.4132 -1.0011  1.5692
  739MOL0     H99741  -3.321   6.240   7.830  0.5101 -0.8622 -1.5472
  739MOL0     H99742  -3.319   6.419   7.814  1.5239 -0.2592  0.9719
  739MOL0     H99743  -3.278   6.214   7.590 -1.8460  0.5943 -2.0323
  739MOL0     H99744  -3.265   6.389   7.569 -3.1493  1.0324  0.1073
  739MOL0     H99745  -3.518   6.265   7.667 -1.9695 -0.0081 -1.2882
  739MOL0     H99746  -3.478   6.290   7.496 -0.2767  3.0600 -1.6264
  739MOL0     H99747  -2.540   6.764   7.944  0.0968  1.1965 -0.9638
  739MOL0     H99748  -2.309   6.875   7.930  0.0470 -0.5746  2.7878
  739MOL0     H99749  -2.009   7.090   7.649 -2.2317  1.2568  4.0993
  739MOL0     H99750  -1.774   7.210   7.642 -1.4677  1.7278  1.6032
  739MOL0     H99751  -0.114   7.494   7.702  2.1085  1.6962  2.4083
  739MOL0     H99752   0.119   7.485   7.610 -1.3646 -0.4390 -2.3858
  739MOL0     H99753   0.512   7.438   7.560 -0.0204 -0.8947 -1.2990
  739MOL0     H99754   0.777   7.429   7.476  0.5610 -1.1766 -1.7902
  739MOL0     H99755   0.985   7.414   7.449 -1.2223  0.9546 -0.8089
  739MOL0     H99756   1.070   7.280   7.365 -0.7308 -1.3485 -0.5635
  739MOL0     H99757   0.978   7.426   7.197  0.0367  0.0785  0.3280
  739MOL0     H99758   0.823   7.421   7.276 -1.1346 -1.7615  1.6085
  739MOL0     H99759   0.796   7.166   7.229 -0.8567 -0.3913 -0.5694
  739MOL0     H99760   0.957   7.173   7.158 -0.7337  0.0214 -2.9344
  739MOL0     H99761   0.884   7.307   6.968  0.9377 -1.9430 -0.8015
  739MOL0     H99762   0.732   7.348   7.066 -0.8771 -1.1114  1.5768
  739MOL0     H99763   0.602   7.001   6.862 -1.3781  0.2679  0.5370
  739MOL0     H99764   0.764   7.009   7.522  0.0050 -0.8504 -0.3565
  739MOL0     H99765   0.547   7.024   7.640  1.1371 -0.0939  2.6268
  740MOL0     O99766   3.407   3.671  10.163  0.1032  0.7962 -0.2482
  740MOL0     C99767   3.388   3.755  10.082  0.3652 -0.3864 -0.3755
  740MOL0     O99768   3.257   3.795  10.042  0.0742 -0.0083 -0.7864
  740MOL0     C99769   3.143   3.733  10.085  0.7141  0.9104 -0.5568
  740MOL0     C99770   3.123   3.692  10.219  0.2046  1.3996  0.0442
  740MOL0     C99771   3.012   3.619  10.250  0.9576  0.1143 -0.3388
  740MOL0     C99772   2.911   3.593  10.156  1.2848 -0.2637 -0.7653
  740MOL0     O99773   2.792   3.523  10.186 -0.2179  1.1198  0.0467
  740MOL0     C99774   2.794   3.439  10.305 -0.1744  0.8581  0.0342
  740MOL0     C99775   2.662   3.355  10.319 -0.5923 -0.6857 -0.2756
  740MOL0     C99776   2.541   3.441  10.346  0.6244 -0.4722  1.2405
  740MOL0     C99777   2.466   3.474  10.216  0.1436 -0.3711  0.2482
  740MOL0     C99778   2.320   3.508  10.246 -0.4754  0.6154 -0.2226
  740MOL0     C99779   2.239   3.383  10.221  1.0711  0.4497  0.8511
  740MOL0     C99780   2.103   3.399  10.293 -0.5096 -0.0438 -0.7653
  740MOL0     C99781   1.985   3.306  10.268  0.6688 -0.0539  0.5337
  740MOL0     N99782   1.858   3.357  10.320 -0.1348  0.9220  0.5025
  740MOL0     C99783   1.847   3.411  10.447 -0.1214  0.4095  0.1157
  740MOL0     C99784   1.719   3.443  10.452 -0.5575 -0.0397  0.5776
  740MOL0     C99785   1.652   3.510  10.567  0.5019  0.1396 -0.3093
  740MOL0     C99786   1.681   3.652  10.572  0.2982 -0.6984 -0.9158
  740MOL0     C99787   1.603   3.727  10.676 -0.0664 -1.4935  0.8605
  740MOL0     C99788   1.623   3.657  10.818 -0.1815  0.9059 -0.2938
  740MOL0     O99789   1.558   3.740  10.917  0.2922  0.5720  0.3924
  740MOL0     C99790   1.421   3.722  10.923 -0.3462 -0.5809  0.4094
  740MOL0     C99791   1.330   3.687  10.812 -0.7839  0.0997 -0.1301
  740MOL0     C99792   1.193   3.701  10.825  0.9196 -0.0332  0.4051
  740MOL0     C99793   1.113   3.661  10.701 -0.3139 -0.5967  0.6079
  740MOL0     C99794   1.129   3.746  10.942 -0.4185 -0.0665  0.5996
  740MOL0     C99795   0.982   3.767  10.959 -0.4023  0.1682 -0.5409
  740MOL0     O99796   0.945   3.802  11.086 -0.0620 -0.3249  0.3076
  740MOL0     C99797   0.813   3.838  11.100  0.5887  0.0768 -0.9875
  740MOL0     C99798   0.722   3.739  11.121 -0.0941  0.0986  1.2292
  740MOL0     C99799   0.586   3.768  11.150  0.0934 -1.1959  0.2220
  740MOL0     C99800   0.540   3.904  11.155  0.1004  0.1086 -0.0838
  740MOL0     O99801   0.412   3.927  11.187  0.1632 -0.4207 -0.5929
  740MOL0     C99802   0.378   4.021  11.292  0.4240  0.2580 -0.2893
  740MOL0     C99803   0.234   3.991  11.335  1.0801  0.5328 -0.0481
  740MOL0     C99804   0.139   4.059  11.240  0.7445 -0.8313 -0.1959
  740MOL0     C99805   0.017   3.973  11.213 -0.2451  0.6726 -0.3034
  740MOL0     C99806  -0.084   4.039  11.117 -0.9140  0.3487  0.3459
  740MOL0     C99807  -0.019   4.063  10.973 -0.0950  0.3353  0.4902
  740MOL0     C99808  -0.131   4.096  10.876  0.4758 -0.6291 -0.4703
  740MOL0     C99809  -0.201   3.977  10.801 -0.2219 -0.3215  0.1340
  740MOL0    Cl99810  -0.351   4.026  10.728  0.3580  0.3214 -0.2255
  740MOL0     C99811   0.643   4.002  11.130  0.5167  1.0471 -0.5015
  740MOL0     C99812   0.774   3.968  11.098  0.1682  0.5771  0.2949
  740MOL0     O99813   0.910   3.768  10.861 -0.9020  0.2274 -0.5279
  740MOL0     C99814   1.223   3.782  11.047  0.3843 -0.3197 -1.1253
  740MOL0     C99815   1.359   3.765  11.041  0.2335 -0.0890  0.0477
  740MOL0     N99816   1.646   3.378  10.351 -0.0104  0.2316 -0.9621
  740MOL0     N99817   1.736   3.327  10.274 -0.0459 -0.3460 -0.5782
  740MOL0     C99818   2.931   3.626  10.028  0.5690 -0.8132  0.6807
  740MOL0     C99819   3.048   3.700   9.989  0.4272 -0.1104 -0.1812
  740MOL0     C99820   3.499   3.832  10.033  0.4376 -0.3702  0.1910
  740MOL0     C99821   3.628   3.793  10.063  0.6713 -0.0541  0.2708
  740MOL0     C99822   3.734   3.861  10.015  0.4625 -0.4845 -0.6663
  740MOL0     C99823   3.727   3.981   9.947 -0.2837  0.3172  0.1513
  740MOL0     O99824   3.833   4.053   9.899  0.5957  0.4939  0.3333
  740MOL0     C99825   3.954   3.984   9.873 -0.0038 -0.7119 -0.7049
  740MOL0     C99826   4.017   4.073   9.759 -0.5169  0.4723 -0.3896
  740MOL0     C99827   4.158   4.012   9.730 -0.0933 -0.4587  0.5661
  740MOL0     C99828   4.251   4.096   9.642 -0.6736 -0.3457 -0.1752
  740MOL0     C99829   4.301   4.216   9.703 -0.4164 -0.1898  0.8509
  740MOL0     C99830   4.343   4.316   9.762  0.2312  0.3146  0.0661
  740MOL0     C99831   3.603   4.039   9.927 -0.6612 -0.4832 -0.5147
  740MOL0     C99832   3.489   3.960   9.964  0.0968  0.9624 -0.0667
  740MOL0     H99833   3.198   3.720  10.292  1.5523 -0.5369 -0.5350
  740MOL0     H99834   2.986   3.568  10.342  2.1822  0.7657  0.3956
  740MOL0     H99835   2.886   3.379  10.306  1.6096  3.4210  1.2895
  740MOL0     H99836   2.791   3.500  10.395  1.8254  0.4051  0.4604
  740MOL0     H99837   2.658   3.290  10.231  3.8359  1.3399 -2.2897
  740MOL0     H99838   2.680   3.296  10.409  1.5546 -0.1003 -0.2623
  740MOL0     H99839   2.485   3.391  10.426  2.6634 -1.7817  1.9274
  740MOL0     H99840   2.569   3.536  10.392 -0.9796 -0.2029  1.7207
  740MOL0     H99841   2.521   3.557  10.170  1.9245 -2.1221 -0.9677
  740MOL0     H99842   2.464   3.387  10.148  1.0737  1.4792 -2.2931
  740MOL0     H99843   2.312   3.560  10.342 -1.5789  0.7687 -0.3903
  740MOL0     H99844   2.290   3.585  10.174  1.1941  2.6390  1.1220
  740MOL0     H99845   2.214   3.359  10.117  0.4106 -1.0274  1.3152
  740MOL0     H99846   2.290   3.303  10.275  2.8707  0.3977 -0.8376
  740MOL0     H99847   2.129   3.382  10.397  2.7099 -0.1182 -1.4752
  740MOL0     H99848   2.061   3.499  10.276 -1.6309 -0.7863 -2.8519
  740MOL0     H99849   2.003   3.216  10.327  1.3134  0.4025  1.0490
  740MOL0     H99850   1.972   3.283  10.162 -3.9093  1.8752  0.4352
  740MOL0     H99851   1.927   3.431  10.518 -1.9765  4.1483  1.4168
  740MOL0     H99852   1.545   3.510  10.547  0.0737  3.2943  1.2801
  740MOL0     H99853   1.661   3.450  10.658  0.3681  0.8355  0.1684
  740MOL0     H99854   1.650   3.703  10.481  0.8464  2.2044  0.4118
  740MOL0     H99855   1.789   3.670  10.571  0.6032 -2.3654 -1.9078
  740MOL0     H99856   1.501   3.731  10.637  0.2669 -1.1437 -0.0137
  740MOL0     H99857   1.638   3.831  10.675 -0.2274 -1.4299 -0.2290
  740MOL0     H99858   1.728   3.654  10.849 -0.0546  2.8827 -0.4003
  740MOL0     H99859   1.583   3.555  10.820  1.3142  0.2906 -0.6278
  740MOL0     H99860   1.363   3.618  10.735 -0.5327 -2.8606  2.4157
  740MOL0     H99861   1.049   3.575  10.720  0.5743 -1.0010  1.8736
  740MOL0     H99862   1.049   3.744  10.669 -0.4421 -1.5393 -1.8049
  740MOL0     H99863   1.181   3.641  10.618 -0.5082  0.1592  0.2520
  740MOL0     H99864   0.762   3.638  11.119 -0.6673 -0.2386 -2.9326
  740MOL0     H99865   0.513   3.688  11.159  0.4017 -1.5085 -0.0506
  740MOL0     H99866   0.441   4.011  11.381 -0.9326 -0.4752  0.6272
  740MOL0     H99867   0.389   4.126  11.264 -1.2640  0.6126  0.2224
  740MOL0     H99868   0.217   3.884  11.327  2.5485  0.4261 -2.7055
  740MOL0     H99869   0.212   4.037  11.432  0.2560 -1.1753  0.6074
  740MOL0     H99870   0.182   4.079  11.142  2.2368  0.3135  0.6450
  740MOL0     H99871   0.096   4.142  11.298  2.4966 -0.9418  1.3458
  740MOL0     H99872   0.049   3.877  11.171 -0.4221 -0.4971  2.0959
  740MOL0     H99873  -0.009   3.953  11.317  0.5251  1.1647 -0.0082
  740MOL0     H99874  -0.115   4.141  11.139 -1.7107 -0.1183  1.4411
  740MOL0     H99875  -0.179   3.985  11.106 -1.8145  2.3590 -4.0018
  740MOL0     H99876   0.054   4.144  10.969 -0.9524  1.1388  0.7277
  740MOL0     H99877   0.037   3.973  10.948 -1.3130  0.1844 -1.9938
  740MOL0     H99878  -0.099   4.172  10.804 -1.8805  1.5567  0.6377
  740MOL0     H99879  -0.207   4.150  10.933 -0.0017  2.3391 -3.5754
  740MOL0     H99880  -0.229   3.901  10.874 -1.5869  1.3282  1.4173
  740MOL0     H99881  -0.139   3.936  10.721 -2.5471 -1.7375 -1.0525
  740MOL0     H99882   0.611   4.101  11.159  0.1691  0.1971  2.3047
  740MOL0     H99883   0.855   4.040  11.088 -0.3204  1.5176  2.4437
  740MOL0     H99884   1.183   3.822  11.139 -0.4349  2.8877 -2.7440
  740MOL0     H99885   1.419   3.786  11.129  1.1432 -0.7666 -0.3912
  740MOL0     H99886   2.851   3.585   9.968 -0.3751 -3.5791  3.5486
  740MOL0     H99887   3.067   3.711   9.883 -0.8999 -0.2611 -0.4514
  740MOL0     H99888   3.647   3.699  10.114  0.3445 -0.9007 -1.1199
  740MOL0     H99889   3.833   3.820  10.027 -0.0433 -1.4606  0.3662
  740MOL0     H99890   4.024   3.986   9.957 -0.4653  2.7405 -0.2660
  740MOL0     H99891   3.940   3.880   9.844 -1.6853 -0.8371  0.4010
  740MOL0     H99892   4.033   4.173   9.800  1.7774  0.1847 -0.4657
  740MOL0     H99893   3.964   4.070   9.663  3.0137  2.5480 -2.6124
  740MOL0     H99894   4.154   3.907   9.699  0.5102 -1.2826  3.0501
  740MOL0     H99895   4.217   4.010   9.822  1.9940  2.6825 -0.5233
  740MOL0     H99896   4.206   4.115   9.544  0.1569 -2.9488 -1.1342
  740MOL0     H99897   4.341   4.035   9.634  1.6086  2.6807  0.5763
  740MOL0     H99898   4.384   4.404   9.808 -2.2016  1.1864  0.7499
  740MOL0     H99899   3.605   4.136   9.877 -1.4125 -0.6992 -0.9874
  740MOL0     H99900   3.392   3.999   9.935 -1.4455 -1.6273  1.2856
  741MOL0     O99901   8.705   0.912   3.435 -0.4313 -0.2779 -0.4846
  741MOL0     C99902   8.746   0.936   3.319  0.0737 -0.2279 -0.4598
  741MOL0     O99903   8.685   0.891   3.209  0.5747 -0.0641  0.3781
  741MOL0     C99904   8.578   0.811   3.217  0.7866  0.6207 -0.2899
  741MOL0     C99905   8.455   0.846   3.278  1.0562  0.3651 -0.7188
  741MOL0     C99906   8.340   0.760   3.267 -0.1639 -0.3311 -0.1749
  741MOL0     C99907   8.349   0.636   3.205 -0.2296 -0.5387  0.3920
  741MOL0     O99908   8.246   0.542   3.192 -0.4431 -0.3900  0.1222
  741MOL0     C99909   8.116   0.575   3.251  1.1573  0.1792  0.5366
  741MOL0     C99910   8.056   0.680   3.157  1.2407 -0.2722  0.2961
  741MOL0     C99911   8.027   0.629   3.010  0.8804 -0.3060  0.9780
  741MOL0     C99912   8.021   0.747   2.916 -0.7651  1.1766 -0.2281
  741MOL0     C99913   7.899   0.838   2.929  0.6293  0.0010 -0.2288
  741MOL0     C99914   7.761   0.764   2.930 -0.8592 -0.6242  0.2107
  741MOL0     C99915   7.723   0.688   2.803  0.0449 -0.4368  0.1417
  741MOL0     C99916   7.752   0.771   2.672 -0.9169 -0.4089 -0.2472
  741MOL0     N99917   7.670   0.887   2.654  0.5594 -0.0926 -0.9116
  741MOL0     C99918   7.682   1.011   2.728  0.1173  0.2406  1.1238
  741MOL0     C99919   7.587   1.089   2.673  0.4299  0.5314 -0.2919
  741MOL0     C99920   7.550   1.225   2.727 -0.1150 -0.4509 -0.3313
  741MOL0     C99921   7.659   1.331   2.724 -0.0007 -0.0108  0.0849
  741MOL0     C99922   7.640   1.458   2.816 -0.2793 -0.1276 -0.0910
  741MOL0     C99923   7.770   1.527   2.863  1.1368 -0.3352 -0.1500
  741MOL0     O99924   7.850   1.429   2.926 -0.3555  0.2905  0.3589
  741MOL0     C99925   7.950   1.484   2.998 -0.2975  0.6800 -0.0187
  741MOL0     C99926   7.932   1.500   3.138  0.3644  0.3551  0.0987
  741MOL0     C99927   8.036   1.550   3.216 -0.4932 -0.2914 -0.8208
  741MOL0     C99928   8.016   1.527   3.360 -0.1640 -0.5886 -0.1055
  741MOL0     C99929   8.147   1.608   3.159 -0.4158 -0.8996  0.0721
  741MOL0     C99930   8.253   1.673   3.243  0.8925  0.8084 -0.0309
  741MOL0     O99931   8.359   1.594   3.273 -0.2003  1.0601  0.0219
  741MOL0     C99932   8.462   1.658   3.340 -0.1999  0.0019 -0.1567
  741MOL0     C99933   8.539   1.757   3.271  0.8026 -0.0694 -0.1400
  741MOL0     C99934   8.636   1.830   3.343 -0.0316 -0.6648 -0.7992
  741MOL0     C99935   8.666   1.790   3.473  0.3018  0.3115 -0.6546
  741MOL0     O99936   8.780   1.854   3.528  0.7610  0.5296 -0.2242
  741MOL0     C99937   8.812   1.806   3.667 -0.1392 -0.1145  0.1313
  741MOL0     C99938   8.945   1.880   3.704 -0.1110  0.1215  0.1344
  741MOL0     C99939   8.970   1.867   3.852  0.2089  0.0559 -0.7643
  741MOL0     C99940   9.111   1.914   3.899  0.9995  0.0838  0.5825
  741MOL0     C99941   9.126   1.872   4.043 -0.0638  0.1218  0.3470
  741MOL0     C99942   9.247   1.941   4.111  0.6822  0.5678 -0.0262
  741MOL0     C99943   9.385   1.898   4.056  1.0239 -0.3508 -0.6783
  741MOL0     C99944   9.501   1.982   4.111  0.5044  0.3752  0.0596
  741MOL0    Cl99945   9.645   1.915   4.046  0.1176  0.1542  0.2470
  741MOL0     C99946   8.597   1.689   3.538 -1.3454 -0.8028  0.0039
  741MOL0     C99947   8.493   1.625   3.474 -0.0701 -0.1755 -0.2046
  741MOL0     O99948   8.225   1.781   3.289 -1.7009  0.2392  0.2502
  741MOL0     C99949   8.161   1.614   3.020  0.8229  0.3456  0.0883
  741MOL0     C99950   8.061   1.553   2.939 -0.2761  0.5583  0.4033
  741MOL0     N99951   7.517   1.019   2.580 -0.6746  0.2906  0.0400
  741MOL0     N99952   7.564   0.897   2.571  0.8343 -0.3270  0.6842
  741MOL0     C99953   8.474   0.597   3.161 -0.2039 -0.3146 -0.3861
  741MOL0     C99954   8.583   0.683   3.166 -0.3226 -0.0006 -0.3976
  741MOL0     C99955   8.874   1.006   3.291 -0.1779  0.7100  0.2404
  741MOL0     C99956   8.921   1.030   3.158 -0.7023  0.1682  0.0883
  741MOL0     C99957   9.051   1.068   3.142 -0.4144  0.6555  0.1793
  741MOL0     C99958   9.139   1.091   3.249  0.3656 -0.0766  0.5023
  741MOL0     O99959   9.269   1.128   3.229  1.0110  0.2558  0.1953
  741MOL0     C99960   9.320   1.250   3.286  0.0171 -0.1634 -0.1062
  741MOL0     C99961   9.468   1.226   3.323  0.7273 -0.3414  0.5750
  741MOL0     C99962   9.483   1.149   3.462  0.0890 -0.1617  0.1938
  741MOL0     C99963   9.495   1.243   3.579 -1.7096  0.0600  0.1396
  741MOL0     C99964   9.641   1.267   3.593 -0.9008 -0.1709 -0.3081
  741MOL0     C99965   9.760   1.290   3.590 -0.4256  0.1244 -0.4698
  741MOL0     C99966   9.091   1.066   3.380 -0.1122 -0.8447  0.6620
  741MOL0     C99967   8.963   1.021   3.399  0.2485  0.4385  0.9332
  741MOL0     H99968   8.450   0.942   3.329  0.1346 -0.2007  0.2961
  741MOL0     H99969   8.252   0.800   3.317  2.0791  1.9809  2.2979
  741MOL0     H99970   8.056   0.484   3.265  0.2153  0.9667  1.8081
  741MOL0     H99971   8.124   0.617   3.351 -3.7252  0.6057  0.9629
  741MOL0     H99972   7.969   0.716   3.213  1.6014 -0.6255  1.1012
  741MOL0     H99973   8.121   0.768   3.149  1.1884 -0.2568  0.0430
  741MOL0     H99974   8.108   0.565   2.975 -1.8556 -3.9667  0.7529
  741MOL0     H99975   7.931   0.576   3.010  0.8690 -0.3646 -1.2680
  741MOL0     H99976   8.116   0.801   2.916  2.2072 -3.5079 -1.5734
  741MOL0     H99977   8.013   0.706   2.815 -1.0944  1.4200 -0.3045
  741MOL0     H99978   7.912   0.908   3.013 -0.2861  1.4590 -1.2696
  741MOL0     H99979   7.909   0.905   2.843  0.0243  0.3116 -0.0647
  741MOL0     H99980   7.764   0.707   3.023  0.9644  0.1760  0.6831
  741MOL0     H99981   7.681   0.836   2.949  0.9402  1.5320 -0.0194
  741MOL0     H99982   7.779   0.595   2.815  0.4936 -0.2306 -0.3265
  741MOL0     H99983   7.614   0.675   2.801  0.0317 -0.2705 -1.5451
  741MOL0     H99984   7.743   0.712   2.581  1.0580  2.7993 -2.7639
  741MOL0     H99985   7.852   0.816   2.665 -1.5996  1.0078 -1.1893
  741MOL0     H99986   7.758   1.044   2.798  0.7012  3.8652 -0.9618
  741MOL0     H99987   7.467   1.269   2.671  2.5752  0.7506 -3.7245
  741MOL0     H99988   7.530   1.208   2.833 -0.9248  0.1667 -0.3771
  741MOL0     H99989   7.676   1.352   2.618  0.6447 -1.5762 -0.1505
  741MOL0     H99990   7.753   1.286   2.756 -0.4474  0.2145  1.8010
  741MOL0     H99991   7.591   1.426   2.908 -1.5191  1.2976 -0.2206
  741MOL0     H99992   7.570   1.530   2.774 -0.6212  0.0925  0.8258
  741MOL0     H99993   7.746   1.611   2.929  1.9017  1.5604 -2.1664
  741MOL0     H99994   7.805   1.573   2.770 -1.4740 -0.3987 -1.2598
  741MOL0     H99995   7.836   1.467   3.176  1.0714  0.1984  1.8127
  741MOL0     H99996   8.101   1.492   3.419  1.8532  0.0585 -2.4730
  741MOL0     H99997   7.976   1.619   3.404 -1.5579 -0.7510 -0.9643
  741MOL0     H99998   7.939   1.449   3.363 -0.9936  0.2236  0.7878
  741MOL0     H99999   8.507   1.793   3.174  2.8475  1.7788 -0.2126
  741MOL0     H    0   8.700   1.903   3.293  0.6257  0.8501  2.0189
  741MOL0     H    1   8.731   1.835   3.734  0.2722  0.3904  0.4170
  741MOL0     H    2   8.825   1.698   3.668 -2.3365 -0.4169  0.0576
  741MOL0     H    3   9.021   1.824   3.648  1.0697 -2.3876  3.9059
  741MOL0     H    4   8.940   1.981   3.663  3.3238  0.9796  1.4983
  741MOL0     H    5   8.961   1.762   3.880 -1.0044  0.2247 -0.4954
  741MOL0     H    6   8.894   1.923   3.907 -0.7512 -1.9077 -0.0109
  741MOL0     H    7   9.182   1.852   3.843  0.1431 -0.8866  0.5368
  741MOL0     H    8   9.138   2.018   3.879  0.2707 -0.0042 -0.9867
  741MOL0     H    9   9.138   1.763   4.050  0.9388  0.3469  3.3068
  741MOL0     H   10   9.035   1.899   4.097 -1.0177 -0.4665 -0.8908
  741MOL0     H   11   9.240   2.049   4.095  0.9537  0.7550  1.0291
  741MOL0     H   12   9.245   1.933   4.220  2.3233 -0.3781 -0.0321
  741MOL0     H   13   9.397   1.893   3.947  2.4739 -3.1246 -0.4652
  741MOL0     H   14   9.396   1.797   4.096 -1.3909  0.8148  3.5481
  741MOL0     H   15   9.502   1.979   4.220  1.5645 -2.1939  0.0372
  741MOL0     H   16   9.486   2.084   4.075 -0.3926  0.0845 -0.4226
  741MOL0     H   17   8.621   1.663   3.640  2.2900 -0.5375 -0.6598
  741MOL0     H   18   8.435   1.543   3.515  4.4687 -2.8050  1.7043
  741MOL0     H   19   8.242   1.655   2.960  0.8486  2.0501  1.2243
  741MOL0     H   20   8.067   1.560   2.831 -1.9711 -1.1844  0.1483
  741MOL0     H   21   8.492   0.500   3.117  0.6118 -0.1058 -0.5252
  741MOL0     H   22   8.678   0.664   3.116 -0.3719  1.7599 -1.2597
  741MOL0     H   23   8.867   1.000   3.068 -0.3093 -0.7399  0.1422
  741MOL0     H   24   9.080   1.095   3.041  0.1273  0.8316  0.3792
  741MOL0     H   25   9.316   1.324   3.205  1.5988  0.3171  0.2195
  741MOL0     H   26   9.263   1.296   3.368  0.6482  0.4012  0.0217
  741MOL0     H   27   9.522   1.320   3.333  1.0827 -0.1934 -1.9542
  741MOL0     H   28   9.509   1.176   3.235 -1.0512  1.2852 -1.2942
  741MOL0     H   29   9.557   1.069   3.454 -1.0214 -1.2541  0.4903
  741MOL0     H   30   9.398   1.081   3.475 -2.4068  2.5180 -1.0769
  741MOL0     H   31   9.466   1.194   3.672  0.7730  0.3922  1.1594
  741MOL0     H   32   9.438   1.335   3.562  1.2813  1.8768 -0.9359
  741MOL0     H   33   9.860   1.326   3.577 -0.2104  0.5273  1.9207
  741MOL0     H   34   9.140   1.078   3.477  0.6921  2.7464 -0.0391
  741MOL0     H   35   8.938   1.000   3.503 -3.3003 -0.1566  0.0782
  742MOL0     O   36   2.714  10.048   3.148  0.1965 -0.5319 -0.2646
  742MOL0     C   37   2.774   9.963   3.204  0.1329 -0.1364  0.1945
  742MOL0     O   38   2.742   9.832   3.204 -0.2655  0.2767 -0.0054
  742MOL0     C   39   2.641   9.796   3.123  0.2300  0.1303 -0.3708
  742MOL0     C   40   2.536   9.725   3.189  0.4022  0.0463  0.0992
  742MOL0     C   41   2.419   9.704   3.119  0.3376 -0.1956  0.6027
  742MOL0     C   42   2.410   9.755   2.985  0.8997 -0.8928 -0.9395
  742MOL0     O   43   2.300   9.749   2.901  0.0215  0.1283 -0.3947
  742MOL0     C   44   2.180   9.681   2.956 -0.7329 -0.0340 -0.2000
  742MOL0     C   45   2.087   9.650   2.833  0.3190 -0.1698 -0.4704
  742MOL0     C   46   1.984   9.535   2.864 -0.3587 -0.3933 -0.2172
  742MOL0     C   47   1.910   9.494   2.735  0.7836  0.2799 -0.7074
  742MOL0     C   48   1.784   9.420   2.776  0.1828  0.2878 -0.3405
  742MOL0     C   49   1.703   9.398   2.652 -0.3085  0.6419  0.2330
  742MOL0     C   50   1.573   9.297   2.672 -0.3616 -0.1804 -1.2250
  742MOL0     C   51   1.518   9.261   2.539  0.2342  0.5235 -0.6537
  742MOL0     N   52   1.398   9.181   2.558  0.2186  0.4142  0.1120
  742MOL0     C   53   1.372   9.066   2.486 -0.3233 -0.3120  0.0013
  742MOL0     C   54   1.249   9.036   2.518  0.3683  0.6537 -0.8810
  742MOL0     C   55   1.184   8.902   2.475  0.7650  0.4865 -0.3360
  742MOL0     C   56   1.063   8.859   2.569 -0.2278  0.6425 -0.6335
  742MOL0     C   57   0.944   8.953   2.552  0.0231  0.1277 -0.0416
  742MOL0     C   58   0.842   8.913   2.654  0.4192 -0.3188  0.4968
  742MOL0     O   59   0.799   8.781   2.622 -0.3071  0.2281  0.2673
  742MOL0     C   60   0.676   8.765   2.579 -0.2003 -0.4244 -0.2868
  742MOL0     C   61   0.608   8.841   2.477 -0.2685  0.0631 -0.1799
  742MOL0     C   62   0.479   8.819   2.447 -0.6420 -0.3073 -0.1299
  742MOL0     C   63   0.426   8.909   2.341  0.5207 -0.5108 -0.1654
  742MOL0     C   64   0.402   8.724   2.525 -0.2056 -0.0034  0.3018
  742MOL0     C   65   0.253   8.716   2.529 -0.2223  0.3492 -0.2874
  742MOL0     O   66   0.186   8.649   2.638  0.3344 -0.5789 -0.0153
  742MOL0     C   67   0.050   8.625   2.640 -0.0616  0.6497 -0.6734
  742MOL0     C   68  -0.016   8.638   2.764  0.2893 -0.3426 -0.3079
  742MOL0     C   69  -0.144   8.624   2.780  0.2789  0.1933  0.5517
  742MOL0     C   70  -0.215   8.553   2.677  0.1790 -0.5174  0.3766
  742MOL0     O   71  -0.350   8.523   2.686 -0.6484  0.0743 -0.0182
  742MOL0     C   72  -0.424   8.553   2.803  0.1250 -0.0743 -0.1028
  742MOL0     C   73  -0.562   8.507   2.783 -0.2189  0.6122  1.0536
  742MOL0     C   74  -0.651   8.516   2.908  0.4200 -0.0966 -0.2967
  742MOL0     C   75  -0.797   8.495   2.855 -1.2792 -0.6213  0.6496
  742MOL0     C   76  -0.888   8.453   2.971 -0.5047 -0.0585  0.6302
  742MOL0     C   77  -1.020   8.420   2.907  0.2688  0.2093 -1.1054
  742MOL0     C   78  -1.132   8.390   3.016  0.2773 -0.3303  0.1820
  742MOL0     C   79  -1.263   8.466   2.966 -0.7944  0.1200  0.2182
  742MOL0    Cl   80  -1.227   8.641   2.973 -0.0394  0.0496  0.0417
  742MOL0     C   81  -0.147   8.518   2.565 -0.1696 -0.2178  0.1927
  742MOL0     C   82  -0.018   8.561   2.536  0.0033  0.7978  0.0792
  742MOL0     O   83   0.190   8.772   2.438  0.4283  0.4118 -0.3107
  742MOL0     C   84   0.478   8.651   2.620  0.6877  0.1790  1.0058
  742MOL0     C   85   0.611   8.671   2.644  1.3684 -0.1185 -0.2363
  742MOL0     N   86   1.192   9.126   2.612  0.2977  0.7582 -0.3432
  742MOL0     N   87   1.287   9.218   2.629 -0.5356 -0.0072 -0.6199
  742MOL0     C   88   2.520   9.809   2.921 -1.1275  0.7572  0.0616
  742MOL0     C   89   2.637   9.836   2.991 -0.6110 -0.1547  0.5345
  742MOL0     C   90   2.891  10.007   3.274 -0.1617 -0.3891 -0.3269
  742MOL0     C   91   3.014   9.938   3.269  0.7881  0.7501 -0.2007
  742MOL0     C   92   3.119   9.978   3.349  0.1738  0.3751 -0.0945
  742MOL0     C   93   3.112  10.092   3.433  0.1248  0.2489 -0.4181
  742MOL0     O   94   3.213  10.156   3.506 -0.2455  0.0432 -0.0306
  742MOL0     C   95   3.342  10.171   3.442  0.1483 -0.4675 -0.3099
  742MOL0     C   96   3.325  10.245   3.308 -0.4275  0.7800 -0.0423
  742MOL0     C   97   3.287  10.389   3.315  0.2714  0.3361  0.0903
  742MOL0     C   98   3.276  10.448   3.177  0.1761  0.2489  0.3647
  742MOL0     C   99   3.208  10.575   3.186 -0.2132  0.4752 -0.4253
  742MOL0     C  100   3.144  10.675   3.199  0.4925 -0.7158 -0.3412
  742MOL0     C  101   2.992  10.160   3.435  0.4396 -0.5401 -0.1710
  742MOL0     C  102   2.876  10.121   3.362 -0.3774  0.0846 -0.2874
  742MOL0     H  103   2.541   9.708   3.296 -1.5044 -1.3299  0.0009
  742MOL0     H  104   2.331   9.661   3.167 -3.0108  1.9238 -3.0641
  742MOL0     H  105   2.210   9.592   3.012  0.7218  0.1203 -0.7056
  742MOL0     H  106   2.130   9.753   3.021  1.9421  4.1672 -2.3697
  742MOL0     H  107   2.023   9.737   2.818 -0.8363 -1.0409 -0.7182
  742MOL0     H  108   2.147   9.623   2.746 -1.7741 -1.5641 -1.5739
  742MOL0     H  109   2.050   9.454   2.898  2.7116  0.1553 -4.0871
  742MOL0     H  110   1.917   9.566   2.944 -2.5359 -1.2039 -1.6399
  742MOL0     H  111   1.894   9.588   2.682  0.7334 -0.9011 -2.9116
  742MOL0     H  112   1.963   9.424   2.671 -0.9883 -0.2272 -1.6679
  742MOL0     H  113   1.810   9.326   2.826 -1.1906  1.4464  2.8541
  742MOL0     H  114   1.739   9.484   2.853 -0.3408 -2.0169  1.4094
  742MOL0     H  115   1.679   9.499   2.618 -0.1019 -0.0812 -2.2179
  742MOL0     H  116   1.767   9.347   2.580  2.1751  0.0087  2.6901
  742MOL0     H  117   1.599   9.200   2.715 -3.1605 -1.4949 -2.2974
  742MOL0     H  118   1.508   9.348   2.743  2.3749  0.3206  1.1321
  742MOL0     H  119   1.589   9.204   2.477  1.5093  1.4797 -0.1243
  742MOL0     H  120   1.496   9.352   2.483 -0.8475  0.5090 -0.2631
  742MOL0     H  121   1.443   9.019   2.420  0.8911  0.5505  0.6499
  742MOL0     H  122   1.157   8.920   2.371 -2.5995 -2.1888 -0.0992
  742MOL0     H  123   1.273   8.838   2.473  3.0507  3.1257  3.4362
  742MOL0     H  124   1.101   8.874   2.671  0.6643  2.4476 -1.1909
  742MOL0     H  125   1.041   8.753   2.557  1.9401 -0.0028  0.5832
  742MOL0     H  126   0.893   8.934   2.457  1.4695 -0.8485 -0.6533
  742MOL0     H  127   0.955   9.061   2.566 -2.5158  0.3173  1.0451
  742MOL0     H  128   0.761   8.986   2.644  0.6016 -0.3045 -1.1269
  742MOL0     H  129   0.877   8.918   2.758 -2.6038 -1.9618  1.7145
  742MOL0     H  130   0.657   8.920   2.422 -3.1329  2.6246  0.6873
  742MOL0     H  131   0.393   8.843   2.261  0.2575 -0.8059  0.1849
  742MOL0     H  132   0.341   8.972   2.369  2.8128  2.4891  0.6260
  742MOL0     H  133   0.500   8.983   2.309  1.0639 -0.4633  1.1158
  742MOL0     H  134   0.032   8.690   2.847 -0.7106 -1.5804  1.1048
  742MOL0     H  135  -0.182   8.664   2.873  1.9036 -0.3984  1.5123
  742MOL0     H  136  -0.389   8.489   2.885  1.7025 -0.8028 -1.2946
  742MOL0     H  137  -0.412   8.659   2.826  1.3676 -0.2514  0.1223
  742MOL0     H  138  -0.602   8.574   2.707 -2.7580  0.8704  2.5109
  742MOL0     H  139  -0.577   8.412   2.731  1.1242  0.8388  0.2061
  742MOL0     H  140  -0.657   8.617   2.949  0.2550  1.3973 -3.6653
  742MOL0     H  141  -0.612   8.450   2.985  0.4427  1.6396  1.2365
  742MOL0     H  142  -0.833   8.581   2.800  1.0567 -1.6644 -2.8394
  742MOL0     H  143  -0.797   8.412   2.783  0.2047 -1.8324  1.9392
  742MOL0     H  144  -0.886   8.536   3.043 -1.6149 -0.4290  1.0995
  742MOL0     H  145  -0.847   8.358   3.006 -0.6766 -0.6366 -0.6908
  742MOL0     H  146  -1.047   8.508   2.848 -1.4003  0.5195  0.0502
  742MOL0     H  147  -1.009   8.332   2.844  3.0953 -0.3635 -0.0008
  742MOL0     H  148  -1.109   8.433   3.114 -1.5514 -2.2517  1.5418
  742MOL0     H  149  -1.154   8.285   3.033 -1.4712 -0.0794 -0.2849
  742MOL0     H  150  -1.334   8.432   3.041  1.6892 -3.6067  1.1473
  742MOL0     H  151  -1.298   8.431   2.869  0.5793 -2.0870  0.4407
  742MOL0     H  152  -0.195   8.449   2.497  2.4454 -1.3770 -0.5607
  742MOL0     H  153   0.012   8.538   2.435 -4.1589  0.7626 -1.3529
  742MOL0     H  154   0.430   8.570   2.674  3.6634 -1.5140  1.3681
  742MOL0     H  155   0.658   8.616   2.725  0.0963 -0.5085  0.2735
  742MOL0     H  156   2.506   9.849   2.821  0.1028  0.0750 -0.4043
  742MOL0     H  157   2.723   9.879   2.940 -0.3671 -1.6621 -0.4036
  742MOL0     H  158   3.017   9.848   3.208 -1.7192  0.4541  0.0058
  742MOL0     H  159   3.210   9.919   3.346 -0.7783 -1.3530  2.0669
  742MOL0     H  160   3.406  10.238   3.501  1.1514 -0.8030 -0.9798
  742MOL0     H  161   3.392  10.074   3.447  2.5998  0.7078 -0.0982
  742MOL0     H  162   3.251  10.194   3.245  0.1190 -0.2683  0.1560
  742MOL0     H  163   3.423  10.232   3.261  0.6568  0.9693  2.0715
  742MOL0     H  164   3.358  10.438   3.382 -0.8847  1.2549  0.7009
  742MOL0     H  165   3.187  10.384   3.360 -0.7086  0.5352 -1.9477
  742MOL0     H  166   3.214  10.383   3.115 -1.3378  0.6783  1.4051
  742MOL0     H  167   3.375  10.440   3.131  0.2500  0.5647  0.4658
  742MOL0     H  168   3.082  10.762   3.193  0.2306 -0.8246  0.5036
  742MOL0     H  169   2.998  10.257   3.483  0.6381  0.3635 -1.9299
  742MOL0     H  170   2.778  10.167   3.374  0.0806  0.9969 -0.0013
  743MOL0     O  171  10.844   5.511   4.145  0.0831 -0.5811  0.5353
  743MOL0     C  172  10.818   5.544   4.258 -0.3997  0.0180  0.7668
  743MOL0     O  173  10.715   5.619   4.300 -0.0827 -0.6306 -0.1296
  743MOL0     C  174  10.622   5.659   4.212  0.1318 -0.0655  0.2331
  743MOL0     C  175  10.489   5.600   4.213 -0.2790  0.0354 -0.4467
  743MOL0     C  176  10.400   5.647   4.128 -0.1499 -0.0031  0.0447
  743MOL0     C  177  10.419   5.739   4.029  0.8351 -0.3906 -0.1166
  743MOL0     O  178  10.332   5.794   3.933  0.0516  0.2442 -0.0712
  743MOL0     C  179  10.196   5.768   3.952 -0.3969  0.1679 -0.4069
  743MOL0     C  180  10.107   5.788   3.827 -0.0232 -0.0709 -0.1977
  743MOL0     C  181  10.151   5.675   3.733  0.8028  0.2574  0.5676
  743MOL0     C  182  10.044   5.649   3.620  0.3361 -0.5273  0.0649
  743MOL0     C  183  10.088   5.552   3.514  0.0940  0.0139  0.4131
  743MOL0     C  184   9.997   5.553   3.391 -0.0915  0.1846  0.1713
  743MOL0     C  185  10.047   5.468   3.278  0.1141  0.6133  0.7000
  743MOL0     C  186   9.972   5.513   3.150  0.3887 -0.4767  0.0777
  743MOL0     N  187   9.833   5.460   3.161  0.2190  0.0762 -1.0937
  743MOL0     C  188   9.798   5.341   3.106 -0.6528  0.1819 -0.1626
  743MOL0     C  189   9.665   5.329   3.130 -0.3701 -0.4850  0.5672
  743MOL0     C  190   9.575   5.218   3.084 -0.5682  0.4119  0.1573
  743MOL0     C  191   9.497   5.242   2.959 -0.1547 -0.9426  0.2482
  743MOL0     C  192   9.430   5.115   2.896 -1.1499 -0.6909  0.0522
  743MOL0     C  193   9.301   5.073   2.976 -1.2777  0.0270 -0.1970
  743MOL0     O  194   9.208   5.186   2.985 -0.4745  0.6922 -0.6146
  743MOL0     C  195   9.093   5.166   3.056 -0.5190 -0.0599 -0.1764
  743MOL0     C  196   8.981   5.249   3.035  0.1995 -1.1839 -1.1149
  743MOL0     C  197   8.859   5.242   3.090 -0.0497  0.2861 -0.1738
  743MOL0     C  198   8.758   5.357   3.056  0.2332 -0.5117 -0.6866
  743MOL0     C  199   8.838   5.141   3.184  0.6435  0.0423 -0.6287
  743MOL0     C  200   8.720   5.119   3.264  0.3149  0.2892  0.6590
  743MOL0     O  201   8.642   5.227   3.290  0.2034 -0.1829 -0.2288
  743MOL0     C  202   8.517   5.211   3.356 -0.3554 -0.3011  0.5703
  743MOL0     C  203   8.430   5.097   3.353  0.2505  0.5771 -0.0276
  743MOL0     C  204   8.301   5.103   3.404 -0.1744  0.1290  0.1428
  743MOL0     C  205   8.243   5.215   3.460  0.1949 -0.2817 -0.2381
  743MOL0     O  206   8.130   5.208   3.536 -0.2146 -1.1157  0.2437
  743MOL0     C  207   8.063   5.333   3.585 -1.2500  0.1657 -0.7434
  743MOL0     C  208   8.014   5.417   3.477  0.3406 -0.7453  0.1979
  743MOL0     C  209   7.887   5.368   3.404  0.5347 -0.9604 -0.5112
  743MOL0     C  210   7.900   5.370   3.259 -0.9829 -0.4084  0.3333
  743MOL0     C  211   7.980   5.247   3.212  0.0036  0.4003  0.3353
  743MOL0     C  212   7.920   5.103   3.223  0.0445 -0.2915  0.0913
  743MOL0     C  213   8.025   4.995   3.205  0.2030 -0.1431 -0.3996
  743MOL0     C  214   7.972   4.869   3.147  0.5280 -0.5204  0.0086
  743MOL0    Cl  215   8.078   4.729   3.210  0.2214  0.2459  0.2198
  743MOL0     C  216   8.333   5.324   3.477 -0.0119  0.7365 -0.4634
  743MOL0     C  217   8.463   5.322   3.424  0.2705  0.6497  0.5213
  743MOL0     O  218   8.713   5.014   3.319  0.1399 -0.2200 -0.2718
  743MOL0     C  219   8.947   5.044   3.203  0.4044 -0.0871  0.8544
  743MOL0     C  220   9.070   5.056   3.142 -0.2121  0.0347  0.0601
  743MOL0     N  221   9.621   5.441   3.199 -0.1406  0.1172  0.1662
  743MOL0     N  222   9.722   5.519   3.225 -0.1834  0.5714  0.3830
  743MOL0     C  223  10.542   5.798   4.028 -1.0251 -0.7671 -1.2743
  743MOL0     C  224  10.643   5.771   4.126  0.6532  0.6234  0.0336
  743MOL0     C  225  10.899   5.484   4.370 -0.5937 -0.0891 -1.4151
  743MOL0     C  226  10.857   5.499   4.505 -0.0141  0.3252 -0.2358
  743MOL0     C  227  10.937   5.444   4.607  0.1447  1.0823  0.7130
  743MOL0     C  228  11.062   5.378   4.584 -1.0149 -0.0877  0.3769
  743MOL0     O  229  11.130   5.311   4.684  0.4080 -0.5944 -0.5162
  743MOL0     C  230  11.253   5.249   4.666  0.0675  0.0625 -0.4823
  743MOL0     C  231  11.228   5.095   4.640  0.4750  0.6277 -0.3520
  743MOL0     C  232  11.349   5.009   4.680 -0.0287 -0.1742 -0.3166
  743MOL0     C  233  11.440   4.968   4.566  0.4891 -0.2371  0.6105
  743MOL0     C  234  11.488   5.076   4.483 -1.0220 -0.4222 -0.9030
  743MOL0     C  235  11.542   5.157   4.407  0.8630 -0.4889 -0.4097
  743MOL0     C  236  11.104   5.385   4.456  0.5236 -0.1004  0.5416
  743MOL0     C  237  11.026   5.435   4.344 -0.0101  0.5827 -0.4613
  743MOL0     H  238  10.472   5.515   4.278 -1.3061  0.2481 -0.4267
  743MOL0     H  239  10.301   5.602   4.132 -1.3645  2.5435  0.6452
  743MOL0     H  240  10.178   5.667   3.989  1.9040 -0.2662 -0.3635
  743MOL0     H  241  10.161   5.819   4.042 -1.3322  1.4876 -1.4709
  743MOL0     H  242  10.001   5.785   3.856  0.2625 -0.5827  0.8061
  743MOL0     H  243  10.133   5.880   3.773  0.3915 -1.6877 -2.9675
  743MOL0     H  244  10.255   5.683   3.700  1.3525  0.4621  2.2499
  743MOL0     H  245  10.154   5.580   3.788  1.0973 -0.9836 -1.4573
  743MOL0     H  246   9.951   5.603   3.655  1.1974  0.6922  4.5140
  743MOL0     H  247  10.012   5.740   3.569  1.7537 -1.2561 -2.2830
  743MOL0     H  248  10.192   5.579   3.492  0.8174  0.5126  3.8467
  743MOL0     H  249  10.098   5.456   3.564 -0.8793 -0.3371 -0.0369
  743MOL0     H  250   9.891   5.542   3.415 -0.9293  2.6959 -1.9097
  743MOL0     H  251   9.985   5.658   3.363 -0.5728  0.2092  0.4655
  743MOL0     H  252  10.154   5.473   3.254 -0.2941 -0.2186 -1.5040
  743MOL0     H  253  10.025   5.363   3.300 -1.4652  0.6240 -0.5969
  743MOL0     H  254  10.016   5.489   3.052 -2.7587  0.9527 -1.8139
  743MOL0     H  255   9.969   5.622   3.157  1.1677 -0.4341 -0.0881
  743MOL0     H  256   9.862   5.273   3.050 -0.0878  2.4913 -2.5180
  743MOL0     H  257   9.638   5.132   3.062 -1.4325  0.2862 -1.9864
  743MOL0     H  258   9.504   5.197   3.165 -1.3226  0.1869 -0.5540
  743MOL0     H  259   9.562   5.281   2.880 -1.2320 -2.4527 -1.4566
  743MOL0     H  260   9.415   5.313   2.974  1.6430  1.4600 -0.6010
  743MOL0     H  261   9.495   5.028   2.890  0.5612  0.4242  1.3137
  743MOL0     H  262   9.409   5.139   2.792  0.4460 -0.5992 -0.2673
  743MOL0     H  263   9.346   5.041   3.070  0.3842 -1.2353 -1.3531
  743MOL0     H  264   9.254   4.985   2.930 -2.0158 -0.6002  1.6627
  743MOL0     H  265   8.997   5.332   2.966  3.1366 -3.6405 -3.6860
  743MOL0     H  266   8.652   5.334   3.066  0.3304 -0.0171  2.3648
  743MOL0     H  267   8.778   5.439   3.125  1.9811  0.7304 -2.5431
  743MOL0     H  268   8.779   5.399   2.957  0.9919  0.4389 -0.1451
  743MOL0     H  269   8.462   5.007   3.301 -2.3024 -0.0409 -0.6506
  743MOL0     H  270   8.239   5.014   3.408 -0.1217  0.1276  1.0635
  743MOL0     H  271   7.981   5.306   3.652 -0.8244 -1.8693 -0.9722
  743MOL0     H  272   8.128   5.387   3.654 -0.0949 -0.8103 -1.0289
  743MOL0     H  273   7.998   5.511   3.532 -0.9927 -0.5458 -0.4884
  743MOL0     H  274   8.094   5.432   3.405 -0.2386  0.2740 -0.2496
  743MOL0     H  275   7.800   5.427   3.436  0.0321 -2.9121  2.1219
  743MOL0     H  276   7.863   5.265   3.435 -2.1184 -0.4601 -0.6166
  743MOL0     H  277   7.795   5.363   3.228 -1.2471 -0.3735  1.1914
  743MOL0     H  278   7.948   5.459   3.219  2.2333 -1.4350  1.5387
  743MOL0     H  279   8.080   5.245   3.256  1.0937 -0.0895 -1.9742
  743MOL0     H  280   7.993   5.265   3.105 -2.2269  0.8922  0.1093
  743MOL0     H  281   7.860   5.097   3.314 -1.0256 -0.0502 -0.5821
  743MOL0     H  282   7.845   5.085   3.145 -1.3868  1.5302  0.9645
  743MOL0     H  283   8.059   4.979   3.308 -0.9081  0.8692  0.1587
  743MOL0     H  284   8.107   5.031   3.143 -1.8934  2.0717 -2.1085
  743MOL0     H  285   7.967   4.879   3.038 -0.2402  1.4396  0.1796
  743MOL0     H  286   7.874   4.853   3.194  1.8561  0.8686  3.6342
  743MOL0     H  287   8.299   5.414   3.528 -0.8725  0.4361 -0.4965
  743MOL0     H  288   8.508   5.420   3.429 -1.5508  1.6695 -1.3232
  743MOL0     H  289   8.934   4.955   3.264 -0.8926  0.8225  1.9979
  743MOL0     H  290   9.146   4.979   3.157  0.9777  1.0905 -0.3927
  743MOL0     H  291  10.568   5.878   3.960  0.0052  2.3993  2.4231
  743MOL0     H  292  10.740   5.819   4.121  0.8599  0.1040 -1.4368
  743MOL0     H  293  10.759   5.542   4.524 -0.5199 -0.8832  0.0011
  743MOL0     H  294  10.901   5.442   4.709  2.9709  0.9850  1.7809
  743MOL0     H  295  11.310   5.290   4.582  0.3313  0.0707 -0.3008
  743MOL0     H  296  11.323   5.270   4.748  1.1415  0.2999 -1.4367
  743MOL0     H  297  11.206   5.096   4.533 -0.7686  0.6782 -0.1091
  743MOL0     H  298  11.135   5.059   4.684 -1.2426  0.9345 -3.4419
  743MOL0     H  299  11.311   4.915   4.720 -1.6559 -0.8884 -3.2505
  743MOL0     H  300  11.406   5.049   4.764  0.6287 -2.2673  0.2958
  743MOL0     H  301  11.376   4.900   4.508  0.8815  2.2679 -3.0697
  743MOL0     H  302  11.526   4.913   4.605  0.2429 -1.1569 -0.0932
  743MOL0     H  303  11.577   5.236   4.344  1.9724  0.7774  1.6613
  743MOL0     H  304  11.199   5.344   4.423  0.8545  2.6305 -2.4309
  743MOL0     H  305  11.062   5.446   4.243 -2.5657  1.3226 -1.3665
  744MOL0     O  306   7.812   8.428   9.660  0.1894  0.3331  0.0077
  744MOL0     C  307   7.827   8.517   9.576  0.2730 -0.2989 -0.3711
  744MOL0     O  308   7.730   8.613   9.555 -0.4763  0.9213  0.2285
  744MOL0     C  309   7.614   8.598   9.630 -0.3622  0.0827  0.1208
  744MOL0     C  310   7.499   8.566   9.556 -0.3258  0.9448  0.0427
  744MOL0     C  311   7.377   8.579   9.615 -0.0248  0.9819  0.0332
  744MOL0     C  312   7.364   8.627   9.741  0.1913  0.4721  0.2802
  744MOL0     O  313   7.230   8.622   9.775  0.4052 -0.2891  0.1955
  744MOL0     C  314   7.180   8.710   9.875 -0.3136  1.0164  0.5841
  744MOL0     C  315   7.144   8.848   9.828  0.5509 -0.1649 -0.3227
  744MOL0     C  316   7.039   8.910   9.922  1.1647 -0.3907  0.5688
  744MOL0     C  317   7.018   9.060   9.897 -0.0517  0.0575 -0.0846
  744MOL0     C  318   6.907   9.128   9.993  0.1830  0.1792  0.0190
  744MOL0     C  319   6.760   9.085   9.964  0.0874 -0.0115  0.2644
  744MOL0     C  320   6.664   9.191  10.034 -0.1500 -0.2468 -0.4883
  744MOL0     C  321   6.515   9.152  10.023 -0.1320 -0.3604 -1.5188
  744MOL0     N  322   6.482   9.189   9.882  0.2564  0.1494 -0.1332
  744MOL0     C  323   6.437   9.310   9.834 -0.4886 -0.2719 -0.1495
  744MOL0     C  324   6.393   9.290   9.709 -1.0069  0.5812 -0.1046
  744MOL0     C  325   6.338   9.389   9.616 -0.8274 -0.3292  0.4905
  744MOL0     C  326   6.243   9.487   9.681  0.2411 -0.0253  0.2272
  744MOL0     C  327   6.109   9.413   9.704  1.5225  0.1686  0.1456
  744MOL0     C  328   5.997   9.523   9.735  0.2387 -0.3053  0.4317
  744MOL0     O  329   5.938   9.576   9.616 -0.2181  0.2567 -0.2172
  744MOL0     C  330   5.805   9.598   9.617  0.9189 -0.5092 -0.0581
  744MOL0     C  331   5.730   9.649   9.724 -0.8392 -0.1348  0.0543
  744MOL0     C  332   5.596   9.687   9.710 -0.9353 -0.3155  0.7304
  744MOL0     C  333   5.527   9.751   9.829 -0.0071 -0.2569 -0.0556
  744MOL0     C  334   5.533   9.662   9.588 -0.9002 -0.0249  0.1363
  744MOL0     C  335   5.389   9.704   9.552  0.3287 -0.0675 -1.1907
  744MOL0     O  336   5.344   9.629   9.450 -0.7453 -0.8498  0.1488
  744MOL0     C  337   5.212   9.641   9.415  0.8566  0.0923 -0.0077
  744MOL0     C  338   5.176   9.672   9.279 -0.4272  0.7813  0.0215
  744MOL0     C  339   5.039   9.706   9.261 -0.1180  0.2791  0.4416
  744MOL0     C  340   4.937   9.670   9.349  0.0960 -0.3926  0.0448
  744MOL0     O  341   4.812   9.688   9.313 -0.5576 -0.7151  0.3443
  744MOL0     C  342   4.707   9.693   9.409 -0.5994  0.8471 -0.1348
  744MOL0     C  343   4.574   9.722   9.352  0.9268 -0.5844  0.1372
  744MOL0     C  344   4.501   9.597   9.311  0.3000 -0.3776 -0.3091
  744MOL0     C  345   4.359   9.628   9.245 -0.4839 -0.0132 -0.4887
  744MOL0     C  346   4.290   9.503   9.195 -0.1439 -0.5270  0.1770
  744MOL0     C  347   4.156   9.546   9.138  1.1915 -0.4613 -0.2043
  744MOL0     C  348   4.088   9.426   9.075 -0.9244 -0.1667  0.0026
  744MOL0     C  349   3.964   9.456   8.997  0.4189  0.0792 -0.7683
  744MOL0    Cl  350   3.838   9.458   9.116  0.2427 -0.3113 -0.1377
  744MOL0     C  351   4.979   9.618   9.471  0.8097  0.5972 -1.1686
  744MOL0     C  352   5.114   9.606   9.510 -0.7232 -0.5089  1.0091
  744MOL0     O  353   5.329   9.788   9.615 -0.3692  0.1570  0.3958
  744MOL0     C  354   5.603   9.613   9.482 -0.5941  0.3438  0.7587
  744MOL0     C  355   5.737   9.569   9.503 -0.2851  0.0418  0.2377
  744MOL0     N  356   6.420   9.158   9.679  0.1993 -0.2641 -0.2854
  744MOL0     N  357   6.470   9.099   9.781  0.4928  0.0363  0.1457
  744MOL0     C  358   7.473   8.647   9.826 -0.0541 -0.2752  0.1325
  744MOL0     C  359   7.596   8.637   9.763 -0.1480  0.0484  0.0544
  744MOL0     C  360   7.961   8.525   9.505  1.0445  0.2964 -0.1078
  744MOL0     C  361   8.020   8.397   9.481 -0.0540  0.2757  0.3927
  744MOL0     C  362   8.147   8.392   9.414  0.4243  0.3123  0.2921
  744MOL0     C  363   8.210   8.513   9.383 -0.1164 -0.5548  0.4977
  744MOL0     O  364   8.340   8.502   9.326  0.5136  0.6276  0.4185
  744MOL0     C  365   8.374   8.577   9.211  0.3704  0.0895 -0.5377
  744MOL0     C  366   8.447   8.486   9.110  0.1529 -0.4541  1.0956
  744MOL0     C  367   8.574   8.549   9.043  0.0032 -0.1184 -0.4565
  744MOL0     C  368   8.655   8.442   8.975 -0.9905  0.4182  0.0887
  744MOL0     C  369   8.794   8.488   8.936  0.2803 -0.1787 -0.3485
  744MOL0     C  370   8.910   8.523   8.919 -0.5488  0.1919 -0.5203
  744MOL0     C  371   8.143   8.630   9.405 -0.1851  0.3298  0.2464
  744MOL0     C  372   8.029   8.646   9.478  0.1701 -0.1334 -0.6350
  744MOL0     H  373   7.502   8.535   9.452 -0.9944  1.7402 -0.2291
  744MOL0     H  374   7.287   8.561   9.557  1.2212 -3.1763 -0.9385
  744MOL0     H  375   7.092   8.665   9.921  0.4733  0.4659  1.5995
  744MOL0     H  376   7.242   8.718   9.965  0.4720 -0.1690  0.1667
  744MOL0     H  377   7.239   8.903   9.830  0.8450 -0.5036 -2.6197
  744MOL0     H  378   7.108   8.844   9.725  1.2010  0.0640 -0.5679
  744MOL0     H  379   6.943   8.860   9.906 -0.8058  3.1991  0.0591
  744MOL0     H  380   7.069   8.907  10.027 -1.1445  0.2103  1.2940
  744MOL0     H  381   7.110   9.116   9.914 -0.3801 -0.3079  3.5681
  744MOL0     H  382   6.995   9.082   9.792 -1.0392 -0.6641 -0.0318
  744MOL0     H  383   6.927   9.110  10.099  0.5702  4.0287  0.7157
  744MOL0     H  384   6.917   9.236   9.985  0.5840  0.1455  0.0453
  744MOL0     H  385   6.747   9.094   9.856  3.0918  0.8105 -0.0990
  744MOL0     H  386   6.742   8.982   9.996 -0.2684  0.4655  1.7093
  744MOL0     H  387   6.692   9.185  10.139  2.7847 -2.0888 -1.2852
  744MOL0     H  388   6.671   9.294   9.996  0.0450 -0.1568 -0.2044
  744MOL0     H  389   6.459   9.219  10.089  2.2307  2.6362 -2.3580
  744MOL0     H  390   6.491   9.051  10.058  0.9073 -0.0279  0.2469
  744MOL0     H  391   6.433   9.403   9.888 -0.1302 -0.1222 -0.3788
  744MOL0     H  392   6.427   9.435   9.572  0.1112 -2.1965  0.3238
  744MOL0     H  393   6.285   9.333   9.538 -0.6174  1.6753 -1.1815
  744MOL0     H  394   6.219   9.569   9.614  3.2345  0.7788  0.0146
  744MOL0     H  395   6.281   9.542   9.767 -0.5965  5.2660 -2.3838
  744MOL0     H  396   6.112   9.333   9.779 -3.7865  1.5663  2.3996
  744MOL0     H  397   6.079   9.369   9.609  3.8363  2.9661 -2.0641
  744MOL0     H  398   6.039   9.600   9.800 -1.2597 -0.1537  1.2635
  744MOL0     H  399   5.926   9.469   9.798  0.7756  1.7178  2.9025
  744MOL0     H  400   5.782   9.690   9.809 -1.4516 -1.4304  1.0815
  744MOL0     H  401   5.439   9.692   9.854 -0.8204  0.1437 -1.8291
  744MOL0     H  402   5.597   9.753   9.914 -0.1739  2.3639  0.0970
  744MOL0     H  403   5.504   9.856   9.807 -1.9556 -0.6890 -0.2318
  744MOL0     H  404   5.250   9.680   9.201  0.3906 -0.2672  0.6673
  744MOL0     H  405   4.995   9.740   9.167 -2.4374  2.3826  2.1661
  744MOL0     H  406   4.698   9.594   9.456  1.5370 -1.1956 -3.5349
  744MOL0     H  407   4.733   9.765   9.487  0.5151 -0.6959  0.9709
  744MOL0     H  408   4.513   9.768   9.430  1.0161 -1.2387  0.6039
  744MOL0     H  409   4.573   9.780   9.260 -0.3452  1.6544  1.4778
  744MOL0     H  410   4.500   9.524   9.393  1.4838  1.1981  1.1719
  744MOL0     H  411   4.562   9.551   9.233 -1.2077 -3.0198 -0.0662
  744MOL0     H  412   4.299   9.664   9.328  1.0084 -1.0723  1.1291
  744MOL0     H  413   4.371   9.701   9.165 -0.1492 -0.3888 -0.7881
  744MOL0     H  414   4.277   9.440   9.283 -0.2095  0.9951  1.2961
  744MOL0     H  415   4.352   9.457   9.117  0.6611 -0.6900  0.9104
  744MOL0     H  416   4.090   9.582   9.216 -0.3110  0.8025 -1.9851
  744MOL0     H  417   4.176   9.624   9.064  0.6251  0.6150  0.7438
  744MOL0     H  418   4.069   9.361   9.161  0.1434  0.7209  0.9354
  744MOL0     H  419   4.161   9.372   9.013  1.1334  1.9027  0.4789
  744MOL0     H  420   3.942   9.377   8.925  1.8336 -1.7311  0.6855
  744MOL0     H  421   3.975   9.546   8.936  2.4848 -0.1822 -0.8566
  744MOL0     H  422   4.901   9.592   9.542  0.8457 -0.4881 -1.5071
  744MOL0     H  423   5.146   9.571   9.607  2.5208  0.6695  0.5016
  744MOL0     H  424   5.565   9.599   9.382  1.0835  2.8027 -0.3224
  744MOL0     H  425   5.793   9.521   9.423 -0.5232  1.5829 -0.9040
  744MOL0     H  426   7.455   8.673   9.929  0.3161 -0.6821  0.3008
  744MOL0     H  427   7.691   8.657   9.812 -0.1613 -2.0705  1.0688
  744MOL0     H  428   7.973   8.304   9.511  1.7579 -0.3409  1.4457
  744MOL0     H  429   8.200   8.298   9.402  3.6811  1.9482  0.9358
  744MOL0     H  430   8.292   8.637   9.171  0.6302  0.9762  0.2221
  744MOL0     H  431   8.444   8.650   9.253 -0.2285 -0.9560  2.5517
  744MOL0     H  432   8.375   8.447   9.037  0.0721  1.4340  0.1067
  744MOL0     H  433   8.475   8.396   9.164 -0.8980  0.0071  2.4699
  744MOL0     H  434   8.636   8.604   9.115 -1.8494  1.1911  0.2298
  744MOL0     H  435   8.543   8.624   8.969 -0.3964 -1.5335 -1.7681
  744MOL0     H  436   8.598   8.414   8.886  0.8829 -3.3065 -0.1127
  744MOL0     H  437   8.666   8.354   9.039 -0.8488 -1.3928 -2.2880
  744MOL0     H  438   9.002   8.576   8.930 -1.0154  0.8580  0.2553
  744MOL0     H  439   8.190   8.725   9.382  0.0278 -0.0738 -1.0602
  744MOL0     H  440   7.991   8.743   9.508  0.1985 -0.2147 -0.3387
  745MOL0     O  441  10.659   3.401   6.355  0.2468  0.0132 -0.0602
  745MOL0     C  442  10.749   3.393   6.442  0.7689 -0.2221 -0.1438
  745MOL0     O  443  10.730   3.421   6.580  0.0854  0.1088  0.4544
  745MOL0     C  444  10.611   3.480   6.615  0.1321  0.1328 -0.2938
  745MOL0     C  445  10.520   3.430   6.708 -0.0478  0.5609  0.4593
  745MOL0     C  446  10.391   3.492   6.729 -0.3607  0.0211 -0.4797
  745MOL0     C  447  10.353   3.607   6.672  0.0966 -0.0307  1.1709
  745MOL0     O  448  10.233   3.649   6.723 -0.0155 -0.1420 -0.8037
  745MOL0     C  449  10.151   3.691   6.615  0.8912 -1.2581  0.3604
  745MOL0     C  450  10.009   3.717   6.663  0.0055  1.4235  0.8195
  745MOL0     C  451   9.924   3.785   6.556 -0.9484  0.4650  0.2679
  745MOL0     C  452   9.777   3.785   6.584  0.2836 -0.2157 -0.0746
  745MOL0     C  453   9.732   3.904   6.664 -0.1099  0.2449 -0.8972
  745MOL0     C  454   9.592   3.898   6.725 -0.6750  0.0970 -0.0067
  745MOL0     C  455   9.486   3.902   6.611 -0.1730  0.4822  0.2983
  745MOL0     C  456   9.360   3.824   6.648 -0.1441 -0.1250 -0.1294
  745MOL0     N  457   9.289   3.894   6.755 -0.1648  0.1223 -0.7392
  745MOL0     C  458   9.177   3.979   6.744 -0.6891  0.5449 -0.2335
  745MOL0     C  459   9.140   4.014   6.874 -0.3305  0.0914  0.5080
  745MOL0     C  460   9.022   4.097   6.922  0.0512  0.3743 -0.5343
  745MOL0     C  461   8.901   4.009   6.939 -0.2483  0.5677  0.5061
  745MOL0     C  462   8.784   4.076   7.008 -0.4878  0.5645 -1.1191
  745MOL0     C  463   8.651   4.006   6.989 -0.3338  0.1126  0.3122
  745MOL0     O  464   8.544   4.100   7.022 -0.0909 -0.0803 -0.3405
  745MOL0     C  465   8.410   4.077   6.989 -0.0969 -0.0871 -0.3368
  745MOL0     C  466   8.317   4.152   7.058  0.4519 -0.2376  0.7263
  745MOL0     C  467   8.176   4.132   7.047  0.2121 -0.8425  0.1655
  745MOL0     C  468   8.090   4.222   7.141 -0.4345 -0.5274  0.5072
  745MOL0     C  469   8.127   4.024   6.965 -0.2455  0.5328  0.0736
  745MOL0     C  470   7.991   3.969   6.968  0.2177  0.0252  1.0454
  745MOL0     O  471   7.907   3.993   7.072  0.2236 -0.0859  0.2540
  745MOL0     C  472   7.775   3.942   7.060  0.0568 -0.0042  0.5612
  745MOL0     C  473   7.682   4.030   7.005  1.0178  0.3221  0.1346
  745MOL0     C  474   7.548   3.983   6.988  0.1169 -0.1392  0.3634
  745MOL0     C  475   7.510   3.849   7.020  0.1433 -0.3241 -0.1570
  745MOL0     O  476   7.376   3.811   7.001  0.1251  0.2963  0.9025
  745MOL0     C  477   7.296   3.850   7.104  0.8256  1.1697  0.1452
  745MOL0     C  478   7.244   3.714   7.162  0.6931 -0.2496  0.2357
  745MOL0     C  479   7.202   3.715   7.312  0.6941  1.0586  0.9772
  745MOL0     C  480   7.104   3.839   7.333 -0.3468  0.4319  0.1438
  745MOL0     C  481   6.953   3.803   7.298  0.0141 -0.6358 -0.3762
  745MOL0     C  482   6.858   3.917   7.334 -0.6168  0.7420  0.3004
  745MOL0     C  483   6.714   3.861   7.348  0.5740 -0.5920 -0.2556
  745MOL0     C  484   6.643   3.856   7.219 -0.1601  0.1271  0.0917
  745MOL0    Cl  485   6.498   3.758   7.229  0.4021 -0.1972  0.1177
  745MOL0     C  486   7.611   3.764   7.056 -0.0930 -0.4142  0.4949
  745MOL0     C  487   7.743   3.812   7.082  0.3613 -0.1762 -0.3443
  745MOL0     O  488   7.956   3.903   6.869  0.2822  1.0479  0.3138
  745MOL0     C  489   8.230   3.947   6.900  0.8259 -0.3263 -0.0167
  745MOL0     C  490   8.366   3.970   6.919 -0.3112  0.5353  0.4757
  745MOL0     N  491   9.241   3.961   6.957  0.4067 -0.2921 -0.1648
  745MOL0     N  492   9.314   3.880   6.889 -0.5142  0.2418 -0.0004
  745MOL0     C  493  10.447   3.663   6.575  0.6641 -0.9111 -0.5555
  745MOL0     C  494  10.576   3.601   6.552 -0.2707  0.1939 -0.3135
  745MOL0     C  495  10.886   3.346   6.404  0.2961  0.0122  0.1843
  745MOL0     C  496  10.902   3.279   6.276 -0.6632 -0.8899  0.4722
  745MOL0     C  497  11.023   3.240   6.231  0.7136 -0.6318  0.7397
  745MOL0     C  498  11.134   3.254   6.316  0.0157  0.9208  0.4911
  745MOL0     O  499  11.248   3.213   6.262 -0.2382  0.3137  0.7743
  745MOL0     C  500  11.339   3.317   6.227  0.3786  0.7084 -0.1399
  745MOL0     C  501  11.442   3.338   6.343  0.1111  0.5804 -0.4381
  745MOL0     C  502  11.498   3.200   6.389 -0.2295  0.0262 -0.9257
  745MOL0     C  503  11.595   3.237   6.504  0.6639  1.0373  0.0646
  745MOL0     C  504  11.528   3.260   6.634 -0.9161  0.4978  1.0805
  745MOL0     C  505  11.456   3.291   6.728 -0.3656 -0.1748 -0.2761
  745MOL0     C  506  11.121   3.310   6.450  0.0520  0.0563  0.7832
  745MOL0     C  507  10.992   3.354   6.490 -0.6969  1.2251 -0.0810
  745MOL0     H  508  10.542   3.342   6.769 -2.4997 -0.7375 -0.4081
  745MOL0     H  509  10.310   3.452   6.790 -0.8595 -2.0071 -2.3330
  745MOL0     H  510  10.182   3.786   6.571 -1.6343 -0.5827 -0.1055
  745MOL0     H  511  10.133   3.606   6.548 -3.5490 -0.3909  0.1996
  745MOL0     H  512   9.971   3.616   6.678  3.6302 -0.3950 -0.9704
  745MOL0     H  513  10.000   3.770   6.758  0.3460  2.6989  0.1592
  745MOL0     H  514   9.971   3.880   6.527  2.6655 -1.2116  0.1246
  745MOL0     H  515   9.933   3.727   6.464  2.7817  1.5262 -0.1732
  745MOL0     H  516   9.722   3.781   6.490  0.2365  0.1219 -0.0623
  745MOL0     H  517   9.748   3.692   6.633 -2.0367  0.6113  0.2736
  745MOL0     H  518   9.798   3.919   6.750 -0.2245  1.7003 -1.0541
  745MOL0     H  519   9.758   3.987   6.598  1.5637  0.9807  0.6077
  745MOL0     H  520   9.586   3.809   6.789  1.0286 -0.8702 -1.1345
  745MOL0     H  521   9.579   3.988   6.787  0.6225 -0.5519  1.2507
  745MOL0     H  522   9.467   4.007   6.588 -2.2965  0.5854  2.2224
  745MOL0     H  523   9.531   3.863   6.519 -2.8551  1.3246 -1.4770
  745MOL0     H  524   9.387   3.725   6.685 -0.3189  1.1764  3.9576
  745MOL0     H  525   9.299   3.817   6.557  0.7292 -0.8525 -0.6819
  745MOL0     H  526   9.113   3.997   6.658 -2.0710 -0.9911  0.4073
  745MOL0     H  527   9.050   4.145   7.016 -1.2290  0.6884 -0.2914
  745MOL0     H  528   8.999   4.170   6.844  1.5578 -0.2938 -1.6485
  745MOL0     H  529   8.929   3.933   7.012 -0.2308  1.1945  1.1663
  745MOL0     H  530   8.872   3.963   6.845  0.2620  0.3063  0.4718
  745MOL0     H  531   8.781   4.180   6.974 -1.4862  1.1051  0.5587
  745MOL0     H  532   8.801   4.077   7.116  0.3255 -3.3345 -1.0726
  745MOL0     H  533   8.652   3.908   7.037  2.0647 -0.5610 -0.9589
  745MOL0     H  534   8.633   3.987   6.883 -0.4603 -4.9313  0.9996
  745MOL0     H  535   8.353   4.221   7.134  0.8139 -0.8603  1.1345
  745MOL0     H  536   8.034   4.300   7.089 -1.6383 -1.0589  0.9652
  745MOL0     H  537   8.011   4.166   7.193 -2.2216  0.7159 -0.7918
  745MOL0     H  538   8.161   4.257   7.216  1.8157 -2.6899 -0.4738
  745MOL0     H  539   7.715   4.130   6.978  0.5841  0.4884  0.2163
  745MOL0     H  540   7.470   4.053   6.958 -0.5083 -1.3455 -0.9927
  745MOL0     H  541   7.349   3.903   7.184  0.3855 -2.1502  2.8435
  745MOL0     H  542   7.200   3.895   7.078  1.3724  1.9675 -0.5405
  745MOL0     H  543   7.159   3.688   7.099  0.5023 -1.0347  0.8029
  745MOL0     H  544   7.311   3.628   7.154 -0.6534 -1.1770 -1.8337
  745MOL0     H  545   7.296   3.730   7.366  0.1803  1.6318  1.7435
  745MOL0     H  546   7.158   3.621   7.347 -0.9705  0.5768 -2.0374
  745MOL0     H  547   7.099   3.852   7.441  0.7211  0.9733  0.1417
  745MOL0     H  548   7.136   3.937   7.295  0.1337  0.7855  1.4167
  745MOL0     H  549   6.915   3.714   7.350 -3.7754  0.3352 -1.1296
  745MOL0     H  550   6.942   3.785   7.191  2.3607  1.8779 -1.1521
  745MOL0     H  551   6.884   3.959   7.433  0.9527 -2.0762  1.1796
  745MOL0     H  552   6.867   4.007   7.272 -3.0128  1.1950  0.5087
  745MOL0     H  553   6.664   3.927   7.419  0.6122  0.7906 -1.4639
  745MOL0     H  554   6.703   3.763   7.397 -1.0698  0.1998  1.0826
  745MOL0     H  555   6.698   3.813   7.134  0.3319  1.0394 -0.0710
  745MOL0     H  556   6.612   3.956   7.188  0.4032  0.1500 -0.4112
  745MOL0     H  557   7.608   3.657   7.075 -0.5274 -0.4666  0.1502
  745MOL0     H  558   7.823   3.741   7.101  1.8472  0.8194 -2.4544
  745MOL0     H  559   8.206   3.853   6.851  1.2974  0.0105 -0.9133
  745MOL0     H  560   8.442   3.903   6.882  2.6205  3.3358  0.9041
  745MOL0     H  561  10.410   3.748   6.519 -0.9314 -0.8905  0.4647
  745MOL0     H  562  10.638   3.649   6.477  0.7669 -0.8224 -0.1355
  745MOL0     H  563  10.825   3.266   6.200  1.3564 -1.3502 -1.6022
  745MOL0     H  564  11.029   3.218   6.125 -1.6719  2.3148 -0.1314
  745MOL0     H  565  11.388   3.290   6.133  2.0047 -1.2395  1.2082
  745MOL0     H  566  11.286   3.411   6.206 -2.9745 -0.6273  1.6284
  745MOL0     H  567  11.388   3.394   6.420  0.5160  0.8648 -0.3537
  745MOL0     H  568  11.525   3.404   6.314 -2.7996  3.8682 -2.0651
  745MOL0     H  569  11.553   3.155   6.306 -1.1198 -1.7821 -0.5806
  745MOL0     H  570  11.430   3.125   6.430  0.5258 -0.4153 -0.4436
  745MOL0     H  571  11.647   3.332   6.486  1.4169  0.8313  1.0518
  745MOL0     H  572  11.665   3.157   6.528 -1.1228 -0.2969  1.0994
  745MOL0     H  573  11.392   3.313   6.811 -3.9785  0.3997 -2.9517
  745MOL0     H  574  11.202   3.321   6.521  0.9363 -0.4338 -0.1166
  745MOL0     H  575  10.980   3.390   6.592  0.3146  2.5557 -0.4018
  746MOL0     O  576  10.235   8.387  11.336  0.7711 -0.2573 -0.2908
  746MOL0     C  577  10.305   8.334  11.424 -0.4472 -0.1511  0.6471
  746MOL0     O  578  10.260   8.273  11.531 -0.0388 -0.2814 -0.2326
  746MOL0     C  579  10.124   8.261  11.560  0.0973  0.2804  0.2711
  746MOL0     C  580  10.014   8.342  11.533  0.2591  0.0351 -0.4769
  746MOL0     C  581   9.884   8.321  11.594  0.5005 -0.4507 -0.2536
  746MOL0     C  582   9.862   8.210  11.672  0.5479 -0.3930  0.1531
  746MOL0     O  583   9.747   8.170  11.739 -0.4575  0.5579 -0.6369
  746MOL0     C  584   9.674   8.275  11.801  0.5929  0.5474  0.5877
  746MOL0     C  585   9.578   8.219  11.904  0.3931  0.8961 -0.0174
  746MOL0     C  586   9.453   8.147  11.831  0.3312  0.9673 -0.0442
  746MOL0     C  587   9.481   8.006  11.769  0.4338 -0.0013 -0.4816
  746MOL0     C  588   9.362   7.947  11.692 -0.1125  0.5015 -0.1761
  746MOL0     C  589   9.236   7.915  11.769 -0.0506  0.0307 -0.1812
  746MOL0     C  590   9.253   7.818  11.890  0.1845 -0.0141  1.0650
  746MOL0     C  591   9.121   7.800  11.969 -0.0966  0.7512 -0.5696
  746MOL0     N  592   9.005   7.755  11.891  0.5263 -0.4709  1.0742
  746MOL0     C  593   8.982   7.637  11.825 -0.4618 -0.4947 -1.0232
  746MOL0     C  594   8.845   7.636  11.804 -0.5039 -0.6885  0.0561
  746MOL0     C  595   8.755   7.539  11.734 -0.5713  0.6696  0.2815
  746MOL0     C  596   8.640   7.594  11.648 -0.7143  0.5098 -0.0489
  746MOL0     C  597   8.591   7.480  11.556  0.1307  0.1096  0.0244
  746MOL0     C  598   8.450   7.508  11.514  0.0011 -0.5191 -0.2296
  746MOL0     O  599   8.408   7.405  11.424 -0.0231 -0.0798  0.6235
  746MOL0     C  600   8.270   7.406  11.399  0.3305  0.6482 -1.0007
  746MOL0     C  601   8.197   7.523  11.371 -0.6990 -0.0179  0.0805
  746MOL0     C  602   8.065   7.525  11.339 -0.0973  0.6191 -0.0599
  746MOL0     C  603   8.003   7.655  11.294  0.4579 -0.3622  0.5727
  746MOL0     C  604   7.999   7.402  11.332 -0.1888 -0.5618 -1.2802
  746MOL0     C  605   7.854   7.381  11.279 -0.7628 -0.7918 -1.3460
  746MOL0     O  606   7.765   7.485  11.261 -0.4476 -0.4347 -1.3127
  746MOL0     C  607   7.639   7.465  11.216  0.2080 -0.6707 -0.0596
  746MOL0     C  608   7.542   7.404  11.292 -0.2718 -0.1490 -0.9488
  746MOL0     C  609   7.414   7.373  11.250 -0.0668 -0.2446  1.4349
  746MOL0     C  610   7.366   7.431  11.135  0.5609 -0.3013 -0.0651
  746MOL0     O  611   7.243   7.389  11.099  0.1776  0.1988  0.7555
  746MOL0     C  612   7.211   7.306  10.984 -0.4454  0.0969 -0.2742
  746MOL0     C  613   7.070   7.248  11.014 -1.3702 -0.6461  0.0135
  746MOL0     C  614   7.022   7.159  10.888  0.1182 -0.7674  0.2143
  746MOL0     C  615   6.923   7.044  10.918 -0.0981 -0.4328 -0.3374
  746MOL0     C  616   6.984   6.927  10.992 -0.3029 -0.2428 -0.0675
  746MOL0     C  617   6.885   6.807  10.991  0.4798 -0.5796  0.4272
  746MOL0     C  618   6.953   6.685  11.049  0.5588 -0.1910  0.2656
  746MOL0     C  619   6.871   6.561  11.014  0.2155 -0.6165  0.6654
  746MOL0    Cl  620   6.714   6.591  11.084  0.3838  0.2689  0.1184
  746MOL0     C  621   7.463   7.502  11.061  0.2977  0.1977 -0.2936
  746MOL0     C  622   7.599   7.521  11.102 -0.0633 -1.1104 -0.5191
  746MOL0     O  623   7.822   7.262  11.279 -0.6761  0.6414  0.8621
  746MOL0     C  624   8.068   7.283  11.361 -0.3303 -0.4694  0.5735
  746MOL0     C  625   8.205   7.287  11.380  0.2709  0.2847  0.1141
  746MOL0     N  626   8.799   7.757  11.852 -0.2240 -0.6713  0.0521
  746MOL0     N  627   8.894   7.829  11.905  0.0321 -0.2060  0.6340
  746MOL0     C  628   9.972   8.126  11.692  0.4638 -0.1857  0.1763
  746MOL0     C  629  10.095   8.155  11.638 -0.2240  1.3395 -0.4569
  746MOL0     C  630  10.449   8.322  11.396 -0.0907  0.0080 -0.3037
  746MOL0     C  631  10.542   8.267  11.489 -0.0146 -0.3724  0.2820
  746MOL0     C  632  10.680   8.260  11.463  0.6707  1.0403 -0.9650
  746MOL0     C  633  10.730   8.287  11.345 -0.7041 -0.1085 -0.0410
  746MOL0     O  634  10.865   8.273  11.318  0.0068  0.5825 -0.4400
  746MOL0     C  635  10.902   8.215  11.191  0.6917  0.9552 -0.7545
  746MOL0     C  636  11.048   8.190  11.187  0.0954  0.1733  0.2435
  746MOL0     C  637  11.079   8.082  11.293  0.1293 -0.7730  0.4026
  746MOL0     C  638  11.222   8.033  11.262 -0.7897  1.2755 -0.0964
  746MOL0     C  639  11.209   7.924  11.156  0.8178 -0.1429  0.2666
  746MOL0     C  640  11.165   7.837  11.081  0.4763 -0.7548  0.2766
  746MOL0     C  641  10.644   8.354  11.256  0.0667  0.5942  0.0183
  746MOL0     C  642  10.501   8.375  11.285 -0.0330 -0.4055  0.0638
  746MOL0     H  643  10.029   8.431  11.472 -1.6110  2.2937  2.0772
  746MOL0     H  644   9.810   8.401  11.587  0.7517 -0.0355  1.3320
  746MOL0     H  645   9.738   8.349  11.849  0.5679  0.0942  1.3273
  746MOL0     H  646   9.613   8.330  11.728  0.4692 -0.6290 -0.2260
  746MOL0     H  647   9.628   8.159  11.980 -2.0634 -0.0766  0.9440
  746MOL0     H  648   9.538   8.303  11.961  0.0211 -1.2871  3.2334
  746MOL0     H  649   9.376   8.147  11.909  1.1928  2.0718  0.8593
  746MOL0     H  650   9.416   8.201  11.744 -1.9600 -2.3277 -1.3032
  746MOL0     H  651   9.569   8.015  11.704  0.7049 -0.4655 -0.1830
  746MOL0     H  652   9.517   7.941  11.850 -1.5544 -0.1575  0.3426
  746MOL0     H  653   9.331   8.017  11.614  0.9353 -0.8655 -1.8933
  746MOL0     H  654   9.404   7.857  11.647  3.0329  1.0876  1.2910
  746MOL0     H  655   9.199   8.011  11.806 -0.7665 -0.6006  0.7969
  746MOL0     H  656   9.161   7.878  11.699 -1.3766  0.5232  0.9208
  746MOL0     H  657   9.282   7.717  11.861 -1.8087 -0.6180  0.9798
  746MOL0     H  658   9.328   7.873  11.948  2.2777 -0.9572 -0.6165
  746MOL0     H  659   9.103   7.893  12.023 -0.7358  0.2866  0.0408
  746MOL0     H  660   9.129   7.729  12.052 -2.0348  0.3328 -0.7103
  746MOL0     H  661   9.057   7.570  11.783 -0.2788 -1.7149  1.1353
  746MOL0     H  662   8.818   7.471  11.677 -0.2009  0.1074  1.3321
  746MOL0     H  663   8.712   7.479  11.814 -2.6962  0.5689 -0.8644
  746MOL0     H  664   8.686   7.679  11.598 -0.9497  1.4530  1.2757
  746MOL0     H  665   8.563   7.638  11.711  0.4588  0.6148  1.3812
  746MOL0     H  666   8.586   7.386  11.612 -1.3836  1.9018  3.2167
  746MOL0     H  667   8.663   7.468  11.475 -0.6598 -1.7595 -0.4494
  746MOL0     H  668   8.447   7.610  11.474  1.4356 -0.2058  0.4162
  746MOL0     H  669   8.381   7.511  11.599  1.7638 -1.7876  1.3091
  746MOL0     H  670   8.246   7.619  11.375 -0.6377 -0.0624  0.3626
  746MOL0     H  671   7.961   7.649  11.193 -0.8176  2.2619  0.8589
  746MOL0     H  672   7.920   7.687  11.359  0.3258  0.1929  0.1398
  746MOL0     H  673   8.074   7.738  11.288 -0.8104  0.7226  0.0924
  746MOL0     H  674   7.565   7.382  11.396  1.5039 -1.8077 -1.6385
  746MOL0     H  675   7.351   7.308  11.310  1.8878 -3.2516  0.4291
  746MOL0     H  676   7.222   7.365  10.893  1.5729 -0.6219 -0.5615
  746MOL0     H  677   7.285   7.226  10.976 -0.2984  0.4132 -2.6607
  746MOL0     H  678   7.085   7.192  11.107  0.8904 -1.8016 -0.9792
  746MOL0     H  679   7.006   7.337  11.019 -0.6445  0.3308 -4.2498
  746MOL0     H  680   7.108   7.110  10.841 -0.5089 -0.7468 -0.9992
  746MOL0     H  681   6.987   7.225  10.809  3.7567  2.1813  0.8099
  746MOL0     H  682   6.845   7.084  10.983  0.3587 -0.8161  0.4501
  746MOL0     H  683   6.877   7.014  10.823 -2.3995 -0.0403  0.6062
  746MOL0     H  684   7.021   6.954  11.092 -1.7050 -0.2678  0.4872
  746MOL0     H  685   7.077   6.902  10.941 -0.7915 -1.4816 -0.3819
  746MOL0     H  686   6.799   6.835  11.052  0.8963 -0.9760  1.2108
  746MOL0     H  687   6.850   6.783  10.891 -0.9616  0.7366  0.5770
  746MOL0     H  688   6.949   6.695  11.158 -2.3996 -1.2471  0.3383
  746MOL0     H  689   7.053   6.675  11.007 -1.0472  1.7428 -4.7100
  746MOL0     H  690   6.913   6.473  11.064  0.3922  0.2207  2.0383
  746MOL0     H  691   6.861   6.534  10.908 -1.4779 -2.6383  1.2589
  746MOL0     H  692   7.420   7.530  10.965 -3.4699  1.3254  1.5232
  746MOL0     H  693   7.673   7.572  11.042  0.0143 -0.7941 -0.1518
  746MOL0     H  694   8.031   7.182  11.353 -0.0965 -0.5696  0.7798
  746MOL0     H  695   8.257   7.191  11.377 -1.8123 -0.8855 -0.7010
  746MOL0     H  696   9.956   8.043  11.759 -0.1889  1.5800  2.3251
  746MOL0     H  697  10.174   8.089  11.673 -1.3251  0.1600 -0.1272
  746MOL0     H  698  10.500   8.237  11.585  0.8939 -0.4513  0.6676
  746MOL0     H  699  10.750   8.225  11.539  0.8389  6.3908  1.8113
  746MOL0     H  700  10.842   8.125  11.175  1.5459 -0.1251  1.6113
  746MOL0     H  701  10.879   8.285  11.111  0.0694  1.6917  0.0525
  746MOL0     H  702  11.086   8.289  11.214  1.2151 -0.3069  0.4793
  746MOL0     H  703  11.083   8.164  11.087 -1.0886  2.1693 -0.7615
  746MOL0     H  704  11.012   7.996  11.299  1.2332 -1.6622  0.2339
  746MOL0     H  705  11.085   8.136  11.388  0.3894 -1.6671  0.9096
  746MOL0     H  706  11.267   7.996  11.354 -0.8193  1.6755  0.0793
  746MOL0     H  707  11.290   8.108  11.221  0.4095  0.1999 -0.1107
  746MOL0     H  708  11.120   7.782  11.000 -0.2502 -0.9180  0.7820
  746MOL0     H  709  10.680   8.385  11.159  0.8600 -4.7296 -1.6961
  746MOL0     H  710  10.442   8.420  11.206  1.9104 -1.1162 -1.9323
  747MOL0     O  711   1.429  10.452   1.360 -0.4106  0.0831 -0.0479
  747MOL0     C  712   1.430  10.558   1.294  0.4396  0.1462 -0.1720
  747MOL0     O  713   1.328  10.606   1.226  0.1220  0.5361  0.6673
  747MOL0     C  714   1.198  10.577   1.268  0.5139  0.2219  0.2472
  747MOL0     C  715   1.153  10.531   1.395 -0.7058  0.1984  0.3647
  747MOL0     C  716   1.023  10.526   1.425 -0.3637  0.4223  0.0776
  747MOL0     C  717   0.920  10.550   1.323 -0.2056 -0.2976 -0.3520
  747MOL0     O  718   0.792  10.535   1.358  0.2984 -0.2803  0.3144
  747MOL0     C  719   0.695  10.593   1.267 -0.1752  0.7042 -0.3102
  747MOL0     C  720   0.561  10.605   1.344  0.1869  0.1829  0.3397
  747MOL0     C  721   0.491  10.474   1.387 -0.5036 -0.3028 -0.9430
  747MOL0     C  722   0.368  10.446   1.302  0.7147 -0.0021 -0.4219
  747MOL0     C  723   0.298  10.322   1.368  0.8796  0.4655 -0.3020
  747MOL0     C  724   0.164  10.284   1.305 -0.3022 -0.2302  1.0026
  747MOL0     C  725   0.123  10.146   1.360  0.3938  0.2447  0.0524
  747MOL0     C  726  -0.018  10.116   1.319  0.2499  0.0255  0.2915
  747MOL0     N  727  -0.108  10.192   1.408 -0.6243 -0.0744  0.5050
  747MOL0     C  728  -0.148  10.168   1.535 -0.0530 -0.5215  0.7728
  747MOL0     C  729  -0.228  10.279   1.570  0.1315 -0.3722  0.9835
  747MOL0     C  730  -0.293  10.318   1.704 -0.3117 -0.3653  0.1741
  747MOL0     C  731  -0.216  10.438   1.775  0.7539  0.1408  0.2843
  747MOL0     C  732  -0.251  10.448   1.920 -0.1121  0.0674 -0.8230
  747MOL0     C  733  -0.182  10.342   2.004 -1.4467 -0.1657  0.3356
  747MOL0     O  734  -0.264  10.227   2.024 -0.8853  0.0319  0.3987
  747MOL0     C  735  -0.387  10.234   2.094  0.1134  0.3147 -0.1423
  747MOL0     C  736  -0.429  10.338   2.174 -0.7989 -0.7060 -0.3913
  747MOL0     C  737  -0.556  10.345   2.235  1.0686 -0.1753  0.4874
  747MOL0     C  738  -0.589  10.473   2.298  0.3618  0.0311  0.2488
  747MOL0     C  739  -0.653  10.232   2.213 -0.9159 -0.6930 -1.3039
  747MOL0     C  740  -0.787  10.226   2.266  0.5518 -0.2837 -0.0892
  747MOL0     O  741  -0.867  10.123   2.229  0.0138 -0.4623  0.3373
  747MOL0     C  742  -1.005  10.137   2.262  0.0863 -0.4599  0.5171
  747MOL0     C  743  -1.084  10.251   2.248 -0.1620  0.0325 -0.1297
  747MOL0     C  744  -1.216  10.250   2.279  0.3503 -0.2677 -0.1445
  747MOL0     C  745  -1.281  10.143   2.333  0.8574 -0.1146  0.0762
  747MOL0     O  746  -1.415  10.153   2.373  0.3802 -0.1582 -0.6202
  747MOL0     C  747  -1.451  10.081   2.494  0.5640  1.0578  0.2609
  747MOL0     C  748  -1.527  10.170   2.579  1.0610  0.7135 -0.0098
  747MOL0     C  749  -1.559  10.091   2.713  0.3197 -0.2605  0.0820
  747MOL0     C  750  -1.654  10.169   2.806 -0.0253 -0.2000 -0.3488
  747MOL0     C  751  -1.683  10.122   2.946  0.0273 -0.3999 -0.3509
  747MOL0     C  752  -1.745   9.983   2.948  0.3331 -0.8624 -0.4053
  747MOL0     C  753  -1.795   9.943   3.087  0.4929 -0.2815  0.3401
  747MOL0     C  754  -1.926  10.019   3.122 -1.0781  0.6761 -0.1423
  747MOL0    Cl  755  -2.010   9.929   3.244 -0.6040  0.1549 -0.0858
  747MOL0     C  756  -1.206  10.029   2.343  0.6710  0.9911 -0.0530
  747MOL0     C  757  -1.075  10.026   2.321  0.2030 -0.5786  0.9622
  747MOL0     O  758  -0.813  10.301   2.360  0.5134 -0.3769 -0.5259
  747MOL0     C  759  -0.604  10.124   2.137  0.3667  0.7765 -0.5320
  747MOL0     C  760  -0.475  10.122   2.086  0.2953  0.2931  0.3879
  747MOL0     N  761  -0.242  10.354   1.456  0.6487 -0.1061 -0.5734
  747MOL0     N  762  -0.165  10.298   1.360 -0.6343 -0.5733  0.3891
  747MOL0     C  763   0.965  10.577   1.193  0.5155 -0.2447 -0.3096
  747MOL0     C  764   1.103  10.594   1.164 -0.5133 -0.1777  0.2889
  747MOL0     C  765   1.555  10.624   1.272 -0.7887 -0.1882  1.1846
  747MOL0     C  766   1.683  10.555   1.294  1.2451 -0.4852 -0.2359
  747MOL0     C  767   1.806  10.628   1.276 -0.3692 -0.2947  0.4259
  747MOL0     C  768   1.800  10.764   1.237  0.0826 -0.2986 -0.5970
  747MOL0     O  769   1.912  10.847   1.215  0.1360 -0.2449 -0.2347
  747MOL0     C  770   2.039  10.790   1.171  0.3872 -0.3392 -0.4037
  747MOL0     C  771   2.120  10.894   1.109 -0.3380 -0.7352 -0.4711
  747MOL0     C  772   2.255  10.854   1.051 -0.2336  0.6234  0.0455
  747MOL0     C  773   2.340  10.974   1.001 -0.1588  0.2239 -0.1679
  747MOL0     C  774   2.268  11.070   0.910  0.4272 -1.1344  0.0095
  747MOL0     C  775   2.215  11.156   0.848 -0.4340  0.4015 -0.7531
  747MOL0     C  776   1.684  10.829   1.214  0.3961  0.5584 -0.1708
  747MOL0     C  777   1.564  10.757   1.227 -0.0878 -0.1293 -0.1281
  747MOL0     H  778   1.229  10.501   1.467  1.3129 -0.7987 -2.0201
  747MOL0     H  779   0.995  10.504   1.528 -0.7921  0.7003  0.0238
  747MOL0     H  780   0.727  10.686   1.219  1.5348 -0.6091 -1.8493
  747MOL0     H  781   0.680  10.524   1.183 -2.9354  3.3743 -2.2234
  747MOL0     H  782   0.583  10.672   1.428  0.3701 -0.0809  0.5024
  747MOL0     H  783   0.491  10.656   1.276 -0.4047 -0.8891  0.1288
  747MOL0     H  784   0.560  10.390   1.403  0.0956  0.6844  2.4748
  747MOL0     H  785   0.464  10.505   1.488  0.5832 -1.4062 -0.2972
  747MOL0     H  786   0.313  10.540   1.304  0.8108  0.0621 -0.7261
  747MOL0     H  787   0.393  10.417   1.200  0.2744 -0.4722 -0.3993
  747MOL0     H  788   0.361  10.234   1.353 -0.7648 -1.2556  2.2054
  747MOL0     H  789   0.284  10.340   1.475 -0.5975  1.4082 -0.6381
  747MOL0     H  790   0.087  10.358   1.329 -2.4611 -0.8336 -3.2132
  747MOL0     H  791   0.188  10.264   1.200 -1.0359 -1.7233  1.0920
  747MOL0     H  792   0.195  10.073   1.321  1.6438  1.2490  0.4158
  747MOL0     H  793   0.122  10.162   1.468  1.8822  1.7254 -0.0992
  747MOL0     H  794  -0.047  10.013   1.344 -3.0698  1.5648  3.5815
  747MOL0     H  795  -0.034  10.137   1.213 -0.4466 -0.7505  0.2350
  747MOL0     H  796  -0.141  10.076   1.592  0.7523 -0.8714  0.1354
  747MOL0     H  797  -0.394  10.356   1.685  0.4414  0.3154 -3.0013
  747MOL0     H  798  -0.289  10.228   1.767  0.5442 -0.8250 -0.5233
  747MOL0     H  799  -0.238  10.532   1.724  3.8272  0.3562 -0.8168
  747MOL0     H  800  -0.112  10.410   1.758  0.0487 -2.8979  0.4008
  747MOL0     H  801  -0.357  10.439   1.943  0.2456  0.2045  1.1162
  747MOL0     H  802  -0.217  10.546   1.955 -1.7559 -0.5332  3.0553
  747MOL0     H  803  -0.134  10.381   2.094  1.2610 -0.0536 -1.0410
  747MOL0     H  804  -0.090  10.305   1.958 -1.7779  1.0863 -1.4701
  747MOL0     H  805  -0.363  10.424   2.184  0.2298 -1.4967 -0.2857
  747MOL0     H  806  -0.611  10.462   2.405 -0.1180  1.3612  0.3137
  747MOL0     H  807  -0.515  10.554   2.301  0.7063 -0.2786  0.1664
  747MOL0     H  808  -0.672  10.518   2.243  1.9451  1.4724 -1.0618
  747MOL0     H  809  -1.040  10.334   2.194  1.4306  0.9130  2.3553
  747MOL0     H  810  -1.278  10.338   2.269  0.1685 -0.3392  0.2947
  747MOL0     H  811  -1.509   9.994   2.463 -0.3476  1.2717  1.3160
  747MOL0     H  812  -1.364  10.037   2.545  0.1631 -1.5803 -1.1608
  747MOL0     H  813  -1.465  10.257   2.602 -0.6670  1.8420  0.5105
  747MOL0     H  814  -1.613  10.207   2.523  0.7338  1.0120  0.6831
  747MOL0     H  815  -1.467  10.065   2.766  0.4286  1.0307  0.5376
  747MOL0     H  816  -1.606   9.996   2.684 -0.1191  0.2670 -0.9871
  747MOL0     H  817  -1.625  10.274   2.813  0.7396 -0.4347  0.1551
  747MOL0     H  818  -1.747  10.178   2.749  0.0325  0.1247 -0.3957
  747MOL0     H  819  -1.745  10.192   3.002  2.7470  1.8514  0.0225
  747MOL0     H  820  -1.585  10.115   2.994  1.7789 -0.4925 -3.6084
  747MOL0     H  821  -1.829   9.998   2.881  0.0993  2.8664  0.4728
  747MOL0     H  822  -1.679   9.906   2.907 -2.4503 -3.2887 -0.6810
  747MOL0     H  823  -1.717   9.974   3.157 -1.1016  2.1897  1.1446
  747MOL0     H  824  -1.816   9.836   3.104 -2.7134 -0.2089 -2.1252
  747MOL0     H  825  -1.995  10.031   3.037  0.3525  0.3053 -1.3936
  747MOL0     H  826  -1.909  10.122   3.156  0.5793  0.7531 -1.1129
  747MOL0     H  827  -1.261   9.941   2.376  2.9887  0.4595  2.8692
  747MOL0     H  828  -1.016   9.935   2.327  0.7907 -0.6752 -3.3384
  747MOL0     H  829  -0.655  10.031   2.111  1.3472  1.1277 -4.3481
  747MOL0     H  830  -0.450  10.035   2.027 -1.9053 -0.8523  1.0254
  747MOL0     H  831   0.901  10.611   1.112  2.2978  2.3301 -0.7515
  747MOL0     H  832   1.125  10.617   1.060 -0.2871 -0.8585  0.1820
  747MOL0     H  833   1.673  10.448   1.310 -3.4917 -0.2164 -0.1739
  747MOL0     H  834   1.900  10.577   1.293 -0.0415 -0.4497 -1.6368
  747MOL0     H  835   2.099  10.743   1.250  1.4048  0.9104 -0.4103
  747MOL0     H  836   2.004  10.716   1.098  0.0053  1.0422 -1.6655
  747MOL0     H  837   2.132  10.966   1.191 -5.1076  0.9544 -0.9458
  747MOL0     H  838   2.056  10.944   1.036  1.6892  2.8860 -0.0327
  747MOL0     H  839   2.242  10.780   0.972 -0.8914 -0.0439  0.7636
  747MOL0     H  840   2.314  10.797   1.123 -0.8485 -1.7918 -1.2625
  747MOL0     H  841   2.413  10.925   0.935  1.0545 -1.0989  2.0351
  747MOL0     H  842   2.397  11.025   1.079 -1.9759  3.0176 -0.5143
  747MOL0     H  843   2.174  11.250   0.815 -0.8167  0.2768 -0.6359
  747MOL0     H  844   1.679  10.933   1.182 -1.2052 -0.5481 -4.1638
  747MOL0     H  845   1.477  10.819   1.207  1.5280  2.1532 -0.5493
  748MOL0     O  846   3.292   2.703   8.506 -0.0046  0.3286 -0.2811
  748MOL0     C  847   3.327   2.786   8.427 -0.8144  0.5352 -0.1517
  748MOL0     O  848   3.276   2.909   8.411 -0.6395  0.2676 -0.0655
  748MOL0     C  849   3.148   2.935   8.456  0.0633  0.0509  1.3141
  748MOL0     C  850   3.040   2.849   8.476 -0.0009 -0.2186  0.4086
  748MOL0     C  851   2.925   2.901   8.536  0.1144 -0.1131  0.3396
  748MOL0     C  852   2.923   3.035   8.580 -0.4226  0.3948  0.2127
  748MOL0     O  853   2.815   3.086   8.649  0.6913 -0.3772  0.2654
  748MOL0     C  854   2.691   3.069   8.573 -0.1959  0.0027 -0.4358
  748MOL0     C  855   2.625   3.203   8.579  0.0725 -0.1158  0.6568
  748MOL0     C  856   2.516   3.219   8.467  0.1506 -0.4101  0.4750
  748MOL0     C  857   2.452   3.354   8.488  0.4897 -0.3565 -0.8489
  748MOL0     C  858   2.337   3.385   8.397  0.3404 -0.5567  0.5968
  748MOL0     C  859   2.294   3.528   8.439  0.6497  0.3110  0.6093
  748MOL0     C  860   2.171   3.555   8.356  0.7362  1.0714  0.2004
  748MOL0     C  861   2.144   3.703   8.343 -0.8356  0.2073  0.2637
  748MOL0     N  862   2.093   3.773   8.465 -0.4339 -0.0222  0.0963
  748MOL0     C  863   1.976   3.742   8.533 -0.1855 -0.5205  1.1100
  748MOL0     C  864   1.989   3.802   8.654  0.7841 -0.2344  0.1991
  748MOL0     C  865   1.894   3.815   8.767  0.1137  0.5889  0.5987
  748MOL0     C  866   1.753   3.870   8.721 -0.0822  0.8159 -1.3762
  748MOL0     C  867   1.675   3.914   8.840  0.4038 -0.4246  0.1447
  748MOL0     C  868   1.573   4.021   8.787  0.0081 -0.0630  0.3147
  748MOL0     O  869   1.461   4.045   8.874  0.2988 -0.2122  0.0313
  748MOL0     C  870   1.369   4.139   8.834  0.3024 -0.4377  0.0749
  748MOL0     C  871   1.255   4.141   8.912 -0.2386 -0.0287  0.5664
  748MOL0     C  872   1.150   4.231   8.888  0.0048 -0.0573  0.1516
  748MOL0     C  873   1.035   4.228   8.981  0.3265  0.5917 -0.3280
  748MOL0     C  874   1.158   4.317   8.781 -0.3209 -0.4004 -0.2404
  748MOL0     C  875   1.045   4.410   8.754 -0.5138 -0.2700 -0.3813
  748MOL0     O  876   0.985   4.471   8.860 -0.4774  0.3367  0.5959
  748MOL0     C  877   0.904   4.574   8.812  0.4248  0.8620 -0.1298
  748MOL0     C  878   0.955   4.698   8.829 -0.9773 -0.9679 -1.0329
  748MOL0     C  879   0.899   4.806   8.764  0.4187 -0.1225 -0.4983
  748MOL0     C  880   0.772   4.790   8.695 -0.1366 -0.1457 -0.1480
  748MOL0     O  881   0.728   4.907   8.634  0.0122 -0.0338 -0.4819
  748MOL0     C  882   0.616   4.897   8.543 -0.5373 -0.1177  0.1655
  748MOL0     C  883   0.565   5.026   8.496 -0.0521 -0.6748  0.1666
  748MOL0     C  884   0.671   5.093   8.406  0.8092  0.2243 -0.3811
  748MOL0     C  885   0.661   5.250   8.415 -0.2996 -0.2714  0.4985
  748MOL0     C  886   0.540   5.329   8.352 -0.8708 -0.1924  0.0978
  748MOL0     C  887   0.530   5.320   8.198  1.1573  0.2606 -0.9928
  748MOL0     C  888   0.407   5.402   8.157 -0.1378 -0.7570  0.6075
  748MOL0     C  889   0.268   5.342   8.210 -0.0757  0.3656 -0.3753
  748MOL0    Cl  890   0.135   5.409   8.117  0.5374 -0.1683  0.0614
  748MOL0     C  891   0.712   4.658   8.695 -0.2476 -0.1969  0.4075
  748MOL0     C  892   0.779   4.548   8.744 -0.6893 -0.2973 -0.6466
  748MOL0     O  893   1.017   4.425   8.635  0.7281  0.3223  0.1903
  748MOL0     C  894   1.267   4.315   8.693  1.0593  0.1512 -0.4214
  748MOL0     C  895   1.374   4.233   8.722  0.4121  0.0351  0.0386
  748MOL0     N  896   2.110   3.865   8.662  0.6495 -0.1102 -0.0381
  748MOL0     N  897   2.164   3.858   8.543 -0.3844  1.0682  0.6868
  748MOL0     C  898   3.028   3.117   8.551 -0.2638 -0.0274  0.7357
  748MOL0     C  899   3.141   3.071   8.491  0.4850 -0.8188 -1.0488
  748MOL0     C  900   3.448   2.747   8.347 -0.0896  0.1277 -0.7026
  748MOL0     C  901   3.458   2.790   8.212  0.8734  0.3711  1.0359
  748MOL0     C  902   3.567   2.750   8.135 -0.9078 -0.5216 -0.7127
  748MOL0     C  903   3.664   2.662   8.192  1.3377  0.1469  0.0515
  748MOL0     O  904   3.781   2.625   8.121  0.2942 -0.4725  0.7641
  748MOL0     C  905   3.787   2.630   7.976 -0.4630  0.4341 -1.2990
  748MOL0     C  906   3.876   2.528   7.917 -0.0579 -0.3882  0.4256
  748MOL0     C  907   4.018   2.536   7.961  0.3257  0.2862  0.5910
  748MOL0     C  908   4.108   2.437   7.899  0.2955  0.2672 -0.4207
  748MOL0     C  909   4.070   2.307   7.943  0.4796  0.4321 -0.5748
  748MOL0     C  910   4.021   2.202   7.978 -0.1035  0.5947  0.6182
  748MOL0     C  911   3.657   2.641   8.328 -0.3441 -0.5759 -0.1341
  748MOL0     C  912   3.553   2.681   8.400  0.5976 -0.5849 -1.2719
  748MOL0     H  913   3.057   2.743   8.463  0.5163 -0.6406  3.6732
  748MOL0     H  914   2.835   2.844   8.556  1.0651 -1.6645  0.3552
  748MOL0     H  915   2.701   3.040   8.468 -1.6106 -2.7022  0.0912
  748MOL0     H  916   2.616   3.003   8.619 -0.5900  0.4058 -0.4917
  748MOL0     H  917   2.583   3.204   8.680  0.2973  2.8116  0.8005
  748MOL0     H  918   2.697   3.285   8.566  0.6249 -1.0105 -2.8715
  748MOL0     H  919   2.547   3.219   8.362  3.4336  1.0870  1.3285
  748MOL0     H  920   2.436   3.148   8.491  1.3421 -1.0233  2.9703
  748MOL0     H  921   2.414   3.358   8.591 -0.6672 -0.3000 -1.2631
  748MOL0     H  922   2.524   3.435   8.477 -0.1929  0.3256 -0.3860
  748MOL0     H  923   2.355   3.373   8.290  2.2687 -1.2632  0.9647
  748MOL0     H  924   2.250   3.321   8.419  0.7924 -2.6455 -2.9504
  748MOL0     H  925   2.262   3.555   8.539 -2.6180  2.0359 -0.7576
  748MOL0     H  926   2.378   3.589   8.405 -0.4428  3.6713  3.3697
  748MOL0     H  927   2.193   3.514   8.257 -2.1721 -0.9141  0.2362
  748MOL0     H  928   2.083   3.505   8.398  0.0331  1.8838 -0.2857
  748MOL0     H  929   2.085   3.731   8.256  1.5104  3.5247 -0.4548
  748MOL0     H  930   2.240   3.753   8.325  0.8769 -2.0614  2.3815
  748MOL0     H  931   1.888   3.685   8.503 -2.4554  0.7474  4.6551
  748MOL0     H  932   1.887   3.708   8.791  0.7157  0.0317 -1.4709
  748MOL0     H  933   1.929   3.867   8.856 -0.4760 -0.2637  1.3519
  748MOL0     H  934   1.698   3.796   8.663 -0.9969  1.6533 -1.5975
  748MOL0     H  935   1.769   3.955   8.654 -2.0300 -0.0684 -3.0645
  748MOL0     H  936   1.743   3.949   8.919  1.6786 -1.4214 -0.4878
  748MOL0     H  937   1.621   3.827   8.877  1.6141 -1.6824 -0.9742
  748MOL0     H  938   1.538   3.986   8.690  1.8080 -0.9795 -0.0571
  748MOL0     H  939   1.633   4.112   8.776  0.0942 -0.1713 -0.1100
  748MOL0     H  940   1.235   4.055   8.976 -0.2369  1.5925  2.8557
  748MOL0     H  941   0.943   4.214   8.922 -1.6423 -0.3178  2.6950
  748MOL0     H  942   1.043   4.144   9.052 -0.3435  1.1016  0.3756
  748MOL0     H  943   1.040   4.323   9.034  4.2112  1.4162 -1.8621
  748MOL0     H  944   1.053   4.716   8.871 -1.0741 -1.2549 -0.6797
  748MOL0     H  945   0.951   4.900   8.760  4.0032 -1.8858  0.4698
  748MOL0     H  946   0.642   4.840   8.454 -0.3727  1.9134 -1.1531
  748MOL0     H  947   0.533   4.841   8.585  0.5306 -1.0582  1.1023
  748MOL0     H  948   0.467   5.020   8.448 -0.8562  0.9723  1.4845
  748MOL0     H  949   0.538   5.085   8.584 -1.0688 -0.0949 -0.5195
  748MOL0     H  950   0.658   5.058   8.303 -0.4981  2.8256 -1.1789
  748MOL0     H  951   0.770   5.058   8.436  0.9289  3.0617  3.1851
  748MOL0     H  952   0.678   5.291   8.515 -0.4889  2.3349 -0.4467
  748MOL0     H  953   0.746   5.280   8.353 -0.8672 -1.9018 -1.1301
  748MOL0     H  954   0.549   5.430   8.393  0.0146 -1.0714  2.2021
  748MOL0     H  955   0.454   5.279   8.398 -2.0020  1.9747  0.4573
  748MOL0     H  956   0.620   5.360   8.152  0.8980  0.1352 -1.6174
  748MOL0     H  957   0.507   5.218   8.166 -1.5444  0.0877  1.0681
  748MOL0     H  958   0.384   5.412   8.050 -3.8322  2.3178  1.4990
  748MOL0     H  959   0.420   5.505   8.190 -0.2260 -0.2117 -0.9602
  748MOL0     H  960   0.250   5.360   8.317  0.6324 -2.2751  0.2459
  748MOL0     H  961   0.261   5.234   8.197 -0.9683 -0.0116  2.5328
  748MOL0     H  962   0.621   4.639   8.641 -0.1832 -0.9826  0.5644
  748MOL0     H  963   0.759   4.443   8.722  1.7655 -0.9722  0.0213
  748MOL0     H  964   1.256   4.394   8.619 -3.1732  0.0245 -0.1602
  748MOL0     H  965   1.463   4.227   8.660  2.4466 -0.4137  2.8420
  748MOL0     H  966   3.014   3.221   8.577  0.1546  0.5720 -1.2941
  748MOL0     H  967   3.214   3.145   8.459 -1.8666  1.0691 -2.3014
  748MOL0     H  968   3.378   2.854   8.178  1.5359 -0.7143 -3.1011
  748MOL0     H  969   3.589   2.781   8.033  0.8394 -2.6355 -1.0636
  748MOL0     H  970   3.684   2.620   7.939 -0.9647  0.2349  0.0769
  748MOL0     H  971   3.828   2.728   7.949  0.8410  0.6152  1.1323
  748MOL0     H  972   3.877   2.528   7.807 -3.0972 -2.2148  0.2920
  748MOL0     H  973   3.823   2.436   7.942 -2.2969  0.8001  0.2959
  748MOL0     H  974   4.030   2.541   8.070  1.5411  1.3936  0.4372
  748MOL0     H  975   4.062   2.629   7.924 -2.7456  1.9367  0.7775
  748MOL0     H  976   4.210   2.444   7.938  0.1387 -0.3636  0.1038
  748MOL0     H  977   4.113   2.436   7.789  1.3083  1.0833 -0.3989
  748MOL0     H  978   3.992   2.104   8.008  2.3131 -0.3486  0.1091
  748MOL0     H  979   3.740   2.584   8.368  0.0595 -0.2236 -0.4514
  748MOL0     H  980   3.551   2.643   8.502 -0.9407 -1.6508 -1.6700
  749MOL0     O  981   2.511  10.539   0.596 -0.1535 -0.0523 -0.6875
  749MOL0     C  982   2.593  10.511   0.507  0.2222  0.3776  0.5386
  749MOL0     O  983   2.556  10.478   0.378  0.1895  0.4264 -0.3524
  749MOL0     C  984   2.424  10.509   0.351  0.0133  0.0392  0.1279
  749MOL0     C  985   2.343  10.409   0.300  1.0215 -0.1315  0.5907
  749MOL0     C  986   2.210  10.431   0.256  0.5157 -0.5459 -0.1575
  749MOL0     C  987   2.162  10.559   0.263  0.2943 -0.1222 -0.0994
  749MOL0     O  988   2.027  10.595   0.246 -0.0636  0.1793 -0.2861
  749MOL0     C  989   1.919  10.509   0.207 -1.1125 -0.2717 -0.0898
  749MOL0     C  990   1.850  10.473   0.335 -0.5156  0.8426 -0.9474
  749MOL0     C  991   1.710  10.514   0.340  0.9636  0.4161  0.1775
  749MOL0     C  992   1.626  10.459   0.462 -1.1803  0.0076  0.0227
  749MOL0     C  993   1.582  10.320   0.429  0.2190  0.4197 -0.5938
  749MOL0     C  994   1.511  10.257   0.559 -0.1939 -0.7390 -0.3871
  749MOL0     C  995   1.503  10.105   0.531 -1.5081 -0.8650 -0.2148
  749MOL0     C  996   1.462  10.040   0.663  0.4328 -0.7039 -0.3299
  749MOL0     N  997   1.458   9.898   0.629 -0.6041  0.1116 -0.3554
  749MOL0     C  998   1.355   9.832   0.573 -0.5511  1.0589  0.8560
  749MOL0     C  999   1.398   9.704   0.568  0.0923  0.8551  0.0056
  749MOL0     C 1000   1.299   9.588   0.547 -0.5947 -0.6515 -0.2760
  749MOL0     C 1001   1.156   9.614   0.529  0.5476  0.4771 -0.6197
  749MOL0     C 1002   1.083   9.625   0.658 -0.0360  0.6084 -0.0281
  749MOL0     C 1003   0.937   9.639   0.652  0.1139 -0.6949  0.2683
  749MOL0     O 1004   0.889   9.629   0.787  0.8951  0.1448  0.3077
  749MOL0     C 1005   0.755   9.604   0.796  0.2006  0.4341  0.5729
  749MOL0     C 1006   0.692   9.633   0.920 -0.0065  0.2431  0.0710
  749MOL0     C 1007   0.553   9.612   0.935  0.0638 -0.2752 -1.2394
  749MOL0     C 1008   0.493   9.662   1.057  0.4743  0.0704  0.2764
  749MOL0     C 1009   0.477   9.554   0.832  0.1697  0.0529 -0.3617
  749MOL0     C 1010   0.328   9.524   0.846  0.0305 -0.3331 -0.1424
  749MOL0     O 1011   0.283   9.429   0.756 -0.0333  0.7883  0.0591
  749MOL0     C 1012   0.165   9.382   0.789  0.8446  0.0636 -1.2811
  749MOL0     C 1013   0.180   9.259   0.848 -0.8041 -0.0224 -0.0128
  749MOL0     C 1014   0.073   9.188   0.904  0.2290  0.2578 -0.1397
  749MOL0     C 1015  -0.057   9.243   0.896 -0.4692  0.4398 -0.8664
  749MOL0     O 1016  -0.161   9.178   0.952 -0.2351  0.0687 -0.7477
  749MOL0     C 1017  -0.259   9.256   1.023  0.5027 -0.2125 -0.6764
  749MOL0     C 1018  -0.401   9.233   0.979  0.0115 -0.3659 -0.2800
  749MOL0     C 1019  -0.431   9.085   0.983  0.2872  0.4002 -0.0922
  749MOL0     C 1020  -0.585   9.063   0.960 -0.6363  0.8422  0.5374
  749MOL0     C 1021  -0.665   9.095   1.098  1.1089  0.2631  0.3271
  749MOL0     C 1022  -0.810   9.020   1.083  0.1771 -0.6483  0.6034
  749MOL0     C 1023  -0.813   8.870   1.115 -0.4263 -0.3446  0.2807
  749MOL0     C 1024  -0.933   8.807   1.050 -0.3326  1.4861 -1.1755
  749MOL0    Cl 1025  -0.923   8.624   1.048 -0.2855  0.1719 -0.5578
  749MOL0     C 1026  -0.074   9.368   0.833 -0.9869 -1.2211  0.5308
  749MOL0     C 1027   0.038   9.440   0.786  0.3282  0.4063  0.8565
  749MOL0     O 1028   0.261   9.577   0.929 -0.0696 -0.2080 -0.0236
  749MOL0     C 1029   0.544   9.511   0.718 -0.3591  0.6429  0.8383
  749MOL0     C 1030   0.676   9.536   0.696 -0.1376 -0.8367  0.8151
  749MOL0     N 1031   1.521   9.699   0.618 -0.3203 -0.6610  0.4583
  749MOL0     N 1032   1.564   9.815   0.651 -0.8061 -0.8411 -0.0396
  749MOL0     C 1033   2.246  10.667   0.307 -0.7060  0.3861 -0.0023
  749MOL0     C 1034   2.381  10.643   0.335 -0.1457  0.5495 -0.5884
  749MOL0     C 1035   2.732  10.554   0.537 -0.9044 -0.2577 -0.1182
  749MOL0     C 1036   2.835  10.561   0.434 -0.1974  0.4161  1.0630
  749MOL0     C 1037   2.970  10.585   0.463 -0.7949 -0.3868  0.0843
  749MOL0     C 1038   3.007  10.601   0.595 -0.0689 -0.0504 -0.4483
  749MOL0     O 1039   3.136  10.625   0.644 -0.3128 -0.0625 -0.2394
  749MOL0     C 1040   3.239  10.641   0.543  0.2376 -0.2005  0.4165
  749MOL0     C 1041   3.278  10.506   0.480 -0.8887  0.1071  0.4909
  749MOL0     C 1042   3.412  10.512   0.403  1.1520 -0.0860  0.2790
  749MOL0     C 1043   3.457  10.384   0.324  0.6991 -0.1595  0.2762
  749MOL0     C 1044   3.569  10.420   0.236  1.0249 -0.1738  0.8882
  749MOL0     C 1045   3.665  10.443   0.170 -0.0704  0.6266  0.4768
  749MOL0     C 1046   2.912  10.593   0.693  0.6148  0.0869 -0.4747
  749MOL0     C 1047   2.776  10.573   0.673  0.1928  0.2757  0.3202
  749MOL0     H 1048   2.380  10.307   0.301  0.8497 -0.1914  1.1618
  749MOL0     H 1049   2.151  10.342   0.237 -1.2194  1.1886 -4.0366
  749MOL0     H 1050   1.858  10.570   0.139  0.2853  0.6465 -0.5818
  749MOL0     H 1051   1.954  10.430   0.140  2.5623  0.7961  0.3077
  749MOL0     H 1052   1.854  10.364   0.345  1.1592  1.0464  2.4306
  749MOL0     H 1053   1.905  10.517   0.419  2.6003 -2.7713 -0.8531
  749MOL0     H 1054   1.710  10.624   0.343 -2.2937  0.5888 -1.2234
  749MOL0     H 1055   1.660  10.484   0.247 -0.3154  0.4822  0.8149
  749MOL0     H 1056   1.687  10.462   0.552 -2.6168  1.5892  1.0142
  749MOL0     H 1057   1.534  10.511   0.492 -0.2076  2.7998 -1.4508
  749MOL0     H 1058   1.506  10.329   0.351  0.8086  0.6731 -1.1471
  749MOL0     H 1059   1.671  10.263   0.403  0.6846 -0.2836  2.2255
  749MOL0     H 1060   1.569  10.285   0.648  2.4472 -0.9473 -1.9217
  749MOL0     H 1061   1.410  10.298   0.562  0.8299  1.9197  0.6324
  749MOL0     H 1062   1.430  10.080   0.454  0.6042 -2.2667 -1.8691
  749MOL0     H 1063   1.597  10.056   0.505 -2.0178 -4.2131  3.2562
  749MOL0     H 1064   1.361  10.072   0.691 -0.3443 -0.6191 -2.9193
  749MOL0     H 1065   1.529  10.044   0.749 -2.1863 -0.2558  1.8005
  749MOL0     H 1066   1.255   9.868   0.551 -0.5194  0.7203  0.1341
  749MOL0     H 1067   1.331   9.552   0.449 -0.6284 -2.4311  0.3319
  749MOL0     H 1068   1.326   9.507   0.615 -0.2993 -1.6109 -1.5040
  749MOL0     H 1069   1.116   9.529   0.474 -1.0085  2.1248 -2.1660
  749MOL0     H 1070   1.139   9.700   0.464 -0.6591 -0.7190 -1.9319
  749MOL0     H 1071   1.126   9.711   0.712 -1.2633 -0.5473  3.0336
  749MOL0     H 1072   1.104   9.545   0.730  0.4854 -0.5645 -1.4484
  749MOL0     H 1073   0.894   9.566   0.583 -0.7781  0.5134 -0.5037
  749MOL0     H 1074   0.904   9.739   0.621  3.4869  1.1954  2.1281
  749MOL0     H 1075   0.737   9.694   0.998 -1.4518  0.5445  0.6980
  749MOL0     H 1076   0.566   9.704   1.126 -0.9708 -0.8806  2.4899
  749MOL0     H 1077   0.416   9.739   1.043  0.1245 -0.3950 -0.4261
  749MOL0     H 1078   0.447   9.580   1.113  0.2934  1.1215  1.7241
  749MOL0     H 1079   0.280   9.216   0.848 -1.3962 -1.4461  0.3611
  749MOL0     H 1080   0.087   9.092   0.953 -1.3088  0.1570  0.1299
  749MOL0     H 1081  -0.250   9.229   1.129  3.2148  2.6036 -0.0531
  749MOL0     H 1082  -0.232   9.362   1.022  3.0085 -0.7853 -0.0430
  749MOL0     H 1083  -0.478   9.285   1.038 -0.3065 -2.3231  1.1135
  749MOL0     H 1084  -0.397   9.276   0.879  0.1867  1.9819  0.6703
  749MOL0     H 1085  -0.394   9.045   1.078 -0.2397  1.9201  0.7860
  749MOL0     H 1086  -0.369   9.035   0.908 -1.0999  0.4274 -1.3040
  749MOL0     H 1087  -0.622   9.122   0.876 -0.9996 -0.7651 -0.4751
  749MOL0     H 1088  -0.605   8.961   0.927 -0.6316  2.3834 -5.4191
  749MOL0     H 1089  -0.672   9.204   1.104  1.5902  0.3151  0.0012
  749MOL0     H 1090  -0.610   9.058   1.185  3.3041  2.4372 -0.0377
  749MOL0     H 1091  -0.880   9.069   1.151  0.7080 -2.1242  2.2803
  749MOL0     H 1092  -0.837   9.040   0.978  2.2455  0.5102  0.2402
  749MOL0     H 1093  -0.800   8.861   1.224  2.7704  0.5851  0.0638
  749MOL0     H 1094  -0.725   8.823   1.071  0.0740  0.7337  0.1082
  749MOL0     H 1095  -0.946   8.845   0.949  1.6541  4.1795 -0.5134
  749MOL0     H 1096  -1.014   8.841   1.116 -0.2702  1.6676 -1.1939
  749MOL0     H 1097  -0.174   9.410   0.826 -0.1653  0.7124 -0.4677
  749MOL0     H 1098   0.019   9.541   0.751 -1.0983 -0.6607 -1.7242
  749MOL0     H 1099   0.497   9.462   0.633  1.9582  0.2636 -0.3182
  749MOL0     H 1100   0.715   9.510   0.598 -1.6280 -0.9705  0.2297
  749MOL0     H 1101   2.194  10.762   0.308 -0.8067  0.3488 -0.8017
  749MOL0     H 1102   2.449  10.713   0.381  2.1580 -1.8144 -0.1318
  749MOL0     H 1103   2.808  10.555   0.329 -0.0011  0.4107  1.0142
  749MOL0     H 1104   3.043  10.597   0.383 -0.0532 -1.7648  0.5123
  749MOL0     H 1105   3.223  10.718   0.468 -4.4965 -2.6971 -1.5949
  749MOL0     H 1106   3.330  10.650   0.603  1.4393 -6.9016  0.3508
  749MOL0     H 1107   3.198  10.466   0.417  0.4247  0.3393 -1.3738
  749MOL0     H 1108   3.300  10.437   0.561  2.5353  2.4372  1.7677
  749MOL0     H 1109   3.490  10.533   0.477 -1.2846 -2.9588  4.0355
  749MOL0     H 1110   3.394  10.591   0.329 -0.4416  0.6671  1.4101
  749MOL0     H 1111   3.372  10.359   0.260  0.0687  0.8130  0.7019
  749MOL0     H 1112   3.487  10.296   0.382 -0.8665 -1.4057 -0.7195
  749MOL0     H 1113   3.750  10.455   0.105  0.4165 -2.6458  0.3573
  749MOL0     H 1114   2.948  10.595   0.795  1.2897 -2.7291 -0.5639
  749MOL0     H 1115   2.705  10.553   0.752 -1.8331  1.1431 -1.1851
  750MOL0     O 1116   7.483   0.927   7.033 -0.0863 -0.2966  0.5869
  750MOL0     C 1117   7.536   0.926   6.921 -0.0713 -1.0299  0.7169
  750MOL0     O 1118   7.466   0.915   6.802 -1.0921 -0.3158  0.1237
  750MOL0     C 1119   7.329   0.887   6.813 -0.4094 -0.7285 -0.2040
  750MOL0     C 1120   7.240   0.982   6.867  0.1327  0.0192 -0.0525
  750MOL0     C 1121   7.100   0.959   6.868  0.3763 -0.4820 -0.5986
  750MOL0     C 1122   7.044   0.837   6.817 -0.9076  0.6984 -0.1422
  750MOL0     O 1123   6.912   0.791   6.818 -0.0397 -0.1679 -0.6731
  750MOL0     C 1124   6.821   0.854   6.907 -0.1295  0.4036  0.2850
  750MOL0     C 1125   6.695   0.871   6.820 -0.3689 -0.0089  0.3540
  750MOL0     C 1126   6.638   0.731   6.772  0.8504 -0.5998  0.3765
  750MOL0     C 1127   6.500   0.749   6.710  0.2392 -0.1235  0.0572
  750MOL0     C 1128   6.425   0.616   6.673  0.5429  0.3279  0.1515
  750MOL0     C 1129   6.279   0.637   6.634 -0.2937  0.2217 -0.3091
  750MOL0     C 1130   6.209   0.511   6.600  0.1248 -0.2120 -1.4227
  750MOL0     C 1131   6.077   0.566   6.538 -0.3777 -0.0233  0.2190
  750MOL0     N 1132   5.997   0.458   6.489  0.4328 -0.1547  0.8297
  750MOL0     C 1133   5.952   0.351   6.554  0.1911  0.1840 -0.5028
  750MOL0     C 1134   5.853   0.292   6.494  0.3216 -0.2868 -0.9832
  750MOL0     C 1135   5.760   0.181   6.550 -0.3374  0.4209 -0.0796
  750MOL0     C 1136   5.777   0.039   6.482 -0.2690 -0.0511  0.3341
  750MOL0     C 1137   5.693   0.028   6.354  0.8830 -1.2566 -0.0638
  750MOL0     C 1138   5.691  -0.111   6.306  0.3855 -1.0760 -0.7556
  750MOL0     O 1139   5.627  -0.201   6.390  0.2887  1.1131 -0.2375
  750MOL0     C 1140   5.490  -0.189   6.397  0.6906  0.2178  0.3543
  750MOL0     C 1141   5.401  -0.211   6.293 -0.4657 -0.4267  0.3269
  750MOL0     C 1142   5.264  -0.176   6.297  0.4970  0.0627 -0.2259
  750MOL0     C 1143   5.176  -0.192   6.171  0.8037 -0.0140  0.6543
  750MOL0     C 1144   5.215  -0.126   6.423  0.4045  0.4253 -0.2155
  750MOL0     C 1145   5.071  -0.075   6.433  0.0358 -0.4549 -0.6645
  750MOL0     O 1146   5.040  -0.018   6.552 -0.2715  0.3965  0.3628
  750MOL0     C 1147   4.923   0.058   6.560 -0.2372  0.8855 -0.2646
  750MOL0     C 1148   4.799  -0.012   6.589 -0.8207 -0.3183  0.3210
  750MOL0     C 1149   4.683   0.053   6.619  0.0919 -0.7697 -0.2649
  750MOL0     C 1150   4.682   0.200   6.612  0.0828  0.6773 -0.1197
  750MOL0     O 1151   4.566   0.275   6.613  0.4555  0.3563  0.0905
  750MOL0     C 1152   4.436   0.214   6.578  0.1867 -1.2282  0.5565
  750MOL0     C 1153   4.402   0.205   6.429 -0.1768  0.0200  0.8563
  750MOL0     C 1154   4.412   0.343   6.352 -0.3959 -0.4071  0.3790
  750MOL0     C 1155   4.389   0.333   6.199  1.1032  0.0162 -0.2332
  750MOL0     C 1156   4.480   0.239   6.116 -0.5343  0.8913  0.4232
  750MOL0     C 1157   4.437   0.204   5.976 -0.3213 -0.9641 -0.1174
  750MOL0     C 1158   4.440   0.315   5.879 -0.3752 -0.3454 -0.1191
  750MOL0     C 1159   4.419   0.286   5.725 -0.3516  0.5688 -0.4578
  750MOL0    Cl 1160   4.239   0.287   5.697 -0.5114  0.0287 -0.1904
  750MOL0     C 1161   4.801   0.263   6.572 -0.1277 -0.4972  0.3934
  750MOL0     C 1162   4.925   0.198   6.555 -0.4023 -0.0356  0.0248
  750MOL0     O 1163   4.988  -0.087   6.337 -0.7765 -0.3567  0.0445
  750MOL0     C 1164   5.299  -0.116   6.535 -0.1729  0.0907 -1.0323
  750MOL0     C 1165   5.432  -0.148   6.517  0.2657 -0.5803 -0.1891
  750MOL0     N 1166   5.823   0.374   6.380 -0.5213 -0.6154  0.9464
  750MOL0     N 1167   5.919   0.467   6.372 -0.8407  0.4590  0.2064
  750MOL0     C 1168   7.141   0.746   6.771 -0.0093 -0.2315  0.3952
  750MOL0     C 1169   7.280   0.766   6.762 -0.3974  0.1319 -0.0040
  750MOL0     C 1170   7.674   0.967   6.905 -0.4421  0.0878  0.3243
  750MOL0     C 1171   7.745   0.936   6.787  0.8241 -0.4143 -0.7491
  750MOL0     C 1172   7.875   0.985   6.776 -0.4508  0.3232  0.9778
  750MOL0     C 1173   7.937   1.051   6.873  0.3099 -0.3209 -0.5576
  750MOL0     O 1174   8.062   1.096   6.843  0.3964 -0.2219 -0.2050
  750MOL0     C 1175   8.130   1.185   6.934 -0.0189  0.1548 -0.5277
  750MOL0     C 1176   8.263   1.233   6.881  0.1104 -0.1948 -0.2834
  750MOL0     C 1177   8.349   1.112   6.834  0.5817  0.2022  0.0487
  750MOL0     C 1178   8.497   1.149   6.823 -0.7330 -0.2808  0.7031
  750MOL0     C 1179   8.531   1.273   6.741  0.5997 -0.1129 -0.2425
  750MOL0     C 1180   8.556   1.365   6.658 -0.1289  0.2631 -0.7874
  750MOL0     C 1181   7.869   1.071   6.993 -0.4477 -0.8347  0.3145
  750MOL0     C 1182   7.741   1.030   7.014  0.3698 -0.0311  0.2712
  750MOL0     H 1183   7.282   1.076   6.900  2.0921  0.2675 -2.9106
  750MOL0     H 1184   7.032   1.032   6.911 -2.1032 -3.2877  0.6250
  750MOL0     H 1185   6.801   0.786   6.990  0.4691  2.9695  2.6793
  750MOL0     H 1186   6.852   0.954   6.940 -2.2146  1.1660  0.0547
  750MOL0     H 1187   6.622   0.929   6.879 -0.5008  1.8103 -1.4795
  750MOL0     H 1188   6.720   0.927   6.729 -2.4976 -1.6469 -1.3339
  750MOL0     H 1189   6.710   0.678   6.708 -0.6233 -1.1423 -0.8947
  750MOL0     H 1190   6.616   0.662   6.853  0.2451  3.5566  4.0860
  750MOL0     H 1191   6.430   0.800   6.777 -1.3114 -1.8128 -0.1920
  750MOL0     H 1192   6.487   0.822   6.629  0.1900  2.5627  2.3309
  750MOL0     H 1193   6.488   0.579   6.592 -1.0780  3.1996 -2.6122
  750MOL0     H 1194   6.436   0.545   6.756 -0.4964  0.0180  0.0311
  750MOL0     H 1195   6.222   0.688   6.712  0.7596  0.8260  0.0957
  750MOL0     H 1196   6.285   0.695   6.542  3.4603  1.2716  0.3966
  750MOL0     H 1197   6.276   0.451   6.539  1.7672 -0.6519  0.6948
  750MOL0     H 1198   6.183   0.455   6.690  0.5925  1.9624  0.1681
  750MOL0     H 1199   6.089   0.640   6.459 -2.2611 -0.0439 -0.1352
  750MOL0     H 1200   6.022   0.618   6.618  0.9806  1.1726  0.4179
  750MOL0     H 1201   5.985   0.324   6.654  1.4271 -1.3410 -1.2946
  750MOL0     H 1202   5.790   0.156   6.652 -0.6754 -3.4424 -0.8033
  750MOL0     H 1203   5.655   0.212   6.557 -0.7853 -0.8292 -0.9353
  750MOL0     H 1204   5.748  -0.039   6.553  0.7670  0.0275  0.8685
  750MOL0     H 1205   5.883   0.021   6.463 -0.6050 -0.2740 -1.4918
  750MOL0     H 1206   5.727   0.102   6.282  0.7082 -0.5505  0.5700
  750MOL0     H 1207   5.593   0.059   6.386  1.3949  2.2685 -1.4104
  750MOL0     H 1208   5.797  -0.136   6.292  0.0833 -2.2844 -0.9535
  750MOL0     H 1209   5.639  -0.115   6.210 -3.3864 -0.2263  1.0691
  750MOL0     H 1210   5.441  -0.248   6.199  4.1038  2.2437  0.8890
  750MOL0     H 1211   5.125  -0.098   6.147 -1.3106 -1.6865 -2.0171
  750MOL0     H 1212   5.235  -0.217   6.083 -2.8514  0.4879 -2.2124
  750MOL0     H 1213   5.102  -0.272   6.173 -0.1938  0.5196 -3.9559
  750MOL0     H 1214   4.809  -0.120   6.594  3.0333 -0.0827  1.0011
  750MOL0     H 1215   4.599  -0.009   6.649  1.4178 -1.7892  1.5900
  750MOL0     H 1216   4.418   0.117   6.625 -0.5176 -0.1621  2.6142
  750MOL0     H 1217   4.367   0.284   6.626  1.0050 -0.3449  0.4731
  750MOL0     H 1218   4.469   0.136   6.376 -0.7846  0.5625 -0.6914
  750MOL0     H 1219   4.299   0.170   6.429  0.3941 -1.8026  2.6696
  750MOL0     H 1220   4.512   0.382   6.373 -0.0118 -2.6635  3.3138
  750MOL0     H 1221   4.339   0.413   6.393  1.1049  0.8485  1.0010
  750MOL0     H 1222   4.287   0.305   6.171  1.6204 -1.6679 -0.5677
  750MOL0     H 1223   4.406   0.435   6.163 -0.6623  0.6322  0.5557
  750MOL0     H 1224   4.496   0.140   6.160  1.0413  0.2536 -1.4329
  750MOL0     H 1225   4.581   0.280   6.125  1.7057 -4.0940  1.2138
  750MOL0     H 1226   4.504   0.129   5.933  2.8269  2.4052 -1.6425
  750MOL0     H 1227   4.338   0.163   5.998 -2.7162  3.2500 -1.8660
  750MOL0     H 1228   4.539   0.361   5.870 -1.6203  2.0545 -4.1297
  750MOL0     H 1229   4.366   0.385   5.920 -2.0902 -1.8594 -0.4969
  750MOL0     H 1230   4.465   0.192   5.692  0.2679  0.9753 -0.7758
  750MOL0     H 1231   4.460   0.365   5.662 -0.7688  1.8100  0.7868
  750MOL0     H 1232   4.802   0.370   6.554  1.6721 -0.5633 -0.1018
  750MOL0     H 1233   5.020   0.250   6.548 -0.0744  0.4101  4.5843
  750MOL0     H 1234   5.261  -0.074   6.628  1.2725 -1.5969  0.4129
  750MOL0     H 1235   5.505  -0.116   6.590  2.4281 -1.2953 -1.9185
  750MOL0     H 1236   7.111   0.647   6.739  1.1745  0.3304 -2.8001
  750MOL0     H 1237   7.344   0.694   6.712 -0.6215 -0.5165  0.6295
  750MOL0     H 1238   7.697   0.892   6.701 -2.7486  0.8795  0.3698
  750MOL0     H 1239   7.939   0.972   6.688  0.7888 -0.1329  1.9142
  750MOL0     H 1240   8.063   1.270   6.952  0.2220  0.5197 -1.3091
  750MOL0     H 1241   8.155   1.139   7.030  1.1842  2.1146  0.1684
  750MOL0     H 1242   8.311   1.282   6.966 -0.1642  1.1419 -0.8541
  750MOL0     H 1243   8.256   1.299   6.794 -1.1464  1.0069  0.6721
  750MOL0     H 1244   8.313   1.054   6.748 -1.5614  1.8373 -0.2537
  750MOL0     H 1245   8.341   1.044   6.919  0.0912  0.7539  0.4505
  750MOL0     H 1246   8.569   1.078   6.780  0.8240  0.4689  1.9315
  750MOL0     H 1247   8.528   1.172   6.926 -2.3789 -2.3106  1.7471
  750MOL0     H 1248   8.571   1.453   6.599  3.6714 -0.7895 -1.7112
  750MOL0     H 1249   7.923   1.116   7.076 -1.2114  1.7762 -0.5060
  750MOL0     H 1250   7.685   1.052   7.104 -2.1756  3.1289 -1.8456
  751MOL0     O 1251   9.008   3.811   7.949  0.4945  0.2619  0.3064
  751MOL0     C 1252   9.051   3.697   7.940  1.4565  0.2553 -0.2664
  751MOL0     O 1253   8.972   3.580   7.943  0.1816 -0.0006 -0.0395
  751MOL0     C 1254   8.846   3.598   8.000  0.5819  0.2221 -0.2752
  751MOL0     C 1255   8.828   3.654   8.124 -0.7406  0.0073 -1.4673
  751MOL0     C 1256   8.701   3.652   8.194  1.1208 -0.3240  1.3466
  751MOL0     C 1257   8.596   3.592   8.125  0.1817  0.5831  0.1052
  751MOL0     O 1258   8.469   3.620   8.174  0.0163 -0.4871  0.4207
  751MOL0     C 1259   8.344   3.603   8.099  0.0206 -0.7562 -0.2102
  751MOL0     C 1260   8.235   3.661   8.182  0.4176 -0.2023  0.1715
  751MOL0     C 1261   8.094   3.639   8.126 -0.1733  0.6060 -0.1374
  751MOL0     C 1262   7.993   3.713   8.219  0.0705  0.6328 -0.2582
  751MOL0     C 1263   7.856   3.635   8.214  0.1793  0.0379 -0.2872
  751MOL0     C 1264   7.764   3.701   8.315 -0.0777  0.6079 -0.1796
  751MOL0     C 1265   7.618   3.649   8.312  0.1350  0.2075 -0.2939
  751MOL0     C 1266   7.553   3.665   8.178  0.1052 -0.1182 -0.4617
  751MOL0     N 1267   7.421   3.610   8.197  0.7267  0.0906  0.4402
  751MOL0     C 1268   7.312   3.686   8.232  0.2829 -0.1618  1.0303
  751MOL0     C 1269   7.212   3.601   8.213  0.0256 -0.7260  0.3012
  751MOL0     C 1270   7.070   3.642   8.210  0.5004 -0.3571 -0.4634
  751MOL0     C 1271   6.988   3.535   8.293 -0.2475  1.0385  0.0953
  751MOL0     C 1272   6.838   3.566   8.263  0.4772  0.4617 -0.0526
  751MOL0     C 1273   6.738   3.464   8.319  0.6329  0.2997 -0.1542
  751MOL0     O 1274   6.606   3.465   8.257  0.2200 -0.5063 -0.6751
  751MOL0     C 1275   6.520   3.559   8.307 -0.8027  0.2017 -0.3765
  751MOL0     C 1276   6.396   3.535   8.250  0.0638 -0.0445 -0.0771
  751MOL0     C 1277   6.286   3.600   8.291  0.8991  0.4249  0.7220
  751MOL0     C 1278   6.159   3.569   8.213 -0.0938 -0.2017 -0.3990
  751MOL0     C 1279   6.288   3.697   8.396  0.2349 -1.0990  0.8890
  751MOL0     C 1280   6.170   3.763   8.456 -0.0006 -0.0940  0.0020
  751MOL0     O 1281   6.063   3.694   8.452 -0.0438  0.7566 -0.0598
  751MOL0     C 1282   5.954   3.756   8.503 -0.6041  0.7005  0.0989
  751MOL0     C 1283   5.891   3.719   8.623  0.8492 -0.9461  0.0181
  751MOL0     C 1284   5.760   3.769   8.658 -0.3407 -0.1673 -0.0752
  751MOL0     C 1285   5.684   3.855   8.575 -0.5321  0.3917  0.3360
  751MOL0     O 1286   5.554   3.899   8.607  0.5446  0.0577  0.5056
  751MOL0     C 1287   5.498   3.863   8.734  0.3697 -0.5802 -0.2076
  751MOL0     C 1288   5.358   3.918   8.755 -0.1412 -1.4827  0.0372
  751MOL0     C 1289   5.260   3.900   8.637 -0.3135 -0.3801 -0.0937
  751MOL0     C 1290   5.116   3.958   8.663  0.0960 -0.2526  0.2080
  751MOL0     C 1291   5.029   3.869   8.750 -0.0018 -0.1222  0.5439
  751MOL0     C 1292   4.912   3.950   8.791  0.5166  0.2685  0.4439
  751MOL0     C 1293   4.803   3.861   8.845  0.4729  0.3518  0.5870
  751MOL0     C 1294   4.687   3.946   8.907 -0.0353  0.3006  0.0113
  751MOL0    Cl 1295   4.600   3.842   9.034  0.0401  0.0165  0.3355
  751MOL0     C 1296   5.748   3.890   8.459  0.5643 -0.0429 -0.6852
  751MOL0     C 1297   5.881   3.857   8.434  0.3138 -0.2940  0.0510
  751MOL0     O 1298   6.180   3.871   8.516  0.0193  0.2403  0.2901
  751MOL0     C 1299   6.418   3.729   8.441  0.1500  0.1040 -0.9958
  751MOL0     C 1300   6.535   3.662   8.407 -0.8472  0.2593 -0.4781
  751MOL0     N 1301   7.265   3.481   8.166  0.0291 -0.1507  0.1212
  751MOL0     N 1302   7.388   3.489   8.153  0.4149 -0.7772 -0.4552
  751MOL0     C 1303   8.621   3.531   8.001 -0.3506  0.7971  0.6822
  751MOL0     C 1304   8.745   3.531   7.932  0.5641  0.3883 -0.3324
  751MOL0     C 1305   9.192   3.669   7.920 -0.1912  0.6134  0.1425
  751MOL0     C 1306   9.272   3.779   7.885 -0.5587 -0.0314  0.8236
  751MOL0     C 1307   9.399   3.750   7.844  0.6764  0.2674 -0.5376
  751MOL0     C 1308   9.445   3.621   7.846  0.2398  0.4461  0.4939
  751MOL0     O 1309   9.563   3.591   7.791 -0.1106  0.0265  1.0482
  751MOL0     C 1310   9.578   3.619   7.652 -0.4062 -0.1113  1.0720
  751MOL0     C 1311   9.682   3.721   7.610  0.3136  0.8727  0.2786
  751MOL0     C 1312   9.834   3.680   7.636 -0.0067 -0.0855  0.1239
  751MOL0     C 1313   9.905   3.604   7.524 -0.5742 -0.0859  0.0748
  751MOL0     C 1314   9.952   3.700   7.421  0.0784  0.6461  0.2424
  751MOL0     C 1315   9.989   3.778   7.340  0.8625 -0.3749  1.0939
  751MOL0     C 1316   9.372   3.510   7.896  0.0046 -0.7559 -0.1164
  751MOL0     C 1317   9.249   3.534   7.936  0.3275 -0.2033  0.1293
  751MOL0     H 1318   8.917   3.684   8.178 -2.8726 -1.1957  3.2518
  751MOL0     H 1319   8.693   3.685   8.297 -0.4183 -0.6799  1.3772
  751MOL0     H 1320   8.342   3.646   7.998 -0.8229  0.2797  0.2266
  751MOL0     H 1321   8.324   3.497   8.084  1.7042 -0.7165 -3.8357
  751MOL0     H 1322   8.236   3.612   8.279 -1.6104  0.5803  0.6264
  751MOL0     H 1323   8.262   3.767   8.183  0.2620 -0.1644  0.4640
  751MOL0     H 1324   8.088   3.680   8.025 -2.6621  2.1397  0.5339
  751MOL0     H 1325   8.066   3.534   8.123  0.7516  0.2484  1.9443
  751MOL0     H 1326   8.035   3.717   8.320 -0.2095 -0.9386 -0.0574
  751MOL0     H 1327   7.977   3.818   8.196  1.4651  0.6781 -1.1565
  751MOL0     H 1328   7.821   3.638   8.110 -0.4650  0.3450 -0.0627
  751MOL0     H 1329   7.878   3.531   8.241  3.0896  0.3612 -1.0774
  751MOL0     H 1330   7.800   3.697   8.418 -1.6461 -0.3791  0.3680
  751MOL0     H 1331   7.758   3.809   8.300 -1.4209  0.7978  1.3936
  751MOL0     H 1332   7.630   3.543   8.338  1.5330  0.3441 -0.3179
  751MOL0     H 1333   7.553   3.695   8.386 -0.1199 -0.2174 -0.2491
  751MOL0     H 1334   7.601   3.607   8.098  0.9392 -1.1033  0.7256
  751MOL0     H 1335   7.568   3.763   8.131  1.2948  0.7840  1.6539
  751MOL0     H 1336   7.315   3.786   8.274  2.6446 -0.2083  1.0964
  751MOL0     H 1337   7.062   3.744   8.249 -1.5594 -1.0836  1.2111
  751MOL0     H 1338   7.022   3.637   8.111 -4.0047 -0.4754  1.4667
  751MOL0     H 1339   7.009   3.542   8.400  0.7763 -2.8933  0.3203
  751MOL0     H 1340   7.020   3.437   8.256 -2.2194 -0.0434  1.0654
  751MOL0     H 1341   6.825   3.560   8.155 -0.3882 -0.2703  0.0830
  751MOL0     H 1342   6.808   3.667   8.293 -1.9103  0.2975 -1.5841
  751MOL0     H 1343   6.729   3.466   8.428 -2.1001 -0.7973 -0.2658
  751MOL0     H 1344   6.784   3.367   8.294 -0.8858  0.2587 -3.3873
  751MOL0     H 1345   6.395   3.455   8.176  0.4869 -0.9392  0.8581
  751MOL0     H 1346   6.083   3.645   8.234 -1.4388 -1.4540 -0.5731
  751MOL0     H 1347   6.179   3.570   8.105  1.5032  0.6664 -0.1341
  751MOL0     H 1348   6.125   3.467   8.234  0.3627 -0.1025  0.9000
  751MOL0     H 1349   5.937   3.653   8.696  3.4062  0.4966 -0.1642
  751MOL0     H 1350   5.716   3.719   8.744  1.4627 -4.4130 -1.3272
  751MOL0     H 1351   5.481   3.755   8.738 -0.7657 -0.3704  2.1653
  751MOL0     H 1352   5.569   3.873   8.816  0.3918 -2.9191  0.1465
  751MOL0     H 1353   5.324   3.866   8.846 -3.0903 -0.2635 -0.2446
  751MOL0     H 1354   5.363   4.026   8.773 -1.3148 -1.1259 -1.5781
  751MOL0     H 1355   5.252   3.795   8.608 -0.3319 -1.4136  3.2464
  751MOL0     H 1356   5.300   3.948   8.547  1.0508 -2.8554 -0.9267
  751MOL0     H 1357   5.122   4.061   8.699 -1.3375  0.4926 -1.5491
  751MOL0     H 1358   5.063   3.961   8.568 -0.6404 -3.0446  0.4439
  751MOL0     H 1359   5.087   3.846   8.839 -3.6186 -0.4484  3.0390
  751MOL0     H 1360   4.995   3.773   8.709  0.6770 -1.4989  3.0160
  751MOL0     H 1361   4.958   4.025   8.855 -0.8952  0.9907  0.6472
  751MOL0     H 1362   4.874   4.009   8.707  0.9876 -1.3978 -1.0209
  751MOL0     H 1363   4.840   3.811   8.935  0.2704  1.1606  1.1238
  751MOL0     H 1364   4.763   3.795   8.768  0.6353  2.6942 -1.6471
  751MOL0     H 1365   4.622   3.989   8.831  1.6963 -0.0506 -1.7584
  751MOL0     H 1366   4.723   4.034   8.960 -1.5645 -0.9067  3.3694
  751MOL0     H 1367   5.693   3.955   8.392 -1.5714 -1.8079 -0.7485
  751MOL0     H 1368   5.921   3.889   8.338  0.5923  1.5154  0.7451
  751MOL0     H 1369   6.423   3.805   8.519 -1.8533 -1.2608  0.5499
  751MOL0     H 1370   6.625   3.694   8.459 -1.0472 -2.2183  1.5956
  751MOL0     H 1371   8.535   3.485   7.953 -0.6899  2.1323 -0.0277
  751MOL0     H 1372   8.757   3.487   7.834  0.7647 -0.8591  0.2301
  751MOL0     H 1373   9.235   3.877   7.856 -0.1924 -0.1344 -0.0310
  751MOL0     H 1374   9.461   3.832   7.807 -0.7421  0.8533 -1.7558
  751MOL0     H 1375   9.594   3.524   7.600 -1.4601  0.4707 -0.3624
  751MOL0     H 1376   9.483   3.665   7.624 -0.3862 -0.3621  0.5752
  751MOL0     H 1377   9.659   3.812   7.667  1.0649  0.5794  1.0626
  751MOL0     H 1378   9.675   3.750   7.505  0.1827  2.2501  0.6445
  751MOL0     H 1379   9.840   3.608   7.718  4.2520 -1.0048 -0.7634
  751MOL0     H 1380   9.902   3.758   7.671 -0.6291 -0.0958  1.4434
  751MOL0     H 1381   9.846   3.520   7.486 -0.0323 -1.5375  2.2170
  751MOL0     H 1382   9.989   3.553   7.572 -1.3802 -0.0449  1.5922
  751MOL0     H 1383  10.021   3.854   7.271  2.9255  0.8533  3.2449
  751MOL0     H 1384   9.422   3.414   7.886 -0.5980 -0.8973 -2.2118
  751MOL0     H 1385   9.187   3.452   7.972 -0.9603  0.2805 -0.8919
  752MOL0     O 1386   2.221   9.901   4.087 -0.2827  0.6702  0.3409
  752MOL0     C 1387   2.285   9.821   4.020 -0.3818  0.0165 -0.3455
  752MOL0     O 1388   2.230   9.742   3.918 -0.1311 -0.0318  0.4617
  752MOL0     C 1389   2.094   9.757   3.899 -0.1393 -0.5558  0.2193
  752MOL0     C 1390   2.000   9.694   3.983 -0.6058  0.4638  0.3010
  752MOL0     C 1391   1.864   9.716   3.957  0.0273 -1.5972  0.3546
  752MOL0     C 1392   1.824   9.801   3.847 -0.1758 -0.2717  0.3523
  752MOL0     O 1393   1.699   9.850   3.828 -0.5506  0.0236 -0.2119
  752MOL0     C 1394   1.577   9.784   3.876  0.4444 -0.5151 -0.1953
  752MOL0     C 1395   1.457   9.883   3.882 -0.8921  0.0075 -0.3241
  752MOL0     C 1396   1.429   9.936   3.743 -0.3130  0.1774  0.2239
  752MOL0     C 1397   1.401  10.084   3.750  0.5273 -0.4403 -0.4211
  752MOL0     C 1398   1.351  10.145   3.621 -0.0220  0.0896  0.0871
  752MOL0     C 1399   1.213  10.100   3.586  0.7455  0.6220 -0.2539
  752MOL0     C 1400   1.153  10.148   3.454  0.1136  0.9805 -0.3057
  752MOL0     C 1401   1.007  10.097   3.442 -1.7361  0.6172 -0.0294
  752MOL0     N 1402   0.920  10.180   3.361 -0.3507  0.3081  0.5316
  752MOL0     C 1403   0.841  10.137   3.254  0.7154  0.3587 -0.9438
  752MOL0     C 1404   0.764  10.242   3.218 -0.2835 -0.6607 -0.0024
  752MOL0     C 1405   0.685  10.254   3.093  0.2096  0.0168 -0.5087
  752MOL0     C 1406   0.728  10.359   2.994  0.1549  0.0137  0.0218
  752MOL0     C 1407   0.836  10.305   2.898 -0.5142 -0.2483 -0.1238
  752MOL0     C 1408   0.859  10.406   2.789 -0.1367 -0.4098  0.4438
  752MOL0     O 1409   0.755  10.397   2.690  0.1863 -0.0098  0.0384
  752MOL0     C 1410   0.760  10.312   2.590 -0.0463  0.5179  0.8164
  752MOL0     C 1411   0.643  10.285   2.511  1.0022 -0.0312  0.5879
  752MOL0     C 1412   0.644  10.199   2.396  0.0463 -0.3130 -0.0968
  752MOL0     C 1413   0.511  10.205   2.320 -0.8711 -0.6267 -0.2061
  752MOL0     C 1414   0.760  10.130   2.367  0.0659 -0.1527 -0.1972
  752MOL0     C 1415   0.793  10.049   2.244 -0.3108  0.1988  0.1422
  752MOL0     O 1416   0.775  10.088   2.122 -0.1411 -1.6178 -0.4358
  752MOL0     C 1417   0.741  10.010   2.017  0.0598  0.7768  0.3118
  752MOL0     C 1418   0.660   9.896   2.022  0.1334 -0.2575 -0.2507
  752MOL0     C 1419   0.630   9.825   1.899  0.2351  0.1597  0.7747
  752MOL0     C 1420   0.692   9.870   1.782  0.2810  0.4316  0.1023
  752MOL0     O 1421   0.669   9.785   1.677 -0.2220  0.1314 -0.2362
  752MOL0     C 1422   0.705   9.823   1.550 -0.7268 -0.6645  0.3901
  752MOL0     C 1423   0.622   9.753   1.443  0.2521  0.0602 -0.3299
  752MOL0     C 1424   0.474   9.774   1.475 -0.3144  0.0633  0.8109
  752MOL0     C 1425   0.381   9.739   1.359 -0.4281 -0.6552 -0.0471
  752MOL0     C 1426   0.237   9.735   1.412  0.0995  0.5865  0.4102
  752MOL0     C 1427   0.141   9.727   1.290  0.4270 -0.1356  0.3491
  752MOL0     C 1428   0.129   9.588   1.237  0.1266  0.6641  0.3712
  752MOL0     C 1429   0.003   9.546   1.158 -0.5788 -1.2746 -0.2273
  752MOL0    Cl 1430  -0.136   9.522   1.275 -0.2804 -0.1807 -0.2806
  752MOL0     C 1431   0.775   9.979   1.784  0.0636 -0.2789  0.0393
  752MOL0     C 1432   0.800  10.050   1.898 -0.4659  0.2475  0.1078
  752MOL0     O 1433   0.840   9.946   2.281 -0.1078  0.6681  0.2084
  752MOL0     C 1434   0.875  10.165   2.446  0.2757 -0.2325  0.3523
  752MOL0     C 1435   0.880  10.255   2.552  0.5596 -0.1091  0.3659
  752MOL0     N 1436   0.793  10.348   3.309  1.2243  0.1697  0.3061
  752MOL0     N 1437   0.884  10.305   3.389 -0.8217  0.0146  0.6069
  752MOL0     C 1438   1.919   9.865   3.775 -0.4644  0.0557 -0.2053
  752MOL0     C 1439   2.053   9.844   3.794  0.1142 -0.1386 -0.3590
  752MOL0     C 1440   2.425   9.797   4.061  0.4175  0.8272  0.2326
  752MOL0     C 1441   2.496   9.697   3.998 -0.1414  1.0279  0.3302
  752MOL0     C 1442   2.625   9.668   4.036  0.3896 -0.0486 -0.0415
  752MOL0     C 1443   2.693   9.732   4.143  0.2771 -0.1929 -0.6364
  752MOL0     O 1444   2.815   9.701   4.190  0.9090  0.2434  0.3883
  752MOL0     C 1445   2.904   9.801   4.237  0.9629  0.2805  0.1413
  752MOL0     C 1446   2.957   9.750   4.366  0.1306 -0.5169 -0.1941
  752MOL0     C 1447   2.847   9.746   4.469  0.3876  0.7224  0.5936
  752MOL0     C 1448   2.894   9.674   4.596  0.1279  0.2536 -0.0277
  752MOL0     C 1449   2.955   9.753   4.705 -0.2321  0.4638  0.0299
  752MOL0     C 1450   2.995   9.826   4.796 -0.1386  0.1641 -0.2795
  752MOL0     C 1451   2.614   9.832   4.205  0.7289 -0.3393  0.8489
  752MOL0     C 1452   2.481   9.875   4.162  0.0234  0.6603 -0.0443
  752MOL0     H 1453   2.039   9.619   4.051  0.6934 -1.0586 -2.0005
  752MOL0     H 1454   1.785   9.684   4.024  0.8219  0.7079  2.5785
  752MOL0     H 1455   1.552   9.701   3.809 -0.5972  0.5116 -1.1238
  752MOL0     H 1456   1.599   9.749   3.978 -0.3228  0.5260  0.3394
  752MOL0     H 1457   1.372   9.819   3.909  0.0317  0.1369  3.3742
  752MOL0     H 1458   1.476   9.968   3.948 -0.8098  0.8653 -1.4203
  752MOL0     H 1459   1.507   9.918   3.667 -0.7177 -0.8136  0.0243
  752MOL0     H 1460   1.347   9.873   3.706 -1.3224  0.2955  2.1706
  752MOL0     H 1461   1.337  10.109   3.835  1.1090 -2.9239  0.8430
  752MOL0     H 1462   1.498  10.131   3.771  1.1154 -1.9652  0.4358
  752MOL0     H 1463   1.352  10.254   3.621  1.0943  0.0864 -0.3016
  752MOL0     H 1464   1.415  10.118   3.537 -0.5405  0.9241 -0.5916
  752MOL0     H 1465   1.213   9.991   3.586  4.2546  0.5281 -0.0815
  752MOL0     H 1466   1.144  10.127   3.667  0.8060 -0.8080  0.2989
  752MOL0     H 1467   1.160  10.257   3.451 -1.9147  1.1548 -0.0620
  752MOL0     H 1468   1.218  10.114   3.373  3.0248  2.7760  1.1169
  752MOL0     H 1469   0.968  10.078   3.543 -0.0534 -2.9250  0.1076
  752MOL0     H 1470   1.007   9.999   3.394 -0.9070 -0.0703  1.2871
  752MOL0     H 1471   0.856  10.040   3.208  1.0345 -0.5040  0.8965
  752MOL0     H 1472   0.673  10.158   3.042 -3.5312  0.5815 -1.0289
  752MOL0     H 1473   0.581  10.278   3.118  0.1273 -1.2665  0.4826
  752MOL0     H 1474   0.743  10.454   3.047  0.8644  0.8079 -1.5385
  752MOL0     H 1475   0.643  10.377   2.928  0.2418  0.6514  0.0778
  752MOL0     H 1476   0.797  10.213   2.853 -1.6918  0.7779 -1.2459
  752MOL0     H 1477   0.924  10.282   2.959 -1.0431 -2.7124 -0.1851
  752MOL0     H 1478   0.961  10.402   2.749 -1.0470 -0.3667 -2.0069
  752MOL0     H 1479   0.852  10.504   2.837  0.8606  0.7899 -1.7185
  752MOL0     H 1480   0.550  10.323   2.553  0.5594 -0.0676 -0.3327
  752MOL0     H 1481   0.424  10.210   2.386 -0.4451  0.9147  0.2856
  752MOL0     H 1482   0.514  10.299   2.264 -2.8023 -1.0063 -0.9993
  752MOL0     H 1483   0.494  10.118   2.257 -2.3999 -0.5450  0.0708
  752MOL0     H 1484   0.609   9.870   2.114  1.9281 -1.2537  0.5156
  752MOL0     H 1485   0.569   9.735   1.898  0.6253 -0.1093 -0.3671
  752MOL0     H 1486   0.677   9.926   1.525 -0.5411 -0.7142 -0.0387
  752MOL0     H 1487   0.814   9.814   1.542 -0.6885 -1.3083  1.4364
  752MOL0     H 1488   0.645   9.795   1.345 -0.0892  1.5090  0.1900
  752MOL0     H 1489   0.658   9.649   1.445  1.1047  0.3470  0.4394
  752MOL0     H 1490   0.442   9.870   1.517 -2.9896 -0.5095  0.3084
  752MOL0     H 1491   0.458   9.706   1.559 -1.8655 -2.4329 -1.3513
  752MOL0     H 1492   0.381   9.815   1.280 -2.9015  4.1452  4.0142
  752MOL0     H 1493   0.405   9.638   1.323 -2.0633 -1.4729  1.0489
  752MOL0     H 1494   0.232   9.836   1.452  3.8776  0.4324  1.6701
  752MOL0     H 1495   0.227   9.661   1.492  2.6286  0.9554  1.1653
  752MOL0     H 1496   0.045   9.779   1.301  0.7101  0.7934 -1.1607
  752MOL0     H 1497   0.190   9.791   1.216  0.5872  0.6544  1.1213
  752MOL0     H 1498   0.134   9.516   1.319 -0.0215  0.9503  0.6341
  752MOL0     H 1499   0.220   9.581   1.177 -0.2372 -1.4315 -0.0094
  752MOL0     H 1500   0.026   9.452   1.107  0.8185 -1.3799  0.5364
  752MOL0     H 1501  -0.016   9.620   1.080  0.3239  0.0896  0.8015
  752MOL0     H 1502   0.828  10.006   1.694  0.8643  0.2081  0.6373
  752MOL0     H 1503   0.870  10.132   1.903 -1.3413  1.0791 -0.8829
  752MOL0     H 1504   0.973  10.144   2.404  0.2663 -1.9406  1.0858
  752MOL0     H 1505   0.976  10.287   2.592 -1.4485  3.7334  2.7673
  752MOL0     H 1506   1.884   9.941   3.705 -0.0830  0.7847  0.3835
  752MOL0     H 1507   2.133   9.900   3.746  1.8200 -0.6931  1.6811
  752MOL0     H 1508   2.452   9.652   3.910  1.0867  1.3638 -0.4798
  752MOL0     H 1509   2.691   9.593   3.994  0.7579  1.0889 -1.5606
  752MOL0     H 1510   2.984   9.806   4.161  0.1979  1.0134 -0.6397
  752MOL0     H 1511   2.868   9.904   4.237 -2.4803 -0.7441 -2.1737
  752MOL0     H 1512   3.028   9.825   4.402  1.1403 -0.0625 -2.8664
  752MOL0     H 1513   3.004   9.655   4.336  0.9983  0.4766 -2.2002
  752MOL0     H 1514   2.773   9.678   4.426  0.1415  0.5872  1.2230
  752MOL0     H 1515   2.800   9.844   4.486 -0.0993  0.1651  2.8248
  752MOL0     H 1516   2.949   9.582   4.572  0.8108  0.2479  1.4630
  752MOL0     H 1517   2.803   9.630   4.638  1.3145 -1.0119  1.3426
  752MOL0     H 1518   3.016   9.892   4.877 -2.2826 -0.6129  0.9956
  752MOL0     H 1519   2.655   9.876   4.295  1.7733 -0.2205  0.3297
  752MOL0     H 1520   2.436   9.957   4.218 -2.4309  1.4577 -2.8920
  753MOL0     O 1521   7.080   8.148   3.832  0.2699  0.7419  1.1959
  753MOL0     C 1522   7.080   8.026   3.807  0.4903  0.0629 -0.3587
  753MOL0     O 1523   6.989   7.931   3.847 -0.0448  0.9850 -0.6536
  753MOL0     C 1524   6.860   7.957   3.878 -1.1210 -0.3497 -0.7421
  753MOL0     C 1525   6.799   8.080   3.875 -0.0036  0.1133 -0.0522
  753MOL0     C 1526   6.663   8.097   3.914  0.5401  0.2930 -0.2676
  753MOL0     C 1527   6.588   7.983   3.969 -0.0887 -1.0821  0.2584
  753MOL0     O 1528   6.460   7.976   4.018  0.3058 -0.2479  0.4703
  753MOL0     C 1529   6.402   8.097   4.062  0.1556 -0.8810 -0.1751
  753MOL0     C 1530   6.342   8.071   4.196 -0.4857  0.2726 -0.5456
  753MOL0     C 1531   6.283   8.200   4.255 -0.3452  0.5287  0.5862
  753MOL0     C 1532   6.184   8.177   4.366 -1.0501  1.2584 -0.0342
  753MOL0     C 1533   6.163   8.311   4.444  0.2054 -0.0578  1.0895
  753MOL0     C 1534   6.037   8.313   4.530 -0.0880 -0.3470  0.3916
  753MOL0     C 1535   6.040   8.209   4.651  0.4049  0.7907  0.9898
  753MOL0     C 1536   5.918   8.216   4.744  0.8014  0.7297  0.6156
  753MOL0     N 1537   5.945   8.316   4.846  0.8690 -0.2168  0.3970
  753MOL0     C 1538   5.857   8.417   4.862  0.2629  0.3559 -0.8521
  753MOL0     C 1539   5.868   8.462   4.985 -0.2051 -0.4662  0.5903
  753MOL0     C 1540   5.805   8.575   5.053  0.5399 -0.5236  0.3808
  753MOL0     C 1541   5.716   8.673   4.972 -0.3026 -0.6792 -0.4818
  753MOL0     C 1542   5.582   8.603   4.955  1.2943 -0.0240 -0.5543
  753MOL0     C 1543   5.482   8.629   5.068 -0.4890  0.0245 -0.0081
  753MOL0     O 1544   5.386   8.522   5.066  0.5320  0.7893 -0.4166
  753MOL0     C 1545   5.298   8.510   5.178  0.1851  0.5520  0.5295
  753MOL0     C 1546   5.267   8.612   5.266  0.1506 -0.1708 -0.1972
  753MOL0     C 1547   5.186   8.598   5.371  1.0384  1.1048  0.2942
  753MOL0     C 1548   5.164   8.723   5.449 -0.3269  0.1375 -0.5362
  753MOL0     C 1549   5.117   8.475   5.388 -0.2024  0.7018 -0.2309
  753MOL0     C 1550   5.014   8.464   5.491  0.1083 -0.4671  0.2669
  753MOL0     O 1551   4.993   8.341   5.529 -0.3901 -0.1688 -0.1417
  753MOL0     C 1552   4.894   8.290   5.613 -0.8437  0.0893 -0.6947
  753MOL0     C 1553   4.903   8.161   5.668 -0.0340 -0.5205  0.2626
  753MOL0     C 1554   4.795   8.112   5.744 -0.5812 -0.6875  0.1343
  753MOL0     C 1555   4.676   8.187   5.773  0.6789  0.3742  0.0740
  753MOL0     O 1556   4.587   8.134   5.868  0.5915  0.3179 -0.3939
  753MOL0     C 1557   4.467   8.209   5.903  0.4785 -0.4245 -0.1282
  753MOL0     C 1558   4.402   8.136   6.023 -0.3005 -0.3311 -0.6465
  753MOL0     C 1559   4.286   8.211   6.083 -0.6844 -0.5153  0.2610
  753MOL0     C 1560   4.201   8.129   6.162  0.2576  1.1494 -0.2224
  753MOL0     C 1561   4.085   8.215   6.224 -0.4247  0.0461  0.7973
  753MOL0     C 1562   3.988   8.142   6.313 -0.3241  0.2200  0.0717
  753MOL0     C 1563   3.906   8.220   6.413 -0.9451  0.3808  0.2932
  753MOL0     C 1564   3.762   8.184   6.406  0.6392 -0.3229  0.7915
  753MOL0    Cl 1565   3.707   8.231   6.243 -0.2032  0.3453  0.0919
  753MOL0     C 1566   4.665   8.313   5.718 -0.7535 -0.6115 -0.9098
  753MOL0     C 1567   4.772   8.361   5.637 -0.3174 -0.6291  0.8134
  753MOL0     O 1568   4.942   8.559   5.527  0.0012 -0.1869  0.2396
  753MOL0     C 1569   5.154   8.371   5.303 -0.1252 -0.0871 -0.2590
  753MOL0     C 1570   5.240   8.383   5.192  0.4988 -0.0292 -0.0806
  753MOL0     N 1571   5.962   8.386   5.046  0.5224 -0.6380  1.4643
  753MOL0     N 1572   6.006   8.297   4.961  0.2353  0.3003 -1.2138
  753MOL0     C 1573   6.645   7.862   3.968  0.5962  0.3666 -0.2432
  753MOL0     C 1574   6.776   7.850   3.913  0.1268 -0.0503  0.0752
  753MOL0     C 1575   7.207   7.975   3.756  0.4357 -0.1030  0.2821
  753MOL0     C 1576   7.233   7.837   3.778 -0.8578 -1.2645  0.7743
  753MOL0     C 1577   7.354   7.782   3.729  0.1094  0.5241  0.1373
  753MOL0     C 1578   7.452   7.861   3.670  0.3404  0.5516  0.1317
  753MOL0     O 1579   7.565   7.817   3.614  0.6774 -0.1161 -0.7174
  753MOL0     C 1580   7.598   7.675   3.613  0.5581  0.9979 -0.3619
  753MOL0     C 1581   7.497   7.581   3.531 -0.3580 -0.2639  0.3617
  753MOL0     C 1582   7.560   7.445   3.501 -0.5560  0.3796 -0.2011
  753MOL0     C 1583   7.472   7.339   3.431 -0.1676 -0.4092  0.1903
  753MOL0     C 1584   7.561   7.238   3.392 -0.1930  0.6660 -0.1676
  753MOL0     C 1585   7.642   7.157   3.353  0.3477  0.6329  0.5695
  753MOL0     C 1586   7.423   7.991   3.645  0.3429 -0.0093 -0.4201
  753MOL0     C 1587   7.301   8.045   3.681  0.0161  0.4165  0.6559
  753MOL0     H 1588   6.850   8.175   3.860 -0.3827  0.2702 -0.3451
  753MOL0     H 1589   6.610   8.191   3.919 -0.0598 -0.1024  1.2304
  753MOL0     H 1590   6.465   8.185   4.082 -1.1955 -0.1490  1.0804
  753MOL0     H 1591   6.321   8.108   3.989  1.3557  1.2754 -1.2894
  753MOL0     H 1592   6.261   7.997   4.189 -1.9859  1.3184  3.2416
  753MOL0     H 1593   6.412   8.031   4.270 -1.0106  1.2747  0.5239
  753MOL0     H 1594   6.366   8.265   4.284  1.7218 -0.6844 -2.1534
  753MOL0     H 1595   6.226   8.249   4.175  1.6753 -0.8463 -1.8237
  753MOL0     H 1596   6.091   8.143   4.321 -1.4819 -0.0316  1.7157
  753MOL0     H 1597   6.214   8.097   4.435 -1.7217  1.2532  0.2555
  753MOL0     H 1598   6.250   8.335   4.506  1.2430  4.5268 -1.6980
  753MOL0     H 1599   6.146   8.387   4.367  0.4033 -0.8458  0.2706
  753MOL0     H 1600   6.032   8.416   4.567  0.3040 -0.4847  0.8369
  753MOL0     H 1601   5.957   8.292   4.458  0.9485 -0.5310 -0.7218
  753MOL0     H 1602   6.040   8.111   4.602  0.7341  1.1327  0.2838
  753MOL0     H 1603   6.136   8.216   4.704  0.3038  2.0764  1.0461
  753MOL0     H 1604   5.894   8.125   4.798 -1.7800  1.5873  1.0158
  753MOL0     H 1605   5.827   8.231   4.686  1.4367  2.4033 -0.0216
  753MOL0     H 1606   5.782   8.460   4.796 -0.4452  0.2139 -0.1540
  753MOL0     H 1607   5.756   8.542   5.145 -0.6846 -2.0961 -0.7804
  753MOL0     H 1608   5.880   8.640   5.099 -0.3672  2.2618 -1.7355
  753MOL0     H 1609   5.762   8.687   4.874  1.0328 -2.5429 -0.1680
  753MOL0     H 1610   5.701   8.765   5.030 -0.2532 -0.7444 -0.3672
  753MOL0     H 1611   5.602   8.499   4.930  1.1008  0.8228 -5.1792
  753MOL0     H 1612   5.529   8.625   4.861 -0.5911 -1.4484  0.1174
  753MOL0     H 1613   5.432   8.722   5.041 -1.0274 -0.4278 -0.5962
  753MOL0     H 1614   5.520   8.637   5.170 -0.5203 -0.9488  0.0913
  753MOL0     H 1615   5.313   8.706   5.238  0.7100 -0.7910 -1.4694
  753MOL0     H 1616   5.090   8.795   5.412  0.8944  1.8108  0.1335
  753MOL0     H 1617   5.132   8.693   5.549 -2.2797  1.3546 -0.7503
  753MOL0     H 1618   5.255   8.783   5.461  0.7590 -0.9833 -2.5483
  753MOL0     H 1619   4.997   8.106   5.660 -0.1195 -0.6925  0.4212
  753MOL0     H 1620   4.820   8.026   5.805 -1.2061  0.6483  2.3736
  753MOL0     H 1621   4.496   8.308   5.940 -0.4595 -0.0871 -0.2673
  753MOL0     H 1622   4.381   8.231   5.838 -0.5027  0.2967  1.3556
  753MOL0     H 1623   4.375   8.035   5.990  0.0656 -0.6894  0.1244
  753MOL0     H 1624   4.479   8.129   6.101 -1.9062 -0.1645  1.0414
  753MOL0     H 1625   4.232   8.245   5.994 -1.1855 -3.8098 -0.8311
  753MOL0     H 1626   4.324   8.295   6.142 -1.9422  0.8632 -0.7977
  753MOL0     H 1627   4.160   8.049   6.099  1.1408  1.1925 -0.8746
  753MOL0     H 1628   4.252   8.080   6.245  0.5308  1.3524 -0.2683
  753MOL0     H 1629   4.040   8.269   6.140  2.0102 -1.6183 -1.7757
  753MOL0     H 1630   4.135   8.292   6.283  0.0621  1.1339 -0.9638
  753MOL0     H 1631   3.927   8.076   6.252  0.9093  0.3125 -1.3101
  753MOL0     H 1632   4.058   8.088   6.378 -0.1635  0.2062 -0.1152
  753MOL0     H 1633   3.921   8.325   6.383  0.8963 -0.1130 -0.6468
  753MOL0     H 1634   3.954   8.208   6.511  1.8284  3.4589 -0.4822
  753MOL0     H 1635   3.706   8.220   6.492  0.0959 -2.9477  1.6450
  753MOL0     H 1636   3.755   8.075   6.414 -0.1360 -0.1863  2.3691
  753MOL0     H 1637   4.599   8.393   5.750 -0.4780 -1.3699  1.8097
  753MOL0     H 1638   4.753   8.452   5.582 -1.3544 -2.2003 -1.5882
  753MOL0     H 1639   5.105   8.275   5.316  0.2531 -0.3924 -1.0344
  753MOL0     H 1640   5.257   8.299   5.126 -1.4135 -2.1849  1.9899
  753MOL0     H 1641   6.588   7.771   3.988  0.3668  0.2610 -1.3017
  753MOL0     H 1642   6.803   7.746   3.896  0.4859 -0.6360  3.5129
  753MOL0     H 1643   7.166   7.765   3.825 -2.1041 -0.0283  0.9323
  753MOL0     H 1644   7.370   7.675   3.738  0.0840  0.3142 -1.8586
  753MOL0     H 1645   7.690   7.660   3.555 -0.2547  1.7458 -1.9225
  753MOL0     H 1646   7.605   7.628   3.711 -0.8368 -0.0157 -0.7152
  753MOL0     H 1647   7.473   7.630   3.436 -0.4289 -1.0390 -0.0205
  753MOL0     H 1648   7.405   7.554   3.582 -0.1430 -2.3247 -0.2598
  753MOL0     H 1649   7.596   7.405   3.596 -1.6534 -2.9815 -1.0498
  753MOL0     H 1650   7.646   7.466   3.437  0.5339 -2.3873  0.2253
  753MOL0     H 1651   7.411   7.384   3.352 -0.1980 -0.3372  0.2546
  753MOL0     H 1652   7.406   7.303   3.510  0.8658 -2.3649  0.2213
  753MOL0     H 1653   7.715   7.084   3.326  0.7798  0.7723  1.3458
  753MOL0     H 1654   7.498   8.055   3.601 -0.7624  1.4728 -0.2277
  753MOL0     H 1655   7.272   8.143   3.644  1.4574 -0.0152 -1.8962
  754MOL0     O 1656   9.796   7.796   1.929 -0.4235  0.0380  0.5737
  754MOL0     C 1657   9.859   7.779   2.029  0.3356  0.1664 -0.0371
  754MOL0     O 1658   9.833   7.682   2.121 -0.2227 -0.0066  0.0851
  754MOL0     C 1659   9.749   7.578   2.086 -0.9325 -1.0478 -0.3735
  754MOL0     C 1660   9.619   7.593   2.037 -0.2087 -1.3290  0.2777
  754MOL0     C 1661   9.543   7.483   1.995 -0.3018  0.1439 -0.3812
  754MOL0     C 1662   9.584   7.353   2.028 -0.3095 -0.1869 -0.0220
  754MOL0     O 1663   9.506   7.249   1.988 -0.0597  0.3814  0.1467
  754MOL0     C 1664   9.427   7.194   2.094  0.3250 -0.2400 -0.2711
  754MOL0     C 1665   9.345   7.068   2.046  0.3663 -0.4365  0.8909
  754MOL0     C 1666   9.267   7.109   1.918 -0.1428  0.5492  0.3365
  754MOL0     C 1667   9.176   6.988   1.878  0.2803  0.6842  0.1005
  754MOL0     C 1668   9.117   6.994   1.730 -0.0938  0.4718 -0.1730
  754MOL0     C 1669   9.002   7.094   1.736 -0.5934 -0.6943  0.3312
  754MOL0     C 1670   8.865   7.043   1.788 -0.1293 -0.2208 -0.4409
  754MOL0     C 1671   8.807   6.911   1.731  0.3209 -0.2972 -0.7156
  754MOL0     N 1672   8.799   6.907   1.586 -0.2225 -0.2684 -0.1372
  754MOL0     C 1673   8.685   6.877   1.510  0.2307  0.2300  0.7099
  754MOL0     C 1674   8.730   6.881   1.383  0.7029  0.4916  0.0439
  754MOL0     C 1675   8.657   6.835   1.259 -0.1780  1.0906 -0.0814
  754MOL0     C 1676   8.710   6.905   1.142 -0.2605 -0.1678  0.8375
  754MOL0     C 1677   8.670   7.056   1.145  0.5251  0.6046  0.6588
  754MOL0     C 1678   8.700   7.119   1.008 -0.1416 -0.1994  0.2075
  754MOL0     O 1679   8.589   7.113   0.929  0.2250 -0.4735  0.4961
  754MOL0     C 1680   8.485   7.202   0.931 -0.5020  0.4896 -1.0789
  754MOL0     C 1681   8.475   7.318   1.012  0.0881  0.6698  0.1170
  754MOL0     C 1682   8.376   7.417   0.997 -0.4464  0.2367 -0.4144
  754MOL0     C 1683   8.389   7.530   1.097  0.5575  0.5665 -0.3827
  754MOL0     C 1684   8.270   7.392   0.911  0.3854 -0.1733 -0.5491
  754MOL0     C 1685   8.152   7.490   0.906  0.3011  0.4066  0.0461
  754MOL0     O 1686   8.087   7.472   0.785 -0.1880 -0.0232 -0.2682
  754MOL0     C 1687   7.983   7.562   0.763  1.0745 -0.2544 -0.0172
  754MOL0     C 1688   7.859   7.554   0.823 -0.7618  1.0192  1.3944
  754MOL0     C 1689   7.758   7.646   0.807  0.4428  0.6768 -0.2932
  754MOL0     C 1690   7.790   7.750   0.730 -0.3216 -0.8748  0.1504
  754MOL0     O 1691   7.717   7.862   0.701  0.1070  0.0918  0.1588
  754MOL0     C 1692   7.581   7.870   0.733 -0.2484 -0.1131  0.1058
  754MOL0     C 1693   7.572   7.928   0.871  0.3179 -0.5563 -0.1917
  754MOL0     C 1694   7.425   7.938   0.922  0.0301 -0.3252 -0.5133
  754MOL0     C 1695   7.357   8.072   0.905 -0.0305  0.0108 -1.2384
  754MOL0     C 1696   7.217   8.080   0.981 -0.0725  0.4877 -1.0079
  754MOL0     C 1697   7.119   8.000   0.908  0.0152 -0.0336 -0.3476
  754MOL0     C 1698   6.984   8.005   0.990  0.4705 -0.3022  0.1867
  754MOL0     C 1699   6.888   7.913   0.919 -0.9680 -0.0401 -0.2834
  754MOL0    Cl 1700   6.725   7.911   0.984 -0.2387  0.1396 -0.0179
  754MOL0     C 1701   7.916   7.760   0.660 -0.0584  0.2416  0.4707
  754MOL0     C 1702   8.016   7.663   0.668 -0.1294 -1.3944 -0.0677
  754MOL0     O 1703   8.109   7.554   1.008 -0.8924  0.3474  0.6361
  754MOL0     C 1704   8.277   7.272   0.835  0.2333  0.8508  0.1717
  754MOL0     C 1705   8.383   7.182   0.841  0.4902  0.1852 -0.2626
  754MOL0     N 1706   8.864   6.915   1.374  0.0962  0.1855  0.2919
  754MOL0     N 1707   8.896   6.930   1.501 -0.4885  1.2645 -0.0236
  754MOL0     C 1708   9.711   7.337   2.085  0.2806 -0.4782  0.3837
  754MOL0     C 1709   9.788   7.449   2.119  0.2286  0.6365  0.4758
  754MOL0     C 1710   9.963   7.872   2.059 -1.0340  0.0345  0.0503
  754MOL0     C 1711  10.001   7.979   1.967  0.2384  0.6312 -0.2106
  754MOL0     C 1712  10.101   8.066   2.003 -0.9743  0.1771 -0.2685
  754MOL0     C 1713  10.169   8.060   2.122  0.7989  0.5856  0.0779
  754MOL0     O 1714  10.270   8.145   2.165  0.1303  0.5534 -0.1399
  754MOL0     C 1715  10.294   8.260   2.093  0.1307 -0.5956 -0.3435
  754MOL0     C 1716  10.414   8.337   2.144  0.0323 -0.0780 -0.1370
  754MOL0     C 1717  10.370   8.420   2.264  0.1161 -0.5564  0.0641
  754MOL0     C 1718  10.495   8.481   2.334  0.0691 -0.3527 -0.3781
  754MOL0     C 1719  10.557   8.387   2.430  0.3503  0.4587  0.4905
  754MOL0     C 1720  10.596   8.310   2.510 -0.4318 -0.3669  0.3809
  754MOL0     C 1721  10.126   7.956   2.216  0.2986 -0.4127  0.9800
  754MOL0     C 1722  10.028   7.871   2.190  0.3731  0.2022  0.4050
  754MOL0     H 1723   9.590   7.694   2.012 -0.5374 -1.7719 -1.1855
  754MOL0     H 1724   9.455   7.510   1.938 -0.5281  1.7766  0.6733
  754MOL0     H 1725   9.488   7.158   2.178  0.9828 -0.6167 -0.8972
  754MOL0     H 1726   9.368   7.267   2.150 -1.0705 -3.3283  2.6905
  754MOL0     H 1727   9.409   6.982   2.024  0.9368 -0.3402  2.0766
  754MOL0     H 1728   9.276   7.037   2.126  1.0225 -0.2170  1.5507
  754MOL0     H 1729   9.201   7.196   1.916 -0.9509 -0.0576 -1.2681
  754MOL0     H 1730   9.342   7.127   1.841  1.8256 -1.6241  1.5854
  754MOL0     H 1731   9.235   6.899   1.900 -2.2735 -1.0263  0.3539
  754MOL0     H 1732   9.090   6.982   1.945  0.3264 -2.4792 -0.0116
  754MOL0     H 1733   9.187   7.037   1.658 -1.3965  1.6202 -0.7903
  754MOL0     H 1734   9.098   6.888   1.713  1.6482  0.0663  0.1750
  754MOL0     H 1735   9.028   7.168   1.812 -2.0151 -0.1192  0.2789
  754MOL0     H 1736   8.983   7.144   1.641 -3.0821 -1.9515  0.0686
  754MOL0     H 1737   8.881   7.044   1.896 -3.0526 -0.9438  0.1037
  754MOL0     H 1738   8.793   7.124   1.774 -0.1829 -0.0678  0.6449
  754MOL0     H 1739   8.702   6.900   1.762  0.4697  0.5556  0.1241
  754MOL0     H 1740   8.853   6.823   1.776  1.3956  2.2049  3.5866
  754MOL0     H 1741   8.589   6.844   1.548 -0.3015  1.0745  0.1187
  754MOL0     H 1742   8.670   6.727   1.245  1.2589  1.0777  1.0426
  754MOL0     H 1743   8.548   6.844   1.270 -0.3490 -1.5928  1.2190
  754MOL0     H 1744   8.667   6.842   1.064  1.6888 -3.5806  2.3113
  754MOL0     H 1745   8.819   6.903   1.130 -0.2371 -0.3270  1.0861
  754MOL0     H 1746   8.736   7.107   1.215  1.6064 -0.5315  0.4966
  754MOL0     H 1747   8.567   7.074   1.177 -1.0606  1.1579 -3.9492
  754MOL0     H 1748   8.780   7.067   0.956  0.1461  0.5006 -0.0520
  754MOL0     H 1749   8.724   7.225   1.021  3.2108 -0.6267 -1.5509
  754MOL0     H 1750   8.558   7.343   1.076 -1.0241  1.1982  1.4046
  754MOL0     H 1751   8.488   7.540   1.142  0.7834 -1.8204 -0.2171
  754MOL0     H 1752   8.367   7.625   1.048  0.5710  1.0678  0.5650
  754MOL0     H 1753   8.311   7.512   1.172 -0.9701 -0.1736 -2.0619
  754MOL0     H 1754   7.841   7.472   0.893  2.0872  1.1969  2.4733
  754MOL0     H 1755   7.673   7.635   0.872  1.0186 -3.4331  0.0668
  754MOL0     H 1756   7.532   7.934   0.659 -0.2653 -0.4097 -0.1425
  754MOL0     H 1757   7.523   7.778   0.735  0.0021 -0.3161  3.1094
  754MOL0     H 1758   7.637   7.862   0.928  1.0964 -2.1011 -2.6777
  754MOL0     H 1759   7.610   8.030   0.880 -2.9138  0.6397  1.5662
  754MOL0     H 1760   7.414   7.918   1.029 -1.7271  2.1433 -0.1227
  754MOL0     H 1761   7.361   7.859   0.882  0.0240 -2.5540  3.4576
  754MOL0     H 1762   7.415   8.158   0.941 -0.7960 -0.0360  0.1387
  754MOL0     H 1763   7.338   8.079   0.797 -3.0983 -0.8245 -0.8610
  754MOL0     H 1764   7.178   8.180   1.003 -2.2645 -0.8859  2.1551
  754MOL0     H 1765   7.220   8.036   1.081  0.2669  0.0068 -1.2290
  754MOL0     H 1766   7.114   8.034   0.805  1.0485  0.3953 -0.2699
  754MOL0     H 1767   7.150   7.895   0.918 -2.2044 -0.6630  0.5663
  754MOL0     H 1768   6.929   8.099   0.992 -3.3523 -2.2686 -1.2346
  754MOL0     H 1769   6.998   7.967   1.092 -0.7550  0.3988  0.6359
  754MOL0     H 1770   6.920   7.809   0.931 -2.8310 -0.9704 -2.7348
  754MOL0     H 1771   6.893   7.936   0.812 -1.0002  1.8349  0.0723
  754MOL0     H 1772   7.927   7.850   0.601 -0.5542 -0.1660 -0.2594
  754MOL0     H 1773   8.110   7.677   0.616 -0.3690  1.6680  0.1592
  754MOL0     H 1774   8.202   7.256   0.758 -0.5236  0.7783  0.9070
  754MOL0     H 1775   8.383   7.091   0.783 -2.0738  1.0249 -1.7189
  754MOL0     H 1776   9.745   7.239   2.117  4.1527 -0.1035 -1.9322
  754MOL0     H 1777   9.884   7.438   2.169  0.3364  1.6289  0.5076
  754MOL0     H 1778   9.950   7.989   1.871 -2.2116  0.5075  1.0147
  754MOL0     H 1779  10.137   8.144   1.936 -0.6145  1.1271  0.9988
  754MOL0     H 1780  10.312   8.247   1.986  3.2072  3.4600 -0.5903
  754MOL0     H 1781  10.199   8.315   2.100  0.2803 -0.4168  0.3862
  754MOL0     H 1782  10.464   8.397   2.067  2.7217 -0.1924  1.3659
  754MOL0     H 1783  10.493   8.265   2.170 -0.6179 -0.0680  2.0578
  754MOL0     H 1784  10.325   8.352   2.337 -0.9977  1.5435  1.4156
  754MOL0     H 1785  10.296   8.496   2.238 -1.4633 -2.5502 -1.5768
  754MOL0     H 1786  10.462   8.574   2.381  2.4752  1.4797 -2.0593
  754MOL0     H 1787  10.579   8.505   2.268 -0.9401  1.4180 -1.1013
  754MOL0     H 1788  10.645   8.233   2.566  2.8052 -0.2595 -2.0254
  754MOL0     H 1789  10.179   7.951   2.310  1.1928  2.6586  0.7513
  754MOL0     H 1790   9.999   7.800   2.267  0.8857  1.2311  1.5844
  755MOL0     O 1791   3.972   6.008   4.529  0.7590 -0.2415 -0.6476
  755MOL0     C 1792   3.926   5.942   4.433 -0.0615 -0.6717 -0.2795
  755MOL0     O 1793   3.838   5.991   4.337  0.5499 -0.7609 -0.5712
  755MOL0     C 1794   3.817   6.133   4.320  0.0041  0.2942  0.3347
  755MOL0     C 1795   3.894   6.198   4.221 -0.5369 -0.1148  0.0694
  755MOL0     C 1796   3.878   6.341   4.199 -0.1034 -1.0413  0.6523
  755MOL0     C 1797   3.770   6.398   4.272 -0.1143 -0.0867 -0.5159
  755MOL0     O 1798   3.739   6.526   4.249  0.1249 -0.1057 -0.4989
  755MOL0     C 1799   3.625   6.529   4.150 -0.4188  0.2441 -0.7028
  755MOL0     C 1800   3.575   6.672   4.131  0.3797 -0.1678  0.4934
  755MOL0     C 1801   3.534   6.732   4.264 -0.0544  0.6312 -0.3094
  755MOL0     C 1802   3.497   6.881   4.231  0.8220  0.8448  0.2723
  755MOL0     C 1803   3.454   6.955   4.364 -0.3441  0.0761 -0.9566
  755MOL0     C 1804   3.303   6.951   4.394 -0.7564 -0.1352 -0.6615
  755MOL0     C 1805   3.263   7.021   4.524  0.2838  1.1411 -0.0935
  755MOL0     C 1806   3.115   7.026   4.556  1.1023 -0.7394 -0.5811
  755MOL0     N 1807   3.083   7.087   4.686 -0.7086 -0.1166  0.2987
  755MOL0     C 1808   3.135   7.054   4.805  0.4426 -0.3048 -0.2333
  755MOL0     C 1809   3.054   7.122   4.890  0.5248  1.0391 -0.6219
  755MOL0     C 1810   3.075   7.120   5.040  0.4891  0.6883  0.1293
  755MOL0     C 1811   3.217   7.151   5.083  0.3168  0.7700 -0.1021
  755MOL0     C 1812   3.235   7.136   5.234  0.5832  0.8294 -0.6367
  755MOL0     C 1813   3.381   7.128   5.269 -0.6630  0.5616  0.2160
  755MOL0     O 1814   3.437   7.258   5.262 -0.3025  0.4685  0.4245
  755MOL0     C 1815   3.574   7.265   5.252  0.7822  0.4205 -0.3644
  755MOL0     C 1816   3.623   7.384   5.187  0.0020  0.3630 -0.3316
  755MOL0     C 1817   3.760   7.409   5.184  0.4046  0.0006 -0.5766
  755MOL0     C 1818   3.811   7.541   5.144  0.5059  0.0959  0.0508
  755MOL0     C 1819   3.851   7.310   5.225  0.4710  0.5485  0.2065
  755MOL0     C 1820   3.998   7.307   5.207  0.2947 -0.4417 -0.2106
  755MOL0     O 1821   4.057   7.430   5.208 -0.1780 -0.6055 -0.2499
  755MOL0     C 1822   4.191   7.431   5.225 -0.2616  0.1218 -0.2929
  755MOL0     C 1823   4.250   7.362   5.334 -0.7108  0.1258  0.5208
  755MOL0     C 1824   4.384   7.391   5.360 -0.7592 -1.1569 -0.0579
  755MOL0     C 1825   4.472   7.458   5.275 -0.2469 -0.9986 -0.8153
  755MOL0     O 1826   4.603   7.471   5.305  0.0166  0.6735  0.1418
  755MOL0     C 1827   4.687   7.557   5.230 -0.0949 -0.7648 -0.0682
  755MOL0     C 1828   4.828   7.555   5.285  0.1680 -0.5866  0.2824
  755MOL0     C 1829   4.877   7.416   5.257 -0.0766  0.1469  0.4733
  755MOL0     C 1830   5.031   7.412   5.237  0.9409  0.1220 -0.6122
  755MOL0     C 1831   5.081   7.274   5.204  0.2396 -0.2169 -0.2544
  755MOL0     C 1832   5.065   7.239   5.056 -0.4354 -0.5480  0.3785
  755MOL0     C 1833   5.134   7.109   5.005  0.0090  0.7286  0.1400
  755MOL0     C 1834   5.067   7.035   4.900  0.2408 -0.1235  1.2505
  755MOL0    Cl 1835   4.942   6.934   4.969  0.2464  0.0474  0.0312
  755MOL0     C 1836   4.410   7.509   5.160 -0.3538 -0.0438 -0.2038
  755MOL0     C 1837   4.273   7.501   5.139 -0.2704  0.0696  0.3308
  755MOL0     O 1838   4.059   7.194   5.199 -0.0404  0.0846 -0.0974
  755MOL0     C 1839   3.805   7.190   5.282 -1.1189 -0.2749  0.2246
  755MOL0     C 1840   3.666   7.173   5.304  0.2047  0.3417 -0.5444
  755MOL0     N 1841   2.953   7.185   4.819 -0.4349  0.1642 -0.1263
  755MOL0     N 1842   2.967   7.158   4.692 -0.1527 -0.2541  0.0527
  755MOL0     C 1843   3.690   6.325   4.366 -0.1526  0.4233  0.2085
  755MOL0     C 1844   3.724   6.198   4.395  0.4633  0.4749 -0.9892
  755MOL0     C 1845   3.962   5.805   4.429  0.6098 -1.1756 -0.9920
  755MOL0     C 1846   3.879   5.714   4.368  0.5344 -0.4052 -0.0775
  755MOL0     C 1847   3.913   5.575   4.378  0.6174 -0.9241  0.1344
  755MOL0     C 1848   4.024   5.521   4.441 -0.1526 -0.0111  0.1095
  755MOL0     O 1849   4.054   5.384   4.449 -0.5595  0.3592 -0.3990
  755MOL0     C 1850   3.963   5.275   4.417 -1.1492 -0.1759  0.7213
  755MOL0     C 1851   3.857   5.248   4.524  0.4278  0.3424  1.0024
  755MOL0     C 1852   3.762   5.132   4.498  0.3645  0.0101  0.1251
  755MOL0     C 1853   3.649   5.115   4.602 -0.1973 -0.4847  0.4046
  755MOL0     C 1854   3.698   5.047   4.724  0.5524  0.9060 -0.1669
  755MOL0     C 1855   3.717   4.969   4.817 -0.9139 -0.1082  0.4268
  755MOL0     C 1856   4.107   5.616   4.507  0.7791  0.4874  0.4743
  755MOL0     C 1857   4.075   5.758   4.503  0.8904  0.7385  0.3881
  755MOL0     H 1858   3.979   6.150   4.173  0.6498  1.4675  0.4906
  755MOL0     H 1859   3.954   6.399   4.147 -1.0853 -2.0358 -2.0461
  755MOL0     H 1860   3.660   6.509   4.048 -0.5509  2.4008 -1.2172
  755MOL0     H 1861   3.546   6.460   4.179 -0.3264  0.1230 -0.7365
  755MOL0     H 1862   3.661   6.718   4.082  1.3354 -2.4375 -0.0728
  755MOL0     H 1863   3.488   6.668   4.065  0.7647 -2.7845  0.0564
  755MOL0     H 1864   3.447   6.672   4.294  0.8832 -1.6090 -1.8635
  755MOL0     H 1865   3.621   6.733   4.330  0.1972  0.3232 -0.6392
  755MOL0     H 1866   3.582   6.927   4.181 -0.2889 -0.2396 -2.8654
  755MOL0     H 1867   3.412   6.872   4.163 -0.4823 -2.7560  2.0861
  755MOL0     H 1868   3.510   6.915   4.450 -0.4136 -1.4618 -1.6068
  755MOL0     H 1869   3.473   7.062   4.351 -1.8157  0.5245  0.2570
  755MOL0     H 1870   3.248   6.996   4.311 -0.0838 -0.3894 -1.2513
  755MOL0     H 1871   3.275   6.846   4.408 -0.2555  0.1008  3.5802
  755MOL0     H 1872   3.316   6.962   4.600 -0.4700  1.1949  0.4839
  755MOL0     H 1873   3.304   7.122   4.520  2.0804  0.4139 -1.4584
  755MOL0     H 1874   3.077   6.924   4.565  3.5171 -1.5221  2.0813
  755MOL0     H 1875   3.056   7.086   4.486 -2.3550  1.0159  3.3670
  755MOL0     H 1876   3.211   6.981   4.833  1.0666  0.4320  0.0306
  755MOL0     H 1877   3.011   7.197   5.084  2.6610  3.0967 -0.6452
  755MOL0     H 1878   3.048   7.024   5.084 -0.9520  1.8210  1.8348
  755MOL0     H 1879   3.244   7.253   5.056  0.1232  1.1556  1.0962
  755MOL0     H 1880   3.282   7.078   5.033  0.2752  0.9613 -0.4380
  755MOL0     H 1881   3.201   7.034   5.257  1.3800  0.5810 -0.5273
  755MOL0     H 1882   3.172   7.202   5.294  0.6727 -0.8087  1.4030
  755MOL0     H 1883   3.431   7.071   5.190 -0.5011  1.8671 -0.6556
  755MOL0     H 1884   3.393   7.064   5.357  2.2386  2.8453  1.6662
  755MOL0     H 1885   3.553   7.456   5.147  0.6057  0.0453 -2.0258
  755MOL0     H 1886   3.730   7.609   5.114  0.7872  0.2721 -0.3205
  755MOL0     H 1887   3.859   7.592   5.228  0.4049  1.4489 -0.6783
  755MOL0     H 1888   3.875   7.519   5.058 -1.1014 -0.9315 -0.9387
  755MOL0     H 1889   4.203   7.288   5.399  0.2902  0.4758  1.6743
  755MOL0     H 1890   4.438   7.342   5.440  0.8651 -2.3222 -1.7846
  755MOL0     H 1891   4.683   7.532   5.123 -0.0478  0.3186 -0.3270
  755MOL0     H 1892   4.666   7.664   5.240  2.1360 -0.3432  0.4575
  755MOL0     H 1893   4.899   7.627   5.242  2.1905 -1.3708  2.1362
  755MOL0     H 1894   4.833   7.575   5.393 -0.9022 -1.2649  0.4724
  755MOL0     H 1895   4.836   7.368   5.167  0.7179 -1.2785  0.8549
  755MOL0     H 1896   4.850   7.353   5.341  1.7269 -0.2676  0.7816
  755MOL0     H 1897   5.051   7.488   5.161  0.1644  2.0004  0.9841
  755MOL0     H 1898   5.070   7.454   5.330 -1.5161 -0.4711  0.7517
  755MOL0     H 1899   5.033   7.201   5.269  0.7210  0.0368  0.4055
  755MOL0     H 1900   5.186   7.287   5.235  0.0815  1.9465 -0.4611
  755MOL0     H 1901   4.957   7.230   5.041 -0.7258 -1.6978  2.7086
  755MOL0     H 1902   5.114   7.324   5.010 -0.2316 -1.2681 -0.7857
  755MOL0     H 1903   5.142   7.038   5.087 -1.7483  1.5783  1.0978
  755MOL0     H 1904   5.237   7.128   4.971  0.7017 -1.8840  0.5748
  755MOL0     H 1905   5.144   6.969   4.858  0.7031  1.3009 -0.2291
  755MOL0     H 1906   5.022   7.101   4.825  1.4655  0.6794  1.1899
  755MOL0     H 1907   4.470   7.565   5.088 -0.9977 -0.0429 -0.7527
  755MOL0     H 1908   4.225   7.566   5.067 -0.3463  2.2075  2.1864
  755MOL0     H 1909   3.863   7.102   5.308 -3.7253 -2.8692 -2.0082
  755MOL0     H 1910   3.621   7.091   5.359 -1.4980 -0.9754 -3.6462
  755MOL0     H 1911   3.614   6.359   4.434  0.6503 -1.3815  2.1347
  755MOL0     H 1912   3.670   6.144   4.472  0.4955  2.5832  0.5840
  755MOL0     H 1913   3.794   5.740   4.306 -0.1026  1.2498  1.4118
  755MOL0     H 1914   3.843   5.516   4.320 -0.2330 -0.2074  0.4118
  755MOL0     H 1915   3.904   5.313   4.333 -0.6911  1.1681  0.9845
  755MOL0     H 1916   4.019   5.185   4.389  0.4511  0.9410  0.2322
  755MOL0     H 1917   3.798   5.338   4.546  0.9126  0.5622  1.4403
  755MOL0     H 1918   3.911   5.232   4.618 -0.8312 -2.7297  1.3264
  755MOL0     H 1919   3.812   5.036   4.483 -1.0035 -0.8781  1.0467
  755MOL0     H 1920   3.721   5.151   4.399  0.7254  2.1784  0.3309
  755MOL0     H 1921   3.567   5.056   4.560 -0.9112  0.7671 -0.0090
  755MOL0     H 1922   3.613   5.213   4.636  0.5590  0.2357 -0.7943
  755MOL0     H 1923   3.724   4.923   4.913  0.6743  4.5618  2.8733
  755MOL0     H 1924   4.190   5.569   4.561 -0.9043  0.1197  2.9315
  755MOL0     H 1925   4.144   5.824   4.555 -0.1858  2.6653 -0.5122
  756MOL0     O 1926   0.243   1.520   7.743 -0.1592  0.0281  0.1727
  756MOL0     C 1927   0.235   1.399   7.779 -0.7447 -0.2506 -1.0299
  756MOL0     O 1928   0.128   1.337   7.843  0.3381 -0.0256 -0.6758
  756MOL0     C 1929   0.008   1.402   7.867 -0.5003 -0.6176 -0.7324
  756MOL0     C 1930  -0.066   1.471   7.772 -0.4815  0.4414 -0.1891
  756MOL0     C 1931  -0.197   1.527   7.809 -0.3647  0.4200 -0.1683
  756MOL0     C 1932  -0.251   1.513   7.941  0.1707 -0.1339  0.5435
  756MOL0     O 1933  -0.372   1.556   7.986  0.0184 -0.0151 -1.0521
  756MOL0     C 1934  -0.430   1.662   7.912  0.1809 -0.6237 -0.0508
  756MOL0     C 1935  -0.526   1.744   8.001  0.3376  0.2016  0.1774
  756MOL0     C 1936  -0.632   1.817   7.923  0.0283 -0.5111  0.3586
  756MOL0     C 1937  -0.734   1.889   8.010  0.2127  0.5229  0.3539
  756MOL0     C 1938  -0.839   1.966   7.925 -0.1981 -0.2874  0.1875
  756MOL0     C 1939  -0.966   1.997   8.000 -0.7214 -0.4817 -0.8813
  756MOL0     C 1940  -0.944   2.117   8.097  0.3569  0.1565  0.8601
  756MOL0     C 1941  -1.064   2.168   8.173 -0.6598  0.4717  0.8343
  756MOL0     N 1942  -1.124   2.273   8.090 -0.5583  0.5124  0.1985
  756MOL0     C 1943  -1.139   2.399   8.129  0.3520 -0.5877  0.2807
  756MOL0     C 1944  -1.231   2.451   8.043 -0.5333  0.7067  0.2036
  756MOL0     C 1945  -1.263   2.598   8.036  0.4685 -0.2280  1.0912
  756MOL0     C 1946  -1.258   2.645   7.884  0.6262  0.7251 -0.0040
  756MOL0     C 1947  -1.123   2.624   7.819 -0.0139  0.5722 -0.5015
  756MOL0     C 1948  -1.117   2.700   7.687 -0.9431 -0.0152 -0.7470
  756MOL0     O 1949  -1.222   2.662   7.599  0.3114 -0.2871  0.0400
  756MOL0     C 1950  -1.229   2.727   7.482 -0.2921 -0.6179  0.3434
  756MOL0     C 1951  -1.139   2.824   7.433 -0.2460 -1.0495  0.8191
  756MOL0     C 1952  -1.149   2.862   7.310  0.7806 -0.7958  0.4462
  756MOL0     C 1953  -1.055   2.973   7.273 -0.6340  0.5380 -0.1927
  756MOL0     C 1954  -1.253   2.818   7.219  0.3203  0.0492  0.1101
  756MOL0     C 1955  -1.275   2.885   7.092  0.2042  0.0344 -0.4535
  756MOL0     O 1956  -1.268   2.800   6.976  0.8708  0.1726  0.1152
  756MOL0     C 1957  -1.273   2.848   6.847 -0.1389 -0.6724 -0.3849
  756MOL0     C 1958  -1.200   2.964   6.817  0.5104  0.9714  0.0256
  756MOL0     C 1959  -1.191   3.000   6.684 -0.6100  0.4504  0.0746
  756MOL0     C 1960  -1.237   2.917   6.578 -0.9783 -0.4051 -0.5153
  756MOL0     O 1961  -1.198   2.949   6.453  0.3144  0.1049  0.1094
  756MOL0     C 1962  -1.281   2.909   6.353 -0.3628  0.2500 -0.4682
  756MOL0     C 1963  -1.260   2.998   6.233  0.5826  0.1898  0.1629
  756MOL0     C 1964  -1.115   2.989   6.175  0.9712 -0.4772 -0.6841
  756MOL0     C 1965  -1.093   3.089   6.061 -0.2946  0.4924 -0.7509
  756MOL0     C 1966  -0.961   3.071   5.982 -0.3595  0.5287 -0.0164
  756MOL0     C 1967  -0.953   3.142   5.839  0.5802  1.2908 -0.0141
  756MOL0     C 1968  -0.805   3.127   5.795  0.4780 -0.9769  0.5917
  756MOL0     C 1969  -0.723   3.250   5.845  0.3623 -0.3738  0.6412
  756MOL0    Cl 1970  -0.549   3.215   5.819 -0.3772  0.0204 -0.0926
  756MOL0     C 1971  -1.317   2.809   6.605 -0.6996  0.6650 -0.5335
  756MOL0     C 1972  -1.334   2.774   6.742  0.5545 -0.6049  0.5861
  756MOL0     O 1973  -1.313   3.000   7.086  0.2406  0.1627  0.8124
  756MOL0     C 1974  -1.332   2.708   7.258  1.7906  0.5394 -0.1288
  756MOL0     C 1975  -1.318   2.670   7.390 -0.1183 -0.1801  0.9700
  756MOL0     N 1976  -1.285   2.354   7.962 -0.6993 -0.0385 -0.1349
  756MOL0     N 1977  -1.214   2.248   7.991  0.2794 -0.1858  0.2894
  756MOL0     C 1978  -0.177   1.446   8.031  0.7949 -0.8609  0.1224
  756MOL0     C 1979  -0.047   1.402   7.999  0.3760  0.8728  0.4216
  756MOL0     C 1980   0.358   1.314   7.777  0.6491 -0.3021 -0.1137
  756MOL0     C 1981   0.473   1.361   7.708  0.1720 -0.3255 -0.0518
  756MOL0     C 1982   0.591   1.282   7.708  0.0114 -0.1244  0.8520
  756MOL0     C 1983   0.603   1.158   7.764 -0.8594 -0.0683 -0.2669
  756MOL0     O 1984   0.715   1.076   7.750 -0.0019  0.3051 -0.5679
  756MOL0     C 1985   0.838   1.135   7.721  0.3446 -0.7036 -0.0770
  756MOL0     C 1986   0.946   1.026   7.756  0.3870 -0.2462  0.8319
  756MOL0     C 1987   0.984   0.909   7.659  0.0586 -0.6713  0.7446
  756MOL0     C 1988   0.991   0.951   7.515 -0.0737 -0.4722 -0.2785
  756MOL0     C 1989   0.999   0.831   7.420  0.0546 -0.8698 -0.2458
  756MOL0     C 1990   1.017   0.741   7.343  0.5433  0.7398  0.9685
  756MOL0     C 1991   0.486   1.106   7.820 -0.4817 -0.4536 -0.0990
  756MOL0     C 1992   0.366   1.184   7.834 -0.3353 -0.3919 -0.6723
  756MOL0     H 1993  -0.037   1.482   7.668  0.3565 -1.5562 -0.2092
  756MOL0     H 1994  -0.241   1.573   7.721 -0.3880  0.8962  0.0917
  756MOL0     H 1995  -0.357   1.731   7.867 -0.7470  0.5954  0.2466
  756MOL0     H 1996  -0.493   1.615   7.837 -4.0996  0.4991  2.5180
  756MOL0     H 1997  -0.577   1.672   8.066  1.2144  0.6868  1.4398
  756MOL0     H 1998  -0.467   1.812   8.062  0.7483 -0.1221  0.1421
  756MOL0     H 1999  -0.585   1.895   7.863 -3.2531 -0.0370 -1.8904
  756MOL0     H 2000  -0.684   1.751   7.852  0.7978  0.9777 -1.6775
  756MOL0     H 2001  -0.789   1.821   8.075 -1.2629  1.8359  0.5569
  756MOL0     H 2002  -0.683   1.951   8.084 -0.1859 -0.3017  1.3333
  756MOL0     H 2003  -0.792   2.060   7.895  0.3570 -0.4055  0.6711
  756MOL0     H 2004  -0.867   1.896   7.846 -1.3016  0.5148 -0.1452
  756MOL0     H 2005  -1.047   2.022   7.932 -2.7359 -1.0360  1.1903
  756MOL0     H 2006  -1.012   1.912   8.051 -0.1517 -2.2351 -3.1455
  756MOL0     H 2007  -0.880   2.077   8.177 -0.8239 -2.6549  0.5386
  756MOL0     H 2008  -0.895   2.201   8.048 -2.6028  1.0244 -0.8733
  756MOL0     H 2009  -1.031   2.200   8.272  1.7783  2.5275 -0.5215
  756MOL0     H 2010  -1.143   2.092   8.173 -0.3403  0.0613 -1.1624
  756MOL0     H 2011  -1.083   2.448   8.208  0.1616 -3.1530  2.1290
  756MOL0     H 2012  -1.365   2.618   8.070  1.0173  3.7290  0.8655
  756MOL0     H 2013  -1.190   2.660   8.089  0.5685  1.7562 -1.1703
  756MOL0     H 2014  -1.282   2.752   7.884 -0.5414  0.4933  1.5267
  756MOL0     H 2015  -1.330   2.591   7.822  0.7230  0.9664 -0.3266
  756MOL0     H 2016  -1.113   2.517   7.798 -0.4383  0.8357 -2.1937
  756MOL0     H 2017  -1.032   2.650   7.872 -1.0478  3.3998  0.0412
  756MOL0     H 2018  -1.031   2.673   7.625 -2.1213 -0.9290 -2.0619
  756MOL0     H 2019  -1.117   2.806   7.716 -0.5944 -0.9963  3.4079
  756MOL0     H 2020  -1.058   2.853   7.499 -1.3966  0.4410  1.6370
  756MOL0     H 2021  -1.101   3.066   7.306 -1.6688 -1.0612  3.5414
  756MOL0     H 2022  -0.953   2.964   7.312 -0.3917  0.0085 -0.9259
  756MOL0     H 2023  -1.051   2.983   7.165  2.7160 -0.3244 -0.2725
  756MOL0     H 2024  -1.151   3.016   6.898  0.0052  0.0784  0.9335
  756MOL0     H 2025  -1.127   3.084   6.660  2.0435 -0.4074  3.4648
  756MOL0     H 2026  -1.255   2.804   6.337 -0.4057 -0.0895  1.4975
  756MOL0     H 2027  -1.389   2.909   6.370 -0.2420 -1.8399  0.6090
  756MOL0     H 2028  -1.336   2.961   6.165  1.5960 -1.1289 -0.2983
  756MOL0     H 2029  -1.294   3.098   6.260  0.6327 -0.0298  1.0794
  756MOL0     H 2030  -1.082   2.888   6.149  0.7537 -0.9593  0.7905
  756MOL0     H 2031  -1.038   3.021   6.246  0.8239 -1.4408 -0.0697
  756MOL0     H 2032  -1.169   3.069   5.985  2.1703 -0.0869 -3.2182
  756MOL0     H 2033  -1.095   3.193   6.096  0.4146 -0.1085  1.2361
  756MOL0     H 2034  -0.944   2.963   5.976  0.2481  0.6911 -1.7396
  756MOL0     H 2035  -0.881   3.112   6.045 -0.1494  0.4971 -0.2641
  756MOL0     H 2036  -1.022   3.092   5.771  0.7758  3.0574 -1.5919
  756MOL0     H 2037  -0.978   3.248   5.851  1.2655  1.6055 -1.2304
  756MOL0     H 2038  -0.807   3.128   5.686  3.2267 -0.1938  0.4891
  756MOL0     H 2039  -0.748   3.041   5.831  1.4238  0.3363  2.3932
  756MOL0     H 2040  -0.750   3.260   5.950  0.1177 -1.8865  0.7425
  756MOL0     H 2041  -0.756   3.339   5.791 -0.8287  0.0242  1.9650
  756MOL0     H 2042  -1.364   2.741   6.535  0.5764 -2.1742  1.1995
  756MOL0     H 2043  -1.386   2.686   6.777  1.4853 -1.0910  0.7735
  756MOL0     H 2044  -1.398   2.661   7.186  0.8405  1.2140  0.2877
  756MOL0     H 2045  -1.383   2.592   7.427 -0.4538 -0.8577 -0.9235
  756MOL0     H 2046  -0.220   1.433   8.129  0.7958 -2.4394 -0.0676
  756MOL0     H 2047   0.011   1.341   8.068  0.7525  2.0585  1.2126
  756MOL0     H 2048   0.469   1.461   7.666 -2.4163  0.2496  1.3807
  756MOL0     H 2049   0.675   1.329   7.657  0.3026 -2.0215 -0.5201
  756MOL0     H 2050   0.844   1.160   7.614  2.0086 -0.9214 -0.0684
  756MOL0     H 2051   0.861   1.221   7.783  0.4150 -1.1247  0.4852
  756MOL0     H 2052   0.907   0.980   7.848 -1.9263  1.6266  0.8925
  756MOL0     H 2053   1.039   1.081   7.771 -0.1534  0.7445  0.6255
  756MOL0     H 2054   0.897   0.843   7.666 -1.2521  1.0755  1.4885
  756MOL0     H 2055   1.075   0.853   7.682  0.8079 -0.0890 -0.6783
  756MOL0     H 2056   1.068   1.028   7.505 -2.6611  2.5039  0.9514
  756MOL0     H 2057   0.897   1.000   7.487  0.4684  1.4498  1.0677
  756MOL0     H 2058   1.036   0.654   7.284 -0.1417 -0.6216  2.6618
  756MOL0     H 2059   0.499   1.010   7.868 -0.1998  0.1240  1.0087
  756MOL0     H 2060   0.286   1.141   7.894 -1.2237  0.3483 -1.2944
  757MOL0     O 2061   6.637   4.722  10.295  0.4667 -0.3434  0.8010
  757MOL0     C 2062   6.566   4.813  10.255  0.1398 -0.1077  0.2804
  757MOL0     O 2063   6.611   4.936  10.228  0.2975  0.3074  0.5828
  757MOL0     C 2064   6.742   4.973  10.249 -0.5817  0.9548 -0.5663
  757MOL0     C 2065   6.823   4.928  10.358  0.2980 -0.6561 -0.4478
  757MOL0     C 2066   6.952   4.966  10.376  0.2307  0.1591 -0.6554
  757MOL0     C 2067   7.010   5.068  10.300  0.6147 -0.6986  0.0597
  757MOL0     O 2068   7.143   5.105  10.309  0.2293 -0.2468  0.8781
  757MOL0     C 2069   7.222   5.059  10.424 -0.9287  0.4541  0.5773
  757MOL0     C 2070   7.356   5.134  10.444 -0.9274 -0.8983  0.2579
  757MOL0     C 2071   7.471   5.065  10.360  0.8339 -0.1538 -0.2708
  757MOL0     C 2072   7.606   5.135  10.357  0.4040  0.2575 -0.3699
  757MOL0     C 2073   7.679   5.110  10.489 -0.2818 -0.6017  0.7966
  757MOL0     C 2074   7.805   5.203  10.496  0.6372 -0.3476  0.4371
  757MOL0     C 2075   7.899   5.170  10.610  0.0523 -0.1922 -0.0038
  757MOL0     C 2076   7.833   5.176  10.747 -0.0552 -0.1263 -0.4458
  757MOL0     N 2077   7.748   5.062  10.789 -0.2714 -0.2197 -0.1694
  757MOL0     C 2078   7.654   5.060  10.888 -0.3834 -0.1546 -0.3641
  757MOL0     C 2079   7.620   4.934  10.886  0.7060 -0.1642 -1.2958
  757MOL0     C 2080   7.521   4.862  10.975  0.5920  0.9311  0.4799
  757MOL0     C 2081   7.420   4.779  10.892 -0.7799  0.2059  0.9460
  757MOL0     C 2082   7.339   4.862  10.786  0.5324 -0.1913 -0.3463
  757MOL0     C 2083   7.199   4.869  10.824  0.3152  0.9815 -0.1580
  757MOL0     O 2084   7.151   4.737  10.839  0.5929 -0.5157  0.3952
  757MOL0     C 2085   7.022   4.733  10.892 -0.1056 -0.4685 -0.6246
  757MOL0     C 2086   7.007   4.644  11.004 -0.7982 -0.1620  1.1140
  757MOL0     C 2087   6.876   4.623  11.066  1.0613  0.1723  0.5397
  757MOL0     C 2088   6.874   4.525  11.182  0.3719  0.1114  0.5716
  757MOL0     C 2089   6.760   4.689  11.005 -0.0134 -0.5281  0.3551
  757MOL0     C 2090   6.623   4.668  11.052  0.1295  0.4981 -0.0808
  757MOL0     O 2091   6.512   4.668  10.962  0.2586 -0.2580  0.6243
  757MOL0     C 2092   6.386   4.665  11.021 -0.4021  0.2560 -0.2480
  757MOL0     C 2093   6.359   4.567  11.119  0.3524  0.4616 -0.1241
  757MOL0     C 2094   6.227   4.547  11.151 -0.1470 -0.5754  0.4634
  757MOL0     C 2095   6.125   4.635  11.107  0.4101  0.0244 -0.7269
  757MOL0     O 2096   5.999   4.606  11.158 -0.2953 -0.0368 -0.4312
  757MOL0     C 2097   5.890   4.660  11.081 -0.1657 -0.0005  0.0220
  757MOL0     C 2098   5.756   4.591  11.122 -0.2775  0.2126  0.0683
  757MOL0     C 2099   5.626   4.652  11.066  0.2783  0.2300 -0.4720
  757MOL0     C 2100   5.506   4.582  11.124  0.0581  0.5409  0.2749
  757MOL0     C 2101   5.381   4.618  11.040  0.5605 -0.2251  0.1297
  757MOL0     C 2102   5.268   4.559  11.123  0.2450 -0.5549 -0.4822
  757MOL0     C 2103   5.136   4.596  11.060 -0.2771  0.8021  0.2400
  757MOL0     C 2104   5.025   4.511  11.104  0.3018 -0.1022  0.0293
  757MOL0    Cl 2105   4.949   4.592  11.240 -0.3001  0.2518  0.2750
  757MOL0     C 2106   6.157   4.737  11.016 -0.4038 -0.6666  0.1955
  757MOL0     C 2107   6.288   4.751  10.974  0.4692  0.5139 -0.6318
  757MOL0     O 2108   6.624   4.647  11.177  0.0221  0.1839  0.2977
  757MOL0     C 2109   6.784   4.767  10.888  0.3490  0.3615 -0.0881
  757MOL0     C 2110   6.904   4.791  10.834  0.2410  0.2765  0.0663
  757MOL0     N 2111   7.686   4.869  10.782 -0.3935 -0.6042  0.2474
  757MOL0     N 2112   7.768   4.938  10.729  0.1900 -0.3683  0.5053
  757MOL0     C 2113   6.933   5.119  10.200 -0.1702 -0.7727  0.2713
  757MOL0     C 2114   6.801   5.078  10.176 -0.8480  0.7183 -0.1929
  757MOL0     C 2115   6.426   4.778  10.199  0.2697 -0.6160 -0.6299
  757MOL0     C 2116   6.390   4.653  10.165  0.1587  0.1232  0.0679
  757MOL0     C 2117   6.262   4.615  10.124 -0.0722 -0.5208  0.8186
  757MOL0     C 2118   6.165   4.709  10.132  0.0677  0.9415  1.0292
  757MOL0     O 2119   6.033   4.676  10.096  0.5168 -0.7298  0.2946
  757MOL0     C 2120   5.996   4.562  10.014 -0.4595 -1.3114  0.3231
  757MOL0     C 2121   5.887   4.601   9.922  0.5385  0.3156  0.5242
  757MOL0     C 2122   5.752   4.652   9.982  0.2929 -0.2493  0.1453
  757MOL0     C 2123   5.650   4.546  10.010  0.1475  0.1349 -0.6115
  757MOL0     C 2124   5.536   4.617  10.063 -0.1107 -0.2193 -0.8535
  757MOL0     C 2125   5.435   4.671  10.101  0.4855  0.1518  0.4841
  757MOL0     C 2126   6.196   4.841  10.157 -0.5677  0.6486 -0.2313
  757MOL0     C 2127   6.328   4.877  10.203  0.4899  0.9044 -0.2119
  757MOL0     H 2128   6.779   4.868  10.437 -1.7730  1.5614  0.1948
  757MOL0     H 2129   7.009   4.917  10.454  0.7184  2.0545  0.2189
  757MOL0     H 2130   7.166   5.065  10.518 -0.9197  2.2474  0.4975
  757MOL0     H 2131   7.252   4.957  10.396 -0.9051  0.9845 -1.4630
  757MOL0     H 2132   7.342   5.235  10.405  2.1449 -0.7923 -0.8563
  757MOL0     H 2133   7.372   5.124  10.552 -5.0764 -1.7387  0.9564
  757MOL0     H 2134   7.487   4.966  10.403 -2.5533 -0.0413  1.5127
  757MOL0     H 2135   7.427   5.052  10.260 -0.6744 -0.4235  0.4130
  757MOL0     H 2136   7.662   5.086  10.277 -2.3820 -1.9889 -1.1156
  757MOL0     H 2137   7.603   5.242  10.335 -2.6696 -0.0323 -1.8973
  757MOL0     H 2138   7.620   5.128  10.579  3.6845 -1.2112  3.7780
  757MOL0     H 2139   7.715   5.007  10.484 -0.5575 -0.6701  0.1631
  757MOL0     H 2140   7.866   5.201  10.405  0.7287  1.7453  0.3834
  757MOL0     H 2141   7.771   5.306  10.512  2.3460  0.1424  1.0933
  757MOL0     H 2142   7.938   5.069  10.594  0.3433 -0.2299  0.8811
  757MOL0     H 2143   7.976   5.247  10.601  0.8450 -1.2176 -3.7509
  757MOL0     H 2144   7.788   5.275  10.762 -1.0027 -0.3928 -1.4539
  757MOL0     H 2145   7.917   5.179  10.817  0.1855 -1.8378 -0.6254
  757MOL0     H 2146   7.610   5.139  10.949  1.5532  1.5253 -1.0053
  757MOL0     H 2147   7.565   4.798  11.052  1.4207  0.5572 -0.2944
  757MOL0     H 2148   7.461   4.938  11.027  0.9111  1.3140  0.2997
  757MOL0     H 2149   7.345   4.733  10.957 -2.9325  0.0007 -1.4930
  757MOL0     H 2150   7.473   4.702  10.834 -0.9552 -2.6662  4.2862
  757MOL0     H 2151   7.353   4.819  10.687  2.0220 -0.0625 -0.2141
  757MOL0     H 2152   7.375   4.965  10.782  0.0975  0.0568  1.2450
  757MOL0     H 2153   7.148   4.915  10.739  0.8425 -1.9575 -2.2317
  757MOL0     H 2154   7.188   4.928  10.915 -1.4479 -0.1975  0.4405
  757MOL0     H 2155   7.093   4.590  11.044 -0.1891  1.0122  1.4365
  757MOL0     H 2156   6.809   4.443  11.149 -1.6229  1.5582  0.7542
  757MOL0     H 2157   6.973   4.481  11.202  1.4233  1.2246 -1.7100
  757MOL0     H 2158   6.842   4.572  11.275 -0.8927 -0.1898  0.3003
  757MOL0     H 2159   6.434   4.496  11.151 -1.8089 -2.5944 -1.4451
  757MOL0     H 2160   6.206   4.458  11.209 -2.2015 -1.5239 -1.5695
  757MOL0     H 2161   5.883   4.769  11.085  1.4516  0.1099  1.5396
  757MOL0     H 2162   5.906   4.637  10.976 -3.5318  1.2868 -0.9119
  757MOL0     H 2163   5.762   4.487  11.088 -1.0170  0.8206 -2.0699
  757MOL0     H 2164   5.755   4.603  11.231  1.3001  1.4326 -0.0125
  757MOL0     H 2165   5.623   4.644  10.957 -0.6163 -0.4918 -0.4019
  757MOL0     H 2166   5.625   4.760  11.087 -0.8459  0.1307  0.0810
  757MOL0     H 2167   5.511   4.473  11.124 -1.6237  0.2819 -3.8144
  757MOL0     H 2168   5.494   4.616  11.227  2.7695 -0.4548  0.9897
  757MOL0     H 2169   5.386   4.575  10.939 -1.6568  1.6891 -0.8814
  757MOL0     H 2170   5.361   4.726  11.036 -2.1110 -0.6803 -0.8913
  757MOL0     H 2171   5.285   4.451  11.119  1.6417 -0.3159 -1.8639
  757MOL0     H 2172   5.265   4.579  11.230  1.5744 -1.1883 -0.3049
  757MOL0     H 2173   5.139   4.568  10.955  1.2371  1.1671  0.1667
  757MOL0     H 2174   5.119   4.704  11.059  0.3947  0.9585  1.9989
  757MOL0     H 2175   5.060   4.410  11.126  0.4908  0.4647  2.6996
  757MOL0     H 2176   4.944   4.515  11.031 -1.9812  0.8203  2.4369
  757MOL0     H 2177   6.077   4.797  10.975 -0.6773  0.6383  2.4281
  757MOL0     H 2178   6.324   4.812  10.892  2.5653  3.0867  2.0012
  757MOL0     H 2179   6.696   4.812  10.841 -0.3661  1.4327  2.1286
  757MOL0     H 2180   6.916   4.844  10.740  0.3589  2.3944  1.2084
  757MOL0     H 2181   6.966   5.206  10.143 -0.6210  0.4953  1.8663
  757MOL0     H 2182   6.740   5.143  10.116  2.2732  2.9951 -1.1923
  757MOL0     H 2183   6.469   4.578  10.159  0.4641  0.4686 -0.2926
  757MOL0     H 2184   6.258   4.511  10.092 -2.9726 -0.4232  0.5823
  757MOL0     H 2185   6.089   4.532   9.965  0.9020 -0.2113  2.0849
  757MOL0     H 2186   5.961   4.477  10.073 -4.4231 -0.3790 -0.4141
  757MOL0     H 2187   5.864   4.515   9.859 -0.9104  0.5674  0.6710
  757MOL0     H 2188   5.921   4.679   9.853 -2.3945 -0.3566 -1.9158
  757MOL0     H 2189   5.717   4.711   9.898  0.2964 -1.7210 -0.9267
  757MOL0     H 2190   5.765   4.724  10.064 -0.7524  2.7555 -2.1494
  757MOL0     H 2191   5.696   4.477  10.082  1.4863  0.7375 -0.8556
  757MOL0     H 2192   5.624   4.493   9.918  1.0140 -1.5841  0.0842
  757MOL0     H 2193   5.336   4.706  10.122 -0.1421 -1.5642  0.5735
  757MOL0     H 2194   6.113   4.910  10.150 -1.1806  0.0786  1.0734
  757MOL0     H 2195   6.358   4.977  10.235  0.0845  0.3380  2.1650
  758MOL0     O 2196   7.074   0.572   6.410  0.2171  0.1983  0.0287
  758MOL0     C 2197   7.144   0.507   6.483  1.0188  0.2604 -1.0866
  758MOL0     O 2198   7.096   0.409   6.572  0.0871  0.7183  0.2444
  758MOL0     C 2199   6.968   0.374   6.550  0.2763 -0.4776 -0.0154
  758MOL0     C 2200   6.854   0.424   6.616  0.0594 -0.6909 -0.4185
  758MOL0     C 2201   6.729   0.365   6.585 -0.4015 -0.2512 -0.4680
  758MOL0     C 2202   6.704   0.284   6.474  0.4618  0.1491 -0.3300
  758MOL0     O 2203   6.569   0.247   6.451  0.4350 -0.6609  0.0781
  758MOL0     C 2204   6.536   0.207   6.321  1.0604  0.3121 -0.2733
  758MOL0     C 2205   6.382   0.198   6.307 -0.3836 -0.4899  0.6613
  758MOL0     C 2206   6.324   0.076   6.385 -0.3933  0.5087  0.0128
  758MOL0     C 2207   6.173   0.085   6.403  0.1867 -0.3159 -0.5077
  758MOL0     C 2208   6.100   0.118   6.278  0.3462 -0.3223 -0.6148
  758MOL0     C 2209   6.104   0.025   6.160 -0.5340  0.4067 -0.5291
  758MOL0     C 2210   6.106   0.116   6.032  0.3059 -0.1224 -0.4131
  758MOL0     C 2211   5.966   0.168   6.004  1.2202  0.1574  0.7500
  758MOL0     N 2212   5.953   0.222   5.868  0.6088  0.1837 -0.7111
  758MOL0     C 2213   6.004   0.337   5.821  0.2125  0.1502  1.1219
  758MOL0     C 2214   5.942   0.352   5.700  0.3963 -0.3942  0.2573
  758MOL0     C 2215   5.983   0.466   5.604 -0.8346  0.3632 -0.5327
  758MOL0     C 2216   5.993   0.410   5.457  0.0165 -0.0503  0.1959
  758MOL0     C 2217   5.854   0.387   5.386  1.1316 -0.0312 -0.0849
  758MOL0     C 2218   5.866   0.378   5.232  0.3212  0.0679  0.5062
  758MOL0     O 2219   5.738   0.408   5.181 -0.1974 -0.2691  0.0476
  758MOL0     C 2220   5.728   0.351   5.058  0.4386  0.5267  1.2840
  758MOL0     C 2221   5.658   0.231   5.034  0.0001  0.1562  0.1950
  758MOL0     C 2222   5.643   0.182   4.901  0.1020  0.0910  0.4999
  758MOL0     C 2223   5.574   0.048   4.884 -0.3606 -0.2236 -0.2839
  758MOL0     C 2224   5.697   0.256   4.791  1.0128 -0.3278 -1.2935
  758MOL0     C 2225   5.714   0.209   4.657 -1.1832 -0.8708 -0.1999
  758MOL0     O 2226   5.834   0.230   4.593  0.4754 -0.1073 -0.1140
  758MOL0     C 2227   5.838   0.198   4.460 -0.0207 -0.0824  0.9947
  758MOL0     C 2228   5.856   0.068   4.423  0.2183  0.2477 -0.6139
  758MOL0     C 2229   5.852   0.025   4.291 -0.1551 -0.1903 -0.4104
  758MOL0     C 2230   5.834   0.123   4.191  0.6579  0.4677 -0.3928
  758MOL0     O 2231   5.837   0.083   4.060  0.4104 -0.0729 -0.7541
  758MOL0     C 2232   5.972   0.029   4.024 -0.4258 -0.0961 -0.3325
  758MOL0     C 2233   5.960  -0.112   3.963 -0.1545 -0.0440  0.0481
  758MOL0     C 2234   6.086  -0.188   3.930  0.6212  0.6142 -0.1776
  758MOL0     C 2235   6.155  -0.242   4.053 -0.3060 -0.2989 -0.0158
  758MOL0     C 2236   6.271  -0.336   4.007 -0.3746  0.5732  0.2758
  758MOL0     C 2237   6.324  -0.411   4.139  0.4249 -0.0060  0.3882
  758MOL0     C 2238   6.435  -0.506   4.100 -0.7842 -0.2662  0.3870
  758MOL0     C 2239   6.506  -0.558   4.229 -0.9191 -0.3595  0.3296
  758MOL0    Cl 2240   6.610  -0.418   4.309  0.1456 -0.3899  0.3072
  758MOL0     C 2241   5.816   0.252   4.229 -0.0212 -0.3374  0.6755
  758MOL0     C 2242   5.823   0.291   4.360 -0.0575 -0.8572  0.5925
  758MOL0     O 2243   5.610   0.187   4.602  0.6470  0.7520  0.2413
  758MOL0     C 2244   5.769   0.376   4.824  0.8506 -0.2552 -0.8526
  758MOL0     C 2245   5.775   0.421   4.953 -0.0089 -0.5977  0.4861
  758MOL0     N 2246   5.854   0.247   5.675  0.0425  0.1668 -0.7237
  758MOL0     N 2247   5.863   0.171   5.782 -0.1063  0.0070 -0.0758
  758MOL0     C 2248   6.816   0.244   6.405  0.2172  0.3708  0.4559
  758MOL0     C 2249   6.945   0.287   6.442 -0.4203  0.2921  0.1169
  758MOL0     C 2250   7.288   0.528   6.482  0.4437 -1.3129  0.2231
  758MOL0     C 2251   7.370   0.445   6.557  0.2504 -0.0619  0.7380
  758MOL0     C 2252   7.509   0.467   6.562 -0.4281 -0.0097  0.0361
  758MOL0     C 2253   7.568   0.568   6.491  0.5180  0.1686 -0.2170
  758MOL0     O 2254   7.705   0.555   6.490  1.0175 -0.5561  0.3301
  758MOL0     C 2255   7.774   0.683   6.494  0.1017  0.0561 -0.2115
  758MOL0     C 2256   7.875   0.695   6.386  0.1709 -0.0537  0.1117
  758MOL0     C 2257   7.911   0.846   6.366 -0.4110  0.7375  0.0782
  758MOL0     C 2258   7.822   0.942   6.281 -0.7928  0.1350 -0.8547
  758MOL0     C 2259   7.709   0.994   6.359  1.0057  0.2235 -0.1513
  758MOL0     C 2260   7.620   1.019   6.433 -0.1819 -0.0715 -0.9096
  758MOL0     C 2261   7.486   0.639   6.397 -1.3061  0.7223  0.1327
  758MOL0     C 2262   7.349   0.624   6.399  0.9084 -0.0064  0.4148
  758MOL0     H 2263   6.865   0.505   6.688 -0.2652  0.2906 -1.4395
  758MOL0     H 2264   6.641   0.414   6.625 -0.2377  1.0783 -1.6653
  758MOL0     H 2265   6.567   0.284   6.250  3.1721 -0.0109  0.2342
  758MOL0     H 2266   6.596   0.121   6.290  1.2572  0.3812 -0.0832
  758MOL0     H 2267   6.342   0.290   6.350  0.7444  0.7435 -0.8175
  758MOL0     H 2268   6.360   0.180   6.201 -0.6841 -1.6674  0.9036
  758MOL0     H 2269   6.355  -0.012   6.328 -1.1048 -0.0405  0.4512
  758MOL0     H 2270   6.373   0.074   6.483 -1.6964 -2.1423  0.7041
  758MOL0     H 2271   6.138  -0.014   6.434 -2.2049  0.4551 -0.5284
  758MOL0     H 2272   6.146   0.144   6.491  2.3066 -1.8356  1.2818
  758MOL0     H 2273   5.996   0.109   6.308  0.9762 -2.6724  1.1523
  758MOL0     H 2274   6.114   0.223   6.252 -1.2976  0.6868  2.2466
  758MOL0     H 2275   6.203  -0.021   6.162 -1.4167 -1.5503  0.5756
  758MOL0     H 2276   6.042  -0.065   6.155  0.4472 -0.3469  0.3746
  758MOL0     H 2277   6.168   0.206   6.035  1.0840 -0.4584 -3.2000
  758MOL0     H 2278   6.148   0.066   5.944  0.9990  1.8953 -1.2847
  758MOL0     H 2279   5.950   0.248   6.077  1.3923  0.9848 -0.1089
  758MOL0     H 2280   5.897   0.087   6.029  2.1027 -0.2228  2.1157
  758MOL0     H 2281   6.092   0.391   5.855  0.6198 -0.0862  0.4530
  758MOL0     H 2282   5.902   0.539   5.611 -1.0236  0.0168  1.4162
  758MOL0     H 2283   6.077   0.508   5.640 -0.4975 -1.3872  0.7533
  758MOL0     H 2284   6.051   0.317   5.463  1.7710  0.9857  0.2607
  758MOL0     H 2285   6.055   0.482   5.402  1.5977 -1.4457  0.0678
  758MOL0     H 2286   5.780   0.464   5.410  0.8276 -0.6608  1.0607
  758MOL0     H 2287   5.816   0.288   5.412 -0.7944  0.7762  0.3161
  758MOL0     H 2288   5.892   0.274   5.210  1.4903  0.5819 -0.6305
  758MOL0     H 2289   5.950   0.436   5.193  0.0660  0.0327 -0.1103
  758MOL0     H 2290   5.635   0.166   5.117  2.4652 -2.7694 -1.2325
  758MOL0     H 2291   5.477   0.051   4.935 -1.2487  0.8893 -1.9231
  758MOL0     H 2292   5.558   0.021   4.779 -1.1387  1.1963 -0.5642
  758MOL0     H 2293   5.639  -0.027   4.931 -1.1479 -1.1852 -0.7055
  758MOL0     H 2294   5.866   0.002   4.508  0.0165  0.5003 -0.3952
  758MOL0     H 2295   5.854  -0.082   4.273  2.9732 -0.2145 -0.4043
  758MOL0     H 2296   6.015   0.096   3.950 -1.1201 -0.7739 -1.3732
  758MOL0     H 2297   6.046   0.018   4.103  2.7062  1.7657 -2.7887
  758MOL0     H 2298   5.894  -0.174   4.024  0.0176 -1.0872 -0.7887
  758MOL0     H 2299   5.905  -0.105   3.868 -1.4055  0.5547  0.7953
  758MOL0     H 2300   6.143  -0.127   3.859  0.6183 -1.5266 -2.1441
  758MOL0     H 2301   6.059  -0.281   3.880  1.1583 -0.0419  0.7371
  758MOL0     H 2302   6.203  -0.163   4.112  2.6163 -1.8873 -0.0709
  758MOL0     H 2303   6.087  -0.290   4.124  0.3027  1.0664  1.5617
  758MOL0     H 2304   6.352  -0.271   3.973  0.8646  0.1102  2.1813
  758MOL0     H 2305   6.236  -0.408   3.933  0.4898  2.0288 -1.6261
  758MOL0     H 2306   6.360  -0.332   4.205  2.3839 -1.0798  0.7054
  758MOL0     H 2307   6.242  -0.470   4.181 -1.4517  1.4953 -1.0232
  758MOL0     H 2308   6.501  -0.460   4.026 -2.2376  1.5594  0.1421
  758MOL0     H 2309   6.388  -0.591   4.050 -0.4792 -0.8212  1.0337
  758MOL0     H 2310   6.574  -0.641   4.206 -0.1521 -0.2303  2.0278
  758MOL0     H 2311   6.436  -0.602   4.300 -1.8965 -0.1950 -0.5050
  758MOL0     H 2312   5.795   0.323   4.150 -1.1361 -2.8400 -1.4455
  758MOL0     H 2313   5.803   0.395   4.386  1.9786 -0.9863  3.0692
  758MOL0     H 2314   5.813   0.447   4.754  1.0297  2.3476  1.7069
  758MOL0     H 2315   5.826   0.516   4.969  0.6240 -0.2794 -2.7046
  758MOL0     H 2316   6.793   0.170   6.329  0.9825  0.7002 -0.1087
  758MOL0     H 2317   7.023   0.251   6.375 -0.8371  0.5043 -0.5012
  758MOL0     H 2318   7.328   0.356   6.603 -0.5641  0.6003  1.3162
  758MOL0     H 2319   7.563   0.407   6.635  0.1286  0.9849  0.4636
  758MOL0     H 2320   7.699   0.761   6.484  1.2253  1.6001  2.4043
  758MOL0     H 2321   7.822   0.698   6.592  3.1450 -1.8084 -1.2536
  758MOL0     H 2322   7.830   0.645   6.300 -2.1169 -0.8961  1.6724
  758MOL0     H 2323   7.969   0.639   6.390  0.8897  0.8939 -2.2059
  758MOL0     H 2324   8.001   0.835   6.303 -1.3820 -1.7167 -1.0268
  758MOL0     H 2325   7.945   0.889   6.460  1.1877 -0.2017 -0.0189
  758MOL0     H 2326   7.784   0.896   6.189  0.3680 -1.4953 -0.5558
  758MOL0     H 2327   7.890   1.026   6.261  1.6343 -0.9984  1.8392
  758MOL0     H 2328   7.540   1.060   6.492 -0.3239  0.2152 -1.2994
  758MOL0     H 2329   7.531   0.690   6.312  3.1017 -0.6682  1.3475
  758MOL0     H 2330   7.281   0.672   6.330 -0.1467 -0.3979  1.1645
  759MOL0     O 2331   5.336   5.097   7.992 -0.0882  0.3975 -0.5912
  759MOL0     C 2332   5.307   5.083   7.876  0.0383  0.9591  0.6843
  759MOL0     O 2333   5.184   5.117   7.818  0.2701 -0.1311 -0.4550
  759MOL0     C 2334   5.093   5.199   7.880 -0.0149 -0.0308  0.4007
  759MOL0     C 2335   5.113   5.271   7.994  0.9524 -0.7155 -0.2720
  759MOL0     C 2336   5.004   5.347   8.056  0.3369 -0.2882  0.7254
  759MOL0     C 2337   4.873   5.346   7.999  0.8255 -0.4521 -0.4888
  759MOL0     O 2338   4.784   5.427   8.064 -0.0669 -0.3290  0.0615
  759MOL0     C 2339   4.657   5.457   8.001 -0.2613  0.3646  0.5314
  759MOL0     C 2340   4.557   5.515   8.103 -0.6998  0.2497  0.3686
  759MOL0     C 2341   4.510   5.418   8.209  0.1590  0.2193 -0.2484
  759MOL0     C 2342   4.380   5.486   8.271 -0.7879  0.1019  0.0614
  759MOL0     C 2343   4.307   5.401   8.384 -0.7756 -0.7020 -0.5860
  759MOL0     C 2344   4.186   5.461   8.447 -0.6389  0.2530  0.5319
  759MOL0     C 2345   4.112   5.363   8.537 -0.6189 -0.1351  0.2455
  759MOL0     C 2346   4.003   5.433   8.620 -0.3816  0.1802  0.0317
  759MOL0     N 2347   3.902   5.499   8.541 -0.1591 -0.2854 -0.2864
  759MOL0     C 2348   3.806   5.444   8.445 -0.1166  0.2798  0.2876
  759MOL0     C 2349   3.736   5.555   8.417 -0.4072 -0.4852 -0.7834
  759MOL0     C 2350   3.613   5.574   8.335 -0.1359 -0.1629 -0.1271
  759MOL0     C 2351   3.504   5.462   8.354  0.1327 -0.5727  0.5207
  759MOL0     C 2352   3.460   5.443   8.496 -0.0187  0.3280  0.5366
  759MOL0     C 2353   3.402   5.568   8.572 -0.8089  0.0131 -0.3576
  759MOL0     O 2354   3.277   5.605   8.504 -0.4435  0.7655 -0.5378
  759MOL0     C 2355   3.153   5.540   8.522 -0.7885 -0.5588 -0.5210
  759MOL0     C 2356   3.041   5.604   8.475 -0.4849 -0.7718  0.1936
  759MOL0     C 2357   2.909   5.566   8.507  0.0099 -0.2303 -0.0050
  759MOL0     C 2358   2.805   5.664   8.455  0.3374  0.9439  0.0284
  759MOL0     C 2359   2.885   5.436   8.563  0.0381  0.1669 -0.6586
  759MOL0     C 2360   2.750   5.381   8.598 -0.6573 -0.0980  0.7076
  759MOL0     O 2361   2.750   5.255   8.655  0.1474  0.3605  0.1547
  759MOL0     C 2362   2.637   5.204   8.709 -0.4599  0.2304  0.0070
  759MOL0     C 2363   2.603   5.251   8.834  0.5452  0.3160 -0.1058
  759MOL0     C 2364   2.489   5.193   8.910  0.2575 -0.6597  0.0115
  759MOL0     C 2365   2.411   5.089   8.856 -0.4237 -0.5514  0.2458
  759MOL0     O 2366   2.316   5.035   8.937  0.7435  0.6341 -0.5819
  759MOL0     C 2367   2.264   4.899   8.916  0.5541 -0.1370 -0.1099
  759MOL0     C 2368   2.128   4.864   8.994 -0.5080  0.2974  0.1974
  759MOL0     C 2369   2.015   4.945   8.935  0.7673 -0.0404 -0.2298
  759MOL0     C 2370   1.882   4.887   8.969 -1.1866  1.0048 -0.1561
  759MOL0     C 2371   1.779   4.962   8.889 -0.0869 -0.0399  0.1785
  759MOL0     C 2372   1.635   4.899   8.898 -1.1277  0.1569 -0.2291
  759MOL0     C 2373   1.529   5.004   8.871 -0.0163 -0.8937 -0.1267
  759MOL0     C 2374   1.391   4.959   8.921 -0.1636 -0.5699 -0.2989
  759MOL0    Cl 2375   1.270   5.086   8.899  0.0695 -0.2272 -0.4853
  759MOL0     C 2376   2.446   5.042   8.727  0.1132  0.4957 -0.3564
  759MOL0     C 2377   2.561   5.101   8.660  0.0880 -0.0052 -0.0618
  759MOL0     O 2378   2.649   5.450   8.585  0.5060  0.1680 -0.2764
  759MOL0     C 2379   2.999   5.363   8.595 -0.1084 -0.9862 -0.1101
  759MOL0     C 2380   3.128   5.416   8.584  0.1508 -0.1864 -0.0293
  759MOL0     N 2381   3.792   5.660   8.488  0.8861  0.1655 -0.2137
  759MOL0     N 2382   3.890   5.631   8.563  1.1325  0.0145  0.2514
  759MOL0     C 2383   4.855   5.279   7.875  0.1285  0.3685 -0.0904
  759MOL0     C 2384   4.964   5.207   7.822  0.5295 -0.4273  0.8303
  759MOL0     C 2385   5.416   5.018   7.792  0.6847 -0.4671 -0.1387
  759MOL0     C 2386   5.537   4.973   7.843  0.0811  0.1941 -0.0154
  759MOL0     C 2387   5.646   4.926   7.761  0.1835 -0.7542 -0.0800
  759MOL0     C 2388   5.628   4.914   7.620  0.4847 -0.4193  0.2056
  759MOL0     O 2389   5.726   4.883   7.532 -0.2998 -0.1173  0.0274
  759MOL0     C 2390   5.859   4.916   7.575  0.6543 -0.2422 -0.6964
  759MOL0     C 2391   5.940   4.926   7.451 -0.1114  0.1256  0.8509
  759MOL0     C 2392   6.014   4.801   7.426  0.6264 -0.9997  0.0044
  759MOL0     C 2393   5.923   4.677   7.399 -0.2917 -0.2652  0.3394
  759MOL0     C 2394   5.997   4.556   7.396  0.5385  0.6043  0.2814
  759MOL0     C 2395   6.066   4.456   7.395 -0.6166 -0.1499 -0.8811
  759MOL0     C 2396   5.507   4.966   7.570 -0.1720 -0.7422  0.2275
  759MOL0     C 2397   5.410   5.015   7.654  0.6172 -0.5320 -0.8298
  759MOL0     H 2398   5.202   5.267   8.056  2.3839 -2.8377 -2.2935
  759MOL0     H 2399   5.023   5.409   8.143  0.1237  1.9604 -0.7560
  759MOL0     H 2400   4.662   5.516   7.909 -1.1928  1.4345  1.1343
  759MOL0     H 2401   4.615   5.364   7.963 -0.4506  0.5489  0.2792
  759MOL0     H 2402   4.614   5.597   8.147 -1.3271  0.3666  0.9838
  759MOL0     H 2403   4.466   5.541   8.048  1.0329  0.5787 -2.5456
  759MOL0     H 2404   4.473   5.334   8.151 -1.7568  2.3124 -2.2888
  759MOL0     H 2405   4.575   5.391   8.293 -1.2613  1.0950  1.2123
  759MOL0     H 2406   4.393   5.592   8.297  1.0634  0.4464 -2.0275
  759MOL0     H 2407   4.306   5.486   8.191 -1.2988  1.6959  0.4953
  759MOL0     H 2408   4.290   5.296   8.359 -0.4742 -0.9155  0.0792
  759MOL0     H 2409   4.379   5.408   8.465 -0.2407  3.3979 -1.1921
  759MOL0     H 2410   4.225   5.542   8.509  2.2502 -2.3732  2.4669
  759MOL0     H 2411   4.128   5.506   8.366  1.2394 -2.6822 -2.7391
  759MOL0     H 2412   4.078   5.293   8.460  1.2090  0.5861 -1.2883
  759MOL0     H 2413   4.184   5.309   8.600 -0.6802  0.1382  0.5520
  759MOL0     H 2414   4.050   5.509   8.683  1.1442  0.6029 -1.5505
  759MOL0     H 2415   3.955   5.351   8.676  1.8790 -3.0938 -2.4085
  759MOL0     H 2416   3.778   5.348   8.403  1.9047 -1.0547  1.8026
  759MOL0     H 2417   3.563   5.668   8.358  2.1019  1.5708 -1.9308
  759MOL0     H 2418   3.637   5.588   8.229  0.5790  2.0412  0.2722
  759MOL0     H 2419   3.554   5.375   8.313 -0.4732 -1.5291  1.7563
  759MOL0     H 2420   3.416   5.494   8.298  0.2311 -1.2382 -0.0268
  759MOL0     H 2421   3.551   5.409   8.547  0.9164 -1.1171 -1.8908
  759MOL0     H 2422   3.384   5.365   8.489  1.8969 -1.5804 -0.2897
  759MOL0     H 2423   3.464   5.656   8.552 -0.8920 -0.3916 -2.7208
  759MOL0     H 2424   3.386   5.539   8.676  2.1063  1.5697  0.6345
  759MOL0     H 2425   3.060   5.700   8.430 -3.1387 -1.1444 -1.9429
  759MOL0     H 2426   2.723   5.620   8.399 -0.5227 -0.6131  2.3353
  759MOL0     H 2427   2.760   5.718   8.539 -0.1710 -2.3259  2.0559
  759MOL0     H 2428   2.858   5.726   8.383 -1.9141  1.1770 -1.5356
  759MOL0     H 2429   2.656   5.332   8.882  1.5183 -1.1481  1.4478
  759MOL0     H 2430   2.481   5.238   9.009 -1.1219  2.3575 -1.3448
  759MOL0     H 2431   2.241   4.890   8.809  0.0774 -4.2570  0.1722
  759MOL0     H 2432   2.339   4.830   8.956 -1.1803 -0.2627  3.2075
  759MOL0     H 2433   2.102   4.759   8.979  1.1707 -0.1416  0.1926
  759MOL0     H 2434   2.139   4.890   9.100 -0.7135 -2.6237  1.0043
  759MOL0     H 2435   2.027   4.947   8.826 -0.5843 -0.5582 -0.4108
  759MOL0     H 2436   2.016   5.050   8.966 -0.5154 -0.1273  0.1633
  759MOL0     H 2437   1.880   4.780   8.948 -0.5986  0.7522  0.9903
  759MOL0     H 2438   1.866   4.894   9.077  2.6098  1.2692  0.5239
  759MOL0     H 2439   1.794   4.954   8.781 -2.3606 -0.1319 -0.1897
  759MOL0     H 2440   1.782   5.067   8.918  1.3715  0.7156 -2.4450
  759MOL0     H 2441   1.629   4.810   8.834  2.6194  0.1598 -0.7914
  759MOL0     H 2442   1.620   4.863   9.000 -2.6809 -1.9388 -1.1150
  759MOL0     H 2443   1.535   5.025   8.764  0.0629 -4.1159 -0.8694
  759MOL0     H 2444   1.552   5.098   8.922 -0.1087  0.0452 -1.7287
  759MOL0     H 2445   1.396   4.925   9.025  2.8659  1.2028  0.2569
  759MOL0     H 2446   1.356   4.870   8.868 -1.5491  0.7226 -1.6497
  759MOL0     H 2447   2.385   4.964   8.683 -0.7616  0.7389  0.3960
  759MOL0     H 2448   2.587   5.072   8.558  0.6178 -1.1727  0.3936
  759MOL0     H 2449   2.993   5.264   8.639  0.8003 -0.0355  2.3202
  759MOL0     H 2450   3.205   5.347   8.617  0.9863  0.2245 -1.0611
  759MOL0     H 2451   4.755   5.287   7.834 -0.0780  1.9915  0.6681
  759MOL0     H 2452   4.946   5.159   7.726  0.9731 -0.7166  0.8866
  759MOL0     H 2453   5.553   4.984   7.950 -0.8820 -2.1207  0.4471
  759MOL0     H 2454   5.741   4.892   7.800 -1.2843 -2.0707  2.5817
  759MOL0     H 2455   5.855   5.002   7.643 -0.0674 -1.5347  0.9849
  759MOL0     H 2456   5.896   4.837   7.641 -1.6368 -0.6626  0.1911
  759MOL0     H 2457   6.019   5.001   7.462 -0.1122  0.3328 -0.3560
  759MOL0     H 2458   5.879   4.950   7.363  1.3794  0.4717 -0.1274
  759MOL0     H 2459   6.080   4.790   7.513 -1.7503  1.4763  2.3220
  759MOL0     H 2460   6.091   4.814   7.349  0.9245  0.1433  0.4653
  759MOL0     H 2461   5.878   4.696   7.301 -1.6952  0.5998  1.1223
  759MOL0     H 2462   5.849   4.671   7.479 -1.1871 -0.7710 -0.5062
  759MOL0     H 2463   6.130   4.371   7.409 -1.9055 -0.8364  1.3101
  759MOL0     H 2464   5.499   4.959   7.462  2.8400  0.6247 -0.1967
  759MOL0     H 2465   5.318   5.055   7.613  0.2436  0.9062  1.2258
  760MOL0     O 2466  10.882   7.364   9.301  0.5841  0.5492 -0.0209
  760MOL0     C 2467  10.984   7.298   9.323 -1.0755 -0.2148  0.3264
  760MOL0     O 2468  10.990   7.190   9.402  0.1526  0.5028 -0.0605
  760MOL0     C 2469  10.871   7.144   9.453 -0.5003  0.4905 -0.8944
  760MOL0     C 2470  10.792   7.069   9.373  0.3691  0.1397  0.0044
  760MOL0     C 2471  10.678   7.002   9.426 -0.4302  0.0348 -0.0186
  760MOL0     C 2472  10.642   7.022   9.563  0.2152  0.4645  0.6632
  760MOL0     O 2473  10.526   6.967   9.605  0.1976  0.0685 -0.4992
  760MOL0     C 2474  10.411   7.048   9.573 -1.0511 -0.2424 -0.1143
  760MOL0     C 2475  10.286   6.996   9.627 -0.5527  0.0154 -0.7679
  760MOL0     C 2476  10.161   7.085   9.614 -1.0103  0.0277 -1.0322
  760MOL0     C 2477  10.039   7.026   9.671  0.1103  0.4729  0.1663
  760MOL0     C 2478   9.921   7.114   9.640  0.1805 -0.0407 -0.4484
  760MOL0     C 2479   9.799   7.056   9.696  0.4477  0.0657  0.7710
  760MOL0     C 2480   9.677   7.147   9.649  0.9618  1.3530  0.7785
  760MOL0     C 2481   9.663   7.266   9.736 -0.1291  0.8488 -0.5289
  760MOL0     N 2482   9.539   7.343   9.728  0.7638 -0.5485  0.1957
  760MOL0     C 2483   9.519   7.476   9.699 -0.1674  0.0262  0.5724
  760MOL0     C 2484   9.392   7.484   9.663  0.2287  0.3543  0.0429
  760MOL0     C 2485   9.315   7.608   9.623  0.8102  0.1198  0.2419
  760MOL0     C 2486   9.249   7.597   9.489  0.6604 -0.5705 -0.1117
  760MOL0     C 2487   9.208   7.733   9.437  1.0390 -0.1758 -0.3073
  760MOL0     C 2488   9.080   7.765   9.515 -0.0204 -0.4287  0.4216
  760MOL0     O 2489   8.975   7.690   9.457  0.2337  0.1409  0.3340
  760MOL0     C 2490   8.847   7.724   9.493 -0.4558 -0.8771 -1.2703
  760MOL0     C 2491   8.817   7.817   9.592 -0.2409  0.4541  0.0892
  760MOL0     C 2492   8.683   7.871   9.612  0.1424 -0.8810  0.0783
  760MOL0     C 2493   8.687   7.981   9.717  0.4635  0.3058 -0.2723
  760MOL0     C 2494   8.572   7.819   9.552  0.3230  0.4379 -0.0397
  760MOL0     C 2495   8.436   7.860   9.575  0.6114  0.5479  0.0460
  760MOL0     O 2496   8.354   7.868   9.466 -0.5635 -0.2688 -0.8543
  760MOL0     C 2497   8.225   7.918   9.473 -0.0837 -0.0250  0.6085
  760MOL0     C 2498   8.145   7.888   9.363 -0.2051 -0.2938  0.0505
  760MOL0     C 2499   8.029   7.953   9.332 -0.1052  0.5483  0.2814
  760MOL0     C 2500   7.980   8.037   9.432 -1.2393  0.2708  0.0599
  760MOL0     O 2501   7.863   8.098   9.413  0.4997 -0.3244  0.4651
  760MOL0     C 2502   7.770   8.110   9.516 -0.2525  0.5143 -0.5512
  760MOL0     C 2503   7.638   8.163   9.448 -0.7807  0.5507 -0.0282
  760MOL0     C 2504   7.514   8.168   9.529 -0.8032 -0.4048 -0.6065
  760MOL0     C 2505   7.391   8.141   9.444  0.4024 -0.0367  0.2133
  760MOL0     C 2506   7.360   8.266   9.358 -0.6291  0.1827 -0.0554
  760MOL0     C 2507   7.228   8.232   9.282 -0.5333  0.5750  0.2556
  760MOL0     C 2508   7.103   8.247   9.372 -0.5459  0.9322 -0.3395
  760MOL0     C 2509   6.976   8.269   9.296 -0.8893 -0.4867 -0.0554
  760MOL0    Cl 2510   6.837   8.266   9.405  0.4856  0.1042 -0.8460
  760MOL0     C 2511   8.046   8.055   9.556  0.1575 -0.5378 -0.0974
  760MOL0     C 2512   8.173   8.004   9.571  0.3632  0.6665 -0.4088
  760MOL0     O 2513   8.393   7.869   9.688  0.5490  0.3475 -0.7900
  760MOL0     C 2514   8.602   7.725   9.451  0.6720  0.5528 -0.4642
  760MOL0     C 2515   8.738   7.684   9.419  0.1236  0.2466  0.1573
  760MOL0     N 2516   9.325   7.361   9.682  0.7843  0.1967 -0.5965
  760MOL0     N 2517   9.417   7.278   9.720 -0.2381 -0.4301  0.1825
  760MOL0     C 2518  10.726   7.114   9.636  0.3439 -0.7276  0.1942
  760MOL0     C 2519  10.840   7.165   9.582  0.4484  0.2955  0.8862
  760MOL0     C 2520  11.112   7.365   9.263  0.3701 -0.1344  0.0314
  760MOL0     C 2521  11.237   7.321   9.310 -0.5731  0.3895  1.0537
  760MOL0     C 2522  11.354   7.371   9.247 -0.8174  1.0022  0.6021
  760MOL0     C 2523  11.348   7.470   9.155  0.7029  0.3282 -0.4348
  760MOL0     O 2524  11.465   7.505   9.091  0.3994 -0.2882  0.6548
  760MOL0     C 2525  11.480   7.644   9.050 -0.1217 -0.1114  0.2422
  760MOL0     C 2526  11.634   7.663   9.022  0.3176  0.1755  0.4908
  760MOL0     C 2527  11.725   7.640   9.141 -0.3767 -0.0371  0.4538
  760MOL0     C 2528  11.767   7.775   9.204  0.9961  1.2455 -0.2160
  760MOL0     C 2529  11.658   7.840   9.275  0.6801 -0.6434  0.0994
  760MOL0     C 2530  11.568   7.894   9.337 -0.2677 -0.4386  0.0963
  760MOL0     C 2531  11.224   7.527   9.122 -0.2380  0.1410  0.3848
  760MOL0     C 2532  11.104   7.477   9.176  0.3023  0.8532  0.6943
  760MOL0     H 2533  10.826   7.056   9.271 -0.9092  3.2040 -0.9363
  760MOL0     H 2534  10.609   6.941   9.369  0.9836 -0.0974 -1.6592
  760MOL0     H 2535  10.427   7.151   9.608  0.7725  0.9381 -3.8762
  760MOL0     H 2536  10.401   7.058   9.465  0.6208 -2.0067 -0.4807
  760MOL0     H 2537  10.270   6.901   9.574 -3.0318  0.5067 -1.0123
  760MOL0     H 2538  10.318   6.993   9.731  0.5967  3.6882 -0.9107
  760MOL0     H 2539  10.173   7.183   9.660  1.7721 -0.4416 -0.6035
  760MOL0     H 2540  10.153   7.117   9.510 -2.6836  0.6617 -0.7486
  760MOL0     H 2541  10.029   6.930   9.621 -0.2406  0.6247 -0.0527
  760MOL0     H 2542  10.047   7.012   9.780  0.7540  0.2484  0.0981
  760MOL0     H 2543   9.934   7.218   9.672 -0.7684  0.0605 -0.3629
  760MOL0     H 2544   9.918   7.125   9.531 -1.6361  1.4947 -0.2917
  760MOL0     H 2545   9.789   6.957   9.651 -1.7845  0.8332 -0.6277
  760MOL0     H 2546   9.809   7.055   9.805  1.7571  2.1823  0.7292
  760MOL0     H 2547   9.682   7.176   9.544 -1.9902 -0.0292  0.1516
  760MOL0     H 2548   9.585   7.089   9.658  1.6528  0.3443  1.6864
  760MOL0     H 2549   9.750   7.328   9.713  2.1512 -1.5278  1.1000
  760MOL0     H 2550   9.673   7.225   9.837  0.7519  1.6524 -0.2805
  760MOL0     H 2551   9.586   7.561   9.691  1.0907 -0.7888  1.8233
  760MOL0     H 2552   9.228   7.612   9.689  2.8620  1.5566  3.0970
  760MOL0     H 2553   9.382   7.693   9.640  0.4076  0.9420 -1.9974
  760MOL0     H 2554   9.162   7.531   9.478  1.7865 -1.8706 -1.8982
  760MOL0     H 2555   9.327   7.562   9.420  1.0404 -1.9708  0.9949
  760MOL0     H 2556   9.192   7.727   9.329 -0.7521  1.6440 -0.2084
  760MOL0     H 2557   9.281   7.812   9.454 -0.3871  0.6715  2.5440
  760MOL0     H 2558   9.064   7.873   9.509 -0.4382 -0.4206  1.5246
  760MOL0     H 2559   9.093   7.740   9.621  0.9177 -1.7795  0.0208
  760MOL0     H 2560   8.894   7.852   9.661  1.1313  0.3502 -1.3199
  760MOL0     H 2561   8.754   8.058   9.678  1.8657  0.0721  1.5591
  760MOL0     H 2562   8.587   8.026   9.725 -0.1421 -1.1611  1.1363
  760MOL0     H 2563   8.718   7.945   9.816 -0.7168 -1.1549 -0.3913
  760MOL0     H 2564   8.195   7.830   9.286 -0.8977 -2.8218  1.4098
  760MOL0     H 2565   7.969   7.937   9.243 -0.1252  2.0624  0.0025
  760MOL0     H 2566   7.758   8.008   9.554  0.8758  0.6749  0.3191
  760MOL0     H 2567   7.800   8.179   9.596  1.2659 -0.4975 -0.1932
  760MOL0     H 2568   7.662   8.264   9.413  1.3548 -0.9390 -3.3445
  760MOL0     H 2569   7.625   8.095   9.364  2.4882 -0.4177  0.0786
  760MOL0     H 2570   7.495   8.269   9.567 -0.2117 -1.3536  2.5152
  760MOL0     H 2571   7.513   8.099   9.613 -2.8192 -1.4998 -1.4767
  760MOL0     H 2572   7.415   8.049   9.391  1.0200 -0.5600  1.3703
  760MOL0     H 2573   7.305   8.115   9.506 -0.5466 -1.4245 -1.5704
  760MOL0     H 2574   7.442   8.290   9.290 -2.1237 -1.0409 -2.4041
  760MOL0     H 2575   7.353   8.356   9.420  1.2809 -0.5903  1.3964
  760MOL0     H 2576   7.221   8.286   9.187 -0.0877  1.7313  0.8538
  760MOL0     H 2577   7.242   8.126   9.263 -0.8801  0.6522 -0.4406
  760MOL0     H 2578   7.120   8.323   9.448 -3.3208  0.2515  1.1031
  760MOL0     H 2579   7.104   8.149   9.421 -0.2027 -0.3667 -2.7905
  760MOL0     H 2580   6.963   8.198   9.213  0.5269  0.5037 -1.1796
  760MOL0     H 2581   6.972   8.368   9.250 -2.4080 -0.7117 -0.4627
  760MOL0     H 2582   7.997   8.118   9.629 -1.5953 -0.4939 -1.2460
  760MOL0     H 2583   8.243   8.034   9.648 -2.1736 -0.3078  2.4524
  760MOL0     H 2584   8.519   7.675   9.403  1.0231 -0.7067  0.2084
  760MOL0     H 2585   8.749   7.609   9.342 -4.1383  0.5914 -1.0237
  760MOL0     H 2586  10.695   7.143   9.736  2.8104  1.7914  0.3460
  760MOL0     H 2587  10.903   7.226   9.647 -1.9976  2.2404  1.6121
  760MOL0     H 2588  11.236   7.238   9.381 -1.3469 -4.3390 -3.7937
  760MOL0     H 2589  11.449   7.325   9.271 -0.8101  0.4927 -0.3339
  760MOL0     H 2590  11.428   7.668   8.957 -3.4512  0.9509  2.2219
  760MOL0     H 2591  11.438   7.702   9.132 -1.9274  0.9732 -1.3617
  760MOL0     H 2592  11.648   7.760   8.973 -0.0696  0.0494  0.1214
  760MOL0     H 2593  11.642   7.584   8.947 -0.3439  2.1519 -1.7817
  760MOL0     H 2594  11.810   7.583   9.103  0.1693  1.5917 -0.9358
  760MOL0     H 2595  11.666   7.585   9.215 -2.1210 -0.0053 -0.8474
  760MOL0     H 2596  11.813   7.835   9.125  0.6006  0.2926 -1.1981
  760MOL0     H 2597  11.839   7.746   9.281 -1.7446  0.0273  2.0618
  760MOL0     H 2598  11.489   7.933   9.398 -1.0862 -1.0986 -0.5195
  760MOL0     H 2599  11.220   7.604   9.046 -0.9694  0.7513  1.0245
  760MOL0     H 2600  11.006   7.510   9.142 -1.3960 -1.6116  2.8347
  761MOL0     O 2601   7.046   4.110   4.211  0.0670  0.3760  0.4078
  761MOL0     C 2602   7.050   4.187   4.110  0.5336  0.2217 -0.0376
  761MOL0     O 2603   6.948   4.247   4.052  0.3781 -0.8579  0.2628
  761MOL0     C 2604   6.828   4.195   4.080 -0.2940 -0.4522  0.4515
  761MOL0     C 2605   6.786   4.075   4.022 -0.3626  0.0870  0.2494
  761MOL0     C 2606   6.653   4.027   4.051  0.4021 -0.1000 -0.2514
  761MOL0     C 2607   6.570   4.096   4.134  1.2610 -0.4000 -1.0667
  761MOL0     O 2608   6.442   4.040   4.152 -0.4619  0.3496 -0.5559
  761MOL0     C 2609   6.370   4.096   4.264  0.4140  0.0699  1.1193
  761MOL0     C 2610   6.240   4.037   4.292 -0.1940  0.7141 -0.2435
  761MOL0     C 2611   6.171   3.969   4.183  1.2438 -0.1634  0.8287
  761MOL0     C 2612   6.025   3.961   4.226  0.7395  0.0806  0.4732
  761MOL0     C 2613   5.947   4.088   4.193 -0.1183 -0.9617 -0.0608
  761MOL0     C 2614   5.803   4.052   4.247 -0.4781 -0.5088  0.4710
  761MOL0     C 2615   5.700   4.176   4.228  0.8393  1.1345  0.3425
  761MOL0     C 2616   5.723   4.269   4.348  0.9371 -0.0106  0.3182
  761MOL0     N 2617   5.845   4.343   4.358  0.2694  0.2939  0.1862
  761MOL0     C 2618   5.871   4.461   4.296  0.1022 -0.6720 -0.7517
  761MOL0     C 2619   5.978   4.508   4.375 -0.0474 -0.3099 -0.3038
  761MOL0     C 2620   6.041   4.638   4.331 -0.9506 -0.6184 -0.2732
  761MOL0     C 2621   6.089   4.720   4.451  0.4184 -0.0484  0.0520
  761MOL0     C 2622   5.980   4.806   4.515  0.1881  0.2434  0.0718
  761MOL0     C 2623   5.924   4.916   4.411 -0.1037 -0.0558 -0.4575
  761MOL0     O 2624   5.849   5.024   4.458  0.2101  0.2985 -0.7035
  761MOL0     C 2625   5.726   4.985   4.499 -0.2976 -0.5786 -0.2712
  761MOL0     C 2626   5.685   5.002   4.636  0.0565 -0.4081  0.0297
  761MOL0     C 2627   5.564   4.962   4.675  0.4474 -0.4593 -0.8338
  761MOL0     C 2628   5.536   5.004   4.817 -0.4133 -0.3828  0.2527
  761MOL0     C 2629   5.471   4.900   4.585 -0.0295  0.4810  0.4415
  761MOL0     C 2630   5.325   4.879   4.631 -0.0282  0.0365  0.2727
  761MOL0     O 2631   5.252   4.803   4.543 -0.4615 -0.6877 -0.8648
  761MOL0     C 2632   5.119   4.807   4.553  0.5313 -0.0071  0.5153
  761MOL0     C 2633   5.032   4.920   4.537  0.2043  0.5409  0.8698
  761MOL0     C 2634   4.892   4.911   4.533 -0.1965  0.4004 -0.0480
  761MOL0     C 2635   4.831   4.786   4.534 -0.7168  0.2923  0.6589
  761MOL0     O 2636   4.695   4.778   4.522 -0.0995  0.4900  0.0242
  761MOL0     C 2637   4.655   4.717   4.397 -0.6811  0.4829  0.6058
  761MOL0     C 2638   4.521   4.769   4.367 -0.4244 -0.5536 -0.3510
  761MOL0     C 2639   4.523   4.927   4.344 -0.3323 -0.5571 -0.2046
  761MOL0     C 2640   4.385   4.989   4.288  0.6070  0.0570  0.2761
  761MOL0     C 2641   4.303   5.054   4.403 -0.6277  0.2071 -0.9110
  761MOL0     C 2642   4.258   4.955   4.517  0.0907 -0.3004 -0.5675
  761MOL0     C 2643   4.166   4.851   4.450 -0.6154  0.1266  1.4983
  761MOL0     C 2644   4.102   4.762   4.546  0.3227  0.2724 -0.3090
  761MOL0    Cl 2645   4.034   4.859   4.681  0.4177  0.3027 -0.4594
  761MOL0     C 2646   4.915   4.671   4.546 -0.1021 -0.8261 -0.0694
  761MOL0     C 2647   5.054   4.686   4.553  0.3296  0.4559  1.0880
  761MOL0     O 2648   5.281   4.925   4.742 -0.4388 -0.2568  0.7991
  761MOL0     C 2649   5.513   4.886   4.459  0.3936 -0.0782  0.2734
  761MOL0     C 2650   5.638   4.924   4.411 -0.0929 -0.4405 -0.3692
  761MOL0     N 2651   6.019   4.417   4.467 -0.3216 -0.0775 -0.0717
  761MOL0     N 2652   5.940   4.318   4.447  0.6067  0.2279  0.7868
  761MOL0     C 2653   6.617   4.215   4.197  0.6026 -0.2754  0.8331
  761MOL0     C 2654   6.746   4.259   4.164  0.3431  0.1648 -0.5867
  761MOL0     C 2655   7.196   4.211   4.059  0.7090 -0.3664  0.3921
  761MOL0     C 2656   7.222   4.315   3.964 -0.1831 -0.0876  0.0950
  761MOL0     C 2657   7.354   4.328   3.907  0.2866 -0.2578 -0.0684
  761MOL0     C 2658   7.458   4.241   3.955  0.3636  0.3824  0.9134
  761MOL0     O 2659   7.585   4.233   3.909 -0.8396 -0.2726 -0.1285
  761MOL0     C 2660   7.637   4.342   3.822 -0.1484  0.4033 -0.2470
  761MOL0     C 2661   7.784   4.307   3.786  0.4685  0.2808  0.2978
  761MOL0     C 2662   7.863   4.278   3.913 -0.1337  0.8050 -0.2472
  761MOL0     C 2663   8.012   4.262   3.887  0.9157  0.1141 -0.2634
  761MOL0     C 2664   8.083   4.387   3.867  0.4797 -0.0793 -0.1804
  761MOL0     C 2665   8.147   4.492   3.855  0.1010 -0.0999 -0.3493
  761MOL0     C 2666   7.421   4.144   4.048 -0.3169  0.4024  0.0983
  761MOL0     C 2667   7.298   4.129   4.096  0.4528  0.4502 -1.4013
  761MOL0     H 2668   6.845   4.022   3.948  0.0333  3.4796 -2.1141
  761MOL0     H 2669   6.630   3.932   4.004  0.5911 -0.9674  1.3189
  761MOL0     H 2670   6.433   4.085   4.353 -3.3033 -2.3498  3.7509
  761MOL0     H 2671   6.347   4.199   4.238 -0.6022 -0.1761  1.0136
  761MOL0     H 2672   6.249   3.962   4.371  0.7128  0.8908 -0.1695
  761MOL0     H 2673   6.183   4.122   4.330 -1.1787 -1.0944  2.6495
  761MOL0     H 2674   6.185   4.008   4.082  1.6617 -1.3834  0.3983
  761MOL0     H 2675   6.203   3.865   4.176 -2.6536 -1.5588  1.0035
  761MOL0     H 2676   5.979   3.875   4.175 -1.3449  2.6389 -2.3564
  761MOL0     H 2677   6.020   3.946   4.334  1.3266  2.3051  0.8604
  761MOL0     H 2678   5.997   4.167   4.250  1.4130 -2.4976  0.8260
  761MOL0     H 2679   5.949   4.130   4.091  0.0447 -0.8138  0.0016
  761MOL0     H 2680   5.766   3.972   4.183  2.5191 -1.8616  0.2679
  761MOL0     H 2681   5.814   4.013   4.349 -3.8861  2.0816  2.0880
  761MOL0     H 2682   5.713   4.205   4.123 -3.5554 -1.9187 -1.3478
  761MOL0     H 2683   5.596   4.145   4.245  1.7862 -0.9818  3.1173
  761MOL0     H 2684   5.713   4.202   4.433 -2.3843  0.3191  0.3172
  761MOL0     H 2685   5.645   4.347   4.351 -2.0856 -2.5568 -2.6757
  761MOL0     H 2686   5.821   4.508   4.212  4.1267  1.9466 -1.9583
  761MOL0     H 2687   6.132   4.620   4.273  0.5376  2.0160  1.0568
  761MOL0     H 2688   5.978   4.686   4.256 -0.0925 -2.1034 -2.0310
  761MOL0     H 2689   6.162   4.794   4.417 -0.8724  0.5341 -1.5713
  761MOL0     H 2690   6.138   4.650   4.520 -2.0096 -0.8076  1.1239
  761MOL0     H 2691   6.018   4.868   4.597  2.0438  0.3520 -0.8098
  761MOL0     H 2692   5.898   4.746   4.554  1.2149 -2.3335 -1.5206
  761MOL0     H 2693   5.872   4.866   4.329 -2.0816 -2.1187  1.8620
  761MOL0     H 2694   6.009   4.965   4.364  1.3489  0.4266  2.4162
  761MOL0     H 2695   5.759   5.035   4.708  0.1223  0.0577 -0.2413
  761MOL0     H 2696   5.461   5.083   4.811  1.4887  1.5373  0.2274
  761MOL0     H 2697   5.504   4.924   4.884  0.8296 -2.2161 -1.2465
  761MOL0     H 2698   5.626   5.048   4.862  0.6438 -1.2561 -0.9166
  761MOL0     H 2699   5.083   5.014   4.521 -3.0606  2.2709 -0.4294
  761MOL0     H 2700   4.825   4.996   4.527 -1.8112 -0.9023 -2.2731
  761MOL0     H 2701   4.720   4.740   4.313 -1.1523 -0.6786 -0.1070
  761MOL0     H 2702   4.667   4.609   4.407  0.0096  0.7586  4.4145
  761MOL0     H 2703   4.494   4.727   4.270 -0.1172 -0.4601 -0.4749
  761MOL0     H 2704   4.446   4.745   4.444 -0.1757 -0.6239 -0.1285
  761MOL0     H 2705   4.598   4.950   4.268 -2.1142  2.1221 -1.2689
  761MOL0     H 2706   4.550   4.975   4.439  0.8909 -0.0632 -0.7774
  761MOL0     H 2707   4.415   5.054   4.205 -0.2303 -1.1757 -1.0339
  761MOL0     H 2708   4.325   4.909   4.244  0.0850  0.8123 -0.4240
  761MOL0     H 2709   4.215   5.103   4.361 -1.1537 -0.0416 -0.1089
  761MOL0     H 2710   4.353   5.136   4.455  1.3413 -1.6826  0.3344
  761MOL0     H 2711   4.344   4.911   4.568  0.3352  1.7778  0.9379
  761MOL0     H 2712   4.205   5.010   4.596 -1.0817 -0.2502 -1.3511
  761MOL0     H 2713   4.218   4.779   4.386 -4.2194  0.6935 -2.5539
  761MOL0     H 2714   4.095   4.899   4.382  0.5127 -1.1697 -0.6895
  761MOL0     H 2715   4.172   4.686   4.583 -0.5502  0.7839  2.6202
  761MOL0     H 2716   4.015   4.710   4.506  1.6819 -0.3971 -2.5789
  761MOL0     H 2717   4.870   4.573   4.555  0.1478 -0.8788  0.6596
  761MOL0     H 2718   5.113   4.598   4.575  1.2176  0.6116 -0.5133
  761MOL0     H 2719   5.452   4.819   4.399  0.7350  0.5808 -0.8181
  761MOL0     H 2720   5.674   4.894   4.313 -0.2069 -0.5682 -0.3726
  761MOL0     H 2721   6.545   4.276   4.251 -0.4016 -0.5279 -0.1893
  761MOL0     H 2722   6.762   4.360   4.202 -0.1243 -0.1194  0.3932
  761MOL0     H 2723   7.149   4.388   3.930  0.6620  1.4313  1.4083
  761MOL0     H 2724   7.391   4.412   3.849 -0.7443  0.6563  0.5657
  761MOL0     H 2725   7.578   4.347   3.730  0.2782 -1.7796 -0.6974
  761MOL0     H 2726   7.632   4.438   3.874 -0.7983  0.4768 -0.4286
  761MOL0     H 2727   7.826   4.401   3.749 -0.8357  0.2909 -1.2823
  761MOL0     H 2728   7.800   4.228   3.712  0.9647 -1.3562  2.0683
  761MOL0     H 2729   7.826   4.188   3.961 -0.4765  1.5053  0.8272
  761MOL0     H 2730   7.852   4.358   3.986  2.2915  1.4317 -0.4672
  761MOL0     H 2731   8.027   4.201   3.798  0.3440 -0.1306 -0.1981
  761MOL0     H 2732   8.063   4.207   3.966 -3.3969 -1.0651  2.0486
  761MOL0     H 2733   8.208   4.581   3.850  0.6403 -0.4086  0.4051
  761MOL0     H 2734   7.507   4.078   4.050  1.1687  2.1989 -0.9311
  761MOL0     H 2735   7.286   4.057   4.176 -1.2254  0.5493 -1.5240
  762MOL0     O 2736   7.512   2.677   8.109  0.2550  0.3505  0.1948
  762MOL0     C 2737   7.562   2.737   8.205 -0.1141 -0.0020 -0.4302
  762MOL0     O 2738   7.505   2.768   8.318  0.4441  0.0700 -0.2332
  762MOL0     C 2739   7.378   2.713   8.350  0.2313 -0.5164  0.2658
  762MOL0     C 2740   7.256   2.738   8.278  0.5594  0.2829 -0.4585
  762MOL0     C 2741   7.135   2.677   8.311 -0.1254 -0.7711  0.4296
  762MOL0     C 2742   7.126   2.610   8.431  0.7742 -0.2210 -0.5477
  762MOL0     O 2743   7.009   2.543   8.462 -0.3187  0.1642  0.3001
  762MOL0     C 2744   6.971   2.432   8.386 -0.3586  0.0865 -0.3174
  762MOL0     C 2745   6.833   2.384   8.420  0.5818 -0.2900  0.0621
  762MOL0     C 2746   6.730   2.497   8.447  0.5865 -0.7903 -0.0202
  762MOL0     C 2747   6.729   2.550   8.593  0.0931 -1.0763 -0.6088
  762MOL0     C 2748   6.648   2.677   8.609 -0.1663  0.8405 -0.3316
  762MOL0     C 2749   6.598   2.705   8.754 -0.2860 -0.1798  0.0131
  762MOL0     C 2750   6.547   2.846   8.799  0.2553  0.1049  0.1308
  762MOL0     C 2751   6.436   2.912   8.714  0.1092  0.4166 -0.7356
  762MOL0     N 2752   6.300   2.858   8.725 -0.2233 -0.6794 -0.0142
  762MOL0     C 2753   6.227   2.842   8.612 -0.5931 -0.6655 -0.0053
  762MOL0     C 2754   6.119   2.785   8.657  0.8281  0.8394  0.2956
  762MOL0     C 2755   6.009   2.749   8.565 -0.3605  0.1926 -0.4628
  762MOL0     C 2756   5.918   2.882   8.564 -0.3978 -0.8563  0.1528
  762MOL0     C 2757   5.764   2.868   8.565 -0.0804  0.0930 -1.1042
  762MOL0     C 2758   5.715   2.782   8.445 -0.8495  0.0035  0.3580
  762MOL0     O 2759   5.734   2.864   8.321 -0.0492  0.2663 -0.6950
  762MOL0     C 2760   5.621   2.904   8.264  0.2799  0.3063 -0.7791
  762MOL0     C 2761   5.541   2.820   8.208  0.3229  0.5756 -0.0812
  762MOL0     C 2762   5.432   2.854   8.133 -0.1988 -0.0680  0.5277
  762MOL0     C 2763   5.347   2.748   8.070 -0.1175  0.5140 -0.0359
  762MOL0     C 2764   5.402   2.997   8.122  0.6863  0.8116 -0.2462
  762MOL0     C 2765   5.280   3.040   8.046 -0.2349 -0.2957 -0.0155
  762MOL0     O 2766   5.180   2.956   8.017  0.1778 -0.1664 -0.2265
  762MOL0     C 2767   5.061   3.011   7.973  0.4834  0.0947 -0.7155
  762MOL0     C 2768   4.979   2.930   7.896  0.8124 -0.3104 -0.0250
  762MOL0     C 2769   4.847   2.967   7.865 -0.5538  0.1659 -0.8263
  762MOL0     C 2770   4.790   3.087   7.898 -0.0209  0.4957  0.7234
  762MOL0     O 2771   4.665   3.124   7.862 -0.4683 -0.0652  0.6217
  762MOL0     C 2772   4.619   3.103   7.726  0.6468  0.3758 -1.1448
  762MOL0     C 2773   4.467   3.105   7.714 -0.0104  0.7656 -0.8924
  762MOL0     C 2774   4.397   3.224   7.777  0.7647  0.8778  0.2152
  762MOL0     C 2775   4.442   3.359   7.717  0.3429  0.3633  0.5384
  762MOL0     C 2776   4.346   3.465   7.778  0.2610  0.4721 -0.1944
  762MOL0     C 2777   4.206   3.455   7.711 -0.7129 -0.0626 -0.0141
  762MOL0     C 2778   4.115   3.561   7.781 -0.8991 -0.5108  0.0310
  762MOL0     C 2779   3.985   3.558   7.705 -0.3195 -0.0925  0.6068
  762MOL0    Cl 2780   3.865   3.655   7.806 -0.0384  0.5874  0.1102
  762MOL0     C 2781   4.871   3.168   7.977 -0.3231 -0.8076 -0.3170
  762MOL0     C 2782   5.002   3.131   8.022 -0.1145 -0.7938  0.1808
  762MOL0     O 2783   5.294   3.156   8.009  0.4016 -0.1405 -0.3085
  762MOL0     C 2784   5.499   3.089   8.172  0.4358  0.0188 -0.9376
  762MOL0     C 2785   5.603   3.038   8.249  0.1660 -0.8026  0.7965
  762MOL0     N 2786   6.113   2.775   8.797  0.3224  0.3720 -0.6688
  762MOL0     N 2787   6.228   2.824   8.838  0.0464  0.1726 -0.8832
  762MOL0     C 2788   7.242   2.620   8.522  0.4360  0.0665  0.2963
  762MOL0     C 2789   7.363   2.665   8.473 -0.1200  0.0625  0.0027
  762MOL0     C 2790   7.691   2.799   8.196  0.0818  0.4669 -0.7780
  762MOL0     C 2791   7.745   2.825   8.077  0.3858 -0.6956  0.9439
  762MOL0     C 2792   7.876   2.877   8.060 -0.0288 -0.1513 -0.6366
  762MOL0     C 2793   7.946   2.902   8.176  0.6509 -0.6870 -0.2882
  762MOL0     O 2794   8.070   2.951   8.163 -0.4732 -0.4069  1.1608
  762MOL0     C 2795   8.079   3.094   8.163  0.3142 -0.5297 -0.7445
  762MOL0     C 2796   8.100   3.144   8.299 -0.0802 -0.0201  0.2948
  762MOL0     C 2797   8.233   3.110   8.367 -0.1344  0.7659  0.0026
  762MOL0     C 2798   8.348   3.192   8.317  0.8816 -0.3844  0.3915
  762MOL0     C 2799   8.479   3.158   8.374  0.2980  0.5988  0.7976
  762MOL0     C 2800   8.578   3.130   8.435  0.3977 -0.9091  1.0857
  762MOL0     C 2801   7.901   2.867   8.303 -0.6359 -0.1225  0.3273
  762MOL0     C 2802   7.769   2.824   8.315 -0.1205  0.1445  0.1122
  762MOL0     H 2803   7.262   2.799   8.189  1.2975  1.6309  0.4959
  762MOL0     H 2804   7.051   2.711   8.252 -0.5480  1.1810  2.0171
  762MOL0     H 2805   6.957   2.464   8.282  0.9956 -0.7898 -0.8061
  762MOL0     H 2806   7.051   2.357   8.393  0.7420  1.3208  1.1909
  762MOL0     H 2807   6.802   2.310   8.345 -1.0131 -1.0034  1.3730
  762MOL0     H 2808   6.846   2.322   8.509  1.7924 -2.6630 -1.6497
  762MOL0     H 2809   6.757   2.585   8.387 -2.2837 -1.7480 -2.9985
  762MOL0     H 2810   6.630   2.466   8.415  0.0471  2.0958 -1.5557
  762MOL0     H 2811   6.693   2.476   8.665 -0.1390  0.1949  0.6201
  762MOL0     H 2812   6.828   2.581   8.626  0.7836 -2.2381 -1.5017
  762MOL0     H 2813   6.712   2.759   8.576 -0.1860  1.1521  0.4075
  762MOL0     H 2814   6.562   2.676   8.541  0.7624 -1.1009 -1.5521
  762MOL0     H 2815   6.525   2.628   8.780  0.7497 -1.4181 -0.5990
  762MOL0     H 2816   6.686   2.683   8.815  0.2215  1.2387 -0.1858
  762MOL0     H 2817   6.499   2.836   8.897  1.7199  0.0413  0.8793
  762MOL0     H 2818   6.634   2.913   8.802  0.8352 -0.4565 -2.4500
  762MOL0     H 2819   6.469   2.914   8.610  0.0425  3.5016 -0.7671
  762MOL0     H 2820   6.426   3.013   8.754  1.1225 -0.6099  2.4539
  762MOL0     H 2821   6.255   2.886   8.516  1.0583  5.7884  2.8833
  762MOL0     H 2822   6.062   2.735   8.470  0.1217  3.1977 -0.7370
  762MOL0     H 2823   5.946   2.666   8.597 -1.2469  0.9272 -0.2612
  762MOL0     H 2824   5.948   2.935   8.472 -0.7184  2.4707  1.7947
  762MOL0     H 2825   5.937   2.942   8.653 -1.3078 -1.3537  0.7018
  762MOL0     H 2826   5.711   2.963   8.556  1.2529  0.9731  0.0143
  762MOL0     H 2827   5.730   2.829   8.661  2.0915 -3.4550 -1.5855
  762MOL0     H 2828   5.609   2.765   8.469 -0.8798  0.3748  0.4869
  762MOL0     H 2829   5.768   2.687   8.434 -3.5748 -1.8430  2.0250
  762MOL0     H 2830   5.565   2.715   8.223  0.1605  0.5820  0.2241
  762MOL0     H 2831   5.246   2.753   8.113 -0.3645 -1.8064 -0.2157
  762MOL0     H 2832   5.355   2.772   7.963 -2.0234 -0.7929 -0.5161
  762MOL0     H 2833   5.383   2.646   8.087 -1.2606 -0.1829 -1.5370
  762MOL0     H 2834   5.018   2.837   7.855  0.9584 -0.0203 -0.5451
  762MOL0     H 2835   4.793   2.887   7.816 -0.5426  0.3003 -1.0614
  762MOL0     H 2836   4.670   3.185   7.675  1.1649  0.0349 -1.1846
  762MOL0     H 2837   4.649   3.009   7.678  0.8708 -0.5247  0.6882
  762MOL0     H 2838   4.444   3.118   7.608  0.5901 -1.9421 -1.4231
  762MOL0     H 2839   4.432   3.007   7.747  0.0122  1.0813  0.0938
  762MOL0     H 2840   4.396   3.222   7.886 -1.3563  2.8025  0.3052
  762MOL0     H 2841   4.292   3.205   7.752  1.1247  1.2376 -1.6999
  762MOL0     H 2842   4.544   3.385   7.747  0.3558 -0.1630  0.9601
  762MOL0     H 2843   4.445   3.361   7.608 -0.4596 -0.0809  0.5026
  762MOL0     H 2844   4.381   3.565   7.748  0.0522  0.7297  0.3917
  762MOL0     H 2845   4.337   3.459   7.887  1.0836 -0.7356 -0.1807
  762MOL0     H 2846   4.222   3.465   7.603 -2.3248  1.2776 -0.1702
  762MOL0     H 2847   4.162   3.358   7.737 -1.0699  0.7607  2.8711
  762MOL0     H 2848   4.154   3.663   7.785 -1.0092 -0.3436 -2.1326
  762MOL0     H 2849   4.095   3.530   7.884  1.2286 -1.1606  0.2970
  762MOL0     H 2850   3.939   3.460   7.713  1.1055 -1.0079 -1.5320
  762MOL0     H 2851   3.990   3.597   7.603 -1.8327  0.4025  0.6954
  762MOL0     H 2852   4.830   3.262   8.011  1.4172 -0.7272  1.7815
  762MOL0     H 2853   5.055   3.202   8.085  3.0886 -0.2162 -2.8836
  762MOL0     H 2854   5.487   3.197   8.159 -3.4299  0.0826  1.6148
  762MOL0     H 2855   5.686   3.096   8.289  0.1562 -0.4932  0.3686
  762MOL0     H 2856   7.235   2.592   8.627  2.2954 -0.0625  0.4204
  762MOL0     H 2857   7.447   2.664   8.541 -2.8075  2.0000  3.6722
  762MOL0     H 2858   7.681   2.811   7.990  0.9496  2.1365 -0.0237
  762MOL0     H 2859   7.919   2.899   7.962  0.7039 -0.5429 -0.4126
  762MOL0     H 2860   8.161   3.126   8.098  1.2588  0.3495  0.8154
  762MOL0     H 2861   7.983   3.138   8.135 -0.2825  0.4209  2.4177
  762MOL0     H 2862   8.014   3.117   8.361  0.0222 -0.5312  0.2171
  762MOL0     H 2863   8.091   3.253   8.296  0.2965 -0.0088 -0.6497
  762MOL0     H 2864   8.243   3.001   8.354 -0.4476  0.6384  0.8002
  762MOL0     H 2865   8.212   3.124   8.473  0.0695 -0.4543  0.2272
  762MOL0     H 2866   8.321   3.293   8.348 -1.5999 -0.7250 -0.4066
  762MOL0     H 2867   8.362   3.187   8.209  1.4152 -0.1420  0.4458
  762MOL0     H 2868   8.680   3.112   8.463  1.4984  0.5216 -1.6182
  762MOL0     H 2869   7.964   2.877   8.391  0.0042  0.9969 -0.2285
  762MOL0     H 2870   7.728   2.800   8.412 -2.2309 -0.9081 -0.9687
  763MOL0     O 2871   2.068   4.753   9.337  0.1692  0.6812 -0.1491
  763MOL0     C 2872   2.037   4.644   9.283  0.6187  0.7872 -0.0136
  763MOL0     O 2873   1.907   4.605   9.267 -0.0423 -0.5938 -0.4422
  763MOL0     C 2874   1.808   4.686   9.318  0.0466 -1.3819  0.7024
  763MOL0     C 2875   1.794   4.723   9.450 -0.4397  0.8113 -0.6121
  763MOL0     C 2876   1.684   4.787   9.496 -0.1648  0.6878  0.6446
  763MOL0     C 2877   1.578   4.811   9.409 -0.0806  0.2722 -0.7200
  763MOL0     O 2878   1.463   4.873   9.461 -0.5134  0.5507  0.3746
  763MOL0     C 2879   1.338   4.850   9.399 -0.2079 -0.4478  0.1357
  763MOL0     C 2880   1.231   4.847   9.507  0.4709  0.2048 -0.0304
  763MOL0     C 2881   1.231   4.976   9.598  0.1035  0.3958  0.5477
  763MOL0     C 2882   1.099   4.975   9.671 -0.6119  0.2175 -0.1109
  763MOL0     C 2883   1.073   5.108   9.736  0.7254 -0.0976  0.1187
  763MOL0     C 2884   0.944   5.086   9.810 -0.0648  0.0546 -0.3669
  763MOL0     C 2885   0.902   5.221   9.876 -0.2230 -0.3902 -0.3678
  763MOL0     C 2886   0.784   5.204   9.976 -1.0156  0.2233 -0.5399
  763MOL0     N 2887   0.755   5.312  10.070  0.5682 -0.0045 -0.4208
  763MOL0     C 2888   0.773   5.315  10.208 -0.2200  0.1547  0.8451
  763MOL0     C 2889   0.722   5.426  10.247  0.1931  0.4377 -1.1687
  763MOL0     C 2890   0.716   5.457  10.403 -0.7746 -0.0306  0.3542
  763MOL0     C 2891   0.572   5.474  10.445 -0.4658 -1.0636  0.0537
  763MOL0     C 2892   0.518   5.335  10.481  0.0573  0.3415 -0.2950
  763MOL0     C 2893   0.367   5.331  10.496 -1.1226 -0.2151 -0.3571
  763MOL0     O 2894   0.295   5.370  10.381  0.0836 -0.0388 -0.0008
  763MOL0     C 2895   0.165   5.341  10.384  0.4809 -0.2563 -0.5121
  763MOL0     C 2896   0.086   5.279  10.485 -0.3776 -0.6506 -1.0242
  763MOL0     C 2897  -0.040   5.229  10.453 -0.1656 -0.5356  0.3341
  763MOL0     C 2898  -0.108   5.149  10.555 -0.3459 -0.0895  0.3374
  763MOL0     C 2899  -0.095   5.258  10.332  0.3980  0.1958 -0.5892
  763MOL0     C 2900  -0.237   5.242  10.300 -0.2964 -0.5257  0.4348
  763MOL0     O 2901  -0.272   5.219  10.164  0.3648  0.8773  0.3476
  763MOL0     C 2902  -0.403   5.236  10.143 -0.3163 -0.1176  0.6135
  763MOL0     C 2903  -0.489   5.138  10.181  0.2442 -0.4414 -0.5304
  763MOL0     C 2904  -0.618   5.144  10.136  0.5877  0.1052  0.4119
  763MOL0     C 2905  -0.677   5.249  10.051 -0.1923  0.4960  0.5123
  763MOL0     O 2906  -0.813   5.247  10.012 -0.1176 -0.8181 -0.1222
  763MOL0     C 2907  -0.870   5.372   9.973 -0.1540  0.5282  0.2278
  763MOL0     C 2908  -1.025   5.368   9.991 -0.5339 -0.0284 -0.4675
  763MOL0     C 2909  -1.093   5.278   9.886 -1.1951  0.3811  0.1378
  763MOL0     C 2910  -1.242   5.312   9.867 -0.0538 -1.1627 -0.5663
  763MOL0     C 2911  -1.315   5.221   9.766 -0.3963  1.1651  0.2781
  763MOL0     C 2912  -1.470   5.227   9.786 -0.0141 -0.6355  0.9807
  763MOL0     C 2913  -1.545   5.232   9.652 -0.3727  0.6631  0.0113
  763MOL0     C 2914  -1.566   5.377   9.615 -0.0584 -0.4582  0.6475
  763MOL0    Cl 2915  -1.686   5.439   9.739 -0.5226  0.0654 -0.6845
  763MOL0     C 2916  -0.577   5.343  10.012 -1.1394 -0.6819 -0.6359
  763MOL0     C 2917  -0.439   5.337  10.055  0.0657  0.0802  0.6791
  763MOL0     O 2918  -0.313   5.248  10.398  0.2304  0.1237  0.4828
  763MOL0     C 2919  -0.029   5.326  10.238  0.0796 -0.6881  0.4601
  763MOL0     C 2920   0.100   5.365  10.264  0.5326 -0.5321  0.8925
  763MOL0     N 2921   0.671   5.493  10.144 -0.6128  0.5817  0.5053
  763MOL0     N 2922   0.689   5.421  10.034  0.1699 -0.1532 -0.3381
  763MOL0     C 2923   1.590   4.771   9.276  0.4377 -0.4860  0.1186
  763MOL0     C 2924   1.705   4.723   9.227  0.3839 -0.1584 -0.6296
  763MOL0     C 2925   2.136   4.572   9.212 -0.2969  0.7559  0.1676
  763MOL0     C 2926   2.096   4.479   9.108 -0.6736 -0.6370  0.0561
  763MOL0     C 2927   2.194   4.434   9.017  0.5161  0.4037  1.0394
  763MOL0     C 2928   2.325   4.468   9.029 -0.8042  0.5589  0.5035
  763MOL0     O 2929   2.417   4.416   8.941 -0.3207  0.9487 -0.9407
  763MOL0     C 2930   2.532   4.501   8.897  0.2636  0.1794 -0.1590
  763MOL0     C 2931   2.497   4.620   8.794 -0.3120  0.9501  0.5830
  763MOL0     C 2932   2.578   4.600   8.666 -0.1116  0.3245  0.3922
  763MOL0     C 2933   2.582   4.724   8.570 -0.2458 -0.4633 -0.4663
  763MOL0     C 2934   2.445   4.758   8.533  0.9600  0.6479  0.5775
  763MOL0     C 2935   2.326   4.776   8.514  0.2191  0.5970 -0.0310
  763MOL0     C 2936   2.361   4.555   9.128 -0.2982 -0.0978 -0.2642
  763MOL0     C 2937   2.273   4.603   9.226 -0.3530 -0.1591  0.6839
  763MOL0     H 2938   1.860   4.689   9.529  0.9429  0.7496 -1.7544
  763MOL0     H 2939   1.683   4.814   9.601  2.7357 -1.2272  1.2802
  763MOL0     H 2940   1.327   4.925   9.320  1.2946 -0.8357 -0.4886
  763MOL0     H 2941   1.334   4.752   9.350  0.0738 -0.3222 -0.1371
  763MOL0     H 2942   1.139   4.834   9.449  0.8053  2.3369 -1.1282
  763MOL0     H 2943   1.245   4.753   9.561  1.5231 -1.2608 -2.6975
  763MOL0     H 2944   1.314   4.983   9.669 -1.4542  2.9395  2.2955
  763MOL0     H 2945   1.220   5.061   9.530  0.1984  0.2144  0.3057
  763MOL0     H 2946   1.022   4.951   9.598  0.7141  1.2988 -1.9493
  763MOL0     H 2947   1.106   4.896   9.746  1.5619 -0.7033 -1.1854
  763MOL0     H 2948   1.155   5.140   9.801  2.9078 -2.0517 -1.5024
  763MOL0     H 2949   1.061   5.188   9.663  1.7936  1.6926  1.8164
  763MOL0     H 2950   0.862   5.045   9.750 -2.9622 -0.3419  3.4662
  763MOL0     H 2951   0.959   5.016   9.892  0.4266 -1.3422 -1.6180
  763MOL0     H 2952   0.970   5.283   9.935 -3.2871  0.9307  2.1053
  763MOL0     H 2953   0.865   5.281   9.792 -0.4332 -0.5790 -0.4120
  763MOL0     H 2954   0.805   5.123  10.045  0.1735  1.6566  0.8468
  763MOL0     H 2955   0.690   5.181   9.924 -1.7653  0.6006  0.6204
  763MOL0     H 2956   0.815   5.242  10.276 -1.5184 -0.9336  0.5119
  763MOL0     H 2957   0.764   5.380  10.464 -1.0315 -2.1568 -1.9363
  763MOL0     H 2958   0.766   5.551  10.430  1.2478 -0.9983  0.1845
  763MOL0     H 2959   0.519   5.506  10.355  1.8513 -1.8382 -1.6767
  763MOL0     H 2960   0.568   5.550  10.523  2.8529 -1.0615  0.3391
  763MOL0     H 2961   0.558   5.286  10.570 -4.0313 -2.4855  0.2802
  763MOL0     H 2962   0.542   5.272  10.394  4.5738  0.6091  0.5539
  763MOL0     H 2963   0.338   5.390  10.583 -3.3474 -2.9523  0.9187
  763MOL0     H 2964   0.350   5.225  10.520 -1.8887  0.1313  0.6875
  763MOL0     H 2965   0.114   5.269  10.590 -0.3132  2.7342 -0.5989
  763MOL0     H 2966  -0.170   5.071  10.510 -3.4451  2.4290 -0.1902
  763MOL0     H 2967  -0.034   5.105  10.621  0.7750 -0.1327 -0.9015
  763MOL0     H 2968  -0.177   5.212  10.612 -3.7040 -3.5296  0.4668
  763MOL0     H 2969  -0.449   5.050  10.229  2.1641  0.6430 -0.0343
  763MOL0     H 2970  -0.685   5.068  10.174 -0.2850  1.6975  2.1765
  763MOL0     H 2971  -0.823   5.454  10.028 -0.1653  1.1157 -0.6170
  763MOL0     H 2972  -0.861   5.395   9.866  1.1815  0.0460  0.2201
  763MOL0     H 2973  -1.046   5.328  10.091  2.5198  1.8228  1.0434
  763MOL0     H 2974  -1.070   5.467   9.988  0.3072  0.4541  1.3105
  763MOL0     H 2975  -1.090   5.175   9.921 -0.5100  1.5608  4.0502
  763MOL0     H 2976  -1.047   5.269   9.787 -1.1509 -1.7802  0.3085
  763MOL0     H 2977  -1.287   5.299   9.966  1.4384  0.0867  0.3114
  763MOL0     H 2978  -1.248   5.417   9.838 -1.0127 -0.3342  2.2599
  763MOL0     H 2979  -1.276   5.119   9.773 -0.1801  1.2535  0.3819
  763MOL0     H 2980  -1.290   5.266   9.670  2.0934  2.0131  1.2378
  763MOL0     H 2981  -1.493   5.130   9.832  2.7534 -3.3034 -2.5986
  763MOL0     H 2982  -1.502   5.310   9.850  1.0520 -0.1456  0.8970
  763MOL0     H 2983  -1.638   5.174   9.658  0.6693 -0.9419  1.2325
  763MOL0     H 2984  -1.481   5.182   9.579 -2.7521 -1.3575 -0.8400
  763MOL0     H 2985  -1.611   5.387   9.516 -0.4029 -3.1797  0.4629
  763MOL0     H 2986  -1.472   5.433   9.616  0.0983 -0.5481 -1.8914
  763MOL0     H 2987  -0.609   5.422   9.944 -3.4578 -0.1276  0.9877
  763MOL0     H 2988  -0.369   5.415  10.025 -1.7329  1.0221 -1.3326
  763MOL0     H 2989  -0.069   5.351  10.140 -0.9480  0.7678  1.2171
  763MOL0     H 2990   0.150   5.423  10.187  0.4121 -3.1252 -1.2918
  763MOL0     H 2991   1.521   4.781   9.193 -0.6615  0.2259  1.0840
  763MOL0     H 2992   1.713   4.685   9.126  1.5495 -0.1067 -0.5702
  763MOL0     H 2993   1.993   4.447   9.099 -1.0328 -0.3312  2.3548
  763MOL0     H 2994   2.171   4.374   8.929  0.7924 -0.9902  1.8932
  763MOL0     H 2995   2.584   4.540   8.985 -0.3702 -2.8823  1.7296
  763MOL0     H 2996   2.599   4.434   8.843 -1.1420 -2.2334  0.9443
  763MOL0     H 2997   2.526   4.713   8.843 -0.0182 -0.0276  2.3747
  763MOL0     H 2998   2.389   4.630   8.777  0.1291  0.6567 -3.2075
  763MOL0     H 2999   2.536   4.523   8.601 -0.7111  1.0468 -0.0874
  763MOL0     H 3000   2.682   4.586   8.697 -0.2739  0.4997  1.0446
  763MOL0     H 3001   2.629   4.678   8.483  1.3236 -2.4031  1.2977
  763MOL0     H 3002   2.642   4.808   8.607 -0.5961 -0.7475  0.8098
  763MOL0     H 3003   2.221   4.785   8.497 -0.1415 -1.2499  0.9188
  763MOL0     H 3004   2.458   4.602   9.123 -2.2806  4.4652 -0.7080
  763MOL0     H 3005   2.300   4.668   9.308 -1.1963  3.1458 -1.4477
  764MOL0     O 3006   9.415  10.201   2.593 -0.2248 -0.6444  0.6731
  764MOL0     C 3007   9.438  10.316   2.636  0.3479 -0.0581  0.1712
  764MOL0     O 3008   9.382  10.374   2.749  0.5786 -0.3172 -0.2809
  764MOL0     C 3009   9.292  10.296   2.819  0.2302  0.7380  0.4559
  764MOL0     C 3010   9.170  10.253   2.760 -0.8655  0.4721 -0.2641
  764MOL0     C 3011   9.076  10.196   2.844 -0.0690 -0.4761 -0.3244
  764MOL0     C 3012   9.089  10.185   2.981 -0.4089 -0.5275 -0.5601
  764MOL0     O 3013   8.992  10.131   3.051  0.2331  0.3440  0.0041
  764MOL0     C 3014   9.012  10.099   3.193 -0.2907  0.1136 -0.0965
  764MOL0     C 3015   8.894  10.023   3.254  0.0865  0.7987  0.3656
  764MOL0     C 3016   8.756  10.084   3.208  0.2098  1.1277 -0.6095
  764MOL0     C 3017   8.632  10.004   3.244 -0.4592  0.6155 -0.5511
  764MOL0     C 3018   8.497  10.088   3.219 -0.5813  0.6653 -0.5763
  764MOL0     C 3019   8.379  10.001   3.241  0.9183  0.3203 -0.5253
  764MOL0     C 3020   8.250  10.084   3.228 -1.3426  0.5810 -0.0454
  764MOL0     C 3021   8.136   9.985   3.213 -0.1269  1.0094 -0.0769
  764MOL0     N 3022   8.015  10.056   3.242 -0.5086 -0.1166  0.1559
  764MOL0     C 3023   7.948  10.144   3.161 -1.1121 -0.3446 -0.4534
  764MOL0     C 3024   7.842  10.190   3.233 -0.3652 -0.0203 -0.1455
  764MOL0     C 3025   7.748  10.291   3.178  0.2994 -0.5789 -0.4557
  764MOL0     C 3026   7.770  10.319   3.033  1.0500  0.1884  0.6190
  764MOL0     C 3027   7.655  10.408   2.977  0.3872  0.1444  0.3344
  764MOL0     C 3028   7.670  10.556   3.011  0.4347 -0.3749  0.4265
  764MOL0     O 3029   7.594  10.623   2.911  0.2346 -0.3449 -0.7927
  764MOL0     C 3030   7.460  10.657   2.922  0.4226 -0.3858  0.5868
  764MOL0     C 3031   7.389  10.671   3.043 -0.6407 -0.0098  0.1212
  764MOL0     C 3032   7.247  10.695   3.055 -0.5875  0.1431 -0.1990
  764MOL0     C 3033   7.196  10.678   3.192  0.4508  0.2810  0.3094
  764MOL0     C 3034   7.184  10.729   2.934 -0.7844 -0.2024  0.4144
  764MOL0     C 3035   7.044  10.768   2.933  0.4346 -0.0708 -0.7963
  764MOL0     O 3036   6.986  10.737   2.812 -0.1388 -0.1313  0.5371
  764MOL0     C 3037   6.852  10.731   2.788  0.2191 -0.0873 -0.5195
  764MOL0     C 3038   6.755  10.812   2.834  0.1933 -0.0745 -0.1514
  764MOL0     C 3039   6.624  10.786   2.799 -0.5532  0.2941 -0.1644
  764MOL0     C 3040   6.586  10.664   2.737  0.4975 -1.0821  0.1621
  764MOL0     O 3041   6.457  10.632   2.721  0.0395  0.3410 -0.4930
  764MOL0     C 3042   6.363  10.732   2.677 -0.5945 -0.1310  0.1879
  764MOL0     C 3043   6.323  10.700   2.526  0.7218 -0.7733 -0.8113
  764MOL0     C 3044   6.197  10.775   2.481  1.1935  0.5153  0.0746
  764MOL0     C 3045   6.170  10.743   2.338 -0.1793 -0.0171 -0.2927
  764MOL0     C 3046   6.038  10.814   2.298 -0.1361  0.3521 -0.1279
  764MOL0     C 3047   5.994  10.792   2.153 -1.3592 -0.0102  0.0016
  764MOL0     C 3048   5.929  10.650   2.137  0.1094  0.4518  0.2912
  764MOL0     C 3049   5.841  10.672   2.014  0.4393  0.5160 -0.4666
  764MOL0    Cl 3050   5.783  10.525   1.938 -0.0851  0.5009  0.3661
  764MOL0     C 3051   6.682  10.575   2.699  1.0994 -0.1623  0.1884
  764MOL0     C 3052   6.818  10.609   2.718 -0.2440  0.7825  0.0607
  764MOL0     O 3053   6.977  10.803   3.033 -0.2163 -0.5048 -0.0908
  764MOL0     C 3054   7.255  10.720   2.813  0.6607  0.6194  0.8442
  764MOL0     C 3055   7.387  10.677   2.807 -0.3272  0.3951 -0.4246
  764MOL0     N 3056   7.829  10.116   3.350 -0.3399  0.0457 -0.2646
  764MOL0     N 3057   7.935  10.039   3.353  0.3888  0.6000 -0.5061
  764MOL0     C 3058   9.209  10.231   3.037  1.0039 -0.6820 -0.5066
  764MOL0     C 3059   9.309  10.289   2.962  0.5229  0.2452  0.2891
  764MOL0     C 3060   9.516  10.409   2.557 -0.1160  0.6252 -0.7827
  764MOL0     C 3061   9.555  10.542   2.595  0.3253  0.1776 -0.3494
  764MOL0     C 3062   9.633  10.618   2.509  0.8253 -0.7066 -0.2068
  764MOL0     C 3063   9.676  10.574   2.382 -0.2860 -0.4287  0.0541
  764MOL0     O 3064   9.761  10.642   2.294  1.0020  0.3993 -0.1109
  764MOL0     C 3065   9.883  10.680   2.363  0.3263 -0.6601  0.1109
  764MOL0     C 3066   9.943  10.798   2.289 -0.2056 -0.1565  0.2648
  764MOL0     C 3067   9.937  10.923   2.384  0.4360  0.7066 -0.0463
  764MOL0     C 3068   9.998  11.046   2.323 -0.2553 -0.3062  0.1117
  764MOL0     C 3069   9.979  11.159   2.402  0.2083 -0.1142  0.0854
  764MOL0     C 3070   9.952  11.247   2.469  0.1421 -1.1645 -0.7403
  764MOL0     C 3071   9.629  10.447   2.340  0.1791  0.3814  0.0403
  764MOL0     C 3072   9.554  10.370   2.426  0.0265  0.5599 -0.1344
  764MOL0     H 3073   9.165  10.261   2.652  4.1913 -1.3943 -0.8756
  764MOL0     H 3074   8.980  10.174   2.799 -1.3502  0.3629  1.8108
  764MOL0     H 3075   9.100  10.036   3.206 -1.7067 -1.8592  0.3998
  764MOL0     H 3076   9.027  10.197   3.239 -0.0597  1.0792 -2.1443
  764MOL0     H 3077   8.889   9.920   3.216 -0.0439  0.4282  1.3702
  764MOL0     H 3078   8.914  10.019   3.361 -2.3948  1.9762  0.9480
  764MOL0     H 3079   8.754  10.184   3.253 -1.7328  1.2482 -0.8998
  764MOL0     H 3080   8.752  10.094   3.099 -1.8099  0.6139 -0.6174
  764MOL0     H 3081   8.634   9.918   3.176  1.4418  2.3851 -2.9194
  764MOL0     H 3082   8.645   9.977   3.349 -0.1270 -2.0488 -1.2079
  764MOL0     H 3083   8.495  10.170   3.292 -3.6070  0.4628 -0.3240
  764MOL0     H 3084   8.488  10.130   3.119 -0.6501 -0.8854 -1.2568
  764MOL0     H 3085   8.388   9.919   3.170 -0.8040  1.2194 -1.8773
  764MOL0     H 3086   8.374   9.953   3.339 -0.3855  0.0099 -0.7200
  764MOL0     H 3087   8.252  10.151   3.314 -1.0620  0.1859  0.2601
  764MOL0     H 3088   8.255  10.146   3.138 -2.4828  1.7667  0.6682
  764MOL0     H 3089   8.145   9.912   3.293 -0.3244  0.2585 -0.7232
  764MOL0     H 3090   8.118   9.938   3.115 -2.4509  1.3229  0.1419
  764MOL0     H 3091   7.980  10.183   3.065 -2.0475  0.4363 -0.4556
  764MOL0     H 3092   7.656  10.235   3.195  0.5746 -0.7567  0.4929
  764MOL0     H 3093   7.756  10.381   3.240  0.5358 -1.1134  0.3128
  764MOL0     H 3094   7.775  10.226   2.976 -0.1223 -1.0986  2.4875
  764MOL0     H 3095   7.867  10.365   3.015  1.8844 -0.7767  2.3135
  764MOL0     H 3096   7.553  10.379   3.003 -1.0418  0.6118 -3.9033
  764MOL0     H 3097   7.643  10.396   2.869 -2.0626 -0.2746  0.5815
  764MOL0     H 3098   7.775  10.577   2.988  0.3481  0.9381  1.1418
  764MOL0     H 3099   7.644  10.578   3.115  2.1696  2.3535  0.3578
  764MOL0     H 3100   7.448  10.660   3.134  0.3167 -1.1452 -0.6105
  764MOL0     H 3101   7.122  10.598   3.198  0.1299  0.6472  1.6804
  764MOL0     H 3102   7.275  10.653   3.263  2.4557  0.5807 -1.6949
  764MOL0     H 3103   7.147  10.774   3.210  1.6719  1.2583 -1.3122
  764MOL0     H 3104   6.777  10.901   2.893 -0.1952 -0.7302  1.0284
  764MOL0     H 3105   6.551  10.858   2.834 -0.3171  1.5830 -2.1679
  764MOL0     H 3106   6.277  10.720   2.744 -1.7872 -0.3784 -1.3326
  764MOL0     H 3107   6.403  10.833   2.691 -3.8629  1.0615  2.1004
  764MOL0     H 3108   6.405  10.735   2.463  0.7248  1.3750  0.2695
  764MOL0     H 3109   6.316  10.596   2.494 -0.2683 -0.3579 -2.0493
  764MOL0     H 3110   6.195  10.884   2.490  4.1947  0.5396  2.4426
  764MOL0     H 3111   6.117  10.730   2.541  0.7136  0.9452 -0.2377
  764MOL0     H 3112   6.254  10.774   2.276  0.4194  1.8160  1.3483
  764MOL0     H 3113   6.148  10.637   2.324  2.7136 -0.7341 -0.0316
  764MOL0     H 3114   6.050  10.922   2.312  2.5154  0.1924 -0.6519
  764MOL0     H 3115   5.959  10.777   2.365 -0.1743 -0.7769 -0.7687
  764MOL0     H 3116   5.919  10.868   2.130  1.1141  2.2450 -1.1785
  764MOL0     H 3117   6.074  10.817   2.082 -1.9447  0.6780 -0.4257
  764MOL0     H 3118   5.864  10.617   2.219 -2.5065  0.4815 -1.6268
  764MOL0     H 3119   6.008  10.575   2.132 -1.2604 -1.1895  1.5950
  764MOL0     H 3120   5.884  10.738   1.938 -0.5069  0.4088 -1.1210
  764MOL0     H 3121   5.753  10.729   2.047 -1.5902 -2.4086 -0.3953
  764MOL0     H 3122   6.656  10.483   2.647 -1.0130 -0.0878  1.0219
  764MOL0     H 3123   6.895  10.542   2.683 -0.8843 -1.7322  2.9885
  764MOL0     H 3124   7.205  10.733   2.718 -0.0164  3.9259  1.5410
  764MOL0     H 3125   7.425  10.653   2.708  0.5882 -0.0946  0.0380
  764MOL0     H 3126   9.218  10.218   3.145  0.2899 -2.1303 -0.5925
  764MOL0     H 3127   9.401  10.326   3.006  1.7371 -1.7092 -0.4750
  764MOL0     H 3128   9.523  10.585   2.689 -1.4603  1.6222 -1.5304
  764MOL0     H 3129   9.668  10.713   2.547 -0.0383  0.3476 -1.9434
  764MOL0     H 3130   9.873  10.706   2.469  2.5799 -2.1688  0.7644
  764MOL0     H 3131   9.944  10.594   2.389 -0.4271 -0.3220  3.5191
  764MOL0     H 3132   9.892  10.819   2.194  0.3959  0.2518  0.0249
  764MOL0     H 3133  10.044  10.767   2.260 -0.2518  0.5540 -0.7246
  764MOL0     H 3134   9.996  10.908   2.475 -1.5015  2.4691  1.6025
  764MOL0     H 3135   9.835  10.945   2.418  0.7646  0.6926  0.9985
  764MOL0     H 3136   9.941  11.058   2.231  0.7674 -1.0664 -0.6508
  764MOL0     H 3137  10.102  11.032   2.294 -0.3217  0.1382 -0.3334
  764MOL0     H 3138   9.930  11.330   2.534  2.8807 -1.1755  0.3422
  764MOL0     H 3139   9.651  10.418   2.237  1.8277  2.5435 -0.2930
  764MOL0     H 3140   9.532  10.271   2.387 -1.9327  1.5690 -1.7679
  765MOL0     O 3141   4.650   7.274   0.597  0.5500 -0.5668 -0.6147
  765MOL0     C 3142   4.692   7.266   0.484 -0.0230  0.2207 -0.1124
  765MOL0     O 3143   4.621   7.221   0.381 -0.1136 -0.2100  0.1496
  765MOL0     C 3144   4.487   7.180   0.378 -1.3389 -0.8726  0.4528
  765MOL0     C 3145   4.384   7.252   0.436 -0.5387  0.5601  0.0993
  765MOL0     C 3146   4.251   7.223   0.425 -0.1262  0.1048  0.4967
  765MOL0     C 3147   4.219   7.109   0.345  0.2791  0.5859  0.1964
  765MOL0     O 3148   4.091   7.055   0.315  0.1846 -0.1872  0.2026
  765MOL0     C 3149   3.997   7.077   0.426 -0.3132  0.3786 -0.1749
  765MOL0     C 3150   3.887   6.961   0.407  0.2268 -0.7468  0.2951
  765MOL0     C 3151   3.782   7.001   0.311 -0.1003 -0.5554  0.6782
  765MOL0     C 3152   3.687   6.889   0.278  0.3815 -0.6555 -0.3011
  765MOL0     C 3153   3.572   6.955   0.191 -1.1260  0.3621 -0.7288
  765MOL0     C 3154   3.481   6.838   0.149  0.1502  0.9206 -0.0675
  765MOL0     C 3155   3.353   6.893   0.073 -0.0731  0.1439 -0.3684
  765MOL0     C 3156   3.378   6.959  -0.068  0.5717 -0.1191  1.3273
  765MOL0     N 3157   3.425   6.848  -0.153  0.4389 -0.2316 -0.0933
  765MOL0     C 3158   3.359   6.732  -0.185  0.0987  0.1686 -0.2133
  765MOL0     C 3159   3.444   6.660  -0.254  0.3484  0.5390  0.6422
  765MOL0     C 3160   3.422   6.520  -0.304  0.1920  0.1070 -0.3606
  765MOL0     C 3161   3.289   6.497  -0.380  0.8956 -0.6685  0.0143
  765MOL0     C 3162   3.278   6.354  -0.441 -0.6365 -0.0203 -0.1047
  765MOL0     C 3163   3.140   6.316  -0.492 -0.4468  0.1900  0.6629
  765MOL0     O 3164   3.147   6.190  -0.557  0.2419 -0.0832 -0.4185
  765MOL0     C 3165   3.046   6.177  -0.648 -0.0577 -0.9127 -0.6131
  765MOL0     C 3166   3.061   6.167  -0.787  0.4256 -0.1781  1.1515
  765MOL0     C 3167   2.952   6.170  -0.871  0.2765 -0.0762  0.1465
  765MOL0     C 3168   2.968   6.131  -1.018  0.5088  0.3587  0.0526
  765MOL0     C 3169   2.820   6.183  -0.813 -0.7115  0.3722 -0.1644
  765MOL0     C 3170   2.699   6.193  -0.895  0.5907  0.1199  0.2559
  765MOL0     O 3171   2.643   6.312  -0.896  0.2724  0.1791  0.6426
  765MOL0     C 3172   2.517   6.332  -0.950 -0.5990  0.1967 -0.9885
  765MOL0     C 3173   2.410   6.249  -0.909 -0.3468 -0.1355 -0.1088
  765MOL0     C 3174   2.289   6.271  -0.962  0.3357 -0.2334  0.0369
  765MOL0     C 3175   2.266   6.380  -1.049  0.3904 -0.6388 -0.3443
  765MOL0     O 3176   2.143   6.401  -1.112  0.1895  0.1219 -0.3348
  765MOL0     C 3177   2.030   6.323  -1.055  0.4267  0.3608  0.1382
  765MOL0     C 3178   1.915   6.399  -1.126  0.2799  0.0665  0.0096
  765MOL0     C 3179   1.795   6.315  -1.130 -0.8743  0.4838  0.5334
  765MOL0     C 3180   1.796   6.222  -1.255  0.5843 -0.2714 -0.1430
  765MOL0     C 3181   1.672   6.136  -1.242 -0.4500 -0.7838  0.2891
  765MOL0     C 3182   1.541   6.218  -1.285  0.3681  0.1923  0.4287
  765MOL0     C 3183   1.407   6.136  -1.273  0.6296  0.3703  0.3464
  765MOL0     C 3184   1.280   6.208  -1.261  0.5875 -0.0857 -0.3721
  765MOL0    Cl 3185   1.279   6.308  -1.117 -0.0745  0.2528  0.2347
  765MOL0     C 3186   2.374   6.458  -1.097 -0.7639  0.3136 -0.2614
  765MOL0     C 3187   2.506   6.430  -1.048  0.1691  0.2634  0.6572
  765MOL0     O 3188   2.651   6.087  -0.941  0.2643 -0.2827  0.0359
  765MOL0     C 3189   2.799   6.172  -0.678 -0.2026 -0.5267 -0.2663
  765MOL0     C 3190   2.913   6.167  -0.595 -0.7320 -0.1661  0.6507
  765MOL0     N 3191   3.563   6.725  -0.254 -0.1654  0.2798  0.2072
  765MOL0     N 3192   3.550   6.839  -0.204 -0.1514 -0.1562  0.0582
  765MOL0     C 3193   4.320   7.020   0.302 -1.1063  0.9669  0.8552
  765MOL0     C 3194   4.460   7.064   0.311  0.6780  0.2936 -0.0946
  765MOL0     C 3195   4.841   7.264   0.473  0.0152  0.8581 -0.2906
  765MOL0     C 3196   4.898   7.219   0.352  0.9617 -0.3646  0.6897
  765MOL0     C 3197   5.034   7.212   0.328  0.1932  0.3116  0.2975
  765MOL0     C 3198   5.118   7.262   0.427 -0.2057 -1.1192 -0.7288
  765MOL0     O 3199   5.253   7.253   0.414 -0.0615 -0.6116  0.4921
  765MOL0     C 3200   5.335   7.360   0.385  0.3623 -0.2223  0.5425
  765MOL0     C 3201   5.357   7.377   0.234  0.4001  0.2781 -0.2106
  765MOL0     C 3202   5.450   7.262   0.182 -0.0260 -0.1145  0.1154
  765MOL0     C 3203   5.420   7.224   0.038  0.7228  0.1699 -0.7999
  765MOL0     C 3204   5.426   7.345  -0.048  1.2212  0.3901 -0.4611
  765MOL0     C 3205   5.410   7.457  -0.103  0.8395  0.4365 -0.2398
  765MOL0     C 3206   5.063   7.315   0.551 -0.0293  0.5317 -0.9076
  765MOL0     C 3207   4.926   7.326   0.564  0.1663  0.1739 -0.5893
  765MOL0     H 3208   4.424   7.334   0.495  1.6662  0.9190 -1.7707
  765MOL0     H 3209   4.173   7.280   0.474  1.6949  3.5918 -0.3984
  765MOL0     H 3210   4.046   7.055   0.521 -2.7846 -0.5041  0.9824
  765MOL0     H 3211   3.956   7.177   0.410  0.6560  0.6576 -0.9352
  765MOL0     H 3212   3.935   6.868   0.375 -1.8779 -2.4716  1.8410
  765MOL0     H 3213   3.840   6.950   0.505  0.7589  1.0401  0.7884
  765MOL0     H 3214   3.730   7.090   0.348  0.6586 -0.4007  1.4068
  765MOL0     H 3215   3.827   7.040   0.219 -2.4678  1.2048  0.1758
  765MOL0     H 3216   3.739   6.813   0.219 -1.2455 -0.0371 -2.6711
  765MOL0     H 3217   3.655   6.833   0.367  1.3931 -1.8909 -0.6845
  765MOL0     H 3218   3.510   7.032   0.238 -2.3603 -0.7297 -0.5164
  765MOL0     H 3219   3.621   7.002   0.105  1.1374 -1.8404 -0.7665
  765MOL0     H 3220   3.532   6.765   0.087 -3.3550 -1.0384 -0.9453
  765MOL0     H 3221   3.443   6.785   0.237 -1.4790 -0.4059 -1.4906
  765MOL0     H 3222   3.283   6.810   0.057  1.5262 -1.3045 -0.0793
  765MOL0     H 3223   3.297   6.963   0.137 -1.6131 -1.5250  0.2040
  765MOL0     H 3224   3.452   7.039  -0.072  1.0533 -0.6198 -0.0839
  765MOL0     H 3225   3.281   6.993  -0.105  0.7643  0.0320  0.9604
  765MOL0     H 3226   3.255   6.711  -0.160 -0.0800  0.9078 -0.2963
  765MOL0     H 3227   3.508   6.495  -0.367  0.0148  1.1038 -1.0176
  765MOL0     H 3228   3.404   6.453  -0.219 -1.9139 -0.6214 -1.2999
  765MOL0     H 3229   3.290   6.569  -0.462  0.5866 -1.0672 -0.3440
  765MOL0     H 3230   3.199   6.516  -0.322  0.5250 -0.9601 -0.4552
  765MOL0     H 3231   3.319   6.285  -0.366  1.1636  1.3372  0.2325
  765MOL0     H 3232   3.344   6.354  -0.528  1.6145 -0.0220  1.5343
  765MOL0     H 3233   3.108   6.395  -0.560 -0.1485 -1.9031 -2.1082
  765MOL0     H 3234   3.062   6.314  -0.415 -0.2310  0.7194  0.9006
  765MOL0     H 3235   3.158   6.171  -0.836  0.1179 -1.8605  0.3632
  765MOL0     H 3236   3.070   6.108  -1.050  0.7411  1.3338  0.0594
  765MOL0     H 3237   2.920   6.033  -1.032  1.4708 -0.7360  3.3075
  765MOL0     H 3238   2.924   6.208  -1.081 -1.3522 -3.2639 -3.5922
  765MOL0     H 3239   2.419   6.173  -0.833 -0.2781  1.0390  1.0846
  765MOL0     H 3240   2.210   6.198  -0.942 -0.4363  0.8180  0.9781
  765MOL0     H 3241   2.015   6.220  -1.088 -0.3181  0.4101  0.3095
  765MOL0     H 3242   2.020   6.333  -0.947 -3.7674  0.3165 -0.1093
  765MOL0     H 3243   1.892   6.495  -1.080 -0.2563 -0.6308  1.2622
  765MOL0     H 3244   1.934   6.419  -1.231  0.4351  0.5397  0.1270
  765MOL0     H 3245   1.703   6.372  -1.111 -0.8497  0.5562  0.4388
  765MOL0     H 3246   1.798   6.244  -1.046  3.1923  1.3205  1.2932
  765MOL0     H 3247   1.804   6.278  -1.349 -0.5318 -2.8260 -1.8655
  765MOL0     H 3248   1.889   6.165  -1.261  0.9204  0.2846 -0.3405
  765MOL0     H 3249   1.664   6.092  -1.142 -0.8082  1.3859  1.2711
  765MOL0     H 3250   1.687   6.054  -1.313  1.2365  0.0943 -0.4311
  765MOL0     H 3251   1.535   6.310  -1.226  1.4833  2.5407 -2.8039
  765MOL0     H 3252   1.557   6.255  -1.387  1.5293 -1.4790 -0.0330
  765MOL0     H 3253   1.416   6.064  -1.192  0.3294 -0.6787 -0.5404
  765MOL0     H 3254   1.387   6.072  -1.359  0.3448  1.6075 -0.5463
  765MOL0     H 3255   1.196   6.142  -1.236 -1.2788  2.1451 -0.5115
  765MOL0     H 3256   1.255   6.256  -1.356  1.3448 -0.0042 -0.5335
  765MOL0     H 3257   2.353   6.536  -1.169 -2.0673 -0.9925 -1.3509
  765MOL0     H 3258   2.599   6.477  -1.078  1.0077 -1.3247  0.6927
  765MOL0     H 3259   2.700   6.158  -0.634  0.8222  0.1567  2.4641
  765MOL0     H 3260   2.902   6.156  -0.488  2.6455 -1.2294  1.0213
  765MOL0     H 3261   4.294   6.929   0.249  4.5248 -1.3111  1.2395
  765MOL0     H 3262   4.539   7.006   0.264 -0.6749 -2.8882  1.2278
  765MOL0     H 3263   4.829   7.175   0.281 -2.1420  3.3669  1.0812
  765MOL0     H 3264   5.077   7.178   0.234  0.5392 -0.1155  0.6043
  765MOL0     H 3265   5.290   7.454   0.415  1.6583  1.3536 -2.0980
  765MOL0     H 3266   5.430   7.349   0.439 -1.6828 -0.0932  4.5624
  765MOL0     H 3267   5.398   7.478   0.220 -0.7119  0.7334 -0.2303
  765MOL0     H 3268   5.256   7.381   0.194  0.5837  1.8249 -0.5686
  765MOL0     H 3269   5.429   7.175   0.245 -2.6059  1.2321  1.2525
  765MOL0     H 3270   5.556   7.286   0.196 -0.5425  1.9195  0.8496
  765MOL0     H 3271   5.327   7.170   0.018  1.1390 -0.0840 -2.1125
  765MOL0     H 3272   5.492   7.146   0.012 -0.4118 -1.2052  0.0871
  765MOL0     H 3273   5.411   7.551  -0.154 -2.0206  0.0293 -1.2270
  765MOL0     H 3274   5.132   7.361   0.621  0.1388 -0.1836 -0.5918
  765MOL0     H 3275   4.880   7.361   0.656  0.9201  0.1397 -0.1920
  766MOL0     O 3276   6.331  11.209   9.430  0.3022  0.0351  0.2222
  766MOL0     C 3277   6.303  11.303   9.503  0.5889 -0.5670 -0.1375
  766MOL0     O 3278   6.180  11.369   9.510  0.4965  0.0715  0.0918
  766MOL0     C 3279   6.064  11.333   9.437 -0.7794  0.0026  0.0948
  766MOL0     C 3280   6.062  11.253   9.324  0.2447  0.4146  0.2971
  766MOL0     C 3281   5.947  11.226   9.252 -1.1277 -0.0262 -0.0922
  766MOL0     C 3282   5.824  11.267   9.301  0.1546 -0.3053  1.3329
  766MOL0     O 3283   5.705  11.262   9.232  0.2546 -0.3539  0.6449
  766MOL0     C 3284   5.700  11.265   9.089 -0.4034  0.0422  0.3034
  766MOL0     C 3285   5.552  11.278   9.054  1.0970 -0.1401  0.4577
  766MOL0     C 3286   5.531  11.298   8.906 -0.3006 -0.0754  0.0210
  766MOL0     C 3287   5.407  11.358   8.863  0.1303 -0.4443  0.8145
  766MOL0     C 3288   5.285  11.257   8.878 -0.1721 -0.3845  0.0064
  766MOL0     C 3289   5.152  11.322   8.825  0.1908 -0.7278 -0.8000
  766MOL0     C 3290   5.027  11.242   8.856 -0.7812  0.3141 -0.5772
  766MOL0     C 3291   4.942  11.198   8.737  0.0305 -0.8301  0.2926
  766MOL0     N 3292   4.860  11.303   8.669 -0.0978 -1.1876  0.2359
  766MOL0     C 3293   4.732  11.290   8.622 -0.4810 -0.0664 -0.3152
  766MOL0     C 3294   4.697  11.416   8.584  0.5964  1.0524  0.2362
  766MOL0     C 3295   4.568  11.466   8.530  0.0644 -0.5746  0.5592
  766MOL0     C 3296   4.577  11.444   8.376 -0.7448  0.1967  0.7242
  766MOL0     C 3297   4.471  11.506   8.292  0.3698 -0.8017  0.1046
  766MOL0     C 3298   4.329  11.437   8.316 -0.3316 -0.0057  0.7633
  766MOL0     O 3299   4.217  11.515   8.251  0.0456 -0.6190 -0.1477
  766MOL0     C 3300   4.099  11.452   8.221 -0.0951 -0.3089  0.8709
  766MOL0     C 3301   4.024  11.496   8.108  0.4258 -0.6437  0.7415
  766MOL0     C 3302   3.898  11.444   8.082  1.4375  0.1276 -0.4456
  766MOL0     C 3303   3.841  11.481   7.950 -0.0026  0.2268  0.2560
  766MOL0     C 3304   3.831  11.360   8.176  0.1084 -0.5018  0.1770
  766MOL0     C 3305   3.703  11.292   8.168  0.2759 -0.1419  0.4621
  766MOL0     O 3306   3.667  11.209   8.257  0.5615  0.4798  0.1662
  766MOL0     C 3307   3.555  11.132   8.252 -0.3457 -0.6764  0.1423
  766MOL0     C 3308   3.488  11.081   8.134  0.9986  0.3005  0.6506
  766MOL0     C 3309   3.356  11.024   8.143  0.4884 -0.6672  0.6933
  766MOL0     C 3310   3.292  11.009   8.272 -0.8087 -0.1764  0.0433
  766MOL0     O 3311   3.166  10.973   8.297  0.0105  0.7024 -0.0762
  766MOL0     C 3312   3.088  10.933   8.182  0.8467  0.0344  0.2560
  766MOL0     C 3313   2.947  10.920   8.236 -0.4434  0.2476  0.5739
  766MOL0     C 3314   2.854  10.868   8.128  0.6381 -0.4258  0.5787
  766MOL0     C 3315   2.699  10.881   8.171 -0.6965  0.6903 -0.4025
  766MOL0     C 3316   2.609  10.929   8.054 -0.1587  0.1530 -0.2350
  766MOL0     C 3317   2.612  10.812   7.958 -0.1095  1.5089  0.5735
  766MOL0     C 3318   2.525  10.832   7.833 -0.0567  0.1996 -0.3704
  766MOL0     C 3319   2.508  10.699   7.763  0.3030  0.0003  0.9929
  766MOL0    Cl 3320   2.389  10.618   7.865 -0.2568 -0.0046  0.1905
  766MOL0     C 3321   3.354  11.055   8.382 -0.1545 -0.4899  0.2427
  766MOL0     C 3322   3.482  11.115   8.375  0.1025 -0.5590 -0.4317
  766MOL0     O 3323   3.637  11.312   8.065  0.5516  0.0417 -0.2239
  766MOL0     C 3324   3.915  11.319   8.281 -0.3433  0.4928 -0.1518
  766MOL0     C 3325   4.039  11.363   8.306 -1.1089 -0.0056 -0.4036
  766MOL0     N 3326   4.807  11.493   8.598  0.3214  0.0933  0.0982
  766MOL0     N 3327   4.907  11.430   8.649  0.3784  0.7607  0.4076
  766MOL0     C 3328   5.824  11.331   9.421  0.0547 -0.1950  0.5803
  766MOL0     C 3329   5.944  11.364   9.490  0.1451 -0.5779 -0.0519
  766MOL0     C 3330   6.414  11.338   9.604  0.9129 -0.8714  0.1751
  766MOL0     C 3331   6.392  11.443   9.702 -0.1592  0.1183 -0.6808
  766MOL0     C 3332   6.487  11.462   9.801  0.0356 -0.8044  0.2779
  766MOL0     C 3333   6.609  11.406   9.807  0.1993  0.8073 -0.0662
  766MOL0     O 3334   6.699  11.444   9.905  0.6123 -0.2871 -0.3094
  766MOL0     C 3335   6.832  11.389   9.919  0.4669  0.3445  0.1709
  766MOL0     C 3336   6.829  11.267  10.017  0.4403 -0.1178  0.3602
  766MOL0     C 3337   6.970  11.222  10.057  0.1706 -0.3964 -1.3340
  766MOL0     C 3338   7.025  11.306  10.169 -0.4219  0.9473  0.2405
  766MOL0     C 3339   7.136  11.236  10.250  1.2155 -0.5466 -0.0888
  766MOL0     C 3340   7.233  11.193  10.305  0.2331  0.0198  0.0122
  766MOL0     C 3341   6.631  11.311   9.705  0.4155  0.4528 -0.7252
  766MOL0     C 3342   6.543  11.274   9.601 -0.5387 -0.2003 -0.7536
  766MOL0     H 3343   6.155  11.221   9.276  0.4808  0.1850  0.8969
  766MOL0     H 3344   5.939  11.167   9.161 -2.8699 -1.7312  1.0790
  766MOL0     H 3345   5.767  11.345   9.058 -1.0251  1.3712  2.2159
  766MOL0     H 3346   5.738  11.171   9.047 -3.3601 -0.9194 -0.4884
  766MOL0     H 3347   5.486  11.193   9.075 -0.4124  0.4314 -1.6476
  766MOL0     H 3348   5.501  11.353   9.115 -1.3792 -2.6933  1.7815
  766MOL0     H 3349   5.615  11.357   8.869  3.2736 -2.7762  3.0534
  766MOL0     H 3350   5.535  11.201   8.855  1.4260 -0.1072  0.1595
  766MOL0     H 3351   5.383  11.452   8.913  0.6073  1.0984 -1.7162
  766MOL0     H 3352   5.425  11.393   8.762  2.9405  0.9908  1.7069
  766MOL0     H 3353   5.304  11.159   8.833  2.2041 -0.7296  1.6185
  766MOL0     H 3354   5.277  11.242   8.986 -0.0668  0.1963  0.0975
  766MOL0     H 3355   5.138  11.424   8.861  0.9718 -0.7893 -0.3037
  766MOL0     H 3356   5.167  11.329   8.716  5.1768 -0.0215 -0.3251
  766MOL0     H 3357   5.049  11.157   8.920 -0.0293  1.1448  0.3064
  766MOL0     H 3358   4.964  11.318   8.903 -1.2251 -0.9378  0.8947
  766MOL0     H 3359   4.867  11.128   8.775 -0.7819  0.7748  1.7476
  766MOL0     H 3360   5.008  11.144   8.668 -1.7461  0.7835 -2.9266
  766MOL0     H 3361   4.682  11.194   8.630  0.3228 -0.3369  2.7665
  766MOL0     H 3362   4.483  11.414   8.576  0.7405 -1.5995  0.6862
  766MOL0     H 3363   4.565  11.571   8.561  1.4526 -0.0160 -1.0539
  766MOL0     H 3364   4.592  11.338   8.353 -1.0279  0.1038  0.9603
  766MOL0     H 3365   4.674  11.490   8.353 -1.0770  0.0359 -1.1027
  766MOL0     H 3366   4.494  11.502   8.185  0.7243  1.0763  0.0786
  766MOL0     H 3367   4.464  11.614   8.307  2.0312 -0.5085 -0.9943
  766MOL0     H 3368   4.303  11.416   8.420  1.4457 -1.1676  1.0104
  766MOL0     H 3369   4.332  11.340   8.265 -0.8787  0.0572  0.5967
  766MOL0     H 3370   4.066  11.567   8.038 -2.1417  0.0030 -0.2501
  766MOL0     H 3371   3.754  11.548   7.953 -1.0053 -0.8634 -1.8736
  766MOL0     H 3372   3.907  11.533   7.881 -2.5482  2.0158 -1.0015
  766MOL0     H 3373   3.813  11.393   7.891  1.7271  0.1233 -0.4552
  766MOL0     H 3374   3.530  11.083   8.035  0.0210 -2.2415  0.1157
  766MOL0     H 3375   3.290  11.023   8.057  1.3937 -0.9891 -0.0185
  766MOL0     H 3376   3.089  11.002   8.097  1.3968 -0.0468  0.1931
  766MOL0     H 3377   3.124  10.839   8.139 -0.6401 -0.2876 -0.3415
  766MOL0     H 3378   2.942  10.866   8.331 -2.2752  1.4948  1.2513
  766MOL0     H 3379   2.908  11.017   8.269 -1.5699 -1.1298  3.7359
  766MOL0     H 3380   2.872  10.765   8.095  3.0077  0.2888 -0.6065
  766MOL0     H 3381   2.862  10.938   8.045  1.0980  0.9757  1.7732
  766MOL0     H 3382   2.675  10.786   8.218  0.4865  1.4306  1.8255
  766MOL0     H 3383   2.701  10.956   8.250  2.7098 -0.2467  0.5662
  766MOL0     H 3384   2.653  11.020   8.011 -0.6057  0.8347  0.7098
  766MOL0     H 3385   2.510  10.949   8.095 -0.9701 -4.0411  0.2344
  766MOL0     H 3386   2.713  10.800   7.918 -1.3026  1.4715 -2.7011
  766MOL0     H 3387   2.592  10.716   8.007  3.1691 -0.1177 -0.9286
  766MOL0     H 3388   2.563  10.896   7.753 -1.0766  0.1771 -0.8942
  766MOL0     H 3389   2.430  10.878   7.860 -0.8227  0.3547 -3.0279
  766MOL0     H 3390   2.595  10.636   7.745  0.2790  0.1371  0.3733
  766MOL0     H 3391   2.459  10.713   7.666  2.7081 -1.9725 -0.6056
  766MOL0     H 3392   3.312  11.052   8.482  0.2998 -2.5463  0.4288
  766MOL0     H 3393   3.521  11.166   8.462  2.8812 -2.5408 -0.3965
  766MOL0     H 3394   3.873  11.253   8.357  0.4290  0.3760  0.1819
  766MOL0     H 3395   4.095  11.322   8.390 -0.4765 -1.7881 -1.6170
  766MOL0     H 3396   5.731  11.352   9.474 -1.9343 -2.0464 -1.9472
  766MOL0     H 3397   5.945  11.410   9.589 -1.0689 -0.3849 -0.1097
  766MOL0     H 3398   6.298  11.497   9.692 -1.5364 -1.8584  0.9060
  766MOL0     H 3399   6.473  11.546   9.868 -2.8960 -1.1400  0.2456
  766MOL0     H 3400   6.876  11.362   9.823  1.4327 -2.1728  1.2114
  766MOL0     H 3401   6.897  11.462   9.967  2.6003 -2.5674  2.0840
  766MOL0     H 3402   6.777  11.184   9.970  2.7045 -1.2417 -0.3048
  766MOL0     H 3403   6.782  11.292  10.112  3.5382  0.8488  1.7755
  766MOL0     H 3404   7.043  11.238   9.977  0.6268  1.5911 -0.5712
  766MOL0     H 3405   6.969  11.120  10.096 -0.5236  0.8753  2.3532
  766MOL0     H 3406   6.947  11.351  10.232 -1.6720 -0.0944 -0.5025
  766MOL0     H 3407   7.077  11.391  10.123 -0.5145  1.5300  1.1684
  766MOL0     H 3408   7.321  11.147  10.345 -0.1272 -1.8072 -1.1674
  766MOL0     H 3409   6.724  11.255   9.711 -0.5703 -1.0356  2.5058
  766MOL0     H 3410   6.580  11.196   9.535 -0.2450 -0.7147  0.0103
  767MOL0     O 3411   3.187   0.930   1.940 -0.3327 -0.2948  0.0251
  767MOL0     C 3412   3.221   1.045   1.911  0.5642  0.2611 -0.4365
  767MOL0     O 3413   3.135   1.151   1.876 -0.2038  0.8061  0.1607
  767MOL0     C 3414   3.001   1.126   1.842 -0.5090  0.0746 -0.5240
  767MOL0     C 3415   2.903   1.222   1.876 -0.6297  0.6603 -0.1407
  767MOL0     C 3416   2.771   1.207   1.838 -0.4919  0.4658  0.1015
  767MOL0     C 3417   2.726   1.091   1.774 -0.5775 -0.4133 -0.7027
  767MOL0     O 3418   2.601   1.076   1.718 -0.4460  0.6947  0.3522
  767MOL0     C 3419   2.479   1.169   1.741  0.5321  0.1995  0.1388
  767MOL0     C 3420   2.347   1.125   1.672 -0.0140  0.6437 -0.1958
  767MOL0     C 3421   2.302   0.987   1.722  0.4027 -0.6343 -0.3482
  767MOL0     C 3422   2.259   0.984   1.863  0.0203  0.7114 -0.6259
  767MOL0     C 3423   2.103   0.995   1.876  0.3129 -0.1317  0.0418
  767MOL0     C 3424   2.056   0.961   2.018 -0.6396 -0.8006  0.4609
  767MOL0     C 3425   1.902   0.954   2.039 -0.0262  0.6611  0.2712
  767MOL0     C 3426   1.847   1.095   2.035 -0.0932 -0.1867  0.0649
  767MOL0     N 3427   1.898   1.178   2.146  0.1207  0.0916 -0.0458
  767MOL0     C 3428   1.985   1.286   2.131 -0.7483 -0.6952  0.1575
  767MOL0     C 3429   1.972   1.363   2.248 -0.0921  0.9582  1.0308
  767MOL0     C 3430   2.040   1.499   2.277 -0.3587  0.3392  0.5127
  767MOL0     C 3431   2.164   1.488   2.368 -0.5443  0.1564  0.8099
  767MOL0     C 3432   2.155   1.439   2.510  0.5775  0.1648 -0.1687
  767MOL0     C 3433   2.292   1.457   2.580  0.5806 -0.7843 -0.0221
  767MOL0     O 3434   2.372   1.348   2.543  0.0892 -0.2002 -0.4240
  767MOL0     C 3435   2.509   1.351   2.575  0.1810  0.0779  0.3530
  767MOL0     C 3436   2.583   1.467   2.590 -0.4981 -0.5109  0.2025
  767MOL0     C 3437   2.721   1.464   2.612 -0.1627  0.5787  0.5516
  767MOL0     C 3438   2.792   1.591   2.633  0.4279  0.1056 -0.1542
  767MOL0     C 3439   2.783   1.336   2.619  0.1442  0.1083  0.0314
  767MOL0     C 3440   2.934   1.325   2.639 -0.1993 -0.5212 -0.7003
  767MOL0     O 3441   2.975   1.204   2.693  0.0798 -0.8086 -0.3171
  767MOL0     C 3442   3.111   1.178   2.729 -0.3063 -0.6904 -0.0899
  767MOL0     C 3443   3.228   1.227   2.673  0.0625 -0.4649 -0.9472
  767MOL0     C 3444   3.362   1.206   2.724 -0.1739 -0.2257  0.0459
  767MOL0     C 3445   3.370   1.123   2.843  0.0576  0.0765 -0.2944
  767MOL0     O 3446   3.483   1.082   2.912  0.4571  0.6516  0.0962
  767MOL0     C 3447   3.602   1.154   2.909 -0.6403 -0.6302  0.1842
  767MOL0     C 3448   3.710   1.059   2.870  0.1610 -0.0674  0.4746
  767MOL0     C 3449   3.847   1.128   2.866 -0.3353 -0.3709  0.5536
  767MOL0     C 3450   3.957   1.030   2.878 -0.5208 -0.0232 -0.0796
  767MOL0     C 3451   4.002   0.957   2.751 -0.2006 -0.5374 -0.5534
  767MOL0     C 3452   4.060   1.046   2.632  0.0020 -0.1280 -0.6886
  767MOL0     C 3453   4.173   1.135   2.684  0.3773 -0.1691 -0.1731
  767MOL0     C 3454   4.229   1.207   2.563 -0.1201  0.2957  0.5452
  767MOL0    Cl 3455   4.309   1.090   2.460 -0.0151  0.1124 -0.0447
  767MOL0     C 3456   3.250   1.066   2.897 -0.3006 -0.8666  0.3244
  767MOL0     C 3457   3.126   1.105   2.843 -0.1796 -0.3311 -0.8747
  767MOL0     O 3458   3.014   1.417   2.609 -0.2636  0.0392 -0.2555
  767MOL0     C 3459   2.702   1.216   2.614 -0.3229  0.0298  0.5691
  767MOL0     C 3460   2.572   1.227   2.585 -0.5442 -0.4011 -0.3255
  767MOL0     N 3461   1.876   1.303   2.321 -0.0442  0.9964 -0.0839
  767MOL0     N 3462   1.829   1.194   2.262  1.1288  0.5642  0.3386
  767MOL0     C 3463   2.818   0.990   1.758  0.0630  0.4190 -0.0698
  767MOL0     C 3464   2.953   1.007   1.786 -0.3690  0.2421  1.0720
  767MOL0     C 3465   3.367   1.078   1.919 -0.5647  0.1059  0.2292
  767MOL0     C 3466   3.461   0.969   1.941  0.5882  0.1330 -0.0777
  767MOL0     C 3467   3.591   1.004   1.946  0.5362 -0.5035 -0.5143
  767MOL0     C 3468   3.636   1.137   1.932  0.1968  0.2102 -0.2868
  767MOL0     O 3469   3.767   1.168   1.964 -0.1584 -0.5145  0.3806
  767MOL0     C 3470   3.810   1.114   2.089 -0.6646 -0.0107  0.3709
  767MOL0     C 3471   3.896   1.213   2.154  0.2414  0.2534 -0.0395
  767MOL0     C 3472   4.034   1.234   2.094  0.1629 -0.2205  0.9740
  767MOL0     C 3473   4.123   1.315   2.194  0.0593  0.5724 -0.4811
  767MOL0     C 3474   4.245   1.358   2.135  0.0772 -0.4649 -0.1644
  767MOL0     C 3475   4.351   1.393   2.084  0.1437 -0.1163  0.6919
  767MOL0     C 3476   3.553   1.247   1.901 -0.7827  0.6395 -0.1510
  767MOL0     C 3477   3.416   1.206   1.898 -0.6215 -0.6940  0.6008
  767MOL0     H 3478   2.947   1.311   1.919  1.2913 -0.9128  1.2679
  767MOL0     H 3479   2.705   1.290   1.861 -0.6240  0.4068 -0.0623
  767MOL0     H 3480   2.462   1.192   1.846 -2.8566  1.8193 -0.6238
  767MOL0     H 3481   2.503   1.266   1.696 -1.2917 -0.5406 -2.7001
  767MOL0     H 3482   2.260   1.190   1.684 -0.0799  1.2645 -3.1881
  767MOL0     H 3483   2.366   1.122   1.564  1.3327  0.9909  0.0196
  767MOL0     H 3484   2.224   0.962   1.649  0.4907 -0.2241 -0.5848
  767MOL0     H 3485   2.389   0.922   1.726  1.0971  0.2804 -0.2202
  767MOL0     H 3486   2.300   0.894   1.909  0.7156  1.0145 -0.6383
  767MOL0     H 3487   2.306   1.067   1.917  2.4801  0.1492 -1.7570
  767MOL0     H 3488   2.077   1.100   1.859  3.3206  0.6449 -0.3518
  767MOL0     H 3489   2.053   0.936   1.798  2.5428 -1.4007 -0.5270
  767MOL0     H 3490   2.094   0.858   2.023 -0.4623 -0.7734 -0.1676
  767MOL0     H 3491   2.107   1.015   2.098 -0.0681  0.5973 -0.8061
  767MOL0     H 3492   1.845   0.887   1.974  0.0500  0.7007  0.1615
  767MOL0     H 3493   1.872   0.917   2.137 -0.0088  1.3294  0.5337
  767MOL0     H 3494   1.738   1.093   2.046 -0.4226  0.2973 -2.5157
  767MOL0     H 3495   1.868   1.151   1.943  1.5560  0.3918  0.7567
  767MOL0     H 3496   2.057   1.306   2.051 -0.5591 -1.9403 -0.0037
  767MOL0     H 3497   2.083   1.539   2.185 -1.1371  0.7021  0.2967
  767MOL0     H 3498   1.963   1.559   2.326 -0.8588 -1.0054  1.4357
  767MOL0     H 3499   2.196   1.593   2.373 -0.2465  0.0611  0.9299
  767MOL0     H 3500   2.243   1.440   2.310 -2.2417 -2.4079  0.4329
  767MOL0     H 3501   2.119   1.337   2.523 -0.8960  0.5579 -0.9652
  767MOL0     H 3502   2.085   1.505   2.563 -1.2096 -2.0386  0.3849
  767MOL0     H 3503   2.281   1.459   2.689  0.6288 -1.2821 -0.0084
  767MOL0     H 3504   2.338   1.550   2.546  2.0506 -1.8115 -0.9788
  767MOL0     H 3505   2.521   1.556   2.583  0.1165 -0.0315  0.6811
  767MOL0     H 3506   2.829   1.593   2.736 -2.5664  0.9716  1.0166
  767MOL0     H 3507   2.861   1.604   2.550  1.8221 -1.3333  0.7218
  767MOL0     H 3508   2.720   1.674   2.631  1.8578  1.4140  0.8008
  767MOL0     H 3509   3.210   1.285   2.584 -0.7511 -2.0087 -1.8270
  767MOL0     H 3510   3.440   1.264   2.676  0.2248  1.4170  2.4868
  767MOL0     H 3511   3.597   1.225   2.826  4.1831 -0.3743 -0.1581
  767MOL0     H 3512   3.637   1.214   2.994  2.0410  5.2502 -4.3808
  767MOL0     H 3513   3.711   0.985   2.950  0.8170  2.0236  2.5140
  767MOL0     H 3514   3.692   1.020   2.769  0.3681  0.8339  0.0734
  767MOL0     H 3515   3.860   1.201   2.947  2.7717 -0.7220  0.5057
  767MOL0     H 3516   3.855   1.185   2.773 -2.4312  0.0294  0.5656
  767MOL0     H 3517   4.043   1.076   2.927  0.0025 -0.8796 -0.1705
  767MOL0     H 3518   3.923   0.953   2.948 -2.0156 -1.8122 -2.6204
  767MOL0     H 3519   3.916   0.900   2.715 -0.2421 -0.4176 -0.6435
  767MOL0     H 3520   4.080   0.891   2.790  1.3287  1.4997 -0.0241
  767MOL0     H 3521   4.092   0.976   2.554 -5.0389 -0.9206 -2.4305
  767MOL0     H 3522   3.982   1.106   2.585  1.1998 -0.4311 -3.2316
  767MOL0     H 3523   4.248   1.070   2.730  0.0665  0.0346  0.6359
  767MOL0     H 3524   4.130   1.205   2.755 -0.0945 -0.1260 -0.4954
  767MOL0     H 3525   4.297   1.282   2.603 -2.8347  2.9214  0.5428
  767MOL0     H 3526   4.155   1.257   2.499  0.6359 -0.1276 -0.6994
  767MOL0     H 3527   3.263   1.012   2.990 -2.5654  1.7641  2.3874
  767MOL0     H 3528   3.037   1.095   2.905  0.1630  2.3439  0.1826
  767MOL0     H 3529   2.748   1.118   2.624 -1.1153 -0.3824  0.2721
  767MOL0     H 3530   2.515   1.137   2.562 -0.0138  0.1104 -4.1129
  767MOL0     H 3531   2.773   0.898   1.722 -3.6667  1.5736  1.1614
  767MOL0     H 3532   3.016   0.920   1.772 -0.2408 -0.1830  3.6994
  767MOL0     H 3533   3.441   0.863   1.942 -0.0581  0.2288  2.1261
  767MOL0     H 3534   3.668   0.929   1.960  2.9497  1.7528 -0.8850
  767MOL0     H 3535   3.734   1.093   2.164 -1.0022 -4.0081 -0.8029
  767MOL0     H 3536   3.869   1.022   2.083 -1.4496 -0.5846  1.1565
  767MOL0     H 3537   3.903   1.186   2.260 -0.6679  1.6844  0.4190
  767MOL0     H 3538   3.849   1.312   2.157 -0.2653  0.0111  0.0298
  767MOL0     H 3539   4.023   1.288   2.000  0.1817  1.1171  1.7172
  767MOL0     H 3540   4.086   1.138   2.085 -2.0933 -1.7508  2.8968
  767MOL0     H 3541   4.144   1.261   2.287 -0.7366 -0.1783 -0.7238
  767MOL0     H 3542   4.070   1.404   2.230 -1.3294 -1.0018  1.5652
  767MOL0     H 3543   4.442   1.429   2.042 -1.6153 -0.5161 -4.0470
  767MOL0     H 3544   3.589   1.346   1.876 -0.7251  0.3228 -1.3535
  767MOL0     H 3545   3.349   1.286   1.870 -1.1476 -0.9565  1.0842
  768MOL0     O 3546   3.783   8.375  10.835 -0.6163 -0.6578  0.2233
  768MOL0     C 3547   3.884   8.364  10.911  0.6793 -0.0427 -0.1393
  768MOL0     O 3548   3.877   8.315  11.042 -0.5427 -0.8294  0.3849
  768MOL0     C 3549   3.758   8.294  11.101  0.1633 -0.8637  0.6166
  768MOL0     C 3550   3.745   8.363  11.222  0.4548 -0.1475  0.8542
  768MOL0     C 3551   3.632   8.339  11.304 -0.4840  0.5769 -0.8139
  768MOL0     C 3552   3.529   8.252  11.247  0.0287 -0.4595  0.0490
  768MOL0     O 3553   3.427   8.227  11.336  0.3334 -0.4901 -0.1893
  768MOL0     C 3554   3.356   8.102  11.328 -0.1381  0.0689 -0.2175
  768MOL0     C 3555   3.232   8.118  11.243  0.0014  0.8184 -0.7137
  768MOL0     C 3556   3.132   8.192  11.316 -0.3469  0.6446  0.3892
  768MOL0     C 3557   2.999   8.180  11.240 -0.6914  0.7091 -0.3462
  768MOL0     C 3558   2.890   8.243  11.328 -0.8771  0.9839  0.5645
  768MOL0     C 3559   2.766   8.247  11.240  0.0352  0.5542 -0.0150
  768MOL0     C 3560   2.635   8.258  11.332 -0.6659  0.3303  0.4793
  768MOL0     C 3561   2.530   8.336  11.238 -0.0738 -1.1457  0.2664
  768MOL0     N 3562   2.392   8.325  11.285  0.2908  0.2205 -0.1989
  768MOL0     C 3563   2.294   8.266  11.214  1.0641 -0.0606  0.1085
  768MOL0     C 3564   2.180   8.269  11.291 -0.1307 -0.3064  0.5900
  768MOL0     C 3565   2.044   8.224  11.253  0.2442  0.4921  0.2443
  768MOL0     C 3566   1.978   8.165  11.383 -0.9776 -0.5180 -0.0052
  768MOL0     C 3567   2.061   8.042  11.430 -0.1107 -0.6688 -0.3326
  768MOL0     C 3568   1.981   7.961  11.536  0.2308 -0.7644 -0.2449
  768MOL0     O 3569   2.066   7.859  11.583 -0.0497 -0.3609 -0.1672
  768MOL0     C 3570   2.009   7.777  11.674 -0.3554  0.7557  0.1777
  768MOL0     C 3571   1.884   7.729  11.659 -0.2598 -0.4587  0.1033
  768MOL0     C 3572   1.821   7.644  11.754  0.4846 -0.6472 -0.1950
  768MOL0     C 3573   1.684   7.600  11.704  0.3022  0.6031  0.1949
  768MOL0     C 3574   1.899   7.619  11.873 -0.4274 -0.4099  0.2743
  768MOL0     C 3575   1.846   7.558  11.992 -0.9098 -1.3705 -0.4780
  768MOL0     O 3576   1.709   7.565  12.013  0.6362 -0.0317 -0.8383
  768MOL0     C 3577   1.655   7.451  12.077 -1.2181  0.9433  0.2574
  768MOL0     C 3578   1.598   7.345  12.010 -0.6060 -0.8716  0.6701
  768MOL0     C 3579   1.559   7.231  12.072 -0.6673  0.5752  0.1236
  768MOL0     C 3580   1.549   7.223  12.214 -0.7045 -0.8432 -0.6180
  768MOL0     O 3581   1.479   7.121  12.267  0.3102  0.4419 -0.9060
  768MOL0     C 3582   1.340   7.144  12.314 -0.3700 -0.3682 -0.9354
  768MOL0     C 3583   1.258   7.015  12.333 -1.0911  0.0310 -0.0936
  768MOL0     C 3584   1.119   7.042  12.400  0.4705  0.2066  0.0803
  768MOL0     C 3585   1.080   6.916  12.484 -0.4832  0.9723  0.0440
  768MOL0     C 3586   0.936   6.878  12.496  0.3563  0.2531  0.2821
  768MOL0     C 3587   0.847   6.993  12.545  0.0397 -0.0286  0.2742
  768MOL0     C 3588   0.716   6.926  12.598 -1.6583 -0.3423  0.7292
  768MOL0     C 3589   0.622   7.038  12.646 -0.2890  0.0930 -0.9819
  768MOL0    Cl 3590   0.475   6.968  12.715 -0.5779  0.2038 -0.5041
  768MOL0     C 3591   1.605   7.328  12.285  0.2618  0.2899  0.5518
  768MOL0     C 3592   1.665   7.433  12.215  0.4914  0.2767 -0.0258
  768MOL0     O 3593   1.930   7.497  12.065 -0.3477 -0.6887  0.8279
  768MOL0     C 3594   2.031   7.670  11.873  0.0678 -1.2279  0.1907
  768MOL0     C 3595   2.088   7.744  11.783  0.0048  0.1671 -0.2190
  768MOL0     N 3596   2.215   8.339  11.408  0.5303  0.5351 -1.1918
  768MOL0     N 3597   2.337   8.382  11.396  0.5819  0.9733 -0.6851
  768MOL0     C 3598   3.542   8.203  11.121  0.0793  0.0657 -1.1452
  768MOL0     C 3599   3.659   8.220  11.047 -0.3982 -0.3720 -0.6395
  768MOL0     C 3600   4.014   8.417  10.868  0.0117  0.7212 -0.0836
  768MOL0     C 3601   4.138   8.374  10.930  0.7474 -0.0439  0.7584
  768MOL0     C 3602   4.260   8.405  10.881 -0.1755 -0.5277 -0.0408
  768MOL0     C 3603   4.268   8.477  10.761 -0.1242  0.1818  0.2434
  768MOL0     O 3604   4.393   8.509  10.704  0.0492  0.4815 -0.3113
  768MOL0     C 3605   4.435   8.641  10.738 -0.0954  0.1593  0.6215
  768MOL0     C 3606   4.588   8.660  10.713  0.2300 -0.3028 -0.4645
  768MOL0     C 3607   4.679   8.567  10.799 -0.0744 -0.5733 -0.1267
  768MOL0     C 3608   4.822   8.534  10.741  0.3138 -0.3075 -0.6452
  768MOL0     C 3609   4.917   8.649  10.747 -0.0333  0.4634  0.5974
  768MOL0     C 3610   5.006   8.730  10.738 -0.7318  0.6647  0.2843
  768MOL0     C 3611   4.154   8.522  10.694  0.2557 -0.3566 -0.4223
  768MOL0     C 3612   4.026   8.500  10.751  0.0227  0.3500 -0.0520
  768MOL0     H 3613   3.817   8.433  11.263 -1.2497  3.0053 -1.1319
  768MOL0     H 3614   3.607   8.391  11.396  1.1461  1.3725 -0.7909
  768MOL0     H 3615   3.433   8.035  11.290  0.5548 -0.3295  1.7873
  768MOL0     H 3616   3.332   8.062  11.426 -1.7090 -0.8068 -0.9260
  768MOL0     H 3617   3.251   8.160  11.144 -1.5005  2.4275 -0.3732
  768MOL0     H 3618   3.190   8.018  11.230 -0.9763  0.6735  2.5077
  768MOL0     H 3619   3.115   8.153  11.416  1.8407 -0.5430  0.3513
  768MOL0     H 3620   3.165   8.296  11.325 -0.2829  0.6694 -0.1059
  768MOL0     H 3621   3.002   8.227  11.141 -5.0335 -1.6310 -1.8587
  768MOL0     H 3622   2.970   8.075  11.227  0.6642  0.0161  1.7982
  768MOL0     H 3623   2.881   8.187  11.422  0.1079  2.6976  1.7352
  768MOL0     H 3624   2.932   8.341  11.354  0.9786  0.1160  1.0528
  768MOL0     H 3625   2.790   8.325  11.166  0.3860  1.2511  0.8184
  768MOL0     H 3626   2.751   8.151  11.190 -0.9647 -0.0685  1.4316
  768MOL0     H 3627   2.593   8.160  11.357  0.0415  0.1693  1.0685
  768MOL0     H 3628   2.646   8.308  11.429 -1.7987 -0.0820  0.8409
  768MOL0     H 3629   2.546   8.298  11.136  2.9544  1.0855 -0.2389
  768MOL0     H 3630   2.548   8.443  11.235 -0.2250 -1.1355 -1.7608
  768MOL0     H 3631   2.292   8.232  11.111 -2.5858 -0.3966  0.1441
  768MOL0     H 3632   1.989   8.311  11.217  1.5968 -0.0072 -3.4211
  768MOL0     H 3633   2.044   8.145  11.177 -3.2082  0.0457  0.5656
  768MOL0     H 3634   1.875   8.133  11.364 -0.2883 -0.8761 -4.0500
  768MOL0     H 3635   1.985   8.247  11.455 -0.6959  0.0662 -0.6904
  768MOL0     H 3636   2.157   8.072  11.474 -0.2302  0.7924 -0.9893
  768MOL0     H 3637   2.095   7.979  11.347  2.3670  0.5143 -0.2948
  768MOL0     H 3638   1.892   7.923  11.484  0.7389 -1.4871 -0.6100
  768MOL0     H 3639   1.962   8.027  11.621 -1.1860  0.2343 -1.3022
  768MOL0     H 3640   1.835   7.763  11.568  0.4405  2.3964  0.7122
  768MOL0     H 3641   1.616   7.578  11.786 -0.8419 -1.2354 -1.1763
  768MOL0     H 3642   1.642   7.683  11.646 -1.5661 -1.5056 -1.6427
  768MOL0     H 3643   1.682   7.508  11.645 -1.3910 -0.8257  2.3230
  768MOL0     H 3644   1.610   7.354  11.903  2.2042  3.1387  1.0453
  768MOL0     H 3645   1.533   7.145  12.012  0.9082  1.2986 -1.6886
  768MOL0     H 3646   1.331   7.184  12.415 -3.5702  0.7301 -1.5218
  768MOL0     H 3647   1.279   7.211  12.253  1.8271  1.8406 -0.8531
  768MOL0     H 3648   1.249   6.970  12.234  3.4584 -0.7378 -0.3426
  768MOL0     H 3649   1.328   6.951  12.387  2.4933  0.9666 -3.2321
  768MOL0     H 3650   1.044   7.037  12.320  0.6898 -2.6225 -0.0436
  768MOL0     H 3651   1.107   7.136  12.455  4.3448  0.9736 -0.0802
  768MOL0     H 3652   1.128   6.829  12.437 -0.0706  0.2050  1.8286
  768MOL0     H 3653   1.122   6.924  12.584  2.0251  1.6315 -0.9696
  768MOL0     H 3654   0.948   6.794  12.564  1.7495  0.9946  1.0090
  768MOL0     H 3655   0.908   6.844  12.396 -1.1045  0.6990  0.5202
  768MOL0     H 3656   0.883   7.050  12.631  0.7678 -0.8687  0.5505
  768MOL0     H 3657   0.820   7.053  12.458  2.1039 -0.2095 -0.5496
  768MOL0     H 3658   0.741   6.848  12.671 -0.2959 -1.8755 -1.2393
  768MOL0     H 3659   0.668   6.868  12.519 -0.9199 -0.1488  0.1227
  768MOL0     H 3660   0.598   7.103  12.562  0.6310  1.8291  0.0517
  768MOL0     H 3661   0.669   7.101  12.722  2.8662 -0.9901 -1.8365
  768MOL0     H 3662   1.599   7.332  12.393 -1.1512  1.7515  0.4649
  768MOL0     H 3663   1.711   7.519  12.264  1.8676 -0.0805 -0.6441
  768MOL0     H 3664   2.094   7.641  11.956 -1.1212 -1.8507  0.8911
  768MOL0     H 3665   2.191   7.776  11.789  0.9430 -2.3920 -1.3555
  768MOL0     H 3666   3.457   8.150  11.079 -1.1988 -0.2711  1.6148
  768MOL0     H 3667   3.685   8.172  10.954 -4.0367 -1.1422 -1.4452
  768MOL0     H 3668   4.134   8.316  11.022 -1.9810 -0.5430  0.4165
  768MOL0     H 3669   4.342   8.364  10.939 -3.0299 -2.7537  2.8156
  768MOL0     H 3670   4.398   8.716  10.668  2.3780  0.2010 -0.7607
  768MOL0     H 3671   4.407   8.663  10.842 -0.5448  0.8257  0.3692
  768MOL0     H 3672   4.609   8.765  10.733 -0.8620 -0.0680 -0.5050
  768MOL0     H 3673   4.612   8.647  10.607  0.7018  0.4305 -0.4495
  768MOL0     H 3674   4.626   8.472  10.810  1.6267 -1.6649 -0.9242
  768MOL0     H 3675   4.687   8.611  10.898  2.0851  2.1862 -1.4014
  768MOL0     H 3676   4.801   8.507  10.637 -0.4677 -0.1329 -0.5410
  768MOL0     H 3677   4.853   8.443  10.793 -1.5861 -0.9603 -0.5747
  768MOL0     H 3678   5.088   8.796  10.721 -2.0076  2.1777 -0.2426
  768MOL0     H 3679   4.159   8.569  10.597 -1.2635  0.8755  0.0684
  768MOL0     H 3680   3.931   8.528  10.708  1.1811  1.8484 -1.8009
  769MOL0     O 3681  10.111   5.674   5.411 -0.8833 -0.1649  0.2347
  769MOL0     C 3682  10.138   5.783   5.465 -0.0571  0.9698  0.2592
  769MOL0     O 3683  10.063   5.907   5.470  0.5189 -0.4499  0.2947
  769MOL0     C 3684   9.937   5.914   5.409 -0.8280 -0.5716  0.2296
  769MOL0     C 3685   9.890   6.033   5.355 -0.2542 -0.1117  0.0559
  769MOL0     C 3686   9.772   6.040   5.277 -0.5500 -0.0472  0.0271
  769MOL0     C 3687   9.700   5.934   5.257  0.9329 -0.4260 -0.3777
  769MOL0     O 3688   9.577   5.946   5.196  0.3353  0.0779  0.1406
  769MOL0     C 3689   9.499   5.833   5.171  0.6636  0.2965 -0.1120
  769MOL0     C 3690   9.426   5.812   5.302  0.7407 -0.1907 -0.8825
  769MOL0     C 3691   9.303   5.727   5.290 -0.0011 -0.8294  0.5557
  769MOL0     C 3692   9.242   5.708   5.431 -1.0559 -0.5763  0.1345
  769MOL0     C 3693   9.106   5.643   5.433  0.7026 -0.2176 -0.0455
  769MOL0     C 3694   8.998   5.729   5.359  0.6214  0.5801 -0.4254
  769MOL0     C 3695   8.869   5.661   5.377 -0.0147 -0.4684 -0.7205
  769MOL0     C 3696   8.809   5.679   5.522  0.1935 -0.3236 -1.1096
  769MOL0     N 3697   8.660   5.668   5.519  0.1058  0.2647  0.3748
  769MOL0     C 3698   8.576   5.734   5.421 -0.3016 -0.2770 -0.1839
  769MOL0     C 3699   8.458   5.678   5.441 -0.4790 -0.2347  0.0987
  769MOL0     C 3700   8.335   5.722   5.374  0.1774 -0.4732 -0.6119
  769MOL0     C 3701   8.318   5.636   5.249 -0.0290  0.3958 -0.4790
  769MOL0     C 3702   8.195   5.688   5.163  0.0242 -0.7152 -0.0891
  769MOL0     C 3703   8.220   5.684   5.014 -0.4080  0.3725  0.5312
  769MOL0     O 3704   8.136   5.782   4.958  0.3184  0.1847 -0.2110
  769MOL0     C 3705   8.091   5.766   4.823 -0.9402 -0.1622  0.9641
  769MOL0     C 3706   8.149   5.681   4.737  0.7557 -0.1128  0.2585
  769MOL0     C 3707   8.093   5.665   4.604 -0.1926 -0.4603 -0.3104
  769MOL0     C 3708   8.159   5.586   4.509 -0.0951  0.3840  0.5522
  769MOL0     C 3709   7.982   5.739   4.559 -0.4154  0.6421  0.5666
  769MOL0     C 3710   7.913   5.718   4.429 -0.1108  0.9907  0.0423
  769MOL0     O 3711   7.876   5.817   4.361 -0.5816 -0.2346  0.5281
  769MOL0     C 3712   7.789   5.811   4.259 -0.4700  0.3164 -0.9330
  769MOL0     C 3713   7.822   5.834   4.126 -0.1987 -0.1568  0.4539
  769MOL0     C 3714   7.723   5.839   4.031 -0.6189  0.6808 -0.3931
  769MOL0     C 3715   7.584   5.808   4.063  0.4036 -0.7646  0.3907
  769MOL0     O 3716   7.489   5.817   3.963 -0.4503 -0.1728 -0.4303
  769MOL0     C 3717   7.357   5.851   4.001 -0.0247 -0.0840 -0.2911
  769MOL0     C 3718   7.260   5.858   3.885 -0.2589  1.0661 -0.1457
  769MOL0     C 3719   7.119   5.869   3.930 -0.1463 -0.0836 -0.0512
  769MOL0     C 3720   7.095   5.956   4.053  0.0154  0.3529 -0.0462
  769MOL0     C 3721   6.956   5.935   4.119 -0.3318 -0.2405  0.0336
  769MOL0     C 3722   6.841   5.967   4.026  0.6483  0.1183 -0.1363
  769MOL0     C 3723   6.708   5.965   4.094  0.1607  0.4819  0.8064
  769MOL0     C 3724   6.642   5.832   4.075  0.1507  0.9435 -0.0174
  769MOL0    Cl 3725   6.514   5.823   4.202 -0.0255 -0.2936  0.0661
  769MOL0     C 3726   7.557   5.780   4.198 -0.0659  0.2207 -0.0077
  769MOL0     C 3727   7.654   5.778   4.298 -0.6066 -0.8218  0.3935
  769MOL0     O 3728   7.888   5.597   4.403 -0.3022 -0.0895  0.0505
  769MOL0     C 3729   7.924   5.822   4.652  0.1384 -0.0476  0.0449
  769MOL0     C 3730   7.985   5.841   4.776 -0.4384  0.0854  0.0865
  769MOL0     N 3731   8.472   5.590   5.552 -1.1599  0.0964  0.3989
  769MOL0     N 3732   8.594   5.566   5.580 -0.3639  0.4861  0.2325
  769MOL0     C 3733   9.746   5.813   5.303  0.1740  0.4367  0.5803
  769MOL0     C 3734   9.859   5.807   5.382  0.3981 -0.6116 -0.0925
  769MOL0     C 3735  10.262   5.784   5.556 -0.0110 -0.1240 -0.8268
  769MOL0     C 3736  10.343   5.667   5.572  0.1620 -0.7264 -0.9234
  769MOL0     C 3737  10.466   5.677   5.645 -0.0153 -0.4466 -0.2635
  769MOL0     C 3738  10.500   5.804   5.709  0.3673 -0.6298 -0.4107
  769MOL0     O 3739  10.619   5.826   5.777  0.5834  0.1401  1.1542
  769MOL0     C 3740  10.717   5.725   5.775 -0.3723 -0.3082  0.2905
  769MOL0     C 3741  10.819   5.764   5.878  0.1166  0.1084  0.9287
  769MOL0     C 3742  10.926   5.862   5.829  0.6382  0.9602  0.0516
  769MOL0     C 3743  10.975   5.974   5.925 -0.0561 -1.2927 -0.4170
  769MOL0     C 3744  10.862   6.062   5.959 -0.2834 -0.4346 -1.2685
  769MOL0     C 3745  10.769   6.145   5.963 -0.3632  0.4312 -0.7407
  769MOL0     C 3746  10.420   5.915   5.689  0.2896 -0.3077  0.3489
  769MOL0     C 3747  10.315   5.906   5.606 -0.3596 -0.7363 -0.0817
  769MOL0     H 3748   9.961   6.115   5.363  0.4326 -0.1978 -3.3495
  769MOL0     H 3749   9.732   6.131   5.232  0.0047 -0.4807 -1.3992
  769MOL0     H 3750   9.431   5.850   5.087 -1.4315 -2.4924  0.8501
  769MOL0     H 3751   9.545   5.734   5.158 -3.0915 -1.9567  2.1015
  769MOL0     H 3752   9.495   5.766   5.375  2.0375  3.1060  0.1598
  769MOL0     H 3753   9.405   5.907   5.351  2.0277 -0.0483 -0.5635
  769MOL0     H 3754   9.237   5.759   5.209  0.6649  1.5530  0.8887
  769MOL0     H 3755   9.344   5.629   5.263  1.2731  0.1392 -1.2322
  769MOL0     H 3756   9.317   5.659   5.494  2.7079  1.7993 -2.0880
  769MOL0     H 3757   9.226   5.807   5.474  0.4044 -0.7303  1.1191
  769MOL0     H 3758   9.113   5.549   5.378  1.6505 -0.6638  0.7999
  769MOL0     H 3759   9.081   5.619   5.537  1.1947  2.5944  0.8147
  769MOL0     H 3760   8.985   5.829   5.401  1.6240  1.0110 -1.1147
  769MOL0     H 3761   9.010   5.734   5.251  0.0537 -3.2283 -0.8074
  769MOL0     H 3762   8.808   5.722   5.309  2.4328  3.5683  0.3740
  769MOL0     H 3763   8.872   5.555   5.352  0.4151 -0.0017 -2.9115
  769MOL0     H 3764   8.829   5.777   5.566  0.0972  0.1559 -2.1094
  769MOL0     H 3765   8.842   5.605   5.595 -1.9224  1.8230  2.2982
  769MOL0     H 3766   8.602   5.810   5.349  2.5691  0.7675  1.7686
  769MOL0     H 3767   8.243   5.712   5.432 -0.2263  0.6270 -1.0280
  769MOL0     H 3768   8.339   5.827   5.345  0.4271  0.5060  2.5901
  769MOL0     H 3769   8.309   5.528   5.264 -0.0699 -0.0121 -3.1183
  769MOL0     H 3770   8.406   5.640   5.184  0.0478 -3.5005 -0.8302
  769MOL0     H 3771   8.191   5.797   5.171  1.2834 -0.6629  0.0105
  769MOL0     H 3772   8.102   5.647   5.204  0.8505 -3.1631 -0.5184
  769MOL0     H 3773   8.191   5.583   4.983 -0.5857  1.1029 -1.8822
  769MOL0     H 3774   8.324   5.711   4.995 -0.6744  1.2464  0.2891
  769MOL0     H 3775   8.251   5.647   4.752  1.4361  1.8320  0.3426
  769MOL0     H 3776   8.158   5.634   4.411  2.0133 -2.0180 -0.7902
  769MOL0     H 3777   8.260   5.557   4.541 -0.1072  0.1918  0.4236
  769MOL0     H 3778   8.103   5.492   4.507 -0.6311  0.6563  1.7846
  769MOL0     H 3779   7.924   5.864   4.107 -0.1962 -0.6089 -0.2715
  769MOL0     H 3780   7.761   5.863   3.932 -0.2463  1.3430 -0.0977
  769MOL0     H 3781   7.319   5.768   4.062  1.2972  0.7230  1.7644
  769MOL0     H 3782   7.366   5.939   4.066  0.1910 -0.4419  0.1762
  769MOL0     H 3783   7.290   5.927   3.806  0.2598 -2.2714 -3.1304
  769MOL0     H 3784   7.281   5.767   3.829 -0.4931  0.6127  0.4939
  769MOL0     H 3785   7.080   5.771   3.961 -2.7782  0.4339 -1.5055
  769MOL0     H 3786   7.069   5.905   3.840  1.1444  0.2188 -0.6753
  769MOL0     H 3787   7.163   5.931   4.134 -0.1085 -0.4332 -0.1812
  769MOL0     H 3788   7.111   6.060   4.022 -1.5988  0.6901  0.1643
  769MOL0     H 3789   6.951   5.988   4.215 -0.3096  0.8317 -0.5508
  769MOL0     H 3790   6.949   5.829   4.147 -1.3004  1.0132  5.7971
  769MOL0     H 3791   6.852   6.068   3.985  3.3339 -0.4454 -1.0283
  769MOL0     H 3792   6.835   5.903   3.938 -3.1875  0.0950 -0.0097
  769MOL0     H 3793   6.649   6.052   4.065  0.0252 -0.7134 -3.0675
  769MOL0     H 3794   6.713   5.964   4.203 -2.6930 -1.2084  1.0419
  769MOL0     H 3795   6.707   5.745   4.087 -0.7750  0.4860  2.1958
  769MOL0     H 3796   6.593   5.821   3.978  0.4764 -1.2014  0.0213
  769MOL0     H 3797   7.455   5.752   4.220  0.0144 -0.4646 -0.4645
  769MOL0     H 3798   7.632   5.753   4.402 -0.7893 -1.7325  0.1498
  769MOL0     H 3799   7.835   5.881   4.632  0.0877  0.8884  2.6697
  769MOL0     H 3800   7.930   5.906   4.844 -0.6077 -0.5225  0.5487
  769MOL0     H 3801   9.706   5.713   5.287  1.5740  0.2662 -2.5786
  769MOL0     H 3802   9.894   5.712   5.420  0.3558 -0.0555  1.4444
  769MOL0     H 3803  10.319   5.571   5.528  0.3867 -0.0901 -2.4794
  769MOL0     H 3804  10.526   5.587   5.652  1.1603  0.2477 -1.1075
  769MOL0     H 3805  10.671   5.631   5.807  1.1771 -1.6357 -1.1817
  769MOL0     H 3806  10.763   5.706   5.678 -3.0896 -1.2260 -0.9243
  769MOL0     H 3807  10.874   5.675   5.912 -1.8102 -1.0541  1.1460
  769MOL0     H 3808  10.764   5.795   5.967 -1.7224 -2.5043  0.8236
  769MOL0     H 3809  10.892   5.900   5.732 -4.0979 -1.6531  0.4113
  769MOL0     H 3810  11.011   5.796   5.807 -0.3623 -0.8518  1.4014
  769MOL0     H 3811  11.057   6.031   5.879 -0.2593  0.0890  0.8318
  769MOL0     H 3812  11.018   5.946   6.022 -2.0997  0.6375  1.1595
  769MOL0     H 3813  10.687   6.213   5.970  0.9308  2.0810 -0.8739
  769MOL0     H 3814  10.447   6.015   5.721  1.3047 -0.6891  0.7224
  769MOL0     H 3815  10.274   6.003   5.577 -1.6873 -2.0337 -2.9548
  770MOL0     O 3816   5.079   1.125   8.036  0.5615  0.5363  0.1637
  770MOL0     C 3817   5.068   1.037   8.124 -0.3958 -0.0235  0.3189
  770MOL0     O 3818   5.167   1.004   8.220  0.2272  0.2640  0.3167
  770MOL0     C 3819   5.288   1.066   8.217  0.1629 -0.7081  0.1375
  770MOL0     C 3820   5.319   1.202   8.242 -0.1564 -0.1074  0.7910
  770MOL0     C 3821   5.449   1.251   8.249  0.1168 -0.0942 -0.0571
  770MOL0     C 3822   5.562   1.161   8.243  1.0583  0.2991 -0.9280
  770MOL0     O 3823   5.691   1.199   8.269  0.4600 -0.2974  0.0888
  770MOL0     C 3824   5.708   1.329   8.337  0.2408  0.5562 -0.0022
  770MOL0     C 3825   5.865   1.346   8.356  0.0060  0.0926  0.9506
  770MOL0     C 3826   5.914   1.252   8.466 -0.3559  0.7130  0.6296
  770MOL0     C 3827   6.060   1.290   8.490 -0.7214  0.4973 -0.0394
  770MOL0     C 3828   6.119   1.206   8.610 -1.1727  0.6297 -0.2974
  770MOL0     C 3829   6.059   1.254   8.749  0.1386  0.3491  0.5982
  770MOL0     C 3830   6.081   1.151   8.860  0.9243  0.8364 -0.5182
  770MOL0     C 3831   6.020   1.182   9.002 -0.2417  0.1811  0.0398
  770MOL0     N 3832   6.100   1.289   9.062  0.4029  0.1242  0.3756
  770MOL0     C 3833   6.076   1.422   9.044  0.7649 -0.1358 -0.6542
  770MOL0     C 3834   6.157   1.477   9.141 -0.9293  0.1305  0.1210
  770MOL0     C 3835   6.178   1.624   9.166  0.1128  0.0976 -0.1881
  770MOL0     C 3836   6.237   1.674   9.292  0.5217 -0.3754 -0.7633
  770MOL0     C 3837   6.273   1.827   9.298 -0.6235  0.7585  0.0897
  770MOL0     C 3838   6.143   1.916   9.308  1.2620 -0.3963  0.8170
  770MOL0     O 3839   6.065   1.890   9.192 -0.0195  0.5304 -0.4033
  770MOL0     C 3840   5.923   1.894   9.181  0.1570  0.4404  0.1260
  770MOL0     C 3841   5.832   1.927   9.280  0.2376 -0.1172 -0.3183
  770MOL0     C 3842   5.693   1.916   9.263 -0.6867  0.7290 -0.9410
  770MOL0     C 3843   5.609   1.964   9.378  0.3182 -0.7258 -0.6497
  770MOL0     C 3844   5.642   1.854   9.144  0.4363 -0.2929 -0.2185
  770MOL0     C 3845   5.496   1.823   9.111  0.5927 -1.3755  0.4242
  770MOL0     O 3846   5.467   1.735   9.004 -0.1051 -0.1369  0.2533
  770MOL0     C 3847   5.337   1.692   8.985 -0.8846 -0.5871  1.0040
  770MOL0     C 3848   5.261   1.738   8.876  0.6311 -0.5255  0.3667
  770MOL0     C 3849   5.136   1.678   8.842  0.0470 -0.5958  0.4055
  770MOL0     C 3850   5.089   1.573   8.923 -0.5004 -0.2127 -0.4547
  770MOL0     O 3851   4.958   1.533   8.907  0.8592  0.7981  0.3821
  770MOL0     C 3852   4.879   1.509   9.023  0.2938  1.0073  0.3269
  770MOL0     C 3853   4.752   1.448   8.968  0.1814  0.1638  0.0214
  770MOL0     C 3854   4.654   1.552   8.904  1.0261 -0.3763  0.1632
  770MOL0     C 3855   4.528   1.480   8.848 -0.4280  0.8779 -0.1359
  770MOL0     C 3856   4.424   1.598   8.824  0.0005  0.3418 -0.2049
  770MOL0     C 3857   4.347   1.646   8.950 -0.2653  0.6146  0.2009
  770MOL0     C 3858   4.247   1.536   8.986  1.2635 -0.0297 -0.0379
  770MOL0     C 3859   4.115   1.553   8.906  0.7830 -0.3952  0.2583
  770MOL0    Cl 3860   4.027   1.402   8.946  0.1921 -0.2054 -0.0006
  770MOL0     C 3861   5.167   1.527   9.031 -0.3129 -0.2115 -0.2909
  770MOL0     C 3862   5.289   1.593   9.065 -0.2852 -0.1822  0.1489
  770MOL0     O 3863   5.412   1.880   9.174 -0.2394  0.3473 -0.1024
  770MOL0     C 3864   5.740   1.826   9.045  0.0467  0.1469  0.2949
  770MOL0     C 3865   5.873   1.845   9.061 -0.3868 -0.0389 -0.5071
  770MOL0     N 3866   6.228   1.380   9.205 -0.0271  0.5250 -0.2403
  770MOL0     N 3867   6.192   1.270   9.157 -0.4017  0.8892 -0.6662
  770MOL0     C 3868   5.529   1.028   8.224 -0.5098  0.3507  0.1003
  770MOL0     C 3869   5.398   0.980   8.204 -0.2605  0.3831  0.4056
  770MOL0     C 3870   4.929   0.983   8.143 -1.1468 -0.5399 -0.8499
  770MOL0     C 3871   4.898   0.920   8.269  0.2492  0.4267  0.0103
  770MOL0     C 3872   4.768   0.879   8.294 -0.1434  1.4117  0.6397
  770MOL0     C 3873   4.671   0.889   8.190  0.2755 -0.7062 -1.2793
  770MOL0     O 3874   4.552   0.835   8.225 -0.5256  0.0128  0.0157
  770MOL0     C 3875   4.450   0.805   8.136  0.2538 -0.2885  0.5640
  770MOL0     C 3876   4.369   0.690   8.201  0.4385  0.2606 -0.1163
  770MOL0     C 3877   4.307   0.593   8.092  0.0627 -0.5801  0.1879
  770MOL0     C 3878   4.223   0.479   8.145 -0.9310 -0.2852 -0.7275
  770MOL0     C 3879   4.092   0.527   8.188  0.0485  0.0375 -0.6602
  770MOL0     C 3880   3.987   0.587   8.207  0.9778  0.4555 -0.5527
  770MOL0     C 3881   4.709   0.934   8.072 -0.9440 -0.7226 -0.5980
  770MOL0     C 3882   4.836   0.984   8.045  0.5195 -0.4410 -0.0948
  770MOL0     H 3883   5.226   1.257   8.239 -0.5666 -0.7634  1.2280
  770MOL0     H 3884   5.449   1.356   8.276 -1.4536 -0.0142 -0.2255
  770MOL0     H 3885   5.664   1.407   8.274  0.5504  0.4422 -0.3582
  770MOL0     H 3886   5.652   1.333   8.432 -0.6932  3.9399 -0.5714
  770MOL0     H 3887   5.909   1.325   8.259 -0.4600  1.5965  0.3847
  770MOL0     H 3888   5.896   1.449   8.377 -1.5101  0.1567  3.3218
  770MOL0     H 3889   5.861   1.263   8.561  2.0939  3.1710  1.8422
  770MOL0     H 3890   5.890   1.156   8.419 -1.3487  2.7317 -3.4338
  770MOL0     H 3891   6.111   1.259   8.399 -2.9021 -2.1338 -0.4952
  770MOL0     H 3892   6.079   1.397   8.494  3.1188 -0.0385  0.1978
  770MOL0     H 3893   6.089   1.101   8.604  0.1595 -0.0246  2.5969
  770MOL0     H 3894   6.227   1.223   8.606 -1.1167  0.3455  0.0124
  770MOL0     H 3895   6.096   1.350   8.786  0.9295  1.0850 -1.8549
  770MOL0     H 3896   5.952   1.272   8.738  0.4645  1.3445 -1.5366
  770MOL0     H 3897   6.041   1.052   8.840  0.9334 -0.0703  3.2546
  770MOL0     H 3898   6.187   1.126   8.869  0.6633 -0.2233 -0.3153
  770MOL0     H 3899   6.032   1.095   9.067 -0.1110  0.1287 -0.0538
  770MOL0     H 3900   5.912   1.197   9.000 -0.5835 -2.0306 -1.0684
  770MOL0     H 3901   6.004   1.471   8.978 -0.5046  2.1178  2.1822
  770MOL0     H 3902   6.227   1.655   9.073 -1.4837 -0.5990 -1.3022
  770MOL0     H 3903   6.074   1.655   9.167 -0.0173 -0.3353 -0.1399
  770MOL0     H 3904   6.335   1.625   9.290  0.0351 -1.3582 -2.7777
  770MOL0     H 3905   6.178   1.639   9.377 -0.6201 -0.6513 -1.6514
  770MOL0     H 3906   6.334   1.834   9.208  0.2375  0.3961  0.6361
  770MOL0     H 3907   6.337   1.848   9.384 -0.4827  1.2747 -0.1336
  770MOL0     H 3908   6.173   2.021   9.314  1.7067 -0.5511  1.2955
  770MOL0     H 3909   6.081   1.885   9.392 -0.7669 -3.0262 -1.4237
  770MOL0     H 3910   5.876   1.964   9.372  0.7433  1.1958 -1.0569
  770MOL0     H 3911   5.521   1.902   9.393 -1.3519  1.6389  0.0073
  770MOL0     H 3912   5.657   1.981   9.475 -0.2029 -3.5201  0.1712
  770MOL0     H 3913   5.576   2.061   9.339  0.2968 -0.9432 -1.1807
  770MOL0     H 3914   5.296   1.821   8.816 -2.3091  0.3427 -0.3030
  770MOL0     H 3915   5.069   1.713   8.764  0.4489 -1.8372 -0.5293
  770MOL0     H 3916   4.927   1.441   9.094  1.0060  1.5872  0.4100
  770MOL0     H 3917   4.860   1.602   9.076 -1.5703  0.2716  1.0552
  770MOL0     H 3918   4.776   1.383   8.883 -0.6510 -0.7749  0.4838
  770MOL0     H 3919   4.700   1.395   9.049  0.0803 -0.5936 -0.5279
  770MOL0     H 3920   4.702   1.611   8.825 -0.9648 -0.3876 -1.1230
  770MOL0     H 3921   4.621   1.627   8.976  0.5933  1.2363 -1.6145
  770MOL0     H 3922   4.566   1.432   8.757  1.6061  1.7998  0.1608
  770MOL0     H 3923   4.481   1.398   8.902  0.1090 -0.5166 -1.6791
  770MOL0     H 3924   4.348   1.566   8.753  2.2322  0.4245 -2.8085
  770MOL0     H 3925   4.470   1.681   8.768 -1.0071 -0.8790 -3.0525
  770MOL0     H 3926   4.409   1.675   9.035 -0.0259  1.3651 -0.2237
  770MOL0     H 3927   4.286   1.729   8.915 -3.7519 -0.9308  2.0870
  770MOL0     H 3928   4.218   1.563   9.088  1.8893  2.5799 -0.4755
  770MOL0     H 3929   4.275   1.431   8.995  0.8473 -0.2216 -0.8591
  770MOL0     H 3930   4.142   1.554   8.800 -2.4761  0.8535 -0.6600
  770MOL0     H 3931   4.051   1.636   8.937 -0.1704 -0.3041 -1.8336
  770MOL0     H 3932   5.143   1.446   9.098 -1.3837  0.4819  0.2033
  770MOL0     H 3933   5.346   1.550   9.147 -2.9258  0.1140  2.2765
  770MOL0     H 3934   5.713   1.788   8.947  1.5973 -0.9642  0.2718
  770MOL0     H 3935   5.938   1.825   8.976  0.8563  2.3865 -0.1982
  770MOL0     H 3936   5.616   0.963   8.224  1.8316  3.2920  0.2010
  770MOL0     H 3937   5.389   0.873   8.189  2.7934 -0.3386  2.7212
  770MOL0     H 3938   4.979   0.906   8.341 -0.2905 -2.8872  0.0974
  770MOL0     H 3939   4.737   0.823   8.381 -0.8994 -0.4801 -0.7783
  770MOL0     H 3940   4.390   0.895   8.118  2.8201  1.7708  1.5249
  770MOL0     H 3941   4.492   0.772   8.040  0.5699 -0.8245  0.8789
  770MOL0     H 3942   4.287   0.732   8.260 -1.8455 -0.5315 -2.5049
  770MOL0     H 3943   4.425   0.621   8.265 -2.0916  0.1639  2.1652
  770MOL0     H 3944   4.386   0.550   8.030 -0.4780  1.4721 -2.0988
  770MOL0     H 3945   4.235   0.659   8.042 -0.9831  0.2929  2.7103
  770MOL0     H 3946   4.289   0.438   8.222 -2.1296  1.2637  1.2267
  770MOL0     H 3947   4.207   0.397   8.074 -0.0420 -1.9066  0.8714
  770MOL0     H 3948   3.894   0.639   8.221  1.2817  0.5810  1.3924
  770MOL0     H 3949   4.652   0.914   7.981 -1.8739 -0.2684 -0.1263
  770MOL0     H 3950   4.860   1.026   7.948  1.3332  0.7656  0.5976
  771MOL0     O 3951   7.867   2.521  11.062 -0.3571 -0.6313 -0.0598
  771MOL0     C 3952   7.982   2.510  11.027  0.2763 -0.5032 -0.0337
  771MOL0     O 3953   8.044   2.393  10.999  0.2903 -0.2882  0.4382
  771MOL0     C 3954   7.978   2.275  10.972 -0.2565 -0.5377  0.2632
  771MOL0     C 3955   8.055   2.185  10.891  0.8660  0.0704  0.5591
  771MOL0     C 3956   8.000   2.061  10.865  0.4059 -0.4325 -0.7593
  771MOL0     C 3957   7.868   2.021  10.912 -0.0940 -0.7973 -0.7633
  771MOL0     O 3958   7.816   1.898  10.882 -0.4760 -0.3158  0.3145
  771MOL0     C 3959   7.836   1.827  10.754  0.3478 -0.1321  0.2305
  771MOL0     C 3960   7.738   1.711  10.732  0.6961 -0.2539  0.1444
  771MOL0     C 3961   7.615   1.746  10.637  0.2347  0.1415  0.8138
  771MOL0     C 3962   7.528   1.869  10.691  0.0108  0.5079 -0.1870
  771MOL0     C 3963   7.425   1.892  10.593 -0.1502 -0.9741  0.2102
  771MOL0     C 3964   7.333   1.994  10.640  0.8216  0.4305  0.1144
  771MOL0     C 3965   7.230   2.032  10.535  0.2041  0.4553  0.8768
  771MOL0     C 3966   7.149   2.154  10.572  0.6455 -0.5967  0.5158
  771MOL0     N 3967   7.061   2.143  10.688 -0.1804  0.1003  0.1874
  771MOL0     C 3968   7.090   2.192  10.804  0.3493  0.5377  0.1457
  771MOL0     C 3969   6.986   2.150  10.889 -0.6807 -0.5727  0.2411
  771MOL0     C 3970   6.971   2.178  11.032  0.9054 -0.6127 -0.4054
  771MOL0     C 3971   6.857   2.287  11.035  0.1667  0.3331  0.0242
  771MOL0     C 3972   6.803   2.319  11.175  0.0157 -0.4248  0.1210
  771MOL0     C 3973   6.713   2.208  11.242 -0.5014 -0.5292 -0.2983
  771MOL0     O 3974   6.597   2.185  11.157  0.3716  0.1492  0.4857
  771MOL0     C 3975   6.493   2.263  11.190  0.1084  0.0759  0.0563
  771MOL0     C 3976   6.425   2.351  11.102  0.2378  0.9259 -0.3965
  771MOL0     C 3977   6.310   2.419  11.130  0.3247 -0.8818  0.2222
  771MOL0     C 3978   6.244   2.502  11.010 -0.5576  0.0291 -0.2367
  771MOL0     C 3979   6.254   2.416  11.261 -0.4714  0.6679  0.0002
  771MOL0     C 3980   6.138   2.490  11.307 -0.3058  1.3343 -0.2034
  771MOL0     O 3981   6.103   2.476  11.440  0.4159  0.3060  0.2709
  771MOL0     C 3982   6.002   2.549  11.492  0.0478 -0.1710  0.5328
  771MOL0     C 3983   5.879   2.492  11.527 -0.1161 -0.4117  0.6867
  771MOL0     C 3984   5.781   2.569  11.585 -0.1255 -0.3258  0.5028
  771MOL0     C 3985   5.791   2.707  11.601  0.3336  0.1216 -0.0547
  771MOL0     O 3986   5.692   2.788  11.644  0.0885 -0.9744 -0.6534
  771MOL0     C 3987   5.568   2.743  11.689  0.4133 -1.3015 -0.0744
  771MOL0     C 3988   5.466   2.864  11.656  0.2030  0.0690  0.4749
  771MOL0     C 3989   5.330   2.804  11.640 -0.1511  0.4453  0.2147
  771MOL0     C 3990   5.217   2.900  11.595 -0.4612 -0.1517 -0.1445
  771MOL0     C 3991   5.082   2.842  11.624  0.0167  0.5312  0.0379
  771MOL0     C 3992   4.979   2.950  11.596  0.4612 -0.0069  0.5101
  771MOL0     C 3993   4.842   2.886  11.602  0.4030  0.1082 -0.3369
  771MOL0     C 3994   4.801   2.868  11.748  0.6926  0.4734 -0.1465
  771MOL0    Cl 3995   4.644   2.778  11.766  0.2814 -0.0261  0.5764
  771MOL0     C 3996   5.910   2.769  11.562  0.2850 -0.7496 -0.0410
  771MOL0     C 3997   6.007   2.693  11.506 -1.3109  0.3928 -1.0467
  771MOL0     O 3998   6.089   2.567  11.228 -0.4636 -0.3078 -0.1187
  771MOL0     C 3999   6.320   2.327  11.355 -0.3103  0.0056 -0.3771
  771MOL0     C 4000   6.439   2.253  11.317 -0.1274  0.3005 -0.7112
  771MOL0     N 4001   6.899   2.062  10.821 -0.1073  0.3367 -0.4118
  771MOL0     N 4002   6.950   2.057  10.704  0.2013 -0.4437  0.5443
  771MOL0     C 4003   7.792   2.107  10.991 -0.1470 -0.1117 -0.2157
  771MOL0     C 4004   7.847   2.232  11.018  0.5388 -0.3368  0.7634
  771MOL0     C 4005   8.076   2.621  11.050 -0.6695  0.0745  0.2309
  771MOL0     C 4006   8.212   2.617  11.009  0.8381  0.3407 -0.8189
  771MOL0     C 4007   8.292   2.727  11.024 -0.5687 -0.8060  0.5206
  771MOL0     C 4008   8.252   2.846  11.091 -0.3476 -0.4367 -0.3689
  771MOL0     O 4009   8.331   2.952  11.112  0.0370 -0.3655  0.7072
  771MOL0     C 4010   8.312   3.042  11.220  0.2187 -0.0795 -0.4997
  771MOL0     C 4011   8.338   2.975  11.352 -0.8738 -0.3840  0.0493
  771MOL0     C 4012   8.312   3.064  11.481 -0.2352 -0.4225  0.3657
  771MOL0     C 4013   8.258   2.980  11.599 -0.0765 -0.1908 -0.1716
  771MOL0     C 4014   8.121   2.935  11.577  0.2247  0.3123  0.0037
  771MOL0     C 4015   8.007   2.894  11.570 -0.3686 -0.1609  1.4663
  771MOL0     C 4016   8.115   2.852  11.118  0.2938  0.5646 -0.0903
  771MOL0     C 4017   8.026   2.737  11.110 -0.1643  0.2948  0.0172
  771MOL0     H 4018   8.154   2.203  10.849  1.5662 -0.6736  1.8328
  771MOL0     H 4019   8.053   1.989  10.803 -0.2666 -1.2971 -0.3552
  771MOL0     H 4020   7.836   1.890  10.665  1.2535  1.0118  1.0036
  771MOL0     H 4021   7.934   1.778  10.759  0.2252 -1.0083 -3.2062
  771MOL0     H 4022   7.804   1.632  10.694  1.0923  0.3234 -0.3777
  771MOL0     H 4023   7.692   1.682  10.828 -1.5559  3.0774  0.2150
  771MOL0     H 4024   7.651   1.772  10.537 -0.5169  2.4402  1.0707
  771MOL0     H 4025   7.542   1.664  10.634  1.0737 -0.6145 -1.7420
  771MOL0     H 4026   7.485   1.859  10.791 -0.2274  2.6549 -0.0390
  771MOL0     H 4027   7.596   1.954  10.686  2.8672 -1.6920 -2.8746
  771MOL0     H 4028   7.488   1.924  10.509  2.0117  0.8517  2.3544
  771MOL0     H 4029   7.374   1.802  10.557 -0.9891 -0.4542  0.0904
  771MOL0     H 4030   7.285   1.959  10.732  3.8124 -1.6036  1.0558
  771MOL0     H 4031   7.378   2.091  10.662 -0.0565  1.0730 -0.8413
  771MOL0     H 4032   7.287   2.066  10.448 -0.6901  0.7990  0.4123
  771MOL0     H 4033   7.161   1.951  10.508 -0.0387  0.3322  1.8371
  771MOL0     H 4034   7.090   2.186  10.486 -0.3423  1.1839  1.7819
  771MOL0     H 4035   7.235   2.220  10.590  0.7329 -0.7050  0.4920
  771MOL0     H 4036   7.181   2.243  10.833  0.5937 -0.3657  1.0065
  771MOL0     H 4037   6.945   2.081  11.077 -0.3620 -0.3092 -0.4454
  771MOL0     H 4038   7.054   2.227  11.083 -1.9311  0.9488  3.2218
  771MOL0     H 4039   6.768   2.265  10.975 -1.0813  0.2397  1.8018
  771MOL0     H 4040   6.897   2.380  10.994 -0.1764  0.2910 -0.4218
  771MOL0     H 4041   6.740   2.407  11.162  0.2709 -0.4852 -1.9116
  771MOL0     H 4042   6.887   2.342  11.241 -0.8827  0.8613  0.8507
  771MOL0     H 4043   6.686   2.237  11.344 -0.6688 -0.9714 -0.2167
  771MOL0     H 4044   6.770   2.117  11.261  0.0327  0.4372  3.5665
  771MOL0     H 4045   6.466   2.365  11.003  1.3789  3.0228  0.3131
  771MOL0     H 4046   6.139   2.473  10.999  0.4093 -4.1481 -0.0042
  771MOL0     H 4047   6.264   2.607  11.033 -2.0629 -0.3635  3.6407
  771MOL0     H 4048   6.287   2.484  10.911 -4.6918  1.2240 -2.4942
  771MOL0     H 4049   5.868   2.388  11.499  0.9427  0.0369 -1.6194
  771MOL0     H 4050   5.691   2.515  11.611 -1.2947  0.3628 -1.8164
  771MOL0     H 4051   5.541   2.653  11.633  2.8086 -1.0147 -1.8698
  771MOL0     H 4052   5.582   2.728  11.797  3.2520  1.8871  0.1935
  771MOL0     H 4053   5.464   2.939  11.735  0.1690  1.1859 -0.5686
  771MOL0     H 4054   5.501   2.905  11.561  1.3258 -2.9389 -0.5375
  771MOL0     H 4055   5.300   2.771  11.740  2.6735 -1.4364  0.5453
  771MOL0     H 4056   5.334   2.716  11.576 -4.5869  0.0809  0.1068
  771MOL0     H 4057   5.232   2.989  11.656  0.2840 -1.0074  0.9744
  771MOL0     H 4058   5.234   2.919  11.489 -1.4269 -0.0376 -0.2845
  771MOL0     H 4059   5.071   2.812  11.728 -1.5857 -2.7013 -0.9080
  771MOL0     H 4060   5.054   2.752  11.569  0.7784 -1.2437  2.4078
  771MOL0     H 4061   4.969   3.036  11.663 -3.5561 -1.1856  1.7106
  771MOL0     H 4062   4.994   2.978  11.492  0.4315 -1.4071  0.1104
  771MOL0     H 4063   4.838   2.785  11.560  1.7175 -0.0296 -0.1604
  771MOL0     H 4064   4.774   2.949  11.545  0.2283  1.9642  1.7965
  771MOL0     H 4065   4.796   2.968  11.793 -1.8950  1.0049 -1.4371
  771MOL0     H 4066   4.877   2.807  11.797  0.4799  0.2464 -0.0981
  771MOL0     H 4067   5.907   2.877  11.567  2.1524 -0.5570 -1.7059
  771MOL0     H 4068   6.093   2.754  11.478 -1.1714  2.2690  2.8542
  771MOL0     H 4069   6.284   2.323  11.457  1.8110  4.4370  0.7767
  771MOL0     H 4070   6.486   2.186  11.388 -0.5254 -0.9035 -1.5310
  771MOL0     H 4071   7.698   2.082  11.039  0.0579  0.4588  0.5060
  771MOL0     H 4072   7.797   2.288  11.097 -2.4873 -0.8262 -0.6694
  771MOL0     H 4073   8.241   2.522  10.965 -0.3726 -0.9722  1.1067
  771MOL0     H 4074   8.391   2.730  10.982  0.3405 -1.3586  2.5058
  771MOL0     H 4075   8.382   3.126  11.210  1.4257 -0.9451  0.3421
  771MOL0     H 4076   8.211   3.084  11.219 -1.5988 -3.9648  0.7027
  771MOL0     H 4077   8.446   2.957  11.350 -0.6518  0.5906  1.4368
  771MOL0     H 4078   8.293   2.877  11.366  0.6525 -0.9057  1.8014
  771MOL0     H 4079   8.233   3.136  11.459 -1.6000 -1.6353  1.1782
  771MOL0     H 4080   8.401   3.118  11.516 -0.3946 -0.9687  1.6424
  771MOL0     H 4081   8.262   3.037  11.692  0.3084  0.7356 -0.7391
  771MOL0     H 4082   8.323   2.900  11.636 -0.2672  1.4863  4.4816
  771MOL0     H 4083   7.911   2.847  11.577 -0.8889  0.0074 -2.3569
  771MOL0     H 4084   8.073   2.944  11.159 -1.0996 -0.7746  1.6711
  771MOL0     H 4085   7.923   2.746  11.141  0.0694 -0.4647  1.0652
  772MOL0     O 4086  10.408   0.023   9.500 -0.2163  0.7421 -0.2273
  772MOL0     C 4087  10.355  -0.083   9.459  0.3616 -0.3972 -0.2464
  772MOL0     O 4088  10.238  -0.134   9.503 -0.0687  0.3286  0.2007
  772MOL0     C 4089  10.169  -0.069   9.597  0.2836 -0.5953  0.8879
  772MOL0     C 4090  10.042  -0.027   9.563  0.1321 -0.1812 -0.1531
  772MOL0     C 4091   9.957   0.029   9.662  0.0425  0.0852  0.1791
  772MOL0     C 4092  10.008   0.058   9.784  0.9078  1.0257  0.1185
  772MOL0     O 4093   9.920   0.133   9.861  0.0406  0.5526  0.0012
  772MOL0     C 4094   9.958   0.138  10.001  0.5153  0.3451 -0.0101
  772MOL0     C 4095   9.850   0.219  10.082  0.4387  0.0053  0.3031
  772MOL0     C 4096   9.714   0.144  10.085  0.2782 -0.2988  0.6133
  772MOL0     C 4097   9.618   0.217  10.183  0.2805  0.9586  0.4076
  772MOL0     C 4098   9.468   0.164  10.167  0.3046  0.4261  0.1135
  772MOL0     C 4099   9.449   0.047  10.258  0.3406 -0.3576  0.8405
  772MOL0     C 4100   9.311  -0.011  10.251  0.2648  0.1635 -0.4382
  772MOL0     C 4101   9.283  -0.127  10.350  0.0624 -0.9041  0.7999
  772MOL0     N 4102   9.143  -0.159  10.350 -0.0269 -0.5452  0.1805
  772MOL0     C 4103   9.044  -0.115  10.440 -0.4331 -0.2417  0.4728
  772MOL0     C 4104   8.925  -0.152  10.389 -1.1445 -0.7672 -0.3967
  772MOL0     C 4105   8.789  -0.116  10.445  0.1093  0.5958  0.3754
  772MOL0     C 4106   8.720  -0.232  10.515  0.3855 -0.2509 -0.0224
  772MOL0     C 4107   8.565  -0.221  10.522 -0.0058 -0.9416 -0.5900
  772MOL0     C 4108   8.509  -0.235  10.379  0.3413 -0.1926 -1.0712
  772MOL0     O 4109   8.368  -0.267  10.382  0.4823 -0.6665 -0.5724
  772MOL0     C 4110   8.311  -0.275  10.258  0.5774 -0.0568  0.2026
  772MOL0     C 4111   8.169  -0.271  10.268  0.8087  0.2920 -0.8007
  772MOL0     C 4112   8.078  -0.278  10.154 -0.9107 -0.6928  0.3205
  772MOL0     C 4113   7.925  -0.270  10.177 -0.2761  0.0596 -0.3751
  772MOL0     C 4114   8.140  -0.277  10.023  0.0745 -0.5122  0.0075
  772MOL0     C 4115   8.079  -0.281   9.886  0.4432 -0.4456  0.0013
  772MOL0     O 4116   7.955  -0.322   9.882  0.4439  0.3307  0.3084
  772MOL0     C 4117   7.887  -0.340   9.755  0.7737  0.0647  0.3063
  772MOL0     C 4118   7.950  -0.388   9.633  0.4990  0.6902 -0.0870
  772MOL0     C 4119   7.884  -0.386   9.513  0.8770  0.1615  0.2217
  772MOL0     C 4120   7.749  -0.345   9.495  0.4916  0.2562  0.2486
  772MOL0     O 4121   7.688  -0.345   9.371  0.0681  0.0455  0.5353
  772MOL0     C 4122   7.556  -0.279   9.359 -0.1083  0.4141 -0.0424
  772MOL0     C 4123   7.521  -0.290   9.210  0.9412  0.1650  0.0642
  772MOL0     C 4124   7.467  -0.423   9.165 -0.4931  0.8167 -0.1308
  772MOL0     C 4125   7.351  -0.404   9.064 -0.8334 -0.3245 -0.5492
  772MOL0     C 4126   7.289  -0.532   9.013 -0.6759  0.1726 -0.6155
  772MOL0     C 4127   7.219  -0.518   8.877 -0.0389 -0.3706 -0.7174
  772MOL0     C 4128   7.135  -0.641   8.835 -0.5222  0.2885 -0.1445
  772MOL0     C 4129   7.033  -0.613   8.721  0.5686  0.3948  0.7131
  772MOL0    Cl 4130   7.112  -0.530   8.579  0.1825  0.1913  0.0232
  772MOL0     C 4131   7.681  -0.304   9.616 -0.6410 -0.6699  0.0599
  772MOL0     C 4132   7.753  -0.296   9.741  0.1465  0.0507  0.5583
  772MOL0     O 4133   8.153  -0.250   9.787  0.6556  0.5895 -0.1763
  772MOL0     C 4134   8.283  -0.283  10.020 -0.2878 -0.1293 -0.0343
  772MOL0     C 4135   8.363  -0.284  10.131 -0.0680  0.4072 -0.4955
  772MOL0     N 4136   8.956  -0.225  10.266 -0.9704  0.2629 -0.1838
  772MOL0     N 4137   9.084  -0.225  10.255 -0.1392 -0.8125  0.9111
  772MOL0     C 4138  10.138   0.022   9.818 -0.2560  0.7982  0.4707
  772MOL0     C 4139  10.212  -0.059   9.730 -0.0728  0.0846 -0.4455
  772MOL0     C 4140  10.427  -0.163   9.364  0.1197  0.1204 -0.9332
  772MOL0     C 4141  10.540  -0.109   9.298 -0.8657  0.3894  0.3725
  772MOL0     C 4142  10.596  -0.181   9.191 -0.2018 -0.2481  0.0587
  772MOL0     C 4143  10.558  -0.311   9.179 -0.3892 -0.1102  0.4474
  772MOL0     O 4144  10.619  -0.368   9.070 -0.3799 -0.1132  0.9637
  772MOL0     C 4145  10.597  -0.504   9.033  0.1314 -0.0400  0.5446
  772MOL0     C 4146  10.544  -0.497   8.897  0.4799  0.7527  0.0075
  772MOL0     C 4147  10.526  -0.637   8.825 -0.2877  0.1035  0.2034
  772MOL0     C 4148  10.456  -0.639   8.694 -0.2639 -0.2379  0.3620
  772MOL0     C 4149  10.319  -0.598   8.698  1.0881  0.2675 -0.2303
  772MOL0     C 4150  10.202  -0.566   8.704 -0.3378  0.5161 -0.2245
  772MOL0     C 4151  10.473  -0.374   9.271  0.4540  0.3455 -0.1250
  772MOL0     C 4152  10.404  -0.298   9.365  0.0210 -0.1641  0.4334
  772MOL0     H 4153  10.005  -0.027   9.461 -2.0483  2.2560  0.5280
  772MOL0     H 4154   9.857   0.069   9.648  0.3767  0.2998 -1.8496
  772MOL0     H 4155   9.971   0.042  10.051 -2.1285  1.0098  2.1960
  772MOL0     H 4156  10.047   0.200  10.015  0.3232  0.3040  1.5445
  772MOL0     H 4157   9.886   0.226  10.185  0.8345 -2.1484  0.3647
  772MOL0     H 4158   9.830   0.320  10.045 -0.1052 -0.8114 -1.8007
  772MOL0     H 4159   9.668   0.140   9.985 -1.6550 -0.7073  1.4799
  772MOL0     H 4160   9.734   0.041  10.117 -0.4361 -0.5075  0.3971
  772MOL0     H 4161   9.644   0.216  10.289 -3.4552  0.0524  1.4525
  772MOL0     H 4162   9.628   0.325  10.169  3.4320  0.7912  0.4575
  772MOL0     H 4163   9.401   0.247  10.189  0.8938  0.4742  1.9295
  772MOL0     H 4164   9.447   0.128  10.066 -0.6262  1.5702 -0.1188
  772MOL0     H 4165   9.508  -0.035  10.216 -0.8355 -0.8604  0.0786
  772MOL0     H 4166   9.478   0.064  10.361  3.2473 -1.3872  0.2770
  772MOL0     H 4167   9.233   0.065  10.260 -0.5549 -0.7697  0.6045
  772MOL0     H 4168   9.291  -0.061  10.156 -1.1399 -2.4950  1.1370
  772MOL0     H 4169   9.330  -0.122  10.449  0.8170  2.2897  0.3803
  772MOL0     H 4170   9.324  -0.212  10.295 -0.3807 -0.0685 -0.8742
  772MOL0     H 4171   9.061  -0.062  10.533  1.7179 -1.7746  1.0321
  772MOL0     H 4172   8.796  -0.028  10.509  2.4205  1.2100 -0.6116
  772MOL0     H 4173   8.740  -0.074  10.357  3.8415 -1.3243 -2.9182
  772MOL0     H 4174   8.755  -0.265  10.613 -2.4341  0.1730  1.2309
  772MOL0     H 4175   8.744  -0.323  10.458  1.3543 -0.4909  0.7470
  772MOL0     H 4176   8.536  -0.129  10.574  2.9336  0.4717 -1.1972
  772MOL0     H 4177   8.526  -0.304  10.581  0.3603 -0.4571  0.3602
  772MOL0     H 4178   8.565  -0.309  10.321 -1.6078  0.4066 -3.9265
  772MOL0     H 4179   8.511  -0.137  10.329 -0.1739 -1.5263 -3.8493
  772MOL0     H 4180   8.122  -0.250  10.363 -1.1806  2.3522 -2.1380
  772MOL0     H 4181   7.895  -0.168  10.150  0.5605  0.8678  1.5660
  772MOL0     H 4182   7.877  -0.331  10.099  1.2725  0.1798 -1.4627
  772MOL0     H 4183   7.886  -0.287  10.278 -1.1980 -1.1262 -0.8973
  772MOL0     H 4184   8.049  -0.433   9.640  1.0648  1.6851 -1.3368
  772MOL0     H 4185   7.925  -0.416   9.417  1.4058  0.8320  0.2317
  772MOL0     H 4186   7.489  -0.324   9.433  1.2280 -1.4276  0.1087
  772MOL0     H 4187   7.562  -0.170   9.367 -1.6090  0.7100 -2.1631
  772MOL0     H 4188   7.439  -0.218   9.200 -1.3790 -2.4124 -1.3809
  772MOL0     H 4189   7.608  -0.256   9.153 -0.5985 -0.1060 -2.6379
  772MOL0     H 4190   7.424  -0.486   9.243 -1.0712 -3.0131 -3.2382
  772MOL0     H 4191   7.555  -0.481   9.136 -0.3212 -0.1438  2.0960
  772MOL0     H 4192   7.268  -0.343   9.102 -2.0097 -0.9758 -1.9755
  772MOL0     H 4193   7.399  -0.349   8.982 -1.9889  1.2241 -0.2298
  772MOL0     H 4194   7.204  -0.566   9.073  1.3934 -0.4881  2.2087
  772MOL0     H 4195   7.369  -0.607   9.021  0.6099  1.5463 -0.0008
  772MOL0     H 4196   7.148  -0.435   8.883  0.2896 -0.1985  1.7296
  772MOL0     H 4197   7.290  -0.493   8.797  0.7534  0.1790  0.1354
  772MOL0     H 4198   7.084  -0.686   8.921  1.7105  2.0211  2.2113
  772MOL0     H 4199   7.210  -0.719   8.816 -0.0182  0.8571 -0.5011
  772MOL0     H 4200   6.954  -0.544   8.749  0.6188 -0.8478  4.4568
  772MOL0     H 4201   6.996  -0.708   8.681  4.2780 -0.9729  0.0759
  772MOL0     H 4202   7.584  -0.257   9.606  0.5374  1.4139 -2.7695
  772MOL0     H 4203   7.709  -0.256   9.832 -0.5033 -3.3829  1.9384
  772MOL0     H 4204   8.338  -0.274   9.927  1.3641 -1.9767  0.6854
  772MOL0     H 4205   8.472  -0.280  10.124 -0.0815  0.4704 -0.6956
  772MOL0     H 4206  10.188   0.046   9.911  0.9055  1.3676 -0.2789
  772MOL0     H 4207  10.309  -0.097   9.764  0.2740  1.8264  0.6639
  772MOL0     H 4208  10.576  -0.009   9.320  0.6695 -0.7639  3.8521
  772MOL0     H 4209  10.689  -0.146   9.147  0.5135  0.0518  1.7519
  772MOL0     H 4210  10.686  -0.565   9.050  1.0609  0.9739 -0.5158
  772MOL0     H 4211  10.516  -0.548   9.093  0.2001 -1.4039 -0.3296
  772MOL0     H 4212  10.597  -0.435   8.825  1.8283 -0.4691 -0.0906
  772MOL0     H 4213  10.448  -0.447   8.913  1.6116  2.4545  1.9592
  772MOL0     H 4214  10.470  -0.704   8.890  1.5799 -0.9445  0.7940
  772MOL0     H 4215  10.632  -0.663   8.817 -0.7747 -1.3847 -2.9141
  772MOL0     H 4216  10.468  -0.744   8.666  1.6645  0.6944 -2.8678
  772MOL0     H 4217  10.503  -0.576   8.618  0.4736 -1.1673  0.0278
  772MOL0     H 4218  10.102  -0.528   8.707 -0.0252  1.4211 -0.8405
  772MOL0     H 4219  10.455  -0.481   9.263 -1.4070  0.5597  0.6782
  772MOL0     H 4220  10.337  -0.340   9.439  0.9541 -1.1682  0.7299
  773MOL0     O 4221  11.048   1.919   7.334 -0.5134  0.0672 -0.6042
  773MOL0     C 4222  11.017   2.030   7.366 -0.7163 -0.8571 -0.2332
  773MOL0     O 4223  10.882   2.072   7.391 -0.3951 -0.3534 -0.0764
  773MOL0     C 4224  10.787   1.972   7.389 -0.4427  0.1065  0.1935
  773MOL0     C 4225  10.663   1.999   7.330  0.2144 -0.9408 -0.5581
  773MOL0     C 4226  10.562   1.893   7.335 -0.7020 -0.2274 -0.1934
  773MOL0     C 4227  10.589   1.764   7.390  0.9492  0.1217 -0.4642
  773MOL0     O 4228  10.491   1.669   7.378 -0.9629 -0.5199 -0.0849
  773MOL0     C 4229  10.360   1.687   7.333  0.3587 -0.3335  0.7881
  773MOL0     C 4230  10.290   1.547   7.310  0.2582 -0.4151  0.3684
  773MOL0     C 4231  10.143   1.559   7.322  0.4649 -0.6991 -0.6340
  773MOL0     C 4232  10.083   1.417   7.339  0.4444 -0.7430  0.6799
  773MOL0     C 4233   9.926   1.428   7.339  0.4319  0.7073  1.0156
  773MOL0     C 4234   9.840   1.317   7.407 -0.1099 -0.5998  0.1528
  773MOL0     C 4235   9.879   1.186   7.368  0.2761  0.5708  0.4777
  773MOL0     C 4236   9.881   1.163   7.222  0.6508  0.0250  0.3023
  773MOL0     N 4237   9.746   1.137   7.160 -0.1018  0.6707 -0.1518
  773MOL0     C 4238   9.691   1.014   7.139  0.3957 -0.1889  0.8249
  773MOL0     C 4239   9.565   1.038   7.115 -0.8855  0.7214 -0.1022
  773MOL0     C 4240   9.466   0.928   7.106  1.0138  1.2709  0.1242
  773MOL0     C 4241   9.397   0.892   7.235  1.0210 -0.1431  0.7065
  773MOL0     C 4242   9.296   1.003   7.269  0.0807 -0.3623  0.4435
  773MOL0     C 4243   9.161   0.990   7.200 -0.7565 -0.1935  0.1045
  773MOL0     O 4244   9.084   1.094   7.252  0.0416 -0.0544 -0.4478
  773MOL0     C 4245   8.943   1.078   7.244  0.3066 -0.1728  0.5665
  773MOL0     C 4246   8.878   0.988   7.330  0.0754 -0.2012 -0.0333
  773MOL0     C 4247   8.735   0.969   7.334  0.3263  0.8598  0.1697
  773MOL0     C 4248   8.687   0.865   7.432  0.6941  0.4209 -0.0243
  773MOL0     C 4249   8.653   1.041   7.241  0.1816  0.3732 -0.1491
  773MOL0     C 4250   8.505   1.034   7.248  0.2888  0.3668 -0.5654
  773MOL0     O 4251   8.450   0.937   7.321 -0.2191  0.5461 -0.0641
  773MOL0     C 4252   8.315   0.904   7.299 -0.0196  0.2886 -0.1124
  773MOL0     C 4253   8.236   0.906   7.182  0.7850 -0.2947 -0.9701
  773MOL0     C 4254   8.103   0.861   7.187 -0.5482  0.1734  0.1665
  773MOL0     C 4255   8.034   0.819   7.301 -1.0402 -0.0073  0.8463
  773MOL0     O 4256   7.900   0.789   7.284  0.1080  0.1891  0.7559
  773MOL0     C 4257   7.843   0.698   7.373  0.2034  0.5027 -0.1222
  773MOL0     C 4258   7.724   0.614   7.326 -0.8607  0.5797 -0.5102
  773MOL0     C 4259   7.685   0.532   7.452  0.4721  0.1494 -0.4739
  773MOL0     C 4260   7.579   0.439   7.393 -0.1347 -0.1006  0.0361
  773MOL0     C 4261   7.491   0.370   7.502  0.3332 -0.0564  0.0746
  773MOL0     C 4262   7.368   0.285   7.445 -0.5171  0.0768  0.3937
  773MOL0     C 4263   7.246   0.366   7.414 -0.3244  0.6153  1.2091
  773MOL0     C 4264   7.137   0.264   7.397  0.2539 -0.1594 -0.2459
  773MOL0    Cl 4265   7.169   0.141   7.265  0.0176  0.5518 -0.0764
  773MOL0     C 4266   8.108   0.835   7.419 -0.3122  0.3215 -0.9946
  773MOL0     C 4267   8.244   0.870   7.417 -0.2085  0.0691  0.0594
  773MOL0     O 4268   8.439   1.131   7.200  0.1607  0.1143  0.3052
  773MOL0     C 4269   8.715   1.133   7.159  0.2275  0.5707 -0.1621
  773MOL0     C 4270   8.856   1.160   7.166  0.0242  0.7041 -0.2245
  773MOL0     N 4271   9.544   1.176   7.111  0.2979 -0.9088 -0.2600
  773MOL0     N 4272   9.655   1.235   7.145 -0.5540  0.1589  0.0823
  773MOL0     C 4273  10.715   1.739   7.461 -0.6053  0.2128 -0.7087
  773MOL0     C 4274  10.810   1.849   7.452  0.5519  0.6061 -0.6429
  773MOL0     C 4275  11.136   2.124   7.363 -0.4414 -1.0757  0.1760
  773MOL0     C 4276  11.110   2.260   7.395 -0.1990  0.2732 -0.0958
  773MOL0     C 4277  11.215   2.354   7.378  0.1753 -0.2046  0.0800
  773MOL0     C 4278  11.346   2.308   7.335  0.0815 -0.2136  0.4843
  773MOL0     O 4279  11.447   2.403   7.323  0.5263 -0.5528 -0.1671
  773MOL0     C 4280  11.417   2.536   7.280 -0.2890  0.6894 -0.2356
  773MOL0     C 4281  11.543   2.591   7.204 -0.0359  0.8369  0.4658
  773MOL0     C 4282  11.657   2.635   7.286  0.7660  0.4666 -1.3298
  773MOL0     C 4283  11.761   2.724   7.223  0.2131 -0.2423 -0.0287
  773MOL0     C 4284  11.704   2.855   7.181  0.5701  0.6997  0.2628
  773MOL0     C 4285  11.664   2.961   7.157  0.2601 -0.0724  0.3908
  773MOL0     C 4286  11.365   2.173   7.310  0.1062  0.2313 -0.3133
  773MOL0     C 4287  11.265   2.081   7.327  0.3641  0.1844 -0.4455
  773MOL0     H 4288  10.639   2.097   7.290 -1.4995 -0.6106  1.1467
  773MOL0     H 4289  10.467   1.927   7.296 -2.0028 -0.2454  2.7184
  773MOL0     H 4290  10.308   1.756   7.400  2.9246  2.0343  0.5055
  773MOL0     H 4291  10.363   1.735   7.235 -2.3395 -1.0484  0.2674
  773MOL0     H 4292  10.314   1.511   7.210 -0.5067 -0.5196  0.2174
  773MOL0     H 4293  10.317   1.479   7.392  2.7072 -0.2923 -0.2835
  773MOL0     H 4294  10.127   1.615   7.414 -0.0317  0.2210 -1.2677
  773MOL0     H 4295  10.103   1.623   7.243 -3.4763  0.1281  1.7374
  773MOL0     H 4296  10.119   1.352   7.259 -3.3404 -0.2464 -1.6713
  773MOL0     H 4297  10.109   1.376   7.437 -0.6981 -1.2411  0.7833
  773MOL0     H 4298   9.901   1.524   7.386 -0.5644  0.5737  0.7942
  773MOL0     H 4299   9.884   1.446   7.240  2.2445  1.1529  0.2872
  773MOL0     H 4300   9.858   1.322   7.515 -1.6115 -1.4789  0.4793
  773MOL0     H 4301   9.732   1.330   7.394 -0.5446 -1.3724  2.4084
  773MOL0     H 4302   9.979   1.160   7.404  0.9413 -0.4178 -1.8672
  773MOL0     H 4303   9.819   1.112   7.422  3.1326 -0.2989  2.7336
  773MOL0     H 4304   9.939   1.071   7.209  1.4731 -0.0281  3.5383
  773MOL0     H 4305   9.922   1.256   7.184 -2.4761  3.3442  4.0474
  773MOL0     H 4306   9.740   0.917   7.138  1.7967  0.5040  0.1560
  773MOL0     H 4307   9.396   0.944   7.024  0.5537 -1.6426 -0.1654
  773MOL0     H 4308   9.519   0.835   7.083 -0.7953 -0.2269  1.7131
  773MOL0     H 4309   9.470   0.891   7.316  2.9704  1.4167 -0.9147
  773MOL0     H 4310   9.352   0.793   7.229 -0.5933  0.5857  0.1383
  773MOL0     H 4311   9.337   1.104   7.258  0.8438 -0.7577 -0.5980
  773MOL0     H 4312   9.266   0.990   7.373 -1.7409 -2.3566 -0.2704
  773MOL0     H 4313   9.118   0.892   7.223  0.7344 -0.4834  1.9383
  773MOL0     H 4314   9.167   0.995   7.091 -4.2197 -0.9487 -0.2215
  773MOL0     H 4315   8.942   0.943   7.405  1.8574  1.8555 -0.2150
  773MOL0     H 4316   8.623   0.915   7.505  1.5338  0.5336  0.6512
  773MOL0     H 4317   8.625   0.799   7.371  3.2243  0.4585 -2.8659
  773MOL0     H 4318   8.774   0.824   7.484  2.1473  1.5774 -1.4415
  773MOL0     H 4319   8.273   0.943   7.087 -3.2967  0.5503 -2.4484
  773MOL0     H 4320   8.051   0.862   7.092 -1.4670 -1.2526  0.6298
  773MOL0     H 4321   7.917   0.627   7.412  0.1798  0.4166 -0.2320
  773MOL0     H 4322   7.809   0.761   7.454 -1.1236 -0.6332  0.2425
  773MOL0     H 4323   7.649   0.689   7.299 -1.6144 -1.0313 -3.1516
  773MOL0     H 4324   7.750   0.549   7.242  1.6727 -0.6584  1.1070
  773MOL0     H 4325   7.637   0.601   7.522 -2.8661 -1.2218 -1.2103
  773MOL0     H 4326   7.760   0.469   7.499 -1.0457  0.0248  1.9823
  773MOL0     H 4327   7.511   0.495   7.328 -0.7669  1.3040  1.8211
  773MOL0     H 4328   7.621   0.360   7.330  1.7970  0.9211 -0.0443
  773MOL0     H 4329   7.455   0.450   7.566 -0.0841 -0.0909 -0.1146
  773MOL0     H 4330   7.552   0.303   7.565  1.7099  0.9145 -0.1806
  773MOL0     H 4331   7.393   0.232   7.353 -2.2232  1.9752 -1.2607
  773MOL0     H 4332   7.352   0.204   7.517  0.0231  0.8981  1.4807
  773MOL0     H 4333   7.257   0.412   7.315  1.6993 -1.8414  0.1955
  773MOL0     H 4334   7.230   0.437   7.496 -1.2056  0.1864  1.4251
  773MOL0     H 4335   7.037   0.309   7.389  0.5561  0.2594 -1.9487
  773MOL0     H 4336   7.136   0.213   7.494 -1.6548  1.4639  0.6621
  773MOL0     H 4337   8.061   0.823   7.515  0.4306 -3.0665 -0.9260
  773MOL0     H 4338   8.304   0.892   7.504  0.1377 -0.1591 -0.1218
  773MOL0     H 4339   8.654   1.197   7.096 -1.1708  0.4291  0.9712
  773MOL0     H 4340   8.896   1.245   7.111 -1.3107  1.1391 -0.5670
  773MOL0     H 4341  10.733   1.643   7.508  1.3853  1.0023  0.2383
  773MOL0     H 4342  10.904   1.826   7.500 -0.7301 -1.5824  1.0195
  773MOL0     H 4343  11.019   2.294   7.444 -0.1991 -0.7783  0.6622
  773MOL0     H 4344  11.202   2.459   7.403  3.1821  0.2152  0.2532
  773MOL0     H 4345  11.333   2.543   7.210 -2.2002  2.2191  2.0344
  773MOL0     H 4346  11.393   2.604   7.363 -0.0122 -0.4302  0.7870
  773MOL0     H 4347  11.498   2.678   7.157 -0.5371  1.1506  1.5043
  773MOL0     H 4348  11.570   2.524   7.121 -0.8434  1.5617 -0.4051
  773MOL0     H 4349  11.699   2.540   7.320 -3.6396 -1.5165 -0.7386
  773MOL0     H 4350  11.617   2.689   7.372  2.8807 -0.1095  0.0718
  773MOL0     H 4351  11.807   2.670   7.139 -2.7265 -0.6023 -1.5217
  773MOL0     H 4352  11.843   2.741   7.293  0.2073 -0.3945  0.0153
  773MOL0     H 4353  11.607   3.048   7.134 -0.5807 -0.4741  0.9388
  773MOL0     H 4354  11.466   2.144   7.282 -1.0922 -1.0747 -3.7235
  773MOL0     H 4355  11.281   1.975   7.309 -2.6881 -0.9583  2.4268
  774MOL0     O 4356  11.202   6.325   0.666 -0.2644 -0.2208 -0.4119
  774MOL0     C 4357  11.262   6.231   0.612  0.5384  0.5096  0.5162
  774MOL0     O 4358  11.194   6.113   0.586  0.0331 -0.0114 -0.3076
  774MOL0     C 4359  11.056   6.108   0.594 -0.2012  0.0359 -0.4063
  774MOL0     C 4360  10.998   6.005   0.669 -0.3725 -0.4667  0.3838
  774MOL0     C 4361  10.864   6.000   0.706  0.0488 -0.3137 -0.5338
  774MOL0     C 4362  10.775   6.097   0.654  0.1136 -0.2349 -0.3179
  774MOL0     O 4363  10.644   6.078   0.683  0.3744  0.3757  0.1305
  774MOL0     C 4364  10.561   6.194   0.705  0.2757 -0.2483 -0.6989
  774MOL0     C 4365  10.423   6.149   0.777 -0.2192  0.1144  0.0903
  774MOL0     C 4366  10.297   6.245   0.772 -0.3571 -0.1230 -0.1346
  774MOL0     C 4367  10.244   6.275   0.637 -0.4680 -0.1348  0.9140
  774MOL0     C 4368  10.145   6.389   0.643 -0.3786 -0.3123  0.1164
  774MOL0     C 4369  10.089   6.428   0.500 -0.8596  0.5837  0.0053
  774MOL0     C 4370   9.998   6.321   0.426 -0.5695 -0.0471  0.5533
  774MOL0     C 4371   9.878   6.272   0.499  0.8443  0.6831  0.2581
  774MOL0     N 4372   9.794   6.176   0.413  0.1816 -0.0795 -0.2000
  774MOL0     C 4373   9.672   6.123   0.448 -0.7538 -0.2407 -0.2508
  774MOL0     C 4374   9.617   6.077   0.331 -0.3298  0.4524  0.9037
  774MOL0     C 4375   9.484   6.005   0.313  1.6587  0.3649  0.3455
  774MOL0     C 4376   9.371   6.095   0.258 -0.5862  0.2221 -0.4563
  774MOL0     C 4377   9.228   6.028   0.263  0.5083 -0.0350  0.1021
  774MOL0     C 4378   9.136   6.104   0.166 -0.2912 -0.3104 -0.5444
  774MOL0     O 4379   9.024   6.016   0.135 -0.0857 -0.2476  0.0579
  774MOL0     C 4380   8.922   6.076   0.075  0.7461 -0.1149  0.5367
  774MOL0     C 4381   8.822   5.996   0.025 -0.2491 -0.0086  0.7527
  774MOL0     C 4382   8.716   6.050  -0.054 -0.2700  0.1509  0.8748
  774MOL0     C 4383   8.613   5.949  -0.106 -0.3102  0.4742 -0.4620
  774MOL0     C 4384   8.714   6.191  -0.089 -0.6518 -0.1703  0.1969
  774MOL0     C 4385   8.603   6.249  -0.171  0.8918 -0.3620 -0.4955
  774MOL0     O 4386   8.526   6.345  -0.117 -0.1509  0.7365 -0.4385
  774MOL0     C 4387   8.430   6.395  -0.194 -0.7481 -0.0133 -1.1644
  774MOL0     C 4388   8.314   6.316  -0.216 -1.3012 -0.4488 -1.1520
  774MOL0     C 4389   8.205   6.372  -0.287 -0.7486  1.3335 -0.1874
  774MOL0     C 4390   8.201   6.506  -0.321 -0.1104  0.2082 -0.2353
  774MOL0     O 4391   8.094   6.565  -0.382 -1.0414 -0.3819  0.0810
  774MOL0     C 4392   7.970   6.535  -0.322 -0.4550  0.7952  0.4672
  774MOL0     C 4393   7.867   6.632  -0.381 -0.8550 -0.3256  0.2389
  774MOL0     C 4394   7.737   6.637  -0.290  0.4457  0.4999 -0.2797
  774MOL0     C 4395   7.654   6.745  -0.349 -0.3241 -0.2761  0.1225
  774MOL0     C 4396   7.542   6.702  -0.453 -0.6468 -0.7638 -0.0629
  774MOL0     C 4397   7.435   6.606  -0.396  0.0790 -0.2772  0.0517
  774MOL0     C 4398   7.338   6.557  -0.507 -0.3358 -0.2732 -0.4963
  774MOL0     C 4399   7.272   6.675  -0.582 -0.3075  0.4946  0.8118
  774MOL0    Cl 4400   7.112   6.633  -0.648 -0.4971  0.0735  0.3776
  774MOL0     C 4401   8.317   6.585  -0.297  0.1505 -0.1430  0.6760
  774MOL0     C 4402   8.439   6.526  -0.235  0.1195 -0.6998  0.7782
  774MOL0     O 4403   8.585   6.201  -0.287 -0.8240 -0.5121  0.7331
  774MOL0     C 4404   8.795   6.275  -0.004 -0.5726 -0.1694  0.5860
  774MOL0     C 4405   8.904   6.216   0.061 -0.1511 -0.0392  0.8460
  774MOL0     N 4406   9.710   6.089   0.227 -0.7006 -0.0131  0.2328
  774MOL0     N 4407   9.811   6.151   0.276  0.7150 -0.4825 -0.9874
  774MOL0     C 4408  10.828   6.196   0.577  0.1749 -0.7394 -0.5826
  774MOL0     C 4409  10.963   6.202   0.551 -0.0114 -0.7036  0.6557
  774MOL0     C 4410  11.399   6.268   0.571 -0.6515  0.7360 -0.6010
  774MOL0     C 4411  11.467   6.187   0.476 -1.2187  0.2529  0.2313
  774MOL0     C 4412  11.589   6.236   0.420  0.4134  1.1611  0.0000
  774MOL0     C 4413  11.637   6.360   0.448 -0.1443  0.9189  0.2545
  774MOL0     O 4414  11.759   6.410   0.406  0.2655  0.6386 -0.3262
  774MOL0     C 4415  11.816   6.378   0.278  0.2423 -0.2466 -0.2915
  774MOL0     C 4416  11.966   6.411   0.270 -0.6074  0.2191  0.4850
  774MOL0     C 4417  12.013   6.381   0.116  0.3687  0.3345 -0.7890
  774MOL0     C 4418  12.154   6.401   0.096 -0.2646  0.8811 -0.0635
  774MOL0     C 4419  12.184   6.537   0.059  0.0644 -0.3737 -0.8474
  774MOL0     C 4420  12.209   6.658   0.040 -0.3543 -0.0794  0.1235
  774MOL0     C 4421  11.567   6.434   0.539  0.5778 -0.4248 -0.2903
  774MOL0     C 4422  11.454   6.399   0.604  0.3149  0.2245 -0.2544
  774MOL0     H 4423  11.066   5.931   0.708 -2.7382 -1.8512  2.1405
  774MOL0     H 4424  10.829   5.926   0.776  4.1830 -1.0885  0.9582
  774MOL0     H 4425  10.604   6.251   0.788 -0.2705 -0.7746 -0.0513
  774MOL0     H 4426  10.536   6.231   0.605  4.2309 -1.4319 -2.3528
  774MOL0     H 4427  10.400   6.068   0.707 -1.4098 -0.2587  0.8779
  774MOL0     H 4428  10.434   6.105   0.877  1.4403  0.5394  0.1260
  774MOL0     H 4429  10.219   6.189   0.824  1.5670 -1.0428  1.9021
  774MOL0     H 4430  10.323   6.337   0.824 -1.6748  0.6138 -0.7335
  774MOL0     H 4431  10.328   6.292   0.569  0.4016 -4.4325  0.6016
  774MOL0     H 4432  10.192   6.183   0.608 -0.8812  0.4650 -0.3318
  774MOL0     H 4433  10.061   6.378   0.713  0.1897  0.4368  0.9245
  774MOL0     H 4434  10.194   6.479   0.681 -1.3940  0.1511  0.3796
  774MOL0     H 4435  10.045   6.528   0.505 -0.8825  0.5058  3.0429
  774MOL0     H 4436  10.175   6.422   0.433  0.4523 -3.8061  1.7281
  774MOL0     H 4437   9.974   6.370   0.331 -1.3431 -0.4711  0.5177
  774MOL0     H 4438  10.067   6.239   0.405  1.1440  0.5512  3.3523
  774MOL0     H 4439   9.819   6.360   0.523 -0.8802  0.1386 -1.6801
  774MOL0     H 4440   9.903   6.220   0.591 -0.8685  0.7209  0.7841
  774MOL0     H 4441   9.625   6.119   0.546  0.5619 -0.0565  0.4123
  774MOL0     H 4442   9.511   5.918   0.251  0.2813  0.8762 -1.0353
  774MOL0     H 4443   9.442   5.971   0.408 -1.3381  1.6551 -0.3930
  774MOL0     H 4444   9.396   6.131   0.157  1.4515  1.2842  0.3654
  774MOL0     H 4445   9.366   6.191   0.310 -0.2447 -0.0339  0.0518
  774MOL0     H 4446   9.188   6.035   0.365  2.8752  2.8662  0.9686
  774MOL0     H 4447   9.232   5.927   0.222 -2.8051  1.5896 -5.2176
  774MOL0     H 4448   9.186   6.121   0.070  0.0406 -0.9529 -0.4849
  774MOL0     H 4449   9.120   6.204   0.208  1.0133 -0.7324  1.0393
  774MOL0     H 4450   8.822   5.888   0.033  0.3522 -0.3136 -2.1821
  774MOL0     H 4451   8.610   5.864  -0.037 -1.1884  1.7313  1.1071
  774MOL0     H 4452   8.514   5.992  -0.121  0.5203  2.5827 -0.2886
  774MOL0     H 4453   8.645   5.918  -0.206 -2.3981  0.7125 -1.2533
  774MOL0     H 4454   8.323   6.214  -0.179 -0.0712  0.3879  1.0516
  774MOL0     H 4455   8.112   6.318  -0.299  0.6798 -1.2771 -0.3216
  774MOL0     H 4456   7.940   6.431  -0.338  3.6622 -0.5674  0.3898
  774MOL0     H 4457   7.988   6.546  -0.214  0.5820 -4.4890  1.1202
  774MOL0     H 4458   7.925   6.724  -0.390  0.5728 -1.3637 -2.9112
  774MOL0     H 4459   7.855   6.611  -0.488  1.0680 -0.5287  0.0150
  774MOL0     H 4460   7.772   6.672  -0.192  2.1697  0.6655 -0.9216
  774MOL0     H 4461   7.697   6.535  -0.289  1.1871  0.2024 -0.3159
  774MOL0     H 4462   7.603   6.791  -0.263  3.0562  0.6274  1.8243
  774MOL0     H 4463   7.716   6.826  -0.389 -1.0532  1.2879  1.9964
  774MOL0     H 4464   7.589   6.658  -0.541 -1.2892 -0.8161 -0.3847
  774MOL0     H 4465   7.496   6.795  -0.489  0.2755 -0.7263 -1.2157
  774MOL0     H 4466   7.476   6.520  -0.342 -1.4974 -0.1739  1.4930
  774MOL0     H 4467   7.369   6.656  -0.324 -3.4703 -1.5236 -2.0874
  774MOL0     H 4468   7.264   6.483  -0.475 -1.8575  0.0923 -2.9161
  774MOL0     H 4469   7.386   6.501  -0.589  2.1520 -2.1100  2.0160
  774MOL0     H 4470   7.340   6.693  -0.666 -0.4660 -1.6095  0.1672
  774MOL0     H 4471   7.268   6.769  -0.525  0.9358  1.4072 -0.5349
  774MOL0     H 4472   8.316   6.692  -0.314 -2.2044 -0.1854  0.1939
  774MOL0     H 4473   8.532   6.579  -0.219 -0.6342  1.5766 -1.6897
  774MOL0     H 4474   8.775   6.382  -0.008  1.1829  0.1788  0.3492
  774MOL0     H 4475   8.979   6.287   0.095 -0.8586 -0.1856  2.8687
  774MOL0     H 4476  10.769   6.283   0.549  0.1299 -0.3637  0.6264
  774MOL0     H 4477  10.997   6.287   0.493 -2.4725 -2.3497 -3.6762
  774MOL0     H 4478  11.431   6.085   0.465 -2.7878  0.3665  3.3010
  774MOL0     H 4479  11.640   6.180   0.342  0.2741 -1.7498  1.8263
  774MOL0     H 4480  11.805   6.271   0.260 -0.7370 -0.1872 -0.1087
  774MOL0     H 4481  11.765   6.440   0.203  0.3954  1.1001  0.6680
  774MOL0     H 4482  12.027   6.356   0.343  1.5355  0.1835 -1.2235
  774MOL0     H 4483  11.977   6.518   0.292 -0.2548  0.4102 -0.5591
  774MOL0     H 4484  11.949   6.439   0.049 -1.0506 -1.1582 -0.8126
  774MOL0     H 4485  11.988   6.275   0.102  1.6030  0.1410 -1.6057
  774MOL0     H 4486  12.192   6.335   0.017  1.5642  0.5843  1.0069
  774MOL0     H 4487  12.224   6.378   0.177  1.6563  1.1303 -1.5654
  774MOL0     H 4488  12.211   6.764   0.024 -1.2370 -0.5308 -4.2444
  774MOL0     H 4489  11.598   6.537   0.558 -2.5158  0.3585  1.1608
  774MOL0     H 4490  11.402   6.475   0.661 -0.8378  1.4057 -2.7020
  775MOL0     O 4491  10.343   4.173   7.919  0.0549  0.2086 -0.2405
  775MOL0     C 4492  10.450   4.238   7.900  0.5563  1.0349 -1.0736
  775MOL0     O 4493  10.460   4.375   7.899  0.0949 -0.5074 -0.3319
  775MOL0     C 4494  10.343   4.444   7.909  0.1679  0.1985  0.1949
  775MOL0     C 4495  10.295   4.511   7.804  0.0669  0.0013  0.0008
  775MOL0     C 4496  10.183   4.602   7.820  0.3731  1.0209 -0.1482
  775MOL0     C 4497  10.112   4.600   7.938 -0.0032  0.1192  0.7725
  775MOL0     O 4498   9.998   4.685   7.942  0.2822  0.5698 -0.1534
  775MOL0     C 4499   9.878   4.620   7.982 -0.1036 -0.7733 -0.4888
  775MOL0     C 4500   9.756   4.707   7.963 -0.3310  0.2679 -0.1526
  775MOL0     C 4501   9.621   4.640   8.003 -0.2465  0.5712  0.8394
  775MOL0     C 4502   9.500   4.697   7.931 -0.5867  0.6064 -0.2705
  775MOL0     C 4503   9.376   4.604   7.970  0.4800 -0.1484  0.5180
  775MOL0     C 4504   9.243   4.664   7.915 -0.0055 -0.2304  0.1480
  775MOL0     C 4505   9.123   4.578   7.962  0.5878 -0.0549  0.3741
  775MOL0     C 4506   8.995   4.634   7.904  0.3369 -0.4458  0.0944
  775MOL0     N 4507   8.942   4.755   7.974 -0.1462 -0.5865 -0.4330
  775MOL0     C 4508   8.826   4.755   8.050  0.1096 -0.0321  0.3235
  775MOL0     C 4509   8.817   4.880   8.106  0.7743  0.6735 -0.1341
  775MOL0     C 4510   8.715   4.926   8.205 -0.0317 -0.2121 -0.8730
  775MOL0     C 4511   8.585   4.977   8.134 -0.3946 -0.2082  0.3967
  775MOL0     C 4512   8.493   5.060   8.218  1.0147 -0.3570 -0.2688
  775MOL0     C 4513   8.355   5.070   8.157  0.0044  0.4278 -0.6807
  775MOL0     O 4514   8.287   4.953   8.221 -0.4563  0.2670 -0.0078
  775MOL0     C 4515   8.153   4.938   8.197  0.2457  0.1185 -0.3396
  775MOL0     C 4516   8.083   4.824   8.251 -0.1169  0.1739  0.9761
  775MOL0     C 4517   7.953   4.804   8.246  0.1109 -0.7279  0.2460
  775MOL0     C 4518   7.897   4.689   8.321  0.4158 -0.3729  0.1013
  775MOL0     C 4519   7.879   4.887   8.157  0.0070  0.0242 -0.7077
  775MOL0     C 4520   7.737   4.870   8.129 -0.0891  0.1435 -0.3880
  775MOL0     O 4521   7.661   4.819   8.229  0.3268 -0.4107 -0.0059
  775MOL0     C 4522   7.544   4.758   8.195  0.3759  0.4944 -0.2190
  775MOL0     C 4523   7.424   4.824   8.183  0.0854 -0.0848  0.0444
  775MOL0     C 4524   7.300   4.768   8.153 -0.3150 -0.8262  1.8382
  775MOL0     C 4525   7.295   4.627   8.153  0.4193 -0.4109  0.3146
  775MOL0     O 4526   7.180   4.550   8.163 -0.7648 -0.1934  0.6232
  775MOL0     C 4527   7.044   4.615   8.167  0.3083  0.1577 -0.7818
  775MOL0     C 4528   7.024   4.666   8.311 -0.5662 -0.6028  0.1221
  775MOL0     C 4529   7.013   4.540   8.410  0.2761 -0.0618  0.5514
  775MOL0     C 4530   6.897   4.442   8.383 -0.1774  0.6070 -0.0396
  775MOL0     C 4531   6.875   4.354   8.503 -0.0941  0.6572  0.7205
  775MOL0     C 4532   6.744   4.275   8.478 -0.2379  0.4030  1.1336
  775MOL0     C 4533   6.715   4.203   8.607 -0.1152  0.1848  0.2676
  775MOL0     C 4534   6.576   4.129   8.619  0.0487 -0.3842 -0.5890
  775MOL0    Cl 4535   6.526   4.041   8.470 -0.5073  0.3810 -0.1925
  775MOL0     C 4536   7.419   4.562   8.161  0.0665  0.2656  0.3568
  775MOL0     C 4537   7.545   4.626   8.176  0.7246 -0.4801 -0.9081
  775MOL0     O 4538   7.695   4.905   8.018  0.2417 -0.7068 -0.9265
  775MOL0     C 4539   7.944   4.995   8.102  0.6645 -0.1482 -0.0345
  775MOL0     C 4540   8.082   5.028   8.115 -0.5277  0.4129 -0.0431
  775MOL0     N 4541   8.921   4.952   8.052 -0.1480 -0.0339 -0.0490
  775MOL0     N 4542   8.990   4.880   7.968 -0.0705 -0.9055  0.3855
  775MOL0     C 4543  10.149   4.514   8.037 -0.5042  0.6275  0.0307
  775MOL0     C 4544  10.271   4.437   8.027 -0.1876  0.7937 -0.0892
  775MOL0     C 4545  10.572   4.166   7.899  0.1374  1.2241  0.3441
  775MOL0     C 4546  10.575   4.030   7.868 -0.1074  0.3571 -0.4741
  775MOL0     C 4547  10.698   3.959   7.874  0.7581  0.2673 -0.0172
  775MOL0     C 4548  10.824   4.019   7.898  0.0533  0.6949 -1.1465
  775MOL0     O 4549  10.943   3.956   7.925 -0.6338  0.2440 -0.1388
  775MOL0     C 4550  10.966   3.819   7.878 -0.3326  0.8571  0.2956
  775MOL0     C 4551  10.945   3.710   7.983  0.1470  0.1922  0.8093
  775MOL0     C 4552  11.013   3.576   7.934 -0.6482  0.9816  0.2275
  775MOL0     C 4553  10.976   3.472   8.035  0.6720 -0.8063 -0.2110
  775MOL0     C 4554  11.031   3.339   8.023  0.0151  0.3066  0.0484
  775MOL0     C 4555  11.075   3.223   7.999  0.4876 -0.0355  0.0932
  775MOL0     C 4556  10.813   4.158   7.921  0.2207 -0.4166  0.2905
  775MOL0     C 4557  10.689   4.233   7.928 -0.3852 -0.3243  0.1207
  775MOL0     H 4558  10.341   4.489   7.709 -1.3498  0.7372 -0.9093
  775MOL0     H 4559  10.163   4.676   7.743 -0.0667 -0.0475 -1.0964
  775MOL0     H 4560   9.878   4.530   7.918  1.6634 -1.8944  0.9921
  775MOL0     H 4561   9.882   4.588   8.086  0.0405  2.9475  0.7759
  775MOL0     H 4562   9.766   4.797   8.025  0.3266  1.0856 -1.4112
  775MOL0     H 4563   9.743   4.740   7.860  2.1033  1.2398 -0.2196
  775MOL0     H 4564   9.630   4.533   7.980 -2.9508  0.3016  0.7458
  775MOL0     H 4565   9.600   4.638   8.110  0.2007 -1.6210  0.9481
  775MOL0     H 4566   9.491   4.797   7.976  3.3957  0.3947  1.4526
  775MOL0     H 4567   9.519   4.691   7.824  1.1904  1.7661 -0.0642
  775MOL0     H 4568   9.390   4.509   7.918 -1.1712  0.0097 -0.2830
  775MOL0     H 4569   9.373   4.583   8.077  2.8403  0.3451  0.7323
  775MOL0     H 4570   9.238   4.771   7.940  0.8553 -0.6561  2.4090
  775MOL0     H 4571   9.240   4.653   7.806 -0.4427 -2.1768  0.3176
  775MOL0     H 4572   9.136   4.473   7.934 -0.8007 -0.8442  2.4696
  775MOL0     H 4573   9.108   4.580   8.070 -3.9526  2.3484 -0.0318
  775MOL0     H 4574   8.912   4.564   7.922  0.0860  0.3006  2.2164
  775MOL0     H 4575   9.003   4.656   7.798 -1.2930  4.2240  0.7111
  775MOL0     H 4576   8.766   4.665   8.051  1.7148 -1.1897 -1.1108
  775MOL0     H 4577   8.688   4.846   8.275  0.0161  0.0769 -0.5231
  775MOL0     H 4578   8.754   5.014   8.257 -1.0332  0.3706 -1.0818
  775MOL0     H 4579   8.533   4.893   8.086 -1.2129 -0.0509  0.9939
  775MOL0     H 4580   8.612   5.042   8.051  1.4940 -2.0034 -0.4971
  775MOL0     H 4581   8.536   5.160   8.222 -1.2327  0.6657 -0.0231
  775MOL0     H 4582   8.498   5.017   8.318  1.1092 -1.4776 -0.7391
  775MOL0     H 4583   8.349   5.061   8.048 -2.3229  1.2905 -0.6920
  775MOL0     H 4584   8.305   5.162   8.187 -3.5188 -1.0752 -1.3893
  775MOL0     H 4585   8.140   4.758   8.316 -0.4033 -0.8323  0.2250
  775MOL0     H 4586   7.874   4.605   8.255  0.5455 -0.9833  0.8153
  775MOL0     H 4587   7.958   4.661   8.407 -2.6045 -2.6490  1.7028
  775MOL0     H 4588   7.806   4.722   8.371  1.8791  1.1644  1.8652
  775MOL0     H 4589   7.430   4.931   8.194  2.8328 -0.1309 -0.2534
  775MOL0     H 4590   7.208   4.823   8.133  0.3532 -0.3135 -0.1196
  775MOL0     H 4591   7.033   4.701   8.100 -0.9670  2.4986  2.1600
  775MOL0     H 4592   6.970   4.539   8.141  3.4051 -2.4210 -2.7638
  775MOL0     H 4593   7.113   4.721   8.344 -0.9097  1.8940 -2.7346
  775MOL0     H 4594   6.947   4.742   8.321  1.0015  1.0188  0.4685
  775MOL0     H 4595   7.001   4.573   8.514 -1.4878  0.1133  0.3291
  775MOL0     H 4596   7.107   4.486   8.400 -1.1722 -2.4144 -1.6770
  775MOL0     H 4597   6.806   4.495   8.352  0.2316 -0.2758 -3.0237
  775MOL0     H 4598   6.922   4.384   8.294  2.3069  1.1896  0.2189
  775MOL0     H 4599   6.853   4.416   8.590 -3.7437  0.1095  0.3457
  775MOL0     H 4600   6.958   4.285   8.519 -1.0745 -0.8057 -0.2094
  775MOL0     H 4601   6.667   4.347   8.450 -0.1377  0.9923  2.3067
  775MOL0     H 4602   6.754   4.200   8.399  3.1921  1.0877  0.7257
  775MOL0     H 4603   6.718   4.283   8.682  2.3313  0.1470  0.2864
  775MOL0     H 4604   6.791   4.130   8.635  1.7475  2.8057  2.6806
  775MOL0     H 4605   6.497   4.204   8.631  0.4832 -0.0781  0.6159
  775MOL0     H 4606   6.574   4.063   8.707 -0.3516  0.0047 -0.3067
  775MOL0     H 4607   7.416   4.454   8.159 -2.0667  0.2666 -2.5921
  775MOL0     H 4608   7.638   4.569   8.182 -1.2355 -3.9232 -0.7978
  775MOL0     H 4609   7.886   5.055   8.033 -0.2982 -2.0210 -0.9231
  775MOL0     H 4610   8.125   5.118   8.073 -1.3686  1.6076  1.5624
  775MOL0     H 4611  10.094   4.502   8.129  1.5983 -1.5067  1.1335
  775MOL0     H 4612  10.295   4.366   8.105 -1.9101  0.5698  0.2785
  775MOL0     H 4613  10.483   3.985   7.833 -0.5582  0.4838  0.5092
  775MOL0     H 4614  10.706   3.860   7.829  0.1717  0.3909 -0.4076
  775MOL0     H 4615  10.906   3.796   7.790 -0.4841  0.7627  0.4248
  775MOL0     H 4616  11.070   3.818   7.844 -0.8978 -0.1164 -1.5569
  775MOL0     H 4617  10.839   3.693   8.000  0.7113 -1.7978  2.8522
  775MOL0     H 4618  10.975   3.743   8.083 -0.9096  1.1956  0.8070
  775MOL0     H 4619  11.117   3.604   7.951 -0.8264  1.2659  0.8725
  775MOL0     H 4620  10.970   3.550   7.837  0.1791  2.1183 -0.4650
  775MOL0     H 4621  10.867   3.474   8.043  0.6215  1.6760 -0.7332
  775MOL0     H 4622  11.000   3.507   8.135 -0.3320 -2.2289  0.5674
  775MOL0     H 4623  11.121   3.126   7.994 -0.8471 -0.6611 -0.6423
  775MOL0     H 4624  10.904   4.205   7.956  0.6820 -0.8008 -0.3774
  775MOL0     H 4625  10.692   4.339   7.952  1.4022 -0.6558  1.5779
  776MOL0     O 4626   0.291   3.307   7.300 -0.6159  0.8144  0.1805
  776MOL0     C 4627   0.390   3.369   7.333 -0.5584 -0.4277 -0.6109
  776MOL0     O 4628   0.423   3.493   7.288 -0.2102 -1.4441  1.0975
  776MOL0     C 4629   0.338   3.543   7.191 -0.0431 -0.0174  1.0933
  776MOL0     C 4630   0.256   3.657   7.222 -0.0224  0.8248 -0.1040
  776MOL0     C 4631   0.177   3.720   7.131 -0.7572 -0.5499  0.2514
  776MOL0     C 4632   0.155   3.662   7.003 -0.5565 -0.2545 -0.0361
  776MOL0     O 4633   0.057   3.730   6.932  0.7057 -0.5739  0.1621
  776MOL0     C 4634   0.042   3.708   6.790 -0.1957  1.1304 -0.6481
  776MOL0     C 4635  -0.060   3.598   6.766 -0.5543 -0.0010  0.7129
  776MOL0     C 4636  -0.210   3.637   6.795 -0.6308 -0.3388  0.8063
  776MOL0     C 4637  -0.284   3.528   6.860  0.4339  0.3223  0.3185
  776MOL0     C 4638  -0.440   3.553   6.885  0.8020  0.2259 -0.3881
  776MOL0     C 4639  -0.485   3.447   6.986 -0.3216  0.9515  0.3262
  776MOL0     C 4640  -0.637   3.462   7.027 -0.0547  0.4543 -0.1773
  776MOL0     C 4641  -0.671   3.339   7.114 -0.3317 -0.3001  0.1240
  776MOL0     N 4642  -0.804   3.352   7.180  0.3486  0.4387 -1.0455
  776MOL0     C 4643  -0.929   3.389   7.126 -0.5788 -0.4288 -0.0742
  776MOL0     C 4644  -0.998   3.418   7.238 -0.8443  0.6333  0.2139
  776MOL0     C 4645  -1.129   3.492   7.235 -0.3666  0.4683  0.7437
  776MOL0     C 4646  -1.252   3.403   7.247 -0.1643  0.1586  0.1860
  776MOL0     C 4647  -1.284   3.313   7.120 -0.3147 -0.1521  0.6142
  776MOL0     C 4648  -1.294   3.407   6.991  0.1282  0.1225 -0.3953
  776MOL0     O 4649  -1.399   3.501   6.994  0.0520 -0.0243 -0.3752
  776MOL0     C 4650  -1.522   3.449   7.009 -0.5708  0.0485  0.4201
  776MOL0     C 4651  -1.576   3.328   6.963  0.3116 -0.8376  0.0951
  776MOL0     C 4652  -1.703   3.286   6.982  0.5994  0.6215  0.4458
  776MOL0     C 4653  -1.743   3.148   6.936  0.4489  0.3827 -0.1352
  776MOL0     C 4654  -1.790   3.369   7.059 -0.0588 -0.5979  0.3966
  776MOL0     C 4655  -1.935   3.346   7.093  0.5881 -0.2660 -0.0686
  776MOL0     O 4656  -2.024   3.463   7.077 -0.5203  0.5326 -0.4426
  776MOL0     C 4657  -2.159   3.459   7.074  0.3148 -0.6235  0.6069
  776MOL0     C 4658  -2.216   3.565   6.994 -0.1945  0.7730 -0.3675
  776MOL0     C 4659  -2.354   3.580   6.990 -0.2100 -0.1025 -0.3707
  776MOL0     C 4660  -2.442   3.487   7.052  0.2415 -0.1688  0.6459
  776MOL0     O 4661  -2.577   3.518   7.040 -0.2444  0.0835  0.2969
  776MOL0     C 4662  -2.655   3.504   7.158 -0.6950  0.1872  0.6957
  776MOL0     C 4663  -2.793   3.582   7.158 -0.2932 -0.2955  0.6154
  776MOL0     C 4664  -2.876   3.533   7.047  1.0418 -0.1984 -0.4547
  776MOL0     C 4665  -3.008   3.602   7.052 -0.1176 -0.1134 -0.3568
  776MOL0     C 4666  -3.096   3.537   6.946  0.0701  0.2938 -0.1798
  776MOL0     C 4667  -3.243   3.565   6.963 -0.1764 -1.0231 -1.0453
  776MOL0     C 4668  -3.324   3.469   6.872 -0.3728 -0.9199 -0.5462
  776MOL0     C 4669  -3.477   3.497   6.878 -0.6160  0.6005 -0.5911
  776MOL0    Cl 4670  -3.574   3.429   6.747  0.1262  0.2836  0.1990
  776MOL0     C 4671  -2.386   3.381   7.123 -0.6621 -0.1764 -0.2556
  776MOL0     C 4672  -2.246   3.366   7.136  0.1471 -0.1277 -0.1523
  776MOL0     O 4673  -1.969   3.234   7.130  0.2951  0.8313  0.3696
  776MOL0     C 4674  -1.734   3.488   7.100  0.1090  0.2542 -0.6682
  776MOL0     C 4675  -1.607   3.532   7.079  0.0003  0.5440  0.1497
  776MOL0     N 4676  -0.926   3.376   7.352  0.9490  0.3050  0.2287
  776MOL0     N 4677  -0.806   3.329   7.309 -0.5342 -0.4090 -0.1732
  776MOL0     C 4678   0.222   3.547   6.971  0.1091  1.3118  0.5058
  776MOL0     C 4679   0.323   3.492   7.060  0.4048  0.2338 -0.7189
  776MOL0     C 4680   0.478   3.338   7.451 -0.2371 -0.0646 -0.5293
  776MOL0     C 4681   0.610   3.375   7.454 -0.7607 -0.3658  0.2439
  776MOL0     C 4682   0.697   3.346   7.568  0.0924  0.1646  0.2334
  776MOL0     C 4683   0.636   3.283   7.672  0.4369 -0.2679  0.1209
  776MOL0     O 4684   0.718   3.268   7.783  0.8988  0.4301 -0.1601
  776MOL0     C 4685   0.663   3.300   7.906 -0.5646  0.6005  0.9548
  776MOL0     C 4686   0.776   3.361   8.001 -0.0713  0.2129  0.1705
  776MOL0     C 4687   0.727   3.444   8.110 -0.3350 -0.3335 -0.7204
  776MOL0     C 4688   0.840   3.491   8.199  0.8632  0.5628 -0.1228
  776MOL0     C 4689   0.794   3.558   8.320 -0.2910  0.5427 -0.5365
  776MOL0     C 4690   0.759   3.606   8.425  0.4304  0.1638 -0.3408
  776MOL0     C 4691   0.502   3.245   7.670  0.5547  1.2898  0.4973
  776MOL0     C 4692   0.421   3.265   7.559 -0.4262 -0.6426  0.2567
  776MOL0     H 4693   0.253   3.692   7.325  1.2178  1.0685 -0.1276
  776MOL0     H 4694   0.123   3.811   7.154 -0.2329 -0.6574  1.9978
  776MOL0     H 4695   0.007   3.804   6.753 -0.6713  1.2134 -0.0081
  776MOL0     H 4696   0.134   3.679   6.739  0.2162  1.2368  0.0114
  776MOL0     H 4697  -0.036   3.571   6.662 -0.4366  1.6735  0.2847
  776MOL0     H 4698  -0.047   3.513   6.833  2.6206 -0.5830 -0.4427
  776MOL0     H 4699  -0.202   3.719   6.868 -1.5135 -0.3754  0.9504
  776MOL0     H 4700  -0.255   3.664   6.699  3.9021 -0.9929 -1.7816
  776MOL0     H 4701  -0.281   3.431   6.809  0.8056 -0.7888  2.3512
  776MOL0     H 4702  -0.232   3.506   6.953 -0.3110  2.9287  1.4329
  776MOL0     H 4703  -0.451   3.659   6.913  1.1620  0.0603  0.4103
  776MOL0     H 4704  -0.502   3.553   6.795 -0.5036  1.7034  0.4486
  776MOL0     H 4705  -0.462   3.348   6.945 -0.7850  0.6991  0.6604
  776MOL0     H 4706  -0.422   3.446   7.075  2.5063  3.3015 -1.4578
  776MOL0     H 4707  -0.645   3.558   7.078  1.4332  0.9998 -0.9255
  776MOL0     H 4708  -0.707   3.459   6.943 -1.0496  0.6224  0.6194
  776MOL0     H 4709  -0.590   3.310   7.182 -0.0807 -2.6111 -1.0614
  776MOL0     H 4710  -0.668   3.254   7.045  0.6388 -0.7115  0.6467
  776MOL0     H 4711  -0.951   3.406   7.021 -1.9216 -0.6629  0.1550
  776MOL0     H 4712  -1.132   3.567   7.315  0.2248  1.0307  0.2579
  776MOL0     H 4713  -1.134   3.550   7.142  1.0955 -1.5028 -0.6384
  776MOL0     H 4714  -1.339   3.468   7.260  1.9990  2.9750  1.6487
  776MOL0     H 4715  -1.235   3.340   7.334 -0.1813 -1.7679 -1.1401
  776MOL0     H 4716  -1.377   3.257   7.135 -1.2180  1.5652  1.7619
  776MOL0     H 4717  -1.200   3.243   7.114  0.5588  0.8767  0.5608
  776MOL0     H 4718  -1.304   3.348   6.899 -2.5410  1.1329 -0.8453
  776MOL0     H 4719  -1.200   3.462   6.979 -1.0234  2.4965  0.8336
  776MOL0     H 4720  -1.518   3.257   6.904  0.9638  0.1760 -0.5277
  776MOL0     H 4721  -1.837   3.112   6.980  1.4010 -2.3766 -0.1878
  776MOL0     H 4722  -1.761   3.149   6.828  0.4594 -1.7324 -0.1932
  776MOL0     H 4723  -1.676   3.068   6.967 -1.5466 -1.7607 -1.0235
  776MOL0     H 4724  -2.154   3.629   6.932 -1.4081  2.9083  0.4894
  776MOL0     H 4725  -2.398   3.666   6.940  0.9190  1.1193  0.6794
  776MOL0     H 4726  -2.675   3.401   7.188  1.1339 -0.6165 -0.6333
  776MOL0     H 4727  -2.598   3.562   7.231  0.8599  0.8226 -0.9304
  776MOL0     H 4728  -2.848   3.582   7.252  0.8208  1.7920  1.3308
  776MOL0     H 4729  -2.766   3.687   7.140 -2.4249  0.4632  1.4928
  776MOL0     H 4730  -2.883   3.427   7.075 -2.5626 -0.5518 -2.0834
  776MOL0     H 4731  -2.832   3.544   6.948  1.7236  2.2012  0.0568
  776MOL0     H 4732  -3.060   3.589   7.147 -0.1921  2.8713  0.1145
  776MOL0     H 4733  -2.993   3.708   7.029 -0.4051  0.1338  0.5531
  776MOL0     H 4734  -3.075   3.430   6.952  0.8625  0.4814  0.6430
  776MOL0     H 4735  -3.064   3.571   6.847 -2.4070  2.4751 -0.3495
  776MOL0     H 4736  -3.275   3.545   7.065 -1.7738 -4.4740 -2.0514
  776MOL0     H 4737  -3.264   3.668   6.933 -2.6130 -1.3599 -0.6585
  776MOL0     H 4738  -3.310   3.366   6.905  0.0070 -0.8400 -0.4447
  776MOL0     H 4739  -3.288   3.486   6.770 -2.5895  2.5386 -0.9118
  776MOL0     H 4740  -3.482   3.606   6.878  2.3203  0.8870  1.7451
  776MOL0     H 4741  -3.524   3.456   6.967  2.5874 -1.6884  0.2617
  776MOL0     H 4742  -2.455   3.311   7.170 -0.8212 -0.8469 -1.4659
  776MOL0     H 4743  -2.218   3.284   7.201 -0.9269  0.3606  0.9793
  776MOL0     H 4744  -1.803   3.547   7.159 -1.0520 -2.8541  1.3086
  776MOL0     H 4745  -1.575   3.625   7.124 -1.3532 -1.1288  5.2985
  776MOL0     H 4746   0.200   3.506   6.872 -2.5522 -0.3563  1.6630
  776MOL0     H 4747   0.371   3.401   7.026 -0.1119  0.6242 -2.6274
  776MOL0     H 4748   0.665   3.401   7.364  1.3552 -2.2128  0.9081
  776MOL0     H 4749   0.800   3.378   7.567 -0.1910  1.1957 -1.8748
  776MOL0     H 4750   0.587   3.376   7.892 -1.1424 -0.1908 -0.4329
  776MOL0     H 4751   0.616   3.210   7.948 -2.3084  1.4095  0.8024
  776MOL0     H 4752   0.845   3.424   7.945 -0.2173 -0.3988 -0.7127
  776MOL0     H 4753   0.837   3.280   8.042  2.2624  2.1341  0.7617
  776MOL0     H 4754   0.658   3.384   8.169 -1.2330 -0.9256 -2.3142
  776MOL0     H 4755   0.680   3.537   8.077  1.0568  0.8534  0.4611
  776MOL0     H 4756   0.913   3.544   8.138  2.0460 -1.1910 -0.3052
  776MOL0     H 4757   0.895   3.403   8.232 -0.6059  0.1673  1.4471
  776MOL0     H 4758   0.710   3.652   8.508  0.7076 -0.7480  0.3310
  776MOL0     H 4759   0.458   3.222   7.767  1.2859 -2.7413  0.0439
  776MOL0     H 4760   0.315   3.245   7.565 -0.7726  1.4571  3.0808
  777MOL0     O 4761  10.242   7.371   1.441 -0.3874  0.0226  0.3372
  777MOL0     C 4762  10.307   7.310   1.356  0.0266 -0.0389 -0.4649
  777MOL0     O 4763  10.255   7.256   1.236 -0.4214 -0.9304 -1.4940
  777MOL0     C 4764  10.123   7.214   1.214 -0.5241 -0.4530 -0.1423
  777MOL0     C 4765  10.089   7.206   1.075 -0.0971 -0.5804 -0.5846
  777MOL0     C 4766   9.960   7.161   1.035  1.0836 -0.2976  0.3881
  777MOL0     C 4767   9.869   7.125   1.132 -0.7853  0.7165 -0.4123
  777MOL0     O 4768   9.744   7.074   1.091 -0.1171  0.2405 -0.0575
  777MOL0     C 4769   9.632   7.072   1.175  0.5397 -0.4712 -0.2151
  777MOL0     C 4770   9.503   7.138   1.111  0.0105 -0.4193  0.6075
  777MOL0     C 4771   9.532   7.291   1.094 -0.3049  0.3234  0.7771
  777MOL0     C 4772   9.409   7.367   1.042 -0.4145 -0.1193 -0.3991
  777MOL0     C 4773   9.316   7.405   1.159  0.0417  0.0065 -0.4374
  777MOL0     C 4774   9.205   7.492   1.110 -0.1573  0.7520  0.9369
  777MOL0     C 4775   9.106   7.502   1.223  0.1731 -0.3271  0.0806
  777MOL0     C 4776   9.017   7.379   1.242 -0.7110  0.3288 -0.1711
  777MOL0     N 4777   8.892   7.416   1.300  0.4785  0.6667  0.4175
  777MOL0     C 4778   8.847   7.353   1.413 -0.9548  0.0588  1.2914
  777MOL0     C 4779   8.714   7.383   1.423  0.2310  0.4008 -0.3894
  777MOL0     C 4780   8.614   7.338   1.532 -0.7496  0.1704  0.0881
  777MOL0     C 4781   8.515   7.239   1.475 -0.9378  0.0087 -0.2123
  777MOL0     C 4782   8.419   7.196   1.586 -0.7257 -0.2334  0.5507
  777MOL0     C 4783   8.296   7.288   1.597  0.7333  0.0730 -0.3390
  777MOL0     O 4784   8.200   7.213   1.678  0.1823  0.5300  0.2788
  777MOL0     C 4785   8.071   7.245   1.668 -0.3578 -0.2996  0.5579
  777MOL0     C 4786   8.027   7.367   1.607 -0.0562  0.4646 -0.4643
  777MOL0     C 4787   7.896   7.408   1.621  0.3463  0.0480 -0.6090
  777MOL0     C 4788   7.878   7.555   1.585  0.5707  0.3117  0.0275
  777MOL0     C 4789   7.793   7.325   1.684 -0.2646 -0.2053 -0.4499
  777MOL0     C 4790   7.646   7.350   1.703  0.2091  0.3835 -0.1950
  777MOL0     O 4791   7.562   7.241   1.721  0.3073 -0.8033 -0.0750
  777MOL0     C 4792   7.434   7.258   1.674 -0.0218  0.2686 -0.2630
  777MOL0     C 4793   7.399   7.309   1.548  0.7754 -0.4628 -0.2626
  777MOL0     C 4794   7.268   7.304   1.488 -0.1405 -0.5747 -0.2845
  777MOL0     C 4795   7.161   7.273   1.569  0.2033 -0.8532 -0.6570
  777MOL0     O 4796   7.032   7.281   1.534  0.2405 -0.2158  0.7979
  777MOL0     C 4797   6.995   7.395   1.457  0.1150 -0.6458 -0.6384
  777MOL0     C 4798   6.834   7.408   1.461 -0.9883 -0.7097  0.5753
  777MOL0     C 4799   6.769   7.339   1.349 -0.6791 -0.3459  0.6670
  777MOL0     C 4800   6.635   7.392   1.324  0.2305  0.3188 -0.3525
  777MOL0     C 4801   6.634   7.529   1.241  0.1328  0.2083 -0.0271
  777MOL0     C 4802   6.491   7.585   1.215 -0.3344  0.1821 -0.2015
  777MOL0     C 4803   6.405   7.497   1.113 -0.6941 -0.1477 -0.3704
  777MOL0     C 4804   6.261   7.528   1.118 -0.2117 -0.0358  0.2253
  777MOL0    Cl 4805   6.225   7.678   1.019  0.1938  0.0832  0.2488
  777MOL0     C 4806   7.191   7.213   1.695  0.2246 -0.9681 -0.3440
  777MOL0     C 4807   7.325   7.207   1.740 -0.0292 -0.2215  0.8200
  777MOL0     O 4808   7.611   7.462   1.702  0.6713 -0.3291 -0.5217
  777MOL0     C 4809   7.845   7.200   1.737  0.1029 -0.0171  0.0396
  777MOL0     C 4810   7.971   7.163   1.729 -1.1692  1.0768 -0.3477
  777MOL0     N 4811   8.679   7.443   1.306 -0.0404 -0.6234  0.2933
  777MOL0     N 4812   8.780   7.465   1.230 -0.1383 -0.2278 -0.5846
  777MOL0     C 4813   9.903   7.135   1.274  1.1790  0.0285 -0.1840
  777MOL0     C 4814  10.028   7.189   1.317 -0.2057  0.2168  0.0996
  777MOL0     C 4815  10.448   7.304   1.385 -0.3030  1.0097 -0.5293
  777MOL0     C 4816  10.524   7.212   1.315 -0.1651 -0.2628  0.4318
  777MOL0     C 4817  10.661   7.194   1.348 -0.8693  0.7422  0.0831
  777MOL0     C 4818  10.726   7.257   1.459  0.0105 -0.1607  0.4765
  777MOL0     O 4819  10.851   7.218   1.503  0.0869 -0.1618  0.5577
  777MOL0     C 4820  10.884   7.240   1.630  0.0200  0.7820 -0.4128
  777MOL0     C 4821  11.030   7.195   1.652  0.7137  0.0403 -0.3295
  777MOL0     C 4822  11.065   7.042   1.637 -1.2644  0.2072  0.1225
  777MOL0     C 4823  11.024   6.947   1.751  0.2560 -0.0127  0.0472
  777MOL0     C 4824  11.087   6.824   1.749  0.1317  0.4155  0.0043
  777MOL0     C 4825  11.118   6.702   1.756 -0.0584 -0.5581 -0.2173
  777MOL0     C 4826  10.642   7.360   1.525  0.0595  0.3116  0.8737
  777MOL0     C 4827  10.505   7.379   1.489 -0.8573 -0.3159  0.3720
  777MOL0     H 4828  10.160   7.242   1.001  1.2530 -0.8836  0.5181
  777MOL0     H 4829   9.932   7.148   0.930  1.7079 -1.5634  0.3667
  777MOL0     H 4830   9.602   6.968   1.193 -3.9770  0.7623  0.8188
  777MOL0     H 4831   9.645   7.123   1.270  2.6864  0.4751 -0.9511
  777MOL0     H 4832   9.474   7.092   1.017 -2.7889  0.9801  0.7022
  777MOL0     H 4833   9.425   7.119   1.185  1.2326 -1.1252  1.7690
  777MOL0     H 4834   9.554   7.341   1.189 -1.2144 -1.5369  2.0269
  777MOL0     H 4835   9.618   7.308   1.028 -2.2703 -2.1397 -2.7379
  777MOL0     H 4836   9.450   7.456   0.994 -0.6011 -0.3655 -1.0333
  777MOL0     H 4837   9.344   7.324   0.965 -2.1408  2.9944 -0.8329
  777MOL0     H 4838   9.279   7.319   1.215 -1.4099 -0.0766 -1.4677
  777MOL0     H 4839   9.369   7.455   1.241  2.3927 -0.3509 -1.6335
  777MOL0     H 4840   9.246   7.592   1.093  1.3268  0.1191  0.6372
  777MOL0     H 4841   9.168   7.458   1.013  1.6300  0.3869  0.3481
  777MOL0     H 4842   9.158   7.532   1.315 -2.1680  1.6221  0.8581
  777MOL0     H 4843   9.048   7.590   1.195 -1.3579  0.4475  4.8754
  777MOL0     H 4844   9.062   7.295   1.296 -0.4255  0.9827  0.6272
  777MOL0     H 4845   9.006   7.345   1.138  1.8873  0.8581 -0.6972
  777MOL0     H 4846   8.906   7.307   1.491  0.4450 -0.4098 -0.0082
  777MOL0     H 4847   8.660   7.293   1.621  0.9486  0.4906 -0.5751
  777MOL0     H 4848   8.567   7.424   1.580 -0.3016 -0.8823  2.5698
  777MOL0     H 4849   8.568   7.149   1.441 -3.4912 -2.0084  0.7713
  777MOL0     H 4850   8.459   7.265   1.385  0.5620 -0.7646 -1.4274
  777MOL0     H 4851   8.474   7.179   1.679  0.7462 -0.8066 -0.3798
  777MOL0     H 4852   8.382   7.098   1.555 -2.4566  0.1182  1.4283
  777MOL0     H 4853   8.263   7.293   1.493 -0.8279 -1.7297  0.0270
  777MOL0     H 4854   8.327   7.389   1.628  2.2222  0.7163 -3.4739
  777MOL0     H 4855   8.101   7.432   1.562  1.6445  0.7908  2.5248
  777MOL0     H 4856   7.859   7.580   1.481  0.0966  0.6203  0.1879
  777MOL0     H 4857   7.800   7.606   1.642 -1.4558 -2.8384  0.3579
  777MOL0     H 4858   7.974   7.598   1.616 -1.3443  3.7487  1.8091
  777MOL0     H 4859   7.481   7.349   1.489  0.3851  0.6582 -0.0732
  777MOL0     H 4860   7.261   7.338   1.385  0.3504 -0.4134 -0.2658
  777MOL0     H 4861   7.034   7.493   1.483 -2.7932  1.0115 -2.0475
  777MOL0     H 4862   7.025   7.368   1.355  1.1096 -0.0929 -0.4968
  777MOL0     H 4863   6.794   7.366   1.553  0.5672  1.7908  2.5377
  777MOL0     H 4864   6.811   7.515   1.456 -0.4081 -0.5499  1.2430
  777MOL0     H 4865   6.770   7.237   1.389  0.0509  0.6259  3.3740
  777MOL0     H 4866   6.824   7.335   1.255  1.3653 -1.8162  1.8376
  777MOL0     H 4867   6.598   7.309   1.263  0.1015  0.7317 -0.8339
  777MOL0     H 4868   6.583   7.400   1.420 -0.0949  0.2306 -0.5194
  777MOL0     H 4869   6.680   7.515   1.143 -0.6409  2.0081 -0.6867
  777MOL0     H 4870   6.695   7.598   1.298  1.7172 -2.1453  1.3103
  777MOL0     H 4871   6.426   7.583   1.303 -1.0224  1.1912 -0.6635
  777MOL0     H 4872   6.501   7.691   1.189  1.3920 -0.3179 -1.8155
  777MOL0     H 4873   6.416   7.391   1.139  1.6960 -0.0080 -0.6229
  777MOL0     H 4874   6.441   7.517   1.012 -1.8340  2.5294 -0.3277
  777MOL0     H 4875   6.227   7.555   1.219 -0.9326 -2.9829  0.8838
  777MOL0     H 4876   6.202   7.444   1.079 -0.1112 -0.5314  1.1083
  777MOL0     H 4877   7.111   7.171   1.756  0.7610  1.0930  1.9549
  777MOL0     H 4878   7.331   7.169   1.842 -1.8471 -2.2226  0.2488
  777MOL0     H 4879   7.787   7.134   1.800 -4.3369  3.0602 -0.3619
  777MOL0     H 4880   8.003   7.073   1.782 -0.9836  1.7394  0.7057
  777MOL0     H 4881   9.823   7.115   1.344 -1.8679  1.0256 -3.1155
  777MOL0     H 4882  10.058   7.211   1.419  2.0094  0.6302 -0.5841
  777MOL0     H 4883  10.481   7.151   1.236  1.7474  0.3363 -1.1406
  777MOL0     H 4884  10.720   7.114   1.305 -2.4006  0.8150 -2.3630
  777MOL0     H 4885  10.889   7.347   1.654  1.1677  0.5031  0.6751
  777MOL0     H 4886  10.813   7.188   1.696  3.3064  1.5777  4.2725
  777MOL0     H 4887  11.059   7.230   1.752 -1.7501 -0.1112  0.4993
  777MOL0     H 4888  11.094   7.242   1.577  1.8214 -3.2635 -1.6441
  777MOL0     H 4889  11.174   7.034   1.633 -1.3547 -1.3576  0.1570
  777MOL0     H 4890  11.028   7.002   1.542 -0.7638 -3.4523  1.3000
  777MOL0     H 4891  10.915   6.935   1.750  0.0667  1.5427 -0.3665
  777MOL0     H 4892  11.047   6.992   1.848  1.7860 -0.5372 -0.0557
  777MOL0     H 4893  11.141   6.598   1.761  3.2245 -0.0981 -2.8594
  777MOL0     H 4894  10.689   7.418   1.604  3.8802  0.8496 -1.5394
  777MOL0     H 4895  10.449   7.448   1.552 -0.8103 -1.6074  1.8961
  778MOL0     O 4896   4.073   6.114   5.422  0.2910 -0.7292  0.4567
  778MOL0     C 4897   4.132   6.228   5.417  0.2052 -0.8922 -0.4521
  778MOL0     O 4898   4.096   6.342   5.500 -0.5857 -0.2504  0.4659
  778MOL0     C 4899   4.001   6.335   5.600 -0.0968  0.0286  0.2271
  778MOL0     C 4900   3.864   6.353   5.574  0.1670 -0.0973  0.0747
  778MOL0     C 4901   3.778   6.346   5.686  0.2461 -0.4433  1.0493
  778MOL0     C 4902   3.825   6.344   5.822 -0.1059  0.3204  0.2013
  778MOL0     O 4903   3.747   6.347   5.936  0.2265 -0.1165  0.3020
  778MOL0     C 4904   3.625   6.265   5.938 -0.0168 -0.5000 -0.3799
  778MOL0     C 4905   3.500   6.353   5.919 -0.7027  0.0251 -0.1492
  778MOL0     C 4906   3.462   6.411   6.059 -0.3841  0.3267  0.0476
  778MOL0     C 4907   3.343   6.517   6.053 -0.0864  0.3198  0.6001
  778MOL0     C 4908   3.341   6.607   6.180 -0.3840 -0.2137  0.0450
  778MOL0     C 4909   3.256   6.735   6.170  0.9848  0.3672  0.2761
  778MOL0     C 4910   3.339   6.858   6.126  0.0799  0.6194 -0.7628
  778MOL0     C 4911   3.272   6.982   6.201 -0.0342  0.4672  0.7838
  778MOL0     N 4912   3.135   7.008   6.155 -0.9868 -0.3971  0.0116
  778MOL0     C 4913   3.115   7.094   6.051 -0.0457 -0.0199  0.5957
  778MOL0     C 4914   2.975   7.106   6.044  0.1788 -0.4516 -0.4177
  778MOL0     C 4915   2.903   7.188   5.940 -0.0274  0.4314 -0.4949
  778MOL0     C 4916   2.908   7.115   5.808  0.0633  0.6952 -0.8557
  778MOL0     C 4917   2.779   7.036   5.789  0.5250 -0.1552 -0.4083
  778MOL0     C 4918   2.651   7.110   5.747 -0.1693 -0.1390  0.0259
  778MOL0     O 4919   2.670   7.168   5.617 -0.1556 -0.0962  0.1777
  778MOL0     C 4920   2.567   7.230   5.565 -0.2111  0.2422  0.3410
  778MOL0     C 4921   2.437   7.218   5.614 -0.8252 -0.1945  0.8195
  778MOL0     C 4922   2.325   7.277   5.551  0.1260 -1.3188  0.7644
  778MOL0     C 4923   2.186   7.253   5.604 -0.0455  0.5153 -0.9341
  778MOL0     C 4924   2.355   7.362   5.440 -0.0067  0.2013  0.1993
  778MOL0     C 4925   2.257   7.444   5.357  0.8975  0.8698 -0.0981
  778MOL0     O 4926   2.284   7.479   5.231  0.0894  0.2193  0.1648
  778MOL0     C 4927   2.187   7.547   5.162  0.2698  0.6514 -0.3445
  778MOL0     C 4928   2.228   7.649   5.075  1.0955 -0.1656  0.0921
  778MOL0     C 4929   2.134   7.719   5.002 -0.7639  0.9028 -0.4901
  778MOL0     C 4930   1.995   7.693   5.018 -0.1034 -0.2105  1.2457
  778MOL0     O 4931   1.908   7.792   4.972 -0.3393 -0.2246 -0.0911
  778MOL0     C 4932   1.763   7.787   5.004  0.5702 -0.3744  0.4276
  778MOL0     C 4933   1.689   7.727   4.888  0.4313  0.4947  0.0467
  778MOL0     C 4934   1.724   7.586   4.847  0.8623 -0.0368 -0.6030
  778MOL0     C 4935   1.623   7.534   4.745 -0.0491  0.4646 -0.0867
  778MOL0     C 4936   1.668   7.399   4.688  0.2964  0.3974  0.1475
  778MOL0     C 4937   1.692   7.285   4.793  0.6276 -0.4036 -0.0855
  778MOL0     C 4938   1.574   7.272   4.898 -0.0454 -0.2320 -0.1925
  778MOL0     C 4939   1.576   7.137   4.970 -0.0502  0.3149 -0.2312
  778MOL0    Cl 4940   1.584   6.984   4.874 -0.2828  0.1079 -0.1840
  778MOL0     C 4941   1.955   7.585   5.091 -0.1595 -0.8011 -0.2630
  778MOL0     C 4942   2.054   7.512   5.165  0.1521  0.1021  0.1970
  778MOL0     O 4943   2.160   7.488   5.424  0.0478  0.6893  0.2054
  778MOL0     C 4944   2.489   7.369   5.388  0.1307  0.1546  0.6701
  778MOL0     C 4945   2.589   7.306   5.453 -0.9528  0.3834 -0.0335
  778MOL0     N 4946   2.919   7.046   6.167  0.1238  0.2639  1.1654
  778MOL0     N 4947   3.020   6.994   6.226 -0.0563  0.0424  0.4414
  778MOL0     C 4948   3.963   6.331   5.842  0.1900 -0.7244 -0.0329
  778MOL0     C 4949   4.042   6.319   5.734 -0.5233 -0.0176  0.3477
  778MOL0     C 4950   4.208   6.270   5.300 -0.3320 -0.9744  0.0888
  778MOL0     C 4951   4.254   6.172   5.210 -0.0311  0.5160 -0.5568
  778MOL0     C 4952   4.342   6.210   5.099 -0.3540 -0.8399 -0.4036
  778MOL0     C 4953   4.377   6.339   5.081 -0.5215 -0.5238 -0.3124
  778MOL0     O 4954   4.449   6.381   4.969 -0.1009  0.2935  0.2639
  778MOL0     C 4955   4.512   6.512   4.958  0.4859  0.1908 -1.0597
  778MOL0     C 4956   4.624   6.503   4.856  0.4967  0.0308  0.0694
  778MOL0     C 4957   4.691   6.633   4.841 -0.3240  0.2196  0.1288
  778MOL0     C 4958   4.817   6.624   4.763  0.1501 -0.0479  0.4502
  778MOL0     C 4959   4.813   6.547   4.645 -0.8558 -0.6871  0.2965
  778MOL0     C 4960   4.832   6.483   4.546  0.2329 -0.5921  0.7034
  778MOL0     C 4961   4.343   6.433   5.176  0.8438 -0.2606  0.5922
  778MOL0     C 4962   4.247   6.404   5.276 -1.1496  0.7198 -0.1342
  778MOL0     H 4963   3.825   6.364   5.473 -0.1043  2.2108  0.3710
  778MOL0     H 4964   3.674   6.358   5.657  0.9552 -1.2802 -2.2395
  778MOL0     H 4965   3.637   6.191   5.858  1.6881  1.1808 -1.7833
  778MOL0     H 4966   3.634   6.219   6.037  1.2285  3.7193  1.7088
  778MOL0     H 4967   3.521   6.438   5.853 -3.1513  1.0522  0.2842
  778MOL0     H 4968   3.418   6.294   5.877  0.8138 -3.4088  1.3522
  778MOL0     H 4969   3.440   6.326   6.125  1.5703 -0.5350 -0.3175
  778MOL0     H 4970   3.546   6.467   6.102  1.0839 -3.0267  1.9525
  778MOL0     H 4971   3.353   6.580   5.964  1.6385  0.5858  0.9477
  778MOL0     H 4972   3.248   6.468   6.030  0.2447  0.7025 -1.8677
  778MOL0     H 4973   3.285   6.547   6.252 -3.8581  1.5439 -0.9789
  778MOL0     H 4974   3.444   6.630   6.208 -0.3399  0.7020 -0.8161
  778MOL0     H 4975   3.171   6.721   6.103  1.9068  0.5002 -0.9797
  778MOL0     H 4976   3.209   6.751   6.267  1.2012 -0.4548  0.5279
  778MOL0     H 4977   3.445   6.850   6.150  0.2966  1.6892 -1.2619
  778MOL0     H 4978   3.319   6.872   6.019 -1.6113  1.1710 -0.4068
  778MOL0     H 4979   3.321   7.078   6.183 -1.0601  0.3449 -3.8134
  778MOL0     H 4980   3.288   6.944   6.303  1.4025 -0.1584  0.3461
  778MOL0     H 4981   3.182   7.141   5.980 -0.3124  1.4953  1.3045
  778MOL0     H 4982   2.800   7.189   5.976  0.5244 -1.5513  1.3916
  778MOL0     H 4983   2.943   7.289   5.936 -2.3190  1.3880 -0.3548
  778MOL0     H 4984   2.985   7.038   5.822  0.0177  0.8418  0.3238
  778MOL0     H 4985   2.936   7.183   5.727 -0.7506  1.6435 -0.3614
  778MOL0     H 4986   2.760   6.978   5.879 -1.5886  2.3868  0.9239
  778MOL0     H 4987   2.783   6.954   5.717 -0.5379 -1.2632  0.7464
  778MOL0     H 4988   2.636   7.195   5.815 -0.6508 -1.4030  1.5733
  778MOL0     H 4989   2.567   7.040   5.750  0.0913 -0.4881 -0.6928
  778MOL0     H 4990   2.411   7.155   5.698 -4.1300 -0.2115 -0.0802
  778MOL0     H 4991   2.193   7.161   5.661  1.5546  1.0309 -0.2319
  778MOL0     H 4992   2.150   7.335   5.667 -0.0114  1.0265 -1.5637
  778MOL0     H 4993   2.117   7.255   5.519  0.5629 -1.6703 -1.5431
  778MOL0     H 4994   2.335   7.667   5.077  1.3919 -1.7970  0.3397
  778MOL0     H 4995   2.161   7.805   4.941 -0.7423  0.5054 -1.0462
  778MOL0     H 4996   1.740   7.754   5.106  1.6594  0.9142  1.1218
  778MOL0     H 4997   1.729   7.891   5.016  0.5700 -0.5572  2.3528
  778MOL0     H 4998   1.583   7.728   4.914  0.2395  0.3386 -0.7137
  778MOL0     H 4999   1.694   7.792   4.801 -1.6677 -0.6675 -1.0359
  778MOL0     H 5000   1.702   7.523   4.934 -1.8472  2.0176  0.3249
  778MOL0     H 5001   1.825   7.578   4.805  0.5911 -2.7709 -0.9210
  778MOL0     H 5002   1.527   7.509   4.792 -1.2035  0.3605 -2.3802
  778MOL0     H 5003   1.603   7.614   4.674  1.2114  0.9898  0.1213
  778MOL0     H 5004   1.753   7.406   4.619  2.3148 -0.4339  2.4207
  778MOL0     H 5005   1.585   7.367   4.625 -0.5040  0.2196  1.2765
  778MOL0     H 5006   1.682   7.187   4.744  0.2591 -0.6952  0.5504
  778MOL0     H 5007   1.787   7.291   4.846  1.7479 -1.7076 -1.8672
  778MOL0     H 5008   1.478   7.275   4.845  0.9604 -0.8100 -2.1443
  778MOL0     H 5009   1.579   7.347   4.978 -0.4594 -1.4252  1.0034
  778MOL0     H 5010   1.490   7.134   5.037 -0.7865 -1.6561 -1.1856
  778MOL0     H 5011   1.664   7.142   5.036 -2.0797  1.4411  2.5686
  778MOL0     H 5012   1.850   7.557   5.102 -0.4134  0.1382 -0.2526
  778MOL0     H 5013   2.014   7.430   5.225 -0.0622  0.0794  0.0253
  778MOL0     H 5014   2.502   7.436   5.303 -1.5538  0.2660  0.4621
  778MOL0     H 5015   2.691   7.316   5.416 -1.3150 -0.3099 -1.2576
  778MOL0     H 5016   4.004   6.334   5.942  0.0390 -2.7039  0.1188
  778MOL0     H 5017   4.138   6.273   5.755 -0.3656 -0.3879 -1.1078
  778MOL0     H 5018   4.227   6.068   5.217  2.2721 -0.4450 -3.5421
  778MOL0     H 5019   4.381   6.141   5.025  2.0238 -0.0065 -0.0004
  778MOL0     H 5020   4.445   6.595   4.933 -0.9587 -0.3159  0.8935
  778MOL0     H 5021   4.558   6.545   5.052 -1.2788  3.0138 -1.0666
  778MOL0     H 5022   4.578   6.481   4.760  2.7314 -1.6446 -0.6987
  778MOL0     H 5023   4.693   6.424   4.887  2.7219  2.1817  0.9519
  778MOL0     H 5024   4.723   6.667   4.940 -0.6749 -1.6502  0.9240
  778MOL0     H 5025   4.626   6.710   4.799  1.1899 -0.4050 -3.7322
  778MOL0     H 5026   4.889   6.579   4.833 -0.4769 -1.8029 -0.0053
  778MOL0     H 5027   4.848   6.726   4.737 -0.6255  0.1403  0.2453
  778MOL0     H 5028   4.866   6.421   4.466 -0.5986 -0.4762  0.2495
  778MOL0     H 5029   4.393   6.529   5.177 -0.6640  0.5531  1.1658
  778MOL0     H 5030   4.217   6.477   5.350 -1.8916 -0.0724  0.3749
  779MOL0     O 5031   7.814   7.308   9.203  0.0289  0.4944  0.7975
  779MOL0     C 5032   7.829   7.187   9.173 -0.3322  0.1951 -0.6397
  779MOL0     O 5033   7.725   7.097   9.159  0.0120 -0.0210 -0.5838
  779MOL0     C 5034   7.593   7.117   9.197 -0.8163 -0.4366 -0.1857
  779MOL0     C 5035   7.510   7.003   9.197 -0.8212  0.1417  0.1137
  779MOL0     C 5036   7.371   7.008   9.239  0.6388 -0.0562  0.1079
  779MOL0     C 5037   7.313   7.133   9.266  0.1214 -0.1839  0.2876
  779MOL0     O 5038   7.178   7.154   9.267  0.0052  0.5912 -0.4829
  779MOL0     C 5039   7.086   7.075   9.344 -0.1502 -0.5762 -0.4940
  779MOL0     C 5040   6.948   7.148   9.358  0.5424 -0.0539 -0.1468
  779MOL0     C 5041   6.926   7.234   9.235 -0.8467  0.0813  0.3189
  779MOL0     C 5042   6.779   7.255   9.216  0.3217  0.1694  0.8492
  779MOL0     C 5043   6.755   7.362   9.110  0.0333  0.1030 -0.0659
  779MOL0     C 5044   6.611   7.413   9.131 -0.5030  0.0326 -0.3191
  779MOL0     C 5045   6.586   7.541   9.045 -0.1937 -0.0772 -0.6014
  779MOL0     C 5046   6.439   7.553   9.009  0.7295  0.4819  0.0688
  779MOL0     N 5047   6.394   7.465   8.899  1.0572  1.0130 -1.1205
  779MOL0     C 5048   6.412   7.484   8.761  0.0920  0.0471  0.3970
  779MOL0     C 5049   6.346   7.383   8.701  0.1065 -0.6875 -0.4541
  779MOL0     C 5050   6.338   7.362   8.552 -0.2895  0.4377  0.7343
  779MOL0     C 5051   6.340   7.207   8.518  0.1492 -1.1426 -0.2216
  779MOL0     C 5052   6.209   7.145   8.545 -0.2443 -0.0730 -0.2102
  779MOL0     C 5053   6.215   6.995   8.533  0.6697  0.1493  1.1166
  779MOL0     O 5054   6.237   6.952   8.394 -0.2896 -0.4890  0.6542
  779MOL0     C 5055   6.134   6.945   8.296 -0.5629  1.0198  0.1107
  779MOL0     C 5056   6.153   6.856   8.185  1.0506  0.2296 -0.4301
  779MOL0     C 5057   6.060   6.831   8.083  0.7070 -0.7670 -0.1370
  779MOL0     C 5058   6.112   6.738   7.979  0.8609  0.3658 -0.5324
  779MOL0     C 5059   5.934   6.902   8.089 -0.0715  0.3121  0.8892
  779MOL0     C 5060   5.832   6.893   7.973 -0.4500  0.4613  0.5157
  779MOL0     O 5061   5.738   6.990   7.979 -0.0494  0.2408 -0.0966
  779MOL0     C 5062   5.629   7.000   7.895 -0.2422  0.9053  0.1334
  779MOL0     C 5063   5.533   7.084   7.939 -0.0524  0.5574 -0.8036
  779MOL0     C 5064   5.411   7.108   7.870  0.7696  0.1896 -0.2249
  779MOL0     C 5065   5.388   7.038   7.753 -0.3988 -0.3139 -0.2731
  779MOL0     O 5066   5.266   7.036   7.686 -0.4841  0.0685 -0.9037
  779MOL0     C 5067   5.153   7.024   7.774 -0.0396  0.0630 -0.2362
  779MOL0     C 5068   5.043   6.943   7.693 -0.8518  1.0713 -0.3663
  779MOL0     C 5069   4.910   6.947   7.764 -0.6434  0.4275  0.0286
  779MOL0     C 5070   4.837   7.077   7.748  0.0072 -0.6483 -0.3083
  779MOL0     C 5071   4.720   7.104   7.853  1.0316  0.3241 -0.6123
  779MOL0     C 5072   4.654   7.242   7.812  0.1415  0.3472  0.2505
  779MOL0     C 5073   4.552   7.302   7.915  0.3721 -0.3355  0.2853
  779MOL0     C 5074   4.498   7.431   7.856  0.6015  0.6228 -0.1488
  779MOL0    Cl 5075   4.627   7.543   7.813  0.2739  0.1738  0.2419
  779MOL0     C 5076   5.492   6.955   7.700 -1.1159  0.1359 -0.7459
  779MOL0     C 5077   5.612   6.939   7.769 -0.1831  0.5333  0.1565
  779MOL0     O 5078   5.833   6.801   7.895  0.6633  0.6685  0.1999
  779MOL0     C 5079   5.907   6.984   8.206  0.3824  0.2224 -0.3217
  779MOL0     C 5080   6.004   6.994   8.306 -0.1104 -0.4175  0.0022
  779MOL0     N 5081   6.318   7.297   8.808  0.0563  0.0885 -0.0080
  779MOL0     N 5082   6.348   7.342   8.921  0.0172 -0.3560  0.3356
  779MOL0     C 5083   7.385   7.246   9.270 -1.0441  0.0288  0.6351
  779MOL0     C 5084   7.525   7.233   9.235  1.5667 -1.3240  0.3096
  779MOL0     C 5085   7.962   7.139   9.121 -0.6269  0.0804  0.7956
  779MOL0     C 5086   8.072   7.235   9.132  0.0300  0.5061 -0.2368
  779MOL0     C 5087   8.195   7.196   9.094  0.1565  0.1773  0.2104
  779MOL0     C 5088   8.226   7.059   9.077  0.2560 -0.4420  0.5154
  779MOL0     O 5089   8.349   7.008   9.040 -0.8239  0.5786  0.3819
  779MOL0     C 5090   8.459   7.091   9.024  0.1797 -0.4130 -0.2223
  779MOL0     C 5091   8.551   7.007   8.941 -0.0875 -0.9836 -0.6185
  779MOL0     C 5092   8.669   7.105   8.901  0.0844 -0.5393  0.8448
  779MOL0     C 5093   8.769   7.044   8.814 -0.1054  0.5659 -0.8554
  779MOL0     C 5094   8.902   7.086   8.854 -1.1051  0.6797 -0.7281
  779MOL0     C 5095   9.016   7.120   8.868 -0.6592 -0.1412  0.4177
  779MOL0     C 5096   8.126   6.963   9.065 -0.4081 -0.5525 -1.4138
  779MOL0     C 5097   7.995   7.006   9.090  0.4469 -0.4400  0.1302
  779MOL0     H 5098   7.565   6.913   9.173  1.2011  1.9232 -2.6152
  779MOL0     H 5099   7.303   6.923   9.246 -1.9140  1.9638  2.0816
  779MOL0     H 5100   7.072   6.980   9.291  0.1289 -0.0938 -1.4475
  779MOL0     H 5101   7.136   7.067   9.441 -0.0575 -1.2025 -0.5847
  779MOL0     H 5102   6.868   7.073   9.360  1.3721 -1.0757 -2.2883
  779MOL0     H 5103   6.944   7.208   9.449  0.0189 -2.2220  1.3299
  779MOL0     H 5104   6.976   7.331   9.238 -2.6818  1.0380  2.1061
  779MOL0     H 5105   6.963   7.178   9.148  1.8565  2.7449 -0.4185
  779MOL0     H 5106   6.731   7.161   9.186 -1.6170  1.0745  0.9590
  779MOL0     H 5107   6.731   7.298   9.305  2.6684  3.7236  0.5769
  779MOL0     H 5108   6.823   7.447   9.121  0.8156 -0.6714  1.4178
  779MOL0     H 5109   6.771   7.339   9.005 -0.8845  2.3753 -0.7596
  779MOL0     H 5110   6.537   7.336   9.110  1.4457 -2.9514  2.7744
  779MOL0     H 5111   6.598   7.428   9.238  2.7243 -0.4666  0.2436
  779MOL0     H 5112   6.620   7.629   9.100 -0.5552  0.3170 -0.9988
  779MOL0     H 5113   6.641   7.536   8.950 -1.4477  0.7681 -1.4095
  779MOL0     H 5114   6.416   7.654   8.974 -0.4684  0.2105  0.0327
  779MOL0     H 5115   6.374   7.543   9.097 -0.0035  1.8804 -0.2840
  779MOL0     H 5116   6.469   7.562   8.712  1.2820 -0.6158  0.7025
  779MOL0     H 5117   6.242   7.402   8.515 -1.0811 -1.1294  1.0360
  779MOL0     H 5118   6.424   7.410   8.504  1.3418 -1.3215  1.7814
  779MOL0     H 5119   6.413   7.162   8.586  0.7512  0.4420  0.2364
  779MOL0     H 5120   6.356   7.193   8.411 -4.8088  0.1113 -1.3947
  779MOL0     H 5121   6.130   7.181   8.478  0.4867 -1.3122 -1.8172
  779MOL0     H 5122   6.182   7.159   8.650  0.3900 -0.2442 -0.0210
  779MOL0     H 5123   6.121   6.954   8.570  1.0841  0.7594  2.9549
  779MOL0     H 5124   6.297   6.953   8.592  0.8679 -4.3736 -1.8483
  779MOL0     H 5125   6.251   6.809   8.181  1.4114  0.8118  0.9005
  779MOL0     H 5126   6.212   6.699   8.000 -0.1979 -1.6064  1.2289
  779MOL0     H 5127   6.044   6.655   7.959 -0.3686  0.9369  1.0027
  779MOL0     H 5128   6.116   6.801   7.891 -0.8367  0.5119 -0.5489
  779MOL0     H 5129   5.542   7.141   8.031 -0.1563 -0.8108  0.0861
  779MOL0     H 5130   5.333   7.168   7.915  1.3895 -0.4440  1.8020
  779MOL0     H 5131   5.189   6.972   7.863  0.7521  0.5094 -0.2867
  779MOL0     H 5132   5.120   7.123   7.808  0.1825 -0.1309  0.5601
  779MOL0     H 5133   5.047   6.982   7.590  4.7378  1.8078 -0.2003
  779MOL0     H 5134   5.071   6.838   7.687  1.0582  1.2764  2.8659
  779MOL0     H 5135   4.930   6.927   7.870 -3.8828  4.9840  1.7737
  779MOL0     H 5136   4.845   6.867   7.728  0.0657 -1.3511  2.3984
  779MOL0     H 5137   4.899   7.167   7.748 -3.2179  1.7732  0.8185
  779MOL0     H 5138   4.779   7.071   7.655  1.5224  0.2615 -1.3615
  779MOL0     H 5139   4.767   7.122   7.950 -1.2931 -0.8344  0.8131
  779MOL0     H 5140   4.649   7.022   7.865  0.1833  1.2623  1.0148
  779MOL0     H 5141   4.739   7.310   7.798  0.8360 -0.6457 -0.4342
  779MOL0     H 5142   4.600   7.237   7.717  0.0513  2.5035  0.1226
  779MOL0     H 5143   4.596   7.339   8.008  1.1308 -1.2262  0.2847
  779MOL0     H 5144   4.469   7.231   7.918  0.7257 -0.9172 -1.7649
  779MOL0     H 5145   4.421   7.467   7.925 -0.3117 -1.9787  0.3222
  779MOL0     H 5146   4.428   7.410   7.775  1.1006 -0.6507 -0.2885
  779MOL0     H 5147   5.484   6.895   7.610  2.5488 -1.7868 -0.0115
  779MOL0     H 5148   5.695   6.884   7.727  0.3047  0.9095  0.6007
  779MOL0     H 5149   5.815   7.039   8.225  1.6114  1.4068  2.8358
  779MOL0     H 5150   5.978   7.056   8.391  1.6579 -0.6137  0.7308
  779MOL0     H 5151   7.349   7.342   9.304  2.2683  2.3010 -1.5766
  779MOL0     H 5152   7.579   7.327   9.246 -1.1210 -0.0123  4.5120
  779MOL0     H 5153   8.060   7.336   9.170 -1.8313  0.3733 -0.4109
  779MOL0     H 5154   8.272   7.272   9.098 -1.2997  1.7450 -0.1789
  779MOL0     H 5155   8.442   7.180   8.963 -1.1825 -0.7775 -0.3955
  779MOL0     H 5156   8.500   7.119   9.122 -0.1927 -0.9635  0.0915
  779MOL0     H 5157   8.495   6.972   8.854 -0.3530  0.4860 -1.0628
  779MOL0     H 5158   8.590   6.919   8.995  0.5331  0.9490  2.3260
  779MOL0     H 5159   8.706   7.136   9.000 -0.5591 -1.8834  1.5308
  779MOL0     H 5160   8.642   7.195   8.846  0.4843 -0.7719  0.2562
  779MOL0     H 5161   8.770   7.088   8.713 -1.6212  4.7205  0.7294
  779MOL0     H 5162   8.775   6.935   8.811  1.1946  0.4437  2.4835
  779MOL0     H 5163   9.104   7.176   8.848 -0.3641 -0.9482 -0.6656
  779MOL0     H 5164   8.139   6.858   9.038 -1.3902 -0.6561 -1.5175
  779MOL0     H 5165   7.915   6.933   9.089  1.3824 -1.5130 -0.9988
  780MOL0     O 5166   6.645   5.041   1.894 -0.5689 -0.2787  0.5814
  780MOL0     C 5167   6.677   5.037   1.776 -0.1186  0.4693 -0.2245
  780MOL0     O 5168   6.591   5.021   1.671  0.2081 -0.1726  0.2837
  780MOL0     C 5169   6.457   5.052   1.689 -0.1947  0.7666  0.8669
  780MOL0     C 5170   6.362   4.991   1.603  0.7642  0.6431  0.0137
  780MOL0     C 5171   6.223   5.006   1.613  0.3355  0.2552 -0.4407
  780MOL0     C 5172   6.166   5.089   1.715 -0.8426  0.7886 -0.0046
  780MOL0     O 5173   6.034   5.096   1.755  0.3604 -0.5550 -1.0418
  780MOL0     C 5174   5.937   5.099   1.653  0.0300 -0.4968 -0.2606
  780MOL0     C 5175   5.853   5.223   1.665  0.6011  0.2409  0.0210
  780MOL0     C 5176   5.770   5.227   1.781  0.4780 -0.7769  0.3719
  780MOL0     C 5177   5.698   5.367   1.822 -0.9746 -0.5825 -0.4107
  780MOL0     C 5178   5.606   5.346   1.949  0.1777  0.4174 -0.4472
  780MOL0     C 5179   5.542   5.478   1.993  0.6183  0.5074 -0.5547
  780MOL0     C 5180   5.468   5.454   2.126 -0.0812  0.1563 -0.1291
  780MOL0     C 5181   5.570   5.455   2.245 -0.4217  0.2277  0.9536
  780MOL0     N 5182   5.482   5.491   2.357 -0.4106  0.5458 -0.2890
  780MOL0     C 5183   5.384   5.405   2.416  0.2226 -0.3952 -0.1208
  780MOL0     C 5184   5.342   5.477   2.529 -0.2863  0.8110 -0.4584
  780MOL0     C 5185   5.216   5.461   2.611 -0.0426 -0.2026  0.0147
  780MOL0     C 5186   5.094   5.539   2.548 -0.0946  0.0091 -0.3081
  780MOL0     C 5187   5.041   5.451   2.427  0.4156 -0.8043 -0.9361
  780MOL0     C 5188   4.887   5.460   2.410  0.5349  0.1747 -0.0365
  780MOL0     O 5189   4.860   5.598   2.393 -0.3464  0.3086 -0.3830
  780MOL0     C 5190   4.732   5.627   2.382 -0.5461 -0.6643  0.3312
  780MOL0     C 5191   4.674   5.664   2.260 -0.2254  0.1768  0.5256
  780MOL0     C 5192   4.540   5.703   2.254  0.8357  0.2076  0.2867
  780MOL0     C 5193   4.489   5.748   2.119 -0.7435  0.4156 -0.7519
  780MOL0     C 5194   4.462   5.699   2.375 -0.6957  0.3960  0.2257
  780MOL0     C 5195   4.321   5.722   2.379  0.3005  0.5933  0.5452
  780MOL0     O 5196   4.274   5.786   2.490  0.2018 -0.6442 -0.0097
  780MOL0     C 5197   4.157   5.865   2.479 -0.1556 -0.3492  0.3224
  780MOL0     C 5198   4.072   5.874   2.592  0.2663 -0.1907 -0.3090
  780MOL0     C 5199   3.957   5.960   2.606 -0.2691  0.3039  0.7525
  780MOL0     C 5200   3.927   6.023   2.490 -0.3886  0.3512 -0.2510
  780MOL0     O 5201   3.823   6.103   2.463 -0.0462  0.3251 -0.0327
  780MOL0     C 5202   3.723   6.102   2.571 -0.2700  0.3097  0.7442
  780MOL0     C 5203   3.588   6.161   2.520 -1.1907 -0.6702  0.4499
  780MOL0     C 5204   3.543   6.079   2.394  0.2493 -0.4132 -0.2897
  780MOL0     C 5205   3.490   6.171   2.286  0.4617 -0.5824  1.1639
  780MOL0     C 5206   3.423   6.119   2.157  0.3370  0.7223 -0.9189
  780MOL0     C 5207   3.320   6.007   2.201  0.0714  0.6082 -0.8877
  780MOL0     C 5208   3.223   5.962   2.089 -0.3272  1.1106 -1.0225
  780MOL0     C 5209   3.124   5.853   2.136  0.4996  0.3092 -0.1601
  780MOL0    Cl 5210   3.023   5.785   2.011 -0.2960 -0.2231  0.0956
  780MOL0     C 5211   4.009   6.009   2.379  0.2566 -0.3522  0.2955
  780MOL0     C 5212   4.132   5.949   2.377  0.2522  0.0404 -0.0763
  780MOL0     O 5213   4.252   5.701   2.276  0.6560  0.0480 -0.5294
  780MOL0     C 5214   4.522   5.654   2.501 -0.3378  0.1446 -0.1736
  780MOL0     C 5215   4.658   5.619   2.501 -0.1329 -0.3721 -0.4718
  780MOL0     N 5216   5.417   5.593   2.528  0.3700  0.5779 -0.4743
  780MOL0     N 5217   5.496   5.598   2.435  0.0284  0.6715  0.0985
  780MOL0     C 5218   6.263   5.153   1.796  0.3687 -0.0160 -0.2057
  780MOL0     C 5219   6.402   5.138   1.778  0.6657 -0.1169 -0.0797
  780MOL0     C 5220   6.818   5.058   1.746 -0.3940 -0.1758  0.0158
  780MOL0     C 5221   6.918   5.030   1.837  0.3170 -0.7412 -0.2190
  780MOL0     C 5222   7.051   5.039   1.794  0.3336  1.4153  0.4001
  780MOL0     C 5223   7.091   5.063   1.661 -0.1449  1.1252  0.0602
  780MOL0     O 5224   7.226   5.045   1.629  0.9492 -0.2661 -0.7245
  780MOL0     C 5225   7.254   5.001   1.498  0.2018  0.3468  0.1289
  780MOL0     C 5226   7.394   5.047   1.438 -0.1877 -0.6907 -0.6732
  780MOL0     C 5227   7.388   5.052   1.279  0.1615  0.4729  1.1263
  780MOL0     C 5228   7.496   5.151   1.216  0.8593 -0.8438  0.7256
  780MOL0     C 5229   7.626   5.097   1.200  0.1476 -0.8058 -1.0953
  780MOL0     C 5230   7.740   5.064   1.182 -0.1534 -1.1556  0.4076
  780MOL0     C 5231   6.999   5.100   1.573 -0.3341 -0.7370 -0.1260
  780MOL0     C 5232   6.861   5.100   1.616 -0.6783  0.5409 -0.3472
  780MOL0     H 5233   6.400   4.918   1.532 -1.3923 -0.9439  0.3702
  780MOL0     H 5234   6.157   4.937   1.560 -0.8702  1.3388 -0.3929
  780MOL0     H 5235   5.976   5.086   1.552  1.2773 -0.8747  0.2600
  780MOL0     H 5236   5.882   5.007   1.674  1.5707 -1.2711  0.5109
  780MOL0     H 5237   5.924   5.307   1.665 -0.1560  0.8879  0.4002
  780MOL0     H 5238   5.794   5.228   1.573 -0.1950  1.5545  0.5872
  780MOL0     H 5239   5.689   5.155   1.767 -3.3017  2.5433  2.9025
  780MOL0     H 5240   5.835   5.204   1.866 -2.5377 -0.6870  2.8992
  780MOL0     H 5241   5.769   5.444   1.853 -1.0673 -0.8303  0.4514
  780MOL0     H 5242   5.643   5.412   1.740  0.9066 -0.2111 -1.5216
  780MOL0     H 5243   5.526   5.279   1.916 -0.7810  1.7870 -0.9772
  780MOL0     H 5244   5.670   5.291   2.019  0.0863  0.2584 -0.4881
  780MOL0     H 5245   5.619   5.555   1.999  1.7676 -0.4062 -2.6008
  780MOL0     H 5246   5.474   5.515   1.916  0.0761  1.9387  0.5737
  780MOL0     H 5247   5.400   5.538   2.138 -0.3561  0.1310 -1.4247
  780MOL0     H 5248   5.413   5.359   2.131 -0.9284  0.6124 -0.7058
  780MOL0     H 5249   5.650   5.530   2.240 -1.3932  1.6718  4.3284
  780MOL0     H 5250   5.607   5.353   2.260 -1.7059 -0.3102  0.6135
  780MOL0     H 5251   5.350   5.310   2.377  1.5954 -0.8978 -0.1431
  780MOL0     H 5252   5.184   5.357   2.625  4.5778 -1.8390  0.3410
  780MOL0     H 5253   5.228   5.495   2.714  0.1211 -0.2423  0.0098
  780MOL0     H 5254   5.130   5.640   2.529  1.5319 -0.5984 -0.6444
  780MOL0     H 5255   5.015   5.539   2.624 -0.3333  2.7163 -0.4522
  780MOL0     H 5256   5.070   5.346   2.438 -2.6557 -1.6761  0.0608
  780MOL0     H 5257   5.094   5.490   2.340  0.9512  0.5375 -0.0349
  780MOL0     H 5258   4.835   5.405   2.489 -1.2915 -1.4974 -2.2603
  780MOL0     H 5259   4.852   5.410   2.319 -1.0792 -1.5268  1.4570
  780MOL0     H 5260   4.727   5.659   2.165 -1.1071  0.0884  0.0229
  780MOL0     H 5261   4.450   5.669   2.054 -2.1368  1.7193 -1.5696
  780MOL0     H 5262   4.407   5.815   2.147 -0.3071  0.3582  0.7700
  780MOL0     H 5263   4.564   5.800   2.060 -0.8956  0.6879 -0.7105
  780MOL0     H 5264   4.091   5.799   2.668  0.7066 -0.6812 -0.8923
  780MOL0     H 5265   3.894   5.957   2.695  1.0156 -0.3580  1.6799
  780MOL0     H 5266   3.707   6.002   2.613 -0.2284 -1.8663 -3.8329
  780MOL0     H 5267   3.751   6.167   2.655  2.0990  0.8802 -0.4107
  780MOL0     H 5268   3.514   6.148   2.599 -0.0816 -0.8871  1.4807
  780MOL0     H 5269   3.604   6.267   2.499 -2.2467 -0.5081  0.3875
  780MOL0     H 5270   3.468   6.010   2.434 -0.2263  0.3974  0.2449
  780MOL0     H 5271   3.623   6.019   2.351  0.0655  0.2878 -1.6771
  780MOL0     H 5272   3.411   6.236   2.326 -1.6013 -1.9693 -0.4371
  780MOL0     H 5273   3.576   6.226   2.248  0.5020 -2.1370 -1.2043
  780MOL0     H 5274   3.489   6.069   2.085 -2.5863  0.2665 -3.4925
  780MOL0     H 5275   3.371   6.197   2.101 -1.7962  0.1016  0.1111
  780MOL0     H 5276   3.383   5.922   2.229 -0.6977  0.2226 -0.2774
  780MOL0     H 5277   3.264   6.035   2.291 -0.7402 -3.2218 -0.0229
  780MOL0     H 5278   3.283   5.921   2.006  1.9709  0.2410  0.9345
  780MOL0     H 5279   3.170   6.047   2.045 -3.3131 -0.1808 -0.1549
  780MOL0     H 5280   3.068   5.901   2.217  0.5918  0.3293 -0.1080
  780MOL0     H 5281   3.188   5.780   2.186 -0.7960  0.2673  1.5077
  780MOL0     H 5282   3.970   6.065   2.295  1.9314  1.7994  0.8421
  780MOL0     H 5283   4.192   5.951   2.286  2.5075 -1.3613  1.2809
  780MOL0     H 5284   4.472   5.639   2.596  2.1474 -2.1954  0.8953
  780MOL0     H 5285   4.696   5.578   2.593  0.0911 -2.0021 -1.2520
  780MOL0     H 5286   6.216   5.197   1.883  0.1297 -0.1314 -0.2751
  780MOL0     H 5287   6.462   5.193   1.850  0.8349  2.6960 -2.2038
  780MOL0     H 5288   6.892   4.991   1.935  0.1515 -0.6596 -0.2305
  780MOL0     H 5289   7.124   5.008   1.869  0.8325  1.6803  0.0263
  780MOL0     H 5290   7.246   4.892   1.493 -1.9723  0.2147  3.6510
  780MOL0     H 5291   7.187   5.045   1.424 -0.3243 -0.6945 -0.0213
  780MOL0     H 5292   7.474   4.979   1.468 -0.7198 -0.8602  0.4370
  780MOL0     H 5293   7.423   5.143   1.482  1.0461  0.6835 -4.1372
  780MOL0     H 5294   7.289   5.077   1.240 -0.4816 -4.1434 -0.9652
  780MOL0     H 5295   7.417   4.957   1.233 -0.8086  0.3168  0.8171
  780MOL0     H 5296   7.494   5.252   1.258 -1.8747 -1.1877  1.6521
  780MOL0     H 5297   7.463   5.180   1.116  1.0282 -0.1955  0.8497
  780MOL0     H 5298   7.835   5.016   1.172 -0.3713 -2.1575  2.5191
  780MOL0     H 5299   7.026   5.142   1.476  0.9597  1.9459  1.2833
  780MOL0     H 5300   6.789   5.131   1.541  2.1748  3.1672 -2.3081
  781MOL0     O 5301   1.564  10.683   7.788  0.4538  0.4580 -0.4842
  781MOL0     C 5302   1.574  10.775   7.872  0.4982 -0.4955  0.9547
  781MOL0     O 5303   1.476  10.872   7.895 -1.1607 -0.4772 -0.2096
  781MOL0     C 5304   1.340  10.865   7.864 -0.9080  0.2869 -0.2788
  781MOL0     C 5305   1.272  10.983   7.884  0.5598  0.8381 -0.4604
  781MOL0     C 5306   1.139  10.996   7.842 -0.4244 -0.8042 -0.4184
  781MOL0     C 5307   1.060  10.895   7.793 -0.4634 -0.6042 -0.1205
  781MOL0     O 5308   0.925  10.896   7.768  0.1929 -0.1286 -0.3126
  781MOL0     C 5309   0.865  11.028   7.762  0.0164  0.6603  0.1551
  781MOL0     C 5310   0.740  11.037   7.673  0.0060 -0.7427  0.4247
  781MOL0     C 5311   0.619  10.989   7.745  0.0409  0.4988 -0.1466
  781MOL0     C 5312   0.505  10.993   7.650  0.4092  0.3960 -0.1623
  781MOL0     C 5313   0.434  11.134   7.640 -0.2279 -0.4315 -0.5217
  781MOL0     C 5314   0.330  11.153   7.741 -0.0658 -0.0419  0.1167
  781MOL0     C 5315   0.231  11.268   7.707  0.1206 -0.7964  0.9184
  781MOL0     C 5316   0.134  11.292   7.826 -0.7709  0.3922 -0.0692
  781MOL0     N 5317   0.021  11.373   7.799 -0.2841  0.3891 -0.2621
  781MOL0     C 5318  -0.079  11.349   7.713  0.4809 -0.1479 -0.5396
  781MOL0     C 5319  -0.181  11.430   7.741 -0.0610 -0.8215 -0.9868
  781MOL0     C 5320  -0.315  11.412   7.676 -0.7904  0.0372  0.7535
  781MOL0     C 5321  -0.420  11.526   7.702 -0.2597  0.6056 -0.0343
  781MOL0     C 5322  -0.491  11.479   7.827  0.7923 -0.2135 -0.5366
  781MOL0     C 5323  -0.569  11.595   7.881  0.6887 -0.9474  0.1025
  781MOL0     O 5324  -0.678  11.642   7.791  0.3510 -0.0682  0.1745
  781MOL0     C 5325  -0.812  11.617   7.820 -0.0197 -0.2175  0.6111
  781MOL0     C 5326  -0.868  11.499   7.807 -0.4982 -0.0720 -0.8152
  781MOL0     C 5327  -1.002  11.477   7.835 -0.1579 -0.2594  0.7274
  781MOL0     C 5328  -1.049  11.334   7.815 -0.0928  1.2454 -0.3369
  781MOL0     C 5329  -1.094  11.584   7.874 -0.2827 -1.0339 -0.0694
  781MOL0     C 5330  -1.241  11.576   7.881 -0.1228  0.0805 -0.0991
  781MOL0     O 5331  -1.318  11.692   7.908 -0.2444 -0.0523 -0.0989
  781MOL0     C 5332  -1.451  11.691   7.863  0.3949  0.0524 -0.0358
  781MOL0     C 5333  -1.528  11.796   7.931 -0.4837  1.0948  0.8348
  781MOL0     C 5334  -1.659  11.817   7.905  0.7836 -0.5208  0.7784
  781MOL0     C 5335  -1.727  11.732   7.812 -0.0137 -0.2280 -0.2207
  781MOL0     O 5336  -1.857  11.769   7.800  0.5843  0.8035 -0.5959
  781MOL0     C 5337  -1.944  11.695   7.707  0.4093  0.9830 -0.7483
  781MOL0     C 5338  -2.065  11.639   7.779 -0.1633 -0.0495  0.1642
  781MOL0     C 5339  -2.161  11.759   7.796 -0.7720  0.8217 -0.3664
  781MOL0     C 5340  -2.275  11.747   7.894 -0.0342  0.5051  0.1229
  781MOL0     C 5341  -2.376  11.856   7.883 -0.0185  0.0183 -0.3371
  781MOL0     C 5342  -2.497  11.837   7.985 -0.0835 -0.1069 -0.1842
  781MOL0     C 5343  -2.587  11.957   7.973 -0.1434 -0.6661 -0.1159
  781MOL0     C 5344  -2.711  11.931   8.056 -0.0192 -0.5357  0.9483
  781MOL0    Cl 5345  -2.830  12.069   8.058 -0.2049 -0.1395 -0.2091
  781MOL0     C 5346  -1.650  11.634   7.742 -0.4655 -0.5606  0.6026
  781MOL0     C 5347  -1.517  11.618   7.765 -0.0072 -0.0561 -0.0765
  781MOL0     O 5348  -1.290  11.465   7.880 -1.4322  0.4918  0.7595
  781MOL0     C 5349  -1.030  11.703   7.898  0.0453  0.0418 -0.6840
  781MOL0     C 5350  -0.899  11.720   7.872  0.1227  0.5438 -0.0535
  781MOL0     N 5351  -0.140  11.516   7.844 -0.6729  0.0379  0.0916
  781MOL0     N 5352  -0.023  11.473   7.882  0.4895 -0.1616  0.5728
  781MOL0     C 5353   1.130  10.772   7.773  0.2446  0.1124  0.6725
  781MOL0     C 5354   1.269  10.757   7.809 -0.2603 -0.4898 -0.3462
  781MOL0     C 5355   1.711  10.802   7.926 -0.4406 -0.7228  0.0106
  781MOL0     C 5356   1.820  10.707   7.918  0.6138 -0.3297  0.3690
  781MOL0     C 5357   1.939  10.716   7.996 -0.0617 -0.2780  0.0739
  781MOL0     C 5358   1.962  10.831   8.071  0.1238  0.4847  0.3911
  781MOL0     O 5359   2.083  10.855   8.130  0.3381 -0.2624  0.2747
  781MOL0     C 5360   2.169  10.744   8.165  0.5217 -0.0860 -0.4761
  781MOL0     C 5361   2.278  10.805   8.254 -0.8426  0.8174 -0.4577
  781MOL0     C 5362   2.230  10.853   8.397 -0.4741  0.1772  0.1006
  781MOL0     C 5363   2.343  10.924   8.467 -0.4127 -0.0244  0.8942
  781MOL0     C 5364   2.366  11.050   8.403  0.4224  0.7289 -0.3262
  781MOL0     C 5365   2.399  11.154   8.345  0.0458  0.4555 -0.0311
  781MOL0     C 5366   1.860  10.938   8.058 -0.1292  0.1070  0.1161
  781MOL0     C 5367   1.737  10.925   7.992  0.4068  0.3751 -0.7505
  781MOL0     H 5368   1.330  11.057   7.937  1.2370 -0.9039  1.3150
  781MOL0     H 5369   1.094  11.093   7.862  0.4294 -0.0337 -2.0193
  781MOL0     H 5370   0.846  11.062   7.865 -0.5599  1.8859 -0.3414
  781MOL0     H 5371   0.932  11.106   7.724  0.4695 -0.3139 -1.1117
  781MOL0     H 5372   0.736  11.144   7.650  2.1491 -0.6713  0.2034
  781MOL0     H 5373   0.755  10.977   7.584 -0.3092 -2.4561  1.4807
  781MOL0     H 5374   0.633  10.892   7.793  1.2856 -0.0191 -1.5096
  781MOL0     H 5375   0.593  11.061   7.823 -0.1541  0.2659  0.0048
  781MOL0     H 5376   0.536  10.952   7.554  4.8605 -0.1899  1.2838
  781MOL0     H 5377   0.432  10.924   7.695  0.1150  0.3850 -0.6498
  781MOL0     H 5378   0.504  11.218   7.628 -0.5601 -0.4103 -2.8041
  781MOL0     H 5379   0.380  11.149   7.546  0.3102 -0.8224 -0.9090
  781MOL0     H 5380   0.269  11.064   7.758  0.2563  0.1670  2.8303
  781MOL0     H 5381   0.382  11.185   7.832 -1.1692  0.8706  0.4508
  781MOL0     H 5382   0.291  11.357   7.687 -2.0804 -0.0170 -3.3535
  781MOL0     H 5383   0.186  11.248   7.609 -0.3811 -0.7178  1.1265
  781MOL0     H 5384   0.199  11.318   7.910  2.8783 -0.5880 -2.3075
  781MOL0     H 5385   0.093  11.192   7.841  1.2777 -0.0277  4.1930
  781MOL0     H 5386  -0.083  11.272   7.637 -2.7653 -1.6642  0.9770
  781MOL0     H 5387  -0.289  11.417   7.570  1.0876 -1.7897  1.0663
  781MOL0     H 5388  -0.354  11.312   7.697 -1.2625 -0.0345 -0.3681
  781MOL0     H 5389  -0.500  11.540   7.628 -0.4645 -1.3511 -0.2384
  781MOL0     H 5390  -0.364  11.620   7.700  1.7673 -0.4425 -4.3024
  781MOL0     H 5391  -0.418  11.451   7.904 -0.9374 -1.0396  0.8832
  781MOL0     H 5392  -0.558  11.393   7.819  1.3722 -0.7235 -0.0318
  781MOL0     H 5393  -0.494  11.668   7.913  0.5033 -0.7556  0.1007
  781MOL0     H 5394  -0.613  11.558   7.974  0.9548  0.1269  0.6715
  781MOL0     H 5395  -0.818  11.419   7.752 -1.8390 -1.1793 -0.4931
  781MOL0     H 5396  -1.073  11.300   7.916  1.0464 -1.8973 -1.0120
  781MOL0     H 5397  -1.117  11.322   7.730 -0.9868  2.0257  0.2458
  781MOL0     H 5398  -0.965  11.269   7.791  0.2918  2.0703 -1.3008
  781MOL0     H 5399  -1.475  11.868   7.993  3.4173  0.6326 -1.6174
  781MOL0     H 5400  -1.710  11.900   7.952  2.4506  1.0285 -0.0435
  781MOL0     H 5401  -1.966  11.753   7.618  0.0911 -0.2387 -1.4888
  781MOL0     H 5402  -1.897  11.610   7.657 -0.0641  0.9509 -1.1534
  781MOL0     H 5403  -2.120  11.562   7.723 -0.3950 -0.7311  1.2995
  781MOL0     H 5404  -2.033  11.598   7.875  2.2398 -1.5814 -1.1964
  781MOL0     H 5405  -2.203  11.768   7.695  2.2631  3.2488 -1.5769
  781MOL0     H 5406  -2.100  11.847   7.818  1.1477 -0.1552 -1.4971
  781MOL0     H 5407  -2.315  11.649   7.867 -0.3886  0.3778  1.0769
  781MOL0     H 5408  -2.242  11.732   7.997 -2.3106 -3.8637  0.4669
  781MOL0     H 5409  -2.424  11.886   7.789 -2.2286  1.1286  1.0516
  781MOL0     H 5410  -2.319  11.947   7.902  1.0846 -0.7398  0.0361
  781MOL0     H 5411  -2.549  11.744   7.963 -0.0326 -0.3621  0.7541
  781MOL0     H 5412  -2.451  11.832   8.084  1.2846 -4.3283 -0.8480
  781MOL0     H 5413  -2.622  11.969   7.869  1.1222 -0.3027 -0.5119
  781MOL0     H 5414  -2.527  12.037   8.016  2.0844 -1.9179 -0.7514
  781MOL0     H 5415  -2.681  11.931   8.161 -2.8925  1.3878  1.8844
  781MOL0     H 5416  -2.752  11.833   8.032  1.6989 -0.7351 -1.5777
  781MOL0     H 5417  -1.690  11.552   7.683 -0.4784  0.4832 -0.8719
  781MOL0     H 5418  -1.469  11.539   7.708  1.8127  0.3908  0.7457
  781MOL0     H 5419  -1.095  11.781   7.935 -0.5735 -1.0832  0.6845
  781MOL0     H 5420  -0.858  11.815   7.904  0.9647  0.0876  0.2498
  781MOL0     H 5421   1.084  10.685   7.726 -3.0168  1.8713  0.2873
  781MOL0     H 5422   1.312  10.664   7.772  0.1843  0.9279 -3.8401
  781MOL0     H 5423   1.819  10.619   7.854 -1.1199 -0.1821  0.1333
  781MOL0     H 5424   2.005  10.631   7.982 -2.1618 -1.9451 -0.2484
  781MOL0     H 5425   2.121  10.665   8.222  1.3792 -1.2229 -1.2875
  781MOL0     H 5426   2.211  10.696   8.076  0.9038 -0.7306  0.0538
  781MOL0     H 5427   2.318  10.895   8.207 -0.9757  0.9543 -0.3118
  781MOL0     H 5428   2.351  10.724   8.265 -1.5381  0.2252 -0.0740
  781MOL0     H 5429   2.202  10.765   8.456 -2.0718 -0.7645 -1.9138
  781MOL0     H 5430   2.137  10.910   8.394 -0.1580  0.7736  1.1769
  781MOL0     H 5431   2.437  10.868   8.465  1.4248  2.6974  3.1030
  781MOL0     H 5432   2.309  10.950   8.568 -0.0983  2.7257  0.3650
  781MOL0     H 5433   2.426  11.248   8.302  0.6065  1.4944  2.4514
  781MOL0     H 5434   1.878  11.030   8.111 -0.7408 -0.2855  1.0381
  781MOL0     H 5435   1.665  11.004   8.013  0.8014  0.5658 -0.0537
  782MOL0     O 5436   8.426   1.151   7.554 -0.0603  0.7643  0.2059
  782MOL0     C 5437   8.471   1.264   7.543  0.0333 -0.6780 -0.5062
  782MOL0     O 5438   8.402   1.376   7.509  0.1168 -0.1263 -0.2264
  782MOL0     C 5439   8.264   1.363   7.493  0.2060  0.1666 -0.1284
  782MOL0     C 5440   8.206   1.280   7.395 -1.0457  0.4737  0.0676
  782MOL0     C 5441   8.064   1.261   7.395 -0.0209 -0.7122  0.4387
  782MOL0     C 5442   7.982   1.330   7.487 -0.1014  0.1448 -0.1886
  782MOL0     O 5443   7.847   1.331   7.512  0.5169  0.4683  0.5054
  782MOL0     C 5444   7.785   1.209   7.441  0.1715 -0.4683 -0.1570
  782MOL0     C 5445   7.641   1.185   7.501 -1.1399 -0.1414 -0.4779
  782MOL0     C 5446   7.592   1.051   7.457  0.2509  0.3961  1.0158
  782MOL0     C 5447   7.465   1.036   7.529  0.3623 -1.0323  0.3197
  782MOL0     C 5448   7.404   0.901   7.503  0.1547  0.6735 -0.2954
  782MOL0     C 5449   7.363   0.888   7.350 -0.0972  0.1370  0.3972
  782MOL0     C 5450   7.312   0.742   7.341 -0.3096  0.2629  0.0088
  782MOL0     C 5451   7.211   0.717   7.228  0.0398 -0.4047  0.4249
  782MOL0     N 5452   7.080   0.751   7.276 -0.9725 -0.6913 -0.7012
  782MOL0     C 5453   7.007   0.866   7.241  0.7455 -1.2300 -0.1695
  782MOL0     C 5454   6.891   0.854   7.318 -0.0877  0.5814  0.7838
  782MOL0     C 5455   6.787   0.961   7.318  0.0554  0.6276 -0.5209
  782MOL0     C 5456   6.653   0.900   7.295 -0.9701  0.1661  0.2156
  782MOL0     C 5457   6.561   1.011   7.231 -0.4801  0.4676 -0.1665
  782MOL0     C 5458   6.412   0.967   7.228  0.7022  0.3841  0.3524
  782MOL0     O 5459   6.399   0.847   7.147 -0.1744  0.4887 -0.6548
  782MOL0     C 5460   6.268   0.801   7.129 -0.1108  0.1039  0.1317
  782MOL0     C 5461   6.258   0.676   7.063  0.1665  0.1752  0.0139
  782MOL0     C 5462   6.136   0.612   7.037 -0.3889  0.3569 -0.1927
  782MOL0     C 5463   6.146   0.481   6.957  0.2787  0.6534 -0.6045
  782MOL0     C 5464   6.019   0.673   7.078 -0.2087 -0.3911  0.6222
  782MOL0     C 5465   5.886   0.599   7.083  0.4678  0.7245  0.3249
  782MOL0     O 5466   5.794   0.633   7.180 -0.2333  0.7792 -0.2953
  782MOL0     C 5467   5.668   0.580   7.162 -0.4543  1.0683 -0.9279
  782MOL0     C 5468   5.560   0.662   7.130  0.1346 -0.3820  0.1455
  782MOL0     C 5469   5.430   0.615   7.109  0.2496 -1.1737 -0.0808
  782MOL0     C 5470   5.403   0.481   7.116  0.1014  0.1267 -0.1518
  782MOL0     O 5471   5.282   0.415   7.097 -0.4944  0.2175 -0.3141
  782MOL0     C 5472   5.181   0.472   7.015 -0.4413  0.0837 -0.6465
  782MOL0     C 5473   5.065   0.379   6.989 -0.0119  0.3641  1.2783
  782MOL0     C 5474   4.962   0.461   6.910  0.4986 -0.8016  0.0136
  782MOL0     C 5475   4.827   0.393   6.877 -0.2095  0.8098 -0.0474
  782MOL0     C 5476   4.725   0.401   6.997  0.4488 -0.5473 -0.4607
  782MOL0     C 5477   4.618   0.291   7.001  0.5039 -0.3926 -0.2022
  782MOL0     C 5478   4.516   0.299   7.113  0.0810 -0.0166  0.0794
  782MOL0     C 5479   4.405   0.393   7.080 -0.4526  0.2114  0.6324
  782MOL0    Cl 5480   4.295   0.406   7.217  0.3528  0.2928  0.4416
  782MOL0     C 5481   5.506   0.396   7.153 -0.9064  0.0372 -0.6226
  782MOL0     C 5482   5.642   0.443   7.185  0.6128  0.0164 -0.2910
  782MOL0     O 5483   5.867   0.511   6.999  0.5076  0.1547 -0.9208
  782MOL0     C 5484   6.031   0.798   7.150  0.1544  0.5303  0.5850
  782MOL0     C 5485   6.148   0.859   7.166 -0.5635 -0.1268 -1.2465
  782MOL0     N 5486   6.897   0.736   7.394  0.2127  0.4775  0.2749
  782MOL0     N 5487   7.019   0.684   7.379 -0.0363 -1.0009 -0.2651
  782MOL0     C 5488   8.054   1.411   7.582  0.2469 -0.8179 -0.1471
  782MOL0     C 5489   8.188   1.425   7.588 -0.4058  0.3209 -0.6999
  782MOL0     C 5490   8.613   1.282   7.575 -0.3465  0.0508 -0.4474
  782MOL0     C 5491   8.689   1.170   7.618  0.8194 -0.2332  1.0046
  782MOL0     C 5492   8.825   1.191   7.648 -0.7313  0.1448  0.1033
  782MOL0     C 5493   8.895   1.317   7.627  0.3751  0.3411  0.5962
  782MOL0     O 5494   9.022   1.327   7.664  0.2076 -0.4300 -0.1249
  782MOL0     C 5495   9.104   1.211   7.641 -0.0033  0.0233  0.3858
  782MOL0     C 5496   9.256   1.233   7.659  0.5416  0.3207  0.8109
  782MOL0     C 5497   9.308   1.340   7.562  0.1177 -0.0524  0.1774
  782MOL0     C 5498   9.460   1.353   7.565 -0.4141  0.3467 -0.7334
  782MOL0     C 5499   9.521   1.226   7.510 -0.8662  0.0880 -0.2587
  782MOL0     C 5500   9.562   1.114   7.485  0.6804  0.4581 -0.3148
  782MOL0     C 5501   8.816   1.423   7.588 -0.1715  0.1809  0.9346
  782MOL0     C 5502   8.681   1.410   7.569  0.0001  0.5746 -0.1424
  782MOL0     H 5503   8.271   1.232   7.322 -1.3392  0.0726  0.0654
  782MOL0     H 5504   8.038   1.194   7.313  1.3948 -0.4590 -0.2430
  782MOL0     H 5505   7.761   1.229   7.336 -1.3766  2.7060  0.6755
  782MOL0     H 5506   7.844   1.119   7.463  1.7881  0.3502 -0.9251
  782MOL0     H 5507   7.652   1.186   7.609  1.9011 -3.6957 -0.5196
  782MOL0     H 5508   7.572   1.258   7.459 -3.8205 -3.0755 -1.5265
  782MOL0     H 5509   7.585   1.060   7.348  1.5021 -0.5416  0.8378
  782MOL0     H 5510   7.665   0.974   7.485  1.7813  1.4173  0.0028
  782MOL0     H 5511   7.490   1.044   7.635  3.0660 -2.2678 -0.1385
  782MOL0     H 5512   7.392   1.111   7.499  1.7278 -0.2148 -1.0460
  782MOL0     H 5513   7.465   0.815   7.534  1.9442  1.7014 -0.8634
  782MOL0     H 5514   7.310   0.906   7.559 -1.3242 -2.2057 -2.2504
  782MOL0     H 5515   7.280   0.952   7.320 -0.0433  0.8181  1.6271
  782MOL0     H 5516   7.446   0.898   7.279 -1.0834 -0.9171 -0.9454
  782MOL0     H 5517   7.397   0.675   7.326  0.6508  1.9748 -3.1453
  782MOL0     H 5518   7.261   0.713   7.433  1.2527 -1.7773  0.3243
  782MOL0     H 5519   7.209   0.608   7.220  3.0247 -0.3907 -2.5929
  782MOL0     H 5520   7.234   0.761   7.131  0.1280 -2.0164 -0.3141
  782MOL0     H 5521   7.033   0.955   7.185 -2.8442  0.6723  0.8851
  782MOL0     H 5522   6.790   1.017   7.412  0.0785  1.7896 -1.1959
  782MOL0     H 5523   6.800   1.027   7.232 -3.0504  1.0862 -0.7523
  782MOL0     H 5524   6.613   0.881   7.395 -2.4191  0.4341 -0.2908
  782MOL0     H 5525   6.665   0.814   7.228 -0.7273  1.2537 -1.1809
  782MOL0     H 5526   6.589   1.023   7.126 -1.4452 -0.3109 -0.5243
  782MOL0     H 5527   6.585   1.100   7.290  1.7271 -1.3869  1.9386
  782MOL0     H 5528   6.354   1.038   7.169 -0.2728 -1.7065 -1.3289
  782MOL0     H 5529   6.364   0.957   7.326  0.5265  2.0297  0.4616
  782MOL0     H 5530   6.353   0.641   7.022  0.7934  1.0792  0.6416
  782MOL0     H 5531   6.098   0.404   7.019 -0.3876  0.6916 -1.0668
  782MOL0     H 5532   6.091   0.500   6.865 -0.7964  1.6306  0.2033
  782MOL0     H 5533   6.252   0.461   6.941 -0.0934 -1.1135 -1.0630
  782MOL0     H 5534   5.570   0.770   7.123 -1.6632 -0.3135 -2.9439
  782MOL0     H 5535   5.349   0.687   7.095  1.9659  0.9561  0.4761
  782MOL0     H 5536   5.147   0.564   7.063 -0.0892 -0.4617  0.7169
  782MOL0     H 5537   5.224   0.513   6.924 -2.5440  2.5972 -0.6278
  782MOL0     H 5538   5.090   0.287   6.936  0.4102  0.1264  1.8718
  782MOL0     H 5539   5.022   0.347   7.084 -0.5281 -0.8675  0.6432
  782MOL0     H 5540   5.011   0.494   6.818  0.4630  0.6145  0.4788
  782MOL0     H 5541   4.939   0.550   6.969  2.8866 -0.5154  0.5854
  782MOL0     H 5542   4.779   0.448   6.796  0.1718 -1.1869 -1.7146
  782MOL0     H 5543   4.830   0.289   6.841 -1.0252  1.5113 -2.3624
  782MOL0     H 5544   4.665   0.492   6.988 -1.1674 -1.5073  0.1284
  782MOL0     H 5545   4.776   0.408   7.093 -0.2878 -1.0387 -0.0252
  782MOL0     H 5546   4.571   0.271   6.904  1.5272 -0.1600 -0.7662
  782MOL0     H 5547   4.658   0.191   7.017  0.0961 -0.3868  0.9318
  782MOL0     H 5548   4.563   0.337   7.204  0.2331 -0.4632  0.1859
  782MOL0     H 5549   4.474   0.201   7.135  1.7679 -0.2845  2.4654
  782MOL0     H 5550   4.353   0.378   6.984  1.4564  1.1582 -0.6058
  782MOL0     H 5551   4.453   0.490   7.069  0.8508 -0.4769 -0.0570
  782MOL0     H 5552   5.483   0.290   7.158 -1.8506  0.2832  0.9793
  782MOL0     H 5553   5.722   0.373   7.205  1.1269  0.8466  0.5941
  782MOL0     H 5554   5.942   0.844   7.192  0.4169  0.6118  1.0597
  782MOL0     H 5555   6.134   0.952   7.222  0.2166 -1.2899  0.9974
  782MOL0     H 5556   7.983   1.447   7.656 -0.6370 -3.2256  0.2556
  782MOL0     H 5557   8.240   1.488   7.660 -0.0819  1.2745 -1.7541
  782MOL0     H 5558   8.649   1.070   7.632  1.2180 -0.8450 -1.6128
  782MOL0     H 5559   8.874   1.098   7.673  0.7463  0.3852 -1.6357
  782MOL0     H 5560   9.071   1.128   7.704 -2.3812  0.3537 -0.3417
  782MOL0     H 5561   9.085   1.173   7.540 -1.6763 -0.5156  0.8810
  782MOL0     H 5562   9.310   1.139   7.646  1.0742  0.8129 -0.6619
  782MOL0     H 5563   9.269   1.282   7.756 -2.6001  0.1728  1.4217
  782MOL0     H 5564   9.265   1.438   7.587  1.2394  0.3098  0.7528
  782MOL0     H 5565   9.285   1.316   7.457  2.8055 -1.4288 -0.1701
  782MOL0     H 5566   9.495   1.367   7.668  0.1881  3.4509 -1.2739
  782MOL0     H 5567   9.495   1.442   7.512  0.4808  0.1198 -0.5512
  782MOL0     H 5568   9.602   1.019   7.457  0.9184  0.7808 -1.0732
  782MOL0     H 5569   8.867   1.518   7.576  2.3260 -1.3034 -1.2331
  782MOL0     H 5570   8.626   1.494   7.527  0.1691  1.2193  0.8807
  783MOL0     O 5571   5.963   0.853  10.921  0.8914 -0.1739 -0.6640
  783MOL0     C 5572   6.012   0.952  10.976 -0.2229  0.0888  0.2100
  783MOL0     O 5573   5.969   1.083  10.965 -0.1987  0.1356 -0.1492
  783MOL0     C 5574   5.861   1.113  10.884  0.3380  0.5449 -0.0182
  783MOL0     C 5575   5.870   1.206  10.777 -0.2129  0.9606 -0.4504
  783MOL0     C 5576   5.762   1.245  10.699 -0.6570  0.1986  0.6129
  783MOL0     C 5577   5.638   1.201  10.744 -0.9390  0.3347 -0.3271
  783MOL0     O 5578   5.523   1.240  10.695 -0.1029 -0.9026  0.2393
  783MOL0     C 5579   5.509   1.381  10.696  0.0146  0.1284 -0.0752
  783MOL0     C 5580   5.359   1.426  10.708  0.2534  0.4910  0.3037
  783MOL0     C 5581   5.295   1.371  10.837 -0.1183 -0.4209 -0.6564
  783MOL0     C 5582   5.143   1.376  10.839  0.1326 -0.3384 -0.4506
  783MOL0     C 5583   5.094   1.346  10.979  0.4086  0.2428  0.3862
  783MOL0     C 5584   4.943   1.342  10.985  0.5333 -0.0010 -0.5374
  783MOL0     C 5585   4.891   1.251  11.097 -0.1686 -0.1508  0.4302
  783MOL0     C 5586   4.893   1.311  11.234  0.3985 -0.1029 -0.2430
  783MOL0     N 5587   4.770   1.382  11.255 -0.4774  0.0727 -0.0259
  783MOL0     C 5588   4.741   1.506  11.206 -0.1346  0.0692  0.6371
  783MOL0     C 5589   4.613   1.517  11.230 -1.7603 -0.7057 -0.6252
  783MOL0     C 5590   4.537   1.636  11.196  0.8633 -0.7872 -0.1253
  783MOL0     C 5591   4.388   1.620  11.185 -0.3416  0.3497  0.0118
  783MOL0     C 5592   4.320   1.754  11.175 -0.0888 -0.5519  0.4526
  783MOL0     C 5593   4.167   1.750  11.186  1.1340 -0.0861  0.3936
  783MOL0     O 5594   4.105   1.682  11.079 -0.1781  0.5279  0.2934
  783MOL0     C 5595   3.969   1.654  11.096 -0.7973 -0.0755  0.3841
  783MOL0     C 5596   3.899   1.572  11.010  0.4029  0.7614  1.2935
  783MOL0     C 5597   3.760   1.530  11.031 -0.5923 -1.1381 -0.3292
  783MOL0     C 5598   3.693   1.447  10.917 -0.9019  0.3559  0.0232
  783MOL0     C 5599   3.688   1.581  11.139 -0.4165 -0.1516 -0.2980
  783MOL0     C 5600   3.543   1.560  11.157 -0.4696 -0.5119 -1.3725
  783MOL0     O 5601   3.471   1.475  11.071 -0.0261  0.1687  0.0946
  783MOL0     C 5602   3.332   1.468  11.067 -0.0693 -0.0068 -0.0796
  783MOL0     C 5603   3.283   1.369  10.980  0.9937 -0.4160  0.6445
  783MOL0     C 5604   3.141   1.331  10.987  0.2101 -0.5802  1.0960
  783MOL0     C 5605   3.055   1.395  11.080  0.1396 -0.4174  0.3410
  783MOL0     O 5606   2.928   1.364  11.057  0.6338 -0.0243 -0.3520
  783MOL0     C 5607   2.827   1.418  11.139  0.0277 -0.5009 -0.3041
  783MOL0     C 5608   2.698   1.379  11.061 -0.9484 -0.0219  0.4732
  783MOL0     C 5609   2.689   1.231  11.048 -1.0849  0.3340 -0.0267
  783MOL0     C 5610   2.551   1.184  10.989  0.6567 -0.1054  0.4007
  783MOL0     C 5611   2.524   1.045  11.038 -0.7183 -0.4410 -0.0515
  783MOL0     C 5612   2.381   0.994  11.023  0.6878 -0.0021  0.3116
  783MOL0     C 5613   2.371   0.848  11.037 -0.0723 -0.2263  0.4680
  783MOL0     C 5614   2.240   0.788  10.983 -0.0295 -0.8468 -0.1612
  783MOL0    Cl 5615   2.229   0.612  10.977 -0.1435  0.3285 -0.3318
  783MOL0     C 5616   3.109   1.501  11.167  0.0551  0.5076  0.0780
  783MOL0     C 5617   3.248   1.534  11.150  0.6270 -0.2016 -0.4237
  783MOL0     O 5618   3.497   1.613  11.266 -0.4542  0.1916 -0.0346
  783MOL0     C 5619   3.754   1.672  11.219 -0.4191 -0.1658  0.2874
  783MOL0     C 5620   3.894   1.706  11.198  0.1556 -0.1813 -0.1009
  783MOL0     N 5621   4.562   1.405  11.290  0.7127 -0.0559 -0.6734
  783MOL0     N 5622   4.664   1.325  11.315  0.1887 -0.2302  0.0293
  783MOL0     C 5623   5.622   1.104  10.841  0.7817  0.4195 -0.2947
  783MOL0     C 5624   5.729   1.066  10.918 -0.1332  0.0552 -0.6250
  783MOL0     C 5625   6.124   0.931  11.075 -0.6169 -0.4724  0.7056
  783MOL0     C 5626   6.225   0.840  11.047  1.0494  0.1887 -0.8027
  783MOL0     C 5627   6.317   0.798  11.148 -0.3426 -0.8124  0.1268
  783MOL0     C 5628   6.313   0.845  11.274 -0.6803  0.2951  0.1005
  783MOL0     O 5629   6.403   0.823  11.377  0.3713 -0.2335 -0.7175
  783MOL0     C 5630   6.525   0.867  11.335 -0.8737 -0.3275 -0.9743
  783MOL0     C 5631   6.630   0.858  11.447 -0.1257 -0.1998 -0.7089
  783MOL0     C 5632   6.668   0.712  11.471  0.4244 -0.4638 -0.5028
  783MOL0     C 5633   6.776   0.669  11.580  0.9893 -0.0333  0.4751
  783MOL0     C 5634   6.894   0.746  11.556  0.1344 -0.5575  0.5121
  783MOL0     C 5635   6.994   0.810  11.525 -0.4871  1.5942 -0.2300
  783MOL0     C 5636   6.217   0.953  11.291 -0.1978 -1.0303  0.6180
  783MOL0     C 5637   6.123   0.995  11.197 -0.4850  0.2796 -0.2560
  783MOL0     H 5638   5.965   1.254  10.759 -0.3339  1.8279  1.0647
  783MOL0     H 5639   5.777   1.309  10.613  0.2863 -1.4420 -0.4947
  783MOL0     H 5640   5.553   1.426  10.785  0.6285 -3.2233  1.4782
  783MOL0     H 5641   5.557   1.409  10.602  3.3508 -0.3246  1.3597
  783MOL0     H 5642   5.371   1.534  10.713 -2.4035  0.8780 -0.2295
  783MOL0     H 5643   5.301   1.393  10.621 -1.0899  1.6382  0.7297
  783MOL0     H 5644   5.331   1.268  10.850  0.6529  0.1557  3.1480
  783MOL0     H 5645   5.337   1.438  10.912  0.8632 -0.5359 -1.0897
  783MOL0     H 5646   5.118   1.477  10.807 -1.6645  0.4257  2.8920
  783MOL0     H 5647   5.094   1.302  10.776  1.7583 -1.6665 -0.2260
  783MOL0     H 5648   5.138   1.250  11.007  0.9850  0.2767 -0.3740
  783MOL0     H 5649   5.126   1.424  11.049  0.7880  1.1448 -0.7610
  783MOL0     H 5650   4.897   1.441  10.994  0.5037 -0.1881  2.2896
  783MOL0     H 5651   4.898   1.309  10.891 -0.9438  0.9918 -0.2192
  783MOL0     H 5652   4.789   1.220  11.073 -0.6379  0.3800  1.6935
  783MOL0     H 5653   4.952   1.160  11.099  0.0583  0.0142  1.1998
  783MOL0     H 5654   4.965   1.390  11.256 -0.3003  0.4787 -0.0267
  783MOL0     H 5655   4.907   1.229  11.305  3.0954 -1.4978 -2.1978
  783MOL0     H 5656   4.804   1.573  11.147 -1.2723 -1.2937 -2.3197
  783MOL0     H 5657   4.553   1.713  11.271 -1.5152 -0.7810  0.4512
  783MOL0     H 5658   4.563   1.666  11.094  1.1439 -0.8298 -0.0676
  783MOL0     H 5659   4.346   1.565  11.269 -0.2407 -1.7735 -1.2435
  783MOL0     H 5660   4.374   1.563  11.092  0.4999 -1.8187  1.1375
  783MOL0     H 5661   4.350   1.798  11.079  0.5428 -0.6538  0.5968
  783MOL0     H 5662   4.359   1.811  11.260 -1.2660 -0.5447  1.0064
  783MOL0     H 5663   4.126   1.851  11.194 -1.4653 -1.1274  1.6795
  783MOL0     H 5664   4.143   1.692  11.276  0.5729  0.7480  0.7922
  783MOL0     H 5665   3.961   1.543  10.925  1.4223 -0.8700  2.5209
  783MOL0     H 5666   3.635   1.504  10.844  0.9106  2.1163 -0.1254
  783MOL0     H 5667   3.776   1.402  10.862 -1.5521  0.1380 -0.8092
  783MOL0     H 5668   3.640   1.362  10.961  0.6852  0.1217  1.6010
  783MOL0     H 5669   3.356   1.325  10.913  0.3278  2.9114 -2.6321
  783MOL0     H 5670   3.108   1.259  10.913  0.7146  1.7074 -1.5121
  783MOL0     H 5671   2.834   1.375  11.239 -0.7380  0.6452  0.2567
  783MOL0     H 5672   2.837   1.526  11.151  1.3208 -0.7112  0.6503
  783MOL0     H 5673   2.620   1.413  11.129 -0.2043  1.2753  0.7151
  783MOL0     H 5674   2.696   1.420  10.960  2.6901  0.5230  0.4625
  783MOL0     H 5675   2.688   1.196  11.152  0.1876 -0.1083 -0.1532
  783MOL0     H 5676   2.771   1.190  10.989 -0.8478  2.4915 -1.3156
  783MOL0     H 5677   2.471   1.249  11.027 -1.2739 -0.6842 -2.3803
  783MOL0     H 5678   2.547   1.200  10.881 -3.8496  0.5180  0.4572
  783MOL0     H 5679   2.574   1.029  11.134  1.1356 -0.2849 -0.9428
  783MOL0     H 5680   2.592   0.993  10.969 -1.2024 -0.8436 -0.2325
  783MOL0     H 5681   2.299   1.037  11.083 -1.4992  0.1226 -2.5713
  783MOL0     H 5682   2.348   1.015  10.921 -0.4416 -3.4937 -0.1765
  783MOL0     H 5683   2.362   0.825  11.143 -0.3445 -0.8401  0.3160
  783MOL0     H 5684   2.459   0.801  10.990 -1.7136 -2.4135 -0.6126
  783MOL0     H 5685   2.240   0.824  10.880 -1.0498  1.3911  0.5488
  783MOL0     H 5686   2.156   0.841  11.029 -0.5144 -3.0616  1.7184
  783MOL0     H 5687   3.046   1.551  11.240 -0.2681  1.9129 -1.1159
  783MOL0     H 5688   3.275   1.611  11.222 -1.7833  0.1916  0.1457
  783MOL0     H 5689   3.698   1.718  11.300  0.9944 -1.4694  2.0892
  783MOL0     H 5690   3.935   1.768  11.277  0.2196  1.6787 -1.5163
  783MOL0     H 5691   5.526   1.055  10.858  1.9430 -2.5512 -1.5401
  783MOL0     H 5692   5.726   0.991  10.997  3.6290  1.1351  0.7561
  783MOL0     H 5693   6.234   0.793  10.949 -2.0817  0.4741 -1.3470
  783MOL0     H 5694   6.393   0.723  11.131 -0.7728 -2.0638  3.0167
  783MOL0     H 5695   6.560   0.810  11.250  0.9147  3.0032 -2.6812
  783MOL0     H 5696   6.520   0.971  11.300 -0.7631 -0.1655 -0.5189
  783MOL0     H 5697   6.586   0.904  11.537  1.0761 -0.3676 -0.0086
  783MOL0     H 5698   6.712   0.923  11.417  1.3029 -0.2455  2.5971
  783MOL0     H 5699   6.706   0.680  11.374 -1.5096 -1.0407 -1.1085
  783MOL0     H 5700   6.574   0.665  11.501  0.6338  1.6562  4.5904
  783MOL0     H 5701   6.810   0.566  11.566  1.3919  0.4794 -3.1411
  783MOL0     H 5702   6.734   0.693  11.678 -1.0176 -1.0286 -0.0881
  783MOL0     H 5703   7.088   0.861  11.521 -0.0447  0.9685  1.4797
  783MOL0     H 5704   6.220   1.013  11.381 -1.1264 -2.9921  2.0229
  783MOL0     H 5705   6.059   1.080  11.221  1.5395  1.5325  0.9914
  784MOL0     O 5706   0.046   7.381   2.343 -0.7025 -0.2894 -0.1566
  784MOL0     C 5707   0.133   7.318   2.408  0.1652  0.3145 -0.1817
  784MOL0     O 5708   0.110   7.240   2.517 -0.5188  0.3461 -0.1599
  784MOL0     C 5709  -0.015   7.233   2.567 -0.0455  0.5120  0.1583
  784MOL0     C 5710  -0.112   7.331   2.567 -0.1636 -0.2252  0.4422
  784MOL0     C 5711  -0.238   7.300   2.615 -0.1984  0.0248 -0.4041
  784MOL0     C 5712  -0.271   7.167   2.655  0.5508 -0.1473 -0.6257
  784MOL0     O 5713  -0.393   7.121   2.682 -0.3632 -0.2315  0.3230
  784MOL0     C 5714  -0.505   7.208   2.690  0.6713 -0.0260 -0.0541
  784MOL0     C 5715  -0.628   7.134   2.736 -0.1773  0.5996  0.0416
  784MOL0     C 5716  -0.735   7.134   2.634 -0.4518 -0.2191  0.5428
  784MOL0     C 5717  -0.866   7.074   2.689 -0.4585  0.2772  0.6771
  784MOL0     C 5718  -0.987   7.097   2.603 -0.3307 -0.3287 -0.6550
  784MOL0     C 5719  -1.120   7.038   2.664  0.5575 -0.0490  0.5496
  784MOL0     C 5720  -1.239   7.066   2.566  0.3622  0.2668  0.9038
  784MOL0     C 5721  -1.366   7.014   2.633 -1.4266  1.0003 -0.1254
  784MOL0     N 5722  -1.475   7.000   2.539 -0.2474 -0.2403  0.5366
  784MOL0     C 5723  -1.495   6.890   2.458  1.2615 -0.7090  0.3491
  784MOL0     C 5724  -1.600   6.932   2.379  0.8715 -0.6654 -0.1454
  784MOL0     C 5725  -1.674   6.855   2.272  0.0779 -0.2602  0.8465
  784MOL0     C 5726  -1.826   6.879   2.279 -0.6088 -0.5547  0.2290
  784MOL0     C 5727  -1.895   6.786   2.383  0.2386 -0.0617 -0.2575
  784MOL0     C 5728  -2.050   6.813   2.388 -0.3001 -0.4980 -0.1651
  784MOL0     O 5729  -2.102   6.782   2.259 -0.0660 -0.1814  0.3104
  784MOL0     C 5730  -2.243   6.793   2.246  0.1692 -0.8446 -0.5721
  784MOL0     C 5731  -2.327   6.841   2.346  0.1279  0.6136  0.2049
  784MOL0     C 5732  -2.466   6.855   2.319 -0.3902 -0.7469  0.6644
  784MOL0     C 5733  -2.563   6.900   2.439  0.6930 -0.1348  0.8494
  784MOL0     C 5734  -2.517   6.826   2.181 -0.9377  0.3974 -0.0613
  784MOL0     C 5735  -2.656   6.856   2.147  0.3733 -0.0340 -0.0050
  784MOL0     O 5736  -2.696   6.805   2.027  0.2627  0.0226 -0.0242
  784MOL0     C 5737  -2.820   6.811   1.969  0.3537  0.2780  0.3654
  784MOL0     C 5738  -2.931   6.882   2.002  0.0263  0.7648 -0.0489
  784MOL0     C 5739  -3.044   6.882   1.931  0.4028 -0.2245  1.1722
  784MOL0     C 5740  -3.046   6.798   1.812  0.1484  0.2506  0.1053
  784MOL0     O 5741  -3.155   6.813   1.732  0.2401  0.2744  0.0538
  784MOL0     C 5742  -3.169   6.752   1.606 -0.1401  0.7307 -0.0897
  784MOL0     C 5743  -3.298   6.806   1.547 -0.2329 -0.4052  0.5472
  784MOL0     C 5744  -3.424   6.736   1.581  0.1224  0.6313 -0.2776
  784MOL0     C 5745  -3.538   6.814   1.525  0.8529 -0.1390  0.4095
  784MOL0     C 5746  -3.668   6.752   1.576 -0.8067  0.4203 -0.6613
  784MOL0     C 5747  -3.793   6.788   1.505 -0.0242  0.3137 -0.3041
  784MOL0     C 5748  -3.846   6.935   1.520 -0.3462 -0.2121 -0.3127
  784MOL0     C 5749  -3.989   6.942   1.452  0.4030  0.5096  0.3200
  784MOL0    Cl 5750  -3.950   6.940   1.264  0.4025  0.2879  0.0863
  784MOL0     C 5751  -2.933   6.725   1.775  1.0308  0.2170  0.1540
  784MOL0     C 5752  -2.820   6.731   1.854 -0.4917 -0.4103  0.2485
  784MOL0     O 5753  -2.715   6.944   2.204  0.5867  0.4974 -0.3722
  784MOL0     C 5754  -2.432   6.770   2.089 -1.0967 -0.2260 -0.3781
  784MOL0     C 5755  -2.296   6.752   2.131 -0.2901  0.4580  0.6142
  784MOL0     N 5756  -1.641   7.063   2.423  0.0270  0.4029 -1.2073
  784MOL0     N 5757  -1.552   7.109   2.508 -0.4865  0.3720  0.4503
  784MOL0     C 5758  -0.171   7.078   2.669 -0.1639  0.1677  0.1907
  784MOL0     C 5759  -0.044   7.107   2.620  0.1087  0.0674 -1.1112
  784MOL0     C 5760   0.267   7.319   2.356  0.4232  0.1778  0.1145
  784MOL0     C 5761   0.311   7.433   2.275  0.5478  0.5617  0.0678
  784MOL0     C 5762   0.441   7.440   2.229  0.6725  0.3585  0.0084
  784MOL0     C 5763   0.522   7.337   2.256 -1.0875  0.1978 -0.2751
  784MOL0     O 5764   0.651   7.318   2.201 -0.0715 -0.7577  0.4699
  784MOL0     C 5765   0.707   7.402   2.098  1.1048  0.1562  0.5071
  784MOL0     C 5766   0.859   7.407   2.106 -0.3651  0.5083  0.4281
  784MOL0     C 5767   0.937   7.270   2.098 -0.7563  0.6107 -0.9197
  784MOL0     C 5768   1.086   7.264   2.130  0.6146 -0.1767 -0.1480
  784MOL0     C 5769   1.161   7.366   2.064 -0.7241 -0.1222  0.2776
  784MOL0     C 5770   1.221   7.438   1.991 -0.0152 -0.3260 -0.6690
  784MOL0     C 5771   0.492   7.236   2.342 -0.1090 -0.1097 -0.6714
  784MOL0     C 5772   0.366   7.227   2.387 -0.1381  0.5431 -0.7666
  784MOL0     H 5773  -0.090   7.426   2.521  1.2563 -1.2521 -1.1274
  784MOL0     H 5774  -0.323   7.367   2.604 -0.6962 -0.4224  0.6068
  784MOL0     H 5775  -0.495   7.284   2.769 -0.3574 -0.1921  0.2497
  784MOL0     H 5776  -0.520   7.254   2.592  2.1483  0.0467 -0.2670
  784MOL0     H 5777  -0.609   7.029   2.759  0.2632  0.4872 -0.7778
  784MOL0     H 5778  -0.654   7.176   2.833 -1.4071  1.3450 -0.5918
  784MOL0     H 5779  -0.754   7.240   2.614 -3.8379 -0.5303  1.4386
  784MOL0     H 5780  -0.695   7.084   2.546 -2.0365  0.8291 -0.8406
  784MOL0     H 5781  -0.840   6.971   2.716 -0.1376  0.0701 -0.3832
  784MOL0     H 5782  -0.880   7.131   2.781  0.4657  2.8448 -0.6639
  784MOL0     H 5783  -0.996   7.202   2.576  0.5106 -0.7605 -2.8060
  784MOL0     H 5784  -0.969   7.052   2.505 -1.7930 -1.4704 -0.4399
  784MOL0     H 5785  -1.123   6.929   2.672 -4.1505 -0.4188 -2.4722
  784MOL0     H 5786  -1.139   7.081   2.763  2.6199  1.4880  0.3465
  784MOL0     H 5787  -1.243   7.173   2.545  1.1025  0.1194 -0.0562
  784MOL0     H 5788  -1.227   7.008   2.474  0.0673 -0.0931  1.0888
  784MOL0     H 5789  -1.390   7.086   2.712  0.9170 -0.5107  2.0804
  784MOL0     H 5790  -1.338   6.921   2.683 -0.9479  0.9390 -0.4960
  784MOL0     H 5791  -1.450   6.791   2.457  2.4856 -0.2436  2.3603
  784MOL0     H 5792  -1.637   6.874   2.171  0.1122 -1.8313  0.5470
  784MOL0     H 5793  -1.652   6.751   2.296 -0.9902  0.0158  3.2848
  784MOL0     H 5794  -1.860   6.861   2.176 -1.5046 -0.1333  0.4441
  784MOL0     H 5795  -1.841   6.987   2.284  0.8953  0.2246 -5.1752
  784MOL0     H 5796  -1.846   6.807   2.478 -1.0406  0.0415  0.4006
  784MOL0     H 5797  -1.877   6.683   2.348  0.5222 -0.0969 -0.0076
  784MOL0     H 5798  -2.075   6.916   2.414  0.3585 -0.3626 -0.0540
  784MOL0     H 5799  -2.083   6.747   2.469  2.0872 -0.2711  1.0918
  784MOL0     H 5800  -2.285   6.875   2.440  3.3230 -2.0997 -0.0812
  784MOL0     H 5801  -2.575   7.008   2.433 -0.8014 -0.3355 -0.3057
  784MOL0     H 5802  -2.660   6.850   2.432 -0.2119  1.2007  2.9338
  784MOL0     H 5803  -2.524   6.855   2.531 -2.9146 -3.5504  0.9761
  784MOL0     H 5804  -2.921   6.948   2.087  0.1709 -0.7915  1.1901
  784MOL0     H 5805  -3.127   6.950   1.951  1.0254  0.8572  0.2135
  784MOL0     H 5806  -3.079   6.774   1.547 -2.1279  2.4270 -2.7385
  784MOL0     H 5807  -3.161   6.643   1.607  1.7499  0.8364  0.0250
  784MOL0     H 5808  -3.304   6.916   1.550 -0.5252 -0.4288  1.9051
  784MOL0     H 5809  -3.286   6.788   1.440  0.7991 -0.6816  0.7017
  784MOL0     H 5810  -3.436   6.727   1.689  1.8070  0.4184 -0.0803
  784MOL0     H 5811  -3.425   6.636   1.536  1.4409 -0.2955  1.6239
  784MOL0     H 5812  -3.529   6.922   1.540 -0.9558  0.3958 -1.8526
  784MOL0     H 5813  -3.540   6.805   1.416  0.8848  0.8320  0.3209
  784MOL0     H 5814  -3.696   6.769   1.681 -0.1797 -0.5389 -0.3344
  784MOL0     H 5815  -3.659   6.644   1.571 -0.8799  0.4849 -3.6299
  784MOL0     H 5816  -3.773   6.770   1.399  2.8708 -0.3264  0.2708
  784MOL0     H 5817  -3.871   6.717   1.535  1.5704 -1.4419 -0.1532
  784MOL0     H 5818  -3.773   7.007   1.482  0.7135  0.4182  2.6553
  784MOL0     H 5819  -3.851   6.963   1.626  0.6360 -0.3218 -0.2282
  784MOL0     H 5820  -4.039   7.034   1.485  0.5376  0.7839 -0.2319
  784MOL0     H 5821  -4.056   6.860   1.479  0.5955  0.7868  1.7044
  784MOL0     H 5822  -2.930   6.664   1.686  0.5026  2.1067 -1.2297
  784MOL0     H 5823  -2.728   6.683   1.824  0.1285  2.6693 -3.6217
  784MOL0     H 5824  -2.454   6.735   1.988  2.0012  0.4397 -1.3956
  784MOL0     H 5825  -2.219   6.712   2.066  0.1080 -2.2917  2.5823
  784MOL0     H 5826  -0.200   6.978   2.699 -2.1802 -0.0412 -2.1763
  784MOL0     H 5827   0.027   7.025   2.630 -0.7804 -0.3973  2.5695
  784MOL0     H 5828   0.249   7.517   2.245  1.4525  1.0400 -0.4964
  784MOL0     H 5829   0.466   7.524   2.165  1.5689 -0.3510 -0.5852
  784MOL0     H 5830   0.679   7.350   2.006  0.1979  1.2364  0.1593
  784MOL0     H 5831   0.658   7.500   2.097  2.2037  0.7166 -0.1776
  784MOL0     H 5832   0.880   7.457   2.201  1.4902 -1.1579  0.9636
  784MOL0     H 5833   0.901   7.473   2.030  1.0733 -0.2041  0.5652
  784MOL0     H 5834   0.922   7.229   1.997 -1.3385  0.1947 -0.6717
  784MOL0     H 5835   0.884   7.192   2.154 -0.2103 -0.4709 -1.8557
  784MOL0     H 5836   1.136   7.169   2.112  0.7238  0.1288 -1.6432
  784MOL0     H 5837   1.094   7.288   2.237 -0.2563  0.8887 -0.3026
  784MOL0     H 5838   1.277   7.521   1.952  1.6699 -1.1474 -0.0903
  784MOL0     H 5839   0.560   7.159   2.377 -0.0983  0.4070  0.4679
  784MOL0     H 5840   0.347   7.136   2.445  3.0240 -0.6461 -1.4095
  785MOL0     O 5841   9.374   0.829   1.163 -0.1590 -0.3960 -0.6186
  785MOL0     C 5842   9.419   0.786   1.269  0.4093 -0.5879 -0.1777
  785MOL0     O 5843   9.348   0.689   1.341 -0.6391  0.2047  0.3390
  785MOL0     C 5844   9.212   0.678   1.315  0.4612 -0.3344 -0.2225
  785MOL0     C 5845   9.122   0.711   1.417  0.3839 -0.4703  0.3538
  785MOL0     C 5846   8.988   0.697   1.410 -0.3511 -0.4758  0.4845
  785MOL0     C 5847   8.932   0.645   1.286  0.5312 -0.3818 -0.6380
  785MOL0     O 5848   8.799   0.638   1.270 -0.1098 -0.9695 -1.1660
  785MOL0     C 5849   8.715   0.644   1.385 -0.0738 -0.5283  0.1256
  785MOL0     C 5850   8.576   0.651   1.325 -0.7612  0.6176 -0.0603
  785MOL0     C 5851   8.466   0.671   1.424  0.1053  0.1759  0.3728
  785MOL0     C 5852   8.342   0.609   1.356 -1.0076 -0.1956 -0.5760
  785MOL0     C 5853   8.206   0.658   1.411 -0.6417  0.7436 -1.0009
  785MOL0     C 5854   8.177   0.595   1.552  0.5436  0.1415 -0.0959
  785MOL0     C 5855   8.158   0.439   1.558 -0.1272  0.0984  0.2623
  785MOL0     C 5856   8.037   0.380   1.490  0.2248  0.6592  1.3040
  785MOL0     N 5857   8.044   0.232   1.465  1.0005  0.3124 -0.4992
  785MOL0     C 5858   8.035   0.169   1.349  0.3043  0.2990  0.1223
  785MOL0     C 5859   7.985   0.056   1.370  0.1933  0.2992  0.2158
  785MOL0     C 5860   7.938  -0.042   1.268 -0.0266 -0.2312 -0.1289
  785MOL0     C 5861   7.804  -0.007   1.212  0.1685  0.0992 -0.5067
  785MOL0     C 5862   7.771  -0.086   1.084 -0.1977 -0.5464  0.6074
  785MOL0     C 5863   7.631  -0.066   1.034 -0.5033 -0.4504  0.2120
  785MOL0     O 5864   7.623   0.057   0.963  0.3609 -0.3443 -0.4324
  785MOL0     C 5865   7.501   0.089   0.905 -0.5309 -0.3053 -0.1595
  785MOL0     C 5866   7.492   0.217   0.860 -0.1308 -0.7972  0.0233
  785MOL0     C 5867   7.375   0.262   0.788 -0.6312 -0.9220  0.0043
  785MOL0     C 5868   7.391   0.409   0.736  1.0208  0.4257  0.4959
  785MOL0     C 5869   7.263   0.176   0.777  0.7312  0.2597 -1.2426
  785MOL0     C 5870   7.127   0.208   0.706 -0.3533  0.6082  0.4707
  785MOL0     O 5871   7.049   0.102   0.679  0.0126  0.6287  0.2369
  785MOL0     C 5872   6.933   0.116   0.610  0.2864  0.5854 -0.6360
  785MOL0     C 5873   6.837   0.210   0.656 -1.0663 -0.4736 -0.4065
  785MOL0     C 5874   6.713   0.209   0.604  0.4918  0.7295 -0.4312
  785MOL0     C 5875   6.687   0.127   0.493 -0.1592 -0.1397 -0.2540
  785MOL0     O 5876   6.566   0.126   0.425 -0.2104 -0.0853  0.8140
  785MOL0     C 5877   6.556   0.250   0.354  0.1059 -0.5832 -0.0548
  785MOL0     C 5878   6.440   0.228   0.250  0.6936 -0.5427  0.2083
  785MOL0     C 5879   6.314   0.159   0.288  0.1794 -0.1737 -0.1074
  785MOL0     C 5880   6.193   0.162   0.188 -0.1463  0.8006 -0.5420
  785MOL0     C 5881   6.070   0.103   0.265  0.5467 -0.8331 -0.4863
  785MOL0     C 5882   5.938   0.099   0.180  0.7608 -0.0315 -0.0753
  785MOL0     C 5883   5.814   0.065   0.260  0.4144 -0.4763 -0.2635
  785MOL0     C 5884   5.743   0.178   0.313 -0.9890 -0.4068 -0.4762
  785MOL0    Cl 5885   5.825   0.293   0.422  0.5363 -0.0624  0.0949
  785MOL0     C 5886   6.783   0.044   0.446 -1.4871 -1.1778  0.1749
  785MOL0     C 5887   6.904   0.023   0.511 -0.0723  0.0231 -0.2485
  785MOL0     O 5888   7.111   0.314   0.655 -0.4050 -0.9344 -0.5507
  785MOL0     C 5889   7.284   0.045   0.815 -1.0117  0.1035 -0.9933
  785MOL0     C 5890   7.398  -0.001   0.883 -0.0861  0.1241  0.8903
  785MOL0     N 5891   7.979   0.033   1.508 -0.8825 -0.5024 -0.1198
  785MOL0     N 5892   8.012   0.143   1.560 -0.1824 -0.2503 -0.2889
  785MOL0     C 5893   9.020   0.614   1.180  0.1950 -0.3192  0.4151
  785MOL0     C 5894   9.152   0.642   1.196 -0.7700  0.1942  0.7879
  785MOL0     C 5895   9.557   0.811   1.302 -0.1291 -0.3606  0.2079
  785MOL0     C 5896   9.610   0.775   1.433  1.0243 -0.3296 -0.1018
  785MOL0     C 5897   9.737   0.807   1.482 -0.4127  0.0912  0.2736
  785MOL0     C 5898   9.829   0.871   1.400 -1.3432 -0.5927 -0.6055
  785MOL0     O 5899   9.961   0.909   1.450  0.0405  0.3875 -0.1004
  785MOL0     C 5900  10.037   1.004   1.368 -0.5266  0.2306 -0.1858
  785MOL0     C 5901  10.111   0.940   1.255  0.8881 -0.1105 -0.1173
  785MOL0     C 5902  10.186   1.041   1.182  0.2780 -0.3661 -0.4683
  785MOL0     C 5903  10.227   0.989   1.041 -0.6650  0.3858 -0.2852
  785MOL0     C 5904  10.102   1.008   0.967 -0.7477 -0.5606 -0.0826
  785MOL0     C 5905  10.012   1.051   0.899 -0.8589  0.1040  0.3772
  785MOL0     C 5906   9.792   0.903   1.272  0.3957 -0.4820 -0.0049
  785MOL0     C 5907   9.658   0.868   1.222 -0.1747  0.1647  0.4509
  785MOL0     H 5908   9.175   0.751   1.503  2.2766  0.7859 -1.3140
  785MOL0     H 5909   8.926   0.713   1.498 -4.1802  1.2386 -2.2514
  785MOL0     H 5910   8.727   0.559   1.454  2.6643  0.5931  1.1900
  785MOL0     H 5911   8.733   0.734   1.444  0.7577 -0.5228 -0.1186
  785MOL0     H 5912   8.570   0.734   1.254 -2.6971  1.2553  0.7732
  785MOL0     H 5913   8.554   0.557   1.273 -0.0228  1.8667 -2.8225
  785MOL0     H 5914   8.490   0.624   1.520 -1.1214 -0.3726  0.4294
  785MOL0     H 5915   8.447   0.777   1.444 -0.1037 -0.0179  1.2661
  785MOL0     H 5916   8.344   0.637   1.250 -1.2510  3.8029  0.3318
  785MOL0     H 5917   8.348   0.501   1.371  0.9695 -0.1490 -0.7388
  785MOL0     H 5918   8.211   0.766   1.431  1.2973  0.7829 -1.5318
  785MOL0     H 5919   8.123   0.644   1.341 -1.1396 -1.6840 -0.0327
  785MOL0     H 5920   8.257   0.622   1.621 -0.0257  2.2067 -0.1767
  785MOL0     H 5921   8.085   0.636   1.593  0.9466  0.4559  0.4959
  785MOL0     H 5922   8.248   0.388   1.520 -1.2439 -1.1162 -0.8440
  785MOL0     H 5923   8.143   0.406   1.661 -0.4195  1.5276  0.6969
  785MOL0     H 5924   8.028   0.431   1.395  0.6949 -4.1354 -1.6551
  785MOL0     H 5925   7.947   0.399   1.549 -0.1009  1.4035  0.5742
  785MOL0     H 5926   8.046   0.216   1.252  0.2347  0.0808  0.0081
  785MOL0     H 5927   8.006  -0.047   1.183 -1.1845  0.9288 -1.1697
  785MOL0     H 5928   7.935  -0.137   1.323  1.9021  0.8198  1.9548
  785MOL0     H 5929   7.792   0.099   1.186 -4.0884 -0.5851 -2.1854
  785MOL0     H 5930   7.728  -0.031   1.286 -1.0363  1.4093 -1.2704
  785MOL0     H 5931   7.778  -0.192   1.107  2.7532 -0.4710  0.3709
  785MOL0     H 5932   7.844  -0.054   1.008 -1.3742 -1.2548 -0.8680
  785MOL0     H 5933   7.565  -0.068   1.121  0.2343  3.4045  1.0936
  785MOL0     H 5934   7.608  -0.148   0.966 -2.0038  1.6675 -1.9811
  785MOL0     H 5935   7.579   0.281   0.872 -0.7657 -0.4242  3.6056
  785MOL0     H 5936   7.347   0.420   0.637  2.0529  1.8274  0.1582
  785MOL0     H 5937   7.346   0.486   0.800 -1.3641 -1.8274  1.7196
  785MOL0     H 5938   7.498   0.428   0.719  0.4386  0.5877 -4.2686
  785MOL0     H 5939   6.861   0.271   0.743 -3.3590 -2.2048  1.6038
  785MOL0     H 5940   6.631   0.267   0.646  1.8965  1.6523  1.1711
  785MOL0     H 5941   6.539   0.329   0.427 -0.1655  0.6924 -1.4487
  785MOL0     H 5942   6.649   0.272   0.301  2.8624 -3.2555  3.1996
  785MOL0     H 5943   6.414   0.330   0.220 -0.3529 -0.5982  0.8687
  785MOL0     H 5944   6.480   0.175   0.163  1.5748  0.8329 -0.2434
  785MOL0     H 5945   6.279   0.226   0.366 -0.9027 -0.1716 -0.5820
  785MOL0     H 5946   6.337   0.059   0.325 -3.0417 -2.2584 -3.0997
  785MOL0     H 5947   6.177   0.266   0.159  3.4413  1.7894  0.5286
  785MOL0     H 5948   6.217   0.106   0.096  0.3063 -1.6142  0.9482
  785MOL0     H 5949   6.051   0.164   0.354  0.8287 -1.6372  0.1361
  785MOL0     H 5950   6.098   0.003   0.299  1.5654 -0.3163  0.2811
  785MOL0     H 5951   5.915   0.198   0.138  2.6601  0.1557 -0.7534
  785MOL0     H 5952   5.937   0.016   0.109 -2.8801 -0.6921  0.5627
  785MOL0     H 5953   5.836  -0.001   0.344  0.1469  2.7094  2.4699
  785MOL0     H 5954   5.748   0.011   0.190  2.8614 -1.3753 -2.0091
  785MOL0     H 5955   5.653   0.139   0.363  0.6506 -2.0741  1.3403
  785MOL0     H 5956   5.691   0.234   0.234 -2.9060  1.4342  1.8978
  785MOL0     H 5957   6.750  -0.007   0.356 -1.5178 -0.3114 -0.3045
  785MOL0     H 5958   6.978  -0.049   0.476  1.2166  0.5849  1.2144
  785MOL0     H 5959   7.205  -0.030   0.819 -0.9522  0.0801  1.7600
  785MOL0     H 5960   7.403  -0.107   0.906  3.1742 -0.1346 -0.5050
  785MOL0     H 5961   8.974   0.597   1.083  0.3531 -3.7455  0.8034
  785MOL0     H 5962   9.212   0.641   1.106 -1.3120 -0.7786  0.4265
  785MOL0     H 5963   9.543   0.718   1.497  0.5704 -0.7805 -0.9532
  785MOL0     H 5964   9.764   0.791   1.586  0.1214 -0.5936  0.0387
  785MOL0     H 5965   9.976   1.084   1.326 -1.6959 -0.0829  0.8590
  785MOL0     H 5966  10.100   1.063   1.435  0.1999  0.5707 -1.1529
  785MOL0     H 5967  10.045   0.892   1.182 -1.9675  3.6088 -0.2909
  785MOL0     H 5968  10.179   0.863   1.291  0.3116 -0.3137  0.5605
  785MOL0     H 5969  10.271   1.065   1.248 -0.8798  2.5107  0.1341
  785MOL0     H 5970  10.130   1.135   1.176  0.9396  0.0138 -0.8655
  785MOL0     H 5971  10.264   0.888   1.057  1.9366  1.5776  2.1697
  785MOL0     H 5972  10.317   1.034   0.999  0.3869 -2.1245 -0.8809
  785MOL0     H 5973   9.926   1.077   0.840  0.6442  2.2555 -1.0009
  785MOL0     H 5974   9.855   0.963   1.207  0.1159 -0.5259 -0.3173
  785MOL0     H 5975   9.637   0.894   1.119  2.1653 -2.1499 -0.7221
  786MOL0     O 5976  10.369   5.738   1.894 -0.0143 -0.0659 -0.2824
  786MOL0     C 5977  10.417   5.659   1.808 -0.4590  0.8291  0.6151
  786MOL0     O 5978  10.346   5.586   1.714 -0.1813  0.3892 -0.6092
  786MOL0     C 5979  10.203   5.592   1.711 -0.2454  0.2080 -0.2638
  786MOL0     C 5980  10.119   5.574   1.827  0.1871 -1.2372  0.2671
  786MOL0     C 5981   9.976   5.569   1.808 -0.2429  0.5007 -0.3515
  786MOL0     C 5982   9.920   5.561   1.685  0.5958  0.2803  0.8597
  786MOL0     O 5983   9.782   5.535   1.680  0.0299  0.1087 -0.1622
  786MOL0     C 5984   9.708   5.537   1.557  1.0507  0.2243 -0.3222
  786MOL0     C 5985   9.708   5.390   1.485 -0.1142  0.5661  0.3553
  786MOL0     C 5986   9.612   5.382   1.360  0.1190  0.2112  0.5376
  786MOL0     C 5987   9.465   5.334   1.383 -0.0327 -0.4167 -0.7226
  786MOL0     C 5988   9.383   5.334   1.260 -0.2182 -0.5640  0.3494
  786MOL0     C 5989   9.240   5.291   1.279  1.6295  0.7056  0.1150
  786MOL0     C 5990   9.189   5.231   1.145 -0.2029 -0.7998  0.3013
  786MOL0     C 5991   9.042   5.184   1.156 -0.0989  0.4114  0.5612
  786MOL0     N 5992   8.955   5.295   1.151  0.3955 -0.2351  0.4262
  786MOL0     C 5993   8.908   5.343   1.027 -0.2653 -0.0969 -0.6293
  786MOL0     C 5994   8.816   5.438   1.060 -0.4271 -0.8911  0.3388
  786MOL0     C 5995   8.722   5.521   0.978 -0.6669 -0.0281  0.5914
  786MOL0     C 5996   8.755   5.500   0.829  0.2492  0.8116 -0.0166
  786MOL0     C 5997   8.699   5.610   0.732 -0.2917  0.5164  0.3495
  786MOL0     C 5998   8.553   5.604   0.715  0.5528 -0.0190 -0.2343
  786MOL0     O 5999   8.512   5.728   0.653  0.7506 -0.0579 -0.1102
  786MOL0     C 6000   8.389   5.784   0.670 -0.7554  0.0305  0.5011
  786MOL0     C 6001   8.290   5.727   0.753 -0.4422  0.4037  0.5714
  786MOL0     C 6002   8.165   5.788   0.753 -0.9058 -0.3327 -0.2423
  786MOL0     C 6003   8.072   5.727   0.855  0.2410  0.0584 -0.4103
  786MOL0     C 6004   8.145   5.915   0.694 -1.0595  0.7054 -0.6002
  786MOL0     C 6005   8.013   5.978   0.707  0.1558 -0.3340  0.0978
  786MOL0     O 6006   8.019   6.115   0.716 -0.0325 -0.0829  0.6261
  786MOL0     C 6007   7.914   6.180   0.666  0.4334  0.3246  0.5276
  786MOL0     C 6008   7.779   6.197   0.724  0.7779  0.0604  0.3810
  786MOL0     C 6009   7.673   6.248   0.654  0.1963  0.4309  0.7612
  786MOL0     C 6010   7.702   6.307   0.532  0.1147 -0.5792 -0.2393
  786MOL0     O 6011   7.595   6.364   0.454 -0.2075 -0.3143 -0.4650
  786MOL0     C 6012   7.458   6.363   0.510  0.9001 -0.2746  0.0450
  786MOL0     C 6013   7.355   6.429   0.411  1.0275  0.7595 -0.2285
  786MOL0     C 6014   7.209   6.383   0.412 -1.7858 -0.0631 -0.2224
  786MOL0     C 6015   7.136   6.451   0.299 -0.6402  0.0562  0.0962
  786MOL0     C 6016   6.992   6.415   0.306 -0.2006 -0.2367  0.3299
  786MOL0     C 6017   6.966   6.268   0.266  0.7948  0.0716 -0.2278
  786MOL0     C 6018   6.822   6.242   0.241 -0.4167  0.4270  0.6865
  786MOL0     C 6019   6.707   6.286   0.336 -0.9654 -0.0611  0.2341
  786MOL0    Cl 6020   6.697   6.219   0.487 -0.3777  0.1437  0.5745
  786MOL0     C 6021   7.830   6.296   0.470  0.7414  0.8648  0.2733
  786MOL0     C 6022   7.932   6.234   0.544 -0.6228  0.2545  0.8933
  786MOL0     O 6023   7.920   5.916   0.654 -0.5859  0.3614 -0.0564
  786MOL0     C 6024   8.256   5.977   0.627 -0.0319 -0.7113 -0.6500
  786MOL0     C 6025   8.376   5.918   0.632 -0.3962  0.0264  0.4767
  786MOL0     N 6026   8.819   5.459   1.194  0.1290  0.0329 -0.1065
  786MOL0     N 6027   8.898   5.368   1.249  0.0488 -0.4787  0.4847
  786MOL0     C 6028   9.996   5.575   1.568 -0.3167 -0.3294 -0.1187
  786MOL0     C 6029  10.142   5.588   1.584  0.2061  0.1043 -0.4242
  786MOL0     C 6030  10.570   5.668   1.797  0.9757  0.5971  0.1048
  786MOL0     C 6031  10.642   5.791   1.814  0.8620  0.2478 -0.4615
  786MOL0     C 6032  10.781   5.797   1.814  0.1142 -0.2883 -0.3894
  786MOL0     C 6033  10.850   5.680   1.778 -0.5899  0.0191 -0.4433
  786MOL0     O 6034  10.987   5.659   1.755 -0.3095 -0.7203  0.1574
  786MOL0     C 6035  11.073   5.769   1.799  0.8524 -0.5842 -0.2079
  786MOL0     C 6036  11.219   5.738   1.805 -0.6047  0.5652  0.0396
  786MOL0     C 6037  11.299   5.870   1.827  0.2810 -0.3863 -1.3561
  786MOL0     C 6038  11.429   5.854   1.906 -0.2360 -0.0914 -0.6741
  786MOL0     C 6039  11.540   5.805   1.819 -1.3860  0.0180 -0.2936
  786MOL0     C 6040  11.621   5.757   1.744  0.3540  1.1247  0.3974
  786MOL0     C 6041  10.789   5.563   1.746  1.0161 -0.8583  0.4316
  786MOL0     C 6042  10.649   5.560   1.763 -0.0913  0.0399 -0.0945
  786MOL0     H 6043  10.161   5.573   1.927  0.5269  1.4625  0.2261
  786MOL0     H 6044   9.908   5.546   1.889  0.5953 -0.5065  0.0844
  786MOL0     H 6045   9.605   5.559   1.583  1.1427  0.6279 -0.3012
  786MOL0     H 6046   9.744   5.621   1.496  2.6870  1.5665  2.3088
  786MOL0     H 6047   9.808   5.350   1.462 -1.1365 -3.3721  1.8805
  786MOL0     H 6048   9.658   5.320   1.553 -1.1773  1.3961  0.4402
  786MOL0     H 6049   9.624   5.478   1.309 -0.9987 -0.2496 -0.6642
  786MOL0     H 6050   9.662   5.316   1.288 -0.3184 -1.2527  1.5224
  786MOL0     H 6051   9.476   5.237   1.432 -1.1900  1.2860  3.2945
  786MOL0     H 6052   9.423   5.391   1.467  3.6879  2.2566 -0.4176
  786MOL0     H 6053   9.388   5.435   1.217  1.3632 -1.3020 -1.3690
  786MOL0     H 6054   9.426   5.269   1.183 -2.0376 -1.6376  0.1745
  786MOL0     H 6055   9.234   5.214   1.355 -1.2662  1.5550  0.8790
  786MOL0     H 6056   9.178   5.372   1.320  1.6049 -0.5178  2.6457
  786MOL0     H 6057   9.188   5.311   1.070  2.9841  2.3950  3.3161
  786MOL0     H 6058   9.252   5.153   1.100  0.6950  0.7993 -1.4091
  786MOL0     H 6059   9.025   5.124   1.246  0.4410 -0.0396  0.3699
  786MOL0     H 6060   9.022   5.128   1.064 -0.1381  0.8808  0.2860
  786MOL0     H 6061   8.943   5.304   0.932  1.0338  1.7194 -0.9323
  786MOL0     H 6062   8.618   5.495   1.000 -0.4956 -1.4297 -0.1220
  786MOL0     H 6063   8.733   5.624   1.015 -4.5325  0.9679 -0.5511
  786MOL0     H 6064   8.712   5.403   0.805  0.6939 -0.2106  2.9020
  786MOL0     H 6065   8.865   5.500   0.827  0.7462 -1.1011  6.1195
  786MOL0     H 6066   8.736   5.604   0.629 -1.5640 -0.9271 -0.0578
  786MOL0     H 6067   8.724   5.710   0.770  1.5957  1.6583 -3.4002
  786MOL0     H 6068   8.521   5.588   0.818  0.6571 -3.2012 -0.6090
  786MOL0     H 6069   8.522   5.524   0.647 -1.6758  2.0231 -1.7926
  786MOL0     H 6070   8.299   5.626   0.790 -0.5415  0.3412  0.4251
  786MOL0     H 6071   7.979   5.690   0.811 -1.1393  0.3777  2.0167
  786MOL0     H 6072   8.130   5.650   0.908 -0.0043  0.7401  0.8900
  786MOL0     H 6073   8.035   5.798   0.930 -1.8996 -3.4016  2.1190
  786MOL0     H 6074   7.752   6.148   0.818 -2.5112  1.3215  0.2123
  786MOL0     H 6075   7.577   6.250   0.704 -0.4829  3.0973 -0.4533
  786MOL0     H 6076   7.427   6.260   0.529 -0.7764  0.0712 -0.5892
  786MOL0     H 6077   7.452   6.421   0.603 -2.4151  0.7660 -0.6515
  786MOL0     H 6078   7.372   6.537   0.419  1.1327  0.6113  3.3012
  786MOL0     H 6079   7.394   6.402   0.313  2.2448  1.3691  0.0654
  786MOL0     H 6080   7.177   6.419   0.510 -0.2399 -1.6373  0.9239
  786MOL0     H 6081   7.196   6.275   0.403 -0.7378 -0.1227 -1.1806
  786MOL0     H 6082   7.165   6.556   0.300  3.5087 -0.9022 -0.3862
  786MOL0     H 6083   7.171   6.413   0.202 -2.4000  0.5080 -0.7451
  786MOL0     H 6084   6.940   6.478   0.233 -1.6038  0.8813  2.2303
  786MOL0     H 6085   6.945   6.446   0.399  1.0863  1.7367  0.3552
  786MOL0     H 6086   7.031   6.239   0.182  1.7001  1.1725  0.0649
  786MOL0     H 6087   6.988   6.199   0.348 -0.1067  0.6444  0.5232
  786MOL0     H 6088   6.809   6.136   0.215 -0.1368  1.0519 -2.4330
  786MOL0     H 6089   6.808   6.289   0.144  2.8692  1.1902  0.4735
  786MOL0     H 6090   6.611   6.277   0.284  0.9623  0.0120 -3.6965
  786MOL0     H 6091   6.723   6.393   0.355  3.4250 -0.8567  2.3228
  786MOL0     H 6092   7.844   6.349   0.376  1.1245  3.6185  1.7668
  786MOL0     H 6093   8.030   6.214   0.502 -0.3481 -2.3353  2.5605
  786MOL0     H 6094   8.256   6.079   0.590  0.2806 -0.5844 -0.3002
  786MOL0     H 6095   8.447   5.956   0.560 -1.9162  1.4313 -0.3494
  786MOL0     H 6096   9.951   5.566   1.470 -2.2505 -2.8566  0.8716
  786MOL0     H 6097  10.197   5.586   1.491 -0.1033  1.2867 -0.6488
  786MOL0     H 6098  10.582   5.878   1.838 -1.3896 -1.6122  1.0373
  786MOL0     H 6099  10.835   5.892   1.816  0.0160 -0.2442  1.0702
  786MOL0     H 6100  11.056   5.863   1.746 -1.1388 -0.2230  0.9639
  786MOL0     H 6101  11.044   5.796   1.901 -0.1226 -0.4567 -0.5083
  786MOL0     H 6102  11.252   5.676   1.721  1.5169 -1.2587  2.0841
  786MOL0     H 6103  11.232   5.680   1.897  0.5455  0.0048 -0.4675
  786MOL0     H 6104  11.232   5.940   1.878  1.6343 -0.7709  1.1315
  786MOL0     H 6105  11.331   5.913   1.732  1.3642  2.3615  0.1508
  786MOL0     H 6106  11.413   5.798   1.999 -1.4469  2.9636  1.1083
  786MOL0     H 6107  11.474   5.947   1.943 -2.6803  1.0875 -0.4232
  786MOL0     H 6108  11.684   5.711   1.671  1.3713  0.5748  1.5924
  786MOL0     H 6109  10.842   5.470   1.726  0.5149 -1.2494  0.9005
  786MOL0     H 6110  10.611   5.458   1.764 -0.2675  0.0218  2.9258
  787MOL0     O 6111   0.077   8.575   5.952  0.3979 -0.1642 -0.0678
  787MOL0     C 6112   0.168   8.604   6.022 -0.4120 -1.3451 -0.4322
  787MOL0     O 6113   0.176   8.591   6.150 -0.1543  0.2436 -0.3547
  787MOL0     C 6114   0.084   8.516   6.217 -0.0917 -0.5749 -0.0470
  787MOL0     C 6115  -0.053   8.538   6.212 -0.1455  0.5632 -0.0180
  787MOL0     C 6116  -0.138   8.454   6.282 -0.1329 -0.2288  1.0388
  787MOL0     C 6117  -0.099   8.342   6.349  0.3498  0.0281 -0.1220
  787MOL0     O 6118  -0.198   8.263   6.399 -0.0193  0.2226 -1.0456
  787MOL0     C 6119  -0.156   8.163   6.480 -0.3231  0.5235  0.4271
  787MOL0     C 6120  -0.291   8.105   6.546 -0.5270 -0.5308  0.0298
  787MOL0     C 6121  -0.242   7.984   6.626 -0.6233 -0.0590  0.6929
  787MOL0     C 6122  -0.363   7.905   6.681  0.2914  0.5825 -0.0122
  787MOL0     C 6123  -0.449   7.976   6.790 -0.3177  0.1302  0.0039
  787MOL0     C 6124  -0.362   8.000   6.924  0.4003  0.1156  0.8572
  787MOL0     C 6125  -0.445   8.065   7.031 -0.2810 -0.3089 -0.4822
  787MOL0     C 6126  -0.362   8.111   7.159 -0.4046 -0.0733 -0.4152
  787MOL0     N 6127  -0.448   8.116   7.272  0.4023 -0.5735 -1.0944
  787MOL0     C 6128  -0.537   8.215   7.302 -0.2472  0.2788  0.9172
  787MOL0     C 6129  -0.591   8.182   7.421 -0.0032 -0.7368  0.0243
  787MOL0     C 6130  -0.712   8.267   7.474 -0.9513 -0.4744  0.1628
  787MOL0     C 6131  -0.835   8.207   7.419 -0.6327 -0.3424 -0.6812
  787MOL0     C 6132  -0.975   8.275   7.440 -0.2684 -0.5906 -0.3441
  787MOL0     C 6133  -1.090   8.180   7.462 -0.2476 -0.0214  0.4085
  787MOL0     O 6134  -1.198   8.261   7.502  0.5450 -0.2105  0.3692
  787MOL0     C 6135  -1.326   8.203   7.520  0.5442 -0.1842  0.4651
  787MOL0     C 6136  -1.343   8.070   7.561  0.3919 -0.7182 -0.8650
  787MOL0     C 6137  -1.468   8.019   7.608  0.2535  0.4377  0.1777
  787MOL0     C 6138  -1.456   7.881   7.677 -0.8119 -1.1207 -0.2273
  787MOL0     C 6139  -1.584   8.105   7.594  0.0138  0.8153  0.9779
  787MOL0     C 6140  -1.721   8.063   7.616  0.0784  0.6480 -0.4453
  787MOL0     O 6141  -1.807   8.161   7.642 -0.0718  0.0699 -0.4075
  787MOL0     C 6142  -1.935   8.135   7.683  0.4311  0.2514  0.6880
  787MOL0     C 6143  -2.038   8.082   7.616  0.3060  0.4311  0.0388
  787MOL0     C 6144  -2.167   8.060   7.673 -0.1462 -0.3218  0.4677
  787MOL0     C 6145  -2.196   8.115   7.802  0.0426  0.3410  0.1202
  787MOL0     O 6146  -2.306   8.101   7.877 -0.0313 -0.0039 -0.3944
  787MOL0     C 6147  -2.417   8.030   7.814 -0.9470 -0.0334 -0.6467
  787MOL0     C 6148  -2.502   7.979   7.933 -0.8626 -0.2468  0.4332
  787MOL0     C 6149  -2.590   7.864   7.900  0.3340  0.8741 -0.9556
  787MOL0     C 6150  -2.714   7.851   7.992 -0.0332  0.7418 -0.9070
  787MOL0     C 6151  -2.823   7.752   7.940 -0.7156  0.5280 -0.4644
  787MOL0     C 6152  -2.749   7.615   7.906 -0.2149  0.1196 -0.6101
  787MOL0     C 6153  -2.834   7.486   7.888 -0.0011 -0.0323  0.6115
  787MOL0     C 6154  -2.922   7.451   8.010 -0.4694 -0.1744 -0.0568
  787MOL0    Cl 6155  -2.811   7.396   8.145 -0.2343 -0.0714 -0.3796
  787MOL0     C 6156  -2.091   8.183   7.862 -0.1737 -0.1309 -1.0675
  787MOL0     C 6157  -1.958   8.192   7.809  0.0176  0.6975  0.4060
  787MOL0     O 6158  -1.745   7.941   7.623 -1.1093 -0.2766  0.0361
  787MOL0     C 6159  -1.565   8.236   7.545 -0.0468  0.8212  0.4280
  787MOL0     C 6160  -1.442   8.278   7.504 -1.2941 -0.3220 -0.9364
  787MOL0     N 6161  -0.536   8.069   7.465 -0.4662  0.7725  0.4340
  787MOL0     N 6162  -0.456   8.025   7.377 -0.0579 -0.5626 -0.0090
  787MOL0     C 6163   0.038   8.333   6.365 -0.1651 -0.1211  0.2457
  787MOL0     C 6164   0.126   8.418   6.306  0.4025  0.3587  0.8034
  787MOL0     C 6165   0.284   8.681   5.963  0.8468 -0.6034 -0.6859
  787MOL0     C 6166   0.371   8.759   6.040 -0.1051 -0.4088 -0.1462
  787MOL0     C 6167   0.484   8.815   5.984 -0.4677 -0.0930 -0.4109
  787MOL0     C 6168   0.507   8.800   5.849  1.1467  0.0314  0.5706
  787MOL0     O 6169   0.610   8.859   5.787  0.5114 -0.2766  0.5202
  787MOL0     C 6170   0.698   8.950   5.859 -0.2257 -0.3135  0.6164
  787MOL0     C 6171   0.770   9.022   5.742  0.4302  0.8843 -0.5518
  787MOL0     C 6172   0.860   9.137   5.778 -0.0559  0.6109 -0.1423
  787MOL0     C 6173   0.929   9.198   5.658  0.6792  0.4126  0.2273
  787MOL0     C 6174   0.838   9.271   5.569  0.7963 -0.4086 -0.1593
  787MOL0     C 6175   0.765   9.331   5.494  0.6650  0.0886 -0.3945
  787MOL0     C 6176   0.417   8.734   5.765  0.7999 -0.5024 -0.8338
  787MOL0     C 6177   0.307   8.667   5.824 -0.9960 -0.6779  0.2156
  787MOL0     H 6178  -0.077   8.632   6.163  1.0964  3.0160  3.6160
  787MOL0     H 6179  -0.243   8.484   6.276  0.2167  0.6609 -1.8105
  787MOL0     H 6180  -0.115   8.081   6.420 -1.9251 -0.2017  0.2688
  787MOL0     H 6181  -0.084   8.176   6.561 -1.0334  0.5862  1.0637
  787MOL0     H 6182  -0.336   8.180   6.613  0.0075  0.2658 -0.4858
  787MOL0     H 6183  -0.370   8.077   6.476 -1.3904  2.0717 -0.1516
  787MOL0     H 6184  -0.175   7.923   6.564  0.9767  1.5669  0.7608
  787MOL0     H 6185  -0.186   8.022   6.712 -1.8024 -0.7398  1.7955
  787MOL0     H 6186  -0.431   7.878   6.600  0.3903  0.0834  0.0633
  787MOL0     H 6187  -0.333   7.813   6.733 -1.9302 -0.8108 -1.0668
  787MOL0     H 6188  -0.488   8.069   6.748 -0.2920 -0.2136 -0.7998
  787MOL0     H 6189  -0.527   7.903   6.814  1.3882 -1.4443  0.9998
  787MOL0     H 6190  -0.335   7.900   6.959  1.2856  0.6499  1.7509
  787MOL0     H 6191  -0.271   8.058   6.906 -0.1089  1.6243  2.7547
  787MOL0     H 6192  -0.505   8.149   6.996  1.2496  0.8775 -0.3649
  787MOL0     H 6193  -0.505   7.987   7.079 -0.2347  0.5154  0.9924
  787MOL0     H 6194  -0.338   8.216   7.142 -0.8358  0.6256  2.5947
  787MOL0     H 6195  -0.275   8.045   7.167 -0.5533 -0.4063 -1.3768
  787MOL0     H 6196  -0.565   8.298   7.238  0.4186 -1.3568 -1.6517
  787MOL0     H 6197  -0.710   8.267   7.584  0.5731 -1.1509  0.1628
  787MOL0     H 6198  -0.705   8.370   7.438 -2.8370  0.8081  3.0633
  787MOL0     H 6199  -0.837   8.102   7.450 -0.1015 -1.0452 -2.8247
  787MOL0     H 6200  -0.821   8.204   7.311  1.6698  3.5579 -0.6842
  787MOL0     H 6201  -0.994   8.350   7.362  3.8125  3.0829  1.7368
  787MOL0     H 6202  -0.966   8.341   7.527 -0.5732  1.4201 -1.7514
  787MOL0     H 6203  -1.056   8.120   7.547  1.7578  0.8099  0.2430
  787MOL0     H 6204  -1.115   8.128   7.369 -0.2435  0.3592  0.1920
  787MOL0     H 6205  -1.262   7.999   7.573 -0.4329 -1.4187  0.8805
  787MOL0     H 6206  -1.527   7.873   7.760 -0.1986 -2.3796  0.2029
  787MOL0     H 6207  -1.473   7.803   7.603  2.0878 -2.1661  0.0836
  787MOL0     H 6208  -1.363   7.866   7.732 -1.7897 -1.6874  1.3568
  787MOL0     H 6209  -2.033   8.033   7.519 -1.1646 -2.5867  1.3266
  787MOL0     H 6210  -2.247   8.015   7.616  2.4891 -0.0476 -3.9687
  787MOL0     H 6211  -2.472   8.091   7.741 -0.1077  3.4055  1.3548
  787MOL0     H 6212  -2.384   7.935   7.771 -1.2456 -1.6255  2.4054
  787MOL0     H 6213  -2.426   7.956   8.007  1.1244  1.2966 -1.0297
  787MOL0     H 6214  -2.573   8.062   7.947 -0.1785  0.8116 -1.8377
  787MOL0     H 6215  -2.548   7.764   7.913 -0.7718  0.3949 -0.9632
  787MOL0     H 6216  -2.622   7.873   7.795  2.0518 -1.1694 -1.7309
  787MOL0     H 6217  -2.670   7.815   8.086 -0.7283  4.5655  1.0767
  787MOL0     H 6218  -2.763   7.947   8.010  1.0190  1.0592  0.4434
  787MOL0     H 6219  -2.867   7.793   7.848 -0.7471 -1.3258 -1.3272
  787MOL0     H 6220  -2.902   7.731   8.012  1.0403 -0.8842  1.1820
  787MOL0     H 6221  -2.700   7.628   7.809  0.6790 -1.3362 -0.3692
  787MOL0     H 6222  -2.667   7.589   7.972 -2.0179 -1.2618  1.2133
  787MOL0     H 6223  -2.764   7.404   7.867 -0.1344 -0.3782  1.4669
  787MOL0     H 6224  -2.894   7.517   7.802  1.2705  1.2980  0.1626
  787MOL0     H 6225  -2.979   7.363   7.978  1.0799 -0.6966 -1.4996
  787MOL0     H 6226  -2.990   7.534   8.031  0.3025 -0.0134  2.0889
  787MOL0     H 6227  -2.110   8.224   7.960 -1.7670 -1.9376 -0.5592
  787MOL0     H 6228  -1.883   8.245   7.866  2.1293 -0.6125 -1.0157
  787MOL0     H 6229  -1.660   8.288   7.536 -0.4467 -0.0698 -0.7699
  787MOL0     H 6230  -1.406   8.379   7.485 -0.7278  0.4158  3.0697
  787MOL0     H 6231   0.087   8.258   6.426  0.2364 -1.3819 -1.5530
  787MOL0     H 6232   0.230   8.406   6.333  0.6447  0.9016  0.1271
  787MOL0     H 6233   0.344   8.774   6.144  0.2280  0.1602 -0.1349
  787MOL0     H 6234   0.540   8.881   6.050 -2.7482  0.7166  0.8290
  787MOL0     H 6235   0.642   9.028   5.913 -1.5838  0.6283 -1.9981
  787MOL0     H 6236   0.764   8.896   5.928  0.4748 -1.8437 -1.1889
  787MOL0     H 6237   0.695   9.067   5.676 -0.4735  0.2102 -0.0119
  787MOL0     H 6238   0.815   8.942   5.681 -0.2264 -0.1947  0.3338
  787MOL0     H 6239   0.931   9.091   5.847 -0.8784  3.9660  3.2322
  787MOL0     H 6240   0.812   9.207   5.846 -4.9582 -1.2638 -1.2444
  787MOL0     H 6241   0.976   9.120   5.597 -0.2728  0.0941 -0.1239
  787MOL0     H 6242   1.005   9.263   5.700 -0.1231  0.5143  1.5798
  787MOL0     H 6243   0.699   9.388   5.432  1.2178  1.4613  0.2367
  787MOL0     H 6244   0.434   8.728   5.658  1.0141  0.0003 -0.8306
  787MOL0     H 6245   0.253   8.598   5.760 -2.3670 -2.6134  3.2401
  788MOL0     O 6246   1.267   9.564   8.115 -0.2275 -0.0228 -0.4522
  788MOL0     C 6247   1.258   9.445   8.159  0.0365 -0.5229  0.0698
  788MOL0     O 6248   1.144   9.360   8.151 -0.5483  0.2711  0.4030
  788MOL0     C 6249   1.040   9.409   8.081  0.1540  0.0491 -0.3156
  788MOL0     C 6250   0.913   9.421   8.145 -0.1854 -0.6933 -0.2943
  788MOL0     C 6251   0.805   9.486   8.072  0.1232 -0.1927 -0.3422
  788MOL0     C 6252   0.825   9.534   7.944  0.0769  0.1768  0.4013
  788MOL0     O 6253   0.715   9.600   7.902 -0.1302  0.5674  0.1124
  788MOL0     C 6254   0.678   9.575   7.770 -0.0864  0.3388  0.6221
  788MOL0     C 6255   0.538   9.630   7.754  0.8021 -0.1149 -0.3414
  788MOL0     C 6256   0.443   9.567   7.855  0.8238 -0.2679  0.5777
  788MOL0     C 6257   0.304   9.638   7.851  0.5465 -0.6831 -0.8838
  788MOL0     C 6258   0.231   9.633   7.987  1.2692  0.4184  0.2484
  788MOL0     C 6259   0.082   9.672   7.979 -0.3761 -0.1266  0.9329
  788MOL0     C 6260   0.012   9.683   8.115 -0.2293 -0.0299  0.1967
  788MOL0     C 6261  -0.142   9.711   8.101  0.3753 -0.8240 -0.7689
  788MOL0     N 6262  -0.217   9.685   8.231  0.1783  0.5322 -0.8746
  788MOL0     C 6263  -0.274   9.562   8.260 -0.5895  0.6973 -0.5952
  788MOL0     C 6264  -0.353   9.588   8.369 -0.0601  0.6182 -0.3490
  788MOL0     C 6265  -0.420   9.480   8.451 -0.4184 -0.1390 -0.0867
  788MOL0     C 6266  -0.570   9.455   8.423 -0.8967  0.4769 -0.1097
  788MOL0     C 6267  -0.593   9.405   8.273  0.2886  0.1500 -0.3221
  788MOL0     C 6268  -0.743   9.394   8.233  0.3872 -0.1621 -0.4282
  788MOL0     O 6269  -0.759   9.321   8.106  0.0553 -0.1829  0.3055
  788MOL0     C 6270  -0.860   9.385   8.034 -0.2432  0.6096 -0.6278
  788MOL0     C 6271  -0.840   9.510   7.980 -0.5706  0.5757 -0.5694
  788MOL0     C 6272  -0.936   9.572   7.906  0.7444 -1.0834 -0.3138
  788MOL0     C 6273  -0.905   9.706   7.841 -0.2359  0.4122  0.4844
  788MOL0     C 6274  -1.060   9.508   7.873 -0.9125 -0.0371  0.0805
  788MOL0     C 6275  -1.178   9.569   7.811  0.4761  0.5983 -0.1745
  788MOL0     O 6276  -1.196   9.701   7.823  0.2908 -0.0074 -0.4274
  788MOL0     C 6277  -1.318   9.757   7.796 -0.4732 -0.1718  0.5736
  788MOL0     C 6278  -1.318   9.863   7.698  0.1324 -0.0366 -0.1690
  788MOL0     C 6279  -1.446   9.909   7.660 -0.7791 -0.4822  0.2033
  788MOL0     C 6280  -1.565   9.866   7.713 -0.2171 -0.4292 -0.3983
  788MOL0     O 6281  -1.679   9.915   7.657 -0.8290 -1.0034 -0.4427
  788MOL0     C 6282  -1.806   9.885   7.710 -0.0665  0.0388  0.2945
  788MOL0     C 6283  -1.920   9.964   7.641 -0.7684  0.4837  0.3650
  788MOL0     C 6284  -1.906  10.112   7.665 -0.0531 -0.8163  0.3731
  788MOL0     C 6285  -2.038  10.192   7.647 -0.3287  0.7691 -0.4503
  788MOL0     C 6286  -2.017  10.332   7.710  0.0948 -0.2978 -0.1881
  788MOL0     C 6287  -2.149  10.403   7.735 -0.1672  0.4261  1.4215
  788MOL0     C 6288  -2.229  10.423   7.608 -0.5328  0.2638  0.1113
  788MOL0     C 6289  -2.159  10.519   7.496  0.0683 -0.0419 -0.1711
  788MOL0    Cl 6290  -2.282  10.561   7.367 -0.0101 -0.0731  0.1628
  788MOL0     C 6291  -1.563   9.762   7.802  0.3007 -0.6585 -0.1898
  788MOL0     C 6292  -1.442   9.701   7.843  0.1695  0.5754  0.4379
  788MOL0     O 6293  -1.251   9.492   7.745 -0.0976 -0.3867 -0.0584
  788MOL0     C 6294  -1.081   9.381   7.933  0.4964  0.5127  0.3136
  788MOL0     C 6295  -0.985   9.315   8.007 -0.2960  0.0278 -0.4070
  788MOL0     N 6296  -0.320   9.717   8.414  0.2642  0.5272 -0.2564
  788MOL0     N 6297  -0.243   9.775   8.325  0.1079 -0.2285  0.0519
  788MOL0     C 6298   0.950   9.516   7.885  1.0705  0.3715  0.2174
  788MOL0     C 6299   1.058   9.450   7.952  0.4795 -0.0137  1.1435
  788MOL0     C 6300   1.383   9.401   8.230  0.4440 -0.3151 -0.0091
  788MOL0     C 6301   1.493   9.484   8.253  0.8030 -0.0310  0.4025
  788MOL0     C 6302   1.609   9.435   8.324 -0.2576 -0.2792  0.2192
  788MOL0     C 6303   1.608   9.304   8.376  0.2904 -0.0086 -0.3308
  788MOL0     O 6304   1.721   9.256   8.438 -0.2287  0.9479 -0.2613
  788MOL0     C 6305   1.704   9.214   8.580  0.1473  0.2304  0.1262
  788MOL0     C 6306   1.844   9.208   8.631 -0.2831  0.3379  0.3010
  788MOL0     C 6307   1.903   9.082   8.572  0.3709 -0.5275 -0.3887
  788MOL0     C 6308   2.055   9.076   8.564  0.3629 -0.8870  0.4911
  788MOL0     C 6309   2.093   8.936   8.532  0.9367  0.0806 -0.7644
  788MOL0     C 6310   2.122   8.824   8.508  0.1761 -0.3746  0.7790
  788MOL0     C 6311   1.501   9.223   8.343 -0.2745 -0.3463  0.3019
  788MOL0     C 6312   1.385   9.272   8.284 -0.1885  0.2375  0.3476
  788MOL0     H 6313   0.896   9.381   8.245  1.3571  2.1891  1.2515
  788MOL0     H 6314   0.715   9.504   8.129  1.9585 -3.3421  4.1956
  788MOL0     H 6315   0.747   9.630   7.706  2.1967 -0.6932  2.0816
  788MOL0     H 6316   0.694   9.473   7.736 -1.1556  0.3404  0.0478
  788MOL0     H 6317   0.547   9.736   7.778  1.6612 -0.1072 -0.6555
  788MOL0     H 6318   0.504   9.621   7.650 -2.6166 -2.7529  0.8539
  788MOL0     H 6319   0.439   9.458   7.843  3.5342 -0.3190 -0.6557
  788MOL0     H 6320   0.482   9.577   7.957  0.4241  0.0192  0.7025
  788MOL0     H 6321   0.317   9.745   7.835 -0.5888 -0.7631 -2.6412
  788MOL0     H 6322   0.242   9.597   7.770  0.6136  0.2238 -1.4053
  788MOL0     H 6323   0.239   9.528   8.020 -0.9414  0.0184 -0.2983
  788MOL0     H 6324   0.291   9.697   8.053  0.3399 -1.8103  3.5602
  788MOL0     H 6325   0.065   9.761   7.917 -3.2826 -0.7076  0.7548
  788MOL0     H 6326   0.034   9.587   7.931 -2.4193  0.7488  1.2952
  788MOL0     H 6327   0.016   9.582   8.156  1.9436  0.5711  1.6322
  788MOL0     H 6328   0.069   9.751   8.179 -0.6685  0.1200  0.4391
  788MOL0     H 6329  -0.195   9.650   8.027 -1.5871 -2.7407  2.0057
  788MOL0     H 6330  -0.159   9.817   8.079 -1.7889 -0.3077  2.5678
  788MOL0     H 6331  -0.272   9.473   8.198  2.0789  0.4765 -0.2722
  788MOL0     H 6332  -0.368   9.385   8.433  1.2280  0.4409  1.3039
  788MOL0     H 6333  -0.401   9.505   8.556  1.9822  0.8116 -0.6878
  788MOL0     H 6334  -0.633   9.544   8.435  1.1446  2.0572 -0.4066
  788MOL0     H 6335  -0.609   9.387   8.499 -1.0237  1.3529  0.6226
  788MOL0     H 6336  -0.556   9.305   8.250 -2.7163 -1.3119  0.7888
  788MOL0     H 6337  -0.543   9.488   8.222  0.8232  1.3667  2.0168
  788MOL0     H 6338  -0.775   9.498   8.228  3.1981  1.0780  2.7284
  788MOL0     H 6339  -0.803   9.336   8.305  1.0069 -0.8317 -0.4382
  788MOL0     H 6340  -0.753   9.570   8.005 -1.3323  1.1210  0.9393
  788MOL0     H 6341  -0.906   9.704   7.732 -0.1713  0.6160  0.4796
  788MOL0     H 6342  -0.965   9.792   7.873 -0.3310  0.1460  1.0309
  788MOL0     H 6343  -0.799   9.724   7.859 -0.0324 -0.2583 -0.0214
  788MOL0     H 6344  -1.233   9.897   7.639 -1.6626  1.5582 -1.9812
  788MOL0     H 6345  -1.440   9.990   7.587 -1.4475 -0.7100 -0.1154
  788MOL0     H 6346  -1.833   9.780   7.697 -3.7875  1.1082 -1.9718
  788MOL0     H 6347  -1.807   9.917   7.815  0.0070  2.0964 -0.2954
  788MOL0     H 6348  -1.918   9.927   7.538  0.3301 -0.6231  0.7552
  788MOL0     H 6349  -2.013   9.933   7.691 -1.8287  2.9417  0.0706
  788MOL0     H 6350  -1.831  10.150   7.595 -0.6402 -0.6888 -0.2070
  788MOL0     H 6351  -1.865  10.128   7.765 -1.7792  2.6171  0.6643
  788MOL0     H 6352  -2.073  10.198   7.543 -1.5652  0.3003 -0.0764
  788MOL0     H 6353  -2.116  10.138   7.701 -0.9480 -1.2638 -3.1607
  788MOL0     H 6354  -1.955  10.392   7.643 -0.6416  1.3172  0.5491
  788MOL0     H 6355  -1.961  10.322   7.803  0.2955  1.1153 -0.1438
  788MOL0     H 6356  -2.204  10.349   7.813 -0.2578 -0.4272  0.7854
  788MOL0     H 6357  -2.132  10.503   7.776  0.4414  1.1719 -0.5678
  788MOL0     H 6358  -2.332  10.451   7.631 -0.7990 -0.5353 -0.0780
  788MOL0     H 6359  -2.241  10.327   7.558  2.4133 -0.6723  0.9868
  788MOL0     H 6360  -2.074  10.466   7.451 -1.1571  0.4925 -3.3287
  788MOL0     H 6361  -2.109  10.600   7.550  1.9879 -2.2096  1.5294
  788MOL0     H 6362  -1.660   9.729   7.840 -0.9181  1.1618 -1.5554
  788MOL0     H 6363  -1.446   9.613   7.907  0.2579 -1.1932 -1.8779
  788MOL0     H 6364  -1.167   9.320   7.910  2.1471 -1.1509 -2.0267
  788MOL0     H 6365  -1.008   9.212   8.030  0.1954 -0.3077 -1.3771
  788MOL0     H 6366   0.973   9.539   7.781 -1.7635  2.5597 -0.0469
  788MOL0     H 6367   1.147   9.438   7.890 -1.3228  2.4459 -2.2063
  788MOL0     H 6368   1.505   9.584   8.214 -0.0446  2.7364  6.1736
  788MOL0     H 6369   1.698   9.497   8.322 -1.7051  1.8885  0.7576
  788MOL0     H 6370   1.651   9.288   8.641  1.0291 -0.5254  1.8871
  788MOL0     H 6371   1.648   9.121   8.592  0.5469  0.1945  2.1779
  788MOL0     H 6372   1.850   9.195   8.739  1.8255 -1.1376  0.0755
  788MOL0     H 6373   1.875   9.310   8.604 -2.3560  0.6804 -1.0089
  788MOL0     H 6374   1.861   9.085   8.471 -3.2844  1.3536  1.0182
  788MOL0     H 6375   1.861   9.000   8.630  0.2509 -1.6133 -1.9569
  788MOL0     H 6376   2.100   9.108   8.658  0.0886 -0.7508  0.5765
  788MOL0     H 6377   2.082   9.149   8.488 -1.6430  0.2183  0.7695
  788MOL0     H 6378   2.152   8.725   8.480  0.2185  0.3183 -1.8756
  788MOL0     H 6379   1.492   9.119   8.374  0.8339 -0.3367  0.7036
  788MOL0     H 6380   1.298   9.209   8.270  1.5628 -2.5313  1.0408
  789MOL0     O 6381  10.782   2.408   7.454  0.4930 -0.8367  0.5400
  789MOL0     C 6382  10.673   2.455   7.454  0.2196  0.2869 -0.5043
  789MOL0     O 6383  10.608   2.486   7.571  0.6700  0.3881 -0.3580
  789MOL0     C 6384  10.693   2.534   7.675  0.1045  0.1744 -0.0098
  789MOL0     C 6385  10.791   2.635   7.661  0.7225  0.4331 -0.1750
  789MOL0     C 6386  10.861   2.679   7.769  0.3111  0.0535 -0.3089
  789MOL0     C 6387  10.843   2.626   7.897  0.2173 -0.3224  0.0063
  789MOL0     O 6388  10.901   2.699   7.996 -0.3479  0.0211  0.3365
  789MOL0     C 6389  10.912   2.647   8.137  0.1054  0.2378  0.3257
  789MOL0     C 6390  10.969   2.751   8.237 -0.8452  0.2276  0.1469
  789MOL0     C 6391  10.886   2.883   8.237 -0.4693 -0.4140  0.4331
  789MOL0     C 6392  10.964   3.010   8.302  0.5011 -0.1062 -0.1061
  789MOL0     C 6393  10.872   3.133   8.302 -0.2869  1.3954  0.9387
  789MOL0     C 6394  10.935   3.249   8.372 -0.7309  0.0203 -0.0405
  789MOL0     C 6395  10.851   3.371   8.362 -0.5866  0.0519  0.6614
  789MOL0     C 6396  10.904   3.488   8.439  0.0972 -0.1321  0.0915
  789MOL0     N 6397  10.798   3.571   8.493 -0.0318  0.6097 -0.0358
  789MOL0     C 6398  10.759   3.694   8.448 -0.2744 -0.2361 -0.3298
  789MOL0     C 6399  10.699   3.763   8.550 -0.2543 -0.6252  0.0234
  789MOL0     C 6400  10.649   3.903   8.540  0.1677 -0.6891 -0.4810
  789MOL0     C 6401  10.706   3.975   8.666 -0.2428 -0.3187 -0.3686
  789MOL0     C 6402  10.685   4.132   8.660  1.0120  0.4333  0.0235
  789MOL0     C 6403  10.535   4.189   8.658  1.2978  0.9378  0.3749
  789MOL0     O 6404  10.479   4.133   8.775 -0.4445  0.5511 -0.4480
  789MOL0     C 6405  10.351   4.165   8.787 -0.1015 -0.0094 -0.1084
  789MOL0     C 6406  10.286   4.292   8.797 -0.3331 -0.1604  0.2374
  789MOL0     C 6407  10.149   4.300   8.822  0.2800 -0.1600  0.1025
  789MOL0     C 6408  10.091   4.442   8.835 -0.4446 -0.7213  0.4590
  789MOL0     C 6409  10.062   4.186   8.836  0.7410  0.0297  0.5495
  789MOL0     C 6410   9.913   4.191   8.853  0.3700  0.1954 -0.3816
  789MOL0     O 6411   9.836   4.298   8.826 -0.0113 -0.2311 -0.1541
  789MOL0     C 6412   9.710   4.288   8.886 -0.2182 -0.4317 -0.4190
  789MOL0     C 6413   9.600   4.314   8.806 -0.3486  0.1611 -0.0974
  789MOL0     C 6414   9.472   4.344   8.863  0.1437 -0.4388 -0.5786
  789MOL0     C 6415   9.458   4.350   9.003 -0.4014 -1.1431 -0.0146
  789MOL0     O 6416   9.341   4.393   9.056  0.3764  0.1926  0.1278
  789MOL0     C 6417   9.337   4.421   9.199 -1.3834  0.0741 -0.4168
  789MOL0     C 6418   9.219   4.515   9.221 -0.0597  0.7937 -0.7789
  789MOL0     C 6419   9.174   4.534   9.366 -0.1457 -0.1139  0.1488
  789MOL0     C 6420   9.031   4.592   9.388 -0.0621 -0.5683  0.1098
  789MOL0     C 6421   8.919   4.489   9.360  0.1812 -0.3858  0.7627
  789MOL0     C 6422   8.769   4.540   9.374 -0.3812  0.0236 -0.7162
  789MOL0     C 6423   8.671   4.428   9.333 -0.5234  0.3327  0.2574
  789MOL0     C 6424   8.528   4.456   9.364 -0.2197  0.0847  0.1194
  789MOL0    Cl 6425   8.409   4.352   9.294 -0.0252 -0.1660 -0.1022
  789MOL0     C 6426   9.567   4.316   9.082  0.1620 -0.2768  0.4722
  789MOL0     C 6427   9.691   4.282   9.021  0.4186  0.0203  0.0307
  789MOL0     O 6428   9.875   4.092   8.909  0.2895  0.4609  0.0489
  789MOL0     C 6429  10.126   4.058   8.808  0.0415 -0.2209 -0.0075
  789MOL0     C 6430  10.264   4.052   8.790  0.5611 -0.0656 -0.1247
  789MOL0     N 6431  10.715   3.682   8.663  0.3839 -0.4257  0.5161
  789MOL0     N 6432  10.773   3.573   8.627 -0.6331  0.4026  0.4505
  789MOL0     C 6433  10.739   2.536   7.920  0.2805  0.6074 -0.1014
  789MOL0     C 6434  10.671   2.481   7.814  0.4584 -0.7079  0.5715
  789MOL0     C 6435  10.599   2.456   7.322  0.4008  0.0824  0.2819
  789MOL0     C 6436  10.640   2.375   7.215 -0.7121 -0.2455  0.2717
  789MOL0     C 6437  10.578   2.379   7.094  0.4163  0.4673  0.7346
  789MOL0     C 6438  10.453   2.461   7.082 -0.1529 -0.7123  0.9934
  789MOL0     O 6439  10.376   2.458   6.968 -0.4626 -0.4772  0.7556
  789MOL0     C 6440  10.387   2.347   6.882 -0.5724 -0.1329  0.1146
  789MOL0     C 6441  10.262   2.334   6.789 -0.0976  0.2471 -0.0253
  789MOL0     C 6442  10.254   2.477   6.719 -0.1997 -0.0021  0.9804
  789MOL0     C 6443  10.173   2.462   6.585 -0.0128  0.4804 -0.3583
  789MOL0     C 6444  10.030   2.453   6.616 -0.1044  0.3905  0.4086
  789MOL0     C 6445   9.912   2.451   6.648 -0.2632 -0.9280  0.0980
  789MOL0     C 6446  10.406   2.545   7.186 -0.1467  0.3050 -0.7688
  789MOL0     C 6447  10.477   2.530   7.312 -0.3206 -0.1595 -0.1211
  789MOL0     H 6448  10.818   2.689   7.571 -0.2945  1.6322  0.2098
  789MOL0     H 6449  10.929   2.762   7.761  1.5560 -1.0742 -2.1310
  789MOL0     H 6450  10.810   2.639   8.177  0.3111 -1.9978  0.4907
  789MOL0     H 6451  10.960   2.549   8.141 -2.1927 -0.9018  2.2483
  789MOL0     H 6452  10.948   2.714   8.338 -2.4554  1.3250  0.2489
  789MOL0     H 6453  11.077   2.758   8.224 -0.9488  0.1991 -0.7910
  789MOL0     H 6454  10.874   2.921   8.135  2.7659  1.2474  0.5350
  789MOL0     H 6455  10.787   2.872   8.281  0.3304 -0.6621  2.2291
  789MOL0     H 6456  10.995   2.973   8.400  0.3946  1.7278  0.6529
  789MOL0     H 6457  11.062   3.037   8.262  0.5581 -0.6411 -0.3339
  789MOL0     H 6458  10.852   3.159   8.197 -1.4525 -1.7449  0.2756
  789MOL0     H 6459  10.776   3.106   8.346 -0.5889  1.0781  0.1109
  789MOL0     H 6460  10.964   3.218   8.473  0.6786  0.5092 -0.2726
  789MOL0     H 6461  11.038   3.266   8.337 -0.3994 -0.0745  0.8648
  789MOL0     H 6462  10.840   3.390   8.255  0.5732  1.4392  0.7543
  789MOL0     H 6463  10.753   3.343   8.403  0.2697 -0.8794  2.1623
  789MOL0     H 6464  10.973   3.534   8.367 -1.9080  1.4024 -0.9470
  789MOL0     H 6465  10.958   3.454   8.528 -1.9302  0.8607  1.7864
  789MOL0     H 6466  10.772   3.736   8.349 -2.6442  2.0533  0.2043
  789MOL0     H 6467  10.680   3.958   8.451  0.4640  0.8877  0.5457
  789MOL0     H 6468  10.540   3.902   8.542  0.1752 -1.7546  0.0181
  789MOL0     H 6469  10.813   3.955   8.670 -0.4748 -1.8952  4.5493
  789MOL0     H 6470  10.662   3.934   8.757 -1.9361 -1.3300 -1.5655
  789MOL0     H 6471  10.722   4.180   8.570 -2.0201  0.0295 -1.5721
  789MOL0     H 6472  10.740   4.190   8.735 -0.1826  1.1046  0.4052
  789MOL0     H 6473  10.485   4.162   8.564  0.6460  0.4252  0.8519
  789MOL0     H 6474  10.526   4.297   8.668 -1.0688  0.7350  1.2823
  789MOL0     H 6475  10.350   4.379   8.798 -0.5276  0.0313  2.6537
  789MOL0     H 6476  10.170   4.516   8.818  0.3002 -1.1769  1.8430
  789MOL0     H 6477  10.010   4.457   8.763  0.2209 -1.7102 -0.5275
  789MOL0     H 6478  10.063   4.461   8.939 -1.0434  0.9481  0.0304
  789MOL0     H 6479   9.596   4.326   8.698  1.7445 -1.7445 -0.4578
  789MOL0     H 6480   9.379   4.359   8.809 -1.7277  1.2564  2.8516
  789MOL0     H 6481   9.330   4.334   9.265 -2.2561  0.0336 -0.5562
  789MOL0     H 6482   9.420   4.486   9.228 -1.8303 -0.2737  1.8873
  789MOL0     H 6483   9.243   4.615   9.182 -0.7895  1.1522 -0.3221
  789MOL0     H 6484   9.130   4.486   9.165 -0.9732  0.7518  0.6398
  789MOL0     H 6485   9.252   4.604   9.398 -0.7263  0.3623  0.5663
  789MOL0     H 6486   9.195   4.446   9.429  0.0230 -0.1341  0.0645
  789MOL0     H 6487   9.016   4.627   9.491 -1.3482 -3.5448  1.0594
  789MOL0     H 6488   9.026   4.674   9.317  3.8523 -0.3300 -0.0857
  789MOL0     H 6489   8.935   4.408   9.433 -2.9078 -1.0995  0.7764
  789MOL0     H 6490   8.929   4.449   9.259  0.1517  0.0929  0.5679
  789MOL0     H 6491   8.758   4.571   9.478  1.5294  1.1274 -0.7940
  789MOL0     H 6492   8.756   4.622   9.303 -1.7590 -1.8824 -2.8281
  789MOL0     H 6493   8.704   4.336   9.383  0.0955 -0.0494 -0.8291
  789MOL0     H 6494   8.679   4.405   9.227  1.1745  2.8934 -0.2437
  789MOL0     H 6495   8.509   4.558   9.330 -0.4736  0.6476  1.8252
  789MOL0     H 6496   8.508   4.472   9.471  1.0502  2.6121  0.0772
  789MOL0     H 6497   9.560   4.316   9.190  0.1108  0.5757  0.4806
  789MOL0     H 6498   9.774   4.261   9.087  0.3665  1.6931  0.6783
  789MOL0     H 6499  10.065   3.969   8.797  1.0697 -0.7842 -1.4867
  789MOL0     H 6500  10.309   3.961   8.752  3.9075  1.8238 -1.0535
  789MOL0     H 6501  10.724   2.503   8.022  0.3257 -3.6693 -1.2843
  789MOL0     H 6502  10.610   2.391   7.818  2.3017 -2.0019  0.9771
  789MOL0     H 6503  10.732   2.319   7.222  1.2494  2.9523  3.1766
  789MOL0     H 6504  10.632   2.330   7.014  1.7977  4.4904 -1.0928
  789MOL0     H 6505  10.470   2.372   6.816 -1.4408  2.3044 -0.1325
  789MOL0     H 6506  10.419   2.250   6.923  0.4609  0.2507  0.2325
  789MOL0     H 6507  10.170   2.319   6.847  1.4200 -3.4551  1.7571
  789MOL0     H 6508  10.277   2.246   6.725 -0.2425 -0.1338  0.4565
  789MOL0     H 6509  10.356   2.506   6.693  0.4647 -1.6045  1.6957
  789MOL0     H 6510  10.207   2.556   6.779 -1.2465  0.9080 -0.9442
  789MOL0     H 6511  10.205   2.382   6.517  2.1214  3.0629 -2.6313
  789MOL0     H 6512  10.198   2.559   6.540  0.4526  0.4844 -0.0926
  789MOL0     H 6513   9.807   2.434   6.661 -0.2479 -0.9292  0.2151
  789MOL0     H 6514  10.313   2.599   7.176 -1.6532 -0.7569  4.2684
  789MOL0     H 6515  10.422   2.589   7.385 -0.2629  1.7088 -1.5050
  790MOL0     O 6516   9.511   4.199   5.620 -0.4308  0.3658 -0.6875
  790MOL0     C 6517   9.478   4.257   5.725 -0.1440 -0.7332 -0.4246
  790MOL0     O 6518   9.365   4.233   5.801  0.2435  0.4071  0.0918
  790MOL0     C 6519   9.277   4.124   5.801  0.5443 -0.0841  0.6807
  790MOL0     C 6520   9.277   4.017   5.713 -0.2400  0.5331 -0.0267
  790MOL0     C 6521   9.179   3.911   5.718 -0.3608  0.0399 -0.3371
  790MOL0     C 6522   9.082   3.922   5.815 -0.4163  0.3849  1.3538
  790MOL0     O 6523   8.983   3.832   5.840  0.5544  0.2734 -0.1154
  790MOL0     C 6524   9.000   3.702   5.777 -0.2757 -0.5569 -1.3417
  790MOL0     C 6525   8.888   3.607   5.793 -0.1566  0.2218 -0.4345
  790MOL0     C 6526   8.753   3.662   5.732  0.1714 -0.5018  0.1985
  790MOL0     C 6527   8.631   3.571   5.768  0.5774 -0.3941 -0.3028
  790MOL0     C 6528   8.502   3.626   5.691  0.0896  0.8656 -0.0150
  790MOL0     C 6529   8.499   3.578   5.547  0.2266  0.9799  0.7472
  790MOL0     C 6530   8.371   3.624   5.467 -0.7974  0.3007 -0.2458
  790MOL0     C 6531   8.404   3.604   5.312  0.1287  0.4279 -0.8435
  790MOL0     N 6532   8.302   3.650   5.223 -0.1272 -0.1083  0.0989
  790MOL0     C 6533   8.166   3.614   5.219 -0.9466 -0.2937 -0.0010
  790MOL0     C 6534   8.117   3.697   5.129  1.5767  0.0590 -0.4747
  790MOL0     C 6535   7.973   3.703   5.098 -0.6045  0.3482 -0.8206
  790MOL0     C 6536   7.922   3.841   5.066 -1.1184 -0.4767 -0.3621
  790MOL0     C 6537   7.809   3.830   4.962 -0.4921 -0.1074 -0.3560
  790MOL0     C 6538   7.750   3.966   4.926  1.0753  0.2528 -0.1662
  790MOL0     O 6539   7.623   3.962   4.850  0.5495 -0.0947 -0.1179
  790MOL0     C 6540   7.501   3.974   4.912 -0.5554  0.5663  0.0936
  790MOL0     C 6541   7.467   3.900   5.029 -0.5617  0.0995  0.1201
  790MOL0     C 6542   7.330   3.897   5.077 -0.2203 -0.1311 -0.3424
  790MOL0     C 6543   7.288   3.832   5.208  0.2847  0.4011 -0.4664
  790MOL0     C 6544   7.232   3.974   5.007  0.0936 -0.2487  0.1407
  790MOL0     C 6545   7.087   3.975   5.041 -0.1268 -0.7228  0.9470
  790MOL0     O 6546   7.022   4.096   5.022 -0.2540 -0.2181  0.1321
  790MOL0     C 6547   6.893   4.102   5.049  0.4395 -0.1837 -0.2529
  790MOL0     C 6548   6.841   4.162   5.168 -0.5776  0.0781 -0.3765
  790MOL0     C 6549   6.712   4.158   5.205 -0.2429  1.3711 -0.0581
  790MOL0     C 6550   6.616   4.112   5.116 -0.8665 -0.1746  0.5279
  790MOL0     O 6551   6.487   4.105   5.162  0.4736 -0.5940  0.6301
  790MOL0     C 6552   6.391   4.019   5.097 -1.2675 -0.0321 -0.2373
  790MOL0     C 6553   6.249   4.043   5.152  0.2345 -0.0440 -0.2387
  790MOL0     C 6554   6.230   3.936   5.265 -0.5701 -0.1705  0.5562
  790MOL0     C 6555   6.081   3.925   5.308  1.3471  0.5471  0.4466
  790MOL0     C 6556   6.033   4.013   5.432 -0.3868 -0.7151 -0.0355
  790MOL0     C 6557   5.881   3.995   5.451 -0.8019  0.2250 -0.2918
  790MOL0     C 6558   5.824   4.089   5.559  0.6761 -0.2433 -0.2969
  790MOL0     C 6559   5.679   4.066   5.573 -0.0193 -0.1329  0.4801
  790MOL0    Cl 6560   5.613   4.199   5.670  0.0968 -0.0045  0.0859
  790MOL0     C 6561   6.661   4.063   4.988  0.9336  0.2231 -0.4386
  790MOL0     C 6562   6.797   4.057   4.962  0.2277 -0.4527  0.3271
  790MOL0     O 6563   7.026   3.875   5.069  0.4122  0.0747  0.1607
  790MOL0     C 6564   7.275   4.041   4.895 -0.0257  0.1215 -0.5141
  790MOL0     C 6565   7.403   4.041   4.848 -0.1088  0.0391 -0.0732
  790MOL0     N 6566   8.212   3.786   5.088  0.7985  0.2664 -0.9030
  790MOL0     N 6567   8.318   3.763   5.157 -0.2649 -0.3245 -0.8807
  790MOL0     C 6568   9.079   4.029   5.896 -0.9490 -0.6072 -0.3793
  790MOL0     C 6569   9.164   4.138   5.889 -0.7272 -0.7583 -0.4747
  790MOL0     C 6570   9.560   4.369   5.769 -0.3460  1.2861 -0.4482
  790MOL0     C 6571   9.701   4.364   5.777 -0.1867 -0.2640  0.0691
  790MOL0     C 6572   9.774   4.469   5.828 -0.5212 -0.4570  0.0261
  790MOL0     C 6573   9.715   4.590   5.875 -0.0364 -0.4370  0.0233
  790MOL0     O 6574   9.780   4.710   5.917  0.1884  0.2833 -0.3522
  790MOL0     C 6575   9.907   4.687   5.988  0.7943  0.0150 -0.2874
  790MOL0     C 6576   9.954   4.818   6.036 -0.3074 -0.0149  0.1621
  790MOL0     C 6577   9.965   4.911   5.916  0.2829 -0.3481 -0.2229
  790MOL0     C 6578  10.030   5.049   5.935 -0.3659 -0.8094  0.4921
  790MOL0     C 6579  10.178   5.042   5.921 -0.2003  0.2748 -0.0285
  790MOL0     C 6580  10.299   5.018   5.918  0.3735 -0.7475 -0.7009
  790MOL0     C 6581   9.576   4.590   5.877 -0.7440  0.0654  0.2293
  790MOL0     C 6582   9.496   4.484   5.826 -0.9255  0.7983  0.0668
  790MOL0     H 6583   9.355   3.998   5.639  1.0868 -1.5334  1.7924
  790MOL0     H 6584   9.185   3.827   5.650  0.0847  0.3146 -0.6370
  790MOL0     H 6585   9.007   3.720   5.670 -0.7893  0.8047 -1.1669
  790MOL0     H 6586   9.092   3.655   5.814  0.4862  0.5665 -1.7594
  790MOL0     H 6587   8.913   3.522   5.728 -3.8147  0.5626 -2.5542
  790MOL0     H 6588   8.889   3.561   5.892  1.0459 -1.9669 -1.3890
  790MOL0     H 6589   8.733   3.759   5.778 -0.8537 -2.2863  3.8782
  790MOL0     H 6590   8.773   3.667   5.624  3.5027 -2.5801  0.5758
  790MOL0     H 6591   8.650   3.467   5.739 -0.0796 -1.2651  2.1346
  790MOL0     H 6592   8.613   3.571   5.876 -1.8569  2.4882 -0.5717
  790MOL0     H 6593   8.412   3.580   5.733  0.7275 -1.3285 -0.8839
  790MOL0     H 6594   8.493   3.735   5.694 -1.3610  0.8129 -1.2743
  790MOL0     H 6595   8.590   3.611   5.495  1.6421 -0.8145  1.9344
  790MOL0     H 6596   8.505   3.469   5.550  0.1180  0.9824  1.1547
  790MOL0     H 6597   8.284   3.567   5.500 -1.8877  0.0509 -3.2155
  790MOL0     H 6598   8.362   3.732   5.484  1.5283  0.5911 -0.5010
  790MOL0     H 6599   8.411   3.496   5.294 -0.3478 -0.2022  2.1860
  790MOL0     H 6600   8.496   3.658   5.288 -0.9379  2.1033 -1.2942
  790MOL0     H 6601   8.108   3.554   5.289  0.7155  1.1247  2.7487
  790MOL0     H 6602   7.959   3.632   5.016  1.7960 -0.4398 -0.6189
  790MOL0     H 6603   7.922   3.659   5.184  1.4586  2.7108  1.8159
  790MOL0     H 6604   7.992   3.904   5.010 -1.5137  0.0857 -0.2272
  790MOL0     H 6605   7.892   3.891   5.158 -0.3109 -2.4290  1.0207
  790MOL0     H 6606   7.736   3.758   5.000 -1.5436  0.9302 -0.3598
  790MOL0     H 6607   7.848   3.780   4.872  3.0288  1.2344  0.2811
  790MOL0     H 6608   7.822   4.013   4.858  0.5494 -2.4822 -2.8352
  790MOL0     H 6609   7.720   4.026   5.012 -3.4128  1.8024 -2.5104
  790MOL0     H 6610   7.534   3.833   5.082 -2.0452 -1.2586  0.3364
  790MOL0     H 6611   7.377   3.813   5.269 -1.4950  0.1345  2.2348
  790MOL0     H 6612   7.224   3.890   5.275  1.8860 -1.1007  2.5609
  790MOL0     H 6613   7.233   3.739   5.192 -2.8689  2.3290 -1.7407
  790MOL0     H 6614   6.913   4.215   5.230 -0.1460 -0.9252  0.0010
  790MOL0     H 6615   6.676   4.199   5.299  1.3516 -0.1982  1.3045
  790MOL0     H 6616   6.388   4.032   4.988  0.3515  0.5096 -0.2407
  790MOL0     H 6617   6.434   3.926   5.137 -0.7287  1.6264  3.4425
  790MOL0     H 6618   6.249   4.147   5.187  0.4512  0.2152 -0.9972
  790MOL0     H 6619   6.175   4.043   5.072  0.0572  1.4437 -0.1092
  790MOL0     H 6620   6.312   3.949   5.337  1.0936  1.8731 -1.5532
  790MOL0     H 6621   6.251   3.836   5.227  0.5174 -0.0922  0.9118
  790MOL0     H 6622   6.017   3.953   5.224 -0.3330  1.2659  1.8915
  790MOL0     H 6623   6.061   3.820   5.327  2.1753  0.1032 -0.9723
  790MOL0     H 6624   6.055   4.118   5.411  1.9837 -0.6949  2.0386
  790MOL0     H 6625   6.088   3.992   5.524  2.9941  2.4877 -1.0708
  790MOL0     H 6626   5.833   3.991   5.353 -1.4922  0.7228  0.0203
  790MOL0     H 6627   5.871   3.891   5.484 -0.4000  0.7865  1.7637
  790MOL0     H 6628   5.841   4.191   5.521 -1.3339 -0.5675 -2.2946
  790MOL0     H 6629   5.886   4.083   5.648  0.3501  2.1352  0.1575
  790MOL0     H 6630   5.645   3.971   5.616 -3.9860  0.9707  0.1615
  790MOL0     H 6631   5.639   4.077   5.472 -0.4402 -0.3954  0.6177
  790MOL0     H 6632   6.598   4.026   4.908  1.2475 -1.1775 -0.0595
  790MOL0     H 6633   6.826   4.014   4.867 -1.5871  1.3768 -1.1384
  790MOL0     H 6634   7.197   4.093   4.840 -1.6366 -1.4578  0.1582
  790MOL0     H 6635   7.437   4.102   4.765  2.5235 -4.0774 -2.3837
  790MOL0     H 6636   9.009   4.030   5.979 -0.4235  2.3525  0.1400
  790MOL0     H 6637   9.151   4.215   5.964 -1.9425 -0.5056 -0.9169
  790MOL0     H 6638   9.751   4.274   5.744 -0.4152 -1.2265  2.1605
  790MOL0     H 6639   9.882   4.459   5.819 -0.5899 -1.0370 -0.1551
  790MOL0     H 6640   9.888   4.627   6.077  1.4595  0.4861  0.1819
  790MOL0     H 6641   9.981   4.635   5.926 -0.1159  1.7192 -2.9450
  790MOL0     H 6642  10.058   4.815   6.069  0.1253  2.6997 -0.7059
  790MOL0     H 6643   9.884   4.855   6.111 -1.0981 -0.0461 -0.5448
  790MOL0     H 6644   9.863   4.912   5.877  0.0938 -1.9443  0.1439
  790MOL0     H 6645  10.025   4.859   5.841  3.4634  0.3205  1.6866
  790MOL0     H 6646  10.008   5.094   6.032 -1.2284 -4.1002  1.9944
  790MOL0     H 6647   9.997   5.124   5.863 -0.2980 -1.6070 -0.4004
  790MOL0     H 6648  10.400   4.987   5.897  0.2229 -3.1052  1.5784
  790MOL0     H 6649   9.532   4.686   5.904  0.3497  1.1811 -1.6736
  790MOL0     H 6650   9.389   4.491   5.840 -1.6157 -2.8314 -2.1344
  791MOL0     O 6651   0.294   3.961   9.233  0.0428  0.0356  0.3036
  791MOL0     C 6652   0.183   3.943   9.200  0.4752 -0.2398 -0.7633
  791MOL0     O 6653   0.088   3.876   9.268  0.2701  0.4137  0.7418
  791MOL0     C 6654   0.097   3.816   9.386 -0.1721  0.3618 -0.1458
  791MOL0     C 6655   0.184   3.707   9.411  0.0187 -0.0982  0.3975
  791MOL0     C 6656   0.172   3.621   9.521  0.1711  0.7904 -0.0999
  791MOL0     C 6657   0.061   3.634   9.605  0.6935  0.0266  0.4111
  791MOL0     O 6658   0.023   3.553   9.715 -0.1638  0.0858 -0.0057
  791MOL0     C 6659   0.097   3.433   9.735  0.2184 -0.4967 -0.1835
  791MOL0     C 6660   0.033   3.349   9.848 -0.9592  0.1585 -0.0553
  791MOL0     C 6661  -0.117   3.343   9.846  0.4443  1.0694 -0.3435
  791MOL0     C 6662  -0.156   3.245   9.960  0.4093 -0.0723  0.0340
  791MOL0     C 6663  -0.311   3.234   9.939 -0.1010 -0.2540 -0.4096
  791MOL0     C 6664  -0.372   3.138  10.034 -0.1106 -0.0137  0.2624
  791MOL0     C 6665  -0.527   3.133  10.020 -0.8112 -0.6471 -0.5298
  791MOL0     C 6666  -0.582   3.035  10.130  0.4021 -0.8425  0.0671
  791MOL0     N 6667  -0.726   3.070  10.141  0.6021  0.8024 -0.0382
  791MOL0     C 6668  -0.814   3.056  10.046  0.8750  0.3030  0.2247
  791MOL0     C 6669  -0.941   3.052  10.115  0.8285 -0.2232 -1.0520
  791MOL0     C 6670  -1.070   3.018  10.044 -0.1871 -0.6316 -0.6840
  791MOL0     C 6671  -1.100   2.872  10.075  0.3192 -0.7714 -1.2364
  791MOL0     C 6672  -1.242   2.823  10.039 -0.1313  0.0369  0.5072
  791MOL0     C 6673  -1.245   2.684  10.098  0.2206  0.5978  0.0319
  791MOL0     O 6674  -1.362   2.616  10.046 -0.4073 -0.1113  0.4937
  791MOL0     C 6675  -1.362   2.482  10.057 -0.0543  0.4375  0.2298
  791MOL0     C 6676  -1.471   2.425   9.988  0.3798  0.9250  0.5829
  791MOL0     C 6677  -1.491   2.287   9.992  0.6192  1.0303 -0.4664
  791MOL0     C 6678  -1.617   2.238   9.931 -0.4233  0.2885 -0.5559
  791MOL0     C 6679  -1.400   2.195  10.052 -0.3607  0.1918 -1.3897
  791MOL0     C 6680  -1.414   2.051  10.061  1.1057  0.3123  0.0646
  791MOL0     O 6681  -1.404   1.997  10.187  0.0978  0.0374 -0.2036
  791MOL0     C 6682  -1.495   1.898  10.209 -0.0343  0.1433 -0.5153
  791MOL0     C 6683  -1.453   1.775  10.251 -0.4834 -0.7039  0.1789
  791MOL0     C 6684  -1.538   1.675  10.286 -0.4768 -1.0596  0.1367
  791MOL0     C 6685  -1.679   1.694  10.273  0.0222 -0.0303 -0.9788
  791MOL0     O 6686  -1.749   1.579  10.315 -0.5555  0.0369  0.4409
  791MOL0     C 6687  -1.842   1.537  10.221 -0.3922 -0.1414  0.6050
  791MOL0     C 6688  -1.897   1.399  10.246 -0.1472  0.8136 -1.1767
  791MOL0     C 6689  -1.934   1.368  10.389  0.1077 -1.2214 -0.8445
  791MOL0     C 6690  -2.019   1.235  10.398  0.1894 -0.3023  0.4379
  791MOL0     C 6691  -2.071   1.225  10.545 -0.1775  0.6530  0.0186
  791MOL0     C 6692  -2.142   1.086  10.551  0.2193  0.3976 -0.2075
  791MOL0     C 6693  -2.249   1.098  10.653  0.3275  0.2160  0.3069
  791MOL0     C 6694  -2.342   0.986  10.654  0.2029  0.4408 -0.2915
  791MOL0    Cl 6695  -2.455   1.033  10.781 -0.5463  0.0361  0.2129
  791MOL0     C 6696  -1.732   1.811  10.229  0.2826  0.4452 -0.4767
  791MOL0     C 6697  -1.636   1.918  10.210  0.4847 -0.5187 -0.8601
  791MOL0     O 6698  -1.465   1.993   9.960 -0.3321  1.1013 -0.5122
  791MOL0     C 6699  -1.291   2.260  10.120 -0.8607 -0.1131 -0.9646
  791MOL0     C 6700  -1.274   2.400  10.121  0.1208 -0.3271  0.5629
  791MOL0     N 6701  -0.928   3.068  10.255 -0.2027  0.1225  0.1721
  791MOL0     N 6702  -0.797   3.052  10.266  0.0112 -0.2445  0.5849
  791MOL0     C 6703  -0.023   3.743   9.588  0.5707 -0.7616  0.6745
  791MOL0     C 6704  -0.011   3.825   9.478 -0.9600  0.0057  1.1052
  791MOL0     C 6705   0.143   3.996   9.067  0.0043  0.3161 -0.6864
  791MOL0     C 6706   0.009   4.020   9.036  0.0185  0.5134  0.3260
  791MOL0     C 6707  -0.032   4.080   8.918  0.1852  0.0128 -0.1182
  791MOL0     C 6708   0.068   4.117   8.819  0.3645  0.1974  0.1419
  791MOL0     O 6709   0.042   4.183   8.702 -0.3314  0.1561  0.5301
  791MOL0     C 6710  -0.085   4.244   8.679  0.4503  0.3735  0.1005
  791MOL0     C 6711  -0.123   4.360   8.765 -0.0241  0.0457  0.0392
  791MOL0     C 6712  -0.253   4.417   8.697  0.2602  0.0289 -0.6822
  791MOL0     C 6713  -0.342   4.508   8.779  0.1194 -0.7748 -0.1618
  791MOL0     C 6714  -0.472   4.544   8.724  0.2478  0.1960 -0.8993
  791MOL0     C 6715  -0.578   4.565   8.669  0.2188 -0.7564  0.4825
  791MOL0     C 6716   0.192   4.075   8.848 -0.0906 -1.1981 -0.6195
  791MOL0     C 6717   0.238   4.021   8.968 -0.0661  0.2502  0.7394
  791MOL0     H 6718   0.264   3.695   9.338  0.5501  1.2457  0.7369
  791MOL0     H 6719   0.244   3.545   9.550  0.2855  1.1921  0.6828
  791MOL0     H 6720   0.083   3.381   9.640 -2.5491 -1.1662  0.4831
  791MOL0     H 6721   0.202   3.449   9.762 -0.0903  0.8260  0.2869
  791MOL0     H 6722   0.070   3.246   9.843 -0.6156  0.1922  1.4649
  791MOL0     H 6723   0.066   3.378   9.948 -2.1078 -2.6714  1.2602
  791MOL0     H 6724  -0.164   3.438   9.874 -2.1888 -0.6143  1.4522
  791MOL0     H 6725  -0.142   3.316   9.744  1.8458  2.1550 -1.0089
  791MOL0     H 6726  -0.100   3.151   9.958  2.5812  1.1633 -0.7928
  791MOL0     H 6727  -0.135   3.291  10.057  1.4994 -0.1178 -0.1586
  791MOL0     H 6728  -0.350   3.336   9.951  1.0952  0.0050  1.5916
  791MOL0     H 6729  -0.321   3.197   9.836  3.5329 -0.9919 -0.6414
  791MOL0     H 6730  -0.332   3.036  10.028  0.0643  0.1188 -0.9789
  791MOL0     H 6731  -0.348   3.167  10.137  1.2314 -2.8254  0.8500
  791MOL0     H 6732  -0.564   3.232  10.052 -1.0450 -1.2160  1.0555
  791MOL0     H 6733  -0.557   3.120   9.916  2.4862 -1.2162 -1.5059
  791MOL0     H 6734  -0.537   3.053  10.228  0.5368 -2.9668  0.4586
  791MOL0     H 6735  -0.557   2.930  10.111  0.8281 -1.0092  1.4060
  791MOL0     H 6736  -0.798   3.026   9.943 -2.9065 -0.9391 -0.1291
  791MOL0     H 6737  -1.146   3.090  10.075  1.1067  0.2565  0.5531
  791MOL0     H 6738  -1.053   3.030   9.937  0.8392 -1.7265 -0.6727
  791MOL0     H 6739  -1.081   2.849  10.180  1.0870 -2.0455 -1.6320
  791MOL0     H 6740  -1.032   2.812  10.014  2.2879 -3.2815  2.9839
  791MOL0     H 6741  -1.266   2.826   9.933 -2.4256 -1.9447  0.9004
  791MOL0     H 6742  -1.325   2.881  10.079 -1.0250  2.2903 -4.0083
  791MOL0     H 6743  -1.238   2.683  10.207 -0.5267  5.4332  0.3654
  791MOL0     H 6744  -1.155   2.629  10.069 -0.2173 -1.9003  2.9239
  791MOL0     H 6745  -1.540   2.499   9.947  1.1011  1.5908  0.5442
  791MOL0     H 6746  -1.669   2.159   9.985 -2.9759 -0.4676 -3.7908
  791MOL0     H 6747  -1.698   2.311   9.942 -1.3953 -0.7026 -0.9545
  791MOL0     H 6748  -1.606   2.207   9.827  0.1883  0.7784 -0.6453
  791MOL0     H 6749  -1.348   1.753  10.269 -0.4181  0.5871  1.5670
  791MOL0     H 6750  -1.494   1.582  10.323  0.6279 -1.5571 -2.2389
  791MOL0     H 6751  -1.918   1.615  10.217 -0.0818  0.1690  0.6631
  791MOL0     H 6752  -1.788   1.539  10.126  0.0607 -1.7563  0.7924
  791MOL0     H 6753  -1.973   1.370  10.173 -1.4928  2.0979 -0.3544
  791MOL0     H 6754  -1.814   1.332  10.221 -0.7422  0.8654 -3.5508
  791MOL0     H 6755  -1.995   1.449  10.431  0.6939 -0.0315 -2.2363
  791MOL0     H 6756  -1.844   1.362  10.451 -0.1915  1.9441  0.0850
  791MOL0     H 6757  -2.103   1.248  10.329  0.8202 -0.2374 -0.3328
  791MOL0     H 6758  -1.961   1.147  10.370 -1.3008 -2.2976  3.1039
  791MOL0     H 6759  -2.121   1.315  10.580  0.0692  0.3267  1.2731
  791MOL0     H 6760  -1.980   1.212  10.604  0.4323 -0.3118 -1.0740
  791MOL0     H 6761  -2.199   1.055  10.462  0.9016  0.6419 -0.7378
  791MOL0     H 6762  -2.081   1.005  10.592 -1.8485  0.9791  4.7368
  791MOL0     H 6763  -2.306   1.191  10.640  0.6540  0.4487  0.5018
  791MOL0     H 6764  -2.207   1.098  10.754 -2.0787  0.9081  1.3810
  791MOL0     H 6765  -2.298   0.889  10.680 -0.2675  1.0117  3.0867
  791MOL0     H 6766  -2.397   0.985  10.560 -0.9062 -0.1999  0.3384
  791MOL0     H 6767  -1.838   1.833  10.223  0.3228  1.5701  1.8178
  791MOL0     H 6768  -1.678   2.017  10.192 -0.8962 -0.6830  1.0880
  791MOL0     H 6769  -1.226   2.191  10.173  0.3595  1.9515  0.3187
  791MOL0     H 6770  -1.190   2.444  10.173 -0.8180  1.5675  0.5623
  791MOL0     H 6771  -0.112   3.760   9.648  0.9745  3.1546  0.4170
  791MOL0     H 6772  -0.086   3.896   9.444 -0.8903  1.1476  3.1842
  791MOL0     H 6773  -0.070   3.999   9.108 -1.9871  1.3611 -1.5462
  791MOL0     H 6774  -0.136   4.102   8.895  0.2943 -0.3685 -1.0029
  791MOL0     H 6775  -0.083   4.288   8.579  1.1424 -2.5045 -1.2536
  791MOL0     H 6776  -0.161   4.165   8.690  1.1236 -0.4625 -1.0852
  791MOL0     H 6777  -0.054   4.444   8.759  0.7254 -0.4629  1.2263
  791MOL0     H 6778  -0.140   4.327   8.868  2.6298  3.0367  1.6101
  791MOL0     H 6779  -0.316   4.332   8.667  2.9854 -2.4752  0.2426
  791MOL0     H 6780  -0.233   4.462   8.600 -2.3997  0.4919 -1.0871
  791MOL0     H 6781  -0.279   4.596   8.793 -0.8814 -0.4238  2.9115
  791MOL0     H 6782  -0.363   4.462   8.877 -0.9013 -1.4519 -0.6762
  791MOL0     H 6783  -0.665   4.587   8.610  0.8472  1.5356  0.2888
  791MOL0     H 6784   0.285   4.088   8.794 -0.0603 -0.3237 -0.3707
  791MOL0     H 6785   0.344   4.000   8.974 -0.3834 -1.3286  1.4895
  792MOL0     O 6786   9.015  11.225   5.291 -0.8381 -0.1532  0.4111
  792MOL0     C 6787   8.955  11.117   5.281 -0.7039  1.3157 -0.0122
  792MOL0     O 6788   9.005  10.996   5.234 -0.4231 -0.0909  0.5701
  792MOL0     C 6789   9.136  11.007   5.196 -0.0008  0.1976 -0.7053
  792MOL0     C 6790   9.223  10.932   5.268  0.3083  0.3255 -0.3515
  792MOL0     C 6791   9.362  10.930   5.226 -0.4756  1.1214 -0.3111
  792MOL0     C 6792   9.403  11.001   5.114 -0.2508  0.0177 -0.6702
  792MOL0     O 6793   9.534  10.995   5.080  1.6208 -0.3389 -0.0185
  792MOL0     C 6794   9.577  11.056   4.953 -0.0410 -0.3980 -0.8966
  792MOL0     C 6795   9.730  11.083   4.945  0.5138 -0.6448 -0.1282
  792MOL0     C 6796   9.810  10.954   4.964 -0.0177 -0.8103 -0.0190
  792MOL0     C 6797   9.963  10.980   4.979 -0.1804 -0.3635 -1.1556
  792MOL0     C 6798  10.047  10.851   5.021  0.3409  0.0709 -0.1868
  792MOL0     C 6799  10.105  10.844   5.169 -0.6080  0.5370 -0.4116
  792MOL0     C 6800  10.240  10.921   5.180 -0.3536  0.1556 -0.3008
  792MOL0     C 6801  10.311  10.899   5.313  0.3083  0.2135 -0.3345
  792MOL0     N 6802  10.258  10.988   5.430 -0.6091 -0.5554 -0.5468
  792MOL0     C 6803  10.167  10.958   5.524 -0.0017  0.2094 -0.7517
  792MOL0     C 6804  10.175  11.070   5.604 -0.6134 -0.5801 -0.4283
  792MOL0     C 6805  10.115  11.083   5.747 -0.1850 -0.1475  0.9331
  792MOL0     C 6806   9.962  11.106   5.739  0.1343  0.3072  0.4462
  792MOL0     C 6807   9.898  11.214   5.835  0.2834 -0.0263 -0.6484
  792MOL0     C 6808   9.774  11.288   5.793 -0.4289  0.3000  0.5437
  792MOL0     O 6809   9.676  11.193   5.754 -0.6471 -0.3535  0.3677
  792MOL0     C 6810   9.551  11.236   5.727  0.4175  0.0754  0.8528
  792MOL0     C 6811   9.504  11.273   5.594 -0.4166  0.2813 -1.5328
  792MOL0     C 6812   9.378  11.321   5.565 -0.1120 -0.2840  0.2444
  792MOL0     C 6813   9.342  11.350   5.419  0.1562 -0.1814  1.3365
  792MOL0     C 6814   9.296  11.343   5.684 -0.4620  0.4064 -0.3013
  792MOL0     C 6815   9.159  11.381   5.685  0.8042  0.3780  1.0638
  792MOL0     O 6816   9.110  11.464   5.783 -0.9478  0.3433 -0.4942
  792MOL0     C 6817   8.976  11.494   5.778  0.7277  0.0200  0.9816
  792MOL0     C 6818   8.925  11.583   5.692 -0.2465 -0.3467  0.1574
  792MOL0     C 6819   8.785  11.599   5.680 -0.9622 -0.3914 -0.1416
  792MOL0     C 6820   8.699  11.536   5.756  1.5496  0.1689 -0.1784
  792MOL0     O 6821   8.560  11.570   5.744 -0.0371 -0.6629 -0.1648
  792MOL0     C 6822   8.460  11.522   5.836 -0.7336 -0.8605 -0.7162
  792MOL0     C 6823   8.324  11.587   5.802  0.6914 -0.0310 -0.5206
  792MOL0     C 6824   8.316  11.733   5.848  0.2594  0.7152 -0.4625
  792MOL0     C 6825   8.348  11.819   5.729 -0.2778  0.2078  0.4430
  792MOL0     C 6826   8.320  11.958   5.754 -0.3023  0.4396 -0.4442
  792MOL0     C 6827   8.180  12.008   5.797 -0.1302  0.3849  0.1710
  792MOL0     C 6828   8.198  12.164   5.826  0.6390  0.8898  0.2881
  792MOL0     C 6829   8.070  12.231   5.891 -0.4528 -0.3561  0.1423
  792MOL0    Cl 6830   8.095  12.399   5.873 -0.2091 -0.1266 -0.3113
  792MOL0     C 6831   8.747  11.440   5.847 -0.9637  0.3259  0.2180
  792MOL0     C 6832   8.885  11.414   5.851 -0.4125 -0.2240  0.2201
  792MOL0     O 6833   9.090  11.334   5.597  0.1687  0.1710 -0.4724
  792MOL0     C 6834   9.350  11.322   5.813  0.0888 -0.3988  0.5804
  792MOL0     C 6835   9.480  11.271   5.837 -0.0697 -0.3536  0.0292
  792MOL0     N 6836  10.272  11.162   5.557 -0.0734 -0.1861  0.0887
  792MOL0     N 6837  10.317  11.111   5.452  0.5631  0.4975  0.2773
  792MOL0     C 6838   9.304  11.065   5.036 -0.1456  0.5457  0.0859
  792MOL0     C 6839   9.173  11.071   5.079  1.2368  0.6347  0.1259
  792MOL0     C 6840   8.825  11.103   5.339 -0.4029 -0.7678  1.2638
  792MOL0     C 6841   8.726  11.014   5.285  0.8739  0.0253 -0.9199
  792MOL0     C 6842   8.599  11.012   5.347  0.4960  0.1856 -0.1390
  792MOL0     C 6843   8.566  11.088   5.460 -0.5986 -0.2686  0.5784
  792MOL0     O 6844   8.431  11.076   5.499 -0.4293  0.3301  0.2370
  792MOL0     C 6845   8.386  11.166   5.601  0.3149  0.8581 -0.2658
  792MOL0     C 6846   8.238  11.126   5.633  0.3326 -0.1426  0.0063
  792MOL0     C 6847   8.180  11.220   5.741 -0.0080 -0.3161  0.3792
  792MOL0     C 6848   8.032  11.184   5.768 -0.1958  0.5393  0.8452
  792MOL0     C 6849   7.947  11.191   5.644  0.2453  0.3729 -0.4588
  792MOL0     C 6850   7.865  11.209   5.549 -0.5833 -0.2430  0.1656
  792MOL0     C 6851   8.662  11.170   5.520 -0.0954 -0.2271  0.5659
  792MOL0     C 6852   8.795  11.176   5.462 -0.3935 -0.0198  0.7107
  792MOL0     H 6853   9.193  10.878   5.357 -2.6516  1.3120 -0.6396
  792MOL0     H 6854   9.438  10.874   5.279  0.2873 -0.4348 -2.8593
  792MOL0     H 6855   9.550  10.997   4.865 -0.1181  2.5292 -2.9694
  792MOL0     H 6856   9.537  11.158   4.952  1.9408  0.4037 -1.3750
  792MOL0     H 6857   9.754  11.125   4.847 -1.6559  2.1862  0.4400
  792MOL0     H 6858   9.760  11.148   5.027  2.1537 -1.9380  0.3641
  792MOL0     H 6859   9.778  10.909   5.058 -3.0122  0.7024 -0.1701
  792MOL0     H 6860   9.790  10.883   4.883  0.4087  0.7436 -1.5398
  792MOL0     H 6861  10.014  11.013   4.888 -2.8303  0.1968 -2.5114
  792MOL0     H 6862   9.988  11.058   5.052 -1.5060  2.1585 -3.2531
  792MOL0     H 6863   9.981  10.767   5.000  0.0245  0.4563 -0.7636
  792MOL0     H 6864  10.132  10.854   4.952  1.4538  3.9282  1.1038
  792MOL0     H 6865  10.032  10.885   5.238 -0.3620 -0.1074  0.2456
  792MOL0     H 6866  10.131  10.740   5.190  2.6919  1.1119 -0.9804
  792MOL0     H 6867  10.320  10.896   5.111  0.2540  4.2369 -1.3398
  792MOL0     H 6868  10.218  11.026   5.158  1.0150  0.2083 -1.5143
  792MOL0     H 6869  10.417  10.917   5.293  0.3760 -1.1258 -1.2912
  792MOL0     H 6870  10.296  10.796   5.345 -1.7356  0.5357 -0.0789
  792MOL0     H 6871  10.114  10.867   5.554  0.8638 -0.6539 -1.7574
  792MOL0     H 6872  10.126  10.991   5.805 -1.0000 -0.6205  0.3497
  792MOL0     H 6873  10.161  11.167   5.801 -0.6572 -0.8799  2.5407
  792MOL0     H 6874   9.910  11.011   5.754  1.4423 -0.4982  0.0226
  792MOL0     H 6875   9.937  11.118   5.633  0.8022 -0.2469  0.2265
  792MOL0     H 6876   9.969  11.293   5.861 -3.5250  3.0418  1.7241
  792MOL0     H 6877   9.865  11.165   5.927 -1.2511 -1.2349 -1.7893
  792MOL0     H 6878   9.788  11.357   5.709 -0.6654 -0.3357 -0.0156
  792MOL0     H 6879   9.731  11.356   5.867 -0.0419  1.3113 -0.1419
  792MOL0     H 6880   9.564  11.250   5.507  0.3672 -0.7149 -0.7572
  792MOL0     H 6881   9.328  11.457   5.402 -0.1388 -0.5276 -0.9292
  792MOL0     H 6882   9.422  11.320   5.351 -0.5971 -0.6206  0.6302
  792MOL0     H 6883   9.256  11.289   5.389 -0.0934 -0.0169  1.7123
  792MOL0     H 6884   8.994  11.639   5.629  0.3005 -1.8119 -0.6024
  792MOL0     H 6885   8.747  11.668   5.606  0.5808  0.5722 -0.0919
  792MOL0     H 6886   8.437  11.415   5.827 -0.7305 -1.1570  2.0666
  792MOL0     H 6887   8.497  11.526   5.939  0.9277  0.8902 -1.3407
  792MOL0     H 6888   8.294  11.566   5.698  2.0338 -1.8602 -0.6012
  792MOL0     H 6889   8.257  11.528   5.866  1.8251  0.9713  1.6707
  792MOL0     H 6890   8.379  11.758   5.934 -2.2919  0.0245  1.7537
  792MOL0     H 6891   8.213  11.743   5.883  0.0231 -0.5268 -0.7529
  792MOL0     H 6892   8.449  11.814   5.687 -0.8430 -2.2314 -0.8308
  792MOL0     H 6893   8.278  11.789   5.650  3.0219  2.3436 -3.7163
  792MOL0     H 6894   8.349  12.015   5.665  1.6732  0.2357  0.0220
  792MOL0     H 6895   8.394  11.982   5.831 -0.6766 -0.7467  0.2923
  792MOL0     H 6896   8.106  11.995   5.717 -0.5119  1.1438  0.3887
  792MOL0     H 6897   8.138  11.952   5.881 -0.2001  0.3600  0.1197
  792MOL0     H 6898   8.228  12.201   5.728  3.7321  1.8429  1.4689
  792MOL0     H 6899   8.282  12.185   5.894  1.2141  1.1788 -0.5024
  792MOL0     H 6900   8.050  12.186   5.988 -3.9110  0.0872 -0.2486
  792MOL0     H 6901   7.988  12.214   5.821  0.6937  0.4398 -1.4939
  792MOL0     H 6902   8.675  11.379   5.901  1.7372 -3.5049 -0.0819
  792MOL0     H 6903   8.915  11.329   5.911  2.2531  0.4858  0.0135
  792MOL0     H 6904   9.286  11.332   5.900 -0.8203  1.5475 -0.2554
  792MOL0     H 6905   9.503  11.248   5.941 -2.3100 -0.6732  0.5043
  792MOL0     H 6906   9.330  11.128   4.952 -1.4535  0.7723 -0.1813
  792MOL0     H 6907   9.096  11.121   5.022  0.8223  1.3110  1.2472
  792MOL0     H 6908   8.751  10.952   5.199  2.7266 -0.5641 -0.0310
  792MOL0     H 6909   8.519  10.965   5.291 -1.0983  0.5491  1.7320
  792MOL0     H 6910   8.445  11.156   5.693  2.0496  1.6542 -1.2296
  792MOL0     H 6911   8.393  11.270   5.568  2.9218  0.8270 -0.0439
  792MOL0     H 6912   8.234  11.019   5.655  4.5433 -0.2056  1.1447
  792MOL0     H 6913   8.185  11.134   5.538 -0.4057  1.1556  0.4959
  792MOL0     H 6914   8.189  11.324   5.709 -0.4646  0.1164  1.6224
  792MOL0     H 6915   8.227  11.202   5.838  2.5868  2.6928 -0.1355
  792MOL0     H 6916   7.984  11.243   5.847 -0.9550 -1.0574  1.6337
  792MOL0     H 6917   8.033  11.081   5.806  0.8720  0.6942  1.2820
  792MOL0     H 6918   7.800  11.197   5.464 -1.1439 -2.5630  0.8449
  792MOL0     H 6919   8.640  11.228   5.609  0.9379 -0.1515  0.7804
  792MOL0     H 6920   8.871  11.242   5.503 -1.8763  1.5961  0.9536
  793MOL0     O 6921   0.035   4.930   2.468  0.2101 -0.4305  0.0652
  793MOL0     C 6922   0.036   4.912   2.345  0.0516 -0.3391  0.2503
  793MOL0     O 6923  -0.075   4.924   2.259  0.8540  0.0582 -0.4880
  793MOL0     C 6924  -0.195   4.967   2.306 -0.0988 -0.0656  0.6597
  793MOL0     C 6925  -0.225   5.101   2.354  0.0177 -0.7255 -0.6642
  793MOL0     C 6926  -0.350   5.131   2.400 -0.6171  0.0854 -0.1857
  793MOL0     C 6927  -0.446   5.030   2.410 -1.1995 -0.3345 -0.3277
  793MOL0     O 6928  -0.570   5.053   2.456 -0.1258 -0.4575  0.0492
  793MOL0     C 6929  -0.615   5.181   2.519 -0.6057 -0.6351  0.7112
  793MOL0     C 6930  -0.757   5.187   2.496  0.2967 -0.2173 -0.1958
  793MOL0     C 6931  -0.837   5.106   2.601  0.0628  0.5938  0.0070
  793MOL0     C 6932  -0.948   5.024   2.536  0.9093 -0.3283  0.1958
  793MOL0     C 6933  -1.071   5.111   2.491  0.3192 -1.1094  0.3360
  793MOL0     C 6934  -1.198   5.037   2.463 -0.0217 -0.6696  0.2122
  793MOL0     C 6935  -1.184   4.904   2.394 -0.3872 -0.1584 -0.0465
  793MOL0     C 6936  -1.304   4.841   2.329  0.9263 -0.1557  0.2602
  793MOL0     N 6937  -1.281   4.715   2.258 -0.1138 -1.0658  0.2978
  793MOL0     C 6938  -1.241   4.717   2.124 -1.2591  0.4003 -0.0251
  793MOL0     C 6939  -1.240   4.589   2.094 -1.7047  0.0737  0.7871
  793MOL0     C 6940  -1.180   4.525   1.967  0.3186  0.6305 -1.4051
  793MOL0     C 6941  -1.027   4.506   1.962 -0.1441  0.2723  0.4787
  793MOL0     C 6942  -0.986   4.499   1.812  0.2599 -0.0742 -0.1502
  793MOL0     C 6943  -0.843   4.468   1.788  0.3063 -0.3294  0.3633
  793MOL0     O 6944  -0.815   4.459   1.646 -0.4587  0.3770  0.4605
  793MOL0     C 6945  -0.687   4.429   1.615  0.3459  0.1825  0.2503
  793MOL0     C 6946  -0.578   4.438   1.699  0.3156 -0.3098  0.4790
  793MOL0     C 6947  -0.446   4.407   1.662  0.0764 -0.2021 -0.1648
  793MOL0     C 6948  -0.342   4.412   1.774  0.6461 -0.4487  0.3277
  793MOL0     C 6949  -0.422   4.351   1.528  0.1729 -0.2010 -0.2872
  793MOL0     C 6950  -0.284   4.340   1.470 -0.4720 -1.1229 -0.6827
  793MOL0     O 6951  -0.266   4.243   1.378 -0.7786  0.8860 -0.8437
  793MOL0     C 6952  -0.144   4.208   1.327  0.6610 -0.0764 -0.1917
  793MOL0     C 6953  -0.139   4.079   1.273 -0.0172  0.4072  0.2497
  793MOL0     C 6954  -0.013   4.032   1.219 -0.0788 -0.9770  0.7736
  793MOL0     C 6955   0.096   4.109   1.230 -0.3803 -0.0253 -0.3326
  793MOL0     O 6956   0.211   4.048   1.187  0.2554  1.1599 -0.0326
  793MOL0     C 6957   0.331   4.120   1.192 -0.0399 -0.9902  0.1392
  793MOL0     C 6958   0.441   4.024   1.152  0.1469  0.2682 -0.1741
  793MOL0     C 6959   0.581   4.077   1.178 -1.1002  0.4850 -0.3136
  793MOL0     C 6960   0.665   3.967   1.244 -0.6180  0.3291 -0.3083
  793MOL0     C 6961   0.788   4.024   1.309  0.0842 -0.3720 -0.4323
  793MOL0     C 6962   0.906   4.038   1.208 -0.2691  0.0578  0.9080
  793MOL0     C 6963   1.022   4.121   1.248  0.0627  0.8432 -0.2925
  793MOL0     C 6964   1.138   4.101   1.145  0.2658  0.7298  0.0586
  793MOL0    Cl 6965   1.273   4.215   1.172  0.1182  0.2808  0.1852
  793MOL0     C 6966   0.087   4.240   1.277 -0.2638  0.4694 -0.0076
  793MOL0     C 6967  -0.034   4.291   1.316  0.5178 -0.7663 -0.1726
  793MOL0     O 6968  -0.194   4.416   1.507  0.0571  0.5139 -0.4108
  793MOL0     C 6969  -0.535   4.343   1.452  0.0538  1.1188  0.5153
  793MOL0     C 6970  -0.663   4.378   1.487 -1.0372  0.1188  0.0917
  793MOL0     N 6971  -1.262   4.512   2.199  0.6939 -0.5161 -0.3096
  793MOL0     N 6972  -1.300   4.586   2.292  0.2770 -0.1993 -0.1065
  793MOL0     C 6973  -0.423   4.898   2.366  0.2044  0.0873 -0.0652
  793MOL0     C 6974  -0.289   4.862   2.327 -0.3935 -0.3564 -0.1982
  793MOL0     C 6975   0.161   4.866   2.298  0.3701  0.3038  1.4584
  793MOL0     C 6976   0.214   4.742   2.342 -1.3017  0.2428  0.4444
  793MOL0     C 6977   0.340   4.695   2.301  0.4005 -0.7982 -0.5503
  793MOL0     C 6978   0.417   4.774   2.209  0.5021  0.0381 -0.3855
  793MOL0     O 6979   0.540   4.733   2.186 -0.2597  1.0374 -0.1855
  793MOL0     C 6980   0.558   4.662   2.064 -0.5163 -0.5167  0.0779
  793MOL0     C 6981   0.661   4.725   1.970 -0.4606 -0.9318 -0.4332
  793MOL0     C 6982   0.787   4.765   2.035  0.4291  0.3434 -0.1486
  793MOL0     C 6983   0.893   4.843   1.946 -0.7838  1.1061 -0.3979
  793MOL0     C 6984   1.022   4.852   2.014  0.0254 -0.3771  0.3097
  793MOL0     C 6985   1.137   4.858   2.049 -0.0996 -0.6286  0.1007
  793MOL0     C 6986   0.356   4.886   2.162  0.6192  0.0947 -0.2672
  793MOL0     C 6987   0.233   4.935   2.207 -0.5111 -0.1189  1.0014
  793MOL0     H 6988  -0.151   5.180   2.357 -1.2050  0.4191  2.0341
  793MOL0     H 6989  -0.373   5.235   2.422  0.1199  0.1647  0.2606
  793MOL0     H 6990  -0.586   5.200   2.622 -1.4305  0.8947  0.6991
  793MOL0     H 6991  -0.579   5.263   2.455 -4.2329 -0.0538 -0.8319
  793MOL0     H 6992  -0.787   5.292   2.507  1.5667  0.2201 -0.7649
  793MOL0     H 6993  -0.778   5.155   2.394  2.5927 -2.2194 -0.1357
  793MOL0     H 6994  -0.767   5.029   2.636 -0.5448 -1.5722 -3.1153
  793MOL0     H 6995  -0.865   5.171   2.684 -0.5141 -0.2223  0.4589
  793MOL0     H 6996  -0.914   4.959   2.455 -3.2583 -0.1858 -1.9182
  793MOL0     H 6997  -0.994   4.954   2.607 -1.5065  1.6784  0.7284
  793MOL0     H 6998  -1.095   5.188   2.565 -2.3923 -0.8168 -0.7027
  793MOL0     H 6999  -1.052   5.148   2.390 -2.8895  1.9077  0.6368
  793MOL0     H 7000  -1.252   5.005   2.552  0.6514 -0.6545  0.6314
  793MOL0     H 7001  -1.263   5.098   2.399  2.9948 -0.4708 -2.9881
  793MOL0     H 7002  -1.106   4.909   2.317 -1.1171  1.0516 -0.7591
  793MOL0     H 7003  -1.157   4.840   2.478  0.8182  0.7289  0.2749
  793MOL0     H 7004  -1.347   4.912   2.258 -0.5381  0.2827  1.5412
  793MOL0     H 7005  -1.377   4.825   2.408 -0.9995 -0.6002 -1.5250
  793MOL0     H 7006  -1.199   4.798   2.065  0.9223 -2.2912 -2.4656
  793MOL0     H 7007  -1.230   4.430   1.948 -1.8342  0.6579  2.9106
  793MOL0     H 7008  -1.208   4.590   1.883  1.5280  3.0113 -0.0811
  793MOL0     H 7009  -0.989   4.424   2.023  2.8050  0.0747 -1.4474
  793MOL0     H 7010  -0.977   4.594   2.003  3.2063 -1.6673  0.8689
  793MOL0     H 7011  -1.006   4.603   1.786  3.6347  0.3317 -1.6262
  793MOL0     H 7012  -1.047   4.434   1.749  2.7685 -1.7592 -0.9980
  793MOL0     H 7013  -0.829   4.368   1.830 -0.1520 -0.4792  0.1601
  793MOL0     H 7014  -0.781   4.552   1.821  2.1001 -1.4566  0.0175
  793MOL0     H 7015  -0.582   4.466   1.804  1.7229  1.9579  0.0148
  793MOL0     H 7016  -0.243   4.372   1.749  0.9315  0.8550 -0.7417
  793MOL0     H 7017  -0.327   4.518   1.797 -0.5577  0.7395 -3.6473
  793MOL0     H 7018  -0.370   4.353   1.862 -2.6807 -0.8640 -0.8515
  793MOL0     H 7019  -0.227   4.016   1.277  1.0533 -1.1710 -0.0882
  793MOL0     H 7020   0.001   3.937   1.168  0.8740 -0.3620 -0.1373
  793MOL0     H 7021   0.337   4.210   1.130  1.4156 -1.1411  0.0362
  793MOL0     H 7022   0.355   4.156   1.293  1.0921  2.5192 -1.2235
  793MOL0     H 7023   0.418   3.940   1.217  0.8053  0.3196  0.1298
  793MOL0     H 7024   0.426   3.991   1.049 -0.7669  0.1193 -0.0009
  793MOL0     H 7025   0.579   4.164   1.245 -0.5133  0.2660 -0.0063
  793MOL0     H 7026   0.634   4.103   1.086 -2.4730 -1.1490 -1.6272
  793MOL0     H 7027   0.612   3.915   1.324  1.4548  1.1301  1.7240
  793MOL0     H 7028   0.700   3.890   1.174 -0.4905 -0.0842  0.2070
  793MOL0     H 7029   0.833   3.955   1.381  1.5186  0.5049 -0.4414
  793MOL0     H 7030   0.769   4.122   1.353  0.7721  0.6146 -2.2286
  793MOL0     H 7031   0.955   3.940   1.206  0.3354  0.3477  1.2072
  793MOL0     H 7032   0.873   4.072   1.110  0.7364  0.0670  0.5608
  793MOL0     H 7033   1.047   4.080   1.347  2.1610 -1.7806 -1.7954
  793MOL0     H 7034   0.999   4.228   1.254 -2.0272  0.3905  1.3676
  793MOL0     H 7035   1.102   4.124   1.044 -2.2120  1.2451  0.9836
  793MOL0     H 7036   1.179   4.000   1.140  0.1960  0.7412 -1.1264
  793MOL0     H 7037   0.169   4.310   1.264 -0.0530  0.2982  0.3839
  793MOL0     H 7038  -0.051   4.397   1.335  1.5115 -0.6485  0.1416
  793MOL0     H 7039  -0.517   4.301   1.354 -0.7996  2.3396 -0.1929
  793MOL0     H 7040  -0.749   4.370   1.422 -2.1000 -0.5675  1.5214
  793MOL0     H 7041  -0.502   4.824   2.358  1.5882 -1.4271 -0.1545
  793MOL0     H 7042  -0.261   4.758   2.317  1.5517 -0.1939  2.4809
  793MOL0     H 7043   0.158   4.675   2.407 -3.7664  0.6264 -1.1355
  793MOL0     H 7044   0.368   4.599   2.342 -1.7631 -0.9839  0.6185
  793MOL0     H 7045   0.595   4.560   2.080  0.4383  0.1123  2.1868
  793MOL0     H 7046   0.467   4.647   2.005  0.0830 -4.6275 -0.0932
  793MOL0     H 7047   0.612   4.817   1.936 -1.0710  0.1393  2.9499
  793MOL0     H 7048   0.670   4.667   1.878 -1.0876 -1.2522 -0.2969
  793MOL0     H 7049   0.834   4.674   2.074  0.5397  0.0736 -0.8910
  793MOL0     H 7050   0.768   4.838   2.114  1.0220  2.0646 -1.5204
  793MOL0     H 7051   0.860   4.943   1.917 -0.9239  1.0900 -0.2924
  793MOL0     H 7052   0.910   4.791   1.851  0.8553  1.2028 -0.1995
  793MOL0     H 7053   1.237   4.854   2.089  0.8131  0.0664 -1.9822
  793MOL0     H 7054   0.407   4.955   2.096  0.1430 -1.7146 -2.6447
  793MOL0     H 7055   0.202   5.029   2.163 -0.2000 -0.2722  0.4424
  794MOL0     O 7056   7.939   7.790   5.034  0.8448 -0.1121 -0.3640
  794MOL0     C 7057   7.913   7.815   5.150 -0.5446  0.0988  0.5892
  794MOL0     O 7058   7.965   7.752   5.260 -0.9162  0.1506  0.1471
  794MOL0     C 7059   8.056   7.649   5.238  0.6350  0.1645 -0.2670
  794MOL0     C 7060   8.023   7.522   5.189 -0.1355  0.4754 -0.1863
  794MOL0     C 7061   8.117   7.419   5.158 -0.1967  0.3875  1.2162
  794MOL0     C 7062   8.254   7.451   5.180 -0.1875  0.0844  1.0789
  794MOL0     O 7063   8.337   7.344   5.157  0.2332 -0.1546 -0.2091
  794MOL0     C 7064   8.469   7.346   5.215 -0.2868 -0.1479 -0.1666
  794MOL0     C 7065   8.522   7.209   5.161  0.4494  0.1155 -0.4101
  794MOL0     C 7066   8.669   7.175   5.208  0.0392  0.2599 -0.3118
  794MOL0     C 7067   8.768   7.174   5.093 -0.1368  0.7388  0.2661
  794MOL0     C 7068   8.909   7.213   5.138  0.3883 -0.1465  0.5844
  794MOL0     C 7069   9.009   7.211   5.024 -0.4892 -0.6684  0.7722
  794MOL0     C 7070   9.150   7.220   5.079 -0.3826  0.4244  0.1103
  794MOL0     C 7071   9.249   7.244   4.957  0.1861  0.0364 -0.7396
  794MOL0     N 7072   9.385   7.259   5.023 -0.3726 -0.5244  1.1723
  794MOL0     C 7073   9.433   7.376   5.080  0.4534  0.4122 -0.0555
  794MOL0     C 7074   9.561   7.346   5.104  0.0453 -0.5518  0.2976
  794MOL0     C 7075   9.652   7.445   5.177  0.6026  0.1039  0.0400
  794MOL0     C 7076   9.793   7.424   5.137 -0.3892 -0.6721  0.2119
  794MOL0     C 7077   9.882   7.550   5.174  0.4002 -0.4707 -0.0127
  794MOL0     C 7078  10.025   7.529   5.131 -0.6588 -0.0057  0.5991
  794MOL0     O 7079  10.107   7.639   5.180  0.2710  0.1175 -0.2594
  794MOL0     C 7080  10.243   7.648   5.147 -0.0594 -0.2332 -0.8181
  794MOL0     C 7081  10.322   7.547   5.108 -0.1445  0.4722  1.0177
  794MOL0     C 7082  10.462   7.544   5.110 -0.4010 -0.1006 -0.1599
  794MOL0     C 7083  10.539   7.421   5.045 -0.8027  1.0058  0.5494
  794MOL0     C 7084  10.536   7.654   5.166 -0.3551  0.8918  0.2473
  794MOL0     C 7085  10.691   7.662   5.176  0.0190  0.2848 -0.1912
  794MOL0     O 7086  10.736   7.777   5.239 -0.8147 -0.2685 -0.5233
  794MOL0     C 7087  10.866   7.782   5.274 -0.0114 -0.1616 -1.2983
  794MOL0     C 7088  10.952   7.847   5.182  0.1996 -0.9260 -0.2043
  794MOL0     C 7089  11.080   7.859   5.215 -0.7202  1.0727  0.8896
  794MOL0     C 7090  11.130   7.812   5.336 -0.2254  0.4972 -0.4035
  794MOL0     O 7091  11.275   7.825   5.346 -0.1562 -0.3615  0.2074
  794MOL0     C 7092  11.339   7.774   5.462  0.0821  0.5406  1.1836
  794MOL0     C 7093  11.478   7.810   5.468 -0.0323 -0.0202 -0.1141
  794MOL0     C 7094  11.559   7.749   5.582  0.3939  0.1256  0.3510
  794MOL0     C 7095  11.574   7.846   5.702  0.5987 -0.7180 -0.0056
  794MOL0     C 7096  11.533   7.775   5.841  0.4664  0.7126 -0.3714
  794MOL0     C 7097  11.387   7.722   5.849  0.1631  0.6441  0.6141
  794MOL0     C 7098  11.345   7.694   6.002 -1.3434 -0.4137  0.3759
  794MOL0     C 7099  11.250   7.570   6.013  0.6397 -0.7574 -0.1432
  794MOL0    Cl 7100  11.097   7.615   5.929  0.5250 -0.2079  0.0134
  794MOL0     C 7101  11.043   7.754   5.434  1.1668 -0.7919 -0.2719
  794MOL0     C 7102  10.911   7.736   5.402  0.5550 -0.1562 -0.5285
  794MOL0     O 7103  10.761   7.575   5.130  0.8828 -0.7091 -0.2869
  794MOL0     C 7104  10.460   7.763   5.215  0.2090  0.3061 -0.1090
  794MOL0     C 7105  10.319   7.755   5.207 -0.9725 -0.0395  0.2160
  794MOL0     N 7106   9.597   7.220   5.060  0.2088 -0.0403  0.0313
  794MOL0     N 7107   9.491   7.168   5.008 -0.1510  0.5360 -0.1612
  794MOL0     C 7108   8.286   7.582   5.229 -0.5503  0.0394 -0.0026
  794MOL0     C 7109   8.188   7.675   5.250 -0.2353  0.0649  0.0801
  794MOL0     C 7110   7.813   7.914   5.188  0.1059 -0.0564 -0.1137
  794MOL0     C 7111   7.699   7.941   5.107  0.2272  0.3250 -0.1355
  794MOL0     C 7112   7.612   8.040   5.158  1.0845  0.4266 -0.1488
  794MOL0     C 7113   7.629   8.102   5.284 -0.3226  0.6691 -0.1321
  794MOL0     O 7114   7.542   8.199   5.327 -0.2443 -0.6354  0.1835
  794MOL0     C 7115   7.471   8.173   5.453 -0.7189 -0.3390 -0.2824
  794MOL0     C 7116   7.399   8.037   5.460 -0.3804  0.0037 -0.5279
  794MOL0     C 7117   7.274   8.040   5.361 -0.9018  0.2086  1.0343
  794MOL0     C 7118   7.202   7.906   5.348  0.4918  0.3824 -0.4025
  794MOL0     C 7119   7.288   7.812   5.278  0.0184  0.1979  0.4034
  794MOL0     C 7120   7.364   7.759   5.201 -0.3357  0.4054  0.3229
  794MOL0     C 7121   7.739   8.073   5.360 -0.5846 -0.4485 -0.2139
  794MOL0     C 7122   7.832   7.980   5.318  0.4560 -0.0235  0.1947
  794MOL0     H 7123   7.919   7.507   5.161 -0.9386  1.5464  1.9551
  794MOL0     H 7124   8.091   7.326   5.108  2.5645  0.0407  0.2534
  794MOL0     H 7125   8.533   7.429   5.186 -2.3623  1.6049 -0.0020
  794MOL0     H 7126   8.472   7.340   5.324  2.6432 -0.2881 -0.1942
  794MOL0     H 7127   8.459   7.123   5.186 -1.4202  1.0242 -1.7868
  794MOL0     H 7128   8.535   7.216   5.053  1.3409  3.3231 -0.2021
  794MOL0     H 7129   8.699   7.238   5.293 -1.0425 -1.3950  1.3755
  794MOL0     H 7130   8.670   7.073   5.246  0.7699 -0.0131 -1.0283
  794MOL0     H 7131   8.774   7.074   5.049 -1.6146  0.6377  0.2441
  794MOL0     H 7132   8.736   7.245   5.017 -1.1237 -2.0232 -2.0819
  794MOL0     H 7133   8.918   7.312   5.185  0.8933  0.1155 -0.0494
  794MOL0     H 7134   8.947   7.144   5.214 -1.2930 -1.0517  0.6550
  794MOL0     H 7135   8.999   7.109   4.986 -2.8093  0.2060 -1.2276
  794MOL0     H 7136   8.995   7.286   4.945  2.5198  0.9633  1.6157
  794MOL0     H 7137   9.159   7.287   5.165 -1.1200 -2.5473  2.6836
  794MOL0     H 7138   9.169   7.125   5.130 -3.1395  0.2799  1.0465
  794MOL0     H 7139   9.208   7.326   4.898 -1.7602 -0.7867 -0.6224
  794MOL0     H 7140   9.252   7.158   4.888  0.9217  0.4364 -1.2124
  794MOL0     H 7141   9.380   7.469   5.102 -1.2115  0.5178 -3.7581
  794MOL0     H 7142   9.624   7.546   5.145 -0.4065 -1.2398 -3.7685
  794MOL0     H 7143   9.646   7.429   5.285  0.2221  0.0812  0.0161
  794MOL0     H 7144   9.793   7.440   5.029  0.6417  3.5002  0.6418
  794MOL0     H 7145   9.833   7.328   5.168  1.7375 -0.5907 -1.9605
  794MOL0     H 7146   9.873   7.572   5.281 -0.3576  1.7622 -0.5033
  794MOL0     H 7147   9.845   7.642   5.130  1.7592  1.5091  2.6701
  794MOL0     H 7148  10.046   7.504   5.026 -0.1298 -1.2079  0.9749
  794MOL0     H 7149  10.062   7.441   5.184  2.5442  1.1917  0.5660
  794MOL0     H 7150  10.289   7.444   5.096 -0.1136  0.2341  2.7553
  794MOL0     H 7151  10.595   7.451   4.956 -0.0519  1.0048  1.0124
  794MOL0     H 7152  10.599   7.357   5.110 -0.0641  0.1703 -0.9019
  794MOL0     H 7153  10.465   7.361   4.993 -2.5620  2.4635  1.2697
  794MOL0     H 7154  10.913   7.879   5.086 -0.6200  1.2160  0.7816
  794MOL0     H 7155  11.149   7.900   5.142 -3.8584  1.4111 -2.1546
  794MOL0     H 7156  11.297   7.805   5.558 -0.2846  2.7615  0.3481
  794MOL0     H 7157  11.327   7.665   5.456 -0.4448  0.6502 -3.4327
  794MOL0     H 7158  11.541   7.790   5.381  0.9597 -2.4039  1.0496
  794MOL0     H 7159  11.485   7.919   5.477 -2.3535  0.1907 -0.2744
  794MOL0     H 7160  11.660   7.722   5.550  0.1910  0.3945 -0.5510
  794MOL0     H 7161  11.513   7.654   5.611 -0.6286 -0.3069 -2.4280
  794MOL0     H 7162  11.672   7.894   5.707 -0.3847  1.2920  1.4952
  794MOL0     H 7163  11.496   7.923   5.695 -0.5902 -1.8073  0.7853
  794MOL0     H 7164  11.566   7.829   5.929 -1.2168  0.2753  0.5795
  794MOL0     H 7165  11.586   7.680   5.850  1.1313  1.1670  0.6039
  794MOL0     H 7166  11.322   7.787   5.790  0.5794 -0.6765 -1.3700
  794MOL0     H 7167  11.381   7.628   5.794 -1.6159  2.6078 -2.9181
  794MOL0     H 7168  11.292   7.777   6.050  1.9094  1.0881  1.6422
  794MOL0     H 7169  11.437   7.680   6.060  1.2069  1.2816 -2.9641
  794MOL0     H 7170  11.219   7.553   6.116 -2.0877 -0.7642 -0.8851
  794MOL0     H 7171  11.295   7.475   5.982  2.8670 -0.0506  0.7471
  794MOL0     H 7172  11.085   7.715   5.526 -2.1203 -1.6899  0.9850
  794MOL0     H 7173  10.834   7.697   5.468 -0.8887  1.7280 -1.0096
  794MOL0     H 7174  10.510   7.847   5.262  2.3982  1.3466 -3.8674
  794MOL0     H 7175  10.269   7.844   5.245  1.5709  0.9777  1.3851
  794MOL0     H 7176   8.379   7.629   5.259 -0.3462 -0.3125 -0.0801
  794MOL0     H 7177   8.197   7.780   5.276 -1.5835  0.5046 -1.0979
  794MOL0     H 7178   7.687   7.905   5.006  0.4949 -0.5760  0.1389
  794MOL0     H 7179   7.526   8.070   5.099 -1.4432 -0.9186  2.5893
  794MOL0     H 7180   7.536   8.163   5.541 -1.1730  0.4257  0.1483
  794MOL0     H 7181   7.407   8.259   5.471  0.4832  0.7133 -0.8374
  794MOL0     H 7182   7.366   8.015   5.562  0.2929  0.8145 -0.1192
  794MOL0     H 7183   7.458   7.951   5.427  1.1406  0.3974  0.9814
  794MOL0     H 7184   7.306   8.071   5.261 -0.7809  0.3610  1.1196
  794MOL0     H 7185   7.209   8.118   5.401 -1.6846  0.4263 -0.5919
  794MOL0     H 7186   7.118   7.940   5.286  0.7287  0.5536 -0.6322
  794MOL0     H 7187   7.161   7.859   5.438 -1.6547 -2.7469 -2.7904
  794MOL0     H 7188   7.433   7.703   5.142 -1.7525 -0.4745 -0.5497
  794MOL0     H 7189   7.753   8.130   5.450 -0.5082  1.8535 -1.6167
  794MOL0     H 7190   7.916   7.952   5.381  0.0802 -1.0109  0.2868
  795MOL0     O 7191   8.202   5.781   5.781 -0.1442 -0.6330 -0.1035
  795MOL0     C 7192   8.196   5.907   5.793 -0.0874 -0.2419 -0.4433
  795MOL0     O 7193   8.296   5.999   5.834  0.0169  0.3581 -0.2149
  795MOL0     C 7194   8.429   5.972   5.845 -0.5714  0.8907 -0.9159
  795MOL0     C 7195   8.490   5.850   5.824  0.1304 -0.5146  0.1069
  795MOL0     C 7196   8.631   5.846   5.839  0.7578  0.8779  0.4537
  795MOL0     C 7197   8.703   5.957   5.882  0.0154  1.0547 -0.4073
  795MOL0     O 7198   8.844   5.968   5.880 -0.4656  0.5757  0.1238
  795MOL0     C 7199   8.912   5.953   6.006 -0.2739  0.5056  0.3176
  795MOL0     C 7200   9.063   5.942   5.968  0.1988 -0.6150 -0.5437
  795MOL0     C 7201   9.140   5.941   6.091 -0.3954  0.1441 -1.1554
  795MOL0     C 7202   9.289   5.948   6.061 -0.1840  0.0998 -0.7759
  795MOL0     C 7203   9.376   5.966   6.189  0.6206 -1.2267 -0.0139
  795MOL0     C 7204   9.516   5.978   6.154 -1.0924 -0.7718  1.0321
  795MOL0     C 7205   9.609   5.981   6.284 -1.5074 -0.4707  0.0873
  795MOL0     C 7206   9.756   5.991   6.240  0.1819  0.4717  0.2106
  795MOL0     N 7207   9.848   6.000   6.353  0.3876  0.5021  0.1096
  795MOL0     C 7208   9.846   5.908   6.457  0.4385 -0.3148 -0.0135
  795MOL0     C 7209   9.934   5.957   6.548 -1.2099 -0.7704  0.1783
  795MOL0     C 7210   9.960   5.902   6.682  0.4597  0.4641  0.1730
  795MOL0     C 7211   9.881   5.961   6.796 -0.2316  0.4464 -0.1908
  795MOL0     C 7212   9.765   5.876   6.855 -0.2054  0.9130  0.0568
  795MOL0     C 7213   9.673   5.805   6.756 -0.5188  0.3655  0.2423
  795MOL0     O 7214   9.619   5.911   6.666 -0.3118 -0.0573  0.6409
  795MOL0     C 7215   9.505   5.876   6.601  1.3506  0.8311 -0.2175
  795MOL0     C 7216   9.388   5.951   6.600  0.7891 -0.0392 -1.1885
  795MOL0     C 7217   9.263   5.908   6.543 -0.1973  0.1101 -0.0608
  795MOL0     C 7218   9.152   6.010   6.528 -0.0877 -0.5293 -1.0027
  795MOL0     C 7219   9.259   5.771   6.502  0.6380  0.0612  0.4546
  795MOL0     C 7220   9.128   5.700   6.481 -0.0462  0.2585  0.1839
  795MOL0     O 7221   9.013   5.774   6.512 -0.0017 -0.5094  0.6771
  795MOL0     C 7222   8.893   5.719   6.490 -0.4597 -0.7291 -0.6437
  795MOL0     C 7223   8.844   5.636   6.391 -0.2006 -0.4128  0.3294
  795MOL0     C 7224   8.706   5.592   6.383  0.5162  0.4120  0.1699
  795MOL0     C 7225   8.624   5.620   6.499 -0.0744  0.3518  0.8476
  795MOL0     O 7226   8.498   5.563   6.490 -0.2623 -0.4809 -0.0816
  795MOL0     C 7227   8.412   5.595   6.598  0.1684 -0.1623 -0.5201
  795MOL0     C 7228   8.280   5.523   6.585 -0.3605  0.4397 -0.3228
  795MOL0     C 7229   8.220   5.518   6.444 -1.1712  0.4570 -0.5795
  795MOL0     C 7230   8.067   5.465   6.455 -0.5430  1.0279 -0.8624
  795MOL0     C 7231   7.974   5.562   6.526  0.6802  0.3074 -0.5159
  795MOL0     C 7232   7.829   5.538   6.483 -0.0578 -0.0256 -0.7777
  795MOL0     C 7233   7.732   5.647   6.523  0.7246 -0.3692  0.7077
  795MOL0     C 7234   7.672   5.643   6.664 -0.2550 -0.0872  0.4340
  795MOL0    Cl 7235   7.586   5.484   6.678  0.2619 -0.2953 -0.4088
  795MOL0     C 7236   8.681   5.699   6.606  0.1404 -0.5049 -0.7229
  795MOL0     C 7237   8.813   5.751   6.600  0.7707 -1.2539  0.1438
  795MOL0     O 7238   9.135   5.577   6.463  0.9950 -0.2836 -0.0216
  795MOL0     C 7239   9.379   5.704   6.482 -0.1715  0.8121 -1.3395
  795MOL0     C 7240   9.494   5.750   6.532 -0.7885 -0.4553 -0.5531
  795MOL0     N 7241   9.993   6.068   6.493 -0.1462  0.1404 -0.8669
  795MOL0     N 7242   9.950   6.085   6.374  0.9270  0.0009  0.0161
  795MOL0     C 7243   8.637   6.070   5.917 -0.5408 -0.3544  0.0856
  795MOL0     C 7244   8.495   6.074   5.906  0.4773  0.4486 -0.0765
  795MOL0     C 7245   8.065   5.961   5.761 -0.3558 -0.4116 -0.5390
  795MOL0     C 7246   8.040   6.096   5.784 -0.9145 -0.6121 -0.5231
  795MOL0     C 7247   7.928   6.147   5.728  1.0706  0.3038 -0.6255
  795MOL0     C 7248   7.821   6.068   5.680 -0.6370 -0.5079  0.1096
  795MOL0     O 7249   7.695   6.121   5.640 -0.2253  0.7924  0.3132
  795MOL0     C 7250   7.624   6.166   5.751  0.3546  0.0982 -0.2131
  795MOL0     C 7251   7.540   6.061   5.822  0.7752 -0.1440  0.1624
  795MOL0     C 7252   7.433   5.992   5.727 -0.1496 -0.7753 -0.3462
  795MOL0     C 7253   7.313   5.927   5.809  0.0577 -0.3420  0.1067
  795MOL0     C 7254   7.223   5.857   5.713  0.1226  0.1430 -0.2755
  795MOL0     C 7255   7.146   5.794   5.639  0.7715  0.3064 -0.4713
  795MOL0     C 7256   7.841   5.933   5.670 -0.3916  0.2159  0.1374
  795MOL0     C 7257   7.964   5.880   5.706 -0.3143  0.0510  0.0804
  795MOL0     H 7258   8.444   5.765   5.777  2.5127 -1.1109 -1.3406
  795MOL0     H 7259   8.684   5.751   5.835  0.6954  0.7926  1.4892
  795MOL0     H 7260   8.899   6.042   6.068  0.2653  1.4932 -0.9608
  795MOL0     H 7261   8.890   5.862   6.063 -0.0274  1.9794  2.9415
  795MOL0     H 7262   9.079   5.849   5.912  1.0613 -0.8099  0.0099
  795MOL0     H 7263   9.100   6.025   5.908 -0.6091 -0.0034 -0.2095
  795MOL0     H 7264   9.118   6.027   6.155 -0.5302 -0.7175  0.0017
  795MOL0     H 7265   9.128   5.851   6.153  2.9771 -1.3247 -2.3988
  795MOL0     H 7266   9.330   5.858   6.013  0.2029 -0.1832  0.0621
  795MOL0     H 7267   9.309   6.028   5.990  3.5758 -0.2017 -0.2682
  795MOL0     H 7268   9.332   6.052   6.241  1.4217 -2.2158  2.4165
  795MOL0     H 7269   9.365   5.894   6.271  0.6676 -0.4681  0.6784
  795MOL0     H 7270   9.539   5.889   6.096  0.3794  0.6139 -0.6374
  795MOL0     H 7271   9.539   6.066   6.092 -3.1876 -1.2111 -0.4720
  795MOL0     H 7272   9.573   6.063   6.346 -1.3471 -0.4790  0.1941
  795MOL0     H 7273   9.605   5.886   6.339 -0.2063 -1.2118 -1.0314
  795MOL0     H 7274   9.777   6.084   6.186  1.4614  0.4676  0.6584
  795MOL0     H 7275   9.777   5.903   6.177 -1.7431 -0.0614  0.2696
  795MOL0     H 7276   9.779   5.823   6.460 -0.7622  0.5182 -1.6820
  795MOL0     H 7277   9.956   5.792   6.687 -1.5577  0.5126  0.2485
  795MOL0     H 7278  10.068   5.916   6.691  0.7776 -0.0563 -2.1737
  795MOL0     H 7279   9.828   6.054   6.773  0.3725  1.2809  1.5910
  795MOL0     H 7280   9.944   5.998   6.878 -2.0079 -0.7612  1.8473
  795MOL0     H 7281   9.705   5.942   6.918  1.4659 -0.4862  3.3709
  795MOL0     H 7282   9.811   5.803   6.922 -0.1030  2.7065  2.0444
  795MOL0     H 7283   9.586   5.767   6.811 -1.1097  1.1281 -0.1428
  795MOL0     H 7284   9.725   5.732   6.693 -2.2399  1.1817 -2.3409
  795MOL0     H 7285   9.393   6.051   6.641  2.7586 -1.3603  2.1939
  795MOL0     H 7286   9.093   5.987   6.439  1.9688 -0.7629 -2.3885
  795MOL0     H 7287   9.097   6.022   6.622  2.9867  1.4637  0.7526
  795MOL0     H 7288   9.196   6.110   6.515 -2.2807  1.0113  2.0542
  795MOL0     H 7289   8.898   5.594   6.307 -2.4142 -1.4871 -0.6390
  795MOL0     H 7290   8.681   5.516   6.310  1.0171 -0.3273  0.7566
  795MOL0     H 7291   8.451   5.574   6.698  0.2725  0.1028 -0.5023
  795MOL0     H 7292   8.391   5.703   6.594  2.4088  0.3394 -0.4806
  795MOL0     H 7293   8.296   5.418   6.613  2.7975  1.1427  0.7990
  795MOL0     H 7294   8.212   5.564   6.661 -1.2129  1.1299 -1.4268
  795MOL0     H 7295   8.273   5.436   6.393 -0.0406  1.3204 -0.8243
  795MOL0     H 7296   8.234   5.607   6.383  1.9553 -0.1373 -0.8775
  795MOL0     H 7297   8.028   5.436   6.357  3.0749  1.4034 -2.5712
  795MOL0     H 7298   8.060   5.376   6.519 -0.0087  2.3060  1.0615
  795MOL0     H 7299   8.002   5.662   6.493  0.5144  0.8758  0.9794
  795MOL0     H 7300   7.979   5.560   6.635  1.3621 -0.6460 -0.5571
  795MOL0     H 7301   7.828   5.534   6.374 -4.3504  0.9047 -0.9609
  795MOL0     H 7302   7.787   5.442   6.516  0.9271 -0.6857 -1.4051
  795MOL0     H 7303   7.651   5.644   6.450  0.3490  1.3062  1.0264
  795MOL0     H 7304   7.759   5.748   6.492 -2.3198  1.0155  2.1483
  795MOL0     H 7305   7.592   5.718   6.665 -1.3812 -1.2420  0.4180
  795MOL0     H 7306   7.749   5.656   6.741  0.6416  1.7897 -0.7242
  795MOL0     H 7307   8.622   5.721   6.694 -0.3206 -0.5574 -1.0131
  795MOL0     H 7308   8.852   5.815   6.679 -0.0476 -2.4452  1.5700
  795MOL0     H 7309   9.382   5.607   6.433 -1.8795  1.7847 -3.5278
  795MOL0     H 7310   9.595   5.709   6.529 -0.2643  0.7956 -3.2122
  795MOL0     H 7311   8.700   6.152   5.950 -1.5711  0.2163  0.6846
  795MOL0     H 7312   8.442   6.163   5.938 -2.8693 -1.2898 -0.3848
  795MOL0     H 7313   8.111   6.165   5.828 -1.8307  0.8283 -1.2184
  795MOL0     H 7314   7.921   6.255   5.738  2.2571  0.5336 -1.9810
  795MOL0     H 7315   7.690   6.210   5.826 -0.3523  3.1132 -1.2378
  795MOL0     H 7316   7.558   6.247   5.720 -1.8195  0.5487  4.7097
  795MOL0     H 7317   7.484   6.097   5.909  1.5403  0.1234  0.5539
  795MOL0     H 7318   7.612   5.988   5.861  1.3112  0.9431  1.2814
  795MOL0     H 7319   7.486   5.915   5.670  0.1480 -0.3398 -0.6545
  795MOL0     H 7320   7.398   6.066   5.655 -0.4345 -1.5280 -1.0027
  795MOL0     H 7321   7.272   6.010   5.868 -0.1861 -0.3784 -0.0089
  795MOL0     H 7322   7.340   5.847   5.878  0.0805  1.3613  2.1878
  795MOL0     H 7323   7.091   5.735   5.569 -0.1071 -2.2019  2.1154
  795MOL0     H 7324   7.760   5.876   5.627 -1.9249  2.5348 -0.2027
  795MOL0     H 7325   7.994   5.782   5.671  0.9959  0.7605 -0.9019
  796MOL0     O 7326   6.868   3.555  10.235 -0.4646 -0.6002 -0.4354
  796MOL0     C 7327   6.855   3.676  10.224  0.5825 -0.5624 -0.4792
  796MOL0     O 7328   6.761   3.740  10.152  0.3291 -0.2677 -0.2850
  796MOL0     C 7329   6.653   3.681  10.094  0.3308 -0.4735  0.8152
  796MOL0     C 7330   6.603   3.759   9.992  0.0173  0.1893 -0.0138
  796MOL0     C 7331   6.491   3.722   9.922 -0.4514 -0.5075  0.2972
  796MOL0     C 7332   6.431   3.596   9.945 -0.1849  0.9668 -0.2998
  796MOL0     O 7333   6.315   3.545   9.883 -0.1062 -0.6873 -0.1374
  796MOL0     C 7334   6.279   3.585   9.760 -0.8659  0.1370  0.3538
  796MOL0     C 7335   6.181   3.480   9.711  0.9333  0.1341 -0.3674
  796MOL0     C 7336   6.069   3.543   9.629  0.0905  0.3107 -0.0170
  796MOL0     C 7337   5.976   3.438   9.573 -0.6008 -0.6886 -0.0975
  796MOL0     C 7338   5.864   3.500   9.480 -0.0806 -0.0767 -0.6958
  796MOL0     C 7339   5.806   3.390   9.383  0.6242 -0.3403  0.8957
  796MOL0     C 7340   5.684   3.413   9.305 -0.0078 -0.3956 -0.5765
  796MOL0     C 7341   5.718   3.488   9.176 -0.4557  0.3475 -0.4639
  796MOL0     N 7342   5.605   3.551   9.103  1.1522 -0.6321  0.4148
  796MOL0     C 7343   5.523   3.476   9.026 -0.3679 -0.0395 -0.0007
  796MOL0     C 7344   5.436   3.560   8.962  0.3703  0.0178  0.0486
  796MOL0     C 7345   5.355   3.502   8.861  0.2853 -0.3381 -0.1902
  796MOL0     C 7346   5.214   3.556   8.845 -0.6243 -0.8535 -0.9443
  796MOL0     C 7347   5.116   3.490   8.941  0.3276 -0.5661  0.0808
  796MOL0     C 7348   4.974   3.561   8.939 -0.1014 -0.2812 -0.2774
  796MOL0     O 7349   4.928   3.546   8.809  0.2338  0.0627 -0.3091
  796MOL0     C 7350   4.833   3.448   8.777  0.1021 -0.2646 -0.5969
  796MOL0     C 7351   4.696   3.487   8.781  0.1512 -0.7755 -0.0135
  796MOL0     C 7352   4.591   3.392   8.765 -0.1177 -0.4701  0.5643
  796MOL0     C 7353   4.453   3.444   8.777  0.3631 -0.7985 -0.1411
  796MOL0     C 7354   4.622   3.262   8.743  0.4269  0.3790 -0.4561
  796MOL0     C 7355   4.522   3.161   8.713  0.3111  0.1267  0.6100
  796MOL0     O 7356   4.420   3.195   8.625 -0.1622 -0.3354 -0.3791
  796MOL0     C 7357   4.309   3.126   8.601 -0.0350  0.2601  0.1378
  796MOL0     C 7358   4.318   2.999   8.543  0.0335  0.0983 -0.2678
  796MOL0     C 7359   4.201   2.926   8.518  0.1615  0.5570 -0.0887
  796MOL0     C 7360   4.077   2.964   8.568 -0.0098 -0.2088 -0.1555
  796MOL0     O 7361   3.975   2.880   8.538 -0.5467  0.2182 -0.3175
  796MOL0     C 7362   3.863   2.876   8.631  0.7236  0.5685  0.1471
  796MOL0     C 7363   3.750   2.955   8.585  0.0287 -0.5884 -0.3707
  796MOL0     C 7364   3.642   2.952   8.678 -0.0146 -0.0772  0.1193
  796MOL0     C 7365   3.515   3.026   8.637 -0.1926 -0.3414  0.3384
  796MOL0     C 7366   3.408   3.046   8.747  0.6366  0.0478  0.1254
  796MOL0     C 7367   3.356   2.917   8.806  0.0716 -0.4526 -0.8877
  796MOL0     C 7368   3.250   2.946   8.916  0.3630  0.1268 -0.9475
  796MOL0     C 7369   3.105   2.979   8.861 -0.3848  0.1307 -0.7400
  796MOL0    Cl 7370   2.988   2.982   9.004  0.3750 -0.3290 -0.2383
  796MOL0     C 7371   4.072   3.086   8.643  0.2417 -0.1118 -0.3853
  796MOL0     C 7372   4.185   3.164   8.654  0.3363 -0.8052  0.6121
  796MOL0     O 7373   4.527   3.058   8.772  0.1503  0.1675  0.7747
  796MOL0     C 7374   4.756   3.220   8.755  0.6480 -0.3161  0.2279
  796MOL0     C 7375   4.858   3.316   8.753  0.1594 -0.4564  0.2577
  796MOL0     N 7376   5.466   3.685   8.999  0.5611 -0.2995  0.2758
  796MOL0     N 7377   5.566   3.684   9.090  0.8798 -1.1562  0.1298
  796MOL0     C 7378   6.493   3.509  10.044 -0.1255  0.5066 -0.6255
  796MOL0     C 7379   6.594   3.556  10.126 -0.7222  0.6169  0.6774
  796MOL0     C 7380   6.954   3.764  10.293  0.3508  0.3555 -0.6417
  796MOL0     C 7381   6.934   3.901  10.322 -0.0271 -0.6597  0.1838
  796MOL0     C 7382   7.045   3.986  10.367  0.2699 -0.1871  0.2662
  796MOL0     C 7383   7.169   3.925  10.398  0.5892 -0.3677  0.1934
  796MOL0     O 7384   7.273   3.986  10.459 -0.1074 -0.2411  0.7052
  796MOL0     C 7385   7.288   4.135  10.447  0.2676  0.2036  0.2949
  796MOL0     C 7386   7.435   4.183  10.421  0.9846  0.1714 -0.2643
  796MOL0     C 7387   7.525   4.162  10.543 -0.2610  0.2106 -0.1614
  796MOL0     C 7388   7.667   4.205  10.527 -0.3758 -0.1160 -0.2931
  796MOL0     C 7389   7.745   4.169  10.644  0.5368 -0.6389  1.0886
  796MOL0     C 7390   7.795   4.142  10.758  0.3447 -0.1574  0.3307
  796MOL0     C 7391   7.191   3.786  10.393  0.1154  0.5936 -0.2365
  796MOL0     C 7392   7.080   3.709  10.335  0.3885 -0.1009  0.5311
  796MOL0     H 7393   6.641   3.860   9.977 -1.7293  0.5652 -2.6594
  796MOL0     H 7394   6.452   3.794   9.851  1.8598  1.8145  1.2515
  796MOL0     H 7395   6.242   3.688   9.766 -3.0103 -0.5479 -0.2656
  796MOL0     H 7396   6.360   3.594   9.687  0.0485 -1.2682  1.1537
  796MOL0     H 7397   6.231   3.407   9.647  0.3831 -0.5582 -0.0235
  796MOL0     H 7398   6.136   3.423   9.793  2.3697 -2.7470 -1.4154
  796MOL0     H 7399   6.019   3.617   9.692 -0.9372 -1.1592  0.9683
  796MOL0     H 7400   6.129   3.593   9.552  2.3353  0.7948  1.9414
  796MOL0     H 7401   6.048   3.385   9.509  0.4197  1.9062 -1.2650
  796MOL0     H 7402   5.931   3.380   9.654  1.1138 -1.7470  0.1502
  796MOL0     H 7403   5.777   3.532   9.538  0.2642  1.0737 -0.8032
  796MOL0     H 7404   5.895   3.595   9.436  2.4406  0.1414  1.3613
  796MOL0     H 7405   5.876   3.368   9.302 -0.8768 -1.0106 -0.2543
  796MOL0     H 7406   5.794   3.292   9.430  0.6681 -0.5381  0.4991
  796MOL0     H 7407   5.631   3.320   9.287 -2.7447  1.3468 -2.1906
  796MOL0     H 7408   5.611   3.478   9.356  0.3296 -0.7057  0.3231
  796MOL0     H 7409   5.766   3.414   9.111 -0.2432 -0.7154  0.8569
  796MOL0     H 7410   5.783   3.574   9.194 -1.6707  1.3082 -0.4999
  796MOL0     H 7411   5.540   3.369   9.019  1.5945  0.0334  2.3448
  796MOL0     H 7412   5.403   3.518   8.764  2.0278 -0.9917  0.5458
  796MOL0     H 7413   5.351   3.394   8.878  2.2655  0.0554  3.7736
  796MOL0     H 7414   5.179   3.559   8.742  2.0731  3.1955 -1.9592
  796MOL0     H 7415   5.219   3.659   8.881 -1.7337 -0.7464 -1.0554
  796MOL0     H 7416   5.152   3.506   9.043 -1.1029  0.0739  0.5144
  796MOL0     H 7417   5.105   3.383   8.923 -1.1239 -0.5339  0.6849
  796MOL0     H 7418   4.998   3.666   8.960  0.6471  0.4381 -4.0170
  796MOL0     H 7419   4.910   3.510   9.012  0.8941 -3.6318 -1.5359
  796MOL0     H 7420   4.688   3.595   8.785  2.1228 -0.6276  1.5454
  796MOL0     H 7421   4.412   3.450   8.676  1.4588 -1.8540 -0.6820
  796MOL0     H 7422   4.393   3.385   8.848  2.3431 -1.1204  1.3611
  796MOL0     H 7423   4.457   3.544   8.821 -0.4233 -0.8451  0.0462
  796MOL0     H 7424   4.415   2.962   8.512  0.9399  0.3703  2.0052
  796MOL0     H 7425   4.209   2.832   8.465 -3.2588  1.1863 -2.0384
  796MOL0     H 7426   3.824   2.774   8.628 -0.1314  0.8669 -3.8143
  796MOL0     H 7427   3.884   2.895   8.737  1.4621  1.0225 -0.0743
  796MOL0     H 7428   3.791   3.054   8.561 -1.5582  0.1896  0.0311
  796MOL0     H 7429   3.706   2.924   8.491 -0.8195 -0.9718  0.1420
  796MOL0     H 7430   3.678   2.998   8.771  1.0121  2.4135 -1.4103
  796MOL0     H 7431   3.619   2.848   8.703  0.3784 -0.2612 -0.2757
  796MOL0     H 7432   3.553   3.122   8.601  1.9969 -1.6924 -1.2169
  796MOL0     H 7433   3.469   2.981   8.548 -0.5446  1.7829 -0.6060
  796MOL0     H 7434   3.317   3.095   8.710  0.1537 -0.2219  0.9461
  796MOL0     H 7435   3.459   3.103   8.825 -0.8725  0.1299  1.0837
  796MOL0     H 7436   3.315   2.866   8.719 -1.6541 -0.0121 -0.3847
  796MOL0     H 7437   3.430   2.856   8.858 -0.5555 -0.7181 -0.2860
  796MOL0     H 7438   3.276   3.028   8.984  0.8103 -1.0264  0.3082
  796MOL0     H 7439   3.234   2.851   8.967 -0.9729 -0.3237 -2.1279
  796MOL0     H 7440   3.082   2.894   8.797 -0.7645 -1.2255  1.0986
  796MOL0     H 7441   3.113   3.075   8.809 -0.2289  0.0793 -0.8131
  796MOL0     H 7442   3.980   3.123   8.688  0.5047  1.1859 -0.8563
  796MOL0     H 7443   4.175   3.261   8.701 -2.4530  1.1000 -3.3160
  796MOL0     H 7444   4.773   3.113   8.758  0.1479 -0.3971  2.9181
  796MOL0     H 7445   4.965   3.297   8.755  0.4828  1.2833  0.3542
  796MOL0     H 7446   6.445   3.413  10.063 -2.7542  1.9111  0.4694
  796MOL0     H 7447   6.619   3.509  10.220 -2.0218 -2.1566 -0.2595
  796MOL0     H 7448   6.834   3.935  10.297  0.2816  1.6892  1.8167
  796MOL0     H 7449   7.027   4.093  10.370 -1.1425 -0.4254  1.2185
  796MOL0     H 7450   7.228   4.162  10.360 -3.2963 -2.8348  1.5125
  796MOL0     H 7451   7.242   4.170  10.540 -1.2385 -0.2469 -0.2367
  796MOL0     H 7452   7.418   4.289  10.396 -1.6185  0.1102  0.9530
  796MOL0     H 7453   7.479   4.139  10.331  1.2819  0.6193 -0.3464
  796MOL0     H 7454   7.534   4.055  10.561 -1.4436 -0.3099 -2.3294
  796MOL0     H 7455   7.481   4.213  10.629 -1.6168  1.7390 -1.6675
  796MOL0     H 7456   7.667   4.313  10.507  0.2301  0.0501  0.4991
  796MOL0     H 7457   7.698   4.158  10.434  1.2471  0.1289  0.0827
  796MOL0     H 7458   7.828   4.113  10.856  0.1104 -0.9304  0.1839
  796MOL0     H 7459   7.288   3.744  10.415 -0.0498  0.6409  0.6260
  796MOL0     H 7460   7.088   3.601  10.340 -1.6024 -0.5111 -2.5848
  797MOL0     O 7461   1.024   0.456  10.561 -0.4086  0.0963  0.2270
  797MOL0     C 7462   1.096   0.455  10.460 -0.6988 -0.1447 -0.3547
  797MOL0     O 7463   1.054   0.437  10.330 -0.4092 -0.1016 -0.0145
  797MOL0     C 7464   0.920   0.421  10.304  0.5378 -0.1623  0.1671
  797MOL0     C 7465   0.881   0.334  10.203 -0.7909 -0.5059 -0.0950
  797MOL0     C 7466   0.758   0.325  10.143  0.3775  0.6596 -0.5022
  797MOL0     C 7467   0.646   0.384  10.213 -1.4041 -0.4150 -0.2811
  797MOL0     O 7468   0.516   0.377  10.181  0.2928 -0.3334  0.1813
  797MOL0     C 7469   0.470   0.253  10.136  0.6418  0.6145  0.3018
  797MOL0     C 7470   0.335   0.259  10.070  0.4069 -0.2531  0.1509
  797MOL0     C 7471   0.288   0.150   9.972 -0.2171 -0.2112  0.3541
  797MOL0     C 7472   0.311   0.020  10.033  0.1080  0.8626  0.1681
  797MOL0     C 7473   0.231  -0.095   9.962  0.2296  0.1108 -0.8192
  797MOL0     C 7474   0.287  -0.153   9.838 -0.1987  0.3882  0.2026
  797MOL0     C 7475   0.193  -0.257   9.792 -0.5917 -0.5128  0.4109
  797MOL0     C 7476   0.252  -0.373   9.702 -0.2652 -0.0870  0.3548
  797MOL0     N 7477   0.147  -0.449   9.632  0.4211  0.3573 -0.6420
  797MOL0     C 7478   0.102  -0.579   9.656  0.5164 -0.9990  0.9523
  797MOL0     C 7479  -0.020  -0.599   9.590 -0.4138 -0.6481  0.3455
  797MOL0     C 7480  -0.117  -0.713   9.593  0.9998 -0.7170  0.9320
  797MOL0     C 7481  -0.251  -0.673   9.517 -0.8766 -1.1353  0.0961
  797MOL0     C 7482  -0.343  -0.796   9.519  0.5128  0.1069  0.6424
  797MOL0     C 7483  -0.470  -0.761   9.434  0.5506  0.6271 -0.0932
  797MOL0     O 7484  -0.551  -0.676   9.510  0.1575  0.2973 -0.2561
  797MOL0     C 7485  -0.690  -0.684   9.494 -0.0053 -0.0122 -0.4128
  797MOL0     C 7486  -0.754  -0.748   9.385  0.4042 -0.1561 -0.1599
  797MOL0     C 7487  -0.896  -0.739   9.374  0.4267  0.8154  0.2765
  797MOL0     C 7488  -0.956  -0.810   9.255 -0.5811  0.5551 -0.1727
  797MOL0     C 7489  -0.972  -0.653   9.461  0.3425  0.3758  0.6868
  797MOL0     C 7490  -1.121  -0.631   9.439  0.6277  0.3225  0.2035
  797MOL0     O 7491  -1.185  -0.553   9.535  0.5024  0.0552 -0.0770
  797MOL0     C 7492  -1.305  -0.503   9.493 -0.2401  0.6899 -0.5667
  797MOL0     C 7493  -1.327  -0.455   9.366 -0.0073  0.1225 -0.3601
  797MOL0     C 7494  -1.449  -0.388   9.340 -0.1191 -0.0787 -0.2694
  797MOL0     C 7495  -1.550  -0.365   9.437 -0.5237  0.2677 -0.3276
  797MOL0     O 7496  -1.666  -0.300   9.406  0.2415 -0.2450 -0.0309
  797MOL0     C 7497  -1.764  -0.253   9.508 -0.2368  1.3732  0.1305
  797MOL0     C 7498  -1.888  -0.202   9.452 -0.4019 -0.4932  0.3057
  797MOL0     C 7499  -1.983  -0.171   9.565 -0.5093  0.0390  0.0932
  797MOL0     C 7500  -2.116  -0.100   9.532 -0.7214 -0.2937  0.0790
  797MOL0     C 7501  -2.094   0.040   9.463 -0.1770  0.0857 -0.5412
  797MOL0     C 7502  -2.230   0.122   9.442  0.0785  0.1605  0.9524
  797MOL0     C 7503  -2.315   0.046   9.346  0.2290 -0.6418  0.9429
  797MOL0     C 7504  -2.242  -0.033   9.229 -0.6060  0.1615  1.1111
  797MOL0    Cl 7505  -2.136   0.078   9.132  0.0880  0.2107  0.1467
  797MOL0     C 7506  -1.520  -0.411   9.573  0.5200  0.0116  0.5470
  797MOL0     C 7507  -1.404  -0.483   9.596  0.4558  0.3038  0.4674
  797MOL0     O 7508  -1.177  -0.696   9.358  0.0170  0.2998 -0.3396
  797MOL0     C 7509  -0.902  -0.580   9.556  0.3578  0.1143 -0.0658
  797MOL0     C 7510  -0.767  -0.596   9.572  0.8361 -0.1321  0.7189
  797MOL0     N 7511  -0.045  -0.485   9.528  0.3554 -0.1679  0.4349
  797MOL0     N 7512   0.048  -0.396   9.553  0.1983  0.5954 -1.2636
  797MOL0     C 7513   0.677   0.463  10.324  0.5753  0.2429  0.4832
  797MOL0     C 7514   0.812   0.488  10.367  0.4570  0.2320 -0.2753
  797MOL0     C 7515   1.239   0.480  10.483 -1.3623 -0.5205 -0.2968
  797MOL0     C 7516   1.285   0.473  10.615  0.4980  0.3866 -0.0972
  797MOL0     C 7517   1.417   0.498  10.643  0.3365  0.5469 -0.0390
  797MOL0     C 7518   1.507   0.535  10.549 -0.0464 -0.0045  0.1623
  797MOL0     O 7519   1.626   0.560  10.607  0.3762 -0.0581  0.1246
  797MOL0     C 7520   1.735   0.590  10.517  0.3541 -0.2561 -0.1458
  797MOL0     C 7521   1.866   0.595  10.594 -0.1494  0.9780 -0.2854
  797MOL0     C 7522   1.947   0.470  10.589  0.5730  0.1542 -0.5879
  797MOL0     C 7523   2.085   0.487  10.649  1.4596 -1.0842  0.7918
  797MOL0     C 7524   2.155   0.353  10.640  0.5253  0.0034  0.6953
  797MOL0     C 7525   2.208   0.249  10.630  0.3540  0.2271 -0.2483
  797MOL0     C 7526   1.466   0.543  10.417  0.0209  0.7644  0.7171
  797MOL0     C 7527   1.332   0.512  10.380  0.1678  0.3520 -0.3396
  797MOL0     H 7528   0.966   0.277  10.164  1.8649  2.1075  1.4449
  797MOL0     H 7529   0.732   0.272  10.052  0.4135  0.7866 -0.5854
  797MOL0     H 7530   0.530   0.199  10.063 -1.7305 -3.7042  1.2102
  797MOL0     H 7531   0.459   0.176  10.214 -1.3592 -0.8461 -1.3243
  797MOL0     H 7532   0.255   0.248  10.144  1.1074  0.6175  1.0638
  797MOL0     H 7533   0.324   0.352  10.014  0.0967  0.6746  1.6941
  797MOL0     H 7534   0.187   0.180   9.943  1.3088  1.5041 -3.9183
  797MOL0     H 7535   0.345   0.136   9.880  0.5867 -2.9790  1.1687
  797MOL0     H 7536   0.418  -0.001  10.036  0.3454  2.1013  1.9495
  797MOL0     H 7537   0.275   0.014  10.136  1.2962  0.7982  0.5944
  797MOL0     H 7538   0.235  -0.176  10.035  1.2086  0.9921  0.1627
  797MOL0     H 7539   0.130  -0.057   9.947  1.1990  3.5863  0.3569
  797MOL0     H 7540   0.301  -0.081   9.757  4.0358  0.3270  0.6443
  797MOL0     H 7541   0.384  -0.189   9.872 -1.1080 -2.0620  0.3632
  797MOL0     H 7542   0.155  -0.294   9.888  0.8055 -0.4176  1.0114
  797MOL0     H 7543   0.109  -0.213   9.737 -0.1651 -0.1518  0.0398
  797MOL0     H 7544   0.316  -0.444   9.755 -0.1878  0.0331  0.4225
  797MOL0     H 7545   0.300  -0.331   9.612 -3.4495  3.5514  0.0661
  797MOL0     H 7546   0.151  -0.660   9.710  1.6722  0.1279  1.6504
  797MOL0     H 7547  -0.074  -0.796   9.536  0.8087 -0.0893 -0.1559
  797MOL0     H 7548  -0.136  -0.744   9.696  1.3766  0.6956  1.4533
  797MOL0     H 7549  -0.224  -0.640   9.416 -0.6937 -1.7202 -0.0508
  797MOL0     H 7550  -0.300  -0.594   9.575  0.8720 -0.6433  0.9633
  797MOL0     H 7551  -0.384  -0.819   9.618 -0.2650 -1.8926 -0.1042
  797MOL0     H 7552  -0.294  -0.886   9.482  1.2992  0.8491 -0.1736
  797MOL0     H 7553  -0.525  -0.855   9.425  0.6060  0.5960 -0.1026
  797MOL0     H 7554  -0.455  -0.727   9.331 -0.9729  1.7618  0.0261
  797MOL0     H 7555  -0.701  -0.804   9.309 -2.0862  0.8904 -2.8361
  797MOL0     H 7556  -1.038  -0.880   9.275 -0.0331  0.0041  0.1864
  797MOL0     H 7557  -0.992  -0.742   9.178  0.2919 -0.1714 -1.2604
  797MOL0     H 7558  -0.877  -0.876   9.220 -2.9417 -2.2421 -0.6547
  797MOL0     H 7559  -1.258  -0.452   9.282 -0.3181 -0.2006 -0.6311
  797MOL0     H 7560  -1.468  -0.362   9.237 -0.1118 -0.9443 -0.4964
  797MOL0     H 7561  -1.789  -0.342   9.567 -0.0123  0.7054 -0.7542
  797MOL0     H 7562  -1.721  -0.179   9.576  2.1714  0.1737  0.0209
  797MOL0     H 7563  -1.872  -0.104   9.407 -2.2262  0.2511  1.1853
  797MOL0     H 7564  -1.941  -0.268   9.383 -2.8497  1.3742  0.2657
  797MOL0     H 7565  -1.924  -0.124   9.644  1.4022 -0.5339 -0.9228
  797MOL0     H 7566  -2.007  -0.269   9.608  0.1368 -0.2743 -0.2505
  797MOL0     H 7567  -2.170  -0.167   9.465 -2.3999 -0.5114  1.5704
  797MOL0     H 7568  -2.174  -0.100   9.625  1.7587  2.7020  1.8232
  797MOL0     H 7569  -2.028   0.047   9.376  1.9399 -1.4812  0.8613
  797MOL0     H 7570  -2.037   0.097   9.536 -1.5246 -1.6102  1.9777
  797MOL0     H 7571  -2.288   0.128   9.535 -1.4732  2.8590 -0.0887
  797MOL0     H 7572  -2.215   0.225   9.408 -3.7447  0.3889 -0.5102
  797MOL0     H 7573  -2.371   0.117   9.284  2.9504  0.2568 -0.6907
  797MOL0     H 7574  -2.373  -0.029   9.401 -0.3053 -1.1157 -0.2394
  797MOL0     H 7575  -2.319  -0.075   9.163 -1.7245  0.9090  1.9124
  797MOL0     H 7576  -2.184  -0.117   9.269 -2.8034 -2.1197 -0.2135
  797MOL0     H 7577  -1.592  -0.402   9.653  0.7476 -2.1150  1.0535
  797MOL0     H 7578  -1.376  -0.519   9.695 -0.2530  0.7762  0.8434
  797MOL0     H 7579  -0.952  -0.512   9.624 -0.6897  0.1316 -0.8184
  797MOL0     H 7580  -0.714  -0.545   9.652  0.7324  2.3120 -0.7066
  797MOL0     H 7581   0.592   0.509  10.372  0.8818  1.6119 -0.2348
  797MOL0     H 7582   0.821   0.568  10.441 -0.1651  0.5155 -0.5002
  797MOL0     H 7583   1.217   0.464  10.699  0.8166  1.2876  0.2772
  797MOL0     H 7584   1.434   0.490  10.750 -1.6472  1.7056  0.4149
  797MOL0     H 7585   1.740   0.532  10.424  2.2489  3.2923 -2.5178
  797MOL0     H 7586   1.723   0.696  10.493  0.3839  0.2343  1.8297
  797MOL0     H 7587   1.837   0.624  10.696  0.5789  1.9649 -0.3436
  797MOL0     H 7588   1.934   0.673  10.560  0.2494 -0.0981 -2.0824
  797MOL0     H 7589   1.948   0.425  10.489 -3.3402 -2.6466  0.4228
  797MOL0     H 7590   1.900   0.393  10.650  2.7211  0.1075  1.1083
  797MOL0     H 7591   2.081   0.518  10.754 -0.1586 -3.0879  1.3979
  797MOL0     H 7592   2.148   0.564  10.604  1.4279 -0.8168  1.1953
  797MOL0     H 7593   2.254   0.153  10.635  0.2408  0.1948  0.2392
  797MOL0     H 7594   1.539   0.559  10.338 -2.1078  0.8024 -1.3712
  797MOL0     H 7595   1.292   0.512  10.279 -1.3771 -2.1548  0.1882
  798MOL0     O 7596   8.124   9.905   2.346  1.2370 -0.2879 -0.2462
  798MOL0     C 7597   8.108   9.975   2.246 -0.0388 -0.7912 -0.2622
  798MOL0     O 7598   8.203  10.026   2.163  0.6981 -1.0071  1.0047
  798MOL0     C 7599   8.344  10.002   2.173  0.2191  0.5586  0.0929
  798MOL0     C 7600   8.414  10.023   2.061  0.7331 -0.0442  0.0804
  798MOL0     C 7601   8.551  10.009   2.051 -0.7072  0.1208  0.0405
  798MOL0     C 7602   8.623   9.961   2.160  0.6157  0.1339  0.1940
  798MOL0     O 7603   8.757   9.925   2.168 -0.4743 -0.1142  0.4178
  798MOL0     C 7604   8.841   9.997   2.077 -0.2530  0.0698 -1.5880
  798MOL0     C 7605   8.899   9.905   1.983 -0.7102  0.0560 -1.1563
  798MOL0     C 7606   9.016   9.964   1.916 -0.1735 -0.1102  0.6594
  798MOL0     C 7607   9.139   9.897   1.954 -0.7494  0.0668 -0.5478
  798MOL0     C 7608   9.265   9.931   1.860 -0.6588 -0.6889 -0.7437
  798MOL0     C 7609   9.388   9.865   1.911 -0.4960  0.1132 -0.2411
  798MOL0     C 7610   9.510   9.902   1.817  0.2719 -0.0226 -0.2360
  798MOL0     C 7611   9.627   9.801   1.838 -0.0569  0.1610 -0.4653
  798MOL0     N 7612   9.745   9.825   1.750  0.0415 -0.2911 -1.2537
  798MOL0     C 7613   9.834   9.732   1.717  1.1459  0.1034  0.5075
  798MOL0     C 7614   9.926   9.797   1.645  0.0273  0.3747 -0.3807
  798MOL0     C 7615  10.032   9.733   1.557  0.1776  0.6964 -0.2952
  798MOL0     C 7616   9.976   9.724   1.416 -0.3842  0.5750  0.6418
  798MOL0     C 7617  10.077   9.685   1.308 -0.0814 -0.1333  0.8736
  798MOL0     C 7618   9.994   9.689   1.174 -0.8346  0.5118  0.2464
  798MOL0     O 7619   9.912   9.573   1.163 -0.1968  0.3097  0.0815
  798MOL0     C 7620   9.782   9.589   1.126  0.1417  0.2425  0.1470
  798MOL0     C 7621   9.698   9.480   1.138 -1.0663  0.3321 -0.5475
  798MOL0     C 7622   9.569   9.471   1.092 -0.4477 -0.4359 -0.3018
  798MOL0     C 7623   9.509   9.336   1.087  0.6937  0.4027  0.5399
  798MOL0     C 7624   9.512   9.590   1.033  0.8746 -0.2111  0.2308
  798MOL0     C 7625   9.369   9.596   0.976 -0.0582 -0.1157  1.1001
  798MOL0     O 7626   9.275   9.513   1.028 -0.4964 -0.0371 -0.1510
  798MOL0     C 7627   9.148   9.544   0.987  0.2101 -0.1607 -0.1139
  798MOL0     C 7628   9.055   9.602   1.078 -1.4199 -0.8970  0.3189
  798MOL0     C 7629   8.927   9.623   1.034  0.4962 -0.6142  0.1942
  798MOL0     C 7630   8.892   9.589   0.908  0.5758  1.2470  0.9244
  798MOL0     O 7631   8.763   9.627   0.875 -0.3123  0.1737 -0.3089
  798MOL0     C 7632   8.738   9.691   0.750  0.2759  0.6035  0.6074
  798MOL0     C 7633   8.588   9.744   0.754  0.2027 -0.0372  0.2486
  798MOL0     C 7634   8.551   9.775   0.614 -0.1198 -0.0287 -0.7469
  798MOL0     C 7635   8.429   9.858   0.596  0.0349  0.3285  1.0432
  798MOL0     C 7636   8.297   9.806   0.658 -0.5213 -0.2630 -0.7690
  798MOL0     C 7637   8.236   9.692   0.573  0.1382  0.4786  0.1539
  798MOL0     C 7638   8.096   9.664   0.615 -0.3860 -0.0576 -0.7274
  798MOL0     C 7639   8.033   9.559   0.519  0.1481 -0.1678  0.5031
  798MOL0    Cl 7640   7.899   9.478   0.611 -0.3971  0.2763  0.1588
  798MOL0     C 7641   8.983   9.523   0.814 -0.3588  0.2373 -0.6608
  798MOL0     C 7642   9.113   9.499   0.858 -0.1404 -1.2430 -0.5105
  798MOL0     O 7643   9.351   9.689   0.903 -0.1302 -0.7968  0.1881
  798MOL0     C 7644   9.599   9.701   1.009  0.0708  0.5979 -0.2124
  798MOL0     C 7645   9.727   9.694   1.053 -0.3391  0.0813 -0.7090
  798MOL0     N 7646   9.882   9.930   1.634 -0.1811 -0.1053 -0.5738
  798MOL0     N 7647   9.780   9.952   1.706 -0.3576 -0.2845 -0.0162
  798MOL0     C 7648   8.559   9.949   2.284  0.6002 -0.4210  0.2845
  798MOL0     C 7649   8.417   9.966   2.283 -0.6186  0.4451  0.2953
  798MOL0     C 7650   7.968  10.018   2.225 -0.1347  0.1480  0.0068
  798MOL0     C 7651   7.925  10.066   2.097 -0.1042 -0.0616 -0.2919
  798MOL0     C 7652   7.789  10.099   2.075  0.1892 -0.7175 -0.0333
  798MOL0     C 7653   7.697  10.092   2.175 -0.1026  1.7088 -0.5204
  798MOL0     O 7654   7.571  10.138   2.149  0.2569 -0.7966 -0.8029
  798MOL0     C 7655   7.461  10.130   2.236 -0.5468  0.5549  0.5909
  798MOL0     C 7656   7.402   9.986   2.247  0.5822  0.1955  0.0133
  798MOL0     C 7657   7.265   9.994   2.315 -0.3140 -0.2519 -0.3309
  798MOL0     C 7658   7.220   9.856   2.351  0.2518 -0.2054 -0.4587
  798MOL0     C 7659   7.081   9.868   2.398 -0.2726  0.4301 -0.0428
  798MOL0     C 7660   6.961   9.852   2.422  0.4976  0.4643  0.7848
  798MOL0     C 7661   7.739  10.035   2.293 -1.2471  0.1077 -0.4014
  798MOL0     C 7662   7.871  10.012   2.321  0.7023 -0.4449 -0.6578
  798MOL0     H 7663   8.360  10.052   1.971  1.3601  0.6470 -0.0883
  798MOL0     H 7664   8.602  10.028   1.957 -0.7730 -0.4559 -0.1182
  798MOL0     H 7665   8.796  10.080   2.020 -2.1413  0.8988  0.9052
  798MOL0     H 7666   8.915  10.056   2.132 -2.6328  4.1172 -2.2794
  798MOL0     H 7667   8.926   9.813   2.037  0.6654  1.8993  1.5267
  798MOL0     H 7668   8.824   9.884   1.907 -2.7015  1.8089  0.2212
  798MOL0     H 7669   8.999   9.961   1.808  2.5186 -1.6968  0.1857
  798MOL0     H 7670   9.024  10.065   1.957 -2.4388  0.3743  0.0429
  798MOL0     H 7671   9.161   9.939   2.053 -0.2127  0.5006 -0.8464
  798MOL0     H 7672   9.127   9.788   1.955 -0.5498  0.0439 -0.2810
  798MOL0     H 7673   9.241   9.918   1.754  0.6235  1.8161 -1.4289
  798MOL0     H 7674   9.281  10.039   1.870  1.7695 -1.0932  0.7053
  798MOL0     H 7675   9.401   9.908   2.010 -0.9331  1.3675 -0.7134
  798MOL0     H 7676   9.366   9.760   1.933  2.1509 -0.3746  0.3736
  798MOL0     H 7677   9.471   9.882   1.716 -1.9745  0.0802  0.5378
  798MOL0     H 7678   9.535  10.007   1.835 -2.2567  0.6407 -0.1581
  798MOL0     H 7679   9.600   9.695   1.841  0.8358 -0.0774  1.8635
  798MOL0     H 7680   9.656   9.821   1.942  1.5923 -0.6203 -0.7461
  798MOL0     H 7681   9.841   9.624   1.727  0.6376 -0.4151 -3.2563
  798MOL0     H 7682  10.130   9.783   1.557  0.1594  0.7307 -0.3613
  798MOL0     H 7683  10.042   9.627   1.584 -0.0197  0.3160 -1.6001
  798MOL0     H 7684   9.927   9.818   1.389  0.6208  0.9421  0.0347
  798MOL0     H 7685   9.895   9.651   1.417 -0.2488  0.2501 -2.5386
  798MOL0     H 7686  10.120   9.590   1.340  0.9260  0.4826  1.4021
  798MOL0     H 7687  10.163   9.752   1.299 -1.0300  1.1167  0.7882
  798MOL0     H 7688  10.058   9.691   1.085 -0.7627  3.7990  0.2396
  798MOL0     H 7689   9.939   9.784   1.178 -0.8812  0.6506 -2.1480
  798MOL0     H 7690   9.744   9.391   1.180 -1.7609 -0.5947 -1.7024
  798MOL0     H 7691   9.448   9.330   0.996  1.9290  2.3756 -0.4821
  798MOL0     H 7692   9.584   9.256   1.090 -0.0452 -0.4181 -1.3912
  798MOL0     H 7693   9.444   9.337   1.175  1.9652 -0.1642  1.5078
  798MOL0     H 7694   9.098   9.619   1.176 -0.7462  0.0060 -0.1113
  798MOL0     H 7695   8.855   9.669   1.100 -0.9498 -0.1820 -1.6093
  798MOL0     H 7696   8.809   9.772   0.734 -1.3115  1.7641 -1.0535
  798MOL0     H 7697   8.750   9.611   0.676 -1.0974 -1.0240  2.0375
  798MOL0     H 7698   8.526   9.667   0.801  1.6217 -2.3183 -1.3763
  798MOL0     H 7699   8.584   9.836   0.812  0.9766 -1.5224  2.8273
  798MOL0     H 7700   8.525   9.682   0.563 -1.6417 -0.5675  0.9173
  798MOL0     H 7701   8.628   9.828   0.556 -1.6147  0.2356 -2.5789
  798MOL0     H 7702   8.454   9.955   0.640 -0.9170  0.5937  1.0183
  798MOL0     H 7703   8.413   9.869   0.488  0.3189 -1.5490  0.7698
  798MOL0     H 7704   8.221   9.884   0.665  1.1668  1.3536  0.5809
  798MOL0     H 7705   8.306   9.774   0.762  0.1786  1.3974 -0.2895
  798MOL0     H 7706   8.232   9.720   0.467 -2.8165 -1.9072 -0.4895
  798MOL0     H 7707   8.303   9.607   0.586 -1.2044 -0.6684 -0.1977
  798MOL0     H 7708   8.044   9.761   0.618  1.8456  1.1873  1.0945
  798MOL0     H 7709   8.110   9.620   0.714  3.6376  0.1191 -1.0417
  798MOL0     H 7710   8.105   9.484   0.485 -1.6374 -1.7924  0.1054
  798MOL0     H 7711   7.999   9.604   0.425 -2.4543 -0.2917  1.2851
  798MOL0     H 7712   8.944   9.488   0.718 -0.3392 -3.5186  0.5233
  798MOL0     H 7713   9.184   9.459   0.787  0.2609  0.4709 -1.1230
  798MOL0     H 7714   9.564   9.782   0.947 -2.7807 -0.3802 -0.0431
  798MOL0     H 7715   9.793   9.775   1.021 -0.5143  0.6113  0.2307
  798MOL0     H 7716   8.605   9.918   2.377 -1.4388 -2.8201  0.6132
  798MOL0     H 7717   8.360   9.961   2.375 -2.0139 -2.9432 -0.5936
  798MOL0     H 7718   7.999  10.069   2.017  2.1728  2.7413  1.6999
  798MOL0     H 7719   7.765  10.137   1.977  0.7207 -1.5469 -0.4968
  798MOL0     H 7720   7.491  10.156   2.338  0.5505 -4.4680  1.8514
  798MOL0     H 7721   7.392  10.206   2.200  0.2793  0.2415 -1.7878
  798MOL0     H 7722   7.467   9.925   2.311 -1.2589 -1.2181  0.6606
  798MOL0     H 7723   7.387   9.951   2.144 -2.7380  1.1162  0.0703
  798MOL0     H 7724   7.200  10.035   2.238 -0.3076 -0.0971 -0.2534
  798MOL0     H 7725   7.269  10.045   2.412 -2.4120  0.2994 -0.4699
  798MOL0     H 7726   7.285   9.832   2.436  1.5537  3.3811 -0.2652
  798MOL0     H 7727   7.227   9.787   2.266 -2.3499  0.6583 -1.4674
  798MOL0     H 7728   6.858   9.825   2.420  0.6955 -0.2891  0.5518
  798MOL0     H 7729   7.685  10.026   2.387 -1.2287  0.9945 -0.2990
  798MOL0     H 7730   7.891   9.996   2.427  0.8305 -3.3617 -1.0505
  799MOL0     O 7731   6.209   6.473   3.956  0.2169 -0.8549 -0.1513
  799MOL0     C 7732   6.211   6.356   3.932  0.4323  0.2455 -1.0712
  799MOL0     O 7733   6.108   6.267   3.954 -0.2226  0.5487  0.9064
  799MOL0     C 7734   5.974   6.306   3.952 -0.6120  0.5726  0.0714
  799MOL0     C 7735   5.885   6.201   3.992  0.1711  0.4250 -0.8542
  799MOL0     C 7736   5.752   6.225   4.011  0.4550  0.0031  0.2232
  799MOL0     C 7737   5.698   6.351   3.969 -0.1097 -0.2363 -0.5766
  799MOL0     O 7738   5.564   6.373   3.995  0.8689  0.0756 -0.3146
  799MOL0     C 7739   5.495   6.493   3.957 -1.4961 -0.4529 -1.0437
  799MOL0     C 7740   5.341   6.481   3.948 -0.4185  0.0093  0.8051
  799MOL0     C 7741   5.293   6.608   3.878  0.7917  0.1337 -0.0239
  799MOL0     C 7742   5.153   6.640   3.916 -0.3754 -0.1892  0.3395
  799MOL0     C 7743   5.110   6.780   3.866 -0.3421  0.1252 -0.4901
  799MOL0     C 7744   4.989   6.832   3.941  0.1706  0.1643  0.6954
  799MOL0     C 7745   4.973   6.989   3.935 -1.1477 -0.7385  0.4117
  799MOL0     C 7746   4.881   7.029   4.051 -0.7196  0.0028 -0.5163
  799MOL0     N 7747   4.737   7.014   4.021  0.3442 -0.7222 -0.0048
  799MOL0     C 7748   4.663   6.906   4.064 -0.9185 -0.4025  0.1176
  799MOL0     C 7749   4.534   6.926   4.024  0.0122 -0.0564  0.1538
  799MOL0     C 7750   4.410   6.826   4.058  0.0167  0.3977 -1.0726
  799MOL0     C 7751   4.379   6.727   3.946 -0.0395 -0.8574  0.1210
  799MOL0     C 7752   4.252   6.658   3.980  0.5937 -0.0440 -0.0174
  799MOL0     C 7753   4.232   6.536   3.894  0.3620 -0.0624 -0.1656
  799MOL0     O 7754   4.130   6.461   3.959 -0.6914  0.4319  0.1274
  799MOL0     C 7755   4.035   6.419   3.871  0.6202  0.6352 -0.3824
  799MOL0     C 7756   3.943   6.514   3.814  0.4706 -0.3843 -0.2278
  799MOL0     C 7757   3.844   6.478   3.715  1.0513 -0.0070 -0.4227
  799MOL0     C 7758   3.763   6.591   3.667  0.3887  0.2248 -0.8532
  799MOL0     C 7759   3.836   6.335   3.682  0.0849 -0.0061  0.6654
  799MOL0     C 7760   3.728   6.281   3.599 -0.6368  0.0983 -0.4191
  799MOL0     O 7761   3.731   6.143   3.578 -0.7655 -0.5830  0.1151
  799MOL0     C 7762   3.610   6.086   3.571 -0.2994 -0.3290 -0.0352
  799MOL0     C 7763   3.545   6.022   3.681 -0.5559  0.5754 -0.0722
  799MOL0     C 7764   3.435   5.944   3.679 -0.4402  0.0470  0.4662
  799MOL0     C 7765   3.374   5.929   3.553 -0.3551 -0.2898  0.3734
  799MOL0     O 7766   3.267   5.837   3.530  0.5641 -0.3882 -0.1421
  799MOL0     C 7767   3.197   5.798   3.652 -0.3913  0.4029 -0.0103
  799MOL0     C 7768   3.087   5.707   3.597 -0.0482  0.9442 -0.2550
  799MOL0     C 7769   2.979   5.697   3.706  0.9080  0.8503 -0.4114
  799MOL0     C 7770   2.858   5.628   3.666 -0.3104 -0.4407 -0.7708
  799MOL0     C 7771   2.875   5.479   3.648  0.1657  0.5726 -0.1838
  799MOL0     C 7772   2.760   5.399   3.603 -0.8985 -0.1486  0.4842
  799MOL0     C 7773   2.793   5.248   3.600  0.1532  0.2308 -0.0314
  799MOL0     C 7774   2.671   5.175   3.538  0.3713  1.0145 -0.5138
  799MOL0    Cl 7775   2.562   5.140   3.669  0.0722 -0.3925  0.1531
  799MOL0     C 7776   3.427   6.009   3.445  0.2408  0.5069 -0.4765
  799MOL0     C 7777   3.542   6.085   3.450 -0.2742 -0.1759 -0.8519
  799MOL0     O 7778   3.653   6.356   3.543  0.0273 -0.5170  0.0396
  799MOL0     C 7779   3.926   6.244   3.745 -0.0268 -0.2586  0.7558
  799MOL0     C 7780   4.022   6.287   3.834 -0.7111 -0.4294  0.0192
  799MOL0     N 7781   4.535   7.051   3.957  0.7097  0.0616  0.4980
  799MOL0     N 7782   4.658   7.097   3.950 -0.0675  0.4422 -0.0691
  799MOL0     C 7783   5.781   6.451   3.922  0.1894  0.1098 -0.2657
  799MOL0     C 7784   5.918   6.427   3.911  0.7338 -0.8203  0.8805
  799MOL0     C 7785   6.336   6.303   3.896  0.4500  0.3439  0.3501
  799MOL0     C 7786   6.456   6.384   3.879  0.6771  0.3558 -0.1208
  799MOL0     C 7787   6.561   6.327   3.811 -0.4559 -0.7804 -0.4761
  799MOL0     C 7788   6.564   6.187   3.777  0.4507  0.1911  0.1182
  799MOL0     O 7789   6.667   6.117   3.717 -0.2693  0.3424  0.0853
  799MOL0     C 7790   6.792   6.170   3.671  0.0329 -0.1436 -0.2918
  799MOL0     C 7791   6.774   6.254   3.549  0.0158 -0.2644 -0.0205
  799MOL0     C 7792   6.731   6.175   3.423  0.1642  0.3449  0.7920
  799MOL0     C 7793   6.837   6.137   3.314  0.5378  0.2741 -0.5041
  799MOL0     C 7794   6.967   6.091   3.373 -0.4692  0.4017  0.0940
  799MOL0     C 7795   7.068   6.051   3.424 -0.2267 -0.7015  0.3047
  799MOL0     C 7796   6.448   6.106   3.807  0.0887  0.4943 -0.2369
  799MOL0     C 7797   6.334   6.169   3.866 -0.0021  0.3597  0.0762
  799MOL0     H 7798   5.921   6.107   4.034 -2.2198  1.1458  3.3708
  799MOL0     H 7799   5.672   6.158   4.040 -0.7928  1.7812  1.1050
  799MOL0     H 7800   5.525   6.578   4.019 -1.3121  0.1234 -1.9163
  799MOL0     H 7801   5.534   6.518   3.858  1.0470  3.2927  0.6552
  799MOL0     H 7802   5.306   6.389   3.902  1.3850 -1.2697  1.8619
  799MOL0     H 7803   5.304   6.478   4.051 -1.3292 -0.5810  0.4679
  799MOL0     H 7804   5.352   6.693   3.915 -1.9031  2.0537  0.1275
  799MOL0     H 7805   5.299   6.603   3.769  0.6327 -1.7210  0.0128
  799MOL0     H 7806   5.069   6.579   3.884 -3.3412  3.5206  0.3429
  799MOL0     H 7807   5.152   6.622   4.024  2.5047 -0.9313  0.3335
  799MOL0     H 7808   5.195   6.845   3.887  2.4589 -3.5176  0.5025
  799MOL0     H 7809   5.080   6.773   3.761 -1.7694  1.0680 -0.1668
  799MOL0     H 7810   4.903   6.793   3.886  0.8786  1.4302 -1.4118
  799MOL0     H 7811   4.990   6.796   4.044  2.7520  1.9384  1.3767
  799MOL0     H 7812   5.069   7.032   3.965 -1.1072 -1.0161  0.6932
  799MOL0     H 7813   4.943   7.021   3.835  1.3962  1.4351  0.2482
  799MOL0     H 7814   4.910   7.135   4.054  0.8720 -0.4218  1.5240
  799MOL0     H 7815   4.909   6.994   4.151 -0.7923  1.7867  0.1657
  799MOL0     H 7816   4.700   6.820   4.120  0.4067 -0.1832 -0.3726
  799MOL0     H 7817   4.443   6.776   4.149 -0.4184  0.9194 -0.6235
  799MOL0     H 7818   4.320   6.886   4.073 -1.8554 -1.7636 -2.7652
  799MOL0     H 7819   4.463   6.662   3.921  0.0196  0.3448 -3.2321
  799MOL0     H 7820   4.361   6.777   3.851  0.6248 -1.6379 -0.4294
  799MOL0     H 7821   4.170   6.726   3.956 -0.1081 -0.5789  0.8113
  799MOL0     H 7822   4.256   6.614   4.081  1.0659  0.6820  0.2840
  799MOL0     H 7823   4.313   6.463   3.890 -1.4865 -2.1407 -2.6824
  799MOL0     H 7824   4.214   6.566   3.791  4.0752  2.4689 -0.2492
  799MOL0     H 7825   3.953   6.621   3.832 -0.5053  0.3639 -3.4728
  799MOL0     H 7826   3.779   6.593   3.558 -1.1692  2.6607 -1.1202
  799MOL0     H 7827   3.659   6.584   3.700  1.0572  2.2344  2.0940
  799MOL0     H 7828   3.806   6.689   3.693  0.4333 -0.0749  0.2178
  799MOL0     H 7829   3.586   6.048   3.778  0.0168  2.2549 -0.7255
  799MOL0     H 7830   3.404   5.908   3.777  0.5699  0.6745  1.0321
  799MOL0     H 7831   3.268   5.749   3.719  1.4268 -0.6055 -2.5207
  799MOL0     H 7832   3.160   5.884   3.709  0.1318  0.4489  0.2642
  799MOL0     H 7833   3.046   5.746   3.503  0.4433 -1.1512 -1.3924
  799MOL0     H 7834   3.136   5.610   3.583 -0.8867  0.7896 -2.5236
  799MOL0     H 7835   2.951   5.799   3.732  0.4650  0.6678 -0.1676
  799MOL0     H 7836   3.026   5.657   3.796  0.8877  1.8474  0.0494
  799MOL0     H 7837   2.787   5.651   3.746 -0.8871 -2.4495 -0.6331
  799MOL0     H 7838   2.829   5.681   3.574  0.3558 -1.2498 -1.4698
  799MOL0     H 7839   2.923   5.444   3.739  1.3870 -0.3460 -1.1506
  799MOL0     H 7840   2.944   5.461   3.565 -0.7611 -0.0479 -0.8418
  799MOL0     H 7841   2.669   5.422   3.659 -1.3767  0.1043 -0.3696
  799MOL0     H 7842   2.738   5.427   3.500 -0.9645 -1.6910  0.0507
  799MOL0     H 7843   2.819   5.208   3.698  1.8266  2.9136  0.7281
  799MOL0     H 7844   2.877   5.222   3.535 -0.4639 -1.6056 -0.1358
  799MOL0     H 7845   2.699   5.081   3.490 -0.4405 -0.0780  1.0337
  799MOL0     H 7846   2.626   5.235   3.458 -1.5432  0.7677  0.3053
  799MOL0     H 7847   3.384   5.988   3.348 -2.5757  0.9386  0.5731
  799MOL0     H 7848   3.587   6.121   3.358 -2.0929 -0.0031 -1.7271
  799MOL0     H 7849   3.931   6.141   3.711  1.0658  0.0577 -0.1013
  799MOL0     H 7850   4.095   6.213   3.867  4.4982  3.9771 -0.1621
  799MOL0     H 7851   5.739   6.550   3.909  0.0974  0.3466  1.6014
  799MOL0     H 7852   5.990   6.503   3.883  0.7974 -0.7657  1.1829
  799MOL0     H 7853   6.463   6.489   3.906  0.2255  0.3473  0.0249
  799MOL0     H 7854   6.648   6.389   3.793  1.3116 -2.4137  1.7686
  799MOL0     H 7855   6.836   6.238   3.745  1.5222 -2.1465  0.7628
  799MOL0     H 7856   6.870   6.098   3.643  0.6811  0.3682  0.1594
  799MOL0     H 7857   6.863   6.315   3.532 -0.5998  0.7339  0.2748
  799MOL0     H 7858   6.685   6.312   3.578 -1.8795 -2.8055 -0.3998
  799MOL0     H 7859   6.659   6.235   3.367  0.3688 -0.4550 -0.3530
  799MOL0     H 7860   6.679   6.084   3.455  2.6983 -1.7977 -0.8252
  799MOL0     H 7861   6.860   6.223   3.250  0.1492  2.5714  2.2605
  799MOL0     H 7862   6.799   6.050   3.258  3.4888 -0.7388 -1.1743
  799MOL0     H 7863   7.150   6.005   3.476  0.2533 -1.4343 -1.0569
  799MOL0     H 7864   6.449   6.009   3.759  2.6976 -0.0760  0.7840
  799MOL0     H 7865   6.252   6.098   3.870  0.5103 -0.2211  0.4167
  800MOL0     O 7866   0.593   2.938   7.501 -0.5508 -0.9151  0.0613
  800MOL0     C 7867   0.714   2.958   7.509 -0.1516  0.0224  0.4651
  800MOL0     O 7868   0.796   2.984   7.400  0.1510  0.4159  0.1088
  800MOL0     C 7869   0.754   3.019   7.273  1.0856  0.2966 -0.3044
  800MOL0     C 7870   0.628   3.087   7.249 -0.2988 -0.3659 -0.4265
  800MOL0     C 7871   0.606   3.138   7.120 -0.6507 -0.5499 -0.2815
  800MOL0     C 7872   0.703   3.109   7.024  0.0058  0.5401 -0.0482
  800MOL0     O 7873   0.689   3.154   6.893  0.5612  0.1730 -0.0475
  800MOL0     C 7874   0.562   3.126   6.830 -0.9548  0.1275  0.9942
  800MOL0     C 7875   0.601   3.086   6.682 -0.2284  0.0105 -0.6147
  800MOL0     C 7876   0.659   3.206   6.605 -0.4932  0.5192 -0.7273
  800MOL0     C 7877   0.645   3.185   6.448  0.7297  0.3813 -0.6528
  800MOL0     C 7878   0.667   3.315   6.374  0.3535  0.4040  0.1703
  800MOL0     C 7879   0.555   3.374   6.288 -0.6380  0.4216 -0.4310
  800MOL0     C 7880   0.529   3.289   6.166  0.3676  0.4630 -0.7545
  800MOL0     C 7881   0.429   3.355   6.071  0.0411 -0.0728  0.1803
  800MOL0     N 7882   0.362   3.269   5.968 -0.2388  0.3255 -1.1782
  800MOL0     C 7883   0.432   3.216   5.863 -0.3484  0.2536  0.7962
  800MOL0     C 7884   0.336   3.172   5.776  0.2129  0.2501  0.5890
  800MOL0     C 7885   0.350   3.111   5.640 -0.7400  0.5743 -0.3249
  800MOL0     C 7886   0.365   3.208   5.519  0.7104  0.1852 -0.4490
  800MOL0     C 7887   0.405   3.115   5.392 -1.4172 -0.1096  0.2780
  800MOL0     C 7888   0.305   3.094   5.275 -0.3205 -0.2800  0.2716
  800MOL0     O 7889   0.176   3.062   5.314 -0.2646  0.4038  0.0917
  800MOL0     C 7890   0.134   2.935   5.335  0.4541  0.4496  0.7750
  800MOL0     C 7891   0.209   2.818   5.296 -0.0573 -0.0278  0.3114
  800MOL0     C 7892   0.165   2.684   5.315  0.0368 -1.5745 -0.3990
  800MOL0     C 7893   0.251   2.575   5.270  0.3628 -0.2712  0.3380
  800MOL0     C 7894   0.052   2.663   5.402 -0.3562  0.4331  0.2439
  800MOL0     C 7895  -0.004   2.535   5.463  0.1613 -0.4235 -0.3049
  800MOL0     O 7896  -0.114   2.549   5.555  0.6761 -0.1333  0.5865
  800MOL0     C 7897  -0.169   2.437   5.608 -0.4220 -0.4146  0.2081
  800MOL0     C 7898  -0.109   2.349   5.703 -0.0197  0.2497 -0.3821
  800MOL0     C 7899  -0.174   2.229   5.742  0.0044  0.7495  0.5342
  800MOL0     C 7900  -0.307   2.205   5.702 -0.8832  1.2464  0.1429
  800MOL0     O 7901  -0.382   2.093   5.741 -0.6101  0.0241 -0.3407
  800MOL0     C 7902  -0.333   2.010   5.848 -0.4749  0.2407 -0.4975
  800MOL0     C 7903  -0.442   1.911   5.896  0.3139  0.8291  0.1816
  800MOL0     C 7904  -0.550   1.986   5.974  0.0853  0.5520 -0.2068
  800MOL0     C 7905  -0.644   2.040   5.870 -1.1021 -0.0779 -1.1647
  800MOL0     C 7906  -0.766   2.111   5.933 -0.2886  0.6249 -0.3664
  800MOL0     C 7907  -0.852   2.175   5.827 -0.7029 -0.0135 -0.3690
  800MOL0     C 7908  -0.966   2.265   5.889  0.7308  0.5441 -0.3448
  800MOL0     C 7909  -1.034   2.346   5.775  0.4207  0.7789  0.7078
  800MOL0    Cl 7910  -1.183   2.412   5.845 -0.4128  0.5939  0.0271
  800MOL0     C 7911  -0.370   2.294   5.620  1.0760  0.5565  0.0268
  800MOL0     C 7912  -0.308   2.412   5.581  0.2668  0.5619  0.4298
  800MOL0     O 7913   0.051   2.436   5.433  1.2578  0.6727  0.5043
  800MOL0     C 7914  -0.021   2.782   5.437 -0.7331  0.2514 -0.0400
  800MOL0     C 7915   0.017   2.907   5.410  1.1318 -0.4777  1.7095
  800MOL0     N 7916   0.213   3.194   5.845 -0.2348 -0.3815  0.5559
  800MOL0     N 7917   0.229   3.245   5.958 -0.4332 -0.8103 -0.1759
  800MOL0     C 7918   0.814   3.030   7.049 -0.1789  0.4616 -0.6129
  800MOL0     C 7919   0.843   2.987   7.172  0.6176  0.8454  0.3273
  800MOL0     C 7920   0.771   2.941   7.644 -0.7821  0.1451  0.8687
  800MOL0     C 7921   0.911   2.918   7.656  0.9974  0.1128 -0.2618
  800MOL0     C 7922   0.962   2.907   7.787 -0.3887 -0.1379 -0.3154
  800MOL0     C 7923   0.889   2.917   7.898  0.2075 -0.7787 -0.8364
  800MOL0     O 7924   0.933   2.919   8.025 -0.4807  0.4964  0.9282
  800MOL0     C 7925   1.065   2.862   8.047 -1.0155  0.9684  0.5925
  800MOL0     C 7926   1.174   2.969   8.014 -0.4195 -0.8672  0.1474
  800MOL0     C 7927   1.179   3.093   8.113 -0.5288 -0.3938 -0.2206
  800MOL0     C 7928   1.282   3.194   8.063 -0.3298  0.3634 -0.1148
  800MOL0     C 7929   1.222   3.273   7.954 -0.1308 -0.5544  0.0946
  800MOL0     C 7930   1.177   3.347   7.866 -0.6664 -0.0389 -0.0205
  800MOL0     C 7931   0.751   2.936   7.884 -0.3938  0.0309  0.7868
  800MOL0     C 7932   0.694   2.938   7.754 -0.2507 -0.4345  0.2262
  800MOL0     H 7933   0.558   3.105   7.330  1.6160  3.0958  0.6589
  800MOL0     H 7934   0.510   3.188   7.104 -0.5328  0.1952  1.1608
  800MOL0     H 7935   0.510   3.040   6.875  2.0143 -1.6374  1.3801
  800MOL0     H 7936   0.512   3.222   6.820  0.6400  1.0980  1.8594
  800MOL0     H 7937   0.665   2.997   6.680  0.9956  0.8755 -0.8672
  800MOL0     H 7938   0.505   3.075   6.630 -0.2027 -0.7915 -0.5059
  800MOL0     H 7939   0.608   3.294   6.645  0.1423  0.4802  0.2139
  800MOL0     H 7940   0.767   3.218   6.622 -0.1830 -1.9847 -0.5420
  800MOL0     H 7941   0.706   3.101   6.413  0.1464  0.1493 -1.1352
  800MOL0     H 7942   0.540   3.153   6.439  0.5210  1.2950 -1.5282
  800MOL0     H 7943   0.692   3.394   6.445 -0.8396 -0.7044  1.8974
  800MOL0     H 7944   0.753   3.285   6.312 -0.6905 -6.4192  1.2325
  800MOL0     H 7945   0.470   3.387   6.356 -0.7882 -1.9588 -0.0644
  800MOL0     H 7946   0.594   3.468   6.248  3.1120 -0.2977  1.0478
  800MOL0     H 7947   0.625   3.263   6.120  1.5683  1.2456  1.1571
  800MOL0     H 7948   0.493   3.191   6.196 -1.1060  1.0695 -0.4667
  800MOL0     H 7949   0.476   3.436   6.014  0.2416  0.2058  0.7292
  800MOL0     H 7950   0.352   3.399   6.135  0.6870 -1.2036  1.7892
  800MOL0     H 7951   0.538   3.211   5.837 -0.8130  0.7626 -1.4473
  800MOL0     H 7952   0.435   3.043   5.652 -0.4003  0.9538 -0.5739
  800MOL0     H 7953   0.263   3.046   5.625 -0.1655  0.2241 -2.5547
  800MOL0     H 7954   0.444   3.282   5.534  3.0412 -2.5952  2.1180
  800MOL0     H 7955   0.271   3.259   5.497  1.9400  2.3340 -0.9879
  800MOL0     H 7956   0.425   3.013   5.427 -0.5621  0.7549  2.5040
  800MOL0     H 7957   0.506   3.148   5.365 -1.2789 -1.9846 -1.7276
  800MOL0     H 7958   0.334   3.026   5.194 -1.5431 -0.5725  0.0619
  800MOL0     H 7959   0.290   3.194   5.233 -2.4155 -0.1541  1.1881
  800MOL0     H 7960   0.307   2.835   5.252  1.0099  2.4011  3.3250
  800MOL0     H 7961   0.327   2.608   5.199 -1.2122  2.3193 -0.2932
  800MOL0     H 7962   0.292   2.511   5.349 -0.5931  0.1454  1.2005
  800MOL0     H 7963   0.187   2.506   5.215 -1.3043 -0.3401  2.2359
  800MOL0     H 7964  -0.011   2.382   5.735 -0.3585  0.1001  0.8644
  800MOL0     H 7965  -0.107   2.165   5.797 -1.1724 -2.9045 -1.9385
  800MOL0     H 7966  -0.245   1.952   5.823 -2.1594 -2.2368 -1.0205
  800MOL0     H 7967  -0.311   2.064   5.941  0.9053  2.5931 -2.0802
  800MOL0     H 7968  -0.477   1.851   5.811 -0.7641 -0.2580  1.3416
  800MOL0     H 7969  -0.390   1.840   5.961  0.8593  0.6154 -0.4698
  800MOL0     H 7970  -0.521   2.065   6.043 -1.2727  1.3752 -0.5362
  800MOL0     H 7971  -0.612   1.919   6.035 -1.7998 -0.5170 -3.0609
  800MOL0     H 7972  -0.609   2.111   5.794 -0.6695  0.5586 -0.3853
  800MOL0     H 7973  -0.676   1.950   5.817  2.8717 -2.6888  0.4480
  800MOL0     H 7974  -0.730   2.194   5.996 -1.4848 -0.6653  2.1575
  800MOL0     H 7975  -0.823   2.055   6.007  1.6685 -1.8582 -0.6208
  800MOL0     H 7976  -0.790   2.239   5.764 -2.2403  1.1466 -0.7672
  800MOL0     H 7977  -0.898   2.102   5.760 -1.4044  0.1456 -0.0716
  800MOL0     H 7978  -0.921   2.339   5.956 -1.3621  2.2020 -0.6681
  800MOL0     H 7979  -1.043   2.204   5.937  0.7493  1.4705  0.9299
  800MOL0     H 7980  -1.051   2.288   5.684  2.2110  1.1013  0.1271
  800MOL0     H 7981  -0.969   2.427   5.742 -2.0826  2.5669 -0.1687
  800MOL0     H 7982  -0.470   2.281   5.580  0.1257  0.5865  2.2432
  800MOL0     H 7983  -0.353   2.482   5.512  1.5722  0.8848 -0.1258
  800MOL0     H 7984  -0.109   2.780   5.500 -0.6173  0.6301  0.1375
  800MOL0     H 7985  -0.040   2.996   5.437  0.3265 -0.3891 -0.1134
  800MOL0     H 7986   0.890   3.003   6.977  1.4605 -0.7453  1.4501
  800MOL0     H 7987   0.931   2.928   7.197  0.2248  0.5968  1.1860
  800MOL0     H 7988   0.976   2.925   7.570  1.6496  0.1646  0.2300
  800MOL0     H 7989   1.068   2.886   7.789 -0.2289  0.6039  1.9016
  800MOL0     H 7990   1.070   2.842   8.154 -0.2222  1.1708  0.5957
  800MOL0     H 7991   1.097   2.772   7.994  0.5341  1.2181  1.0617
  800MOL0     H 7992   1.166   3.013   7.914  1.3540  0.1830  0.4160
  800MOL0     H 7993   1.276   2.932   8.029 -0.3477 -0.1670  1.5505
  800MOL0     H 7994   1.207   3.059   8.213 -3.9721  0.3143  1.0942
  800MOL0     H 7995   1.085   3.148   8.121  0.0642  0.3368  4.1967
  800MOL0     H 7996   1.376   3.145   8.037 -0.1712 -0.8207  2.3198
  800MOL0     H 7997   1.287   3.263   8.148  1.0774  0.7596 -0.5018
  800MOL0     H 7998   1.134   3.391   7.779  1.4796  3.0029  0.2658
  800MOL0     H 7999   0.688   2.943   7.972  0.9617  1.2989  1.6915
  800MOL0     H 8000   0.588   2.956   7.740 -0.1785  0.7824  1.0541
  801MOL0     O 8001  11.176   6.789   3.364 -0.0076  0.4937  0.4179
  801MOL0     C 8002  11.225   6.685   3.404 -0.0305 -0.7524 -0.2224
  801MOL0     O 8003  11.153   6.591   3.467 -0.1620  0.0463  0.1907
  801MOL0     C 8004  11.013   6.594   3.456  0.7938  0.0041  0.7544
  801MOL0     C 8005  10.943   6.577   3.335  0.5257  0.5190 -0.4201
  801MOL0     C 8006  10.804   6.574   3.330  0.1181  0.3468 -0.2815
  801MOL0     C 8007  10.727   6.585   3.449  0.3898 -0.3359  0.6790
  801MOL0     O 8008  10.592   6.588   3.430  0.6309  0.4060 -0.4963
  801MOL0     C 8009  10.504   6.616   3.546 -0.5143  0.5080  1.1083
  801MOL0     C 8010  10.359   6.635   3.512 -0.7397  0.3130 -0.5396
  801MOL0     C 8011  10.291   6.515   3.447  0.3738 -0.2528 -0.5310
  801MOL0     C 8012  10.248   6.549   3.298 -0.3659 -0.2872 -0.1202
  801MOL0     C 8013  10.166   6.435   3.230  0.4534  0.0243  0.0431
  801MOL0     C 8014  10.244   6.301   3.208 -0.5814  0.6260  0.5923
  801MOL0     C 8015  10.367   6.314   3.123 -0.1513 -0.7304  0.2004
  801MOL0     C 8016  10.337   6.365   2.984 -0.0754 -0.7960  0.4225
  801MOL0     N 8017  10.245   6.274   2.905 -0.4215  0.5402 -1.0990
  801MOL0     C 8018  10.102   6.263   2.895 -0.0597  0.4709 -0.0369
  801MOL0     C 8019  10.082   6.134   2.835 -0.3846  0.5012  0.1977
  801MOL0     C 8020   9.950   6.071   2.810  0.5940 -0.1767  0.6231
  801MOL0     C 8021   9.840   6.164   2.751  0.2130  0.7839  0.0718
  801MOL0     C 8022   9.702   6.086   2.725  0.4407  0.6383  0.0627
  801MOL0     C 8023   9.611   6.165   2.646  0.8577  1.1062 -0.3985
  801MOL0     O 8024   9.562   6.275   2.715  1.3919  0.6836 -0.6326
  801MOL0     C 8025   9.455   6.358   2.674  0.8375  0.7784  0.1441
  801MOL0     C 8026   9.393   6.350   2.545 -0.4095 -0.2087  0.0243
  801MOL0     C 8027   9.273   6.419   2.525  0.3255 -0.1734 -0.3094
  801MOL0     C 8028   9.191   6.395   2.398  0.6049  0.0194  0.3083
  801MOL0     C 8029   9.228   6.511   2.615 -0.1012 -1.0473 -0.0378
  801MOL0     C 8030   9.106   6.570   2.598  0.2658  0.3411 -0.2234
  801MOL0     O 8031   9.000   6.477   2.616  0.3658 -0.2986 -0.4411
  801MOL0     C 8032   8.871   6.522   2.604 -1.1506 -0.5224  0.0764
  801MOL0     C 8033   8.792   6.559   2.712  0.7560  0.6463 -0.2627
  801MOL0     C 8034   8.669   6.618   2.683 -0.0540 -0.8706 -0.8703
  801MOL0     C 8035   8.615   6.621   2.552  0.1390 -0.5823 -0.5294
  801MOL0     O 8036   8.487   6.659   2.535 -0.2129 -0.1473  0.0606
  801MOL0     C 8037   8.404   6.594   2.438  0.0421  0.5704 -0.2562
  801MOL0     C 8038   8.266   6.644   2.463 -0.3963 -0.2201  0.5592
  801MOL0     C 8039   8.169   6.596   2.355  0.4063  0.5236  0.1323
  801MOL0     C 8040   8.024   6.639   2.394 -0.0783  0.4457 -0.6151
  801MOL0     C 8041   7.909   6.581   2.302  0.2153  0.5931  0.8938
  801MOL0     C 8042   7.773   6.587   2.357  0.3567  0.4760 -0.2907
  801MOL0     C 8043   7.670   6.538   2.255 -0.5992 -0.1487  0.3697
  801MOL0     C 8044   7.655   6.383   2.259  0.7347  0.0666  0.1336
  801MOL0    Cl 8045   7.505   6.329   2.190 -0.5666  0.1206  0.3313
  801MOL0     C 8046   8.697   6.573   2.447 -0.0131 -1.3559  0.0745
  801MOL0     C 8047   8.817   6.516   2.481  0.3758  0.7628  0.2001
  801MOL0     O 8048   9.095   6.689   2.593  0.5035 -0.1400 -0.2855
  801MOL0     C 8049   9.292   6.535   2.735  0.3429 -0.4167 -0.3977
  801MOL0     C 8050   9.403   6.450   2.761 -0.0224 -0.2158 -0.6361
  801MOL0     N 8051  10.208   6.075   2.809 -0.2161  1.0306 -0.3571
  801MOL0     N 8052  10.298   6.163   2.843 -0.1269  0.1886  0.3705
  801MOL0     C 8053  10.798   6.583   3.567  1.2268  0.0189  0.5622
  801MOL0     C 8054  10.939   6.591   3.574  0.1117  0.2295 -0.0717
  801MOL0     C 8055  11.370   6.669   3.400 -0.4325 -0.2808 -0.3433
  801MOL0     C 8056  11.435   6.561   3.470 -0.0821 -0.5150 -0.4513
  801MOL0     C 8057  11.576   6.548   3.461 -0.0102  0.8317 -0.1814
  801MOL0     C 8058  11.650   6.649   3.397 -0.2114 -0.1504 -0.3185
  801MOL0     O 8059  11.785   6.661   3.380  0.5236  0.0567  1.3999
  801MOL0     C 8060  11.852   6.682   3.508  0.4283  0.5200  0.4229
  801MOL0     C 8061  11.944   6.565   3.538  0.0154  0.2975 -0.1555
  801MOL0     C 8062  12.075   6.572   3.454 -0.4027 -0.0530  0.5280
  801MOL0     C 8063  12.166   6.680   3.528 -0.9793 -0.9009 -0.2891
  801MOL0     C 8064  12.286   6.702   3.452 -0.5075 -0.4251  0.3336
  801MOL0     C 8065  12.395   6.704   3.397 -0.4792  0.2314 -0.5135
  801MOL0     C 8066  11.584   6.747   3.328 -0.0369  0.8116 -0.7245
  801MOL0     C 8067  11.449   6.767   3.335 -0.1962 -0.2815  0.3895
  801MOL0     H 8068  10.992   6.578   3.239 -0.6790 -2.4058 -1.1538
  801MOL0     H 8069  10.754   6.565   3.234  1.9723  1.3458 -1.3889
  801MOL0     H 8070  10.516   6.533   3.616  0.0158 -0.3425  0.0395
  801MOL0     H 8071  10.551   6.706   3.585  1.2935  0.3813 -0.5978
  801MOL0     H 8072  10.304   6.672   3.599  0.0245  2.1129 -0.7788
  801MOL0     H 8073  10.364   6.714   3.437 -1.9931 -0.5559 -1.5859
  801MOL0     H 8074  10.358   6.429   3.437  1.9933  0.7226  1.3128
  801MOL0     H 8075  10.203   6.489   3.507 -0.1293 -0.1777 -1.2235
  801MOL0     H 8076  10.190   6.642   3.296 -0.4551 -0.3270  0.3229
  801MOL0     H 8077  10.342   6.575   3.249 -0.1095  2.0382  1.4372
  801MOL0     H 8078  10.085   6.400   3.294  1.5446 -1.5215  0.6350
  801MOL0     H 8079  10.128   6.471   3.133  0.8181  1.2495  0.3305
  801MOL0     H 8080  10.275   6.243   3.295  0.6778  0.0211 -0.2142
  801MOL0     H 8081  10.180   6.231   3.154  0.2609  0.3566 -0.1021
  801MOL0     H 8082  10.443   6.375   3.173 -0.0236 -0.9654  0.2925
  801MOL0     H 8083  10.418   6.218   3.113  0.5854 -0.2799 -0.4892
  801MOL0     H 8084  10.427   6.355   2.923  0.1513 -1.5112  0.8612
  801MOL0     H 8085  10.310   6.470   2.990  0.4414 -0.7120  1.4252
  801MOL0     H 8086  10.015   6.322   2.924 -1.1975 -0.3828 -1.5616
  801MOL0     H 8087   9.963   5.989   2.739  0.6659 -0.2827  0.7590
  801MOL0     H 8088   9.921   6.038   2.911  2.0211 -1.3338  0.6806
  801MOL0     H 8089   9.879   6.214   2.662 -0.6329 -1.4269 -1.6428
  801MOL0     H 8090   9.820   6.242   2.826  0.2074 -1.1048  2.1238
  801MOL0     H 8091   9.655   6.070   2.823  0.3681  0.0878 -0.0586
  801MOL0     H 8092   9.719   5.992   2.672  1.6646  2.4602 -2.9869
  801MOL0     H 8093   9.530   6.102   2.608  1.9710  0.3787 -1.6358
  801MOL0     H 8094   9.669   6.206   2.564  1.7278  0.8982  0.0903
  801MOL0     H 8095   9.435   6.292   2.464  2.0602 -0.8428  1.6536
  801MOL0     H 8096   9.115   6.322   2.425 -1.0026  1.2838 -0.6095
  801MOL0     H 8097   9.145   6.491   2.373  1.0766  0.4851  1.1626
  801MOL0     H 8098   9.252   6.361   2.314 -2.4010  0.0733 -2.0752
  801MOL0     H 8099   8.836   6.563   2.811  0.1184  1.2862  0.0111
  801MOL0     H 8100   8.607   6.655   2.764  1.3275 -0.0813 -0.1244
  801MOL0     H 8101   8.430   6.626   2.337  1.0977  2.3983  0.5323
  801MOL0     H 8102   8.412   6.485   2.435  0.2630  0.5615  0.3491
  801MOL0     H 8103   8.231   6.614   2.563 -1.1132  1.5015  0.8472
  801MOL0     H 8104   8.276   6.752   2.477  0.2712 -0.2127  0.0739
  801MOL0     H 8105   8.167   6.488   2.335 -0.8113  0.6313 -0.4590
  801MOL0     H 8106   8.193   6.639   2.257  0.7063 -0.5782 -0.2964
  801MOL0     H 8107   7.998   6.611   2.497  2.6396  1.5513  0.4719
  801MOL0     H 8108   8.024   6.748   2.400  0.9245  0.4230  0.1172
  801MOL0     H 8109   7.930   6.475   2.282 -1.0524  0.4715  0.0837
  801MOL0     H 8110   7.905   6.633   2.206  0.0460  0.7754  0.9990
  801MOL0     H 8111   7.768   6.530   2.451 -2.3650  0.4398 -0.3773
  801MOL0     H 8112   7.751   6.693   2.374  1.1686  0.7031 -0.6078
  801MOL0     H 8113   7.703   6.573   2.157 -0.2721 -1.6151 -0.0538
  801MOL0     H 8114   7.573   6.584   2.279 -1.2030 -1.5634  0.7507
  801MOL0     H 8115   7.658   6.344   2.361  3.6080  3.9141  1.7808
  801MOL0     H 8116   7.742   6.341   2.208  0.0351  1.0367 -1.9420
  801MOL0     H 8117   8.650   6.577   2.350  0.9703  1.3437 -0.3722
  801MOL0     H 8118   8.871   6.489   2.390  0.0846  1.4477 -0.1920
  801MOL0     H 8119   9.269   6.622   2.796  1.1645  0.9150 -1.9041
  801MOL0     H 8120   9.454   6.465   2.856 -1.1934 -0.1047 -0.0131
  801MOL0     H 8121  10.740   6.581   3.659  1.4570  0.9325  0.7429
  801MOL0     H 8122  10.992   6.598   3.668  0.5237 -0.4801 -0.2369
  801MOL0     H 8123  11.382   6.480   3.519  1.9486 -0.5138  1.9232
  801MOL0     H 8124  11.630   6.468   3.509  0.3457  1.6865  0.8915
  801MOL0     H 8125  11.902   6.779   3.499  0.6942  0.5790  2.2068
  801MOL0     H 8126  11.780   6.694   3.589  1.6975  1.3804  1.4606
  801MOL0     H 8127  11.887   6.475   3.514 -0.0202 -0.0827  1.3136
  801MOL0     H 8128  11.962   6.571   3.645 -0.7903 -0.1551  0.0172
  801MOL0     H 8129  12.053   6.603   3.352 -0.2449  3.3888  1.4368
  801MOL0     H 8130  12.134   6.480   3.460  0.8460  0.5492 -1.5397
  801MOL0     H 8131  12.204   6.648   3.626  0.4775  0.0517 -0.5268
  801MOL0     H 8132  12.114   6.776   3.532 -1.1852 -1.0345  0.6615
  801MOL0     H 8133  12.491   6.702   3.350 -1.8127 -4.0951 -3.7867
  801MOL0     H 8134  11.640   6.819   3.269  1.6798 -0.7292 -1.0268
  801MOL0     H 8135  11.413   6.864   3.302  0.6139 -0.2880 -0.5290
  802MOL0     O 8136   0.623   7.966  11.368  0.2703  0.2764 -0.8361
  802MOL0     C 8137   0.710   7.885  11.400 -0.8236  0.5758 -0.4266
  802MOL0     O 8138   0.703   7.744  11.378 -0.3243 -0.1228 -0.2410
  802MOL0     C 8139   0.609   7.681  11.298 -0.1064 -0.1139 -1.7570
  802MOL0     C 8140   0.595   7.542  11.313  0.0176 -0.1482  0.2806
  802MOL0     C 8141   0.506   7.464  11.229  0.6746 -0.6215  0.5469
  802MOL0     C 8142   0.424   7.530  11.138  0.8087  0.3550 -0.5055
  802MOL0     O 8143   0.346   7.454  11.058  0.0019 -0.0459 -0.1340
  802MOL0     C 8144   0.253   7.514  10.965 -0.1326  0.6014  0.7835
  802MOL0     C 8145   0.115   7.523  11.026  0.7538  0.5450  0.6518
  802MOL0     C 8146   0.005   7.589  10.938  0.4146  0.4670 -0.8108
  802MOL0     C 8147   0.006   7.534  10.795  0.9354  0.0346 -0.3990
  802MOL0     C 8148  -0.096   7.619  10.710 -0.3168 -0.8045  0.5919
  802MOL0     C 8149  -0.084   7.581  10.563  1.3527  0.8839  0.0108
  802MOL0     C 8150  -0.191   7.652  10.483  0.2138 -0.7394  0.7264
  802MOL0     C 8151  -0.212   7.622  10.326 -0.0368  0.6397 -0.2310
  802MOL0     N 8152  -0.336   7.673  10.273  0.5287 -0.6554  0.2590
  802MOL0     C 8153  -0.350   7.760  10.170  0.0473 -0.1793  0.8218
  802MOL0     C 8154  -0.486   7.763  10.154  0.1742  1.0654  0.1793
  802MOL0     C 8155  -0.554   7.847  10.055 -0.7328 -0.5220 -0.0103
  802MOL0     C 8156  -0.565   7.990  10.102  0.1793 -1.1278  0.5965
  802MOL0     C 8157  -0.641   8.019  10.231  0.0423 -0.2829  1.1611
  802MOL0     C 8158  -0.770   7.948  10.229 -0.2394 -0.3256  0.7690
  802MOL0     O 8159  -0.856   7.992  10.124 -0.0950 -0.0126  0.1030
  802MOL0     C 8160  -0.989   8.011  10.152 -0.7800  0.1675 -0.3075
  802MOL0     C 8161  -1.053   8.103  10.078 -0.6873 -0.5612 -0.7846
  802MOL0     C 8162  -1.190   8.135  10.095 -0.1224  0.0679  0.5302
  802MOL0     C 8163  -1.253   8.238  10.007 -0.3119 -0.1191 -0.2088
  802MOL0     C 8164  -1.269   8.058  10.192  0.0229 -0.3392  0.5363
  802MOL0     C 8165  -1.411   8.065  10.211  0.3300  0.4684  0.2938
  802MOL0     O 8166  -1.488   8.143  10.126  1.0909 -0.1687 -0.0355
  802MOL0     C 8167  -1.610   8.201  10.174 -0.3488 -0.5781 -0.1282
  802MOL0     C 8168  -1.615   8.297  10.281 -0.0602 -0.0022 -0.6581
  802MOL0     C 8169  -1.735   8.352  10.319 -0.1984 -0.0039  0.0416
  802MOL0     C 8170  -1.857   8.303  10.266  0.8591 -0.1786  0.5929
  802MOL0     O 8171  -1.972   8.371  10.300  0.6855 -0.4904  0.2901
  802MOL0     C 8172  -2.013   8.361  10.434  0.1851 -0.5542 -0.3593
  802MOL0     C 8173  -2.119   8.464  10.459 -0.4032  0.5486  0.0657
  802MOL0     C 8174  -2.244   8.447  10.366 -0.0046 -0.0091 -0.2633
  802MOL0     C 8175  -2.375   8.506  10.420  0.2500 -0.3074 -0.5278
  802MOL0     C 8176  -2.421   8.440  10.549 -0.5204  0.4996  0.0239
  802MOL0     C 8177  -2.554   8.508  10.609 -0.0873  0.0459  0.0663
  802MOL0     C 8178  -2.607   8.410  10.720  0.3500 -0.3188  0.1274
  802MOL0     C 8179  -2.750   8.454  10.772  0.1697 -0.5082  0.3308
  802MOL0    Cl 8180  -2.822   8.330  10.865 -0.1204  0.3168 -0.0586
  802MOL0     C 8181  -1.856   8.212  10.156  0.7224  0.3619  0.4905
  802MOL0     C 8182  -1.732   8.167  10.111 -0.1017 -0.1805 -0.0723
  802MOL0     O 8183  -1.462   8.001  10.304  0.0891  0.6505 -0.9368
  802MOL0     C 8184  -1.191   7.971  10.277  0.2793  0.1537  0.1383
  802MOL0     C 8185  -1.064   7.941  10.253 -0.0847 -0.0877  0.3705
  802MOL0     N 8186  -0.543   7.662  10.229 -0.5760  0.6402 -0.0591
  802MOL0     N 8187  -0.456   7.611  10.305 -0.0215 -0.1416 -0.0963
  802MOL0     C 8188   0.441   7.665  11.129 -0.3524 -0.1856  0.3001
  802MOL0     C 8189   0.528   7.738  11.196  0.1061 -0.8090  0.5477
  802MOL0     C 8190   0.836   7.942  11.471  0.4022  0.5577 -0.2513
  802MOL0     C 8191   0.868   8.082  11.477  0.4343 -0.4372 -0.0086
  802MOL0     C 8192   0.983   8.128  11.528 -0.0858 -0.0719  0.2266
  802MOL0     C 8193   1.071   8.044  11.585 -0.0927  0.2477  0.6009
  802MOL0     O 8194   1.177   8.107  11.638  0.7449 -0.3730  0.3041
  802MOL0     C 8195   1.271   8.040  11.708 -0.8701  0.4936 -0.8954
  802MOL0     C 8196   1.351   7.950  11.607 -0.7279 -0.0976  0.2212
  802MOL0     C 8197   1.497   7.928  11.654 -1.2979  0.3079 -1.1372
  802MOL0     C 8198   1.575   8.052  11.687  0.1872 -0.2819  0.0780
  802MOL0     C 8199   1.583   8.149  11.571  0.8157  0.4058  1.5544
  802MOL0     C 8200   1.572   8.224  11.473 -0.2726 -0.9757 -0.8661
  802MOL0     C 8201   1.032   7.904  11.607 -0.5547  0.3619  0.3335
  802MOL0     C 8202   0.915   7.859  11.544  0.1183  0.6720  0.3317
  802MOL0     H 8203   0.657   7.499  11.392  0.5629 -1.4007 -0.7975
  802MOL0     H 8204   0.496   7.358  11.250 -0.2706 -0.1730  2.5484
  802MOL0     H 8205   0.288   7.613  10.934  0.9405 -0.1753 -0.5789
  802MOL0     H 8206   0.261   7.448  10.879 -0.4342  0.3801  0.9210
  802MOL0     H 8207   0.079   7.421  11.034  1.9204  0.1819  1.4980
  802MOL0     H 8208   0.114   7.577  11.122  1.6729  1.7420  0.0269
  802MOL0     H 8209  -0.094   7.584  10.985 -0.8770  4.7549 -2.5826
  802MOL0     H 8210   0.029   7.696  10.932 -0.6073  0.7723  0.2121
  802MOL0     H 8211   0.106   7.530  10.750  0.3167 -0.6616 -1.7692
  802MOL0     H 8212  -0.039   7.434  10.800  0.3868  0.3044  0.1794
  802MOL0     H 8213  -0.200   7.615  10.742 -0.0375 -0.6303  1.5606
  802MOL0     H 8214  -0.077   7.726  10.722  1.5385 -1.1876  1.4921
  802MOL0     H 8215   0.012   7.606  10.517  1.3970 -0.3337 -0.5749
  802MOL0     H 8216  -0.098   7.473  10.561 -0.1075  1.0468 -0.4806
  802MOL0     H 8217  -0.283   7.634  10.538  1.3101  2.1215  3.7730
  802MOL0     H 8218  -0.161   7.756  10.496 -0.0625 -0.8698  2.5722
  802MOL0     H 8219  -0.205   7.514  10.307 -0.7260  0.8230 -1.6952
  802MOL0     H 8220  -0.128   7.663  10.269  1.4693 -1.9551 -0.0436
  802MOL0     H 8221  -0.275   7.819  10.117 -0.4106 -0.9422 -0.7340
  802MOL0     H 8222  -0.497   7.845   9.961 -0.6785  3.2598 -0.1986
  802MOL0     H 8223  -0.648   7.799  10.026 -0.6159  0.3580 -2.0105
  802MOL0     H 8224  -0.602   8.057  10.024 -1.6984 -1.1851  1.3767
  802MOL0     H 8225  -0.463   8.014  10.131 -0.8807 -1.8027  5.9618
  802MOL0     H 8226  -0.649   8.123  10.263  0.7122 -0.6467  2.5832
  802MOL0     H 8227  -0.573   7.967  10.299 -0.5065 -3.8435 -0.7698
  802MOL0     H 8228  -0.810   7.973  10.328  0.0913  0.4175  0.7206
  802MOL0     H 8229  -0.759   7.839  10.231 -0.2946 -0.3286  2.5214
  802MOL0     H 8230  -1.006   8.150   9.992 -1.7943  1.4315 -0.3607
  802MOL0     H 8231  -1.175   8.301   9.963 -1.1241  0.9203 -0.2025
  802MOL0     H 8232  -1.311   8.203   9.921 -0.6359  1.8898 -0.8640
  802MOL0     H 8233  -1.326   8.290  10.071 -0.7161 -1.1712  0.1998
  802MOL0     H 8234  -1.529   8.345  10.327 -1.4267  2.8700 -0.8631
  802MOL0     H 8235  -1.746   8.433  10.390 -4.0909 -0.9028  0.7027
  802MOL0     H 8236  -2.053   8.261  10.450 -1.8120 -0.1116 -2.0110
  802MOL0     H 8237  -1.930   8.387  10.500 -1.3115  0.6053  1.1651
  802MOL0     H 8238  -2.135   8.453  10.567  3.0469  0.1112  0.6454
  802MOL0     H 8239  -2.073   8.561  10.439 -2.1922  1.3391 -0.4265
  802MOL0     H 8240  -2.256   8.343  10.333 -4.7638 -0.6360  2.4720
  802MOL0     H 8241  -2.234   8.515  10.281 -1.6181 -3.0378 -3.0799
  802MOL0     H 8242  -2.361   8.613  10.436 -2.5371  0.2444 -1.2249
  802MOL0     H 8243  -2.458   8.496  10.350 -0.7399  3.2102 -0.0510
  802MOL0     H 8244  -2.359   8.446  10.639 -1.3252 -0.1526  0.6401
  802MOL0     H 8245  -2.439   8.336  10.520  2.5107 -0.5331  1.4075
  802MOL0     H 8246  -2.527   8.604  10.654  2.9196  0.5141 -2.4091
  802MOL0     H 8247  -2.627   8.515  10.527  1.6075  2.8644 -1.3468
  802MOL0     H 8248  -2.531   8.410  10.799  0.0853 -2.2051  0.4486
  802MOL0     H 8249  -2.614   8.303  10.695 -0.6219 -0.4864  1.0062
  802MOL0     H 8250  -2.807   8.487  10.685 -0.5861 -1.5251  0.4212
  802MOL0     H 8251  -2.738   8.532  10.848  0.0810 -0.0352 -0.1371
  802MOL0     H 8252  -1.946   8.187  10.101 -2.0528  1.2509  4.2368
  802MOL0     H 8253  -1.731   8.100  10.026  0.7887 -1.6563  1.0457
  802MOL0     H 8254  -1.242   7.905  10.346  0.3185  2.3979  2.4665
  802MOL0     H 8255  -1.016   7.871  10.322  1.8799  2.4691  1.7595
  802MOL0     H 8256   0.384   7.728  11.062 -2.4964  1.5405  3.4475
  802MOL0     H 8257   0.538   7.843  11.173 -0.7424 -1.3459 -2.9456
  802MOL0     H 8258   0.790   8.143  11.433  0.0750 -0.3339  0.7600
  802MOL0     H 8259   0.996   8.235  11.519 -1.3492  0.0262 -0.6533
  802MOL0     H 8260   1.335   8.115  11.757 -1.2918 -0.4515  1.2126
  802MOL0     H 8261   1.233   7.981  11.792  3.3089  3.0934  3.3653
  802MOL0     H 8262   1.360   8.003  11.512  1.2749 -2.4548 -1.0165
  802MOL0     H 8263   1.307   7.856  11.572 -0.6283  0.7195 -2.2865
  802MOL0     H 8264   1.556   7.882  11.574 -1.3281  3.2103 -2.9800
  802MOL0     H 8265   1.498   7.863  11.741  1.1424  1.7126 -0.0174
  802MOL0     H 8266   1.675   8.023  11.720 -1.2773 -2.1885  3.3707
  802MOL0     H 8267   1.521   8.100  11.770 -2.0999 -1.6360 -0.5232
  802MOL0     H 8268   1.551   8.287  11.389 -1.0830 -3.7745 -2.9057
  802MOL0     H 8269   1.093   7.827  11.653  0.6953  0.8580 -0.4402
  802MOL0     H 8270   0.897   7.752  11.540  3.0854  0.0956 -0.2133
  803MOL0     O 8271   0.865   1.678   0.230  0.2596 -0.3706  0.0294
  803MOL0     C 8272   0.920   1.684   0.335 -0.9866  0.0273 -0.4030
  803MOL0     O 8273   1.011   1.785   0.370 -0.1662 -0.1960  0.8188
  803MOL0     C 8274   0.969   1.915   0.355  1.9327 -0.3041 -0.4045
  803MOL0     C 8275   0.833   1.954   0.359 -0.1354 -0.1494 -0.2430
  803MOL0     C 8276   0.797   2.092   0.369  0.2048  0.8610  0.1423
  803MOL0     C 8277   0.886   2.196   0.372 -0.6693  1.0366 -0.2547
  803MOL0     O 8278   0.825   2.317   0.384 -0.0171  0.3748 -0.1981
  803MOL0     C 8279   0.903   2.443   0.358  1.7437  0.0430 -0.7797
  803MOL0     C 8280   0.875   2.498   0.217  0.3794 -0.8826 -0.1820
  803MOL0     C 8281   0.743   2.565   0.204 -0.0825 -0.4128 -0.4034
  803MOL0     C 8282   0.628   2.478   0.256  0.4544 -0.7503 -0.3816
  803MOL0     C 8283   0.487   2.535   0.212 -0.3346  0.5200  0.5474
  803MOL0     C 8284   0.387   2.440   0.269  0.2056  0.5023  0.0041
  803MOL0     C 8285   0.245   2.488   0.251 -0.7814  0.4018  0.1079
  803MOL0     C 8286   0.190   2.466   0.108  0.1210 -0.9916 -0.9035
  803MOL0     N 8287   0.116   2.588   0.070  0.3205  0.0643 -0.4482
  803MOL0     C 8288  -0.020   2.621   0.066 -0.4338  0.6615  0.5220
  803MOL0     C 8289  -0.030   2.738   0.007 -0.0720  0.3177 -0.6599
  803MOL0     C 8290  -0.155   2.813  -0.040 -0.5048 -0.7067  1.2245
  803MOL0     C 8291  -0.285   2.744  -0.003  1.0068 -0.5392 -0.2624
  803MOL0     C 8292  -0.408   2.835  -0.038 -0.5222  0.2406 -0.1794
  803MOL0     C 8293  -0.543   2.777   0.001  0.2565  0.4557  0.1025
  803MOL0     O 8294  -0.625   2.890  -0.029 -0.8611  0.4866 -0.2032
  803MOL0     C 8295  -0.752   2.894   0.015 -0.4094 -0.5066 -1.0710
  803MOL0     C 8296  -0.810   3.024   0.017  0.1662 -0.0174 -0.3294
  803MOL0     C 8297  -0.937   3.045   0.062  1.0878  0.0269  0.6119
  803MOL0     C 8298  -0.995   3.188   0.064  0.3093  0.4912 -0.3886
  803MOL0     C 8299  -1.008   2.933   0.110  1.0518 -0.8340  0.2725
  803MOL0     C 8300  -1.154   2.942   0.125  0.3601  0.1166 -0.2291
  803MOL0     O 8301  -1.226   3.020   0.041  0.0172 -0.3843 -0.9629
  803MOL0     C 8302  -1.365   3.018   0.056  0.0994  0.5360 -0.2219
  803MOL0     C 8303  -1.450   2.946  -0.037  0.0925  0.1371 -1.1079
  803MOL0     C 8304  -1.589   2.948  -0.006  0.1676  0.2682 -0.0844
  803MOL0     C 8305  -1.648   3.021   0.102 -0.3957 -0.1064  0.0307
  803MOL0     O 8306  -1.771   3.005   0.141 -0.7331  0.0893 -0.2295
  803MOL0     C 8307  -1.828   2.872   0.121 -1.1603 -0.4741 -0.1466
  803MOL0     C 8308  -1.969   2.864   0.186 -0.2390 -0.7441 -0.3241
  803MOL0     C 8309  -2.067   2.954   0.113  0.1608 -0.5243  0.0900
  803MOL0     C 8310  -2.205   2.943   0.146  0.2206  0.1215 -0.5795
  803MOL0     C 8311  -2.289   3.021   0.047 -0.1345 -0.4611 -0.1304
  803MOL0     C 8312  -2.430   3.049   0.088  0.3580  0.6682  1.0435
  803MOL0     C 8313  -2.516   3.132  -0.013 -0.3779 -0.5461  0.0978
  803MOL0     C 8314  -2.665   3.142   0.024  0.5029  0.5536  0.6272
  803MOL0    Cl 8315  -2.761   3.263  -0.070 -0.0687 -0.0190 -0.0899
  803MOL0     C 8316  -1.562   3.099   0.176  0.3700  0.8385 -0.5814
  803MOL0     C 8317  -1.427   3.091   0.163  0.0975  0.0984 -0.4672
  803MOL0     O 8318  -1.200   2.894   0.229  0.3601 -0.3627  0.3454
  803MOL0     C 8319  -0.953   2.806   0.119 -0.1491 -0.5209 -0.0763
  803MOL0     C 8320  -0.822   2.786   0.072  1.2178  0.4504 -0.1013
  803MOL0     N 8321   0.086   2.792  -0.005 -0.4269  0.0444  0.4953
  803MOL0     N 8322   0.175   2.705   0.025  0.6191 -0.0696  0.0801
  803MOL0     C 8323   1.021   2.153   0.361 -0.4063 -1.0980 -0.9915
  803MOL0     C 8324   1.066   2.016   0.344  0.0288 -0.0405 -0.7340
  803MOL0     C 8325   0.867   1.591   0.438 -0.3370  0.6028 -0.3046
  803MOL0     C 8326   0.728   1.551   0.427 -0.7656  0.1055  0.8820
  803MOL0     C 8327   0.670   1.500   0.542  0.7272  0.1315  0.2183
  803MOL0     C 8328   0.740   1.464   0.654 -0.7176 -0.6977  0.4085
  803MOL0     O 8329   0.666   1.379   0.735 -0.3210  0.8523 -0.2576
  803MOL0     C 8330   0.731   1.324   0.853 -0.2767  0.2858 -0.3300
  803MOL0     C 8331   0.749   1.437   0.955  0.5639  0.0577 -0.7398
  803MOL0     C 8332   0.792   1.380   1.098  0.6811 -0.6334 -0.2509
  803MOL0     C 8333   0.764   1.490   1.202 -0.5062 -0.3567  1.3280
  803MOL0     C 8334   0.624   1.533   1.223  0.0337  0.3144 -0.5230
  803MOL0     C 8335   0.505   1.564   1.243  0.5536 -1.0096  0.3508
  803MOL0     C 8336   0.879   1.499   0.666  0.0681 -0.1273  0.1065
  803MOL0     C 8337   0.937   1.572   0.558  0.8356  0.5734  0.7008
  803MOL0     H 8338   0.752   1.882   0.360  0.0584 -0.3690 -0.1952
  803MOL0     H 8339   0.691   2.106   0.383 -0.2537 -1.6337 -0.3985
  803MOL0     H 8340   0.873   2.517   0.433  2.4490  0.4588 -0.8990
  803MOL0     H 8341   1.011   2.438   0.374  1.6644  1.3903  0.3950
  803MOL0     H 8342   0.948   2.578   0.201 -3.2902  2.6564 -0.8884
  803MOL0     H 8343   0.885   2.413   0.149  3.7226 -2.8978  2.5130
  803MOL0     H 8344   0.742   2.661   0.257  2.0932 -1.3983  1.5758
  803MOL0     H 8345   0.731   2.595   0.099  2.3818  1.3589 -0.2682
  803MOL0     H 8346   0.638   2.379   0.212 -2.1989  0.2180 -3.6476
  803MOL0     H 8347   0.631   2.485   0.365 -0.9846  1.1735 -0.4001
  803MOL0     H 8348   0.472   2.637   0.250 -3.0962  0.5870 -0.5117
  803MOL0     H 8349   0.474   2.540   0.103  1.3419  2.8840  0.3662
  803MOL0     H 8350   0.393   2.338   0.231 -0.6712 -0.0247  1.2007
  803MOL0     H 8351   0.410   2.439   0.376  0.5945  2.8913  0.0081
  803MOL0     H 8352   0.176   2.440   0.321 -1.8574  0.7233 -0.7093
  803MOL0     H 8353   0.243   2.597   0.265  0.3391  0.4816 -0.2564
  803MOL0     H 8354   0.135   2.373   0.097 -0.6319 -0.6710 -0.0348
  803MOL0     H 8355   0.271   2.458   0.036  0.7729  0.9033 -0.4515
  803MOL0     H 8356  -0.095   2.548   0.093  2.1838 -3.9353 -3.2729
  803MOL0     H 8357  -0.151   2.918  -0.008  0.1351 -0.5917  0.7850
  803MOL0     H 8358  -0.134   2.808  -0.147  3.0419 -1.1486  1.8115
  803MOL0     H 8359  -0.283   2.726   0.105 -1.2733 -0.2134 -0.1285
  803MOL0     H 8360  -0.298   2.648  -0.053 -3.6161  0.2437 -0.9714
  803MOL0     H 8361  -0.414   2.838  -0.148  0.7112 -2.1057 -0.3902
  803MOL0     H 8362  -0.397   2.933   0.008  1.0029 -0.3272  0.7427
  803MOL0     H 8363  -0.549   2.757   0.108  1.1167 -0.1482  0.0498
  803MOL0     H 8364  -0.564   2.697  -0.071 -2.1138  0.6778  0.4800
  803MOL0     H 8365  -0.748   3.112  -0.000  0.2591  0.4351  1.9701
  803MOL0     H 8366  -1.027   3.219   0.164  0.9135 -0.9731  0.2736
  803MOL0     H 8367  -0.916   3.258   0.032  1.2330  1.2359  3.0823
  803MOL0     H 8368  -1.073   3.190  -0.012 -0.1954 -0.6080  0.0850
  803MOL0     H 8369  -1.403   2.891  -0.119 -0.0595  0.0005 -1.1025
  803MOL0     H 8370  -1.650   2.874  -0.055 -0.8208  0.8759  0.2107
  803MOL0     H 8371  -1.839   2.850   0.014 -0.6427  1.4123 -0.6250
  803MOL0     H 8372  -1.752   2.803   0.159  0.8787  0.2250 -2.6631
  803MOL0     H 8373  -2.003   2.761   0.169  1.3828 -0.8716 -3.3607
  803MOL0     H 8374  -1.956   2.880   0.294  3.7845 -1.2747 -0.5785
  803MOL0     H 8375  -2.057   2.945   0.004  4.1209 -1.3012  0.3630
  803MOL0     H 8376  -2.040   3.056   0.140 -1.6931  0.0390 -0.0149
  803MOL0     H 8377  -2.233   2.837   0.149 -0.2130  0.0812 -3.1926
  803MOL0     H 8378  -2.217   2.981   0.247 -2.8394 -4.1651  0.9579
  803MOL0     H 8379  -2.266   2.968  -0.046  0.2718 -2.6037  1.1263
  803MOL0     H 8380  -2.244   3.120   0.038  1.0842 -1.0055 -0.2469
  803MOL0     H 8381  -2.483   2.953   0.091 -1.5639  1.6605  0.9002
  803MOL0     H 8382  -2.431   3.096   0.187  3.7955  1.7027  0.7085
  803MOL0     H 8383  -2.509   3.091  -0.114 -1.8511 -1.0342  0.1786
  803MOL0     H 8384  -2.475   3.233  -0.014 -2.1945  0.2756  1.6768
  803MOL0     H 8385  -2.683   3.148   0.131  0.2049 -1.1755  0.6996
  803MOL0     H 8386  -2.710   3.050  -0.013 -2.4449  1.9861  0.4099
  803MOL0     H 8387  -1.603   3.165   0.252 -1.3265 -1.6771  0.8544
  803MOL0     H 8388  -1.367   3.141   0.238 -0.0483 -0.7630  0.2442
  803MOL0     H 8389  -1.022   2.729   0.154 -0.9924 -0.4181 -1.4514
  803MOL0     H 8390  -0.786   2.683   0.072 -2.2012 -0.8939  1.3942
  803MOL0     H 8391   1.098   2.228   0.347 -2.9072  1.1704 -3.8203
  803MOL0     H 8392   1.171   1.987   0.339  0.7161  0.9817  3.4135
  803MOL0     H 8393   0.668   1.576   0.340  0.8150  2.9235  0.4789
  803MOL0     H 8394   0.564   1.477   0.531  0.4368  0.9701  1.1574
  803MOL0     H 8395   0.665   1.248   0.896  0.6086  0.4657  1.4162
  803MOL0     H 8396   0.822   1.275   0.819 -0.6784 -0.2218 -0.6912
  803MOL0     H 8397   0.650   1.482   0.946 -1.4453 -3.7669  0.2285
  803MOL0     H 8398   0.824   1.511   0.924 -1.6907  0.8703 -4.9627
  803MOL0     H 8399   0.898   1.354   1.091  0.9437  0.2598  0.2928
  803MOL0     H 8400   0.728   1.299   1.136  0.2972  0.2085  0.9766
  803MOL0     H 8401   0.822   1.577   1.170 -1.4891 -0.0670  0.2767
  803MOL0     H 8402   0.800   1.451   1.298 -2.7106 -2.1870  1.5291
  803MOL0     H 8403   0.403   1.597   1.253  0.9910  0.1426  1.2241
  803MOL0     H 8404   0.933   1.456   0.750 -0.9473 -0.7551  0.4579
  803MOL0     H 8405   1.038   1.606   0.577  0.7597  1.1803  0.0581
  804MOL0     O 8406   0.551   2.843   3.449 -0.4584  0.2511  0.0374
  804MOL0     C 8407   0.624   2.897   3.534 -0.8208 -0.1539  0.2973
  804MOL0     O 8408   0.612   2.899   3.670 -0.5925 -0.0093  0.0539
  804MOL0     C 8409   0.534   2.807   3.726 -0.1528  0.3181 -0.0225
  804MOL0     C 8410   0.413   2.855   3.771  0.5931  0.3053 -0.0085
  804MOL0     C 8411   0.313   2.766   3.802 -0.3998  0.1900 -0.4858
  804MOL0     C 8412   0.347   2.632   3.813 -0.4346  0.2765 -0.7833
  804MOL0     O 8413   0.272   2.543   3.887 -0.8059  0.5110 -0.0815
  804MOL0     C 8414   0.130   2.542   3.872  0.6938  0.5483  0.4781
  804MOL0     C 8415   0.076   2.427   3.951 -0.3858 -0.2397 -0.5852
  804MOL0     C 8416  -0.056   2.356   3.904 -1.0899 -0.2446  0.1692
  804MOL0     C 8417  -0.098   2.231   3.987 -0.0088  0.0401 -0.5148
  804MOL0     C 8418  -0.236   2.183   3.934 -0.3487 -0.4074  0.1437
  804MOL0     C 8419  -0.289   2.068   4.028  0.5159  0.0433  0.2790
  804MOL0     C 8420  -0.443   2.050   3.997  0.0716 -0.1264  0.1540
  804MOL0     C 8421  -0.502   1.934   4.073  0.5314  0.0311 -0.7103
  804MOL0     N 8422  -0.649   1.909   4.053  0.3307 -0.1015  0.1423
  804MOL0     C 8423  -0.744   1.960   4.146 -0.0948 -0.1745 -0.0972
  804MOL0     C 8424  -0.860   1.900   4.101 -0.3022 -0.2059  0.3761
  804MOL0     C 8425  -0.992   1.950   4.151 -0.8281  0.8263  0.5013
  804MOL0     C 8426  -1.017   1.882   4.283 -0.3990 -0.4564  0.7233
  804MOL0     C 8427  -1.156   1.918   4.345 -0.2030 -0.7018 -0.0140
  804MOL0     C 8428  -1.166   1.854   4.483 -0.3704  0.2337 -0.0752
  804MOL0     O 8429  -1.267   1.914   4.553 -0.2080  0.2953  0.0993
  804MOL0     C 8430  -1.396   1.869   4.522 -0.2259  0.8861 -0.0729
  804MOL0     C 8431  -1.502   1.929   4.587  0.6897  0.3170 -0.4087
  804MOL0     C 8432  -1.635   1.906   4.569  0.0915 -0.4876  0.6442
  804MOL0     C 8433  -1.736   1.973   4.665 -0.0533 -0.4352 -0.6484
  804MOL0     C 8434  -1.668   1.801   4.476 -0.0433 -1.0513 -0.0806
  804MOL0     C 8435  -1.803   1.758   4.448  0.0075 -0.0167  1.0252
  804MOL0     O 8436  -1.903   1.841   4.487  0.0743 -0.4067 -0.0992
  804MOL0     C 8437  -2.032   1.795   4.460  0.4512 -0.5320 -0.1306
  804MOL0     C 8438  -2.080   1.709   4.353  0.4933  0.0297 -0.6928
  804MOL0     C 8439  -2.219   1.675   4.348 -0.1693  0.4205  0.3402
  804MOL0     C 8440  -2.318   1.719   4.432 -0.4324 -0.5840  0.2663
  804MOL0     O 8441  -2.452   1.695   4.418  0.3177  0.6808 -0.0726
  804MOL0     C 8442  -2.496   1.628   4.302  0.6805  0.5136  0.1167
  804MOL0     C 8443  -2.635   1.590   4.322  0.3241  0.3703 -0.0506
  804MOL0     C 8444  -2.709   1.547   4.201 -0.2089  0.1593  0.2000
  804MOL0     C 8445  -2.726   1.674   4.110 -0.4943  0.3710 -0.0322
  804MOL0     C 8446  -2.823   1.635   3.991 -0.0934  0.6673  0.9014
  804MOL0     C 8447  -2.973   1.622   4.028 -0.3500  0.7154 -0.2456
  804MOL0     C 8448  -3.069   1.588   3.916  0.2651 -0.6482  0.0038
  804MOL0     C 8449  -3.181   1.499   3.961  0.5656 -0.0707 -0.2891
  804MOL0    Cl 8450  -3.285   1.463   3.805 -0.2592 -0.3718 -0.1212
  804MOL0     C 8451  -2.277   1.793   4.537 -0.8557  0.1058  0.2614
  804MOL0     C 8452  -2.135   1.828   4.556  0.5058 -0.1609  0.2079
  804MOL0     O 8453  -1.819   1.638   4.417 -0.0781 -0.1111 -0.4039
  804MOL0     C 8454  -1.566   1.738   4.404 -0.4707 -0.0427  0.2987
  804MOL0     C 8455  -1.432   1.767   4.425 -0.5347 -0.2880  0.5257
  804MOL0     N 8456  -0.827   1.804   4.006  0.2001 -0.3805 -0.1055
  804MOL0     N 8457  -0.700   1.810   3.977  0.5341  0.1462 -0.4453
  804MOL0     C 8458   0.468   2.577   3.766  0.3088  0.1442  0.4047
  804MOL0     C 8459   0.564   2.671   3.721  0.1764  0.7443  0.0041
  804MOL0     C 8460   0.727   2.987   3.472 -0.4810  0.1354  0.4272
  804MOL0     C 8461   0.793   2.942   3.353  0.5863 -0.2105  0.5948
  804MOL0     C 8462   0.893   3.024   3.300  1.3886 -0.1476  0.1401
  804MOL0     C 8463   0.931   3.148   3.353  0.0722 -0.1198  0.0942
  804MOL0     O 8464   1.032   3.215   3.289  0.2177 -1.1450  0.1406
  804MOL0     C 8465   0.993   3.352   3.264  0.4197  0.6450  0.5445
  804MOL0     C 8466   1.050   3.402   3.126  0.0811  0.0813 -0.0817
  804MOL0     C 8467   1.190   3.467   3.134  0.3274  0.3202 -0.1490
  804MOL0     C 8468   1.292   3.372   3.208  0.4317 -0.4238  0.4877
  804MOL0     C 8469   1.424   3.434   3.203  0.6669  0.1761  0.6303
  804MOL0     C 8470   1.535   3.478   3.200  0.0765  0.5343  1.0523
  804MOL0     C 8471   0.851   3.198   3.462  0.1367 -0.3791  0.5607
  804MOL0     C 8472   0.754   3.114   3.525 -0.1334  0.0450  0.0815
  804MOL0     H 8473   0.395   2.962   3.769  0.7179  0.3676 -3.5560
  804MOL0     H 8474   0.221   2.800   3.847 -0.1756  0.1236  0.0374
  804MOL0     H 8475   0.076   2.636   3.883 -0.4279  0.2032 -1.5012
  804MOL0     H 8476   0.108   2.509   3.770  0.6865  0.0989  0.6195
  804MOL0     H 8477   0.153   2.350   3.952 -2.3581 -2.3900  1.7692
  804MOL0     H 8478   0.053   2.456   4.054 -0.6259 -0.0412 -0.6923
  804MOL0     H 8479  -0.130   2.436   3.902 -2.6547 -1.6641 -0.6447
  804MOL0     H 8480  -0.046   2.315   3.804 -1.2802 -2.2697  0.9415
  804MOL0     H 8481  -0.028   2.147   3.994 -0.6480 -0.7060 -2.4127
  804MOL0     H 8482  -0.115   2.261   4.091  1.3798  0.9002 -0.5107
  804MOL0     H 8483  -0.303   2.269   3.935 -0.3463 -0.3966 -0.2324
  804MOL0     H 8484  -0.228   2.139   3.834 -1.0744 -1.8942  0.7028
  804MOL0     H 8485  -0.224   1.982   4.014  1.4799  0.3812  2.2877
  804MOL0     H 8486  -0.289   2.098   4.133 -1.4965  0.3719  0.2308
  804MOL0     H 8487  -0.498   2.137   4.033  0.4009 -0.5763  1.7970
  804MOL0     H 8488  -0.462   2.038   3.889 -0.2601  0.5879  0.1300
  804MOL0     H 8489  -0.488   1.948   4.181 -4.9181  0.6294  0.1904
  804MOL0     H 8490  -0.453   1.847   4.029 -0.7259  1.3637 -5.2320
  804MOL0     H 8491  -0.744   2.022   4.234 -3.7570  0.0928 -0.1260
  804MOL0     H 8492  -0.989   2.060   4.156 -0.0718  0.7810  1.3290
  804MOL0     H 8493  -1.073   1.915   4.086  0.0666  0.6503 -0.5477
  804MOL0     H 8494  -0.936   1.921   4.345  0.5105 -2.4875  0.9150
  804MOL0     H 8495  -1.012   1.773   4.276 -0.6299 -0.4109 -0.4407
  804MOL0     H 8496  -1.240   1.878   4.288 -1.4843 -0.9836  1.9868
  804MOL0     H 8497  -1.155   2.027   4.356 -0.7437 -0.8076  1.2192
  804MOL0     H 8498  -1.073   1.883   4.532 -1.3320  2.7725  0.3979
  804MOL0     H 8499  -1.184   1.748   4.466 -3.4617  0.9887 -2.4372
  804MOL0     H 8500  -1.470   2.000   4.663 -0.3171 -2.5394  2.9492
  804MOL0     H 8501  -1.671   2.009   4.746 -0.6655 -0.0507 -0.3190
  804MOL0     H 8502  -1.784   2.051   4.606  0.9646 -0.2641 -1.2602
  804MOL0     H 8503  -1.808   1.902   4.708 -0.0079  1.5966  3.3067
  804MOL0     H 8504  -2.019   1.653   4.283  1.7946 -0.0920  0.5057
  804MOL0     H 8505  -2.247   1.608   4.266 -0.3265  2.0903 -1.0189
  804MOL0     H 8506  -2.476   1.684   4.210  0.0245  0.2762 -0.1727
  804MOL0     H 8507  -2.444   1.535   4.279  0.3686  0.6274 -1.0968
  804MOL0     H 8508  -2.625   1.501   4.386  0.2974  1.4644  1.5220
  804MOL0     H 8509  -2.696   1.662   4.376 -2.2834 -1.8563  0.2000
  804MOL0     H 8510  -2.803   1.519   4.250  0.9469 -1.5404  1.5847
  804MOL0     H 8511  -2.671   1.462   4.145 -0.1592  1.6053 -2.0965
  804MOL0     H 8512  -2.760   1.753   4.176 -2.2023 -1.0961  0.9392
  804MOL0     H 8513  -2.632   1.706   4.064 -0.6257  3.4443  1.6004
  804MOL0     H 8514  -2.782   1.542   3.950  1.4012  2.1990 -1.3066
  804MOL0     H 8515  -2.819   1.701   3.904 -0.5604  0.4422  0.7035
  804MOL0     H 8516  -2.971   1.534   4.093  1.1632  0.7450 -0.2170
  804MOL0     H 8517  -3.002   1.706   4.092  2.7448 -0.0736  2.4655
  804MOL0     H 8518  -3.013   1.541   3.834 -0.3967  1.6873 -1.9163
  804MOL0     H 8519  -3.116   1.679   3.879 -2.7608 -1.7136  0.8988
  804MOL0     H 8520  -3.245   1.555   4.030  0.4732 -2.3939  1.6272
  804MOL0     H 8521  -3.148   1.405   4.006  1.6885  0.7814  0.7361
  804MOL0     H 8522  -2.347   1.827   4.613 -1.0020  0.2599  0.0596
  804MOL0     H 8523  -2.097   1.879   4.644 -0.7246  0.8820  0.1628
  804MOL0     H 8524  -1.579   1.672   4.319  3.4259  0.8113 -1.1771
  804MOL0     H 8525  -1.366   1.702   4.369 -3.2153 -3.2955  0.6028
  804MOL0     H 8526   0.485   2.470   3.774 -2.3215 -0.4093 -0.2364
  804MOL0     H 8527   0.655   2.630   3.681  0.6094  0.5117  1.1688
  804MOL0     H 8528   0.779   2.850   3.299 -0.0215 -1.2673  2.4490
  804MOL0     H 8529   0.937   2.973   3.215 -0.3038 -1.0206 -0.2694
  804MOL0     H 8530   0.884   3.360   3.259  0.1925 -2.3303 -1.0061
  804MOL0     H 8531   1.032   3.422   3.339  3.2694  2.0416 -2.0175
  804MOL0     H 8532   0.988   3.488   3.097  0.4770  0.2983 -0.2933
  804MOL0     H 8533   1.044   3.327   3.047 -0.0776  1.1272 -1.0922
  804MOL0     H 8534   1.185   3.560   3.192  2.7448  0.5403 -0.1724
  804MOL0     H 8535   1.236   3.478   3.035  5.0533  1.3158  1.8650
  804MOL0     H 8536   1.298   3.270   3.167 -3.2751 -0.2260 -0.8978
  804MOL0     H 8537   1.263   3.354   3.312  0.8652 -0.8444  0.5385
  804MOL0     H 8538   1.640   3.502   3.205  1.1418 -3.3171  0.3719
  804MOL0     H 8539   0.853   3.299   3.500 -2.7596 -0.5212  1.3314
  804MOL0     H 8540   0.700   3.141   3.615  3.0049 -1.7249  2.7331
  805MOL0     O 8541   0.441   8.800   3.101  0.4382 -0.8186  0.2597
  805MOL0     C 8542   0.379   8.710   3.054 -0.3744  0.0289 -0.0560
  805MOL0     O 8543   0.252   8.709   3.025  0.1759 -0.7459 -0.4623
  805MOL0     C 8544   0.192   8.836   3.023  0.5735 -0.1695  0.0013
  805MOL0     C 8545   0.193   8.910   2.905 -0.3123  0.3891  0.3008
  805MOL0     C 8546   0.147   9.040   2.908 -0.4515  0.6986  0.0083
  805MOL0     C 8547   0.085   9.101   3.019  0.3302  0.4100 -0.3959
  805MOL0     O 8548   0.018   9.226   3.010 -1.0403  0.4763  0.0601
  805MOL0     C 8549  -0.053   9.284   3.114  0.3419 -0.0002  0.1519
  805MOL0     C 8550  -0.134   9.402   3.063 -0.0157  0.3646  0.1302
  805MOL0     C 8551  -0.248   9.338   2.978 -0.8980 -0.3373  0.2417
  805MOL0     C 8552  -0.368   9.430   2.966 -1.0362 -0.2976 -0.8522
  805MOL0     C 8553  -0.487   9.371   2.885 -0.4307 -0.2684  0.1117
  805MOL0     C 8554  -0.610   9.465   2.878  0.1774  0.3923 -0.2255
  805MOL0     C 8555  -0.729   9.375   2.846 -0.2956 -0.6132 -0.3364
  805MOL0     C 8556  -0.849   9.462   2.819 -0.1335 -0.3190 -0.5839
  805MOL0     N 8557  -0.894   9.554   2.929  0.0109  0.7345 -1.0815
  805MOL0     C 8558  -0.854   9.683   2.935 -1.1483 -0.4151  0.1966
  805MOL0     C 8559  -0.957   9.747   3.009  0.0759 -0.2932  0.6423
  805MOL0     C 8560  -0.960   9.885   3.049 -0.2888 -1.3636 -0.4820
  805MOL0     C 8561  -1.107   9.931   3.042  0.2074 -0.8414 -0.4649
  805MOL0     C 8562  -1.141  10.051   3.134 -0.1501 -0.3595 -0.0298
  805MOL0     C 8563  -1.289  10.081   3.148  0.6620 -0.1062 -0.6402
  805MOL0     O 8564  -1.304  10.183   3.253 -0.0101 -0.1539  0.1252
  805MOL0     C 8565  -1.435  10.199   3.291 -0.6456  0.5799  0.2001
  805MOL0     C 8566  -1.464  10.144   3.421  0.5052  0.9459  0.5061
  805MOL0     C 8567  -1.590  10.161   3.477 -0.2074  0.0479  0.4484
  805MOL0     C 8568  -1.610  10.107   3.616  0.2720  0.7300 -0.2637
  805MOL0     C 8569  -1.691  10.242   3.399 -0.4583  0.4372 -0.6042
  805MOL0     C 8570  -1.821  10.266   3.456 -0.0034 -0.7533  0.3276
  805MOL0     O 8571  -1.916  10.287   3.360 -0.8429  0.5684  0.2288
  805MOL0     C 8572  -2.038  10.300   3.407  0.2627 -0.1926  0.0697
  805MOL0     C 8573  -2.103  10.419   3.398  0.1747 -1.0401  0.4983
  805MOL0     C 8574  -2.232  10.443   3.435  0.2372  0.6373  0.4620
  805MOL0     C 8575  -2.308  10.338   3.487  0.2854  0.1817  0.1232
  805MOL0     O 8576  -2.438  10.373   3.529 -0.2853  0.8562 -0.6996
  805MOL0     C 8577  -2.512  10.302   3.630 -0.5434 -0.2835  0.0481
  805MOL0     C 8578  -2.647  10.377   3.652 -0.5188  0.4176  0.0918
  805MOL0     C 8579  -2.742  10.343   3.536  1.1111 -0.2049 -0.6093
  805MOL0     C 8580  -2.877  10.419   3.547  0.1957  0.1306 -0.0257
  805MOL0     C 8581  -2.882  10.565   3.555 -0.3634 -0.1054 -0.1708
  805MOL0     C 8582  -3.013  10.625   3.596  0.0395  0.1126  0.4561
  805MOL0     C 8583  -2.996  10.773   3.614 -0.3771  0.0367  0.0207
  805MOL0     C 8584  -3.128  10.830   3.659 -0.0399  0.2546  0.4161
  805MOL0    Cl 8585  -3.257  10.818   3.531 -0.0511 -0.3257  0.1689
  805MOL0     C 8586  -2.245  10.210   3.507 -0.7476 -0.9638 -0.0847
  805MOL0     C 8587  -2.119  10.195   3.458  0.3542  0.6818 -0.6460
  805MOL0     O 8588  -1.837  10.264   3.580  0.8952  0.0993  0.0502
  805MOL0     C 8589  -1.655  10.304   3.283  0.3392  0.3823 -0.6856
  805MOL0     C 8590  -1.531  10.280   3.223 -0.3444 -0.6328  0.0531
  805MOL0     N 8591  -1.049   9.645   3.039  0.3348 -0.9910 -0.0374
  805MOL0     N 8592  -1.005   9.529   2.993  0.1228  0.0573 -0.5961
  805MOL0     C 8593   0.086   9.022   3.136 -0.0681 -0.2982 -0.4086
  805MOL0     C 8594   0.138   8.894   3.137 -0.4585  0.5960  0.4666
  805MOL0     C 8595   0.461   8.593   3.026 -0.4909  0.2798 -0.5684
  805MOL0     C 8596   0.596   8.575   3.072 -0.1815 -0.1992 -0.0281
  805MOL0     C 8597   0.666   8.464   3.044  0.7856 -0.0204 -0.6631
  805MOL0     C 8598   0.614   8.349   2.976  0.6223 -0.7138  0.3103
  805MOL0     O 8599   0.686   8.236   2.951  0.0656  0.4224 -0.3875
  805MOL0     C 8600   0.684   8.173   2.816 -0.4361  0.3062 -0.5559
  805MOL0     C 8601   0.741   8.275   2.717 -0.3555  0.2626 -0.4298
  805MOL0     C 8602   0.890   8.299   2.716 -0.8184  0.0886 -0.3304
  805MOL0     C 8603   0.925   8.417   2.627  0.4044  0.0750  0.6199
  805MOL0     C 8604   1.059   8.468   2.649  0.3516  0.1273 -0.4073
  805MOL0     C 8605   1.173   8.506   2.673 -0.2190 -0.1485 -0.6803
  805MOL0     C 8606   0.483   8.367   2.923 -0.4731 -0.6743  0.1648
  805MOL0     C 8607   0.411   8.481   2.955  0.1204 -0.2571 -0.2246
  805MOL0     H 8608   0.243   8.887   2.812  0.9207  1.2086  0.7383
  805MOL0     H 8609   0.166   9.111   2.828 -0.7223  0.5258 -0.2122
  805MOL0     H 8610  -0.126   9.209   3.147  0.4061 -0.7788 -1.3572
  805MOL0     H 8611   0.015   9.322   3.190  0.2313  3.0718 -1.1368
  805MOL0     H 8612  -0.179   9.451   3.150 -0.6528 -2.5318  1.5616
  805MOL0     H 8613  -0.066   9.459   3.000  1.4925 -3.0205 -1.5457
  805MOL0     H 8614  -0.223   9.323   2.873 -2.9854 -1.5688 -0.1415
  805MOL0     H 8615  -0.282   9.245   3.025 -1.6635 -0.7171 -1.0035
  805MOL0     H 8616  -0.406   9.461   3.063 -2.1788 -1.6525 -0.8323
  805MOL0     H 8617  -0.335   9.518   2.909 -3.1906  2.6882  2.1584
  805MOL0     H 8618  -0.447   9.354   2.784 -1.8612  3.0309 -1.1601
  805MOL0     H 8619  -0.510   9.277   2.936 -1.1121  0.2060  0.6890
  805MOL0     H 8620  -0.623   9.524   2.969 -3.7436  0.0726 -0.4035
  805MOL0     H 8621  -0.603   9.531   2.791  2.3717  0.3893 -0.1059
  805MOL0     H 8622  -0.707   9.308   2.762  1.9160  2.4147 -2.3946
  805MOL0     H 8623  -0.755   9.311   2.931 -0.1656 -0.4750 -0.1917
  805MOL0     H 8624  -0.935   9.397   2.801 -1.2057  0.8281  0.2011
  805MOL0     H 8625  -0.839   9.521   2.728  0.8442  1.5375  0.6605
  805MOL0     H 8626  -0.770   9.735   2.891 -3.3492  2.0621 -1.3923
  805MOL0     H 8627  -0.911   9.897   3.146 -4.4502 -0.3204  1.7040
  805MOL0     H 8628  -0.907   9.952   2.980  1.3100 -3.6191 -1.5542
  805MOL0     H 8629  -1.170   9.847   3.074  1.9288 -1.0683  2.7987
  805MOL0     H 8630  -1.141   9.955   2.941 -0.4649 -0.9422 -0.2663
  805MOL0     H 8631  -1.096  10.139   3.087 -2.0981  0.5077 -0.3797
  805MOL0     H 8632  -1.095  10.033   3.232 -1.7605 -2.0090  0.4714
  805MOL0     H 8633  -1.343   9.992   3.181  2.5794 -1.0926  0.0494
  805MOL0     H 8634  -1.343  10.114   3.059  1.1311 -1.6783 -1.5448
  805MOL0     H 8635  -1.391  10.089   3.480  1.8060 -0.6580 -2.4093
  805MOL0     H 8636  -1.566  10.167   3.696 -2.8059  1.9143  0.7040
  805MOL0     H 8637  -1.709  10.085   3.657  1.6609  1.1067  3.7894
  805MOL0     H 8638  -1.553  10.014   3.622  2.4160  1.8845 -1.5616
  805MOL0     H 8639  -2.041  10.495   3.350  2.3090 -1.2263  2.7316
  805MOL0     H 8640  -2.273  10.543   3.420 -1.1444  0.2134  1.2605
  805MOL0     H 8641  -2.516  10.205   3.580  2.3869 -0.2047 -0.5627
  805MOL0     H 8642  -2.459  10.288   3.725 -1.7191 -1.0655  0.6064
  805MOL0     H 8643  -2.693  10.343   3.746  0.0489 -2.7108 -0.6509
  805MOL0     H 8644  -2.625  10.484   3.662  0.6462  0.3490 -1.5387
  805MOL0     H 8645  -2.770  10.237   3.545 -0.4276  0.2211 -0.0718
  805MOL0     H 8646  -2.705  10.367   3.436  1.1852 -0.2169 -0.5849
  805MOL0     H 8647  -2.941  10.398   3.460  3.3172  1.0821 -2.7871
  805MOL0     H 8648  -2.933  10.370   3.628 -1.0882 -2.5635 -2.3283
  805MOL0     H 8649  -2.851  10.618   3.464 -0.7775 -1.0737 -0.8895
  805MOL0     H 8650  -2.809  10.575   3.636  1.0576 -1.1676 -1.2631
  805MOL0     H 8651  -3.087  10.612   3.517 -1.5113  3.6245  1.1664
  805MOL0     H 8652  -3.053  10.577   3.685  0.2497  2.8471  2.1255
  805MOL0     H 8653  -2.962  10.814   3.519  0.4085 -0.5713  0.0277
  805MOL0     H 8654  -2.917  10.783   3.689  0.8994 -1.5924 -1.0324
  805MOL0     H 8655  -3.110  10.932   3.693  2.3971  0.0352 -0.0122
  805MOL0     H 8656  -3.154  10.762   3.740  1.6334  1.6487  2.2181
  805MOL0     H 8657  -2.291  10.129   3.563 -3.1811  1.1828  1.2293
  805MOL0     H 8658  -2.084  10.093   3.471  1.3574  0.4959 -3.7606
  805MOL0     H 8659  -1.729  10.369   3.237  0.5310  1.4265  0.4392
  805MOL0     H 8660  -1.492  10.318   3.129  2.7167 -1.7712  0.7350
  805MOL0     H 8661   0.053   9.076   3.225  1.7493 -0.2137  0.2549
  805MOL0     H 8662   0.133   8.843   3.233 -0.4222  1.0621  0.7149
  805MOL0     H 8663   0.647   8.657   3.121 -0.9432  0.3929 -0.2048
  805MOL0     H 8664   0.763   8.456   3.092 -0.1065 -3.4098  0.8782
  805MOL0     H 8665   0.749   8.085   2.815  1.4316  1.6271 -1.4905
  805MOL0     H 8666   0.581   8.148   2.790 -1.3492  1.4290  1.6968
  805MOL0     H 8667   0.683   8.367   2.733 -0.2360  0.3005 -0.1987
  805MOL0     H 8668   0.708   8.247   2.617  1.8400 -1.3360 -0.7802
  805MOL0     H 8669   0.945   8.209   2.688  0.9147  0.8420  0.4972
  805MOL0     H 8670   0.924   8.335   2.814 -0.5324  1.4628 -0.9122
  805MOL0     H 8671   0.847   8.493   2.638 -1.3151 -1.5336  0.0758
  805MOL0     H 8672   0.941   8.378   2.527  2.7310 -0.6324  1.2154
  805MOL0     H 8673   1.273   8.541   2.682 -0.1764  0.9279 -3.8132
  805MOL0     H 8674   0.445   8.302   2.845 -0.6062 -0.4549  0.0471
  805MOL0     H 8675   0.311   8.498   2.916 -0.2949  1.0171  1.2630
  806MOL0     O 8676  10.049   4.786   7.041 -0.5993 -0.8039  0.8219
  806MOL0     C 8677  10.044   4.664   7.071  0.8926  0.4041  0.9313
  806MOL0     O 8678   9.949   4.605   7.138 -0.3120 -0.6727  1.0755
  806MOL0     C 8679   9.832   4.675   7.157 -0.1493 -0.4526  0.0157
  806MOL0     C 8680   9.815   4.809   7.213  0.4378  0.1254 -0.8557
  806MOL0     C 8681   9.689   4.859   7.225  0.6130  0.5945 -0.4045
  806MOL0     C 8682   9.578   4.796   7.176 -0.2087 -0.0748  0.4677
  806MOL0     O 8683   9.460   4.870   7.188  0.5554 -0.4178  0.0933
  806MOL0     C 8684   9.356   4.803   7.259  0.8423  0.1983 -0.2109
  806MOL0     C 8685   9.235   4.760   7.162  0.7628 -0.1647 -0.5314
  806MOL0     C 8686   9.121   4.703   7.261  0.5722 -1.1851  0.2746
  806MOL0     C 8687   8.988   4.785   7.239  0.9062 -0.2127  0.7570
  806MOL0     C 8688   8.877   4.728   7.333 -1.3095  0.6745  0.6590
  806MOL0     C 8689   8.791   4.623   7.258  0.6787 -0.4320  0.2899
  806MOL0     C 8690   8.683   4.572   7.351  0.1810 -0.1717 -0.4665
  806MOL0     C 8691   8.599   4.464   7.284  0.1732  0.8836 -0.2465
  806MOL0     N 8692   8.480   4.416   7.362  0.4531  0.6472  0.1118
  806MOL0     C 8693   8.371   4.482   7.412 -0.2475 -0.9963  0.4309
  806MOL0     C 8694   8.309   4.394   7.494 -0.5810  0.1011 -0.4603
  806MOL0     C 8695   8.200   4.434   7.596 -0.5682  0.6250 -0.2825
  806MOL0     C 8696   8.059   4.397   7.556 -0.7157  0.8959  0.9964
  806MOL0     C 8697   8.039   4.241   7.548  0.8241 -1.5462  0.0478
  806MOL0     C 8698   7.899   4.198   7.518  0.0927 -0.6948 -0.7489
  806MOL0     O 8699   7.851   4.285   7.408 -0.1547 -0.2683 -0.2130
  806MOL0     C 8700   7.729   4.254   7.347 -0.1188 -0.4741 -0.7695
  806MOL0     C 8701   7.639   4.165   7.408 -0.0284  0.1676  0.4192
  806MOL0     C 8702   7.513   4.145   7.364  0.1457 -0.3204 -0.3711
  806MOL0     C 8703   7.431   4.050   7.431  0.2433  0.5402  0.1915
  806MOL0     C 8704   7.466   4.225   7.254 -0.4712  0.3057 -0.4516
  806MOL0     C 8705   7.326   4.224   7.197  0.2787 -0.0230 -0.6064
  806MOL0     O 8706   7.309   4.305   7.092 -0.3226 -0.4414  0.7197
  806MOL0     C 8707   7.192   4.288   7.026 -0.3425 -0.0193  0.1923
  806MOL0     C 8708   7.081   4.343   7.079  0.2590 -0.5553  0.1440
  806MOL0     C 8709   6.954   4.320   7.014  0.1004  0.5707  0.0640
  806MOL0     C 8710   6.943   4.246   6.893 -0.0537 -0.0918 -0.2520
  806MOL0     O 8711   6.811   4.232   6.847 -0.0735 -0.2838  0.0687
  806MOL0     C 8712   6.792   4.192   6.714 -0.8468 -0.1009  0.2954
  806MOL0     C 8713   6.647   4.190   6.675  0.2947 -0.5550  0.1553
  806MOL0     C 8714   6.557   4.158   6.793  0.1516 -0.8003  0.4884
  806MOL0     C 8715   6.415   4.126   6.736  0.7514 -0.5083  0.5724
  806MOL0     C 8716   6.319   4.084   6.851  0.3164  0.0453  0.4720
  806MOL0     C 8717   6.255   4.202   6.915  0.7674 -1.3844 -0.5725
  806MOL0     C 8718   6.163   4.164   7.037  0.0605  0.3628 -0.6498
  806MOL0     C 8719   6.240   4.093   7.156  0.1835 -0.4933 -0.9377
  806MOL0    Cl 8720   6.380   4.189   7.217  0.1903  0.2615 -0.2243
  806MOL0     C 8721   7.063   4.198   6.838 -0.2561  0.0461  0.0341
  806MOL0     C 8722   7.186   4.218   6.910  0.2903  0.0690 -0.2917
  806MOL0     O 8723   7.231   4.155   7.247 -0.4999  0.1284 -0.6686
  806MOL0     C 8724   7.561   4.308   7.188  0.1629  0.1985  0.6943
  806MOL0     C 8725   7.695   4.315   7.222  0.3946 -0.6299 -0.3719
  806MOL0     N 8726   8.374   4.275   7.499 -0.7241 -0.0500 -0.2374
  806MOL0     N 8727   8.479   4.289   7.419 -0.8887 -0.0733  0.2070
  806MOL0     C 8728   9.587   4.679   7.107 -0.9712 -0.2377 -0.3251
  806MOL0     C 8729   9.718   4.614   7.102  0.0578 -0.6593 -0.6588
  806MOL0     C 8730  10.162   4.586   7.033  0.3285  0.5695  0.1299
  806MOL0     C 8731  10.156   4.456   6.995 -0.0668  0.4039  0.8721
  806MOL0     C 8732  10.266   4.384   6.954  0.2698  0.1727 -0.2939
  806MOL0     C 8733  10.392   4.438   6.957  0.5245 -1.0803 -0.5072
  806MOL0     O 8734  10.497   4.374   6.910  0.5264  0.3043 -0.2004
  806MOL0     C 8735  10.631   4.430   6.919  0.3765 -0.0052 -0.0209
  806MOL0     C 8736  10.727   4.342   6.855 -1.1649 -0.2199  0.2235
  806MOL0     C 8737  10.870   4.386   6.872 -0.1570 -0.6182  0.6095
  806MOL0     C 8738  10.958   4.310   6.767 -0.6799 -0.8728 -0.3748
  806MOL0     C 8739  11.094   4.370   6.762 -1.4012  0.6450  0.9869
  806MOL0     C 8740  11.203   4.420   6.733 -0.1980  0.5813 -1.0044
  806MOL0     C 8741  10.404   4.578   7.013  0.9142  0.0468  0.6696
  806MOL0     C 8742  10.289   4.648   7.046 -1.0191  0.1315  0.7626
  806MOL0     H 8743   9.889   4.875   7.257 -0.6771  1.2137 -0.5344
  806MOL0     H 8744   9.679   4.949   7.284 -1.2597 -0.1311  0.4662
  806MOL0     H 8745   9.384   4.713   7.315 -1.6834 -0.9163 -0.5854
  806MOL0     H 8746   9.310   4.871   7.331  2.3809 -0.0657  1.0814
  806MOL0     H 8747   9.208   4.839   7.091 -0.2566 -0.3005 -0.3012
  806MOL0     H 8748   9.276   4.678   7.102 -0.0623 -2.8353  2.2616
  806MOL0     H 8749   9.109   4.594   7.254  1.3325 -1.3561  1.3537
  806MOL0     H 8750   9.150   4.723   7.364 -0.2515  1.5002  0.0634
  806MOL0     H 8751   9.006   4.891   7.254 -2.0110  0.7310 -1.5302
  806MOL0     H 8752   8.943   4.785   7.139 -2.6271  1.2349  2.1599
  806MOL0     H 8753   8.922   4.682   7.422  1.4226  3.0686  0.6605
  806MOL0     H 8754   8.808   4.805   7.368 -1.4576  0.0363  1.8428
  806MOL0     H 8755   8.759   4.670   7.164 -1.5211  1.3990  1.8393
  806MOL0     H 8756   8.848   4.536   7.224  1.0281  0.1275 -0.5920
  806MOL0     H 8757   8.735   4.529   7.437  3.7680  0.8203 -1.9515
  806MOL0     H 8758   8.614   4.649   7.386 -0.4591 -1.8705  2.3404
  806MOL0     H 8759   8.661   4.378   7.259  0.7960  1.2569  0.0016
  806MOL0     H 8760   8.564   4.501   7.187 -0.8149 -1.0912 -0.6976
  806MOL0     H 8761   8.339   4.585   7.402 -0.4876 -1.1820 -1.0351
  806MOL0     H 8762   8.223   4.388   7.693  0.6748 -2.9603 -2.1108
  806MOL0     H 8763   8.197   4.543   7.606 -1.2709  0.6518 -0.7380
  806MOL0     H 8764   8.029   4.446   7.462  0.8748 -1.1834 -0.6957
  806MOL0     H 8765   7.995   4.437   7.635  0.2629 -1.2176  2.9532
  806MOL0     H 8766   8.072   4.192   7.640  1.5811 -0.8367  0.1651
  806MOL0     H 8767   8.097   4.212   7.460 -1.2082  2.4263 -2.9086
  806MOL0     H 8768   7.843   4.214   7.610 -0.3553  0.5129 -1.2153
  806MOL0     H 8769   7.895   4.094   7.484  0.8471 -0.8983 -0.2337
  806MOL0     H 8770   7.667   4.124   7.505  0.6477  1.4722  0.7933
  806MOL0     H 8771   7.340   4.096   7.471 -0.0846 -0.0037  0.0823
  806MOL0     H 8772   7.402   3.972   7.360 -1.4517  1.1324  0.1758
  806MOL0     H 8773   7.479   3.998   7.515  0.9111  1.5832  0.4659
  806MOL0     H 8774   7.079   4.405   7.168  2.1737  0.0737 -0.2052
  806MOL0     H 8775   6.868   4.371   7.056  2.3248  2.0227  3.2832
  806MOL0     H 8776   6.843   4.266   6.651  0.2026 -0.6724  0.4593
  806MOL0     H 8777   6.833   4.092   6.701 -1.4282 -0.0493 -2.7573
  806MOL0     H 8778   6.625   4.292   6.644  3.8132  0.0737 -0.7593
  806MOL0     H 8779   6.641   4.120   6.591  2.2973 -0.3893 -0.1728
  806MOL0     H 8780   6.554   4.248   6.854 -0.3825 -1.0205  0.7927
  806MOL0     H 8781   6.602   4.069   6.837 -0.4705 -1.0588  0.6134
  806MOL0     H 8782   6.369   4.211   6.686  0.6063 -0.6729  0.4236
  806MOL0     H 8783   6.421   4.040   6.669  4.2335 -1.0636  1.4090
  806MOL0     H 8784   6.372   4.026   6.927 -1.6411 -0.6870  1.3417
  806MOL0     H 8785   6.245   4.018   6.806 -0.1884  1.2417 -0.5245
  806MOL0     H 8786   6.334   4.271   6.943 -1.2136  0.2597  1.3652
  806MOL0     H 8787   6.197   4.266   6.849  1.3240 -1.0366 -0.7256
  806MOL0     H 8788   6.081   4.097   7.006 -1.4122  2.6276 -1.9184
  806MOL0     H 8789   6.105   4.242   7.087 -2.0631 -1.4398 -0.0988
  806MOL0     H 8790   6.258   3.988   7.133  0.6551 -0.0763 -2.5478
  806MOL0     H 8791   6.173   4.099   7.242  1.0210  1.5316 -0.3622
  806MOL0     H 8792   7.062   4.135   6.750  3.0714  1.4302 -1.1282
  806MOL0     H 8793   7.273   4.171   6.864 -0.1085 -0.8728 -0.0892
  806MOL0     H 8794   7.535   4.360   7.096 -3.1282  2.1413  2.5164
  806MOL0     H 8795   7.762   4.383   7.171  2.7344 -3.1062 -0.7620
  806MOL0     H 8796   9.491   4.632   7.089 -2.5931  1.3933  3.1728
  806MOL0     H 8797   9.730   4.516   7.056  0.0654  0.6519 -3.6608
  806MOL0     H 8798  10.059   4.416   6.969  0.1140  0.1028  0.6503
  806MOL0     H 8799  10.244   4.282   6.926 -1.5545  0.3535  0.3408
  806MOL0     H 8800  10.630   4.532   6.879 -0.7507  0.1225  0.2865
  806MOL0     H 8801  10.663   4.436   7.023  0.0569  0.2786  0.0659
  806MOL0     H 8802  10.700   4.340   6.749 -0.3385 -1.2070  0.0187
  806MOL0     H 8803  10.712   4.241   6.894  0.4280 -0.4063  0.4120
  806MOL0     H 8804  10.907   4.366   6.973  2.7856 -0.4725 -0.3317
  806MOL0     H 8805  10.883   4.494   6.856 -0.1292 -0.7738 -0.4854
  806MOL0     H 8806  10.905   4.327   6.672 -1.8786 -1.9234  0.0769
  806MOL0     H 8807  10.962   4.201   6.776  0.1159 -0.6779  2.4080
  806MOL0     H 8808  11.300   4.461   6.714  0.2551 -0.3011 -0.6054
  806MOL0     H 8809  10.492   4.639   7.029  0.7080  0.4121  0.4132
  806MOL0     H 8810  10.306   4.751   7.074  0.9995  1.0233 -2.9600
  807MOL0     O 8811   6.570   8.514   8.078  0.6375 -0.3265 -0.5280
  807MOL0     C 8812   6.575   8.478   7.955 -0.9484 -0.8335 -0.8027
  807MOL0     O 8813   6.474   8.493   7.871 -0.0457  0.5567  0.2681
  807MOL0     C 8814   6.353   8.529   7.927  0.1939 -0.0357  0.0466
  807MOL0     C 8815   6.247   8.434   7.944  0.7889 -0.6945 -0.6459
  807MOL0     C 8816   6.121   8.473   7.993  0.1393  0.9551 -0.8474
  807MOL0     C 8817   6.098   8.605   8.034 -0.4271 -0.5041 -0.0627
  807MOL0     O 8818   5.984   8.650   8.090  0.5182 -0.1849  0.4593
  807MOL0     C 8819   5.863   8.626   8.014 -0.3915 -0.1304  0.5070
  807MOL0     C 8820   5.762   8.734   8.045 -0.0683  0.8108  0.3872
  807MOL0     C 8821   5.633   8.702   7.976  0.0595 -0.6456  0.6002
  807MOL0     C 8822   5.511   8.749   8.062  0.4072 -0.0441  0.3142
  807MOL0     C 8823   5.381   8.740   7.981  0.0299 -0.3329  0.0866
  807MOL0     C 8824   5.268   8.660   8.055 -0.0102  0.4979 -0.3085
  807MOL0     C 8825   5.151   8.625   7.956 -0.4803 -0.8286 -0.0040
  807MOL0     C 8826   5.193   8.511   7.874  0.3734 -0.1351  0.0023
  807MOL0     N 8827   5.229   8.397   7.954  0.2768  1.0119 -0.9271
  807MOL0     C 8828   5.151   8.350   8.054  0.7592 -0.2327 -0.4049
  807MOL0     C 8829   5.223   8.257   8.118  0.3420 -0.2389 -0.5965
  807MOL0     C 8830   5.155   8.166   8.224 -0.6510 -0.0827 -0.5305
  807MOL0     C 8831   5.024   8.093   8.173  1.1719  0.5586  0.2060
  807MOL0     C 8832   4.954   8.008   8.284 -0.6592  0.0104 -0.1655
  807MOL0     C 8833   4.832   7.960   8.223 -0.4407  0.2826  0.3432
  807MOL0     O 8834   4.764   7.869   8.315 -0.1137 -0.6012 -0.9498
  807MOL0     C 8835   4.640   7.823   8.265 -0.3978  0.8433  0.0104
  807MOL0     C 8836   4.595   7.821   8.127  0.0627  0.8558 -1.0284
  807MOL0     C 8837   4.464   7.786   8.097  0.1822 -0.4108  0.0088
  807MOL0     C 8838   4.433   7.802   7.947 -0.5637 -0.5951  0.2990
  807MOL0     C 8839   4.371   7.740   8.195 -0.2105 -0.1108 -0.0620
  807MOL0     C 8840   4.223   7.701   8.181 -0.4359  0.1356 -0.2579
  807MOL0     O 8841   4.144   7.720   8.286  0.2610  0.0985  0.2760
  807MOL0     C 8842   4.008   7.696   8.283  0.3896 -0.1683  1.2516
  807MOL0     C 8843   3.965   7.620   8.383  0.9570  1.1023 -0.1822
  807MOL0     C 8844   3.824   7.596   8.397 -0.2684  0.8436  0.8117
  807MOL0     C 8845   3.738   7.655   8.300  0.5540  0.0351  0.3592
  807MOL0     O 8846   3.603   7.638   8.309 -0.4163  0.2790  0.0095
  807MOL0     C 8847   3.526   7.762   8.329  0.3714 -0.2937 -1.1532
  807MOL0     C 8848   3.403   7.738   8.415  0.1531  0.7705 -0.2080
  807MOL0     C 8849   3.290   7.655   8.355 -0.2362  0.7996 -0.0837
  807MOL0     C 8850   3.212   7.727   8.247 -0.3978 -0.4999 -0.3581
  807MOL0     C 8851   3.099   7.641   8.199 -0.3862 -0.7198 -1.2198
  807MOL0     C 8852   3.022   7.702   8.083  0.8268 -0.4302 -0.6270
  807MOL0     C 8853   2.913   7.599   8.035 -0.5926 -0.2676 -0.2892
  807MOL0     C 8854   2.826   7.656   7.916 -0.5732  0.4938  0.4037
  807MOL0    Cl 8855   2.676   7.555   7.887  0.2365  0.1055 -0.1332
  807MOL0     C 8856   3.781   7.719   8.191  0.1476 -0.5355  0.2427
  807MOL0     C 8857   3.924   7.745   8.188 -0.0691 -0.3893  0.3481
  807MOL0     O 8858   4.184   7.667   8.067  0.8147  0.3890 -0.2273
  807MOL0     C 8859   4.424   7.735   8.332 -0.1578 -0.8361 -0.1768
  807MOL0     C 8860   4.553   7.783   8.362 -0.7737 -0.2834 -0.4093
  807MOL0     N 8861   5.349   8.248   8.060  0.3088  0.1758  0.0326
  807MOL0     N 8862   5.350   8.334   7.963 -0.0706 -0.3668  0.6187
  807MOL0     C 8863   6.200   8.693   8.021 -0.8285 -0.2223 -0.4006
  807MOL0     C 8864   6.326   8.661   7.967  0.4552  0.8053  0.3335
  807MOL0     C 8865   6.707   8.434   7.895  0.2574 -0.4136 -0.2695
  807MOL0     C 8866   6.721   8.402   7.756 -0.5530 -0.2819  0.3780
  807MOL0     C 8867   6.848   8.373   7.708  0.5848  0.6271  0.6197
  807MOL0     C 8868   6.962   8.374   7.792 -0.0955 -0.5252  1.2087
  807MOL0     O 8869   7.086   8.317   7.757 -0.6746  0.0026  0.2398
  807MOL0     C 8870   7.107   8.283   7.618  0.3602  0.2287  0.0445
  807MOL0     C 8871   7.249   8.227   7.584 -0.7892 -0.1090 -0.1022
  807MOL0     C 8872   7.286   8.234   7.438 -0.0621 -0.9284  0.5238
  807MOL0     C 8873   7.435   8.192   7.417 -0.9773 -0.1667 -0.0426
  807MOL0     C 8874   7.526   8.305   7.451  0.8457 -0.4608  0.0450
  807MOL0     C 8875   7.606   8.387   7.489  0.1990 -0.3967  0.3936
  807MOL0     C 8876   6.945   8.420   7.918 -0.0658  0.1673  0.3372
  807MOL0     C 8877   6.817   8.461   7.968 -0.7339 -0.1916 -0.4232
  807MOL0     H 8878   6.256   8.328   7.924 -3.1577 -1.1554 -0.6238
  807MOL0     H 8879   6.052   8.391   8.007  3.0161 -1.3084  1.2913
  807MOL0     H 8880   5.881   8.608   7.907  0.5735  1.0729  0.4406
  807MOL0     H 8881   5.838   8.531   8.062 -1.2339 -0.1509  0.0441
  807MOL0     H 8882   5.752   8.730   8.154 -1.7057 -0.3940  0.2364
  807MOL0     H 8883   5.806   8.830   8.017  2.9955  0.3519  3.0708
  807MOL0     H 8884   5.628   8.736   7.872 -1.3539  0.7832  1.0956
  807MOL0     H 8885   5.625   8.593   7.973 -0.3679 -0.6082  0.0443
  807MOL0     H 8886   5.503   8.698   8.159  0.6157  2.9219  1.9916
  807MOL0     H 8887   5.525   8.855   8.083 -1.9024  0.8718 -2.1765
  807MOL0     H 8888   5.346   8.839   7.950 -0.1069 -0.9498 -1.8472
  807MOL0     H 8889   5.413   8.693   7.887  0.2386  1.4179 -0.7610
  807MOL0     H 8890   5.302   8.567   8.100  0.7048  0.5202 -0.7824
  807MOL0     H 8891   5.223   8.719   8.135 -1.3277  0.1666 -0.7826
  807MOL0     H 8892   5.061   8.600   8.013 -0.1786  1.1684  1.4274
  807MOL0     H 8893   5.121   8.709   7.893 -1.8488 -2.3061 -1.4299
  807MOL0     H 8894   5.273   8.548   7.809 -0.1196  1.7462  0.4053
  807MOL0     H 8895   5.105   8.477   7.818  0.2666  1.5813 -0.9295
  807MOL0     H 8896   5.045   8.363   8.072  0.0527 -2.6953 -2.1873
  807MOL0     H 8897   5.222   8.087   8.260  0.8497  1.1727 -0.4193
  807MOL0     H 8898   5.121   8.229   8.306  2.8362  3.4575 -1.4708
  807MOL0     H 8899   5.037   8.039   8.080  1.0429 -0.9919  1.0644
  807MOL0     H 8900   4.956   8.173   8.142  0.7643  0.1780  0.1121
  807MOL0     H 8901   4.932   8.064   8.375  1.5675  0.1006  0.3566
  807MOL0     H 8902   5.021   7.928   8.317  0.0534 -0.4040 -2.3862
  807MOL0     H 8903   4.854   7.911   8.128  1.0022  0.4840  0.5515
  807MOL0     H 8904   4.768   8.043   8.192 -0.9127 -0.5665 -0.9778
  807MOL0     H 8905   4.659   7.845   8.042  0.0678 -0.5884 -1.4476
  807MOL0     H 8906   4.516   7.825   7.879 -3.0931  2.2404 -2.0798
  807MOL0     H 8907   4.392   7.709   7.905 -0.6471 -1.7017  2.6619
  807MOL0     H 8908   4.359   7.882   7.939 -2.8196 -2.6304 -0.8113
  807MOL0     H 8909   4.037   7.581   8.454 -0.0941 -0.1390  0.2350
  807MOL0     H 8910   3.782   7.530   8.472 -1.2063  1.3828  0.7683
  807MOL0     H 8911   3.578   7.839   8.387 -2.0670  0.4528  0.1761
  807MOL0     H 8912   3.500   7.798   8.229  2.4877  0.3103 -1.5224
  807MOL0     H 8913   3.457   7.690   8.497  4.0219  3.6565 -0.8130
  807MOL0     H 8914   3.356   7.827   8.459  1.7909  1.9495 -0.7618
  807MOL0     H 8915   3.232   7.640   8.447  1.8282 -4.1170  0.7545
  807MOL0     H 8916   3.326   7.561   8.312 -2.8802 -0.1158 -0.4469
  807MOL0     H 8917   3.178   7.825   8.281 -0.8558 -0.2130 -1.5940
  807MOL0     H 8918   3.269   7.738   8.154  0.2435 -2.0474 -0.1732
  807MOL0     H 8919   3.035   7.620   8.285  0.0099 -1.1186 -1.0151
  807MOL0     H 8920   3.141   7.546   8.164  1.4339 -0.7170  0.7318
  807MOL0     H 8921   2.978   7.796   8.117  2.7015  0.5482 -0.7350
  807MOL0     H 8922   3.092   7.735   8.005 -0.7401  1.9616 -1.1256
  807MOL0     H 8923   2.845   7.589   8.120 -1.0753  2.0652 -0.3324
  807MOL0     H 8924   2.970   7.509   8.014  2.5082  1.5155 -0.2143
  807MOL0     H 8925   2.876   7.659   7.819 -2.4158  0.3834 -0.5996
  807MOL0     H 8926   2.792   7.758   7.939 -0.4597  0.7333 -0.4424
  807MOL0     H 8927   3.707   7.759   8.123  0.9418  1.3439  0.4317
  807MOL0     H 8928   3.969   7.801   8.107 -0.2341  2.2065  1.9162
  807MOL0     H 8929   4.358   7.711   8.415 -0.9208  1.6238  0.0100
  807MOL0     H 8930   4.592   7.786   8.463 -0.8357 -1.1079 -0.3542
  807MOL0     H 8931   6.180   8.795   8.051  0.5308  0.5329 -1.8794
  807MOL0     H 8932   6.415   8.722   7.957  2.2627 -1.3118  2.4631
  807MOL0     H 8933   6.636   8.382   7.691  0.3993 -0.7688 -0.7507
  807MOL0     H 8934   6.860   8.341   7.605  0.0001  3.5573 -0.4554
  807MOL0     H 8935   7.031   8.206   7.601  0.0788  0.6264 -0.5533
  807MOL0     H 8936   7.074   8.366   7.554 -1.0802 -1.7063 -1.8843
  807MOL0     H 8937   7.263   8.124   7.619 -0.2256  0.5398  1.7067
  807MOL0     H 8938   7.310   8.290   7.650 -0.9090 -1.5018  1.4176
  807MOL0     H 8939   7.265   8.338   7.410 -1.2620 -0.1722  3.7661
  807MOL0     H 8940   7.224   8.166   7.379 -2.1419  0.3163  1.1683
  807MOL0     H 8941   7.457   8.167   7.312  3.1441 -0.1049  0.6422
  807MOL0     H 8942   7.461   8.103   7.476  2.4611  0.5190 -0.2916
  807MOL0     H 8943   7.675   8.462   7.520  1.3029 -0.8327 -0.9024
  807MOL0     H 8944   7.027   8.433   7.988  1.2694 -1.9346 -0.7547
  807MOL0     H 8945   6.809   8.512   8.063 -2.1664 -0.2639 -0.4828
  808MOL0     O 8946  10.567   1.514  11.070 -0.0830 -0.2437 -0.1507
  808MOL0     C 8947  10.651   1.428  11.070 -0.1238  0.3560 -0.5612
  808MOL0     O 8948  10.641   1.298  11.099 -0.1859  0.0514  0.4255
  808MOL0     C 8949  10.520   1.246  11.129  0.3562 -0.3072  0.1668
  808MOL0     C 8950  10.433   1.300  11.224  0.6085  0.2815 -0.0010
  808MOL0     C 8951  10.299   1.254  11.235  0.0709  0.8353  0.4976
  808MOL0     C 8952  10.255   1.135  11.174 -0.0318 -0.1419 -0.6496
  808MOL0     O 8953  10.128   1.078  11.203  0.2680  0.4199  0.4414
  808MOL0     C 8954  10.028   1.170  11.245 -0.3805 -0.0013  0.6438
  808MOL0     C 8955   9.882   1.110  11.249  0.6313  1.0713 -0.0361
  808MOL0     C 8956   9.774   1.189  11.318  0.0878  0.3269 -0.6121
  808MOL0     C 8957   9.646   1.108  11.347  0.4320  0.2386 -0.1628
  808MOL0     C 8958   9.522   1.195  11.389 -0.5406  0.4225  0.0788
  808MOL0     C 8959   9.556   1.284  11.518 -0.3647  0.1548 -0.3006
  808MOL0     C 8960   9.575   1.193  11.645  0.3575 -0.8247  0.3221
  808MOL0     C 8961   9.545   1.266  11.773 -0.8568 -0.1241 -0.1933
  808MOL0     N 8962   9.593   1.192  11.888 -0.2387 -0.3876  0.4801
  808MOL0     C 8963   9.508   1.159  11.981  0.0242  0.8179 -0.2108
  808MOL0     C 8964   9.593   1.117  12.078 -0.6972  0.0782 -0.4291
  808MOL0     C 8965   9.550   1.064  12.209  0.4032 -0.0164  0.3389
  808MOL0     C 8966   9.447   0.945  12.193  0.1505  0.2243  0.2755
  808MOL0     C 8967   9.498   0.835  12.107 -0.0426 -0.1217  0.5496
  808MOL0     C 8968   9.637   0.793  12.132 -0.0008  0.1840 -0.3917
  808MOL0     O 8969   9.673   0.760  12.267  0.1811 -0.2650 -0.8713
  808MOL0     C 8970   9.811   0.722  12.287  0.1365  0.3715 -1.2260
  808MOL0     C 8971   9.834   0.669  12.417  0.0226 -0.9243 -0.0953
  808MOL0     C 8972   9.950   0.606  12.457  0.2464 -0.2396 -0.0656
  808MOL0     C 8973   9.943   0.534  12.589 -0.2607 -0.3720  0.1989
  808MOL0     C 8974  10.063   0.619  12.369 -0.3457  0.0695  0.9164
  808MOL0     C 8975  10.192   0.571  12.400  0.0700  0.5801 -0.5150
  808MOL0     O 8976  10.294   0.625  12.318  0.6945 -0.8239 -0.3638
  808MOL0     C 8977  10.428   0.623  12.331 -0.2049 -0.5096 -0.4565
  808MOL0     C 8978  10.503   0.710  12.250  0.6228  0.2938  0.2331
  808MOL0     C 8979  10.643   0.714  12.257  0.2238  0.1263 -0.2509
  808MOL0     C 8980  10.705   0.625  12.340 -0.1096 -0.5413 -0.3094
  808MOL0     O 8981  10.845   0.625  12.351  0.4492 -0.5867  0.6332
  808MOL0     C 8982  10.896   0.506  12.300  0.4110 -0.5301  0.4966
  808MOL0     C 8983  11.030   0.530  12.233  0.3587 -0.3472  0.8688
  808MOL0     C 8984  11.086   0.402  12.173 -0.7575  1.2167  0.2037
  808MOL0     C 8985  11.165   0.429  12.052 -0.5175  0.9630  0.3179
  808MOL0     C 8986  11.261   0.307  12.011  0.5709 -0.7631  0.3264
  808MOL0     C 8987  11.338   0.342  11.881  0.4343 -0.1243 -0.1007
  808MOL0     C 8988  11.400   0.217  11.812  0.0875 -0.0499  0.4788
  808MOL0     C 8989  11.509   0.259  11.707  0.3247 -0.5950 -1.5402
  808MOL0    Cl 8990  11.649   0.311  11.810 -0.2295  0.3368 -0.6147
  808MOL0     C 8991  10.633   0.536  12.419 -0.1905  0.2058 -0.0181
  808MOL0     C 8992  10.493   0.529  12.411 -1.0313 -0.1962  0.0665
  808MOL0     O 8993  10.211   0.489  12.486  0.7562  0.8525 -0.3174
  808MOL0     C 8994  10.042   0.676  12.242 -0.3391 -0.4080 -0.0106
  808MOL0     C 8995   9.917   0.724  12.204 -0.3648 -0.3179  0.3853
  808MOL0     N 8996   9.726   1.124  12.045  0.9812  0.4534  0.8157
  808MOL0     N 8997   9.725   1.171  11.928  0.3156 -0.9376  1.1083
  808MOL0     C 8998  10.344   1.075  11.096 -0.4168 -0.2293 -0.8712
  808MOL0     C 8999  10.468   1.135  11.066  0.7538 -0.2209 -0.5204
  808MOL0     C 9000  10.791   1.477  11.031 -0.2322  0.2367  0.1485
  808MOL0     C 9001  10.822   1.613  11.027 -0.4435  1.1089 -0.2715
  808MOL0     C 9002  10.949   1.649  10.982  0.4296 -0.2203  0.3920
  808MOL0     C 9003  11.056   1.558  10.963  0.3218 -0.3769 -0.5955
  808MOL0     O 9004  11.184   1.600  10.932 -0.7502  0.0046  0.3815
  808MOL0     C 9005  11.297   1.538  10.988  0.1687 -0.1490 -0.5309
  808MOL0     C 9006  11.399   1.644  10.981 -1.3000  1.4911 -0.0501
  808MOL0     C 9007  11.388   1.746  11.096  0.0087  0.0331 -0.1308
  808MOL0     C 9008  11.499   1.855  11.089 -0.3022  0.3023 -0.7007
  808MOL0     C 9009  11.638   1.809  11.113  0.5304 -0.2010 -0.1913
  808MOL0     C 9010  11.749   1.765  11.150  0.4851  0.0169 -0.4291
  808MOL0     C 9011  11.022   1.423  10.978  0.2430  1.0567 -0.3780
  808MOL0     C 9012  10.897   1.388  11.011  0.3950  0.0963 -1.2711
  808MOL0     H 9013  10.464   1.382  11.289  2.7469 -0.1233 -0.4238
  808MOL0     H 9014  10.242   1.303  11.314 -1.2278  1.8277 -1.0128
  808MOL0     H 9015  10.064   1.199  11.344  4.1576  0.5429 -0.9280
  808MOL0     H 9016  10.024   1.255  11.176 -0.9996 -0.2110  0.4088
  808MOL0     H 9017   9.843   1.091  11.149 -0.4359 -0.5034  0.6492
  808MOL0     H 9018   9.881   1.012  11.297 -4.8565  1.4717  1.3904
  808MOL0     H 9019   9.818   1.214  11.415  0.8523 -2.7754 -0.0512
  808MOL0     H 9020   9.747   1.283  11.270 -0.9183 -0.3288 -1.3661
  808MOL0     H 9021   9.605   1.056  11.261 -0.4233  0.9752 -0.2167
  808MOL0     H 9022   9.655   1.046  11.437 -3.1508 -0.8348 -0.4030
  808MOL0     H 9023   9.509   1.266  11.306  1.8318  2.0249  0.9588
  808MOL0     H 9024   9.431   1.139  11.409 -1.2585  2.0258  1.5825
  808MOL0     H 9025   9.645   1.346  11.505 -0.4724  0.3389 -0.1713
  808MOL0     H 9026   9.477   1.359  11.524 -1.4479 -1.0132  0.4647
  808MOL0     H 9027   9.509   1.107  11.631 -1.3869  0.6150 -0.7580
  808MOL0     H 9028   9.681   1.168  11.647  0.5100 -0.5336 -2.0957
  808MOL0     H 9029   9.441   1.299  11.786  0.1382  2.0216  4.0340
  808MOL0     H 9030   9.591   1.365  11.772 -0.0472 -0.4656  1.1535
  808MOL0     H 9031   9.400   1.169  11.985 -0.5145 -2.9070 -0.9690
  808MOL0     H 9032   9.631   1.026  12.272  3.4037  1.4322 -2.3327
  808MOL0     H 9033   9.510   1.148  12.266  2.4072  0.3783  1.2614
  808MOL0     H 9034   9.356   0.975  12.140  1.8783 -0.6178 -3.5380
  808MOL0     H 9035   9.412   0.895  12.284 -1.3496 -2.6795 -1.7005
  808MOL0     H 9036   9.485   0.860  12.001 -0.4196  0.8430  0.8129
  808MOL0     H 9037   9.434   0.750  12.133 -0.3770  0.6564  2.4030
  808MOL0     H 9038   9.705   0.872  12.099 -0.8420  0.6094 -1.1530
  808MOL0     H 9039   9.653   0.707  12.066  0.2810  1.1137 -1.5727
  808MOL0     H 9040   9.757   0.667  12.493  0.5988  0.1017  0.5537
  808MOL0     H 9041   9.999   0.440  12.587 -3.5165 -2.4561 -0.6406
  808MOL0     H 9042   9.985   0.590  12.673 -1.2969  1.7709 -0.6492
  808MOL0     H 9043   9.840   0.507  12.616  0.0616 -1.1418  0.7104
  808MOL0     H 9044  10.452   0.776  12.181  2.2803  0.4351 -0.9470
  808MOL0     H 9045  10.705   0.774  12.191  2.1167 -2.1261 -0.6523
  808MOL0     H 9046  10.900   0.429  12.378 -0.3833 -0.9507  0.1316
  808MOL0     H 9047  10.828   0.466  12.224 -0.8155  0.6419  0.9497
  808MOL0     H 9048  11.014   0.603  12.153 -2.7272 -1.3362  0.4364
  808MOL0     H 9049  11.102   0.571  12.304  2.9216  1.7358 -2.6097
  808MOL0     H 9050  11.010   0.328  12.148 -1.2649  1.9537 -0.4792
  808MOL0     H 9051  11.155   0.355  12.244 -0.4947 -0.0325 -0.8581
  808MOL0     H 9052  11.104   0.462  11.968  1.9340 -0.1009 -1.9904
  808MOL0     H 9053  11.232   0.510  12.083 -0.8667  0.2937  3.1711
  808MOL0     H 9054  11.203   0.215  12.018 -0.1134 -0.2348  2.0559
  808MOL0     H 9055  11.330   0.292  12.094  1.6544 -1.8413 -0.7394
  808MOL0     H 9056  11.271   0.377  11.802  0.5547 -1.5399 -0.8640
  808MOL0     H 9057  11.404   0.426  11.906  0.2757 -0.6035  2.1519
  808MOL0     H 9058  11.318   0.168  11.757  1.8207 -0.4222 -1.9325
  808MOL0     H 9059  11.435   0.145  11.886  0.8649 -0.6148 -0.4123
  808MOL0     H 9060  11.471   0.338  11.642 -1.4725  0.7396  0.9619
  808MOL0     H 9061  11.542   0.175  11.645  3.6560 -0.2622 -0.3953
  808MOL0     H 9062  10.682   0.467  12.487 -0.2932 -0.4404 -0.5866
  808MOL0     H 9063  10.447   0.457  12.478  1.6542  0.6536  3.0872
  808MOL0     H 9064  10.112   0.687  12.159 -0.9356  0.9749 -0.3670
  808MOL0     H 9065   9.905   0.756  12.101  1.6594  0.6111  0.3942
  808MOL0     H 9066  10.318   0.983  11.044 -0.0922 -0.4499 -0.6484
  808MOL0     H 9067  10.520   1.098  10.978  1.7363 -1.0329  0.3677
  808MOL0     H 9068  10.746   1.683  11.062 -0.8926 -0.7700  2.9520
  808MOL0     H 9069  10.981   1.753  10.980  2.7678 -0.7509  3.5609
  808MOL0     H 9070  11.269   1.497  11.085 -0.6484  1.3725 -0.0973
  808MOL0     H 9071  11.345   1.460  10.927  0.3627  0.1729 -0.7958
  808MOL0     H 9072  11.390   1.696  10.885 -0.1694  2.6103  0.4228
  808MOL0     H 9073  11.493   1.590  10.988 -0.6140  2.2702 -2.2642
  808MOL0     H 9074  11.380   1.686  11.187 -4.1904  2.6136  1.4782
  808MOL0     H 9075  11.298   1.808  11.087  0.0910  0.4152  1.3401
  808MOL0     H 9076  11.486   1.927  11.170 -0.6970 -1.9900  1.4314
  808MOL0     H 9077  11.504   1.902  10.991 -0.9120 -1.2085 -1.4929
  808MOL0     H 9078  11.839   1.739  11.201  1.2492  1.6699 -0.8692
  808MOL0     H 9079  11.100   1.349  10.963  0.2428  1.4208 -2.5080
  808MOL0     H 9080  10.875   1.283  11.030 -2.3846  0.7321 -0.6073
  809MOL0     O 9081   8.728   1.751   7.252  0.8790 -0.0774 -0.7174
  809MOL0     C 9082   8.787   1.638   7.248  0.6560 -0.1850  0.4372
  809MOL0     O 9083   8.723   1.522   7.197 -0.0883  0.9034  0.3337
  809MOL0     C 9084   8.605   1.529   7.129  0.8446  1.2678  0.6557
  809MOL0     C 9085   8.497   1.475   7.187  0.3826 -0.0302  0.1335
  809MOL0     C 9086   8.371   1.490   7.128  0.2030 -0.6526 -0.1376
  809MOL0     C 9087   8.356   1.562   7.003 -0.2041 -0.6047  0.9831
  809MOL0     O 9088   8.227   1.582   6.961 -0.2706  0.6166 -0.1464
  809MOL0     C 9089   8.208   1.605   6.822 -0.8602 -1.1589  0.6470
  809MOL0     C 9090   8.065   1.580   6.771 -0.3652  0.2409 -1.1650
  809MOL0     C 9091   8.059   1.596   6.616 -0.1911  0.1144 -0.3786
  809MOL0     C 9092   7.916   1.569   6.565  0.4548 -0.3795  0.2579
  809MOL0     C 9093   7.916   1.594   6.406  0.1614 -0.2631 -1.7189
  809MOL0     C 9094   7.789   1.552   6.346  0.6324 -0.3197  1.0959
  809MOL0     C 9095   7.787   1.582   6.198  0.4359 -0.1118 -0.6341
  809MOL0     C 9096   7.664   1.523   6.118 -0.3937 -0.1821 -0.2579
  809MOL0     N 9097   7.560   1.465   6.195  0.4947  0.0359  0.1330
  809MOL0     C 9098   7.520   1.335   6.190  0.2070 -0.0779  0.7938
  809MOL0     C 9099   7.394   1.338   6.242  0.6407  0.7456 -0.3838
  809MOL0     C 9100   7.296   1.225   6.266  0.8074  0.6200 -0.1833
  809MOL0     C 9101   7.212   1.186   6.144  0.4311 -0.2502  0.0969
  809MOL0     C 9102   7.072   1.260   6.142 -0.2145  0.2571  0.1701
  809MOL0     C 9103   6.962   1.185   6.064 -0.4377 -0.0755 -0.0515
  809MOL0     O 9104   6.845   1.268   6.082 -0.1366  0.3475  0.9079
  809MOL0     C 9105   6.725   1.223   6.030 -0.1747 -0.5990  0.6580
  809MOL0     C 9106   6.717   1.134   5.924  0.5794 -0.3710  0.2562
  809MOL0     C 9107   6.586   1.100   5.874 -0.0483  0.7919  0.5481
  809MOL0     C 9108   6.579   1.002   5.757 -1.0454  0.7014 -0.1573
  809MOL0     C 9109   6.469   1.156   5.939  0.9041  1.2712  0.7262
  809MOL0     C 9110   6.326   1.142   5.902 -0.2916 -0.3860  0.3990
  809MOL0     O 9111   6.240   1.252   5.907 -0.0196  0.2658 -1.1631
  809MOL0     C 9112   6.107   1.228   5.881 -0.6415  0.7750  0.2472
  809MOL0     C 9113   6.036   1.141   5.973 -0.2807 -1.1070 -0.2418
  809MOL0     C 9114   5.899   1.127   5.947 -0.2420 -0.2508  0.7692
  809MOL0     C 9115   5.836   1.184   5.840  0.3439 -0.2918 -0.6691
  809MOL0     O 9116   5.700   1.156   5.831 -0.3772 -0.4566 -0.3430
  809MOL0     C 9117   5.642   1.168   5.695  1.1403 -0.0484 -0.1625
  809MOL0     C 9118   5.497   1.099   5.703 -1.0194  0.5018 -1.3975
  809MOL0     C 9119   5.509   0.945   5.751  0.2067  0.3048  0.0213
  809MOL0     C 9120   5.364   0.897   5.746  0.3115  0.8690 -0.2591
  809MOL0     C 9121   5.339   0.751   5.800  0.6876 -0.1394 -0.0546
  809MOL0     C 9122   5.191   0.755   5.831  0.7539  0.4485  0.0109
  809MOL0     C 9123   5.148   0.610   5.875  0.0867  0.0576 -0.2295
  809MOL0     C 9124   5.115   0.524   5.752  1.1301  0.0191 -0.6106
  809MOL0    Cl 9125   5.132   0.346   5.786 -0.0909  0.0702  0.0249
  809MOL0     C 9126   5.909   1.264   5.758 -0.8612  0.0643 -0.2397
  809MOL0     C 9127   6.044   1.294   5.779  0.1026  0.0538  0.1671
  809MOL0     O 9128   6.291   1.029   5.857  0.3627 -0.5035 -0.0424
  809MOL0     C 9129   6.493   1.250   6.036  0.4109  0.0811 -0.3059
  809MOL0     C 9130   6.619   1.284   6.079  0.6322  0.1179 -0.1221
  809MOL0     N 9131   7.369   1.463   6.290  0.4688  0.6707 -0.5355
  809MOL0     N 9132   7.466   1.536   6.259 -0.3120  0.0066 -0.2318
  809MOL0     C 9133   8.467   1.619   6.948 -0.7032  0.5220  0.4788
  809MOL0     C 9134   8.591   1.612   7.013 -0.0634 -0.3557 -0.1417
  809MOL0     C 9135   8.934   1.633   7.287 -0.3921  0.5052 -0.9081
  809MOL0     C 9136   9.009   1.521   7.251 -0.5239  0.6200 -0.2011
  809MOL0     C 9137   9.151   1.512   7.265  0.0430  0.3019 -1.0193
  809MOL0     C 9138   9.221   1.620   7.324  0.5151  0.6390 -0.3857
  809MOL0     O 9139   9.356   1.619   7.342  0.4039 -0.7660 -0.2538
  809MOL0     C 9140   9.447   1.555   7.242 -0.6505  0.5740  0.3990
  809MOL0     C 9141   9.598   1.583   7.260 -0.7064 -0.5698 -0.6008
  809MOL0     C 9142   9.626   1.735   7.311 -0.4978  0.4746 -0.3005
  809MOL0     C 9143   9.607   1.751   7.462  0.7748  0.4703  0.7833
  809MOL0     C 9144   9.657   1.888   7.486  0.1041  0.1093  0.1494
  809MOL0     C 9145   9.699   1.996   7.493  0.2991  0.4523  0.1536
  809MOL0     C 9146   9.142   1.725   7.373 -0.3385  0.0330 -0.1575
  809MOL0     C 9147   9.006   1.733   7.355  0.5399  0.5504 -0.6963
  809MOL0     H 9148   8.509   1.414   7.277  0.2180  2.7725  2.2021
  809MOL0     H 9149   8.285   1.448   7.179  0.9499  1.0697  2.7834
  809MOL0     H 9150   8.235   1.705   6.787 -2.3338 -1.7522 -2.5211
  809MOL0     H 9151   8.279   1.536   6.776  1.2179  2.0114 -1.2317
  809MOL0     H 9152   8.041   1.475   6.791  4.2045 -0.9423 -0.7924
  809MOL0     H 9153   8.003   1.654   6.822 -1.5235 -0.8049 -0.9955
  809MOL0     H 9154   8.087   1.698   6.590  1.6409  0.7266  3.2647
  809MOL0     H 9155   8.125   1.519   6.575  1.6125  1.5826 -0.3605
  809MOL0     H 9156   7.883   1.466   6.586 -1.6981  0.3160  0.5535
  809MOL0     H 9157   7.846   1.638   6.613 -0.2099 -2.1744  1.9943
  809MOL0     H 9158   7.940   1.701   6.399  0.9633 -0.2630  0.3885
  809MOL0     H 9159   8.000   1.542   6.359  0.5353 -1.0676 -0.2167
  809MOL0     H 9160   7.764   1.447   6.364  0.4844 -0.3130  0.9340
  809MOL0     H 9161   7.702   1.603   6.389  0.3388 -1.2187  1.5924
  809MOL0     H 9162   7.793   1.690   6.181  0.8969 -0.2081 -1.1468
  809MOL0     H 9163   7.880   1.541   6.157  0.1283  0.1093 -1.5983
  809MOL0     H 9164   7.695   1.443   6.051  0.4409  1.6491 -2.1692
  809MOL0     H 9165   7.620   1.606   6.063  1.0617 -0.6094 -2.1738
  809MOL0     H 9166   7.581   1.257   6.144  1.0309  1.0385 -0.0424
  809MOL0     H 9167   7.355   1.137   6.292  0.4994 -0.5806 -3.2334
  809MOL0     H 9168   7.238   1.248   6.356 -0.6881 -0.6303 -0.7968
  809MOL0     H 9169   7.198   1.077   6.141 -0.7934 -0.0922 -0.6341
  809MOL0     H 9170   7.253   1.212   6.046 -3.5152  0.7974 -1.4622
  809MOL0     H 9171   7.082   1.366   6.114  0.6720 -0.2905 -1.7559
  809MOL0     H 9172   7.043   1.260   6.248  0.8301 -1.6574  0.4938
  809MOL0     H 9173   6.944   1.088   6.111 -0.5780 -0.0757 -0.1046
  809MOL0     H 9174   7.003   1.175   5.964 -1.1989 -0.2881 -0.3499
  809MOL0     H 9175   6.801   1.092   5.870  0.2370 -2.2246  1.0741
  809MOL0     H 9176   6.568   0.901   5.796  0.5643  0.0948 -1.2030
  809MOL0     H 9177   6.492   1.019   5.693 -0.7619 -1.8715 -1.3344
  809MOL0     H 9178   6.673   1.002   5.701 -1.0455 -2.1946 -0.3005
  809MOL0     H 9179   6.098   1.114   6.058  0.6911  1.8284  0.1201
  809MOL0     H 9180   5.851   1.060   6.018 -0.5428 -1.7957 -0.7991
  809MOL0     H 9181   5.624   1.271   5.662 -1.0289  0.0572  1.1678
  809MOL0     H 9182   5.691   1.114   5.613 -2.4694 -0.1769 -2.4490
  809MOL0     H 9183   5.434   1.160   5.767 -0.7032 -1.5780  1.0782
  809MOL0     H 9184   5.457   1.081   5.603 -5.0813 -1.6945  0.4140
  809MOL0     H 9185   5.558   0.936   5.849  2.7951 -3.5537 -1.3818
  809MOL0     H 9186   5.570   0.897   5.675  2.3575  1.8020  0.7260
  809MOL0     H 9187   5.303   0.962   5.810 -1.1809 -0.4001 -0.3309
  809MOL0     H 9188   5.330   0.895   5.642  0.6642  1.1308 -0.3817
  809MOL0     H 9189   5.404   0.723   5.883  1.4021 -0.9659 -0.8777
  809MOL0     H 9190   5.345   0.677   5.720 -2.8735  1.5333 -2.1119
  809MOL0     H 9191   5.181   0.832   5.908  0.3114 -1.5292  2.0437
  809MOL0     H 9192   5.136   0.779   5.739  2.3234  0.6109 -0.9213
  809MOL0     H 9193   5.058   0.605   5.938 -2.5557  0.0784 -3.7230
  809MOL0     H 9194   5.224   0.574   5.944  0.1742  1.1842  0.2919
  809MOL0     H 9195   5.174   0.550   5.663 -0.0652  0.5539 -1.2728
  809MOL0     H 9196   5.012   0.551   5.726  1.1081  1.8276  1.1132
  809MOL0     H 9197   5.857   1.311   5.675 -1.7947  2.7741  1.7519
  809MOL0     H 9198   6.094   1.353   5.703  1.1938 -1.3420 -0.2616
  809MOL0     H 9199   6.410   1.305   6.079  0.0240 -0.3080 -0.5491
  809MOL0     H 9200   6.651   1.350   6.159  1.8976  0.8362 -1.1677
  809MOL0     H 9201   8.454   1.674   6.855  0.4591 -0.3459 -0.2289
  809MOL0     H 9202   8.677   1.675   6.989 -1.7047  1.6771 -0.9898
  809MOL0     H 9203   8.960   1.437   7.203 -0.6079  0.0017  0.9335
  809MOL0     H 9204   9.213   1.430   7.231  2.5887  1.2799  0.8599
  809MOL0     H 9205   9.431   1.447   7.253  1.1156  0.3431  1.1215
  809MOL0     H 9206   9.418   1.577   7.139  1.6099 -0.1257 -0.4576
  809MOL0     H 9207   9.647   1.556   7.166  0.1035 -0.5231 -0.1990
  809MOL0     H 9208   9.641   1.516   7.335 -0.5759  2.3077  2.0838
  809MOL0     H 9209   9.563   1.810   7.262  0.9177  1.8206 -0.1310
  809MOL0     H 9210   9.730   1.757   7.285 -0.9262  0.1390 -2.5189
  809MOL0     H 9211   9.669   1.670   7.501  0.9406 -1.2683 -2.7402
  809MOL0     H 9212   9.505   1.743   7.501  0.2279  1.8976 -0.2429
  809MOL0     H 9213   9.762   2.082   7.504  1.3227 -0.1799 -0.6035
  809MOL0     H 9214   9.190   1.806   7.428 -0.4352 -0.0202  0.0062
  809MOL0     H 9215   8.959   1.818   7.403 -0.3123  1.0993 -2.3940
  810MOL0     O 9216   3.970   1.461  10.500  0.4098  0.2105  0.2638
  810MOL0     C 9217   3.992   1.556  10.577  0.6741  0.1779  0.1443
  810MOL0     O 9218   3.907   1.664  10.596 -0.2257  0.2684 -0.1499
  810MOL0     C 9219   3.771   1.667  10.559  1.1619  0.1735  0.5747
  810MOL0     C 9220   3.685   1.564  10.573  0.7299  0.4719  0.9251
  810MOL0     C 9221   3.544   1.567  10.552  0.0251 -0.5176  0.8375
  810MOL0     C 9222   3.497   1.681  10.482 -0.1723  0.8510 -0.5928
  810MOL0     O 9223   3.361   1.689  10.441 -0.3869 -0.6121  0.2907
  810MOL0     C 9224   3.262   1.590  10.463  0.1723  0.2932  0.4584
  810MOL0     C 9225   3.222   1.587  10.613 -0.4519  0.4424  0.1554
  810MOL0     C 9226   3.071   1.552  10.648 -0.0286  0.7055  0.4013
  810MOL0     C 9227   3.031   1.405  10.617 -0.9986  0.1065  0.5789
  810MOL0     C 9228   2.885   1.370  10.657  0.2067 -0.1825 -0.3349
  810MOL0     C 9229   2.779   1.410  10.558  0.3164 -0.9092 -0.5445
  810MOL0     C 9230   2.634   1.377  10.600 -0.6096 -0.6668 -0.0083
  810MOL0     C 9231   2.536   1.466  10.513  0.4734 -0.2207  0.2697
  810MOL0     N 9232   2.404   1.422  10.540  0.0267 -0.3629 -0.5683
  810MOL0     C 9233   2.341   1.429  10.664  0.2524  0.2475  0.7666
  810MOL0     C 9234   2.217   1.382  10.641  0.0965  0.0257  0.0109
  810MOL0     C 9235   2.122   1.365  10.755 -0.2948 -0.6304 -0.1038
  810MOL0     C 9236   2.023   1.250  10.742  1.2658  0.5081  0.2920
  810MOL0     C 9237   2.090   1.115  10.776  0.6530  0.0478 -0.7228
  810MOL0     C 9238   1.977   1.017  10.767 -0.1461 -0.2274  0.3043
  810MOL0     O 9239   1.970   0.939  10.886 -0.6399  0.0679 -0.5587
  810MOL0     C 9240   1.854   0.876  10.916 -1.0931  0.4306  0.3601
  810MOL0     C 9241   1.860   0.817  11.039  0.0464 -1.5038 -0.0518
  810MOL0     C 9242   1.755   0.743  11.089  0.0478 -0.5641  0.0678
  810MOL0     C 9243   1.772   0.679  11.224 -0.4472  0.0843  0.4382
  810MOL0     C 9244   1.644   0.721  11.007  0.1684 -0.3405  0.5263
  810MOL0     C 9245   1.526   0.642  11.060  0.0526  0.3194  0.1463
  810MOL0     O 9246   1.417   0.642  10.962 -0.4486 -0.4158  0.3355
  810MOL0     C 9247   1.297   0.576  10.973 -0.3922  0.2371  0.7268
  810MOL0     C 9248   1.280   0.448  11.028  0.4516 -0.6056  0.5456
  810MOL0     C 9249   1.155   0.383  11.022 -0.1039 -0.3484 -0.4184
  810MOL0     C 9250   1.042   0.445  10.956 -0.0721  1.0260  0.3883
  810MOL0     O 9251   0.925   0.368  10.948 -0.2642  0.2950 -0.3213
  810MOL0     C 9252   0.818   0.406  10.855 -1.2249  0.1383 -0.5287
  810MOL0     C 9253   0.739   0.282  10.823 -0.6283  0.0804  0.8905
  810MOL0     C 9254   0.632   0.238  10.940 -0.0043  0.9222  0.3142
  810MOL0     C 9255   0.535   0.139  10.878 -0.0567 -0.0756 -0.1964
  810MOL0     C 9256   0.456   0.067  10.987  0.1012 -0.3334  0.2526
  810MOL0     C 9257   0.389   0.154  11.083  0.4128  0.2185 -0.6180
  810MOL0     C 9258   0.275   0.080  11.169  0.7245  0.4763  0.1842
  810MOL0     C 9259   0.176   0.162  11.244 -0.5759 -0.9096 -0.3209
  810MOL0    Cl 9260   0.090   0.062  11.366 -0.1738  0.2176  0.0502
  810MOL0     C 9261   1.066   0.565  10.904 -0.0191 -0.3916 -0.1154
  810MOL0     C 9262   1.183   0.639  10.920 -0.4419  0.2295 -0.4816
  810MOL0     O 9263   1.514   0.581  11.169 -0.0847  0.3410 -0.1162
  810MOL0     C 9264   1.647   0.769  10.873 -0.9711 -0.5071 -0.7142
  810MOL0     C 9265   1.753   0.858  10.828  0.0875 -0.2543  0.2957
  810MOL0     N 9266   2.211   1.348  10.511  0.5042  1.2513 -0.1563
  810MOL0     N 9267   2.329   1.361  10.454  0.3532  1.1399 -0.4376
  810MOL0     C 9268   3.574   1.788  10.466 -1.1084  0.5170  1.1507
  810MOL0     C 9269   3.715   1.783  10.501  0.7200 -0.0999  0.2217
  810MOL0     C 9270   4.121   1.568  10.644 -0.4109 -0.3008  0.6538
  810MOL0     C 9271   4.145   1.674  10.728 -0.1079  0.7682  0.4453
  810MOL0     C 9272   4.266   1.672  10.811  0.3272 -0.1829  0.2069
  810MOL0     C 9273   4.361   1.570  10.803 -0.6162  0.5621 -0.0426
  810MOL0     O 9274   4.472   1.587  10.873 -0.4748 -0.1842  0.1543
  810MOL0     C 9275   4.571   1.653  10.788  0.4018  0.4467  0.7250
  810MOL0     C 9276   4.590   1.798  10.841 -0.0702 -0.8878  0.3247
  810MOL0     C 9277   4.701   1.880  10.766 -0.6404  0.1062  0.4272
  810MOL0     C 9278   4.703   2.029  10.810  0.1361  0.1243 -0.4772
  810MOL0     C 9279   4.577   2.093  10.776  0.7817  0.0015 -0.8631
  810MOL0     C 9280   4.470   2.150  10.760 -0.3062 -0.4572  0.3143
  810MOL0     C 9281   4.340   1.468  10.709 -0.2451  0.6704  0.3456
  810MOL0     C 9282   4.225   1.468  10.635 -0.0397  0.9288  0.4965
  810MOL0     H 9283   3.727   1.471  10.610  1.8953  0.4925 -0.2696
  810MOL0     H 9284   3.473   1.487  10.573 -0.3354 -0.7125 -0.9279
  810MOL0     H 9285   3.171   1.607  10.405  0.3397  0.0122  0.1063
  810MOL0     H 9286   3.295   1.489  10.434 -1.6335  0.3249 -2.0493
  810MOL0     H 9287   3.278   1.517  10.676 -0.1883  1.5193  1.1620
  810MOL0     H 9288   3.255   1.682  10.657  2.4752 -1.0266  1.4455
  810MOL0     H 9289   3.054   1.577  10.753 -0.2459 -0.1978  0.5888
  810MOL0     H 9290   3.014   1.621  10.584 -0.1763  0.6804  0.5042
  810MOL0     H 9291   3.043   1.380  10.511 -1.4721  1.4650  0.1892
  810MOL0     H 9292   3.107   1.348  10.672  0.0585 -0.6682 -1.5272
  810MOL0     H 9293   2.885   1.262  10.674  3.1944 -0.1061  0.6750
  810MOL0     H 9294   2.857   1.409  10.755  1.6680 -2.1156  0.9280
  810MOL0     H 9295   2.794   1.518  10.545  1.6959 -0.9705  0.3199
  810MOL0     H 9296   2.798   1.377  10.456 -0.8420  0.1655 -1.1462
  810MOL0     H 9297   2.610   1.271  10.592 -1.3860 -0.5584  0.6769
  810MOL0     H 9298   2.616   1.397  10.706 -3.3109  1.1078 -0.6811
  810MOL0     H 9299   2.551   1.455  10.405  1.4019  0.1031  0.3561
  810MOL0     H 9300   2.543   1.570  10.547  1.6479 -0.8820  2.2254
  810MOL0     H 9301   2.377   1.471  10.757  1.1197  0.9290  0.1386
  810MOL0     H 9302   2.179   1.360  10.849 -1.1885 -2.8013  0.3999
  810MOL0     H 9303   2.064   1.457  10.759  0.6638 -0.0618  2.0760
  810MOL0     H 9304   1.968   1.246  10.648  5.0267  1.2388 -2.1735
  810MOL0     H 9305   1.945   1.264  10.818  0.0666 -2.4122 -0.2692
  810MOL0     H 9306   2.127   1.110  10.879 -0.0305  3.5383 -0.1911
  810MOL0     H 9307   2.171   1.087  10.707  2.0371 -1.5498  1.4474
  810MOL0     H 9308   2.000   0.950  10.684 -0.7614 -0.2441  0.1372
  810MOL0     H 9309   1.880   1.063  10.746  0.7766  1.2318 -0.9601
  810MOL0     H 9310   1.949   0.820  11.101  0.4515 -0.6550 -0.6560
  810MOL0     H 9311   1.712   0.734  11.297 -2.1609 -0.2421 -0.6672
  810MOL0     H 9312   1.740   0.575  11.235 -1.3136  0.2639 -0.3331
  810MOL0     H 9313   1.880   0.680  11.246  0.0406 -0.2974 -1.6894
  810MOL0     H 9314   1.367   0.401  11.071  1.2340  1.6239  1.5524
  810MOL0     H 9315   1.141   0.283  11.062  2.0370 -0.3376  0.4786
  810MOL0     H 9316   0.754   0.489  10.885  0.6971  1.9567 -1.2144
  810MOL0     H 9317   0.867   0.447  10.766  0.8634 -1.1552 -0.0680
  810MOL0     H 9318   0.682   0.302  10.732 -0.2297 -1.1990  0.3262
  810MOL0     H 9319   0.817   0.207  10.804 -0.0665 -0.0814  3.5272
  810MOL0     H 9320   0.581   0.329  10.970  0.4662  1.9688 -1.8441
  810MOL0     H 9321   0.678   0.187  11.025 -2.6511 -2.8835 -0.2565
  810MOL0     H 9322   0.467   0.174  10.799  0.3967 -0.8199 -0.9364
  810MOL0     H 9323   0.593   0.063  10.825  1.2118  0.2187  0.7503
  810MOL0     H 9324   0.528  -0.002  11.032  0.8098 -0.5795 -1.1772
  810MOL0     H 9325   0.382  -0.001  10.942 -0.6757  0.2673  0.5994
  810MOL0     H 9326   0.455   0.184  11.164  1.7609 -5.1993  0.6506
  810MOL0     H 9327   0.337   0.235  11.030 -1.7543 -0.7001 -0.0153
  810MOL0     H 9328   0.330   0.021  11.243 -0.2553 -1.9828 -0.9304
  810MOL0     H 9329   0.209   0.014  11.112  1.4745 -1.2452  1.2312
  810MOL0     H 9330   0.102   0.204  11.174  1.7305  0.4581 -2.0986
  810MOL0     H 9331   0.232   0.248  11.281 -1.1583 -0.7794  0.2720
  810MOL0     H 9332   0.980   0.620  10.866 -1.3422 -2.4086 -0.2395
  810MOL0     H 9333   1.182   0.740  10.881 -3.8097  0.4060 -0.2002
  810MOL0     H 9334   1.563   0.745  10.809  0.1581 -0.5016 -2.2680
  810MOL0     H 9335   1.745   0.911  10.734 -0.0347  0.8206  0.8931
  810MOL0     H 9336   3.544   1.885  10.429  0.7665  1.5803  2.2731
  810MOL0     H 9337   3.775   1.874  10.497  1.0118 -0.1914  1.9194
  810MOL0     H 9338   4.066   1.748  10.737 -3.1049 -2.1877  0.2616
  810MOL0     H 9339   4.280   1.748  10.887  1.2403  0.9055 -1.0074
  810MOL0     H 9340   4.669   1.605  10.787  0.6574  0.9598  0.7207
  810MOL0     H 9341   4.545   1.646  10.682 -0.9250 -2.9723  1.1443
  810MOL0     H 9342   4.605   1.801  10.949  2.9307 -1.1233  0.0156
  810MOL0     H 9343   4.493   1.846  10.831  0.9536  1.1556 -0.2799
  810MOL0     H 9344   4.686   1.877  10.658 -2.9576  2.3982  0.5672
  810MOL0     H 9345   4.799   1.836  10.786 -0.9248 -0.6973  0.0973
  810MOL0     H 9346   4.782   2.096  10.776  1.3654 -0.7836  0.4824
  810MOL0     H 9347   4.723   2.033  10.918  2.1682 -1.8134 -0.7134
  810MOL0     H 9348   4.383   2.210  10.742  0.1965  0.8714  1.9968
  810MOL0     H 9349   4.409   1.384  10.702 -3.6548 -2.3704  0.0960
  810MOL0     H 9350   4.207   1.392  10.559 -0.1357 -1.3355  2.6881
  811MOL0     O 9351   7.633   6.771  10.060  0.2485 -0.2605  0.0330
  811MOL0     C 9352   7.608   6.879  10.125  0.7132  0.1265  0.5917
  811MOL0     O 9353   7.483   6.931  10.153  0.4793 -1.7294 -0.0012
  811MOL0     C 9354   7.366   6.862  10.141  0.5688  0.3964  0.4816
  811MOL0     C 9355   7.336   6.725  10.113  0.5795  0.0686  0.3591
  811MOL0     C 9356   7.206   6.673  10.115 -0.0961 -0.7602  0.6823
  811MOL0     C 9357   7.093   6.758  10.112 -0.4822 -0.4009 -0.8561
  811MOL0     O 9358   6.978   6.693  10.107  1.1334 -0.5500  0.5683
  811MOL0     C 9359   6.872   6.781  10.090  0.2194  0.7688  0.1357
  811MOL0     C 9360   6.737   6.702  10.089 -0.0848  0.6793 -0.5692
  811MOL0     C 9361   6.620   6.799  10.071 -0.2365  0.0152 -0.5005
  811MOL0     C 9362   6.489   6.725  10.101 -0.4033 -0.4274  0.2689
  811MOL0     C 9363   6.363   6.806  10.093  0.1087 -0.1538  0.1811
  811MOL0     C 9364   6.241   6.713  10.121 -0.4940  0.0418  0.8843
  811MOL0     C 9365   6.114   6.787  10.084  0.0235 -0.2338 -0.8328
  811MOL0     C 9366   5.997   6.730  10.149 -0.2399 -0.6542 -0.3976
  811MOL0     N 9367   5.994   6.773  10.288  0.0132 -0.2258 -0.7326
  811MOL0     C 9368   5.910   6.870  10.336 -0.7895  0.5608 -0.2568
  811MOL0     C 9369   5.905   6.844  10.470  0.2335  0.0417  0.9703
  811MOL0     C 9370   5.805   6.907  10.569 -0.0196 -0.3065 -0.3462
  811MOL0     C 9371   5.667   6.832  10.575  0.7155  0.1613  0.4919
  811MOL0     C 9372   5.557   6.906  10.651  0.7123  0.5124  0.2371
  811MOL0     C 9373   5.421   6.833  10.643  1.3940  0.1536 -0.9506
  811MOL0     O 9374   5.345   6.882  10.750 -0.4028 -0.1625  0.0952
  811MOL0     C 9375   5.216   6.852  10.766 -0.4025  0.5398 -0.6815
  811MOL0     C 9376   5.170   6.724  10.778 -0.3341  0.4353 -0.2937
  811MOL0     C 9377   5.033   6.695  10.786 -0.7216 -0.3914 -0.1172
  811MOL0     C 9378   4.994   6.541  10.804 -0.4057 -0.3331  0.4439
  811MOL0     C 9379   4.946   6.809  10.816  0.3778 -0.3840 -0.6512
  811MOL0     C 9380   4.802   6.792  10.847 -0.1212  0.9212  0.1009
  811MOL0     O 9381   4.752   6.671  10.809  0.2124 -0.6332  0.9004
  811MOL0     C 9382   4.625   6.633  10.852 -0.1788  0.2338  0.5919
  811MOL0     C 9383   4.509   6.704  10.849  0.2990  0.1166 -0.0141
  811MOL0     C 9384   4.388   6.651  10.893 -0.7615  0.2543 -0.2012
  811MOL0     C 9385   4.378   6.518  10.947 -0.4068  0.0668  0.4519
  811MOL0     O 9386   4.256   6.462  10.983 -0.5975  0.3832 -0.8638
  811MOL0     C 9387   4.258   6.316  10.988 -0.1041  0.7501 -0.1225
  811MOL0     C 9388   4.117   6.257  10.959  0.5674  0.1750  0.0132
  811MOL0     C 9389   4.056   6.319  10.832 -0.0149 -0.2284 -0.5891
  811MOL0     C 9390   3.917   6.266  10.797 -0.5329  0.1118  0.3232
  811MOL0     C 9391   3.895   6.109  10.795 -0.1164 -0.0195  0.0684
  811MOL0     C 9392   3.750   6.044  10.780  0.4260  0.1412  0.5519
  811MOL0     C 9393   3.700   6.091  10.645 -0.1199 -0.1829 -0.1464
  811MOL0     C 9394   3.560   6.022  10.620 -1.2206 -1.1584  0.0999
  811MOL0    Cl 9395   3.530   6.020  10.439  0.1112  0.0148 -0.1542
  811MOL0     C 9396   4.496   6.451  10.957 -0.4538  0.2853 -0.5101
  811MOL0     C 9397   4.621   6.503  10.912 -0.2261  0.0831  0.2021
  811MOL0     O 9398   4.741   6.888  10.896 -0.6815 -0.5809  0.0809
  811MOL0     C 9399   5.000   6.936  10.818  0.1364  0.0626  0.1182
  811MOL0     C 9400   5.132   6.958  10.788  0.4462  0.4113 -0.2058
  811MOL0     N 9401   5.993   6.749  10.501  0.4143 -0.0198  0.3843
  811MOL0     N 9402   6.040   6.703  10.389 -0.3659 -0.3514  0.3212
  811MOL0     C 9403   7.121   6.901  10.125  0.2399 -0.2940  0.1038
  811MOL0     C 9404   7.253   6.942  10.145  0.0028  0.6088  0.7569
  811MOL0     C 9405   7.723   6.941  10.206 -0.0768  0.1476 -0.5991
  811MOL0     C 9406   7.844   6.873  10.213  0.5958 -0.2662 -0.1832
  811MOL0     C 9407   7.949   6.921  10.288  0.7559  0.6862 -0.8759
  811MOL0     C 9408   7.933   7.044  10.356 -0.1945 -0.7699  0.1257
  811MOL0     O 9409   8.044   7.071  10.440 -0.4092 -0.8077 -0.6005
  811MOL0     C 9410   8.074   7.199  10.490  0.5552 -0.3871  0.2112
  811MOL0     C 9411   8.213   7.233  10.459 -0.8184 -0.0824  0.1639
  811MOL0     C 9412   8.293   7.135  10.554 -0.0785 -0.4394 -0.1136
  811MOL0     C 9413   8.437   7.160  10.568  0.3011  0.2196  0.3097
  811MOL0     C 9414   8.501   7.058  10.649 -0.2018 -1.4004  0.2479
  811MOL0     C 9415   8.542   6.966  10.720  0.1071 -0.4022  0.4876
  811MOL0     C 9416   7.817   7.121  10.336  0.4677 -0.7938 -0.2685
  811MOL0     C 9417   7.707   7.055  10.283  0.0720 -0.1738  0.1516
  811MOL0     H 9418   7.422   6.658  10.117 -1.7151 -3.2111 -0.4710
  811MOL0     H 9419   7.196   6.565  10.121 -1.3087 -0.6812  0.3263
  811MOL0     H 9420   6.864   6.852  10.172  1.8135  0.6656  0.4165
  811MOL0     H 9421   6.874   6.831   9.993 -1.8170 -1.4549 -1.1876
  811MOL0     H 9422   6.741   6.630  10.007 -1.1933  1.6553 -1.5035
  811MOL0     H 9423   6.730   6.648  10.184  1.0459  1.3307 -0.0970
  811MOL0     H 9424   6.614   6.886  10.137 -3.7826 -0.0459 -0.5462
  811MOL0     H 9425   6.606   6.836   9.969  0.2004 -2.1740 -1.4249
  811MOL0     H 9426   6.489   6.643  10.029  0.0917  0.7541 -1.1383
  811MOL0     H 9427   6.493   6.674  10.198 -0.6248 -2.1478 -0.5862
  811MOL0     H 9428   6.368   6.884  10.170  1.1489 -1.5069  1.5307
  811MOL0     H 9429   6.352   6.854   9.995 -1.1368  3.4714  1.9079
  811MOL0     H 9430   6.234   6.626  10.055 -0.5223 -0.6295  1.7515
  811MOL0     H 9431   6.242   6.670  10.221  3.1691 -0.1458  0.9020
  811MOL0     H 9432   6.129   6.891  10.114  1.2614 -1.0696  1.8653
  811MOL0     H 9433   6.095   6.785   9.977 -4.4491  4.1409 -0.4846
  811MOL0     H 9434   5.993   6.621  10.136  0.0983 -1.3903  4.1880
  811MOL0     H 9435   5.912   6.778  10.100 -0.0078  1.3696  1.0414
  811MOL0     H 9436   5.854   6.935  10.269 -0.1742 -0.8650 -2.2351
  811MOL0     H 9437   5.843   6.901  10.672 -3.5343  0.3076  1.1272
  811MOL0     H 9438   5.789   7.013  10.549 -0.8613 -0.3738 -0.0513
  811MOL0     H 9439   5.663   6.738  10.630 -1.6059  0.4711  0.9688
  811MOL0     H 9440   5.631   6.817  10.473  1.8145  0.6728  0.0022
  811MOL0     H 9441   5.546   7.008  10.613  2.6517  1.0903  1.0784
  811MOL0     H 9442   5.577   6.915  10.758  0.2807 -1.4376  0.5076
  811MOL0     H 9443   5.427   6.724  10.642 -0.0139  0.0600 -1.1186
  811MOL0     H 9444   5.370   6.850  10.547  1.9306 -0.1144 -1.2918
  811MOL0     H 9445   5.240   6.643  10.762  0.4110  1.3791 -2.1737
  811MOL0     H 9446   4.927   6.514  10.886 -0.7102 -3.8114 -0.7902
  811MOL0     H 9447   4.936   6.514  10.716  1.1188 -1.1447 -0.3550
  811MOL0     H 9448   5.089   6.486  10.806  0.8103  1.6101 -0.4132
  811MOL0     H 9449   4.515   6.804  10.808  1.6121  0.3160  0.6132
  811MOL0     H 9450   4.302   6.717  10.893  0.9760  2.6714 -0.6846
  811MOL0     H 9451   4.334   6.273  10.922  0.2288 -0.3202  0.9214
  811MOL0     H 9452   4.291   6.285  11.088  1.9551  0.3422 -0.8679
  811MOL0     H 9453   4.127   6.149  10.943 -4.6230 -0.6564  0.7228
  811MOL0     H 9454   4.051   6.268  11.046  0.2783 -0.1748 -0.1629
  811MOL0     H 9455   4.116   6.290  10.745 -1.1726 -0.4970 -1.3341
  811MOL0     H 9456   4.057   6.428  10.839  0.1005 -0.2763  0.2195
  811MOL0     H 9457   3.842   6.305  10.866 -0.0709  1.0932  0.2850
  811MOL0     H 9458   3.885   6.307  10.700 -0.4760 -0.5306  0.0279
  811MOL0     H 9459   3.939   6.067  10.886 -0.1068  0.5978  0.3497
  811MOL0     H 9460   3.953   6.069  10.711 -1.0674 -0.5019 -0.3783
  811MOL0     H 9461   3.768   5.937  10.766 -1.3639 -0.1197  0.0328
  811MOL0     H 9462   3.685   6.068  10.865 -1.0244 -0.4754 -0.3562
  811MOL0     H 9463   3.773   6.057  10.571  4.4157  4.6060  1.5540
  811MOL0     H 9464   3.702   6.200  10.636  0.7085 -0.3067 -1.8526
  811MOL0     H 9465   3.477   6.064  10.676  0.8258 -0.4098  2.8018
  811MOL0     H 9466   3.574   5.916  10.640 -0.1039 -1.9473 -3.8592
  811MOL0     H 9467   4.492   6.348  10.990  0.8096  0.6944  1.0332
  811MOL0     H 9468   4.712   6.445  10.918 -0.3990 -0.0301  3.4574
  811MOL0     H 9469   4.941   7.022  10.847  2.2148  2.4603 -2.2672
  811MOL0     H 9470   5.141   7.066  10.803 -1.0261  0.5915 -0.4917
  811MOL0     H 9471   7.043   6.976  10.114  2.3753  1.9553 -0.3925
  811MOL0     H 9472   7.266   7.048  10.164  1.2350  0.5422  0.3966
  811MOL0     H 9473   7.854   6.778  10.161  2.4738  0.9776 -2.3393
  811MOL0     H 9474   8.039   6.861  10.301  0.0376 -0.5717 -1.4432
  811MOL0     H 9475   8.012   7.274  10.440 -1.1766 -2.0719 -0.3007
  811MOL0     H 9476   8.053   7.207  10.597  0.1296  1.3959  0.0349
  811MOL0     H 9477   8.247   7.330  10.496  1.1489 -0.1472 -1.2922
  811MOL0     H 9478   8.238   7.230  10.353  0.0283  2.4232  0.2173
  811MOL0     H 9479   8.292   7.039  10.501 -0.5939 -1.4492  1.6784
  811MOL0     H 9480   8.250   7.120  10.653 -0.8197 -1.6195 -0.5782
  811MOL0     H 9481   8.457   7.260  10.608 -1.6263  1.4793 -1.6288
  811MOL0     H 9482   8.477   7.162  10.467  0.2510  1.8836  0.2929
  811MOL0     H 9483   8.568   6.874  10.769  0.2453 -1.8034 -2.0664
  811MOL0     H 9484   7.795   7.215  10.385 -1.7178 -1.6488  0.5252
  811MOL0     H 9485   7.613   7.108  10.294 -0.0422 -0.8066  2.9655
  812MOL0     O 9486   2.743   0.415   3.853  0.0365 -0.2920 -0.8741
  812MOL0     C 9487   2.797   0.422   3.962  0.0058  0.3607  0.1790
  812MOL0     O 9488   2.738   0.446   4.085 -0.2273 -0.1665 -0.9080
  812MOL0     C 9489   2.605   0.485   4.092  0.6368 -0.0615  0.3242
  812MOL0     C 9490   2.562   0.468   4.222 -0.2344  0.3002  0.3193
  812MOL0     C 9491   2.444   0.502   4.268 -0.1969 -0.0211  0.0513
  812MOL0     C 9492   2.344   0.547   4.176  0.3673  1.5743  0.8342
  812MOL0     O 9493   2.215   0.568   4.221  0.1656  0.2335  0.9069
  812MOL0     C 9494   2.105   0.598   4.139  0.6982  1.1629 -0.3995
  812MOL0     C 9495   1.978   0.578   4.226 -0.8516 -0.0532  0.6861
  812MOL0     C 9496   1.850   0.598   4.150 -0.5208 -1.1956  0.5401
  812MOL0     C 9497   1.736   0.514   4.216 -0.2391  0.3043  0.9811
  812MOL0     C 9498   1.607   0.553   4.143 -0.2056  1.0373 -0.1320
  812MOL0     C 9499   1.604   0.471   4.010 -0.3863  0.7742 -0.6098
  812MOL0     C 9500   1.492   0.510   3.914  0.1545 -0.5032  0.4059
  812MOL0     C 9501   1.485   0.417   3.791  0.1994 -0.4252 -0.0974
  812MOL0     N 9502   1.369   0.456   3.705 -0.5228 -0.4680  0.5737
  812MOL0     C 9503   1.245   0.402   3.726  0.4959 -0.5147  0.2510
  812MOL0     C 9504   1.173   0.447   3.628  0.3864 -0.5736 -0.1319
  812MOL0     C 9505   1.021   0.440   3.608  0.5073  0.1227 -0.0561
  812MOL0     C 9506   0.997   0.355   3.489 -0.2929 -0.5764  1.0195
  812MOL0     C 9507   1.010   0.209   3.535 -0.7255 -0.6963 -0.1925
  812MOL0     C 9508   1.002   0.116   3.419 -0.0671  0.5155  0.3368
  812MOL0     O 9509   1.118   0.145   3.342 -0.3565  0.1835  0.6238
  812MOL0     C 9510   1.217   0.052   3.327 -0.7464  0.2293  0.6457
  812MOL0     C 9511   1.240  -0.072   3.384 -0.0686 -0.1185  0.1015
  812MOL0     C 9512   1.358  -0.142   3.373  0.3754 -0.3560  0.4238
  812MOL0     C 9513   1.359  -0.278   3.449  0.0708  0.1290  0.3898
  812MOL0     C 9514   1.456  -0.095   3.285  0.0311  0.6897 -1.0931
  812MOL0     C 9515   1.589  -0.163   3.254  0.0060 -0.2363  0.5190
  812MOL0     O 9516   1.654  -0.130   3.143 -0.4171 -0.0897 -0.4088
  812MOL0     C 9517   1.780  -0.182   3.104  0.1081 -1.0815  0.2447
  812MOL0     C 9518   1.824  -0.138   2.970  0.5860 -0.1714  0.1156
  812MOL0     C 9519   1.941  -0.189   2.921  0.1215  0.0477 -0.1856
  812MOL0     C 9520   2.026  -0.270   3.001 -0.6714  0.6987  0.2048
  812MOL0     O 9521   2.136  -0.316   2.941 -0.4615  0.2412  0.2706
  812MOL0     C 9522   2.197  -0.429   3.001  0.0291  0.6357  0.4571
  812MOL0     C 9523   2.330  -0.469   2.941 -0.1057  0.2521 -0.8655
  812MOL0     C 9524   2.302  -0.550   2.823 -0.0285  0.3598  0.2141
  812MOL0     C 9525   2.437  -0.619   2.769  0.9177 -0.4225 -0.8057
  812MOL0     C 9526   2.417  -0.694   2.641 -0.4708 -0.0786  0.0690
  812MOL0     C 9527   2.552  -0.743   2.599  1.1047 -0.7574  1.3546
  812MOL0     C 9528   2.555  -0.801   2.453  0.0750  0.2676 -0.1936
  812MOL0     C 9529   2.678  -0.872   2.414 -0.4925 -0.2920  0.9055
  812MOL0    Cl 9530   2.664  -0.914   2.242  0.3618  0.2646  0.2056
  812MOL0     C 9531   1.973  -0.316   3.122 -0.8984 -0.5399 -0.3763
  812MOL0     C 9532   1.851  -0.274   3.174 -0.8257 -0.0480 -0.4707
  812MOL0     O 9533   1.636  -0.226   3.348  0.6517  0.3731 -0.0921
  812MOL0     C 9534   1.438   0.029   3.233 -0.3094 -0.4085  0.7671
  812MOL0     C 9535   1.322   0.105   3.245 -0.6864  0.6124  0.3128
  812MOL0     N 9536   1.248   0.531   3.550  0.6399 -0.0784 -0.4916
  812MOL0     N 9537   1.369   0.537   3.591 -0.1605 -0.4517 -0.2176
  812MOL0     C 9538   2.383   0.555   4.035  0.8249 -0.2999 -0.7101
  812MOL0     C 9539   2.510   0.516   3.996 -0.2951 -0.0692  0.5701
  812MOL0     C 9540   2.932   0.356   3.963 -0.2494  0.0991  0.4094
  812MOL0     C 9541   3.024   0.378   3.867 -0.0312 -0.8623 -0.0420
  812MOL0     C 9542   3.141   0.312   3.858 -0.1172  0.3686 -0.1970
  812MOL0     C 9543   3.178   0.219   3.951  0.7534 -0.0469  0.4529
  812MOL0     O 9544   3.303   0.176   3.940 -0.0015 -0.6414  1.7456
  812MOL0     C 9545   3.415   0.264   3.951 -0.1703  1.0229  0.6773
  812MOL0     C 9546   3.497   0.293   3.827 -0.8520 -0.0557 -0.0132
  812MOL0     C 9547   3.547   0.165   3.744 -0.8584 -0.6729 -0.4702
  812MOL0     C 9548   3.658   0.203   3.631  0.4575  0.5518 -0.8790
  812MOL0     C 9549   3.789   0.234   3.678  0.7017  0.0301  0.1178
  812MOL0     C 9550   3.899   0.266   3.726  0.4189  0.6283  0.1333
  812MOL0     C 9551   3.096   0.193   4.059 -0.3851 -0.5520 -1.1377
  812MOL0     C 9552   2.971   0.261   4.061  1.2191  0.3199 -1.0426
  812MOL0     H 9553   2.636   0.428   4.291  1.3277 -3.0821 -2.9837
  812MOL0     H 9554   2.417   0.488   4.372  0.5170 -0.7449  0.1464
  812MOL0     H 9555   2.109   0.697   4.093 -3.1900  1.6765  0.0675
  812MOL0     H 9556   2.096   0.529   4.055  0.2371  0.2335  0.3989
  812MOL0     H 9557   1.978   0.480   4.274 -0.7903  0.4262  1.7059
  812MOL0     H 9558   1.993   0.645   4.311  0.9996  1.8892 -1.0349
  812MOL0     H 9559   1.835   0.705   4.133 -1.2662 -1.4940 -0.7794
  812MOL0     H 9560   1.875   0.560   4.051 -1.9766 -1.6169  0.3241
  812MOL0     H 9561   1.758   0.407   4.209  0.9272  0.6437 -1.8178
  812MOL0     H 9562   1.745   0.530   4.324  0.9339 -0.8143  1.0690
  812MOL0     H 9563   1.516   0.521   4.194 -0.6800  1.0656 -0.9373
  812MOL0     H 9564   1.585   0.659   4.129 -2.1072  0.6108 -0.7577
  812MOL0     H 9565   1.702   0.476   3.962  2.0527 -2.6277  3.3078
  812MOL0     H 9566   1.596   0.362   4.017  1.6128  0.6600  0.8993
  812MOL0     H 9567   1.400   0.504   3.972 -0.1010  0.0202  0.0620
  812MOL0     H 9568   1.512   0.615   3.892 -1.3000 -0.3201 -0.1220
  812MOL0     H 9569   1.496   0.310   3.808 -0.7235 -0.1994  2.3903
  812MOL0     H 9570   1.574   0.451   3.737  1.3925  2.3326  3.1872
  812MOL0     H 9571   1.201   0.348   3.809 -3.4932  1.6235 -0.2197
  812MOL0     H 9572   0.967   0.409   3.698  1.1974 -3.5629 -0.7431
  812MOL0     H 9573   0.974   0.533   3.573 -1.9294 -1.7323 -2.1169
  812MOL0     H 9574   1.063   0.372   3.404  1.6345 -2.8341  1.9628
  812MOL0     H 9575   0.891   0.364   3.463 -0.3136  0.6325  1.4702
  812MOL0     H 9576   0.934   0.181   3.609  0.0087 -0.7775  0.5471
  812MOL0     H 9577   1.102   0.191   3.591 -0.6403 -3.1867 -0.9888
  812MOL0     H 9578   0.910   0.144   3.367  0.8916  2.0310 -0.5944
  812MOL0     H 9579   0.999   0.011   3.451  0.1390 -0.3885 -2.3630
  812MOL0     H 9580   1.164  -0.119   3.446  1.2200 -3.2097 -0.4787
  812MOL0     H 9581   1.451  -0.336   3.443 -2.3619 -3.9324 -1.5842
  812MOL0     H 9582   1.327  -0.267   3.553  0.9273 -1.1942  0.8150
  812MOL0     H 9583   1.290  -0.353   3.410  2.2492 -2.1500  0.7155
  812MOL0     H 9584   1.772  -0.068   2.905 -0.4237 -2.0081 -1.1586
  812MOL0     H 9585   1.980  -0.157   2.825  3.7190 -1.3413  0.6474
  812MOL0     H 9586   2.217  -0.416   3.108  1.1781  0.3246  0.2837
  812MOL0     H 9587   2.121  -0.508   2.995  1.7378 -0.9641 -1.5863
  812MOL0     H 9588   2.385  -0.376   2.922 -0.8167  0.5882 -1.3313
  812MOL0     H 9589   2.387  -0.526   3.015  0.5130  3.1666  1.1076
  812MOL0     H 9590   2.259  -0.483   2.747  0.4804 -0.2489 -0.6298
  812MOL0     H 9591   2.221  -0.624   2.833 -1.4663  1.4601 -2.3035
  812MOL0     H 9592   2.498  -0.531   2.751 -0.2937  0.4454 -0.8181
  812MOL0     H 9593   2.472  -0.687   2.847 -1.9539 -2.2095 -0.8849
  812MOL0     H 9594   2.370  -0.622   2.574 -0.9290  1.5374  2.0489
  812MOL0     H 9595   2.338  -0.770   2.635 -0.9840  0.5480 -1.4980
  812MOL0     H 9596   2.622  -0.660   2.591 -1.1366  1.1294  0.1680
  812MOL0     H 9597   2.584  -0.826   2.663 -0.5220 -2.5943 -0.0968
  812MOL0     H 9598   2.531  -0.720   2.383  1.1501  1.1395  0.4186
  812MOL0     H 9599   2.469  -0.869   2.454  0.4283 -0.1806  0.6566
  812MOL0     H 9600   2.701  -0.958   2.478  0.1781 -0.4389  0.4775
  812MOL0     H 9601   2.769  -0.817   2.440 -0.6760  1.5085 -1.9016
  812MOL0     H 9602   2.026  -0.392   3.180 -0.2921 -1.8867 -2.5904
  812MOL0     H 9603   1.830  -0.320   3.271 -0.3616  0.3094 -0.1945
  812MOL0     H 9604   1.521   0.081   3.185 -1.0986  0.7268  0.6007
  812MOL0     H 9605   1.315   0.201   3.196  1.7352  1.0057  0.6343
  812MOL0     H 9606   2.315   0.597   3.962  1.3265  1.2660 -0.3181
  812MOL0     H 9607   2.536   0.515   3.891  2.3641 -1.4573  1.1489
  812MOL0     H 9608   3.009   0.448   3.785 -1.6754 -0.1540  0.8226
  812MOL0     H 9609   3.208   0.330   3.774  1.3158  0.4415  0.9251
  812MOL0     H 9610   3.398   0.356   4.008 -0.3245  0.7315  1.1060
  812MOL0     H 9611   3.486   0.206   4.010 -0.8324 -0.4912  0.0179
  812MOL0     H 9612   3.577   0.354   3.869  0.1334 -2.0610  1.1525
  812MOL0     H 9613   3.434   0.350   3.758  0.4841  2.1342  0.4819
  812MOL0     H 9614   3.457   0.127   3.696 -0.8264 -0.5343 -0.6416
  812MOL0     H 9615   3.587   0.081   3.802  1.1172  0.5295  0.0290
  812MOL0     H 9616   3.617   0.277   3.562 -0.3316 -0.0298 -1.0539
  812MOL0     H 9617   3.671   0.107   3.580 -0.7177 -0.5261  0.7573
  812MOL0     H 9618   3.991   0.311   3.759 -0.1504  3.2095 -1.5071
  812MOL0     H 9619   3.128   0.132   4.143 -0.7249  0.4707 -0.2426
  812MOL0     H 9620   2.913   0.251   4.152  1.5035  1.1356 -0.7662
  813MOL0     O 9621   7.913   3.172   5.104 -0.4078  0.4903  0.4624
  813MOL0     C 9622   7.904   3.222   5.220 -0.2982  0.2320 -0.1140
  813MOL0     O 9623   7.823   3.332   5.249  0.9592 -0.5833  0.1595
  813MOL0     C 9624   7.751   3.391   5.143  0.8499 -1.0494 -0.5070
  813MOL0     C 9625   7.640   3.452   5.188  0.3781 -0.2420 -0.0273
  813MOL0     C 9626   7.541   3.498   5.101 -0.4360 -0.8934 -0.3843
  813MOL0     C 9627   7.562   3.510   4.963  0.2467 -0.2782 -0.2748
  813MOL0     O 9628   7.453   3.546   4.888 -0.4141  0.3142  0.5528
  813MOL0     C 9629   7.483   3.606   4.760  0.7482  0.3084  0.3272
  813MOL0     C 9630   7.362   3.679   4.704  0.2702 -0.3656  0.3106
  813MOL0     C 9631   7.243   3.585   4.718 -0.1368  0.0353  0.4568
  813MOL0     C 9632   7.118   3.622   4.639 -0.0826 -0.7476 -1.6385
  813MOL0     C 9633   6.986   3.548   4.677 -0.3958 -0.3240 -0.2303
  813MOL0     C 9634   6.866   3.595   4.593  0.0037  0.1860 -0.6723
  813MOL0     C 9635   6.740   3.522   4.650  0.6866 -0.1453 -0.1233
  813MOL0     C 9636   6.754   3.372   4.637 -0.0430 -0.5761  0.2381
  813MOL0     N 9637   6.627   3.303   4.639  0.0460  0.5408 -0.8054
  813MOL0     C 9638   6.517   3.334   4.715 -0.0101  0.1783  0.4997
  813MOL0     C 9639   6.427   3.233   4.692  0.8451  0.1029 -0.2826
  813MOL0     C 9640   6.282   3.209   4.734  1.8222  0.0819  0.8036
  813MOL0     C 9641   6.200   3.331   4.755  0.7553  0.2426  0.3539
  813MOL0     C 9642   6.173   3.399   4.618  0.4685  0.3839  1.2454
  813MOL0     C 9643   6.090   3.537   4.613  0.1672 -0.1538 -0.7447
  813MOL0     O 9644   5.954   3.503   4.656 -1.1476  0.1845  0.6193
  813MOL0     C 9645   5.859   3.481   4.559  0.6516  0.0685  0.2006
  813MOL0     C 9646   5.729   3.465   4.614 -0.1198  0.7000  0.0153
  813MOL0     C 9647   5.618   3.431   4.535 -0.2976  0.1865  0.3234
  813MOL0     C 9648   5.489   3.395   4.611  0.7833 -0.4565  0.5706
  813MOL0     C 9649   5.632   3.420   4.394  0.1116 -0.3082 -0.9043
  813MOL0     C 9650   5.521   3.375   4.299 -0.0980 -0.0906 -0.1985
  813MOL0     O 9651   5.394   3.409   4.335  0.3155  0.0275 -0.2872
  813MOL0     C 9652   5.292   3.351   4.270  0.8591  0.1768 -0.1261
  813MOL0     C 9653   5.274   3.366   4.137  0.1639 -0.0402 -0.7767
  813MOL0     C 9654   5.157   3.313   4.073  0.1482  1.1945 -0.1193
  813MOL0     C 9655   5.061   3.256   4.149  0.4199  0.4627  0.4404
  813MOL0     O 9656   4.951   3.201   4.093 -0.1208  1.0730 -0.1285
  813MOL0     C 9657   4.961   3.062   4.047  0.6273  0.1138  0.0293
  813MOL0     C 9658   4.859   3.052   3.929  0.3895 -0.3260  0.5157
  813MOL0     C 9659   4.722   3.054   4.000  1.0552 -0.7320  0.2368
  813MOL0     C 9660   4.603   3.079   3.891  0.5273  0.3416  0.6358
  813MOL0     C 9661   4.462   3.066   3.950 -0.3562  0.5037 -0.1072
  813MOL0     C 9662   4.434   3.158   4.067  0.6796 -0.8059  0.7198
  813MOL0     C 9663   4.276   3.162   4.104 -0.3624  0.4136  0.4994
  813MOL0     C 9664   4.259   3.237   4.239 -0.4573  0.1043  1.1011
  813MOL0    Cl 9665   4.314   3.407   4.232 -0.1862 -0.3391 -0.5083
  813MOL0     C 9666   5.066   3.268   4.289  0.3871 -0.6640 -0.2318
  813MOL0     C 9667   5.183   3.314   4.346 -0.1472  0.0735 -0.5454
  813MOL0     O 9668   5.557   3.310   4.204  0.9837  0.2408 -0.0773
  813MOL0     C 9669   5.756   3.452   4.337  0.2028  0.3102 -0.5051
  813MOL0     C 9670   5.872   3.477   4.415  0.4858 -0.3427 -0.1695
  813MOL0     N 9671   6.484   3.145   4.603  0.1149 -0.5495  0.4996
  813MOL0     N 9672   6.605   3.180   4.581 -0.0153 -0.0738 -0.8995
  813MOL0     C 9673   7.682   3.460   4.915  0.2361  0.2408 -1.0039
  813MOL0     C 9674   7.773   3.404   5.007 -0.1804  0.0632  0.1756
  813MOL0     C 9675   7.977   3.173   5.336 -0.3765  0.2641 -0.1902
  813MOL0     C 9676   8.055   3.054   5.324 -0.4756 -0.7749 -0.3916
  813MOL0     C 9677   8.134   3.009   5.433 -0.6281 -0.1756  0.0090
  813MOL0     C 9678   8.148   3.092   5.537 -1.1827  0.7037  0.5356
  813MOL0     O 9679   8.234   3.068   5.638  0.4732 -0.3085  0.6137
  813MOL0     C 9680   8.305   2.942   5.642 -0.4056  0.0214  0.6450
  813MOL0     C 9681   8.452   2.947   5.567  1.1654 -0.5277 -0.1737
  813MOL0     C 9682   8.545   3.039   5.647 -0.8528 -0.0697  0.4216
  813MOL0     C 9683   8.671   3.087   5.586 -0.4603 -0.4260  0.6902
  813MOL0     C 9684   8.765   3.138   5.686  0.1804 -0.0328 -0.9371
  813MOL0     C 9685   8.847   3.188   5.758 -0.1707 -0.0256  0.1913
  813MOL0     C 9686   8.069   3.205   5.557  0.1771 -0.1907 -0.0450
  813MOL0     C 9687   7.977   3.241   5.457 -1.0089 -0.8454 -0.3522
  813MOL0     H 9688   7.619   3.437   5.293  2.4923 -1.0602  0.3424
  813MOL0     H 9689   7.454   3.547   5.142 -1.7312 -3.1200 -0.3667
  813MOL0     H 9690   7.574   3.666   4.766 -0.3042  1.9168  0.7317
  813MOL0     H 9691   7.496   3.528   4.685 -0.4429  0.7761 -0.3895
  813MOL0     H 9692   7.343   3.765   4.769 -0.5721 -1.8262  2.0831
  813MOL0     H 9693   7.378   3.712   4.601 -1.7189 -0.5387 -0.0805
  813MOL0     H 9694   7.268   3.482   4.691  0.5243  0.4335 -0.5048
  813MOL0     H 9695   7.207   3.601   4.820  1.4210 -3.9673  1.7981
  813MOL0     H 9696   7.102   3.730   4.650  0.5316 -0.8195  0.2695
  813MOL0     H 9697   7.140   3.599   4.534  3.7405 -0.5566 -1.0448
  813MOL0     H 9698   7.002   3.441   4.658  0.7621 -0.1892 -0.0766
  813MOL0     H 9699   6.962   3.570   4.781 -1.3108  0.2350 -0.5455
  813MOL0     H 9700   6.844   3.702   4.586  0.3762  0.6162  2.8445
  813MOL0     H 9701   6.870   3.556   4.491 -1.0623 -1.1597 -0.2355
  813MOL0     H 9702   6.716   3.558   4.751  1.1548  0.1945 -0.1279
  813MOL0     H 9703   6.658   3.546   4.582  0.2364 -0.7914  0.1721
  813MOL0     H 9704   6.818   3.340   4.720 -0.0697  0.6984  0.7756
  813MOL0     H 9705   6.807   3.348   4.545  1.5323 -3.0887  1.6800
  813MOL0     H 9706   6.497   3.425   4.770 -0.7313 -0.5873  1.5425
  813MOL0     H 9707   6.238   3.137   4.663  3.0961  0.7131 -0.6776
  813MOL0     H 9708   6.291   3.158   4.830  0.2118 -0.6511  0.5979
  813MOL0     H 9709   6.255   3.399   4.821  0.0661 -1.5158  2.9049
  813MOL0     H 9710   6.101   3.303   4.794 -0.3602 -1.0104 -2.9824
  813MOL0     H 9711   6.116   3.326   4.560  1.5402 -0.4852  1.2493
  813MOL0     H 9712   6.269   3.422   4.572 -0.4872  0.3991 -0.8174
  813MOL0     H 9713   6.082   3.586   4.516 -0.6270  2.2473  0.4464
  813MOL0     H 9714   6.139   3.614   4.674 -0.3445 -0.0116 -0.5120
  813MOL0     H 9715   5.717   3.467   4.722 -2.1738 -1.9446 -0.0541
  813MOL0     H 9716   5.521   3.343   4.702 -0.5023 -0.4814  1.0259
  813MOL0     H 9717   5.412   3.471   4.623  0.2073 -0.5965 -1.7913
  813MOL0     H 9718   5.447   3.309   4.559  1.7270 -0.7317  0.2433
  813MOL0     H 9719   5.346   3.425   4.081  1.0568 -0.6717 -0.3136
  813MOL0     H 9720   5.158   3.321   3.965  1.9491 -0.8325 -0.3426
  813MOL0     H 9721   5.057   3.034   4.003  1.5417  1.0563  1.3517
  813MOL0     H 9722   4.940   2.985   4.122 -0.4343 -1.2391 -1.5708
  813MOL0     H 9723   4.874   3.131   3.856  0.5539 -0.8302 -0.0022
  813MOL0     H 9724   4.867   2.954   3.882 -2.5442  0.0298 -0.9000
  813MOL0     H 9725   4.714   3.130   4.079 -1.0007  0.6190 -1.1891
  813MOL0     H 9726   4.713   2.962   4.058 -1.3131 -2.0313 -1.9901
  813MOL0     H 9727   4.617   3.181   3.855  0.7102 -0.8265 -2.9604
  813MOL0     H 9728   4.622   3.001   3.816  1.1654 -0.5553  1.6834
  813MOL0     H 9729   4.465   2.962   3.985 -2.0930  0.8803  1.3400
  813MOL0     H 9730   4.385   3.081   3.874 -1.9892 -0.3121  1.3114
  813MOL0     H 9731   4.499   3.135   4.152  0.1587  1.8054  1.9268
  813MOL0     H 9732   4.463   3.261   4.044  1.9063 -0.0752  4.8248
  813MOL0     H 9733   4.243   3.060   4.124 -0.1109  0.2502  0.0960
  813MOL0     H 9734   4.219   3.211   4.024 -0.9551 -2.5363 -0.9981
  813MOL0     H 9735   4.308   3.179   4.317  0.9538 -0.3646 -0.0832
  813MOL0     H 9736   4.151   3.234   4.255 -0.7825  1.4247 -0.5166
  813MOL0     H 9737   4.977   3.243   4.346 -0.7287 -0.6075 -1.8877
  813MOL0     H 9738   5.190   3.319   4.454  0.9225  1.3402 -0.6529
  813MOL0     H 9739   5.781   3.439   4.232  0.2977 -1.0165 -0.3431
  813MOL0     H 9740   5.963   3.487   4.356  0.0219  0.9040 -0.7015
  813MOL0     H 9741   7.702   3.430   4.813 -0.1998  0.0882 -1.0455
  813MOL0     H 9742   7.862   3.360   4.964 -0.0701 -0.6988  1.1299
  813MOL0     H 9743   8.055   2.999   5.230 -0.7842 -0.7204 -0.4227
  813MOL0     H 9744   8.190   2.918   5.413 -0.0572  0.1703 -0.0087
  813MOL0     H 9745   8.298   2.913   5.748 -3.3770  1.9132  1.0788
  813MOL0     H 9746   8.254   2.858   5.594 -0.1824  0.8988 -1.1902
  813MOL0     H 9747   8.432   2.979   5.465  1.2346  2.3104  0.6360
  813MOL0     H 9748   8.488   2.844   5.579  0.6089 -0.5472  1.6200
  813MOL0     H 9749   8.573   2.988   5.739  1.8603  1.1630  0.3884
  813MOL0     H 9750   8.482   3.122   5.679  0.1918  1.5033 -1.3581
  813MOL0     H 9751   8.639   3.158   5.509 -1.9335 -1.8867 -0.0991
  813MOL0     H 9752   8.729   3.010   5.534  0.9722  0.0463  1.5135
  813MOL0     H 9753   8.926   3.229   5.818  0.9210  0.5217 -1.5377
  813MOL0     H 9754   8.078   3.264   5.647 -0.5699 -0.8499  0.4801
  813MOL0     H 9755   7.913   3.321   5.491  1.9926  1.7993 -0.4799
  814MOL0     O 9756   6.361   3.288   3.127  0.4929 -0.2203  0.3063
  814MOL0     C 9757   6.432   3.186   3.138  0.4373 -0.5907 -0.4858
  814MOL0     O 9758   6.395   3.069   3.203  0.1364  0.3956  0.1568
  814MOL0     C 9759   6.265   3.056   3.242 -0.2004 -0.7297 -0.1202
  814MOL0     C 9760   6.148   3.085   3.164 -0.0389  0.7455 -0.6013
  814MOL0     C 9761   6.022   3.068   3.217 -0.6000 -0.4324 -0.4985
  814MOL0     C 9762   6.009   2.996   3.334 -0.0523  0.2925  0.0224
  814MOL0     O 9763   5.878   2.979   3.373  0.2002 -0.6606  0.0478
  814MOL0     C 9764   5.848   2.938   3.502  0.7119  0.7735 -0.1943
  814MOL0     C 9765   5.701   2.916   3.533  0.9661 -0.4257  1.0481
  814MOL0     C 9766   5.634   2.810   3.440 -0.4859 -0.5545  0.1067
  814MOL0     C 9767   5.533   2.726   3.512  0.8880  0.9095  0.8758
  814MOL0     C 9768   5.596   2.652   3.629  0.4962 -0.0918  0.8173
  814MOL0     C 9769   5.508   2.525   3.650  0.0359 -0.1055 -0.1167
  814MOL0     C 9770   5.364   2.563   3.667  0.0655 -0.2835  0.8910
  814MOL0     C 9771   5.282   2.449   3.720  0.7084  0.0059  1.1876
  814MOL0     N 9772   5.147   2.491   3.751  1.0846 -0.6181  0.3136
  814MOL0     C 9773   5.119   2.572   3.859 -0.4831 -0.4706  0.4644
  814MOL0     C 9774   4.983   2.583   3.861 -0.7154 -0.4726 -0.2972
  814MOL0     C 9775   4.902   2.656   3.961 -0.5455  0.2121  0.1325
  814MOL0     C 9776   4.845   2.576   4.072 -0.4477 -0.5002 -0.9390
  814MOL0     C 9777   4.714   2.515   4.051  0.8331  0.0875 -0.8647
  814MOL0     C 9778   4.588   2.604   4.040 -0.9498 -0.0635 -0.6292
  814MOL0     O 9779   4.561   2.667   4.170  0.5652 -0.4567  0.4710
  814MOL0     C 9780   4.437   2.730   4.192  0.5410 -0.9523  0.4916
  814MOL0     C 9781   4.316   2.720   4.126 -0.6949  0.5408  0.4699
  814MOL0     C 9782   4.195   2.785   4.152 -0.4840 -0.2418 -0.3114
  814MOL0     C 9783   4.083   2.774   4.052  0.0966  0.6031  0.3515
  814MOL0     C 9784   4.183   2.855   4.280 -0.1676 -0.0673  0.1272
  814MOL0     C 9785   4.053   2.906   4.333 -0.2754 -0.3554  0.5187
  814MOL0     O 9786   3.939   2.833   4.319 -0.2052 -0.2000 -0.0495
  814MOL0     C 9787   3.822   2.908   4.316 -0.3301  0.2512  0.7414
  814MOL0     C 9788   3.744   2.915   4.198 -0.2593 -0.3382 -0.2936
  814MOL0     C 9789   3.620   2.976   4.198 -0.4344 -0.7441  0.0171
  814MOL0     C 9790   3.564   3.024   4.318  0.6750  0.8311 -0.4191
  814MOL0     O 9791   3.446   3.099   4.330 -0.0645  0.5165  0.0513
  814MOL0     C 9792   3.368   3.136   4.212  0.2152  0.3913  0.3948
  814MOL0     C 9793   3.230   3.179   4.255  0.3785 -0.6835  0.1867
  814MOL0     C 9794   3.137   3.237   4.151  0.2614  0.0510 -0.5373
  814MOL0     C 9795   3.125   3.122   4.039 -0.0041 -0.0313  0.4301
  814MOL0     C 9796   2.978   3.105   4.007  0.6100  0.4969 -0.0876
  814MOL0     C 9797   2.894   3.030   4.115  0.8610  0.4842 -0.6743
  814MOL0     C 9798   2.739   3.047   4.113 -0.0932 -1.5023  0.2755
  814MOL0     C 9799   2.675   2.953   4.211  0.3366  0.3550  0.3296
  814MOL0    Cl 9800   2.497   2.982   4.214  0.1992  0.3932 -0.0292
  814MOL0     C 9801   3.639   3.012   4.435  0.6998 -0.3860  0.7144
  814MOL0     C 9802   3.768   2.957   4.430 -0.2422  0.6988  0.1908
  814MOL0     O 9803   4.058   3.013   4.394 -0.1776 -0.2555 -0.1857
  814MOL0     C 9804   4.308   2.866   4.347 -0.0384 -1.6615 -0.1912
  814MOL0     C 9805   4.426   2.801   4.310  0.3487 -0.6335 -0.0174
  814MOL0     N 9806   4.940   2.508   3.752 -0.4269  0.4763  0.5856
  814MOL0     N 9807   5.036   2.455   3.691 -0.3116 -0.2224  0.2129
  814MOL0     C 9808   6.123   2.962   3.413 -0.2083  0.2381  0.5076
  814MOL0     C 9809   6.252   2.993   3.369  0.7350 -0.6745  0.1000
  814MOL0     C 9810   6.564   3.191   3.088  0.9823 -0.5443 -0.1770
  814MOL0     C 9811   6.641   3.082   3.110 -0.0482 -0.1198 -0.3839
  814MOL0     C 9812   6.783   3.109   3.086 -0.1836  0.2845 -0.0923
  814MOL0     C 9813   6.825   3.223   3.016  0.1074  0.6042 -1.1453
  814MOL0     O 9814   6.960   3.233   2.992  0.2422  0.4706 -0.5716
  814MOL0     C 9815   7.019   3.362   2.991  0.4950  0.4095  0.0701
  814MOL0     C 9816   7.157   3.356   3.055 -0.1650 -0.3417 -0.9813
  814MOL0     C 9817   7.155   3.284   3.186 -0.2928 -0.3098  0.2976
  814MOL0     C 9818   7.286   3.282   3.261 -0.1210 -0.7133 -0.2647
  814MOL0     C 9819   7.405   3.255   3.177 -1.0487 -0.2026  0.5340
  814MOL0     C 9820   7.506   3.233   3.108  0.5940 -0.6864 -0.1639
  814MOL0     C 9821   6.739   3.322   2.986  0.5859  0.1943 -0.3507
  814MOL0     C 9822   6.608   3.308   3.020 -0.2352 -0.2730  0.2277
  814MOL0     H 9823   6.164   3.125   3.065  3.7266 -0.8523 -0.7818
  814MOL0     H 9824   5.929   3.095   3.167 -0.3013  2.4549  0.3037
  814MOL0     H 9825   5.904   2.847   3.524 -0.1510  0.6990  1.8484
  814MOL0     H 9826   5.881   3.019   3.567  1.0319 -2.0945  3.5391
  814MOL0     H 9827   5.696   2.898   3.641 -1.3297  4.0400  1.9259
  814MOL0     H 9828   5.642   3.008   3.528 -0.8999 -1.5503  1.1983
  814MOL0     H 9829   5.580   2.869   3.365  0.1274  0.7573  0.6485
  814MOL0     H 9830   5.713   2.752   3.391 -0.3276  0.9086 -1.4637
  814MOL0     H 9831   5.448   2.788   3.543 -1.0450 -1.7100  1.1155
  814MOL0     H 9832   5.489   2.658   3.439 -0.1714  1.7071  0.7338
  814MOL0     H 9833   5.699   2.626   3.603  0.7117 -0.1126  1.6786
  814MOL0     H 9834   5.597   2.715   3.719  0.9078  1.3916 -0.1784
  814MOL0     H 9835   5.518   2.454   3.568  4.3468 -0.2440  0.2845
  814MOL0     H 9836   5.551   2.471   3.735  2.3042 -0.4824 -1.4123
  814MOL0     H 9837   5.349   2.657   3.721  2.7996 -0.4373  2.0670
  814MOL0     H 9838   5.321   2.591   3.570 -1.9068  2.6551  2.4554
  814MOL0     H 9839   5.332   2.405   3.807  0.0132 -3.1696  0.1278
  814MOL0     H 9840   5.273   2.365   3.651  0.7912  0.6870  0.3406
  814MOL0     H 9841   5.199   2.605   3.924  1.7538  1.6899 -3.0749
  814MOL0     H 9842   4.960   2.739   4.003 -1.3080  1.0941 -0.5290
  814MOL0     H 9843   4.822   2.709   3.909 -1.8016 -0.9903  0.7650
  814MOL0     H 9844   4.828   2.643   4.156 -1.3332  0.2548 -1.6989
  814MOL0     H 9845   4.906   2.495   4.113 -0.5065 -1.1256 -2.0267
  814MOL0     H 9846   4.695   2.443   4.132  0.3633 -1.1574 -2.0392
  814MOL0     H 9847   4.704   2.455   3.960 -0.9293 -0.0919 -0.5837
  814MOL0     H 9848   4.499   2.551   4.003  0.3547 -1.2715 -2.2104
  814MOL0     H 9849   4.615   2.683   3.970 -0.9029 -0.8782 -1.5550
  814MOL0     H 9850   4.332   2.666   4.034  0.8217 -3.3637  2.7748
  814MOL0     H 9851   3.988   2.728   4.081 -0.5439 -1.2859 -3.9089
  814MOL0     H 9852   4.058   2.876   4.023  3.2176  1.3729 -0.0415
  814MOL0     H 9853   4.109   2.726   3.957 -3.3362 -2.8178  0.8870
  814MOL0     H 9854   3.777   2.887   4.099 -2.3153  1.4453 -1.5769
  814MOL0     H 9855   3.576   2.986   4.099  2.7702  0.1561 -1.4344
  814MOL0     H 9856   3.422   3.211   4.153 -3.5973  1.3540 -2.2197
  814MOL0     H 9857   3.360   3.050   4.145 -0.9868 -0.6844  1.8693
  814MOL0     H 9858   3.181   3.087   4.289 -0.8842  0.3533  1.2675
  814MOL0     H 9859   3.237   3.237   4.348 -0.9879  1.9785 -1.2457
  814MOL0     H 9860   3.181   3.329   4.113  1.6821 -0.3134  0.1533
  814MOL0     H 9861   3.045   3.271   4.198  0.4783 -1.5612  1.2049
  814MOL0     H 9862   3.184   3.158   3.954 -0.7877  1.9749  0.6801
  814MOL0     H 9863   3.164   3.021   4.057  0.0665 -0.4480 -1.7087
  814MOL0     H 9864   2.979   3.056   3.910  0.5685  1.2900 -0.4929
  814MOL0     H 9865   2.925   3.197   3.980 -0.9261 -1.5098 -4.8181
  814MOL0     H 9866   2.931   2.927   4.117 -0.5757 -0.0662  2.0633
  814MOL0     H 9867   2.923   3.081   4.207  4.5827 -0.5956 -1.1164
  814MOL0     H 9868   2.701   3.020   4.014  1.6335  0.1304 -0.9058
  814MOL0     H 9869   2.709   3.150   4.135 -1.4223 -2.4868  3.8074
  814MOL0     H 9870   2.706   2.978   4.313 -1.3066  2.7560  0.3098
  814MOL0     H 9871   2.687   2.848   4.181 -0.7510 -0.1106  1.4290
  814MOL0     H 9872   3.601   3.045   4.531 -1.3221 -1.6979  0.4230
  814MOL0     H 9873   3.828   2.953   4.521  0.3329  0.5759 -0.1860
  814MOL0     H 9874   4.327   2.920   4.439  3.0441 -1.7258 -0.6782
  814MOL0     H 9875   4.512   2.821   4.374  2.1243  0.7457 -2.6272
  814MOL0     H 9876   6.115   2.911   3.509 -2.9914 -1.7383 -0.6327
  814MOL0     H 9877   6.345   2.966   3.419  1.5337  1.9555  0.1625
  814MOL0     H 9878   6.617   2.992   3.164 -3.1311 -0.1012 -1.5123
  814MOL0     H 9879   6.856   3.031   3.109 -1.0915 -0.1322  1.4929
  814MOL0     H 9880   7.029   3.389   2.886 -1.6775 -2.0959 -0.8900
  814MOL0     H 9881   6.956   3.439   3.036 -1.2511 -0.6851 -0.4163
  814MOL0     H 9882   7.200   3.456   3.065  1.3210 -0.9258 -1.2348
  814MOL0     H 9883   7.217   3.296   2.985 -0.5409  0.2379 -1.8152
  814MOL0     H 9884   7.123   3.181   3.170  2.8823 -1.3738  0.0734
  814MOL0     H 9885   7.076   3.330   3.246  0.1439  0.6399  0.1732
  814MOL0     H 9886   7.272   3.206   3.338 -2.9593  0.1409  0.1722
  814MOL0     H 9887   7.316   3.378   3.305  2.8131 -0.7222 -1.9542
  814MOL0     H 9888   7.586   3.207   3.043  0.6500  2.5502 -1.5918
  814MOL0     H 9889   6.783   3.393   2.918  1.1570 -0.8917 -1.1497
  814MOL0     H 9890   6.535   3.382   2.992 -0.5725 -0.8139 -0.3467
  815MOL0     O 9891   5.067   2.021   6.913  0.3952 -0.1891  0.5905
  815MOL0     C 9892   5.094   2.088   7.016 -0.3847 -0.4322 -0.5615
  815MOL0     O 9893   4.995   2.155   7.082  0.4355 -0.4005 -0.4859
  815MOL0     C 9894   4.866   2.160   7.033  0.3315 -0.2822 -1.1131
  815MOL0     C 9895   4.765   2.095   7.090  0.3497 -0.3754 -1.1152
  815MOL0     C 9896   4.628   2.109   7.053 -0.8653 -0.5941  0.5689
  815MOL0     C 9897   4.597   2.182   6.932 -0.9877 -0.4682  0.2531
  815MOL0     O 9898   4.482   2.206   6.877  0.1227 -0.1042  0.6154
  815MOL0     C 9899   4.376   2.116   6.881  0.0556 -0.0381 -0.2967
  815MOL0     C 9900   4.288   2.117   6.996 -0.0605 -0.1556 -0.2753
  815MOL0     C 9901   4.283   2.246   7.082  0.0909 -0.0265  0.3501
  815MOL0     C 9902   4.181   2.355   7.027  0.0398 -0.0832  0.5281
  815MOL0     C 9903   4.036   2.308   7.017  0.4402  0.4150 -1.1360
  815MOL0     C 9904   3.939   2.428   7.009 -0.1835  0.9175 -0.3224
  815MOL0     C 9905   3.934   2.509   7.138 -0.5505 -0.4951  0.5982
  815MOL0     C 9906   3.800   2.580   7.138 -0.3404  0.8485 -0.1527
  815MOL0     N 9907   3.783   2.675   7.245 -0.3036  0.1029  0.2997
  815MOL0     C 9908   3.828   2.660   7.375  0.3518  0.1243  0.2623
  815MOL0     C 9909   3.780   2.774   7.432 -0.2944  0.4912 -0.1156
  815MOL0     C 9910   3.783   2.804   7.586  0.6318 -0.1231  0.0954
  815MOL0     C 9911   3.678   2.728   7.664 -0.3820  0.7202 -0.8563
  815MOL0     C 9912   3.533   2.751   7.610 -0.1399 -0.8862 -0.5726
  815MOL0     C 9913   3.409   2.687   7.688 -0.1418 -0.6732  1.1191
  815MOL0     O 9914   3.412   2.743   7.815  0.0605 -0.2699  0.4773
  815MOL0     C 9915   3.301   2.714   7.892 -0.1966  0.3142  0.4376
  815MOL0     C 9916   3.301   2.608   7.977 -0.5454  0.6937 -0.2148
  815MOL0     C 9917   3.184   2.584   8.059 -0.7653  0.2143  0.2585
  815MOL0     C 9918   3.207   2.470   8.163 -2.1380 -0.1515  0.6689
  815MOL0     C 9919   3.062   2.663   8.042 -1.0756  0.2154 -0.5144
  815MOL0     C 9920   2.932   2.639   8.112 -0.4342 -0.4909  1.0579
  815MOL0     O 9921   2.841   2.745   8.105 -0.0839 -0.1001 -0.1424
  815MOL0     C 9922   2.723   2.755   8.173  0.3270  0.3781  0.0486
  815MOL0     C 9923   2.674   2.876   8.214 -0.5081  0.6653 -0.6113
  815MOL0     C 9924   2.559   2.882   8.300  0.0901 -0.4675 -0.4601
  815MOL0     C 9925   2.480   2.766   8.335 -0.6961 -0.1004  0.3567
  815MOL0     O 9926   2.366   2.781   8.408 -0.4325  0.3032 -0.3059
  815MOL0     C 9927   2.328   2.664   8.488 -0.7177 -1.6637  0.1980
  815MOL0     C 9928   2.204   2.615   8.419  0.2203  0.2911 -0.5667
  815MOL0     C 9929   2.067   2.685   8.446 -0.6408 -0.4244 -0.1069
  815MOL0     C 9930   2.008   2.636   8.581 -0.3410  0.8471  0.0265
  815MOL0     C 9931   1.892   2.722   8.624  0.0168  0.1721 -0.5467
  815MOL0     C 9932   1.818   2.662   8.745  0.7884 -0.1896 -0.8982
  815MOL0     C 9933   1.721   2.746   8.820  0.5052 -0.3811 -0.5645
  815MOL0     C 9934   1.609   2.811   8.730  0.2916  0.2317 -0.0105
  815MOL0    Cl 9935   1.487   2.864   8.854 -0.1507  0.1642  0.3388
  815MOL0     C 9936   2.529   2.646   8.284  0.2823  0.7460  0.3534
  815MOL0     C 9937   2.650   2.643   8.207  0.0674 -0.4612  0.8027
  815MOL0     O 9938   2.912   2.523   8.154  0.2070 -0.8722 -0.1379
  815MOL0     C 9939   3.072   2.765   7.949  0.2354 -0.2910  0.4827
  815MOL0     C 9940   3.185   2.796   7.880 -0.5642  0.7671 -0.2845
  815MOL0     N 9941   3.718   2.851   7.339 -1.9353  0.3528 -1.0637
  815MOL0     N 9942   3.734   2.799   7.229 -0.6185  0.8410  0.6655
  815MOL0     C 9943   4.699   2.233   6.864 -0.1621 -0.7134 -0.4561
  815MOL0     C 9944   4.833   2.230   6.913  0.2630  0.0194  0.3321
  815MOL0     C 9945   5.239   2.103   7.051 -0.5668 -0.2203  0.5032
  815MOL0     C 9946   5.342   2.039   6.975  0.6346  0.1974 -0.0283
  815MOL0     C 9947   5.472   2.079   7.010  0.4602  0.0161  0.1791
  815MOL0     C 9948   5.504   2.166   7.115 -0.2418 -0.5897  0.0952
  815MOL0     O 9949   5.637   2.176   7.130 -0.3068  0.0320  0.1798
  815MOL0     C 9950   5.702   2.252   7.226  0.4528 -1.3132 -0.4736
  815MOL0     C 9951   5.843   2.209   7.273  0.2803  0.7821 -0.9843
  815MOL0     C 9952   5.945   2.227   7.162  0.6683  0.3206  0.1356
  815MOL0     C 9953   6.092   2.215   7.197 -0.2012 -0.5401  0.1659
  815MOL0     C 9954   6.127   2.078   7.240  0.2580  0.0119 -0.8173
  815MOL0     C 9955   6.150   1.968   7.286 -0.2140  0.9758 -1.0017
  815MOL0     C 9956   5.404   2.224   7.188  0.1732  0.2645 -0.5539
  815MOL0     C 9957   5.275   2.197   7.145 -0.3970 -0.1652 -0.1805
  815MOL0     H 9958   4.800   2.026   7.166  2.2584 -0.3088 -1.8772
  815MOL0     H 9959   4.557   2.034   7.086  0.0375 -1.5096  0.4823
  815MOL0     H 9960   4.312   2.142   6.796  2.1869  2.3647 -1.2965
  815MOL0     H 9961   4.407   2.012   6.865 -0.1979  0.0127 -1.1894
  815MOL0     H 9962   4.187   2.088   6.964 -1.0926  0.5489  2.1305
  815MOL0     H 9963   4.320   2.038   7.065  1.9113  0.9723  0.1808
  815MOL0     H 9964   4.262   2.227   7.188 -0.6280 -1.3412  0.0061
  815MOL0     H 9965   4.383   2.290   7.084  2.2176 -4.1351 -1.7588
  815MOL0     H 9966   4.179   2.437   7.099  0.0752  0.6810 -0.3284
  815MOL0     H 9967   4.216   2.394   6.931 -1.3266 -1.9865 -0.8215
  815MOL0     H 9968   4.022   2.234   6.937 -3.0868 -1.2811  0.8048
  815MOL0     H 9969   4.008   2.264   7.113  1.3731  0.4134 -0.8580
  815MOL0     H 9970   3.955   2.497   6.925  2.9820  0.0709 -0.5346
  815MOL0     H 9971   3.837   2.391   6.992 -0.1629 -1.1225  3.1912
  815MOL0     H 9972   3.932   2.451   7.230 -0.1911  0.5365  1.2747
  815MOL0     H 9973   4.018   2.579   7.128 -0.6418 -0.1823  1.8468
  815MOL0     H 9974   3.721   2.505   7.136  0.0689  0.4168 -0.1025
  815MOL0     H 9975   3.789   2.645   7.050 -2.7556 -0.6143 -1.0360
  815MOL0     H 9976   3.890   2.582   7.418 -2.4669 -1.6273  1.4386
  815MOL0     H 9977   3.880   2.784   7.632 -0.2691 -2.3469  1.1737
  815MOL0     H 9978   3.773   2.912   7.599 -0.6873 -0.5667  4.3653
  815MOL0     H 9979   3.685   2.766   7.766 -1.1395 -3.0988  0.7914
  815MOL0     H 9980   3.710   2.624   7.677  3.7337  1.9224  0.0557
  815MOL0     H 9981   3.530   2.726   7.503 -1.2186  0.1604 -0.8073
  815MOL0     H 9982   3.520   2.860   7.615 -0.0133 -0.7626 -2.3275
  815MOL0     H 9983   3.411   2.579   7.700 -0.3060 -0.7276  0.6861
  815MOL0     H 9984   3.323   2.724   7.629  0.3472  2.0657  1.9679
  815MOL0     H 9985   3.378   2.530   7.975 -0.0559  1.1806 -2.7909
  815MOL0     H 9986   3.144   2.480   8.253 -0.6613  0.1981  1.7134
  815MOL0     H 9987   3.196   2.373   8.116 -0.5700  0.7301 -1.6450
  815MOL0     H 9988   3.309   2.483   8.199 -0.1495 -2.6908 -3.3786
  815MOL0     H 9989   2.727   2.968   8.193  0.4590 -0.0657 -1.5047
  815MOL0     H 9990   2.523   2.977   8.340  3.0082  1.3403 -1.7886
  815MOL0     H 9991   2.411   2.593   8.495  2.9407  1.9714 -1.4846
  815MOL0     H 9992   2.290   2.701   8.583  0.2058 -2.3407  0.8447
  815MOL0     H 9993   2.221   2.613   8.311  0.4353 -3.4756 -0.5915
  815MOL0     H 9994   2.185   2.510   8.442 -1.5121  0.0413 -2.7441
  815MOL0     H 9995   1.995   2.666   8.366 -2.2577  0.9245  0.9474
  815MOL0     H 9996   2.079   2.794   8.452 -1.8555 -0.1316 -2.2110
  815MOL0     H 9997   1.965   2.536   8.571  0.1982  0.5902  0.2324
  815MOL0     H 9998   2.079   2.631   8.664 -1.8038  0.2292  1.2859
  815MOL0     H 9999   1.820   2.748   8.545 -0.1662 -0.6588 -0.6593
  815MOL0     H10000   1.949   2.810   8.656  1.3478 -0.1114 -2.0206
  815MOL0     H10001   1.756   2.588   8.693 -1.1778 -0.0422  1.0803
  815MOL0     H10002   1.895   2.609   8.802  1.5541  0.5404 -1.2440
  815MOL0     H10003   1.784   2.826   8.859 -1.8729  0.4675  1.8218
  815MOL0     H10004   1.676   2.688   8.901 -0.2840 -0.2467 -0.9059
  815MOL0     H10005   1.571   2.744   8.653  1.3483  0.6943 -0.9670
  815MOL0     H10006   1.642   2.901   8.676 -1.8730  1.8230  1.1725
  815MOL0     H10007   2.488   2.548   8.305  1.4575  0.4587  1.4479
  815MOL0     H10008   2.685   2.545   8.177  5.2213  1.5252 -0.8412
  815MOL0     H10009   2.988   2.831   7.934 -1.6852 -2.6108  0.3991
  815MOL0     H10010   3.177   2.877   7.808  2.9540  0.5000 -1.1291
  815MOL0     H10011   4.696   2.281   6.766  1.8216 -1.0896 -0.7568
  815MOL0     H10012   4.921   2.259   6.857 -0.8636  0.0634 -1.4762
  815MOL0     H10013   5.320   1.976   6.889  0.9637 -0.4328  0.3443
  815MOL0     H10014   5.558   2.033   6.961  0.4879  1.5445 -1.3122
  815MOL0     H10015   5.702   2.357   7.196  0.8282 -0.6232  1.7072
  815MOL0     H10016   5.637   2.248   7.314 -0.1690 -0.6732 -0.8886
  815MOL0     H10017   5.839   2.100   7.286  3.3574  0.4314 -2.0805
  815MOL0     H10018   5.889   2.262   7.357  1.2023 -1.2410 -0.1309
  815MOL0     H10019   5.925   2.326   7.121 -0.6840 -0.0243 -0.0704
  815MOL0     H10020   5.926   2.170   7.071 -1.0840  1.2081 -0.0904
  815MOL0     H10021   6.113   2.285   7.279  1.3916  0.9053 -1.4136
  815MOL0     H10022   6.140   2.252   7.106 -2.1208 -3.5699 -2.2455
  815MOL0     H10023   6.164   1.868   7.322  0.3104  1.3207 -0.2265
  815MOL0     H10024   5.427   2.287   7.274 -2.1402  0.9067 -0.3392
  815MOL0     H10025   5.201   2.254   7.200  0.7983  3.7549 -2.2569
  816MOL0     O10026   3.817   6.986   1.830  0.0220 -0.2851  0.2803
  816MOL0     C10027   3.739   7.003   1.920  0.0269  0.8889 -0.0672
  816MOL0     O10028   3.614   6.936   1.932  0.0820  0.2258  0.2551
  816MOL0     C10029   3.553   6.875   1.825  0.7829  0.4560  0.4296
  816MOL0     C10030   3.571   6.899   1.688  0.5608 -0.3585 -0.6077
  816MOL0     C10031   3.493   6.839   1.597  0.8305  0.3559  1.2785
  816MOL0     C10032   3.401   6.741   1.628 -0.1888 -0.6107  0.4106
  816MOL0     O10033   3.337   6.672   1.530 -0.1879 -0.2395  0.1382
  816MOL0     C10034   3.243   6.754   1.458  0.6537  0.1101  0.3992
  816MOL0     C10035   3.127   6.655   1.425  0.5600 -0.4247 -0.2609
  816MOL0     C10036   3.021   6.742   1.362  0.8344 -0.4760  0.7826
  816MOL0     C10037   2.898   6.660   1.294  0.2336 -0.2028 -0.1190
  816MOL0     C10038   2.782   6.763   1.245 -0.5477  0.5048 -0.5230
  816MOL0     C10039   2.831   6.855   1.124  0.2878  0.1981 -0.2877
  816MOL0     C10040   2.859   6.787   0.983  0.0502  0.8654  0.5475
  816MOL0     C10041   2.738   6.788   0.889  0.3894  0.2375  0.3885
  816MOL0     N10042   2.600   6.754   0.942  0.6252  0.7875 -0.2796
  816MOL0     C10043   2.549   6.622   0.944 -0.6829  1.0405 -0.7517
  816MOL0     C10044   2.437   6.630   1.022 -0.2610 -0.4211 -0.4132
  816MOL0     C10045   2.345   6.521   1.070 -0.2672 -0.0851 -0.7865
  816MOL0     C10046   2.269   6.434   0.959 -0.6385 -0.7635 -1.3481
  816MOL0     C10047   2.180   6.516   0.869  0.7174 -0.9032  0.2590
  816MOL0     C10048   2.057   6.568   0.938  0.4062  0.9187 -0.3970
  816MOL0     O10049   1.980   6.457   0.978 -0.9167 -0.0294  0.2322
  816MOL0     C10050   1.869   6.488   1.044  0.3317  0.4508 -0.7293
  816MOL0     C10051   1.838   6.401   1.148 -1.0912  0.2423 -0.8033
  816MOL0     C10052   1.721   6.424   1.231  0.0260 -0.0788  0.1175
  816MOL0     C10053   1.677   6.312   1.334 -0.1994 -0.9312 -0.0740
  816MOL0     C10054   1.640   6.539   1.203  0.0390  0.1937  0.1751
  816MOL0     C10055   1.533   6.574   1.292 -0.1203  0.0305 -0.9027
  816MOL0     O10056   1.438   6.487   1.299 -0.0438  1.0649 -0.6125
  816MOL0     C10057   1.319   6.512   1.373  0.1479 -1.1795  0.0899
  816MOL0     C10058   1.227   6.619   1.344  0.6535  1.1045 -0.9756
  816MOL0     C10059   1.124   6.638   1.436  0.0206 -0.4723 -0.5256
  816MOL0     C10060   1.087   6.546   1.536 -0.3972  0.1063  0.5847
  816MOL0     O10061   0.976   6.567   1.618  0.7396 -0.2431  0.4130
  816MOL0     C10062   0.889   6.454   1.617 -0.5502 -0.1926  0.0567
  816MOL0     C10063   0.779   6.469   1.721  0.5394  0.6604 -0.4468
  816MOL0     C10064   0.670   6.576   1.674 -0.8534  0.1568  0.6432
  816MOL0     C10065   0.564   6.604   1.783  0.1977 -0.8805 -0.2386
  816MOL0     C10066   0.453   6.691   1.714 -0.0608  0.7667  0.3901
  816MOL0     C10067   0.356   6.709   1.826 -0.7852 -0.0618 -0.8040
  816MOL0     C10068   0.219   6.745   1.764  0.5862 -0.5538  0.4612
  816MOL0     C10069   0.124   6.797   1.878 -0.0388 -0.1891 -0.2203
  816MOL0    Cl10070   0.046   6.666   1.976  0.0323 -0.1217 -0.0460
  816MOL0     C10071   1.176   6.437   1.558 -0.2828  0.2145 -0.6203
  816MOL0     C10072   1.292   6.425   1.482 -0.4377  0.9054  0.6513
  816MOL0     O10073   1.537   6.684   1.350  0.2773 -0.0450 -0.2627
  816MOL0     C10074   1.673   6.625   1.095  0.8919  0.2311  0.3038
  816MOL0     C10075   1.782   6.601   1.015 -0.1248  0.7747  0.4193
  816MOL0     N10076   2.417   6.767   1.052 -0.1586  0.1952 -0.1095
  816MOL0     N10077   2.518   6.831   1.012  0.5720 -0.1319 -0.0652
  816MOL0     C10078   3.388   6.710   1.761  0.1290 -0.4881 -0.1888
  816MOL0     C10079   3.460   6.773   1.869  0.1596 -0.9169  0.5303
  816MOL0     C10080   3.775   7.093   2.035 -0.3714 -0.5570  0.0361
  816MOL0     C10081   3.877   7.188   2.019 -0.4373 -0.8045 -0.3194
  816MOL0     C10082   3.911   7.272   2.123 -0.7036  0.0028  0.4014
  816MOL0     C10083   3.852   7.271   2.245  0.5222  0.0095 -0.4493
  816MOL0     O10084   3.882   7.367   2.332 -0.1772 -0.2343  0.0766
  816MOL0     C10085   3.851   7.358   2.470  0.0525  0.4751  0.5959
  816MOL0     C10086   3.974   7.391   2.551  0.5259 -0.3955 -0.2011
  816MOL0     C10087   3.944   7.460   2.693 -0.7424 -0.5403  1.3062
  816MOL0     C10088   3.899   7.606   2.664 -0.9419  0.4754  0.2261
  816MOL0     C10089   3.837   7.674   2.781 -0.0232  0.5959 -1.2032
  816MOL0     C10090   3.776   7.732   2.870 -0.1581  0.3297  0.7113
  816MOL0     C10091   3.753   7.175   2.254 -0.0236 -0.2731  0.3081
  816MOL0     C10092   3.715   7.090   2.156 -0.1743  0.0676 -0.4391
  816MOL0     H10093   3.636   6.982   1.662 -0.9230  0.9243 -0.3188
  816MOL0     H10094   3.499   6.880   1.496  0.2890 -1.3283  0.5343
  816MOL0     H10095   3.204   6.837   1.517 -1.5302 -1.3203  1.0977
  816MOL0     H10096   3.298   6.785   1.369 -0.8966 -2.7414 -1.7052
  816MOL0     H10097   3.165   6.578   1.359 -1.7674 -1.4659 -0.4945
  816MOL0     H10098   3.089   6.613   1.519 -0.2335 -0.6748 -0.6886
  816MOL0     H10099   2.986   6.817   1.434 -1.4938 -1.2824  0.5641
  816MOL0     H10100   3.070   6.791   1.277  0.4475  0.3783  1.0388
  816MOL0     H10101   2.929   6.594   1.213  1.5414  1.8106 -1.3612
  816MOL0     H10102   2.850   6.589   1.362 -1.5518 -0.3050 -1.4124
  816MOL0     H10103   2.701   6.699   1.210 -1.6658  1.1418  0.8153
  816MOL0     H10104   2.741   6.827   1.324 -3.3985 -0.2983 -1.2300
  816MOL0     H10105   2.751   6.928   1.108  3.1263  3.2136 -2.0126
  816MOL0     H10106   2.923   6.911   1.146  1.3141 -1.8655  1.0526
  816MOL0     H10107   2.943   6.831   0.928  1.5021 -0.0090  1.9667
  816MOL0     H10108   2.886   6.683   1.004 -1.0546  0.8190  1.8634
  816MOL0     H10109   2.761   6.728   0.801 -1.9933 -1.2983  0.7208
  816MOL0     H10110   2.729   6.893   0.858 -2.5349 -0.6002 -2.0498
  816MOL0     H10111   2.599   6.538   0.897  0.1272 -0.0706  1.9409
  816MOL0     H10112   2.407   6.456   1.134  0.4616  0.4580 -0.9287
  816MOL0     H10113   2.273   6.577   1.130  0.7637  1.2756 -0.7790
  816MOL0     H10114   2.210   6.358   1.012 -0.9704 -2.0985 -3.5052
  816MOL0     H10115   2.348   6.379   0.908  2.9862  2.1577  0.5763
  816MOL0     H10116   2.165   6.469   0.771 -0.3780  3.6208 -2.0256
  816MOL0     H10117   2.242   6.603   0.844  2.4166 -1.7161  1.4915
  816MOL0     H10118   2.004   6.633   0.868 -0.0324  1.0239  0.0227
  816MOL0     H10119   2.087   6.624   1.027 -0.6633  2.8265 -1.1667
  816MOL0     H10120   1.901   6.315   1.169 -4.0184 -1.3761  2.3770
  816MOL0     H10121   1.652   6.366   1.426  0.4499 -2.1253  0.8397
  816MOL0     H10122   1.595   6.251   1.295 -0.4667  2.3357 -5.5871
  816MOL0     H10123   1.767   6.258   1.364  1.3265  2.2576  1.6034
  816MOL0     H10124   1.250   6.690   1.265  1.3736  2.7812  0.6788
  816MOL0     H10125   1.054   6.720   1.423 -0.0419  0.2428  3.3640
  816MOL0     H10126   0.840   6.449   1.519 -2.4414  1.2658  0.8747
  816MOL0     H10127   0.948   6.364   1.637  0.8966  0.1772 -2.1685
  816MOL0     H10128   0.732   6.372   1.737 -0.1160  1.2274  1.2771
  816MOL0     H10129   0.813   6.502   1.820 -3.4413 -0.0984  1.3629
  816MOL0     H10130   0.620   6.548   1.580  0.3318  1.4819 -0.4269
  816MOL0     H10131   0.724   6.670   1.665  0.2953 -0.4720  0.7989
  816MOL0     H10132   0.523   6.510   1.822 -2.2024 -0.2927 -1.1854
  816MOL0     H10133   0.601   6.665   1.866  1.1713 -0.9920 -0.5731
  816MOL0     H10134   0.409   6.642   1.626  0.0356 -2.2872  1.8982
  816MOL0     H10135   0.490   6.790   1.685  1.1181 -0.0996 -1.2123
  816MOL0     H10136   0.351   6.612   1.876  0.4877 -1.2264 -2.8255
  816MOL0     H10137   0.394   6.780   1.900 -2.9812 -1.9122  2.3390
  816MOL0     H10138   0.163   6.666   1.714 -0.5980 -0.1789  1.1611
  816MOL0     H10139   0.243   6.824   1.693 -2.2617  1.4232  1.5415
  816MOL0     H10140   0.047   6.852   1.821 -0.2417  2.6506  2.4823
  816MOL0     H10141   0.196   6.856   1.935  2.1569 -2.6708 -0.2575
  816MOL0     H10142   1.145   6.365   1.634 -2.0510  0.7062 -0.8259
  816MOL0     H10143   1.373   6.354   1.497 -1.9372 -1.7412 -2.4058
  816MOL0     H10144   1.607   6.708   1.072  1.2963  0.3369 -0.5199
  816MOL0     H10145   1.794   6.666   0.929  1.6578 -0.6621 -0.4746
  816MOL0     H10146   3.310   6.638   1.785 -1.3488  1.0577 -0.1827
  816MOL0     H10147   3.434   6.744   1.971 -1.9241 -0.1968  0.2534
  816MOL0     H10148   3.924   7.206   1.923  1.0544  2.7780  0.9264
  816MOL0     H10149   3.970   7.361   2.105  0.6773 -1.2714 -1.8897
  816MOL0     H10150   3.770   7.431   2.481  0.7271  1.2459  0.4858
  816MOL0     H10151   3.808   7.260   2.496  4.4657 -1.5010  1.4492
  816MOL0     H10152   4.044   7.444   2.486  2.1923 -3.8376 -1.4772
  816MOL0     H10153   4.037   7.302   2.561  1.3048  0.0576 -1.0263
  816MOL0     H10154   4.035   7.462   2.754  0.7843  0.5369 -0.9050
  816MOL0     H10155   3.874   7.398   2.751 -2.1860 -0.8421 -0.6502
  816MOL0     H10156   3.829   7.600   2.580 -0.0105 -1.8667 -0.4533
  816MOL0     H10157   3.988   7.661   2.632  0.4171 -1.9914 -0.4702
  816MOL0     H10158   3.723   7.786   2.946 -2.1154 -1.9898  1.1152
  816MOL0     H10159   3.691   7.155   2.341 -1.9152  1.5087 -0.5485
  816MOL0     H10160   3.633   7.019   2.170 -0.5516  0.4840 -0.4945
  817MOL0     O10161   1.771   7.860   8.158 -0.1982 -0.2337 -0.4017
  817MOL0     C10162   1.822   7.754   8.132 -0.0507  1.1211  0.2253
  817MOL0     O10163   1.761   7.635   8.103  0.2185 -0.1528 -0.5209
  817MOL0     C10164   1.630   7.654   8.071  0.3872 -0.8318 -0.2474
  817MOL0     C10165   1.528   7.635   8.169 -0.9760 -0.3217  0.3146
  817MOL0     C10166   1.394   7.648   8.150  0.0497  0.6210  0.5849
  817MOL0     C10167   1.350   7.694   8.022  0.0427  0.2130 -0.9615
  817MOL0     O10168   1.219   7.695   7.988 -0.6127  0.6142  0.1334
  817MOL0     C10169   1.159   7.822   7.999  1.3322 -0.2717 -0.2904
  817MOL0     C10170   1.014   7.804   8.052 -0.4499 -0.3943  0.1329
  817MOL0     C10171   0.935   7.933   8.058  0.7694  0.5618  0.0569
  817MOL0     C10172   0.800   7.900   8.123  0.8365 -0.1713 -0.2663
  817MOL0     C10173   0.710   8.021   8.088 -0.2884  0.0347 -1.0928
  817MOL0     C10174   0.575   8.004   8.151 -0.1214 -0.7032  0.3174
  817MOL0     C10175   0.568   8.008   8.301  0.3473 -0.5717  0.3546
  817MOL0     C10176   0.477   8.119   8.365  0.0170  0.7022  0.0175
  817MOL0     N10177   0.334   8.079   8.360 -0.0741 -0.3978  0.4785
  817MOL0     C10178   0.256   8.077   8.247  0.6463 -0.3477  1.0028
  817MOL0     C10179   0.147   7.999   8.284 -0.1518 -0.2020 -0.3746
  817MOL0     C10180   0.051   7.939   8.184  0.0401  0.2201 -0.4466
  817MOL0     C10181  -0.088   7.884   8.244  0.3342 -0.2235 -0.1460
  817MOL0     C10182  -0.165   7.976   8.341 -0.2753  0.0220  0.1287
  817MOL0     C10183  -0.291   7.918   8.401  0.8660 -0.1546 -0.0069
  817MOL0     O10184  -0.388   7.876   8.296  0.7833 -0.6023  0.1622
  817MOL0     C10185  -0.521   7.919   8.284  0.3511  0.0851  0.0669
  817MOL0     C10186  -0.582   8.006   8.367 -0.0064 -0.4695 -0.5685
  817MOL0     C10187  -0.713   8.035   8.357  0.5590  0.6119  0.6864
  817MOL0     C10188  -0.774   8.128   8.451  0.7665  0.7774  0.1802
  817MOL0     C10189  -0.796   7.973   8.262 -0.4668  0.2538  0.7581
  817MOL0     C10190  -0.937   8.001   8.227 -0.9914  0.6455 -0.2128
  817MOL0     O10191  -0.993   7.905   8.156  1.1722  0.3507 -0.0612
  817MOL0     C10192  -1.130   7.892   8.132  0.6374 -0.2442 -1.2590
  817MOL0     C10193  -1.171   7.775   8.066  0.0326 -0.3314 -0.2426
  817MOL0     C10194  -1.303   7.743   8.040 -0.1203  0.4321  0.1019
  817MOL0     C10195  -1.407   7.820   8.092  0.3348 -0.2386 -0.3715
  817MOL0     O10196  -1.529   7.773   8.065  0.6376 -0.0818  0.0290
  817MOL0     C10197  -1.640   7.854   8.096  0.5556 -0.7567  0.8272
  817MOL0     C10198  -1.767   7.793   8.035 -0.1779  0.3265  0.9670
  817MOL0     C10199  -1.898   7.850   8.091  0.2931 -0.3122  0.8787
  817MOL0     C10200  -2.023   7.798   8.031  0.2682  0.0830  0.0982
  817MOL0     C10201  -2.145   7.823   8.121 -0.3409 -0.7707  0.5560
  817MOL0     C10202  -2.261   7.723   8.082 -0.2985 -0.3632 -0.3913
  817MOL0     C10203  -2.239   7.594   8.164  0.7854 -0.0320  0.4043
  817MOL0     C10204  -2.348   7.494   8.164  0.3525 -0.9225  0.2922
  817MOL0    Cl10205  -2.494   7.548   8.250 -0.1644  0.1758  0.5368
  817MOL0     C10206  -1.378   7.947   8.166 -0.6450  1.1087  0.0849
  817MOL0     C10207  -1.238   7.969   8.186 -1.0562 -0.2761 -0.3198
  817MOL0     O10208  -0.992   8.095   8.269  0.2850 -0.2428  0.5328
  817MOL0     C10209  -0.732   7.886   8.169 -0.5433  0.1887 -0.5928
  817MOL0     C10210  -0.591   7.854   8.184  0.7369 -0.5163 -0.0048
  817MOL0     N10211   0.168   7.958   8.408  1.1675 -0.7234 -0.6959
  817MOL0     N10212   0.276   8.015   8.457  0.5565  0.1365  0.1777
  817MOL0     C10213   1.441   7.711   7.917  0.3087 -0.7213 -0.6029
  817MOL0     C10214   1.585   7.701   7.945  0.8742  0.5235 -0.1108
  817MOL0     C10215   1.973   7.751   8.154  0.3177  0.1329  0.3571
  817MOL0     C10216   2.027   7.625   8.172 -0.4112 -0.0838 -0.2938
  817MOL0     C10217   2.162   7.619   8.204 -0.0889  0.7116 -0.4795
  817MOL0     C10218   2.243   7.728   8.220  0.0962 -0.1268 -0.0427
  817MOL0     O10219   2.373   7.726   8.265  0.6873  0.4722 -0.2358
  817MOL0     C10220   2.425   7.616   8.346 -0.4343  0.8291  0.0378
  817MOL0     C10221   2.492   7.512   8.259 -0.0420  0.1643  0.6840
  817MOL0     C10222   2.626   7.464   8.324  0.6122 -0.4480 -0.1406
  817MOL0     C10223   2.698   7.363   8.228  0.3400 -0.3975 -0.6843
  817MOL0     C10224   2.828   7.339   8.282  0.3796  0.5996 -0.0442
  817MOL0     C10225   2.935   7.323   8.327  0.0562 -0.6488 -0.3148
  817MOL0     C10226   2.190   7.851   8.184  0.2207  0.2002  0.9820
  817MOL0     C10227   2.052   7.863   8.161 -0.1376 -0.3714 -0.3834
  817MOL0     H10228   1.573   7.600   8.262  1.1471 -1.3612 -1.0075
  817MOL0     H10229   1.321   7.637   8.230  0.2020  1.1649  0.8049
  817MOL0     H10230   1.203   7.894   8.068 -0.8113 -0.1298  1.0166
  817MOL0     H10231   1.158   7.869   7.900 -0.5839 -0.3822 -0.3449
  817MOL0     H10232   0.966   7.741   7.976 -0.0533 -0.2078 -0.2830
  817MOL0     H10233   1.014   7.745   8.144  0.8265 -1.6942 -0.6548
  817MOL0     H10234   0.983   8.008   8.122 -0.0963  2.7048 -1.6887
  817MOL0     H10235   0.925   7.986   7.963 -0.8419  0.5218  0.1837
  817MOL0     H10236   0.755   7.813   8.075  0.7469  1.0626 -2.5827
  817MOL0     H10237   0.812   7.881   8.230 -0.4581  0.7498  0.0592
  817MOL0     H10238   0.762   8.108   8.128 -0.2236 -0.6468  0.3844
  817MOL0     H10239   0.699   8.034   7.980  4.6438 -0.8346 -1.9441
  817MOL0     H10240   0.501   8.074   8.111  1.8086  0.7441 -0.8838
  817MOL0     H10241   0.541   7.906   8.119 -0.5812 -0.8964  1.3306
  817MOL0     H10242   0.518   7.917   8.335  0.6355 -1.2099 -0.8474
  817MOL0     H10243   0.667   8.014   8.346  0.2983 -1.1882  0.5544
  817MOL0     H10244   0.496   8.219   8.326  2.2943  0.0077 -0.8080
  817MOL0     H10245   0.505   8.119   8.470  0.6734 -0.0458 -0.1477
  817MOL0     H10246   0.295   8.121   8.156 -1.9695  3.5572  1.5228
  817MOL0     H10247   0.027   8.014   8.108  0.1579  0.8296  0.1059
  817MOL0     H10248   0.101   7.852   8.141  1.2778  1.7960 -2.3904
  817MOL0     H10249  -0.046   7.807   8.310  2.4758  2.0884  1.4051
  817MOL0     H10250  -0.145   7.832   8.167 -3.0995 -2.4006  3.5084
  817MOL0     H10251  -0.210   8.058   8.284 -1.9420  0.2299  1.6648
  817MOL0     H10252  -0.105   8.012   8.424 -0.5210  1.9718 -0.4970
  817MOL0     H10253  -0.343   7.988   8.466  1.7845  2.0148 -1.4916
  817MOL0     H10254  -0.265   7.824   8.451  1.1777 -0.4303 -0.6724
  817MOL0     H10255  -0.523   8.061   8.440  1.0645  0.0695 -1.7855
  817MOL0     H10256  -0.696   8.144   8.525  0.7737  0.6369  0.2057
  817MOL0     H10257  -0.800   8.225   8.408  0.9822  0.4018 -0.8252
  817MOL0     H10258  -0.866   8.080   8.487  0.4248  0.9334 -0.4629
  817MOL0     H10259  -1.096   7.707   8.025 -0.1016 -0.6594  0.0566
  817MOL0     H10260  -1.317   7.658   7.973  2.2798  0.0877 -0.0275
  817MOL0     H10261  -1.657   7.865   8.204 -4.2514  0.8760  0.1642
  817MOL0     H10262  -1.621   7.950   8.047  0.8618 -1.6494 -0.8902
  817MOL0     H10263  -1.764   7.806   7.926 -2.1510 -1.1966  0.6646
  817MOL0     H10264  -1.767   7.684   8.044  0.9356  0.3590  1.5516
  817MOL0     H10265  -1.895   7.958   8.074 -2.9131 -0.6338 -3.5689
  817MOL0     H10266  -1.900   7.833   8.199 -0.9518 -1.7259  0.6738
  817MOL0     H10267  -2.051   7.839   7.933  0.6834 -2.5822 -1.2119
  817MOL0     H10268  -1.998   7.692   8.021 -1.8426 -0.9027  3.3312
  817MOL0     H10269  -2.173   7.927   8.104  0.3403 -0.7934 -0.8373
  817MOL0     H10270  -2.130   7.819   8.229 -0.1489 -0.5079  0.5415
  817MOL0     H10271  -2.355   7.767   8.117  0.4928  0.9351  0.2015
  817MOL0     H10272  -2.264   7.700   7.975  0.2994 -1.2004 -0.2314
  817MOL0     H10273  -2.217   7.630   8.265  2.7068 -1.6289  0.6187
  817MOL0     H10274  -2.146   7.552   8.125  1.1578  1.7675 -0.8334
  817MOL0     H10275  -2.313   7.401   8.211  0.2748 -0.3668  1.4937
  817MOL0     H10276  -2.369   7.471   8.059  1.8174  2.6406 -0.9280
  817MOL0     H10277  -1.450   8.013   8.212 -0.1341  0.8593  1.2929
  817MOL0     H10278  -1.216   8.053   8.251 -0.7436 -1.0228  0.5586
  817MOL0     H10279  -0.793   7.831   8.098 -2.6844  1.1864  0.3700
  817MOL0     H10280  -0.543   7.786   8.114  2.2555 -0.0464  0.5463
  817MOL0     H10281   1.405   7.737   7.818 -0.6981  0.1257 -0.0414
  817MOL0     H10282   1.663   7.714   7.872  0.9927  2.5463  0.3279
  817MOL0     H10283   1.964   7.538   8.164 -0.3632 -0.0353 -1.3753
  817MOL0     H10284   2.185   7.513   8.203 -0.1185  0.6823 -2.6598
  817MOL0     H10285   2.501   7.662   8.409  0.6159 -1.1356  0.2677
  817MOL0     H10286   2.350   7.579   8.416 -1.6806  0.6774 -1.3255
  817MOL0     H10287   2.511   7.541   8.155 -1.8873 -0.5390  0.1122
  817MOL0     H10288   2.424   7.428   8.240 -1.3639  1.3016  0.2986
  817MOL0     H10289   2.615   7.415   8.421  2.4055  1.2783  1.0017
  817MOL0     H10290   2.696   7.545   8.345  0.0860 -0.5728  2.3466
  817MOL0     H10291   2.712   7.387   8.122 -1.5386 -0.3505 -0.9423
  817MOL0     H10292   2.645   7.268   8.230 -0.5663  0.0481 -1.8461
  817MOL0     H10293   3.035   7.295   8.354  1.2821  2.0385 -1.7133
  817MOL0     H10294   2.239   7.948   8.195 -4.0845  2.7008  0.5870
  817MOL0     H10295   1.996   7.955   8.150 -1.3892 -0.7760  1.9407
  818MOL0     O10296   6.594   0.074   2.113  0.4788 -0.0488  0.9583
  818MOL0     C10297   6.657   0.147   2.191 -0.5132 -0.4423 -0.0597
  818MOL0     O10298   6.627   0.275   2.231 -0.1731 -0.4672  0.5269
  818MOL0     C10299   6.502   0.317   2.202 -0.5536 -0.4444 -0.2062
  818MOL0     C10300   6.489   0.444   2.136 -1.1989  0.0415  0.6446
  818MOL0     C10301   6.370   0.501   2.096 -0.1744  0.4803 -0.2762
  818MOL0     C10302   6.251   0.420   2.122  1.0369 -0.0573 -0.4760
  818MOL0     O10303   6.137   0.464   2.073 -0.9386 -0.0666 -0.2581
  818MOL0     C10304   6.055   0.360   2.013 -0.6669  0.5174  0.4812
  818MOL0     C10305   5.937   0.427   1.948  0.9492  0.2890  0.4725
  818MOL0     C10306   5.854   0.330   1.857 -0.3265  0.3405 -1.2032
  818MOL0     C10307   5.734   0.411   1.812 -0.5060  0.0033  0.2408
  818MOL0     C10308   5.640   0.333   1.718 -0.0220 -0.5620  0.1153
  818MOL0     C10309   5.514   0.403   1.699  0.0069 -0.6174 -1.0994
  818MOL0     C10310   5.522   0.535   1.624 -1.0111 -0.1279 -0.2666
  818MOL0     C10311   5.398   0.621   1.620 -0.4652 -0.7761  0.7962
  818MOL0     N10312   5.275   0.548   1.624 -0.6690  0.1078 -0.8103
  818MOL0     C10313   5.224   0.463   1.525  0.5036  0.2230 -0.2541
  818MOL0     C10314   5.130   0.391   1.596 -1.0905 -0.7566  0.5797
  818MOL0     C10315   5.041   0.294   1.536 -0.0242 -0.7081  0.6674
  818MOL0     C10316   4.911   0.291   1.633  0.6508  1.1025  0.1297
  818MOL0     C10317   4.813   0.175   1.577 -0.1270 -0.4420  0.4174
  818MOL0     C10318   4.678   0.197   1.639 -0.0405  0.1933 -0.2032
  818MOL0     O10319   4.572   0.118   1.589 -0.0200  0.4417  0.5905
  818MOL0     C10320   4.438   0.144   1.601 -0.1130  0.9502 -0.5719
  818MOL0     C10321   4.390   0.240   1.687 -0.0081 -0.1165 -0.4062
  818MOL0     C10322   4.255   0.277   1.703 -0.1366  0.0648  0.8977
  818MOL0     C10323   4.223   0.396   1.791 -0.6120 -0.4099  0.2628
  818MOL0     C10324   4.160   0.199   1.622  0.0426 -0.4992 -0.6186
  818MOL0     C10325   4.010   0.219   1.632 -0.4815 -1.3582 -0.1466
  818MOL0     O10326   3.946   0.150   1.543  0.1594 -0.5747 -0.0857
  818MOL0     C10327   3.810   0.159   1.518  0.5971  0.8434  0.0799
  818MOL0     C10328   3.723   0.056   1.542  0.8727 -0.5630 -0.2480
  818MOL0     C10329   3.586   0.082   1.527  0.3577 -0.5085  0.2730
  818MOL0     C10330   3.538   0.207   1.485 -0.1244 -0.4889  0.2150
  818MOL0     O10331   3.408   0.247   1.477  0.1050 -0.1350  0.3123
  818MOL0     C10332   3.304   0.157   1.530 -0.1437 -0.1538  0.1313
  818MOL0     C10333   3.170   0.212   1.487  0.1260 -0.0635 -0.1347
  818MOL0     C10334   3.047   0.149   1.571  0.0472  0.0043  0.4879
  818MOL0     C10335   3.028   0.002   1.544  0.0392  0.1614  0.0678
  818MOL0     C10336   2.930  -0.065   1.630 -0.2197 -0.0630 -0.0106
  818MOL0     C10337   2.787  -0.019   1.598 -0.8241  0.0639  0.6663
  818MOL0     C10338   2.663  -0.092   1.661  0.1296 -0.5948  0.4874
  818MOL0     C10339   2.649  -0.035   1.797 -0.6310 -0.4678 -0.3083
  818MOL0    Cl10340   2.507  -0.106   1.887  0.2759 -0.6071  0.4561
  818MOL0     C10341   3.631   0.305   1.458 -0.3807 -0.4681  0.1645
  818MOL0     C10342   3.764   0.285   1.476  0.0453  0.9171  0.1678
  818MOL0     O10343   3.951   0.274   1.727  0.5734 -0.0567  0.1673
  818MOL0     C10344   4.211   0.095   1.532  0.3640  0.8023  0.0151
  818MOL0     C10345   4.344   0.066   1.536 -0.0583  0.2521 -0.0338
  818MOL0     N10346   5.131   0.430   1.727 -0.4640 -0.0952  0.5249
  818MOL0     N10347   5.218   0.520   1.745  0.3707 -0.2592  0.1061
  818MOL0     C10348   6.261   0.300   2.195  0.3367 -0.4371 -0.0043
  818MOL0     C10349   6.385   0.251   2.243  0.3237 -0.3320 -0.5509
  818MOL0     C10350   6.783   0.095   2.245 -0.8869  0.2050  0.2570
  818MOL0     C10351   6.861  -0.005   2.177 -0.2058 -0.6720  0.7531
  818MOL0     C10352   6.993  -0.034   2.209 -0.2343  0.1231 -1.9715
  818MOL0     C10353   7.050   0.020   2.328 -0.3816  0.5360 -0.1955
  818MOL0     O10354   7.173  -0.032   2.378 -0.6681 -0.6473 -0.4167
  818MOL0     C10355   7.250   0.072   2.445 -0.7983  0.7925  0.4459
  818MOL0     C10356   7.405   0.039   2.398  0.2440 -1.1673  0.6251
  818MOL0     C10357   7.421   0.104   2.259 -0.1535 -0.6683  0.4205
  818MOL0     C10358   7.570   0.119   2.196 -0.2819  0.2674 -0.2893
  818MOL0     C10359   7.651  -0.006   2.209 -0.4798  0.5755 -0.3680
  818MOL0     C10360   7.719  -0.102   2.206  0.3637  0.1347 -0.0765
  818MOL0     C10361   6.974   0.113   2.406 -0.0821 -0.0976  0.1543
  818MOL0     C10362   6.849   0.152   2.362  0.4627 -0.8218 -0.0364
  818MOL0     H10363   6.582   0.493   2.107 -0.5575 -2.6860 -2.5905
  818MOL0     H10364   6.365   0.586   2.029 -0.9473 -0.9738 -2.1428
  818MOL0     H10365   6.112   0.306   1.937  0.6300  0.1252  1.6918
  818MOL0     H10366   6.024   0.285   2.086  1.6799 -2.0836 -0.9809
  818MOL0     H10367   5.860   0.463   2.016 -0.3015 -2.1503  0.4649
  818MOL0     H10368   5.971   0.510   1.885  2.1190  0.7708  1.6717
  818MOL0     H10369   5.911   0.285   1.774  0.0283 -1.0462 -0.2446
  818MOL0     H10370   5.830   0.245   1.922  2.3140  1.9689  2.1913
  818MOL0     H10371   5.677   0.432   1.903  0.2856 -1.6525  1.1728
  818MOL0     H10372   5.769   0.504   1.768  2.0820 -1.3740 -0.8386
  818MOL0     H10373   5.681   0.325   1.617  1.3260  2.3355  0.3369
  818MOL0     H10374   5.612   0.239   1.767 -0.6855  0.2688  1.3863
  818MOL0     H10375   5.453   0.336   1.637  0.1671 -2.0563  0.2323
  818MOL0     H10376   5.468   0.422   1.797  0.9250  1.3556 -1.0101
  818MOL0     H10377   5.601   0.600   1.664 -0.1845  0.2165 -2.3586
  818MOL0     H10378   5.532   0.513   1.518 -1.1727 -1.9132  0.0593
  818MOL0     H10379   5.404   0.685   1.531  0.9882 -2.7651 -0.6052
  818MOL0     H10380   5.397   0.682   1.711 -0.4140 -0.7420  0.7738
  818MOL0     H10381   5.250   0.442   1.422  1.1875  0.1720 -0.0719
  818MOL0     H10382   5.023   0.313   1.430  0.0138 -1.2749  0.5569
  818MOL0     H10383   5.091   0.197   1.532 -1.3088 -1.3602 -0.3804
  818MOL0     H10384   4.865   0.391   1.630 -2.7677 -0.3148  0.8260
  818MOL0     H10385   4.943   0.259   1.732 -1.5118  0.2550  0.6082
  818MOL0     H10386   4.860   0.077   1.586  2.5969  0.6547 -0.6827
  818MOL0     H10387   4.803   0.195   1.470 -1.5314 -2.0404  0.2215
  818MOL0     H10388   4.654   0.303   1.625  1.5810  0.6431  0.1863
  818MOL0     H10389   4.681   0.168   1.745 -0.2979 -1.7280 -0.6776
  818MOL0     H10390   4.461   0.297   1.747 -1.7112  0.8695  0.7351
  818MOL0     H10391   4.188   0.479   1.730  1.6122  1.3942  1.2849
  818MOL0     H10392   4.156   0.364   1.872  1.4101 -1.0406  1.7837
  818MOL0     H10393   4.310   0.444   1.836  1.0390  0.5806 -3.6303
  818MOL0     H10394   3.766  -0.039   1.573  4.6994  1.1529  0.2379
  818MOL0     H10395   3.515   0.006   1.559 -0.0844 -0.0449  0.4081
  818MOL0     H10396   3.308   0.052   1.499  3.2905 -0.6246  1.7654
  818MOL0     H10397   3.297   0.152   1.639 -2.3797  4.5751  0.4724
  818MOL0     H10398   3.163   0.320   1.502  2.4576  0.6115 -3.0008
  818MOL0     H10399   3.163   0.194   1.380  3.6774 -0.1201 -0.4824
  818MOL0     H10400   2.967   0.193   1.511  2.8342  1.4637 -2.4686
  818MOL0     H10401   3.063   0.180   1.674 -2.2441  2.4895  0.2088
  818MOL0     H10402   3.015  -0.017   1.437  2.2794 -4.2833  0.3610
  818MOL0     H10403   3.126  -0.046   1.548  2.1082  3.8545 -1.5608
  818MOL0     H10404   2.966  -0.056   1.733  2.7386  1.4061 -1.0497
  818MOL0     H10405   2.931  -0.174   1.620  0.0332 -0.2978  2.0837
  818MOL0     H10406   2.774   0.085   1.629 -6.8580 -0.5960  1.6118
  818MOL0     H10407   2.779  -0.024   1.489 -0.9659 -0.2483  0.6919
  818MOL0     H10408   2.677  -0.200   1.668  2.3022 -0.5523 -1.7726
  818MOL0     H10409   2.575  -0.070   1.600  0.9114 -0.8449 -0.7642
  818MOL0     H10410   2.625   0.071   1.787 -2.5300 -0.3826  3.3636
  818MOL0     H10411   2.741  -0.057   1.853 -2.3037 -0.9067  2.4724
  818MOL0     H10412   3.597   0.405   1.432  0.7058  1.0179  3.8332
  818MOL0     H10413   3.824   0.376   1.476 -1.5494  2.0079  0.0989
  818MOL0     H10414   4.147   0.045   1.461  1.0771  0.3982 -0.3565
  818MOL0     H10415   4.390  -0.006   1.470  1.3890 -0.7549  1.9782
  818MOL0     H10416   6.182   0.229   2.216  2.6184 -2.7245  1.3431
  818MOL0     H10417   6.390   0.153   2.291 -3.6960 -1.3197 -1.7834
  818MOL0     H10418   6.813  -0.053   2.091  0.4248 -0.9375  0.5406
  818MOL0     H10419   7.052  -0.113   2.163  0.6271  0.3314 -1.2478
  818MOL0     H10420   7.223   0.175   2.421  3.0579  2.2248  1.5669
  818MOL0     H10421   7.238   0.053   2.552 -4.7132  1.3148  0.2570
  818MOL0     H10422   7.417  -0.070   2.397 -2.1514 -1.5022 -0.1380
  818MOL0     H10423   7.472   0.084   2.471  0.5888 -0.9309  0.1713
  818MOL0     H10424   7.369   0.200   2.250 -0.8783 -1.2534 -3.3181
  818MOL0     H10425   7.368   0.042   2.185  0.2745 -0.1506 -0.3375
  818MOL0     H10426   7.620   0.202   2.247 -1.0348 -0.2504  1.3622
  818MOL0     H10427   7.567   0.147   2.091 -2.8791 -0.5541 -0.5016
  818MOL0     H10428   7.769  -0.196   2.193 -1.8453 -1.2505  1.0198
  818MOL0     H10429   7.019   0.160   2.492  0.2956  0.2550 -0.2297
  818MOL0     H10430   6.799   0.233   2.413  0.0562 -0.1035 -1.4995
  819MOL0     O10431   9.983   7.438  10.014  0.4926  0.4427 -0.8410
  819MOL0     C10432   9.969   7.508  10.112 -0.1568 -0.2989 -0.6236
  819MOL0     O10433  10.062   7.524  10.212  0.2216  0.0161  0.0122
  819MOL0     C10434  10.184   7.464  10.201 -0.4853  0.2004  0.2116
  819MOL0     C10435  10.219   7.332  10.228 -0.4668 -0.4654 -0.2439
  819MOL0     C10436  10.352   7.282  10.215  0.3420  0.1750 -0.1055
  819MOL0     C10437  10.453   7.361  10.168  0.4361  0.7568 -0.6038
  819MOL0     O10438  10.575   7.293  10.142 -0.7587 -0.4077 -0.5657
  819MOL0     C10439  10.693   7.365  10.133 -0.9778 -0.2550 -0.5463
  819MOL0     C10440  10.813   7.267  10.145 -0.1048  0.0342 -0.0048
  819MOL0     C10441  10.839   7.182  10.018  0.1262 -1.3401  0.0855
  819MOL0     C10442  10.961   7.095  10.031  0.2978  0.9922  0.0494
  819MOL0     C10443  10.969   6.998   9.913 -0.3920 -0.1565 -0.3083
  819MOL0     C10444  11.096   6.916   9.928 -0.7067 -0.4632 -0.4808
  819MOL0     C10445  11.112   6.825   9.803 -0.3803 -0.5782 -0.0119
  819MOL0     C10446  11.125   6.903   9.675  0.7840  0.3851 -0.5727
  819MOL0     N10447  11.214   7.013   9.667  0.0834 -0.3709 -0.1646
  819MOL0     C10448  11.349   7.003   9.685 -0.7178 -0.6890 -0.2717
  819MOL0     C10449  11.408   7.123   9.654  0.4782  0.6773  0.0988
  819MOL0     C10450  11.554   7.157   9.639 -0.9115 -0.3617  0.1189
  819MOL0     C10451  11.607   7.270   9.730  0.1854  0.5280  0.1473
  819MOL0     C10452  11.593   7.229   9.876  0.1224  0.2260  0.5034
  819MOL0     C10453  11.702   7.308   9.953  0.0537 -0.0869  0.1321
  819MOL0     O10454  11.726   7.239  10.076  0.5260  0.3979 -0.1888
  819MOL0     C10455  11.633   7.242  10.184  0.1066  0.8630 -1.1616
  819MOL0     C10456  11.633   7.136  10.273  1.2933 -0.6523  0.2438
  819MOL0     C10457  11.522   7.114  10.361 -0.3741 -0.2279 -0.1511
  819MOL0     C10458  11.516   6.987  10.448 -0.0138 -0.1709  1.0019
  819MOL0     C10459  11.414   7.205  10.356  0.5766  0.0625  0.3872
  819MOL0     C10460  11.286   7.177  10.425  0.4883  0.3941 -1.4817
  819MOL0     O10461  11.184   7.211  10.351  0.0848  0.5875  0.6543
  819MOL0     C10462  11.062   7.217  10.410  1.4208  1.0229 -0.4034
  819MOL0     C10463  10.981   7.093  10.413  0.6316 -0.6611  0.0540
  819MOL0     C10464  10.856   7.087  10.477  0.1238 -0.1148  0.8187
  819MOL0     C10465  10.804   7.205  10.535  0.4678 -0.1650 -0.2737
  819MOL0     O10466  10.677   7.212  10.600  0.2730 -0.1974 -0.2379
  819MOL0     C10467  10.582   7.104  10.567  0.8497 -0.2445 -0.9518
  819MOL0     C10468  10.438   7.152  10.613  0.5603  0.0563  0.8108
  819MOL0     C10469  10.326   7.055  10.580 -0.2914 -0.0627  0.9997
  819MOL0     C10470  10.205   7.141  10.594  0.6419  0.8540 -0.5338
  819MOL0     C10471  10.077   7.061  10.559 -0.1168 -0.0521  0.4804
  819MOL0     C10472  10.042   6.939  10.653 -0.0924  0.4715 -0.5062
  819MOL0     C10473   9.907   6.870  10.617  0.6092 -0.9818  0.1930
  819MOL0     C10474   9.788   6.949  10.650 -0.2366 -0.9500 -0.7046
  819MOL0    Cl10475   9.638   6.853  10.647  0.2324  0.2759 -0.2666
  819MOL0     C10476  10.884   7.318  10.531  0.1902 -0.6958 -0.3523
  819MOL0     C10477  11.006   7.334  10.470 -0.0399  0.7152  0.1310
  819MOL0     O10478  11.272   7.134  10.542 -0.1883  0.0405 -0.0908
  819MOL0     C10479  11.421   7.316  10.278  0.7337 -0.0804  0.1523
  819MOL0     C10480  11.530   7.341  10.185  0.1626 -0.4674 -0.0350
  819MOL0     N10481  11.296   7.197   9.622  0.0542 -0.1782  0.0670
  819MOL0     N10482  11.180   7.143   9.638  0.0067 -0.0234  1.0082
  819MOL0     C10483  10.429   7.494  10.158 -0.3985 -0.0356  0.6110
  819MOL0     C10484  10.295   7.541  10.167  0.3458  0.2082 -0.0428
  819MOL0     C10485   9.838   7.568  10.152  0.8721 -0.2274  0.7172
  819MOL0     C10486   9.706   7.512  10.103 -0.4439  0.8707 -0.5235
  819MOL0     C10487   9.583   7.569  10.153  0.3308 -0.1473  0.4386
  819MOL0     C10488   9.584   7.677  10.237  0.5509 -0.3254  0.0939
  819MOL0     O10489   9.463   7.731  10.270  0.1152 -0.7211 -0.8233
  819MOL0     C10490   9.475   7.875  10.283 -0.6657 -0.5639 -0.3100
  819MOL0     C10491   9.352   7.955  10.269 -0.6816  0.6866 -0.4011
  819MOL0     C10492   9.229   7.907  10.338 -0.0344  0.4548  0.3759
  819MOL0     C10493   9.113   8.013  10.323 -0.4042 -0.4973 -0.3763
  819MOL0     C10494   8.976   7.959  10.336  0.8349  0.0855  0.1700
  819MOL0     C10495   8.878   7.888  10.343  0.3506  1.2370 -0.0772
  819MOL0     C10496   9.708   7.726  10.282 -0.0155 -0.5458  0.0882
  819MOL0     C10497   9.831   7.681  10.239 -0.2168  0.0235 -0.0493
  819MOL0     H10498  10.137   7.265  10.254 -0.1348 -0.4589  0.9041
  819MOL0     H10499  10.375   7.180  10.244  3.3467  0.0461 -2.4399
  819MOL0     H10500  10.707   7.420  10.040 -1.6149  0.0072 -0.4890
  819MOL0     H10501  10.699   7.437  10.215 -0.1842  1.3796 -1.9644
  819MOL0     H10502  10.905   7.319  10.173  0.2325 -1.0413  1.0137
  819MOL0     H10503  10.799   7.211  10.239  1.1917  0.9828  0.7908
  819MOL0     H10504  10.756   7.116   9.990  1.0563 -3.3737  1.8636
  819MOL0     H10505  10.859   7.258   9.942  1.2086 -0.0399  1.6125
  819MOL0     H10506  11.048   7.161  10.028  0.9139  0.3336  1.8814
  819MOL0     H10507  10.955   7.032  10.121  1.3052  0.4691 -0.2395
  819MOL0     H10508  10.885   6.931   9.934 -0.1542 -0.4447 -0.2690
  819MOL0     H10509  10.956   7.052   9.818 -0.9076 -0.0249 -0.1653
  819MOL0     H10510  11.177   6.989   9.926 -1.1212  0.1222  1.2592
  819MOL0     H10511  11.098   6.861  10.023  0.6456  1.5202  0.7284
  819MOL0     H10512  11.203   6.765   9.811 -0.2218 -0.2252  0.9515
  819MOL0     H10513  11.031   6.752   9.802  1.0879 -2.3733  2.6063
  819MOL0     H10514  11.027   6.937   9.638  1.6848  3.0146 -0.8128
  819MOL0     H10515  11.157   6.828   9.603  0.2913  0.9253 -1.3821
  819MOL0     H10516  11.404   6.910   9.700  0.3569 -0.6488 -3.2073
  819MOL0     H10517  11.619   7.073   9.664 -1.5466 -0.0723  3.1250
  819MOL0     H10518  11.577   7.193   9.538  0.3034 -0.2424  0.4303
  819MOL0     H10519  11.549   7.362   9.724  2.3271  2.0321  1.0900
  819MOL0     H10520  11.708   7.303   9.706  0.5219 -0.0497  0.7066
  819MOL0     H10521  11.605   7.121   9.892 -3.1537 -0.8923 -3.1592
  819MOL0     H10522  11.498   7.261   9.920 -1.5318 -1.5776 -1.5407
  819MOL0     H10523  11.675   7.414   9.964 -0.0099  0.1864 -2.1492
  819MOL0     H10524  11.800   7.307   9.903  0.8701 -0.0504  1.6811
  819MOL0     H10525  11.716   7.066  10.267  2.4786  0.5287  1.8710
  819MOL0     H10526  11.424   6.937  10.417 -0.2699  0.2747  1.0251
  819MOL0     H10527  11.607   6.929  10.429 -0.8953 -1.0226 -0.9206
  819MOL0     H10528  11.514   7.003  10.556  2.5036 -3.3832  1.6933
  819MOL0     H10529  11.024   7.010  10.359  0.2095 -1.1516  0.4596
  819MOL0     H10530  10.796   6.997  10.479  1.8701 -1.5080  5.6623
  819MOL0     H10531  10.588   7.085  10.459  0.3451 -1.4019 -0.7913
  819MOL0     H10532  10.602   7.007  10.613 -2.7212 -0.6150  0.1106
  819MOL0     H10533  10.451   7.165  10.721 -1.7114 -1.8391  1.3972
  819MOL0     H10534  10.423   7.248  10.563  1.8081 -0.6295 -0.9744
  819MOL0     H10535  10.339   6.972  10.650  2.8650  1.4891  2.4347
  819MOL0     H10536  10.336   7.021  10.477  0.0477  2.7619  0.0016
  819MOL0     H10537  10.197   7.176  10.697  2.0702 -2.5363  0.8701
  819MOL0     H10538  10.197   7.223  10.522 -4.8737  0.3680 -0.9073
  819MOL0     H10539  10.087   7.018  10.458 -1.4991 -0.7481  0.6157
  819MOL0     H10540   9.993   7.131  10.566 -0.0567 -0.1345  2.4753
  819MOL0     H10541  10.126   6.870  10.654  1.1363  1.8578 -1.9197
  819MOL0     H10542  10.029   6.981  10.753  1.0516  1.3341 -0.6964
  819MOL0     H10543   9.892   6.769  10.655  1.1369 -0.2550  2.4461
  819MOL0     H10544   9.893   6.849  10.510 -2.3128 -0.6931  0.4400
  819MOL0     H10545   9.772   7.038  10.587 -0.1415  0.0356  0.6128
  819MOL0     H10546   9.795   6.983  10.754 -0.8035 -1.2208 -0.5777
  819MOL0     H10547  10.841   7.405  10.579  0.4199 -0.1789 -1.0530
  819MOL0     H10548  11.057   7.430  10.470 -0.7282  1.0930  0.7599
  819MOL0     H10549  11.342   7.390  10.267  0.3920 -0.4938 -0.2541
  819MOL0     H10550  11.534   7.431  10.125  1.0272  0.6409  1.6131
  819MOL0     H10551  10.502   7.560  10.114 -1.1789  0.0682 -0.5695
  819MOL0     H10552  10.267   7.645  10.155  3.1656  0.8756 -1.5631
  819MOL0     H10553   9.714   7.421  10.045  0.5904  0.7801 -0.2481
  819MOL0     H10554   9.486   7.529  10.126  0.8337 -0.1599 -1.4609
  819MOL0     H10555   9.510   7.886  10.386  0.4013  0.4303 -0.7604
  819MOL0     H10556   9.553   7.913  10.217 -0.8045 -0.9042 -0.6743
  819MOL0     H10557   9.326   7.969  10.163 -1.5352 -1.3778 -0.5199
  819MOL0     H10558   9.384   8.045  10.322  0.8683 -0.4851  0.7578
  819MOL0     H10559   9.252   7.890  10.443  1.8484  0.5286  0.0036
  819MOL0     H10560   9.198   7.811  10.294 -0.6725  1.5243 -1.6239
  819MOL0     H10561   9.124   8.063  10.226 -0.6279  3.3916  1.4290
  819MOL0     H10562   9.134   8.101  10.384  0.8995  0.0716 -1.5613
  819MOL0     H10563   8.793   7.825  10.357  1.8392 -0.5790  1.3324
  819MOL0     H10564   9.689   7.808  10.350 -0.8959  0.9240 -1.8365
  819MOL0     H10565   9.917   7.734  10.278 -0.7197 -1.0263  2.6811
  820MOL0     O10566   0.700  11.142   5.642 -0.3973 -0.7044 -0.3777
  820MOL0     C10567   0.683  11.177   5.522 -0.0787  0.2168 -0.1461
  820MOL0     O10568   0.562  11.217   5.464  0.0566  0.3858 -0.2107
  820MOL0     C10569   0.450  11.226   5.542  0.3551  0.4078  0.5430
  820MOL0     C10570   0.336  11.144   5.535 -0.1329  0.1838  0.4639
  820MOL0     C10571   0.216  11.182   5.599  0.4373 -0.8134 -0.5837
  820MOL0     C10572   0.208  11.293   5.681 -0.1826 -0.2674 -0.2134
  820MOL0     O10573   0.096  11.328   5.753  0.1953 -0.0573  0.0662
  820MOL0     C10574  -0.004  11.218   5.780  0.3324 -0.3205 -0.6837
  820MOL0     C10575  -0.138  11.228   5.699  0.0168  0.2855 -0.1418
  820MOL0     C10576  -0.227  11.099   5.733 -0.6314 -0.1594 -0.4461
  820MOL0     C10577  -0.374  11.148   5.717 -0.4171 -0.4893  0.2992
  820MOL0     C10578  -0.462  11.033   5.744  0.0673  0.0984 -0.9992
  820MOL0     C10579  -0.598  11.053   5.681  0.4503  0.5369 -0.2912
  820MOL0     C10580  -0.700  10.942   5.732 -0.0193 -0.2314 -0.3158
  820MOL0     C10581  -0.843  10.961   5.661 -0.1418  0.3225  0.4971
  820MOL0     N10582  -0.921  10.834   5.674 -0.2944  0.6246 -0.8716
  820MOL0     C10583  -0.977  10.795   5.801 -0.9246  0.2999  0.6233
  820MOL0     C10584  -1.035  10.673   5.773 -0.2036 -0.0349  0.6642
  820MOL0     C10585  -1.097  10.583   5.880 -0.3839  0.2196 -0.0397
  820MOL0     C10586  -1.198  10.652   5.967  0.7296 -0.2823 -0.2063
  820MOL0     C10587  -1.315  10.561   6.008 -0.1443 -0.2355  0.4124
  820MOL0     C10588  -1.399  10.638   6.109  0.5119 -0.2277  0.3163
  820MOL0     O10589  -1.457  10.751   6.052  0.8311 -1.3465  0.1647
  820MOL0     C10590  -1.566  10.805   6.125  0.6610 -0.6957  0.3123
  820MOL0     C10591  -1.593  10.804   6.261 -0.3570 -0.4300  0.2462
  820MOL0     C10592  -1.700  10.865   6.333 -0.5787 -1.0359  0.8829
  820MOL0     C10593  -1.710  10.829   6.477  0.4171  0.2246  0.5270
  820MOL0     C10594  -1.793  10.946   6.252 -0.1458 -0.3036 -0.6121
  820MOL0     C10595  -1.911  11.023   6.304  0.2509  0.3742 -0.4653
  820MOL0     O10596  -1.965  11.118   6.227 -0.9507  1.3451  1.1208
  820MOL0     C10597  -2.082  11.182   6.256 -0.1814 -0.5232 -0.2315
  820MOL0     C10598  -2.181  11.137   6.349  0.2778 -0.1562 -0.3250
  820MOL0     C10599  -2.306  11.209   6.362  0.0641  0.3064  0.5314
  820MOL0     C10600  -2.317  11.330   6.288 -0.0509  0.2547 -1.3379
  820MOL0     O10601  -2.423  11.406   6.319  0.3072  0.2043  0.8571
  820MOL0     C10602  -2.472  11.489   6.213 -0.0395 -0.2098 -0.3607
  820MOL0     C10603  -2.625  11.516   6.225  1.0501  0.4929  0.0739
  820MOL0     C10604  -2.666  11.574   6.362 -0.6794  0.1093 -0.6183
  820MOL0     C10605  -2.822  11.561   6.380  0.6367 -0.1282 -0.5427
  820MOL0     C10606  -2.898  11.661   6.290 -0.0169  0.5892  0.3674
  820MOL0     C10607  -3.045  11.675   6.335  0.0289 -0.6249 -0.2128
  820MOL0     C10608  -3.114  11.768   6.238  0.0768 -0.3679  0.4492
  820MOL0     C10609  -3.261  11.797   6.270 -0.0719  0.6411  0.0079
  820MOL0    Cl10610  -3.334  11.906   6.152 -0.4700 -0.1664 -0.1364
  820MOL0     C10611  -2.215  11.375   6.210 -0.3694 -0.7518 -0.5791
  820MOL0     C10612  -2.093  11.304   6.194 -0.2127 -0.2562  0.0866
  820MOL0     O10613  -1.931  11.008   6.428  0.9033 -0.0406  0.5660
  820MOL0     C10614  -1.756  10.957   6.113 -0.2627 -0.7947  0.0233
  820MOL0     C10615  -1.650  10.890   6.049  0.0291  0.3697  0.5621
  820MOL0     N10616  -1.014  10.641   5.638 -0.2388  0.8607  0.3663
  820MOL0     N10617  -0.954  10.739   5.578 -1.0058  1.2984 -0.6856
  820MOL0     C10618   0.330  11.366   5.693  0.3840  0.3914  0.4533
  820MOL0     C10619   0.444  11.340   5.618 -0.2677 -0.1291  1.0212
  820MOL0     C10620   0.786  11.155   5.422 -0.4858 -0.5634  0.0925
  820MOL0     C10621   0.766  11.161   5.278 -0.4092  0.3568 -0.7528
  820MOL0     C10622   0.869  11.147   5.188 -0.0318 -0.4608  0.1159
  820MOL0     C10623   1.001  11.113   5.225  0.4811  0.5499  0.2914
  820MOL0     O10624   1.085  11.103   5.117 -0.4591  0.3467 -0.0032
  820MOL0     C10625   1.225  11.067   5.165  0.1242  0.4884 -0.3832
  820MOL0     C10626   1.293  11.181   5.234 -0.3751  0.5052 -0.3613
  820MOL0     C10627   1.306  11.307   5.146 -0.2420  0.5279  0.0760
  820MOL0     C10628   1.442  11.311   5.063  0.9723 -0.3387  0.8107
  820MOL0     C10629   1.556  11.300   5.149  0.2820 -0.5035  0.9651
  820MOL0     C10630   1.649  11.293   5.218 -1.2780 -0.2550  0.1618
  820MOL0     C10631   1.023  11.083   5.363  0.2620  0.1229 -0.3229
  820MOL0     C10632   0.920  11.111   5.456  0.0921 -0.4913 -1.2857
  820MOL0     H10633   0.328  11.046   5.489 -1.5489 -0.1410  1.3300
  820MOL0     H10634   0.129  11.118   5.588  0.4388 -0.7785 -0.8085
  820MOL0     H10635   0.046  11.121   5.774  2.7050  0.8251 -0.9289
  820MOL0     H10636  -0.032  11.230   5.885 -3.8093  1.1081 -1.7615
  820MOL0     H10637  -0.183  11.323   5.730 -0.7174 -1.2668  4.5007
  820MOL0     H10638  -0.128  11.233   5.591  1.3581  0.1235 -0.0469
  820MOL0     H10639  -0.205  11.005   5.681  0.6606  0.6889 -1.5233
  820MOL0     H10640  -0.216  11.068   5.838 -0.1997  0.6617 -0.2310
  820MOL0     H10641  -0.382  11.236   5.782  1.0777 -0.4722  0.4767
  820MOL0     H10642  -0.387  11.177   5.613 -0.2257 -0.4255  0.2937
  820MOL0     H10643  -0.416  10.938   5.714 -0.3948 -0.7951  0.9723
  820MOL0     H10644  -0.457  11.026   5.853  2.5401 -0.0431 -1.0708
  820MOL0     H10645  -0.632  11.156   5.697  4.6533  2.3816 -1.9154
  820MOL0     H10646  -0.599  11.040   5.573 -1.7107  1.3358 -0.4232
  820MOL0     H10647  -0.654  10.851   5.692  1.7135  1.1829 -1.7315
  820MOL0     H10648  -0.711  10.935   5.841 -0.1002  0.3349 -0.2820
  820MOL0     H10649  -0.827  10.996   5.559 -2.6943 -0.2839 -0.1741
  820MOL0     H10650  -0.911  11.038   5.699 -1.3611  0.4584 -1.8081
  820MOL0     H10651  -0.958  10.856   5.888  0.1391  2.4196 -1.0155
  820MOL0     H10652  -1.143  10.496   5.833  2.4727 -2.7450  2.2101
  820MOL0     H10653  -1.021  10.556   5.954 -0.9010  0.5881  0.6459
  820MOL0     H10654  -1.229  10.743   5.914  1.2844 -0.9423 -1.7038
  820MOL0     H10655  -1.137  10.687   6.051  0.9632 -1.0592 -0.0503
  820MOL0     H10656  -1.269  10.472   6.053  0.8198 -0.7560 -1.5065
  820MOL0     H10657  -1.371  10.532   5.919  0.2398 -0.2706  0.1793
  820MOL0     H10658  -1.334  10.665   6.193 -1.0997  1.8784  0.9937
  820MOL0     H10659  -1.471  10.566   6.148  2.3767 -0.8306  2.8777
  820MOL0     H10660  -1.523  10.737   6.310 -0.7948 -1.5375 -0.6126
  820MOL0     H10661  -1.668  10.916   6.530 -1.1059  1.4968 -0.2554
  820MOL0     H10662  -1.807  10.795   6.515 -1.2783 -1.1909 -4.4194
  820MOL0     H10663  -1.654  10.737   6.494  0.7508  0.0188 -1.5534
  820MOL0     H10664  -2.172  11.040   6.395 -1.8938 -0.2007  0.1043
  820MOL0     H10665  -2.380  11.182   6.437  1.3200 -0.8891  1.3791
  820MOL0     H10666  -2.423  11.584   6.236  1.8898 -1.7735  2.6711
  820MOL0     H10667  -2.447  11.459   6.111 -1.6598  0.1481 -0.8934
  820MOL0     H10668  -2.656  11.581   6.143  0.6895 -0.2291 -0.3767
  820MOL0     H10669  -2.678  11.420   6.216  0.8281 -0.1784  5.4252
  820MOL0     H10670  -2.635  11.679   6.360  0.8769 -0.2824  0.8804
  820MOL0     H10671  -2.611  11.525   6.443 -0.2199  1.4667 -0.0858
  820MOL0     H10672  -2.857  11.459   6.362  0.6850 -0.2419 -0.0225
  820MOL0     H10673  -2.847  11.588   6.483  0.5193  0.8849 -0.8313
  820MOL0     H10674  -2.905  11.622   6.188 -0.1511 -1.4966  1.1250
  820MOL0     H10675  -2.850  11.759   6.300  3.2268 -0.9324  0.8242
  820MOL0     H10676  -3.092  11.576   6.341  2.0698 -1.6307  0.0446
  820MOL0     H10677  -3.058  11.718   6.435  0.9426  1.0964 -0.7949
  820MOL0     H10678  -3.105  11.737   6.134  0.2219 -0.3114  0.4457
  820MOL0     H10679  -3.071  11.866   6.256 -2.6536  1.2740 -1.2341
  820MOL0     H10680  -3.266  11.823   6.376  3.8333 -1.1538  0.7955
  820MOL0     H10681  -3.301  11.696   6.260  1.8440 -0.2558  0.9204
  820MOL0     H10682  -2.227  11.478   6.178 -0.8225  0.4362  2.9495
  820MOL0     H10683  -2.018  11.338   6.123 -1.0069 -0.0618 -0.6816
  820MOL0     H10684  -1.809  11.024   6.047 -0.9181 -0.1990  1.1220
  820MOL0     H10685  -1.631  10.916   5.946  0.4930  3.5707  1.3539
  820MOL0     H10686   0.329  11.452   5.759  3.3231 -0.3984  1.6944
  820MOL0     H10687   0.535  11.398   5.626  1.8843 -2.7049 -2.2343
  820MOL0     H10688   0.670  11.196   5.243 -0.9939 -2.0368 -1.7208
  820MOL0     H10689   0.856  11.160   5.081 -3.3666 -0.3999  0.4386
  820MOL0     H10690   1.223  10.977   5.227 -1.5303  0.1766 -0.8472
  820MOL0     H10691   1.284  11.054   5.074  1.6165 -0.7685  0.7198
  820MOL0     H10692   1.389  11.139   5.266 -1.4623 -1.5740  0.3739
  820MOL0     H10693   1.245  11.208   5.328  0.5974 -1.6176  0.8305
  820MOL0     H10694   1.297  11.396   5.210  0.0729  1.4646 -1.1402
  820MOL0     H10695   1.220  11.331   5.083 -0.4886 -3.6629 -1.4602
  820MOL0     H10696   1.459  11.402   5.004  1.0681  0.6785  2.3577
  820MOL0     H10697   1.441  11.228   4.991 -1.1316  0.8908 -0.7066
  820MOL0     H10698   1.727  11.290   5.291 -0.6844 -0.2693 -0.4635
  820MOL0     H10699   1.114  11.039   5.402 -0.2348 -1.1815 -0.5916
  820MOL0     H10700   0.935  11.082   5.560 -1.1703 -1.4388 -1.3419
  821MOL0     O10701   3.989   7.573   9.663 -0.4726  0.4365  0.5718
  821MOL0     C10702   4.082   7.657   9.674 -0.7198  0.2465  0.5537
  821MOL0     O10703   4.055   7.791   9.671 -0.3668 -0.5183 -0.0220
  821MOL0     C10704   3.927   7.841   9.675  0.7987  0.3053  0.4379
  821MOL0     C10705   3.898   7.952   9.592 -0.1248  0.7936 -0.1131
  821MOL0     C10706   3.763   7.997   9.573 -0.4543 -0.3274 -0.1449
  821MOL0     C10707   3.660   7.953   9.654 -0.5336 -0.2846 -0.5085
  821MOL0     O10708   3.529   7.993   9.648 -0.0752  0.7572 -0.0956
  821MOL0     C10709   3.505   8.132   9.614  0.2954  0.5426  0.2327
  821MOL0     C10710   3.362   8.155   9.633  0.0536  0.3009 -0.2954
  821MOL0     C10711   3.302   8.118   9.775 -0.6959  0.1208 -0.2762
  821MOL0     C10712   3.148   8.147   9.785 -0.4510  0.6298 -0.2954
  821MOL0     C10713   3.078   8.008   9.765 -0.2560  0.1525 -0.4712
  821MOL0     C10714   2.935   8.023   9.815  0.5244  0.7763  0.5861
  821MOL0     C10715   2.862   7.887   9.792 -0.4590  1.0995 -0.1161
  821MOL0     C10716   2.715   7.891   9.846  0.2119  0.7442  0.3093
  821MOL0     N10717   2.625   7.965   9.762 -0.7324 -0.3156 -0.8638
  821MOL0     C10718   2.579   8.088   9.793 -0.5463  0.2725 -0.2787
  821MOL0     C10719   2.456   8.096   9.742 -0.8833 -0.0375 -1.0225
  821MOL0     C10720   2.371   8.218   9.748  0.1129  0.0342  0.6285
  821MOL0     C10721   2.407   8.316   9.639 -0.7576 -0.2471  0.4055
  821MOL0     C10722   2.341   8.452   9.658 -0.2913 -0.1317  0.6901
  821MOL0     C10723   2.194   8.440   9.606 -0.4254 -0.7135 -0.5490
  821MOL0     O10724   2.132   8.558   9.656 -0.6436  0.0700  0.0337
  821MOL0     C10725   2.005   8.601   9.605 -0.5064  0.2097  0.0106
  821MOL0     C10726   1.969   8.737   9.604  0.5593 -0.4084  0.2500
  821MOL0     C10727   1.849   8.789   9.556 -0.1700 -0.5876  0.6126
  821MOL0     C10728   1.822   8.941   9.576  0.3773 -0.1322 -0.8233
  821MOL0     C10729   1.757   8.701   9.491 -0.3866 -0.1550  0.1468
  821MOL0     C10730   1.618   8.734   9.460 -0.2438 -0.8266 -0.9728
  821MOL0     O10731   1.547   8.657   9.369  0.2062  0.0928 -0.3122
  821MOL0     C10732   1.428   8.698   9.319 -0.1033 -0.5933 -0.2556
  821MOL0     C10733   1.396   8.832   9.284 -0.0758  0.0784  0.0076
  821MOL0     C10734   1.270   8.854   9.229 -0.6851 -0.3629 -0.3028
  821MOL0     C10735   1.175   8.749   9.209  0.3930 -0.2018  0.5346
  821MOL0     O10736   1.056   8.789   9.153  0.0397 -1.4087 -0.4815
  821MOL0     C10737   0.954   8.693   9.147  0.7546 -0.4156 -0.0944
  821MOL0     C10738   0.831   8.757   9.071 -0.5344  0.3586  0.0407
  821MOL0     C10739   0.779   8.877   9.139 -0.6350  0.5236 -0.5568
  821MOL0     C10740   0.646   8.929   9.088  0.3582  0.1643 -0.2498
  821MOL0     C10741   0.616   9.061   9.158 -0.9456  0.0658 -0.4283
  821MOL0     C10742   0.491   9.121   9.096 -0.3564  0.1596 -0.9154
  821MOL0     C10743   0.439   9.239   9.181 -0.6537  0.1473 -0.3213
  821MOL0     C10744   0.391   9.354   9.086 -0.6263  1.1793  0.3933
  821MOL0    Cl10745   0.253   9.296   8.981  0.3405  0.0000  0.3880
  821MOL0     C10746   1.209   8.613   9.247 -0.0799  0.3745 -0.0006
  821MOL0     C10747   1.337   8.588   9.305 -0.4039 -1.1702  0.2305
  821MOL0     O10748   1.565   8.832   9.516 -0.1006 -0.5613 -0.1049
  821MOL0     C10749   1.790   8.559   9.488 -0.1781 -0.7205 -0.1620
  821MOL0     C10750   1.906   8.516   9.551  0.0106  0.4404  0.0274
  821MOL0     N10751   2.425   7.977   9.681 -0.3764  0.2282 -0.5790
  821MOL0     N10752   2.528   7.900   9.696  0.3369  0.7015 -0.0498
  821MOL0     C10753   3.686   7.850   9.744 -0.0455  0.0289  0.5035
  821MOL0     C10754   3.818   7.794   9.754 -0.9430  0.1825  0.6020
  821MOL0     C10755   4.219   7.611   9.654 -0.2084 -0.6178  0.4452
  821MOL0     C10756   4.303   7.695   9.585  0.2354  0.6229 -0.1319
  821MOL0     C10757   4.427   7.644   9.564 -0.5723  0.9250 -0.5129
  821MOL0     C10758   4.474   7.517   9.602 -0.2876 -0.0734  0.7345
  821MOL0     O10759   4.600   7.487   9.579 -0.4916  0.0595  0.0786
  821MOL0     C10760   4.667   7.449   9.700 -0.7479  0.3745 -0.5440
  821MOL0     C10761   4.819   7.430   9.675  0.7051 -0.2342  0.3194
  821MOL0     C10762   4.899   7.419   9.794 -1.1522 -0.3007 -0.7402
  821MOL0     C10763   5.027   7.331   9.770  0.3313  1.4773 -0.6258
  821MOL0     C10764   5.092   7.307   9.900  0.4913  0.0950 -0.6569
  821MOL0     C10765   5.163   7.304   9.995  0.0167 -0.5401 -0.2204
  821MOL0     C10766   4.375   7.429   9.656  0.0011 -0.0357 -0.1903
  821MOL0     C10767   4.250   7.475   9.684 -0.6201 -0.7625  0.1951
  821MOL0     H10768   3.982   7.985   9.531 -2.1898  1.5773 -2.7041
  821MOL0     H10769   3.752   8.080   9.503  2.3305 -0.2319 -0.5689
  821MOL0     H10770   3.566   8.200   9.675  2.1091 -0.4706 -0.3790
  821MOL0     H10771   3.520   8.143   9.506  0.3330  0.0975  0.1899
  821MOL0     H10772   3.340   8.261   9.614 -1.3328  0.4520  1.8108
  821MOL0     H10773   3.313   8.096   9.554 -1.0810  0.1474  0.4994
  821MOL0     H10774   3.329   8.014   9.797 -0.1599  0.5038  0.9836
  821MOL0     H10775   3.353   8.186   9.845  0.4424  0.4507 -1.3730
  821MOL0     H10776   3.123   8.177   9.887 -2.4402  0.4703 -0.7007
  821MOL0     H10777   3.109   8.226   9.721  0.2575  2.6773  1.6670
  821MOL0     H10778   3.071   7.987   9.658  3.0507  0.2116 -0.7837
  821MOL0     H10779   3.131   7.925   9.812  0.5037  0.1425 -1.3251
  821MOL0     H10780   2.927   8.052   9.920 -2.0357  4.4037 -0.4173
  821MOL0     H10781   2.885   8.106   9.764 -0.0240  1.0155  1.4769
  821MOL0     H10782   2.857   7.849   9.690 -0.4726 -2.2223  1.0303
  821MOL0     H10783   2.913   7.810   9.850  1.9887  1.5184 -1.5717
  821MOL0     H10784   2.720   7.929   9.948 -0.7356 -1.2541  1.1423
  821MOL0     H10785   2.686   7.786   9.853  3.9993 -0.6434 -1.9049
  821MOL0     H10786   2.625   8.172   9.845  0.0645  1.2017 -2.1942
  821MOL0     H10787   2.269   8.178   9.756  0.5730 -1.0245  1.5357
  821MOL0     H10788   2.384   8.269   9.844  0.0489  2.2228 -0.4569
  821MOL0     H10789   2.372   8.268   9.547  0.5961 -3.3124  1.3391
  821MOL0     H10790   2.516   8.324   9.635 -0.7625 -0.3925 -0.1375
  821MOL0     H10791   2.400   8.524   9.602  0.2954  1.3232  3.0300
  821MOL0     H10792   2.348   8.489   9.761 -3.7869 -0.7492  1.2736
  821MOL0     H10793   2.142   8.352   9.643  1.5889 -1.1229  1.5691
  821MOL0     H10794   2.188   8.425   9.498  0.3934 -2.9023 -0.3398
  821MOL0     H10795   2.045   8.805   9.642  1.2176 -0.4802 -0.8916
  821MOL0     H10796   1.919   8.991   9.573  0.6441 -0.4587  1.0872
  821MOL0     H10797   1.754   8.984   9.501  0.6195 -2.1754 -2.2930
  821MOL0     H10798   1.784   8.954   9.678  0.9124 -3.7465 -0.0275
  821MOL0     H10799   1.457   8.921   9.290 -0.5692  0.4810 -0.8158
  821MOL0     H10800   1.234   8.956   9.217 -2.6417 -0.3901  3.6626
  821MOL0     H10801   0.992   8.601   9.101 -1.3436 -1.4213  0.0510
  821MOL0     H10802   0.917   8.683   9.249 -2.4435  3.4639 -0.6069
  821MOL0     H10803   0.848   8.783   8.966 -0.9503  1.5123  0.2477
  821MOL0     H10804   0.759   8.675   9.068 -0.8838  0.5661  1.7465
  821MOL0     H10805   0.851   8.955   9.113 -1.6523  1.8069  0.3780
  821MOL0     H10806   0.777   8.865   9.248  1.1553  1.5781 -0.3632
  821MOL0     H10807   0.657   8.937   8.979 -3.0023 -2.6934 -0.9753
  821MOL0     H10808   0.578   8.847   9.110  2.3842 -1.2659  0.9880
  821MOL0     H10809   0.696   9.136   9.164 -2.9469  2.4209 -1.3755
  821MOL0     H10810   0.613   9.040   9.265  1.5039 -2.9623 -0.7836
  821MOL0     H10811   0.525   9.156   8.998  1.3168  0.3610 -0.3075
  821MOL0     H10812   0.415   9.043   9.091 -1.0329  0.7534 -0.1075
  821MOL0     H10813   0.519   9.279   9.244 -1.4382  1.0547  0.1243
  821MOL0     H10814   0.354   9.205   9.241  0.6290 -1.0727  0.9080
  821MOL0     H10815   0.476   9.392   9.029  0.5211 -1.4962  0.2123
  821MOL0     H10816   0.364   9.430   9.161 -1.5125  1.9216 -0.6424
  821MOL0     H10817   1.151   8.524   9.228  0.2290  0.3355 -0.7964
  821MOL0     H10818   1.373   8.489   9.329 -0.6132 -1.6373 -1.2792
  821MOL0     H10819   1.707   8.495   9.461 -2.3162  2.8060 -2.7718
  821MOL0     H10820   1.911   8.407   9.552 -2.2928  0.2927  0.9872
  821MOL0     H10821   3.610   7.812   9.811  0.3749 -0.5910  0.6435
  821MOL0     H10822   3.854   7.721   9.826  3.0806  0.3147 -1.0638
  821MOL0     H10823   4.274   7.792   9.546 -0.6786  0.7735  0.8737
  821MOL0     H10824   4.505   7.703   9.518  0.7248 -0.4894 -0.2224
  821MOL0     H10825   4.644   7.517   9.782 -2.4777 -0.8958  0.0970
  821MOL0     H10826   4.633   7.348   9.725  0.7108  0.3558  1.6049
  821MOL0     H10827   4.860   7.506   9.608  0.6744 -0.7282 -0.2762
  821MOL0     H10828   4.826   7.333   9.624 -0.7862  0.3882 -1.1768
  821MOL0     H10829   4.836   7.382   9.875 -0.7388 -0.5456 -0.5254
  821MOL0     H10830   4.941   7.511   9.835  1.7980 -2.8533  2.5822
  821MOL0     H10831   5.099   7.399   9.724  1.0030  1.0937 -0.1842
  821MOL0     H10832   5.006   7.239   9.715 -2.0367  0.6040  1.5411
  821MOL0     H10833   5.226   7.299  10.082  1.8187  1.3287 -1.3439
  821MOL0     H10834   4.395   7.324   9.673  0.0449 -0.1032 -0.6401
  821MOL0     H10835   4.168   7.418   9.727 -1.2445 -2.0232 -2.4076
  822MOL0     O10836   5.353   6.623   9.002  0.3086 -0.3739  0.4188
  822MOL0     C10837   5.451   6.616   8.924  0.3868  0.1321  0.3043
  822MOL0     O10838   5.478   6.716   8.841 -0.0255  0.6922  0.0696
  822MOL0     C10839   5.372   6.786   8.788  0.6248 -0.8019  1.0941
  822MOL0     C10840   5.256   6.737   8.718 -0.0067 -0.8953  0.1140
  822MOL0     C10841   5.158   6.823   8.676  0.3394 -0.5523 -0.1596
  822MOL0     C10842   5.161   6.968   8.704 -0.6946 -0.0305  0.1957
  822MOL0     O10843   5.052   7.042   8.669 -0.0407  0.3694 -0.0400
  822MOL0     C10844   5.042   7.181   8.711  0.4806  0.5193 -1.1031
  822MOL0     C10845   4.963   7.195   8.839  0.1573  0.0323 -0.2136
  822MOL0     C10846   4.814   7.138   8.821  0.1823 -1.1176 -0.5960
  822MOL0     C10847   4.708   7.253   8.822  1.1310  0.8819  0.3510
  822MOL0     C10848   4.569   7.205   8.778  0.5519  0.4127 -0.3590
  822MOL0     C10849   4.466   7.318   8.775 -1.2389 -0.5838 -0.4340
  822MOL0     C10850   4.422   7.345   8.918  0.1148  0.4183 -0.9150
  822MOL0     C10851   4.318   7.462   8.914 -0.2383 -0.1364 -0.3543
  822MOL0     N10852   4.267   7.511   9.042 -0.3478  0.0770  0.0610
  822MOL0     C10853   4.146   7.549   9.071  0.4851  0.2540 -0.2834
  822MOL0     C10854   4.148   7.610   9.191 -0.7953  0.5602 -0.2860
  822MOL0     C10855   4.046   7.657   9.278 -0.1383 -0.0374  0.5369
  822MOL0     C10856   3.913   7.611   9.227 -0.3801 -0.0569 -0.5883
  822MOL0     C10857   3.805   7.650   9.330  0.1197 -0.1493 -0.6116
  822MOL0     C10858   3.657   7.614   9.309  0.4401 -0.2279  0.6994
  822MOL0     O10859   3.577   7.670   9.417  0.3667 -0.0971  0.3536
  822MOL0     C10860   3.454   7.616   9.450 -1.0016 -0.2087  0.2322
  822MOL0     C10861   3.365   7.582   9.346  1.6858  0.3421 -0.2441
  822MOL0     C10862   3.233   7.531   9.367  0.0505 -1.6791 -1.1874
  822MOL0     C10863   3.166   7.503   9.243  0.8186  0.3838  0.3149
  822MOL0     C10864   3.181   7.521   9.497 -0.1520 -0.2183  0.2735
  822MOL0     C10865   3.042   7.497   9.523 -0.0729 -0.0593 -0.8885
  822MOL0     O10866   2.999   7.509   9.656  0.6680 -0.0913  0.0495
  822MOL0     C10867   2.872   7.489   9.692  1.2404  0.3077 -0.2587
  822MOL0     C10868   2.848   7.381   9.787 -1.3957  0.1595 -0.7021
  822MOL0     C10869   2.713   7.362   9.831 -0.1154  0.3437 -0.7189
  822MOL0     C10870   2.608   7.434   9.782  0.3619 -0.6313  0.1322
  822MOL0     O10871   2.478   7.405   9.812 -0.3918  0.4579 -0.0779
  822MOL0     C10872   2.435   7.278   9.776  0.7175  0.3596 -0.0578
  822MOL0     C10873   2.283   7.265   9.780  0.1759 -0.7976 -0.1869
  822MOL0     C10874   2.205   7.330   9.662  0.0326 -0.4906  0.1946
  822MOL0     C10875   2.057   7.287   9.676  0.0779  0.2191  0.1396
  822MOL0     C10876   1.971   7.321   9.555  0.4876 -0.5415  0.1328
  822MOL0     C10877   1.822   7.319   9.593 -0.1821  0.2837 -0.0686
  822MOL0     C10878   1.729   7.369   9.483 -0.2454  0.7537 -0.3051
  822MOL0     C10879   1.735   7.294   9.349  0.3760  0.1123 -0.5094
  822MOL0    Cl10880   1.647   7.384   9.219  0.5189  0.1504  0.0920
  822MOL0     C10881   2.634   7.539   9.691  1.2671  0.6735  1.1582
  822MOL0     C10882   2.769   7.565   9.642  0.3171 -0.2825 -0.0321
  822MOL0     O10883   2.973   7.446   9.437  0.3392 -0.3252  0.0727
  822MOL0     C10884   3.277   7.551   9.601 -0.4326  0.5808 -0.6055
  822MOL0     C10885   3.406   7.596   9.580 -0.1942  0.2823 -0.4012
  822MOL0     N10886   4.286   7.622   9.225 -0.6130 -0.6013 -0.2617
  822MOL0     N10887   4.357   7.565   9.132 -0.0805 -0.8143 -0.3654
  822MOL0     C10888   5.276   7.011   8.768  0.3699 -0.7895 -0.1855
  822MOL0     C10889   5.378   6.922   8.804 -0.6508  0.4718  0.8274
  822MOL0     C10890   5.548   6.506   8.961 -0.4522 -0.9918 -0.3435
  822MOL0     C10891   5.654   6.474   8.882 -0.3030  0.4973  0.2523
  822MOL0     C10892   5.760   6.381   8.909 -0.1073  0.4010  0.1351
  822MOL0     C10893   5.753   6.315   9.031 -0.4172  0.1632 -0.4418
  822MOL0     O10894   5.837   6.216   9.071 -0.6908 -0.5678  0.4009
  822MOL0     C10895   5.956   6.180   9.001 -0.6418 -0.0428 -0.3960
  822MOL0     C10896   6.057   6.131   9.112  0.0887  0.1018 -0.0468
  822MOL0     C10897   6.185   6.054   9.056 -0.7292  0.2276 -0.3513
  822MOL0     C10898   6.145   5.924   8.979  0.4136  0.1325 -0.2357
  822MOL0     C10899   6.265   5.849   8.951  0.1004  0.5363  0.4030
  822MOL0     C10900   6.359   5.772   8.921 -0.7031 -0.6337  0.0066
  822MOL0     C10901   5.641   6.343   9.115  0.2663  0.4231 -0.2442
  822MOL0     C10902   5.545   6.437   9.077 -0.7107  0.5551  0.5261
  822MOL0     H10903   5.239   6.631   8.702  2.1883 -1.3444  0.3419
  822MOL0     H10904   5.086   6.790   8.602  2.4534 -1.8167 -1.7768
  822MOL0     H10905   5.143   7.222   8.717  1.4595 -1.9219  0.5166
  822MOL0     H10906   5.009   7.248   8.631 -1.4568  0.0879 -0.7221
  822MOL0     H10907   5.009   7.126   8.910 -1.7230 -0.6051  0.4519
  822MOL0     H10908   4.972   7.296   8.879  1.8706  0.9711 -2.7725
  822MOL0     H10909   4.797   7.074   8.734  1.6625 -4.9026  1.6660
  822MOL0     H10910   4.785   7.082   8.910  2.6606  0.5059  1.3951
  822MOL0     H10911   4.691   7.302   8.918 -3.4412  1.1308 -0.3392
  822MOL0     H10912   4.735   7.338   8.758  2.4288  1.2825  1.3958
  822MOL0     H10913   4.574   7.170   8.674 -0.7037  0.8915 -0.5945
  822MOL0     H10914   4.528   7.130   8.846 -2.7120  1.7157 -0.7137
  822MOL0     H10915   4.511   7.409   8.734  0.5634 -1.1604  0.1545
  822MOL0     H10916   4.382   7.300   8.707  0.2332  0.1613 -2.5626
  822MOL0     H10917   4.379   7.259   8.969  1.3718 -0.2873 -1.0104
  822MOL0     H10918   4.497   7.379   8.991 -1.0915  0.2761  0.4423
  822MOL0     H10919   4.232   7.434   8.853 -1.1438  3.8396 -1.2206
  822MOL0     H10920   4.356   7.556   8.873 -0.1115 -0.5087 -1.1070
  822MOL0     H10921   4.065   7.539   8.999 -0.5929  1.7560  0.6718
  822MOL0     H10922   4.061   7.624   9.381 -3.1940 -2.3152  0.4184
  822MOL0     H10923   4.038   7.765   9.260 -0.9865 -0.4344 -1.9382
  822MOL0     H10924   3.925   7.503   9.221  3.2168  0.2908 -2.8088
  822MOL0     H10925   3.910   7.660   9.129  0.1658 -1.2279 -1.2003
  822MOL0     H10926   3.809   7.758   9.345 -0.0141 -0.1323 -0.6860
  822MOL0     H10927   3.844   7.623   9.428 -1.8375 -1.3762 -0.0967
  822MOL0     H10928   3.641   7.506   9.306 -1.8497  0.0288 -2.7684
  822MOL0     H10929   3.620   7.659   9.216  0.6090 -2.8017 -0.6866
  822MOL0     H10930   3.405   7.593   9.245  0.5705  4.1045 -0.4494
  822MOL0     H10931   3.072   7.556   9.224  2.0368  2.0022 -1.5724
  822MOL0     H10932   3.237   7.523   9.162  1.8808  1.4314  1.4645
  822MOL0     H10933   3.150   7.395   9.236  0.5462  0.3742  1.0169
  822MOL0     H10934   2.933   7.324   9.824  0.9066  2.4535 -2.0983
  822MOL0     H10935   2.684   7.280   9.896 -1.7176  0.7335 -0.9157
  822MOL0     H10936   2.468   7.262   9.673 -0.1348  2.3872 -0.6954
  822MOL0     H10937   2.482   7.207   9.845  0.1245  1.2859  1.3526
  822MOL0     H10938   2.267   7.157   9.791 -1.2023 -0.5188  0.7105
  822MOL0     H10939   2.245   7.308   9.873  3.6527 -0.1349  1.0878
  822MOL0     H10940   2.258   7.284   9.579  1.3491 -3.0337  2.2838
  822MOL0     H10941   2.223   7.438   9.660  0.5868 -0.5635 -2.7828
  822MOL0     H10942   2.060   7.178   9.681  1.2636  0.1026 -1.9381
  822MOL0     H10943   2.010   7.328   9.766 -1.0900 -1.9877  0.6178
  822MOL0     H10944   1.996   7.254   9.472  0.4879  3.6734 -3.6326
  822MOL0     H10945   1.993   7.422   9.520  0.6875 -0.3800  0.7092
  822MOL0     H10946   1.791   7.220   9.627 -3.0277  0.6921 -1.1357
  822MOL0     H10947   1.811   7.387   9.678 -0.6857 -0.4519  0.4695
  822MOL0     H10948   1.766   7.468   9.454 -0.7779  0.7806 -0.9122
  822MOL0     H10949   1.623   7.387   9.505 -0.5975 -1.1965 -0.2541
  822MOL0     H10950   1.675   7.202   9.355 -2.1768  1.6305 -1.3930
  822MOL0     H10951   1.839   7.283   9.318  0.7607  0.4438  0.6095
  822MOL0     H10952   2.551   7.599   9.656  1.5249  1.0666  1.2178
  822MOL0     H10953   2.803   7.649   9.582  2.1126  1.2837  2.9375
  822MOL0     H10954   3.240   7.558   9.702  1.9020  1.1806  0.2901
  822MOL0     H10955   3.471   7.628   9.661  0.8269 -0.3050 -0.9729
  822MOL0     H10956   5.301   7.110   8.805  1.1873 -0.2505 -2.0669
  822MOL0     H10957   5.468   6.954   8.856 -1.6517  0.3795  2.7072
  822MOL0     H10958   5.675   6.514   8.784  2.5377 -1.6128 -0.1216
  822MOL0     H10959   5.842   6.371   8.837 -2.2429  1.3552 -2.6302
  822MOL0     H10960   5.951   6.101   8.925  1.0567  2.5309 -3.4420
  822MOL0     H10961   6.003   6.268   8.956  2.7321 -1.3274  0.3294
  822MOL0     H10962   6.013   6.063   9.185  1.8965  0.5606  1.5817
  822MOL0     H10963   6.095   6.209   9.180 -1.2642 -0.3432  1.2691
  822MOL0     H10964   6.247   6.029   9.142 -2.3049 -0.9586  0.4938
  822MOL0     H10965   6.244   6.125   8.998 -0.7357  1.7411  1.3866
  822MOL0     H10966   6.089   5.947   8.888 -2.6775  2.3518  1.9992
  822MOL0     H10967   6.076   5.867   9.042 -0.6528  1.8718  0.2499
  822MOL0     H10968   6.453   5.728   8.896 -1.0058 -1.1762 -0.1897
  822MOL0     H10969   5.629   6.299   9.214  2.0543 -1.1058 -0.6667
  822MOL0     H10970   5.486   6.469   9.162 -0.2448 -2.0158  1.9063
  823MOL0     O10971  10.775  10.173   7.751 -0.1144  0.0058 -0.2489
  823MOL0     C10972  10.750  10.216   7.642  0.6537  0.2007 -0.0800
  823MOL0     O10973  10.624  10.262   7.596  0.1773 -0.2925 -0.1957
  823MOL0     C10974  10.521  10.246   7.685  0.3115 -0.1838 -0.5764
  823MOL0     C10975  10.437  10.143   7.661  0.0708  0.9333  0.6462
  823MOL0     C10976  10.324  10.118   7.742 -0.3467  0.0676 -0.3238
  823MOL0     C10977  10.301  10.213   7.849  0.3237  0.5106  0.2907
  823MOL0     O10978  10.197  10.201   7.938  0.0691  0.6181 -0.4332
  823MOL0     C10979  10.095  10.101   7.914 -0.0029  0.8267  0.0308
  823MOL0     C10980  10.010  10.121   8.040  0.6685  0.3485  0.2537
  823MOL0     C10981   9.933  10.255   8.023  0.0780  0.2449  0.4432
  823MOL0     C10982   9.871  10.278   8.162  0.4880 -0.3133  0.1092
  823MOL0     C10983   9.802  10.423   8.188  0.1218  0.7745 -0.0469
  823MOL0     C10984   9.746  10.427   8.330 -0.1750  0.3534 -0.3235
  823MOL0     C10985   9.719  10.573   8.368 -0.8346  0.2061  0.5208
  823MOL0     C10986   9.679  10.598   8.508  0.8905 -0.3211 -0.8002
  823MOL0     N10987   9.743  10.514   8.610 -0.1236  0.4809 -0.1821
  823MOL0     C10988   9.870  10.542   8.654  0.7319 -0.4092 -0.0301
  823MOL0     C10989   9.920  10.423   8.688 -1.1269  0.5382 -0.5072
  823MOL0     C10990  10.066  10.396   8.717  0.1445 -0.0595  0.1192
  823MOL0     C10991  10.092  10.417   8.866  0.2247  0.0150  0.2358
  823MOL0     C10992  10.236  10.386   8.906 -1.0586  0.4158 -0.7149
  823MOL0     C10993  10.275  10.233   8.892 -0.5724  0.8359 -1.3500
  823MOL0     O10994  10.385  10.208   8.989 -0.1501 -0.5772 -0.6599
  823MOL0     C10995  10.506  10.275   8.977 -0.1852  0.3531 -0.1421
  823MOL0     C10996  10.556  10.328   8.856  0.4287  0.2836 -1.1446
  823MOL0     C10997  10.670  10.394   8.847  0.0506 -0.2297  0.3799
  823MOL0     C10998  10.699  10.441   8.703 -0.2242 -0.2260 -1.1624
  823MOL0     C10999  10.759  10.397   8.963 -0.1382  0.1788 -0.2260
  823MOL0     C11000  10.886  10.463   8.965  0.7983  0.6578 -0.3591
  823MOL0     O11001  10.923  10.502   9.091  0.0510  0.3446 -0.7195
  823MOL0     C11002  11.051  10.551   9.114 -0.5685 -0.1935  0.2117
  823MOL0     C11003  11.081  10.693   9.112  0.4981  0.6453 -0.0109
  823MOL0     C11004  11.208  10.733   9.140  0.4091 -0.2620  0.0978
  823MOL0     C11005  11.312  10.643   9.173  0.0814  0.4799  0.5851
  823MOL0     O11006  11.443  10.659   9.194  0.3838 -0.0204  0.1381
  823MOL0     C11007  11.494  10.788   9.172 -0.3733 -0.1965 -0.1728
  823MOL0     C11008  11.625  10.824   9.239 -0.1537  0.8468 -0.1808
  823MOL0     C11009  11.742  10.727   9.189 -0.1535 -0.0384  0.5305
  823MOL0     C11010  11.873  10.788   9.248  0.4512 -0.0561 -0.4840
  823MOL0     C11011  11.993  10.728   9.182 -0.5055  0.4278 -0.4262
  823MOL0     C11012  12.027  10.594   9.229  0.6983  1.0567  0.2890
  823MOL0     C11013  12.154  10.540   9.168 -0.1671  0.8669 -0.1971
  823MOL0     C11014  12.181  10.401   9.227  0.3235  0.1000 -0.0678
  823MOL0    Cl11015  12.334  10.330   9.158 -0.0171  0.1062  0.0745
  823MOL0     C11016  11.282  10.509   9.172  0.6444 -0.2741 -0.0456
  823MOL0     C11017  11.155  10.469   9.148  0.0807  0.7846 -0.1745
  823MOL0     O11018  10.940  10.487   8.858 -0.1149 -0.3933 -1.1301
  823MOL0     C11019  10.713  10.336   9.090  0.2921 -0.0494  0.9309
  823MOL0     C11020  10.586  10.277   9.088  0.4180  0.3573 -0.6057
  823MOL0     N11021   9.814  10.334   8.693  0.4897 -0.0964  0.0883
  823MOL0     N11022   9.714  10.389   8.635  0.5978  0.8209 -0.2411
  823MOL0     C11023  10.390  10.320   7.867 -0.4286  0.5375  0.1054
  823MOL0     C11024  10.492  10.340   7.786  0.0367 -0.0104  0.4243
  823MOL0     C11025  10.849  10.193   7.533 -0.0490  0.3563 -0.5859
  823MOL0     C11026  10.966  10.130   7.567 -0.3417  0.0363  0.7831
  823MOL0     C11027  11.063  10.122   7.466 -0.6021 -1.7800 -0.4319
  823MOL0     C11028  11.051  10.163   7.332  0.5650 -0.6144 -0.9860
  823MOL0     O11029  11.157  10.137   7.249  0.4359 -0.6539  0.1032
  823MOL0     C11030  11.132  10.143   7.107  0.7351 -0.5110  0.2248
  823MOL0     C11031  11.193  10.011   7.045  0.0237 -0.0231  0.2490
  823MOL0     C11032  11.134   9.883   7.120 -0.7514 -0.7757 -0.2050
  823MOL0     C11033  11.156   9.754   7.039 -0.0225  0.1944 -0.6455
  823MOL0     C11034  11.082   9.741   6.909  0.0509 -0.3926 -0.4954
  823MOL0     C11035  11.019   9.721   6.806  0.1597  0.0702 -0.9613
  823MOL0     C11036  10.935  10.231   7.304 -0.3963  0.0020  0.7081
  823MOL0     C11037  10.837  10.246   7.401  0.4351  0.4134 -0.7880
  823MOL0     H11038  10.463  10.073   7.583  2.9267 -0.6266  2.8211
  823MOL0     H11039  10.262  10.031   7.726  1.1948 -1.2418  0.6314
  823MOL0     H11040  10.034  10.121   7.826 -2.5168 -0.3345  1.3825
  823MOL0     H11041  10.142  10.002   7.913  2.2731  1.8372  0.8437
  823MOL0     H11042   9.941  10.036   8.037 -2.1787  2.5492 -0.4175
  823MOL0     H11043  10.068  10.116   8.132  0.5127 -2.2654  0.2989
  823MOL0     H11044   9.994  10.343   7.998 -0.2337  0.9222  1.9806
  823MOL0     H11045   9.855  10.259   7.946  0.5483  2.2413  0.0077
  823MOL0     H11046   9.815  10.187   8.188 -0.5454  0.3010  0.0853
  823MOL0     H11047   9.941  10.281   8.246 -0.3251  1.2507  0.7830
  823MOL0     H11048   9.881  10.497   8.175 -0.3388  1.4612  0.8976
  823MOL0     H11049   9.729  10.434   8.107  0.8794  0.5715 -0.7737
  823MOL0     H11050   9.658  10.364   8.315  1.4822 -2.0862 -0.5090
  823MOL0     H11051   9.821  10.380   8.396 -1.3626 -2.7322 -0.9851
  823MOL0     H11052   9.804  10.641   8.351 -1.5305  1.6921  2.5781
  823MOL0     H11053   9.641  10.601   8.296  0.7965 -1.7639 -2.2064
  823MOL0     H11054   9.572  10.576   8.501  0.7642  0.2457 -0.6876
  823MOL0     H11055   9.698  10.702   8.535  3.6726 -1.0863  0.6529
  823MOL0     H11056   9.908  10.643   8.657 -0.8308  0.2532 -1.0636
  823MOL0     H11057  10.083  10.290   8.694 -0.9400 -0.1527 -0.3118
  823MOL0     H11058  10.123  10.454   8.644 -0.6066 -2.2762 -2.4114
  823MOL0     H11059  10.028  10.344   8.916 -2.3896 -1.1671 -4.2594
  823MOL0     H11060  10.077  10.523   8.889  0.6338 -0.2498  1.8585
  823MOL0     H11061  10.248  10.418   9.010 -3.5508  2.0961 -0.8535
  823MOL0     H11062  10.311  10.441   8.850  0.3603 -2.2066 -1.5549
  823MOL0     H11063  10.315  10.196   8.797  1.2470  0.3024 -0.4254
  823MOL0     H11064  10.194  10.168   8.925 -0.0186  1.4965  1.7093
  823MOL0     H11065  10.478  10.314   8.782  0.6695 -0.4314 -1.2707
  823MOL0     H11066  10.623  10.441   8.624 -0.4196  0.6574 -0.9877
  823MOL0     H11067  10.747  10.539   8.715 -1.2246  0.2958 -1.3454
  823MOL0     H11068  10.779  10.378   8.662  1.1154  1.1274 -0.7458
  823MOL0     H11069  10.997  10.753   9.079  0.9924  1.0374 -0.5890
  823MOL0     H11070  11.224  10.840   9.136  0.0076 -0.1738  0.7736
  823MOL0     H11071  11.506  10.820   9.068 -3.5027  4.6490  0.6136
  823MOL0     H11072  11.429  10.866   9.211  2.1303  1.4899  0.8948
  823MOL0     H11073  11.655  10.928   9.220 -0.4483  0.6622 -1.8052
  823MOL0     H11074  11.603  10.807   9.345 -3.0389 -0.7052 -0.9294
  823MOL0     H11075  11.750  10.720   9.080  0.7850 -2.4057  0.6908
  823MOL0     H11076  11.722  10.623   9.217  1.7693 -0.7262 -0.5234
  823MOL0     H11077  11.869  10.897   9.236  2.4422 -0.0963 -1.9502
  823MOL0     H11078  11.885  10.770   9.355  1.1057  2.3758 -0.0911
  823MOL0     H11079  12.080  10.787   9.209 -1.2194  0.3360  2.3943
  823MOL0     H11080  11.976  10.725   9.074 -3.9812  1.9658 -0.0562
  823MOL0     H11081  12.050  10.597   9.336 -0.2303  0.2833  0.5202
  823MOL0     H11082  11.939  10.535   9.201 -0.3427  2.6865  0.0429
  823MOL0     H11083  12.238  10.605   9.192  1.0540 -0.0963 -1.6770
  823MOL0     H11084  12.145  10.536   9.059  2.7941 -0.1319 -0.4861
  823MOL0     H11085  12.106  10.327   9.197  1.8687 -1.7386  0.3963
  823MOL0     H11086  12.185  10.400   9.336  2.3540 -2.0125 -0.0857
  823MOL0     H11087  11.363  10.442   9.200  1.7842 -0.4032 -3.3186
  823MOL0     H11088  11.155  10.363   9.170 -3.3157  0.9836  1.4482
  823MOL0     H11089  10.763  10.339   9.186 -3.0338 -2.3369  2.9319
  823MOL0     H11090  10.556  10.225   9.178  3.3430 -3.8048 -1.6882
  823MOL0     H11091  10.367  10.394   7.943  0.3616  3.7595 -2.5575
  823MOL0     H11092  10.545  10.435   7.795  0.7486 -0.1125 -1.9778
  823MOL0     H11093  10.999  10.110   7.668 -0.4614  2.4908  1.3744
  823MOL0     H11094  11.162  10.083   7.487  0.2614  0.3335 -0.3350
  823MOL0     H11095  11.025  10.139   7.084  0.9492  0.7820 -1.1322
  823MOL0     H11096  11.169  10.237   7.065 -0.2896 -0.0499  0.3221
  823MOL0     H11097  11.301  10.027   7.053 -0.2812  1.9091  0.9486
  823MOL0     H11098  11.170  10.014   6.938  1.2373  1.5677 -0.0017
  823MOL0     H11099  11.029   9.894   7.150 -0.6451 -0.2517 -0.0214
  823MOL0     H11100  11.191   9.875   7.213 -3.8542  1.6661  2.1082
  823MOL0     H11101  11.123   9.670   7.101  0.2038  1.5144  1.3607
  823MOL0     H11102  11.265   9.754   7.034  0.0934  1.8773  1.0259
  823MOL0     H11103  10.966   9.701   6.715  0.5994  1.3172 -1.5112
  823MOL0     H11104  10.933  10.290   7.213  2.2971 -0.2293  0.4437
  823MOL0     H11105  10.749  10.299   7.365 -1.7351 -1.7733  0.9286
  824MOL0     O11106   6.135   3.229   5.159  0.1124 -0.0696 -0.2410
  824MOL0     C11107   6.120   3.198   5.279 -0.3984 -0.2242  0.6124
  824MOL0     O11108   6.003   3.179   5.339 -0.1091  0.1540  0.1329
  824MOL0     C11109   5.887   3.214   5.274  0.2039  1.2767  0.3710
  824MOL0     C11110   5.782   3.126   5.288  0.0583  0.2982  0.0052
  824MOL0     C11111   5.677   3.144   5.205  0.0610 -0.2857  0.1363
  824MOL0     C11112   5.654   3.260   5.134  0.7159 -0.4011  0.0901
  824MOL0     O11113   5.531   3.270   5.065 -0.3136  0.1964 -0.3433
  824MOL0     C11114   5.480   3.398   5.026 -1.0948 -0.4646 -0.1974
  824MOL0     C11115   5.337   3.408   5.002  0.1216 -0.6382  0.1326
  824MOL0     C11116   5.247   3.364   5.128 -0.0518 -0.8064  0.8463
  824MOL0     C11117   5.097   3.396   5.107  0.0265 -0.6295 -0.7841
  824MOL0     C11118   5.023   3.397   5.242  0.9848 -0.3017  0.2355
  824MOL0     C11119   4.870   3.423   5.227 -1.5292 -0.8732  0.5234
  824MOL0     C11120   4.806   3.441   5.369  0.6262  0.9083 -0.1621
  824MOL0     C11121   4.834   3.582   5.424 -0.6474 -0.2437 -1.0049
  824MOL0     N11122   4.746   3.674   5.353  0.1038  0.3152 -1.0570
  824MOL0     C11123   4.611   3.651   5.340 -0.4266 -0.3253  0.6100
  824MOL0     C11124   4.577   3.771   5.289 -0.4121 -0.1282 -0.6466
  824MOL0     C11125   4.440   3.815   5.257 -0.0459 -0.2482  0.3746
  824MOL0     C11126   4.331   3.706   5.242  0.3321  0.2366  0.1225
  824MOL0     C11127   4.242   3.724   5.366 -0.3094  0.1674  0.4500
  824MOL0     C11128   4.126   3.624   5.353  0.3488  0.8398 -0.5315
  824MOL0     O11129   4.049   3.636   5.467 -0.1149 -0.2523  0.0641
  824MOL0     C11130   3.914   3.655   5.469 -0.6524  0.4065  1.1834
  824MOL0     C11131   3.835   3.605   5.370 -0.6641 -0.0658  0.3648
  824MOL0     C11132   3.693   3.628   5.368 -0.9987  0.8904 -0.4063
  824MOL0     C11133   3.629   3.591   5.242 -0.3594 -0.0757 -0.7031
  824MOL0     C11134   3.628   3.690   5.473  0.5361 -0.6429  0.4177
  824MOL0     C11135   3.480   3.727   5.481 -0.9789  0.6016 -0.3142
  824MOL0     O11136   3.450   3.825   5.576 -0.6816 -0.8830  0.2958
  824MOL0     C11137   3.329   3.884   5.567 -0.1160 -0.7387 -0.6488
  824MOL0     C11138   3.211   3.834   5.625  0.0811  0.4619 -0.1073
  824MOL0     C11139   3.092   3.896   5.618 -0.5254 -0.0540 -0.5244
  824MOL0     C11140   3.085   4.026   5.551 -0.4042 -0.2164 -0.6482
  824MOL0     O11141   2.966   4.094   5.527  0.5093  0.4231 -0.7161
  824MOL0     C11142   2.896   4.144   5.643 -0.2168  0.2041  0.1066
  824MOL0     C11143   2.801   4.245   5.581  0.8677  0.1353  0.1950
  824MOL0     C11144   2.741   4.343   5.684 -0.3636  0.3466  0.4468
  824MOL0     C11145   2.675   4.260   5.795 -0.7894  0.6665  0.3518
  824MOL0     C11146   2.613   4.354   5.902  0.1773 -0.6933 -0.2128
  824MOL0     C11147   2.541   4.265   6.001  0.0944  0.6072  0.4864
  824MOL0     C11148   2.446   4.351   6.080 -0.3532 -0.2633  0.0133
  824MOL0     C11149   2.513   4.450   6.166  1.0210 -0.4166 -0.5543
  824MOL0    Cl11150   2.385   4.506   6.288 -0.1813 -0.1259  0.5237
  824MOL0     C11151   3.201   4.074   5.486  0.1659 -0.1113 -0.0838
  824MOL0     C11152   3.320   4.005   5.501 -0.3192  1.3116  1.0038
  824MOL0     O11153   3.401   3.658   5.409 -0.0381  0.1123 -0.2458
  824MOL0     C11154   3.709   3.744   5.573 -0.4387 -0.1833  0.0260
  824MOL0     C11155   3.849   3.728   5.574  0.4026  0.7153  0.5061
  824MOL0     N11156   4.684   3.854   5.263 -0.6330  0.0706 -0.4064
  824MOL0     N11157   4.787   3.788   5.300 -0.1600  0.6873 -0.2423
  824MOL0     C11158   5.748   3.359   5.139 -0.1075  0.4531 -0.1888
  824MOL0     C11159   5.874   3.333   5.205  0.2210  0.2019 -0.2668
  824MOL0     C11160   6.239   3.175   5.357 -0.1741  0.9384  0.6558
  824MOL0     C11161   6.367   3.186   5.307  0.8318 -0.3516  0.6093
  824MOL0     C11162   6.485   3.180   5.378 -0.4310  0.7101 -0.0929
  824MOL0     C11163   6.473   3.164   5.517 -0.7279  1.0279 -0.1388
  824MOL0     O11164   6.580   3.152   5.603  0.2189 -0.0562 -0.0836
  824MOL0     C11165   6.710   3.082   5.568  1.1350  0.4851  0.5197
  824MOL0     C11166   6.700   2.933   5.540 -0.4595 -0.5994  0.3504
  824MOL0     C11167   6.656   2.871   5.675  0.0698 -0.2545 -0.2938
  824MOL0     C11168   6.664   2.725   5.678 -0.7072 -0.7571 -0.3801
  824MOL0     C11169   6.624   2.679   5.803 -1.3595  0.4706  0.4129
  824MOL0     C11170   6.610   2.633   5.910  0.0874  0.9680  0.8325
  824MOL0     C11171   6.347   3.151   5.572  0.4037  0.3145 -0.7021
  824MOL0     C11172   6.228   3.148   5.497  0.4127 -0.3513  0.8851
  824MOL0     H11173   5.799   3.040   5.352 -0.5302 -0.0962 -0.3559
  824MOL0     H11174   5.598   3.070   5.205 -0.6560  0.4646 -0.5796
  824MOL0     H11175   5.479   3.461   5.115 -4.2747 -0.3772 -0.1800
  824MOL0     H11176   5.536   3.436   4.940 -1.2979 -0.0827 -0.1621
  824MOL0     H11177   5.303   3.502   4.957 -1.2160  0.1097  2.4964
  824MOL0     H11178   5.327   3.334   4.922 -0.5912  0.4858 -0.8633
  824MOL0     H11179   5.266   3.257   5.137  1.4160 -0.7709 -1.2820
  824MOL0     H11180   5.280   3.419   5.217  2.1204 -0.7530  0.0635
  824MOL0     H11181   5.088   3.494   5.060 -1.7335 -0.2090  0.2977
  824MOL0     H11182   5.060   3.327   5.031 -0.8886  0.8351 -1.7109
  824MOL0     H11183   5.023   3.302   5.296  2.9018  0.7592  2.2557
  824MOL0     H11184   5.072   3.473   5.303  3.1456 -0.0516 -1.7100
  824MOL0     H11185   4.856   3.520   5.177  0.8178 -0.8533 -0.2219
  824MOL0     H11186   4.808   3.355   5.169 -1.1248 -0.0507 -0.9317
  824MOL0     H11187   4.702   3.410   5.379  1.1185 -0.1602  2.4826
  824MOL0     H11188   4.868   3.375   5.430 -0.3961  1.5808  1.6635
  824MOL0     H11189   4.940   3.609   5.423 -0.3180 -1.2809  1.1604
  824MOL0     H11190   4.799   3.584   5.528  0.8108 -2.0378 -0.4260
  824MOL0     H11191   4.538   3.577   5.371 -1.0545  0.7417  1.7519
  824MOL0     H11192   4.410   3.885   5.335 -1.6743 -0.0563 -0.4023
  824MOL0     H11193   4.441   3.878   5.168 -0.7523 -0.8211 -0.0486
  824MOL0     H11194   4.368   3.603   5.238 -2.5445 -0.8687  0.1628
  824MOL0     H11195   4.282   3.731   5.148  0.1785 -0.4132  0.0276
  824MOL0     H11196   4.208   3.828   5.375 -0.9682  0.0464 -0.4471
  824MOL0     H11197   4.305   3.697   5.451 -0.2533 -0.6545  0.1505
  824MOL0     H11198   4.166   3.523   5.335 -1.5306  0.3342 -2.2881
  824MOL0     H11199   4.071   3.653   5.263  0.9319 -1.4580 -1.7122
  824MOL0     H11200   3.882   3.558   5.284 -2.2428  1.3592 -1.3732
  824MOL0     H11201   3.556   3.669   5.217 -0.9822  0.3507  2.0807
  824MOL0     H11202   3.708   3.585   5.167 -0.5574 -1.6545 -0.8333
  824MOL0     H11203   3.587   3.490   5.241 -1.0685  0.2039 -2.2776
  824MOL0     H11204   3.200   3.736   5.670 -1.8635  0.4692 -0.4947
  824MOL0     H11205   3.005   3.852   5.664 -0.4394 -0.5780 -0.8514
  824MOL0     H11206   2.840   4.058   5.683 -0.3769 -0.0686 -0.6911
  824MOL0     H11207   2.951   4.188   5.727  0.0351  0.0536  0.0224
  824MOL0     H11208   2.862   4.313   5.521  1.3538 -1.5394 -1.3173
  824MOL0     H11209   2.722   4.199   5.520 -1.3225  1.5217  1.8230
  824MOL0     H11210   2.665   4.410   5.641 -1.8915  0.0005  2.4581
  824MOL0     H11211   2.824   4.403   5.723  1.4343 -1.1150 -0.9723
  824MOL0     H11212   2.609   4.199   5.734  2.4544 -1.2188 -1.5466
  824MOL0     H11213   2.749   4.198   5.847 -0.0193  0.4627 -0.9384
  824MOL0     H11214   2.542   4.428   5.864  0.7465  0.7295  1.3824
  824MOL0     H11215   2.690   4.410   5.956 -0.5560 -0.6022  0.7668
  824MOL0     H11216   2.491   4.187   5.943 -2.0978  2.0150  0.3765
  824MOL0     H11217   2.614   4.212   6.063  0.4871 -0.4752 -0.8579
  824MOL0     H11218   2.393   4.281   6.146  0.4331 -1.2278 -0.3583
  824MOL0     H11219   2.378   4.408   6.016  0.5484  1.6954  0.7183
  824MOL0     H11220   2.542   4.539   6.110 -3.7810  0.5080 -2.1021
  824MOL0     H11221   2.589   4.412   6.235  0.6732  0.2998  0.2427
  824MOL0     H11222   3.201   4.170   5.435  1.1523  1.2534  2.3332
  824MOL0     H11223   3.409   4.040   5.450  0.2574 -1.1849  0.1549
  824MOL0     H11224   3.666   3.810   5.647  1.3087  0.7352  0.2719
  824MOL0     H11225   3.917   3.765   5.650 -0.2434  1.0866  0.9116
  824MOL0     H11226   5.752   3.459   5.095  3.0001  1.1621  1.4169
  824MOL0     H11227   5.954   3.405   5.205  0.7882 -0.4199 -0.1373
  824MOL0     H11228   6.384   3.213   5.203  1.2139  0.1766  0.8080
  824MOL0     H11229   6.581   3.184   5.329  0.6182 -3.1859  1.3099
  824MOL0     H11230   6.748   3.120   5.473 -0.9790  1.9765  0.2000
  824MOL0     H11231   6.791   3.104   5.639  1.1384  2.7607 -0.1012
  824MOL0     H11232   6.795   2.888   5.510 -0.2729 -0.7220  1.1050
  824MOL0     H11233   6.637   2.934   5.450  1.3675  3.4735 -1.1363
  824MOL0     H11234   6.554   2.907   5.694 -0.3411 -0.5696 -1.7927
  824MOL0     H11235   6.732   2.908   5.745 -2.4700  1.3563  1.8295
  824MOL0     H11236   6.769   2.700   5.660 -0.2020  0.6620  0.3949
  824MOL0     H11237   6.596   2.677   5.608 -1.2433 -0.0689 -0.3369
  824MOL0     H11238   6.593   2.593   6.007  0.8488  1.5373  1.2072
  824MOL0     H11239   6.349   3.141   5.680 -2.4790  1.0258 -0.5080
  824MOL0     H11240   6.127   3.132   5.532  0.4485  1.0176  1.6654
  825MOL0     O11241   4.704   0.547   2.394  0.3040  0.0261 -0.4902
  825MOL0     C11242   4.706   0.665   2.349 -0.2057  0.4670 -0.2569
  825MOL0     O11243   4.603   0.727   2.284 -0.8414 -0.8990 -0.1641
  825MOL0     C11244   4.484   0.691   2.330  0.8243 -0.6162 -0.6539
  825MOL0     C11245   4.392   0.642   2.240 -0.2184 -0.6007  0.2910
  825MOL0     C11246   4.268   0.610   2.280  1.3012  0.4486 -0.0475
  825MOL0     C11247   4.224   0.620   2.419  0.3293  0.2811  0.6161
  825MOL0     O11248   4.093   0.594   2.458  0.1982  0.1779 -0.6701
  825MOL0     C11249   3.984   0.637   2.379 -0.0409 -0.8786 -0.1480
  825MOL0     C11250   3.900   0.743   2.445  0.2875 -0.6168  0.3079
  825MOL0     C11251   3.774   0.767   2.352  0.4898  0.1362  0.3919
  825MOL0     C11252   3.667   0.844   2.412  0.6807 -0.0694  0.2111
  825MOL0     C11253   3.534   0.841   2.331 -0.5269 -0.8141  0.4797
  825MOL0     C11254   3.416   0.914   2.397 -0.3910 -0.2682  0.0817
  825MOL0     C11255   3.283   0.897   2.322  0.0523 -0.1691 -0.0387
  825MOL0     C11256   3.165   0.969   2.396 -0.5213 -0.5670  0.1560
  825MOL0     N11257   3.039   0.958   2.324 -0.3992  0.0151  0.1441
  825MOL0     C11258   3.019   0.892   2.200 -0.2124 -0.1962 -0.0166
  825MOL0     C11259   2.885   0.899   2.191 -0.8836 -0.6095  0.4556
  825MOL0     C11260   2.816   0.870   2.064  1.1380 -0.2871  0.1264
  825MOL0     C11261   2.690   0.783   2.095 -0.0821  0.1532  0.0218
  825MOL0     C11262   2.604   0.758   1.975  0.5122  0.0225  0.0588
  825MOL0     C11263   2.472   0.692   2.018 -1.2376  0.7032  0.2850
  825MOL0     O11264   2.390   0.639   1.909 -0.5228  0.0771 -1.0290
  825MOL0     C11265   2.260   0.615   1.933  0.0263  0.1463  0.2820
  825MOL0     C11266   2.202   0.622   2.059  0.2933 -0.3998 -0.2303
  825MOL0     C11267   2.065   0.606   2.081 -0.2029  0.1595 -0.7739
  825MOL0     C11268   2.013   0.645   2.217  0.2179 -0.0159  0.7316
  825MOL0     C11269   1.980   0.577   1.975 -0.5855 -1.5095  1.2853
  825MOL0     C11270   1.833   0.554   1.984  0.6028 -0.0802  0.1612
  825MOL0     O11271   1.767   0.507   1.872 -0.4379  0.1423 -0.0180
  825MOL0     C11272   1.629   0.497   1.872 -0.1471  0.3466 -0.3004
  825MOL0     C11273   1.571   0.393   1.937 -0.7669  1.8107 -0.5930
  825MOL0     C11274   1.438   0.368   1.925  0.5355 -0.1515 -0.7166
  825MOL0     C11275   1.359   0.453   1.836 -0.2406  1.0322 -0.1344
  825MOL0     O11276   1.227   0.427   1.825  0.2455  0.5606  0.6568
  825MOL0     C11277   1.127   0.531   1.847 -0.3905  0.7264  0.2502
  825MOL0     C11278   0.992   0.484   1.799  0.1114 -0.7971 -0.1804
  825MOL0     C11279   0.886   0.593   1.816 -0.0090 -0.1916 -0.8214
  825MOL0     C11280   0.763   0.588   1.723 -0.0689 -0.6911  0.6016
  825MOL0     C11281   0.641   0.677   1.768 -0.7395 -1.1398  0.1723
  825MOL0     C11282   0.503   0.643   1.700  0.7784 -0.8552  0.5703
  825MOL0     C11283   0.405   0.758   1.713 -0.8384 -0.4925 -0.0911
  825MOL0     C11284   0.280   0.708   1.653  0.1912  0.4480 -0.3551
  825MOL0    Cl11285   0.149   0.830   1.657  0.5653 -0.0796 -0.0397
  825MOL0     C11286   1.420   0.543   1.757  0.7756 -0.0775  0.2833
  825MOL0     C11287   1.549   0.570   1.782  0.1799  0.2278 -0.6153
  825MOL0     O11288   1.774   0.593   2.083 -0.2362  0.4651 -0.8307
  825MOL0     C11289   2.032   0.567   1.850 -0.0742 -0.0889  0.2189
  825MOL0     C11290   2.170   0.591   1.828  0.6894  0.4494  1.0015
  825MOL0     N11291   2.826   0.957   2.299 -0.4803  0.1473 -0.6890
  825MOL0     N11292   2.917   1.002   2.377 -0.0159 -0.2547 -0.1314
  825MOL0     C11293   4.311   0.674   2.511  0.5687  0.2830  0.4335
  825MOL0     C11294   4.444   0.709   2.465  0.0854 -0.1065  0.2863
  825MOL0     C11295   4.835   0.743   2.357  0.0603  0.0881 -0.8182
  825MOL0     C11296   4.959   0.683   2.374  0.0842 -0.9592  0.5543
  825MOL0     C11297   5.073   0.762   2.391 -0.5965 -0.3497  0.0724
  825MOL0     C11298   5.068   0.899   2.399 -0.4611  0.3398 -0.3202
  825MOL0     O11299   5.174   0.977   2.407 -1.4382  0.4807  0.3778
  825MOL0     C11300   5.257   0.951   2.525 -0.1097  0.5908 -0.0045
  825MOL0     C11301   5.184   0.997   2.654  0.5105  0.6720  0.8731
  825MOL0     C11302   5.280   1.036   2.771  0.7106  1.2632 -0.3059
  825MOL0     C11303   5.227   1.053   2.910  0.4095  0.4515 -0.3007
  825MOL0     C11304   5.100   1.122   2.922 -0.7249 -0.6378 -0.5182
  825MOL0     C11305   4.991   1.166   2.946  0.0763  0.3444  0.2415
  825MOL0     C11306   4.944   0.961   2.377 -0.2957  0.2487  0.1251
  825MOL0     C11307   4.826   0.886   2.353  0.7506  0.6106 -0.3389
  825MOL0     H11308   4.404   0.638   2.132 -5.0368 -1.0164 -0.4776
  825MOL0     H11309   4.205   0.575   2.199  0.0328  0.0615  1.0727
  825MOL0     H11310   4.013   0.667   2.278 -1.1362  2.2082  0.3637
  825MOL0     H11311   3.912   0.556   2.364 -0.6177 -0.5443  0.7252
  825MOL0     H11312   3.865   0.696   2.538 -0.0835 -1.1697 -0.1044
  825MOL0     H11313   3.959   0.834   2.453  2.2599 -1.6643 -1.3243
  825MOL0     H11314   3.802   0.810   2.255 -0.8274 -2.0080 -1.0092
  825MOL0     H11315   3.737   0.669   2.322  1.4181 -0.2561  0.4843
  825MOL0     H11316   3.658   0.792   2.508  0.8310 -0.6979 -0.1088
  825MOL0     H11317   3.706   0.943   2.438  1.4590 -1.1056  3.5291
  825MOL0     H11318   3.557   0.895   2.239  2.5191  0.5188  1.8777
  825MOL0     H11319   3.519   0.733   2.314  0.2211 -0.7691 -0.6177
  825MOL0     H11320   3.413   0.876   2.499 -1.6085 -2.9150 -0.8491
  825MOL0     H11321   3.444   1.020   2.394  4.0672 -1.1018  2.7516
  825MOL0     H11322   3.279   0.954   2.229 -3.2491  5.1099  2.8454
  825MOL0     H11323   3.258   0.791   2.309 -0.7415 -0.1823  1.4124
  825MOL0     H11324   3.198   1.069   2.423 -0.5455 -0.9969  1.8571
  825MOL0     H11325   3.143   0.934   2.497  0.3428  2.8293  1.6444
  825MOL0     H11326   3.095   0.841   2.143  2.8361  0.6378  2.9682
  825MOL0     H11327   2.797   0.973   2.031  1.9076 -0.2020 -0.0713
  825MOL0     H11328   2.884   0.820   1.994  0.7678  1.4485 -1.5585
  825MOL0     H11329   2.630   0.840   2.167 -0.7915  1.7581 -1.7476
  825MOL0     H11330   2.711   0.687   2.142  0.6995  1.4179  2.4565
  825MOL0     H11331   2.667   0.709   1.901 -0.8730 -1.1667 -0.3878
  825MOL0     H11332   2.583   0.852   1.924 -4.6306 -0.6695  0.2784
  825MOL0     H11333   2.425   0.769   2.079 -2.5008  0.0666  0.1276
  825MOL0     H11334   2.506   0.615   2.087 -0.9550 -0.4986 -1.1414
  825MOL0     H11335   2.261   0.645   2.147  0.5493  0.7190 -0.6797
  825MOL0     H11336   1.964   0.559   2.262  0.8877 -2.4831 -2.7961
  825MOL0     H11337   2.093   0.678   2.283 -0.4044  2.9325  0.1804
  825MOL0     H11338   1.935   0.722   2.213  1.4248  1.2311  0.3282
  825MOL0     H11339   1.638   0.335   1.999 -0.4227  2.0622 -0.7262
  825MOL0     H11340   1.388   0.285   1.973  2.4241 -0.5043  0.7922
  825MOL0     H11341   1.135   0.552   1.954  3.8796 -1.4713  0.5765
  825MOL0     H11342   1.157   0.624   1.796 -3.7820  0.9251 -1.6344
  825MOL0     H11343   0.993   0.458   1.693 -0.4978 -1.6541  0.0152
  825MOL0     H11344   0.974   0.398   1.864  0.6802 -2.4495 -2.0980
  825MOL0     H11345   0.927   0.694   1.815 -1.8260  0.6072  0.3755
  825MOL0     H11346   0.845   0.584   1.917 -0.2325 -1.7299 -1.0194
  825MOL0     H11347   0.789   0.629   1.625  2.5246  0.1135  1.5370
  825MOL0     H11348   0.727   0.485   1.723  0.2774 -0.8458  2.1065
  825MOL0     H11349   0.670   0.782   1.767  2.8136 -1.9621 -1.5935
  825MOL0     H11350   0.635   0.656   1.876  0.2951 -4.1491 -0.2524
  825MOL0     H11351   0.523   0.622   1.595  2.6278 -3.1513  1.3040
  825MOL0     H11352   0.463   0.553   1.748 -2.8116 -0.9089 -2.1498
  825MOL0     H11353   0.435   0.854   1.669  1.5440  1.6155  5.2844
  825MOL0     H11354   0.395   0.790   1.817 -1.6646 -2.0707  0.3480
  825MOL0     H11355   0.252   0.615   1.704  0.6719  0.6393  0.2758
  825MOL0     H11356   0.284   0.668   1.551  0.3267  0.0207 -0.1846
  825MOL0     H11357   1.371   0.591   1.673  1.2400 -1.0319 -0.5644
  825MOL0     H11358   1.602   0.642   1.720 -1.0036  1.3623 -0.3578
  825MOL0     H11359   1.974   0.547   1.760 -2.5569 -0.5520  1.7999
  825MOL0     H11360   2.204   0.603   1.726 -0.9960 -1.6707  0.1117
  825MOL0     H11361   4.270   0.684   2.612 -1.6540 -2.5032 -0.0670
  825MOL0     H11362   4.509   0.752   2.541 -0.2320 -2.4766  2.0196
  825MOL0     H11363   4.960   0.576   2.388 -0.2145 -0.8764  1.2445
  825MOL0     H11364   5.165   0.708   2.410 -1.5478 -1.4608  1.8135
  825MOL0     H11365   5.293   0.847   2.531  0.8097  0.6688 -2.8350
  825MOL0     H11366   5.352   1.004   2.512  2.7488 -3.2926  2.3812
  825MOL0     H11367   5.120   0.918   2.694 -3.4116  3.5343  0.7360
  825MOL0     H11368   5.116   1.078   2.627 -0.9095 -0.7012  0.1620
  825MOL0     H11369   5.338   1.123   2.739  0.0223  2.7349  2.2262
  825MOL0     H11370   5.350   0.953   2.781 -0.5178  0.1554 -0.5028
  825MOL0     H11371   5.307   1.095   2.972 -0.2810  0.9820  0.2506
  825MOL0     H11372   5.206   0.949   2.937  0.0376  0.3666 -0.8955
  825MOL0     H11373   4.891   1.198   2.968 -0.4237  1.5633 -3.2610
  825MOL0     H11374   4.949   1.069   2.372  1.4608  0.1309 -2.5028
  825MOL0     H11375   4.731   0.935   2.335 -0.1487 -0.5815  0.9742
  826MOL0     O11376   1.921   1.841   9.864 -0.6029  0.2802 -0.2696
  826MOL0     C11377   1.967   1.904   9.772  0.6572  0.2189  0.1176
  826MOL0     O11378   1.898   1.934   9.658  0.5579  0.3195 -0.1546
  826MOL0     C11379   1.763   1.929   9.674  0.6290  0.8573  0.0181
  826MOL0     C11380   1.700   1.849   9.587  0.4843 -0.0694 -0.9417
  826MOL0     C11381   1.562   1.846   9.599 -0.4014  0.1971  0.5562
  826MOL0     C11382   1.493   1.905   9.703  0.6138 -0.7857 -0.3520
  826MOL0     O11383   1.358   1.906   9.716  0.2717 -0.4525 -0.2734
  826MOL0     C11384   1.295   1.844   9.835 -0.6127  0.1115  0.0266
  826MOL0     C11385   1.142   1.867   9.836 -0.2916 -1.0838 -0.7988
  826MOL0     C11386   1.071   1.833   9.709  0.0886  0.4624 -0.0603
  826MOL0     C11387   0.924   1.793   9.736  0.4720 -0.6241  0.2407
  826MOL0     C11388   0.913   1.642   9.777  0.6112 -0.1482 -0.1885
  826MOL0     C11389   0.771   1.617   9.835 -0.0225 -0.3218 -0.1491
  826MOL0     C11390   0.731   1.482   9.887  0.5320 -0.3459  0.5697
  826MOL0     C11391   0.730   1.374   9.784  0.1121 -0.6001 -0.2868
  826MOL0     N11392   0.745   1.245   9.851 -0.1590  0.7016 -0.8171
  826MOL0     C11393   0.638   1.182   9.906 -0.1831 -0.5609 -0.0326
  826MOL0     C11394   0.696   1.065   9.951 -0.5071  0.1773  0.1293
  826MOL0     C11395   0.627   0.956  10.027  0.9556 -0.4615 -0.4268
  826MOL0     C11396   0.604   0.966  10.176 -0.5634  0.0604 -0.2305
  826MOL0     C11397   0.455   0.963  10.209  0.3547  0.1237 -0.0980
  826MOL0     C11398   0.387   0.827  10.199 -0.5853 -0.3626  0.1635
  826MOL0     O11399   0.260   0.839  10.260  0.0330  0.4101  0.0810
  826MOL0     C11400   0.190   0.741  10.324  0.0037  0.0013  1.0208
  826MOL0     C11401   0.249   0.613  10.345 -0.3862  1.1986  0.2540
  826MOL0     C11402   0.175   0.514  10.415  0.0843  1.0834  0.2555
  826MOL0     C11403   0.249   0.386  10.448  0.6989  0.2902 -0.6213
  826MOL0     C11404   0.040   0.534  10.462  0.2975  0.4384  0.1834
  826MOL0     C11405  -0.048   0.436  10.531 -0.1242 -0.2529 -0.3929
  826MOL0     O11406  -0.174   0.484  10.551  0.6040  0.3344  0.3037
  826MOL0     C11407  -0.256   0.430  10.649  0.5057  0.4999 -0.0983
  826MOL0     C11408  -0.385   0.396  10.619 -0.2324  0.0091  0.0880
  826MOL0     C11409  -0.467   0.337  10.714 -0.0997 -0.6179 -0.0845
  826MOL0     C11410  -0.432   0.330  10.851  0.6723  0.6712 -0.5539
  826MOL0     O11411  -0.520   0.286  10.945 -0.4298 -0.5355  0.1393
  826MOL0     C11412  -0.551   0.389  11.043  0.3162 -0.3846  1.0944
  826MOL0     C11413  -0.666   0.339  11.133  0.9872 -0.4628 -0.9186
  826MOL0     C11414  -0.634   0.208  11.212  0.3424  0.1896  0.4831
  826MOL0     C11415  -0.722   0.214  11.336  0.1526  0.2034 -0.1883
  826MOL0     C11416  -0.724   0.086  11.430 -0.2035  0.8392  0.0423
  826MOL0     C11417  -0.829   0.100  11.533  0.1351 -0.0810 -0.3338
  826MOL0     C11418  -0.838  -0.021  11.616  0.1843  0.2626 -0.4034
  826MOL0     C11419  -0.887   0.021  11.760 -1.1855  0.2435 -0.0137
  826MOL0    Cl11420  -1.060   0.077  11.740  0.0059 -0.0317 -0.1784
  826MOL0     C11421  -0.305   0.381  10.878  0.3187 -0.3221  1.1069
  826MOL0     C11422  -0.215   0.433  10.785  0.2814 -0.5450  0.8108
  826MOL0     O11423  -0.005   0.342  10.589 -0.7840 -0.0858 -0.2086
  826MOL0     C11424  -0.013   0.664  10.433  0.0647 -0.5448 -0.5712
  826MOL0     C11425   0.066   0.765  10.366 -0.1512 -0.1417 -0.2027
  826MOL0     N11426   0.830   1.069   9.928 -0.0738 -0.6778  0.1069
  826MOL0     N11427   0.866   1.183   9.873 -0.0761 -0.5441  0.4322
  826MOL0     C11428   1.565   1.985   9.795  0.5668  0.4750 -0.2439
  826MOL0     C11429   1.699   2.007   9.769  0.3076 -0.5059  0.5861
  826MOL0     C11430   2.111   1.923   9.776  0.2047 -0.0143  0.7495
  826MOL0     C11431   2.196   1.871   9.873 -0.0795  0.5416 -0.1791
  826MOL0     C11432   2.334   1.894   9.875  0.2013  0.2493 -1.4129
  826MOL0     C11433   2.395   1.960   9.776 -0.1708 -0.1898  0.8603
  826MOL0     O11434   2.536   1.979   9.764  0.7670  0.0049 -0.4081
  826MOL0     C11435   2.625   1.941   9.870  0.5143  0.8242 -0.7193
  826MOL0     C11436   2.702   1.816   9.826 -0.7573  0.2506  0.1064
  826MOL0     C11437   2.787   1.833   9.689  0.6945  0.4524  0.5330
  826MOL0     C11438   2.921   1.899   9.714 -0.3562  0.3262 -0.6614
  826MOL0     C11439   3.012   1.819   9.805 -0.5331  0.1212  0.0844
  826MOL0     C11440   3.090   1.754   9.869  0.5759  0.3398  0.2161
  826MOL0     C11441   2.310   2.015   9.678  0.4501 -1.0796 -0.0571
  826MOL0     C11442   2.171   1.991   9.672 -0.0947 -0.6116  0.0056
  826MOL0     H11443   1.755   1.792   9.512 -2.5815 -2.6424 -1.4613
  826MOL0     H11444   1.505   1.789   9.527 -0.6506 -0.8798  1.5625
  826MOL0     H11445   1.310   1.736   9.844 -3.0241 -0.2805 -0.1382
  826MOL0     H11446   1.328   1.901   9.922 -0.7761  3.5852 -2.0196
  826MOL0     H11447   1.095   1.806   9.914  0.2144 -0.6416 -0.1394
  826MOL0     H11448   1.121   1.972   9.860 -0.2516 -0.9817 -1.2017
  826MOL0     H11449   1.075   1.919   9.641  0.3482 -0.4614 -1.2543
  826MOL0     H11450   1.123   1.755   9.653 -0.7314  1.7272 -2.7557
  826MOL0     H11451   0.880   1.849   9.820 -0.3684 -0.0722 -0.5506
  826MOL0     H11452   0.869   1.811   9.644  3.4641 -1.5870 -1.8958
  826MOL0     H11453   0.913   1.590   9.680  0.2033 -1.2902  0.4074
  826MOL0     H11454   0.989   1.612   9.850 -1.5123 -0.0395  2.1647
  826MOL0     H11455   0.753   1.688   9.916  0.5013 -1.3476  0.9064
  826MOL0     H11456   0.703   1.632   9.751 -0.2603 -2.1890 -0.3427
  826MOL0     H11457   0.794   1.464   9.974 -1.1788  0.6147  2.0709
  826MOL0     H11458   0.628   1.496   9.923 -0.4004 -1.8950 -1.2661
  826MOL0     H11459   0.811   1.381   9.710 -0.9995 -0.8104 -1.5451
  826MOL0     H11460   0.639   1.382   9.724 -0.3450 -0.7257  0.3819
  826MOL0     H11461   0.539   1.226   9.907 -0.1705 -0.5352  0.5728
  826MOL0     H11462   0.529   0.941   9.980  1.2880 -2.6666 -0.5309
  826MOL0     H11463   0.682   0.864  10.002 -0.2927 -1.1948 -0.5783
  826MOL0     H11464   0.649   1.059  10.212  2.0479  0.4627 -3.9040
  826MOL0     H11465   0.666   0.887  10.219 -0.6402 -0.9175 -1.8353
  826MOL0     H11466   0.397   1.023  10.139  2.0804  1.7714 -0.2119
  826MOL0     H11467   0.450   1.001  10.311 -1.9144 -3.1171  1.1319
  826MOL0     H11468   0.453   0.757  10.252 -0.6122 -0.6942 -0.2303
  826MOL0     H11469   0.366   0.784  10.100 -2.0312  0.9787 -0.1388
  826MOL0     H11470   0.355   0.594  10.330 -0.3157  0.9923  0.9722
  826MOL0     H11471   0.357   0.401  10.452  0.9624  0.4318 -4.5276
  826MOL0     H11472   0.228   0.343  10.547  0.9488  1.5057 -0.0231
  826MOL0     H11473   0.233   0.315  10.366  1.7493 -0.5076 -0.1625
  826MOL0     H11474  -0.425   0.402  10.518  1.2296  0.9368 -0.4666
  826MOL0     H11475  -0.560   0.297  10.674  0.3850  0.0418 -1.9825
  826MOL0     H11476  -0.471   0.426  11.107 -1.9336  5.4386  1.0979
  826MOL0     H11477  -0.591   0.472  10.985  0.1238 -2.5990 -2.2077
  826MOL0     H11478  -0.694   0.419  11.202 -0.6982 -0.8212 -1.1465
  826MOL0     H11479  -0.753   0.333  11.066  1.5854 -1.6862 -1.6279
  826MOL0     H11480  -0.531   0.208  11.249  0.1583  0.8581  1.0230
  826MOL0     H11481  -0.658   0.117  11.155  3.6041 -1.5828  1.6840
  826MOL0     H11482  -0.692   0.301  11.395  5.1256 -1.1398 -0.3069
  826MOL0     H11483  -0.824   0.227  11.299 -0.4918 -1.6502  0.8025
  826MOL0     H11484  -0.628   0.056  11.473 -0.2632 -1.3350 -1.2001
  826MOL0     H11485  -0.757   0.003  11.367  0.9595 -0.5049  1.1111
  826MOL0     H11486  -0.811   0.186  11.597  0.5365  0.5703 -1.2954
  826MOL0     H11487  -0.928   0.121  11.491 -1.0324  1.6484  2.9762
  826MOL0     H11488  -0.739  -0.065  11.632  2.4157  5.1861  1.3767
  826MOL0     H11489  -0.909  -0.094  11.578 -2.3192  2.4734 -0.2842
  826MOL0     H11490  -0.826   0.106  11.790  0.0269 -0.9517  1.0618
  826MOL0     H11491  -0.878  -0.058  11.835  0.5756 -0.6894 -1.1381
  826MOL0     H11492  -0.270   0.372  10.980 -0.8776 -6.1373  1.3913
  826MOL0     H11493  -0.126   0.478  10.825  2.6915 -2.8388 -1.5437
  826MOL0     H11494  -0.105   0.696  10.480 -0.3265 -0.7549 -1.1939
  826MOL0     H11495   0.021   0.862  10.352  1.8493  0.9661  0.5891
  826MOL0     H11496   1.508   2.041   9.868 -1.0430 -2.8871  1.2660
  826MOL0     H11497   1.758   2.059   9.844 -0.6123 -1.1973  1.8308
  826MOL0     H11498   2.148   1.799   9.939  0.7969 -0.0039 -0.1173
  826MOL0     H11499   2.394   1.839   9.946  0.6258 -1.8847 -3.3263
  826MOL0     H11500   2.699   2.021   9.882  1.1095  0.1481  0.2010
  826MOL0     H11501   2.577   1.925   9.967 -0.0677 -0.0535 -1.1311
  826MOL0     H11502   2.634   1.731   9.817  1.8702 -1.7774 -2.8135
  826MOL0     H11503   2.777   1.789   9.902 -1.5495 -2.4361  0.0241
  826MOL0     H11504   2.721   1.884   9.618  0.9957 -0.1551 -0.1926
  826MOL0     H11505   2.801   1.737   9.639 -1.8756  1.0060 -1.4497
  826MOL0     H11506   2.908   2.000   9.753 -0.0712  0.1059  0.0096
  826MOL0     H11507   2.980   1.912   9.622  1.4664  2.8775  0.7392
  826MOL0     H11508   3.168   1.691   9.906  1.5821  0.0073 -2.2880
  826MOL0     H11509   2.365   2.071   9.603  0.3772 -1.4024 -0.3517
  826MOL0     H11510   2.114   2.022   9.585 -1.5200  3.4178  2.1047
  827MOL0     O11511  11.243   3.304   9.452 -0.5351  0.2400  0.0144
  827MOL0     C11512  11.237   3.418   9.409 -0.0718 -1.0418 -0.4565
  827MOL0     O11513  11.140   3.507   9.430  0.0051  0.7277 -0.0827
  827MOL0     C11514  11.029   3.469   9.496 -0.3535 -1.1618  0.2999
  827MOL0     C11515  11.003   3.526   9.620  0.6429  0.4974  0.7391
  827MOL0     C11516  10.879   3.498   9.687  0.8074  0.0924 -0.3798
  827MOL0     C11517  10.788   3.409   9.620 -0.6841 -0.8044  0.1862
  827MOL0     O11518  10.675   3.366   9.677  0.3934 -0.4948 -0.2905
  827MOL0     C11519  10.555   3.442   9.642  0.1636 -0.4184  0.0042
  827MOL0     C11520  10.436   3.339   9.640  0.1694 -0.5757 -0.4504
  827MOL0     C11521  10.305   3.404   9.685  0.6316 -0.7325 -0.5694
  827MOL0     C11522  10.192   3.301   9.666  0.1409 -0.7953  0.6752
  827MOL0     C11523  10.052   3.381   9.672  0.2126  0.8864 -0.0912
  827MOL0     C11524   9.939   3.269   9.665 -0.0064  0.5244  0.2122
  827MOL0     C11525   9.794   3.314   9.686 -0.4403 -0.9081 -1.0753
  827MOL0     C11526   9.691   3.218   9.632  0.2814 -0.6932 -0.5268
  827MOL0     N11527   9.658   3.112   9.735 -1.5229  0.2685  0.2556
  827MOL0     C11528   9.563   3.105   9.835 -0.7905 -0.2976 -0.2276
  827MOL0     C11529   9.591   3.000   9.915 -0.8205 -0.3256 -0.0628
  827MOL0     C11530   9.505   2.961  10.036  0.6837 -0.4989 -0.2503
  827MOL0     C11531   9.372   2.874  10.009  1.2894 -0.6535 -0.3474
  827MOL0     C11532   9.406   2.723  10.002  0.8784 -1.0257 -0.5724
  827MOL0     C11533   9.276   2.645   9.981 -0.1629  0.6865 -0.6652
  827MOL0     O11534   9.181   2.677  10.087  0.8595 -0.3506  0.1811
  827MOL0     C11535   9.050   2.686  10.047 -0.8539 -0.1286  0.8342
  827MOL0     C11536   9.004   2.746   9.928  0.1476  0.0374  0.5779
  827MOL0     C11537   8.863   2.760   9.897 -0.3530 -0.3493 -0.0291
  827MOL0     C11538   8.831   2.807   9.759  0.0370 -0.2888 -0.2011
  827MOL0     C11539   8.767   2.715   9.996  0.6861  0.3471  0.0758
  827MOL0     C11540   8.618   2.711   9.971 -0.1192 -0.2632 -0.4351
  827MOL0     O11541   8.557   2.660  10.082  0.1442  0.0990  0.4957
  827MOL0     C11542   8.427   2.699  10.120 -0.0607  0.3974 -0.0561
  827MOL0     C11543   8.363   2.814  10.069  0.6580 -0.0796 -0.7392
  827MOL0     C11544   8.224   2.835  10.109 -0.0131  0.0434 -0.3795
  827MOL0     C11545   8.157   2.743  10.192 -0.3797  0.5388  0.5763
  827MOL0     O11546   8.034   2.754  10.234  0.1144 -0.1528 -0.2412
  827MOL0     C11547   7.974   2.881  10.245 -0.7003 -0.6354 -0.0382
  827MOL0     C11548   7.829   2.861  10.262 -0.1908  0.7285 -0.5435
  827MOL0     C11549   7.736   2.962  10.196 -1.2950  0.2866  0.1813
  827MOL0     C11550   7.594   2.922  10.216 -0.1681  0.1398  0.4672
  827MOL0     C11551   7.497   3.028  10.169  0.0080 -0.8989 -0.2981
  827MOL0     C11552   7.351   2.965  10.153 -1.1865 -0.2388  0.4419
  827MOL0     C11553   7.350   2.899  10.015  0.1054 -0.2190 -0.1148
  827MOL0     C11554   7.204   2.866   9.962  0.2711 -0.0548 -0.3391
  827MOL0    Cl11555   7.115   2.999   9.875 -0.3613 -0.3185 -0.0141
  827MOL0     C11556   8.229   2.642  10.248 -1.2787 -0.2364 -0.0645
  827MOL0     C11557   8.366   2.613  10.214  0.4078 -0.5654  0.1511
  827MOL0     O11558   8.562   2.739   9.865 -0.5319  0.0079  0.6078
  827MOL0     C11559   8.826   2.671  10.118 -0.5628  0.3584 -0.0096
  827MOL0     C11560   8.961   2.645  10.140 -0.0863 -0.1722 -0.3510
  827MOL0     N11561   9.702   2.934   9.860  0.0470 -0.3097 -0.3785
  827MOL0     N11562   9.738   3.000   9.753 -0.2656 -0.7309  0.0685
  827MOL0     C11563  10.825   3.350   9.498  0.4776 -0.7264 -0.6586
  827MOL0     C11564  10.942   3.377   9.437  0.2797 -0.4357  0.0217
  827MOL0     C11565  11.331   3.451   9.295 -0.0905 -0.3829  0.4111
  827MOL0     C11566  11.446   3.366   9.280 -0.6001 -0.0641 -0.9730
  827MOL0     C11567  11.542   3.404   9.182  0.4522  0.3409 -0.1050
  827MOL0     C11568  11.519   3.513   9.100 -0.0627  0.0837 -0.1920
  827MOL0     O11569  11.621   3.529   9.007 -0.0228 -0.1657  0.0104
  827MOL0     C11570  11.595   3.635   8.914  0.9143  0.7855  0.2501
  827MOL0     C11571  11.704   3.623   8.810  0.0626  0.5449 -0.1048
  827MOL0     C11572  11.669   3.703   8.679  0.0372 -0.1187 -0.7904
  827MOL0     C11573  11.795   3.718   8.592 -0.7391  0.6310  0.1476
  827MOL0     C11574  11.773   3.650   8.467 -0.8859  0.8352  0.1819
  827MOL0     C11575  11.764   3.602   8.360  0.2239  0.4880  0.7096
  827MOL0     C11576  11.400   3.584   9.103  0.9910 -0.0220 -0.3592
  827MOL0     C11577  11.311   3.556   9.205  0.1981 -0.3571  0.2804
  827MOL0     H11578  11.081   3.594   9.655  0.2821  1.8051 -0.8603
  827MOL0     H11579  10.855   3.529   9.788  3.4911 -0.1129  0.3785
  827MOL0     H11580  10.544   3.523   9.715  0.6559 -0.4600  0.1277
  827MOL0     H11581  10.572   3.490   9.545  0.8334 -0.1868  0.2270
  827MOL0     H11582  10.422   3.300   9.539 -1.3747  0.5096 -0.6829
  827MOL0     H11583  10.465   3.250   9.698 -2.5830 -1.5553 -0.4558
  827MOL0     H11584  10.316   3.444   9.786  0.7968 -1.7880 -0.1563
  827MOL0     H11585  10.284   3.495   9.628  3.4550  0.1363 -0.3900
  827MOL0     H11586  10.193   3.252   9.568 -1.0873 -0.6236  0.5567
  827MOL0     H11587  10.197   3.219   9.739  3.4519 -0.3671  1.0629
  827MOL0     H11588  10.058   3.429   9.770  0.3002  3.0049 -1.0749
  827MOL0     H11589  10.024   3.460   9.601  1.1022  0.7762 -0.5929
  827MOL0     H11590   9.939   3.241   9.559  1.4426  0.3292  0.2441
  827MOL0     H11591   9.959   3.186   9.732  0.9387  0.3041 -0.3248
  827MOL0     H11592   9.775   3.326   9.794  1.6000  2.8790 -0.9683
  827MOL0     H11593   9.784   3.414   9.644  2.0450 -0.0339  0.2177
  827MOL0     H11594   9.738   3.160   9.553 -2.2856 -1.6782 -1.4387
  827MOL0     H11595   9.592   3.262   9.614  0.3655  0.6661  1.9277
  827MOL0     H11596   9.493   3.186   9.851 -1.5857 -0.9240 -0.4418
  827MOL0     H11597   9.564   2.921  10.118  3.2282 -1.9011 -2.5775
  827MOL0     H11598   9.471   3.058  10.074 -0.9268  0.1284 -2.9751
  827MOL0     H11599   9.324   2.912   9.918 -1.4086  1.1041  1.6898
  827MOL0     H11600   9.303   2.895  10.090 -0.0857 -1.2392 -1.3253
  827MOL0     H11601   9.459   2.688  10.091  2.2794  1.1253 -0.4845
  827MOL0     H11602   9.465   2.713   9.911  0.5454  2.6106 -1.3468
  827MOL0     H11603   9.304   2.539   9.982 -0.7728  0.4638 -2.8351
  827MOL0     H11604   9.236   2.665   9.881 -0.5342 -2.9281 -1.3539
  827MOL0     H11605   9.067   2.771   9.843  0.9823 -1.6689  0.6404
  827MOL0     H11606   8.763   2.729   9.722  0.4306 -1.0883  0.6951
  827MOL0     H11607   8.783   2.904   9.770  1.9942  0.9575 -1.9865
  827MOL0     H11608   8.910   2.817   9.685 -0.0001  2.4013  0.0433
  827MOL0     H11609   8.406   2.890  10.004  1.0087 -1.7127 -2.5213
  827MOL0     H11610   8.173   2.919  10.063 -0.6416 -0.4653 -0.6341
  827MOL0     H11611   8.015   2.935  10.330  0.2012 -0.5886 -0.4921
  827MOL0     H11612   7.983   2.942  10.155  1.1901 -0.9570 -0.1133
  827MOL0     H11613   7.813   2.768  10.206  0.2533  0.3447 -0.0468
  827MOL0     H11614   7.792   2.852  10.364 -1.0799 -2.4473 -1.0185
  827MOL0     H11615   7.766   2.956  10.091 -1.2028  0.0132  0.2215
  827MOL0     H11616   7.742   3.064  10.234  2.8877 -0.4235  1.9582
  827MOL0     H11617   7.582   2.832  10.155 -0.8752  2.1068 -2.4987
  827MOL0     H11618   7.579   2.877  10.315  4.7854 -0.6118  1.1406
  827MOL0     H11619   7.526   3.072  10.073 -0.6042 -0.7762 -0.4324
  827MOL0     H11620   7.504   3.110  10.240  1.9130  0.2830 -1.7371
  827MOL0     H11621   7.329   2.887  10.226 -1.7628  0.6923  1.2827
  827MOL0     H11622   7.280   3.045  10.175 -1.1478 -1.1351  4.7114
  827MOL0     H11623   7.413   2.809  10.017  0.9545  0.1543 -3.5088
  827MOL0     H11624   7.397   2.965   9.942  1.3104 -1.4057 -0.4615
  827MOL0     H11625   7.149   2.842  10.054 -0.9209  2.5038 -0.3023
  827MOL0     H11626   7.202   2.785   9.889 -0.5877 -0.4297  0.0821
  827MOL0     H11627   8.171   2.572  10.308 -3.0326 -1.0672 -2.5969
  827MOL0     H11628   8.420   2.534  10.264  2.9700  1.1173  0.2322
  827MOL0     H11629   8.769   2.654  10.209  0.9989  2.2989  1.4171
  827MOL0     H11630   9.001   2.605  10.232 -0.9333  0.3520  0.2535
  827MOL0     H11631  10.757   3.279   9.452  0.3039 -0.7014 -0.4419
  827MOL0     H11632  10.985   3.337   9.345  3.5208  1.8458  0.3483
  827MOL0     H11633  11.472   3.280   9.341  0.8995  3.4175  3.9612
  827MOL0     H11634  11.630   3.341   9.172 -1.0452 -1.5855 -2.0861
  827MOL0     H11635  11.501   3.609   8.865  0.5892  0.4408  1.0307
  827MOL0     H11636  11.603   3.727   8.973 -0.2034  0.5618  0.7659
  827MOL0     H11637  11.723   3.518   8.788  1.6905  1.0488 -1.3057
  827MOL0     H11638  11.789   3.674   8.857  1.3506  0.0294 -1.7888
  827MOL0     H11639  11.629   3.802   8.700 -1.2017  0.0739 -3.6682
  827MOL0     H11640  11.599   3.641   8.623  1.5279 -1.7682 -0.8975
  827MOL0     H11641  11.885   3.683   8.643  0.1685  1.8174 -0.6182
  827MOL0     H11642  11.795   3.824   8.569 -1.3288  0.8030  0.9012
  827MOL0     H11643  11.748   3.582   8.256  0.8699 -4.3962  1.3508
  827MOL0     H11644  11.383   3.670   9.039  1.7474 -1.0949 -2.0575
  827MOL0     H11645  11.231   3.628   9.220  1.0571  0.8347 -0.6028
  828MOL0     O11646   7.914   1.498   9.356 -0.2719  0.2929 -0.2040
  828MOL0     C11647   7.951   1.397   9.297  0.3519 -0.1566  0.6831
  828MOL0     O11648   7.873   1.329   9.207  0.3776 -0.0778 -0.5531
  828MOL0     C11649   7.740   1.364   9.193 -1.0913 -0.7285  0.2090
  828MOL0     C11650   7.656   1.338   9.296  0.0559  0.6796 -0.3433
  828MOL0     C11651   7.521   1.382   9.284 -0.8029 -0.2610 -0.3491
  828MOL0     C11652   7.473   1.448   9.175 -0.7415 -0.2042 -0.1994
  828MOL0     O11653   7.340   1.477   9.177  0.0482  0.8311  0.8734
  828MOL0     C11654   7.267   1.484   9.057  0.4294  0.3937  0.5692
  828MOL0     C11655   7.147   1.586   9.058 -0.0664 -0.2475  0.2080
  828MOL0     C11656   7.196   1.734   9.034 -0.7104 -0.0211  0.0782
  828MOL0     C11657   7.087   1.834   9.016 -0.4876  0.8870  0.2604
  828MOL0     C11658   7.145   1.973   9.030  0.2638 -0.1808  0.4344
  828MOL0     C11659   7.049   2.093   9.014 -0.2964 -0.0873 -0.6933
  828MOL0     C11660   7.021   2.111   8.859 -0.1317  0.1122 -0.2618
  828MOL0     C11661   6.952   2.246   8.827 -0.1476  0.2952  0.5350
  828MOL0     N11662   6.824   2.248   8.891 -0.5155 -0.8607 -0.2355
  828MOL0     C11663   6.708   2.199   8.834 -0.2835  0.2185  0.0733
  828MOL0     C11664   6.618   2.212   8.935  0.3248  0.1156  0.7033
  828MOL0     C11665   6.476   2.160   8.921 -0.4403 -0.5691  0.9465
  828MOL0     C11666   6.365   2.262   8.964 -0.4579 -0.2759 -0.2663
  828MOL0     C11667   6.247   2.204   9.053 -0.7164 -1.0774 -1.0744
  828MOL0     C11668   6.172   2.104   8.970 -0.0142  0.3719 -0.2306
  828MOL0     O11669   6.122   2.149   8.848 -0.1363 -0.5328 -0.7196
  828MOL0     C11670   5.994   2.188   8.825  0.6696 -0.3886 -0.4324
  828MOL0     C11671   5.889   2.218   8.917  0.2469  0.9843 -0.0683
  828MOL0     C11672   5.765   2.262   8.868  0.1806 -0.1663 -0.6734
  828MOL0     C11673   5.664   2.264   8.981  0.6068 -0.3529  0.5641
  828MOL0     C11674   5.741   2.291   8.733  0.8132  1.1832  0.5328
  828MOL0     C11675   5.611   2.331   8.677  0.1452 -0.6007  0.0029
  828MOL0     O11676   5.600   2.376   8.549 -0.5006 -0.0119 -0.0621
  828MOL0     C11677   5.468   2.402   8.504 -0.2136  0.9056  0.6635
  828MOL0     C11678   5.395   2.501   8.564 -0.0660  0.0453  0.0648
  828MOL0     C11679   5.260   2.527   8.533  0.6826  0.4557  0.1378
  828MOL0     C11680   5.197   2.445   8.432  0.7000 -0.1220 -0.3215
  828MOL0     O11681   5.068   2.446   8.394  0.3521 -0.0188  0.3604
  828MOL0     C11682   4.980   2.560   8.430 -0.5015 -0.5216 -0.2745
  828MOL0     C11683   4.858   2.547   8.344  0.5499 -0.6818  0.5040
  828MOL0     C11684   4.895   2.579   8.204 -0.0812 -0.5429  0.9321
  828MOL0     C11685   4.768   2.557   8.123 -0.3171 -0.0952  0.9144
  828MOL0     C11686   4.796   2.612   7.979 -0.4932  0.1088 -0.5858
  828MOL0     C11687   4.677   2.576   7.897 -0.0238  0.0070  0.1627
  828MOL0     C11688   4.698   2.617   7.742  0.3191  0.0283  0.5516
  828MOL0     C11689   4.592   2.552   7.640 -0.7103  0.4303 -0.3372
  828MOL0    Cl11690   4.509   2.403   7.701 -0.1972  0.1764 -0.0730
  828MOL0     C11691   5.269   2.348   8.368 -0.5025  0.4049 -0.8570
  828MOL0     C11692   5.410   2.319   8.403  0.7076 -0.4998  0.3454
  828MOL0     O11693   5.512   2.294   8.747  0.1303 -0.0536  0.3213
  828MOL0     C11694   5.844   2.260   8.637  0.1180  0.5667 -0.0018
  828MOL0     C11695   5.973   2.216   8.688 -0.6565  0.0071  0.1476
  828MOL0     N11696   6.673   2.290   9.036 -0.3129 -0.0869  0.9926
  828MOL0     N11697   6.794   2.316   9.001 -0.5113 -0.8982 -0.4417
  828MOL0     C11698   7.563   1.475   9.076 -0.2507 -0.6295  0.6719
  828MOL0     C11699   7.695   1.436   9.083 -0.2117  0.0772  0.7857
  828MOL0     C11700   8.097   1.361   9.299 -0.0743  0.5026  0.3671
  828MOL0     C11701   8.145   1.260   9.217 -0.0838  0.4841  1.1408
  828MOL0     C11702   8.279   1.226   9.211 -0.4501 -0.2860  0.1409
  828MOL0     C11703   8.376   1.303   9.281 -0.4579  0.0668  1.0413
  828MOL0     O11704   8.513   1.267   9.278 -0.0475  0.4075 -0.3828
  828MOL0     C11705   8.555   1.151   9.355 -0.3514 -0.6847 -0.4703
  828MOL0     C11706   8.706   1.130   9.352 -0.5127  0.5723  0.4787
  828MOL0     C11707   8.767   1.133   9.210  0.1098 -0.0997  0.4686
  828MOL0     C11708   8.896   1.049   9.201  0.1705  0.2693 -0.2630
  828MOL0     C11709   8.943   1.038   9.064 -0.7156 -0.2777  0.7456
  828MOL0     C11710   8.988   1.022   8.953  0.2543  0.7654  0.6442
  828MOL0     C11711   8.329   1.405   9.368 -0.0128 -0.0747  0.4075
  828MOL0     C11712   8.196   1.433   9.372  0.1502  0.3207 -0.0943
  828MOL0     H11713   7.676   1.288   9.391 -3.8574  1.3243  1.0012
  828MOL0     H11714   7.447   1.355   9.359 -0.7147 -0.5225 -0.3537
  828MOL0     H11715   7.330   1.509   8.971 -0.9529 -2.3853 -1.4086
  828MOL0     H11716   7.226   1.385   9.037 -2.3764  1.3061  1.2650
  828MOL0     H11717   7.082   1.561   8.975  0.2425  1.3453 -0.5621
  828MOL0     H11718   7.088   1.574   9.149 -3.0100  1.5091 -1.3351
  828MOL0     H11719   7.265   1.762   9.114 -0.5674 -0.4410  0.1032
  828MOL0     H11720   7.267   1.744   8.952 -1.0855  2.5969 -0.0170
  828MOL0     H11721   7.040   1.820   8.918  1.0689  0.6288 -0.4748
  828MOL0     H11722   7.012   1.814   9.094  1.0608 -0.1429  1.5407
  828MOL0     H11723   7.188   1.986   9.130  2.1563  2.1172 -0.5730
  828MOL0     H11724   7.233   1.988   8.966 -0.5669  0.2088 -0.6476
  828MOL0     H11725   6.957   2.085   9.072 -0.7083  0.0692 -1.3086
  828MOL0     H11726   7.099   2.188   9.033 -2.5270  0.8698  0.9066
  828MOL0     H11727   7.117   2.111   8.808  0.7381 -3.0429  1.1406
  828MOL0     H11728   6.962   2.025   8.827 -0.4716  0.4836 -0.6534
  828MOL0     H11729   6.939   2.256   8.718 -0.2025 -0.1162  0.5048
  828MOL0     H11730   7.002   2.338   8.859 -1.2469  1.4595 -0.9282
  828MOL0     H11731   6.715   2.140   8.743  1.4911 -0.7520  0.7774
  828MOL0     H11732   6.457   2.120   8.821  2.1394 -2.7437  1.2061
  828MOL0     H11733   6.468   2.073   8.988 -0.0181 -0.7076  0.8224
  828MOL0     H11734   6.344   2.316   8.870  2.4452  2.0579  0.2687
  828MOL0     H11735   6.416   2.336   9.027  0.0991 -1.0305  0.1781
  828MOL0     H11736   6.190   2.295   9.073  2.5725  1.6058 -2.7810
  828MOL0     H11737   6.291   2.159   9.143 -0.0194 -0.4836 -1.1121
  828MOL0     H11738   6.085   2.070   9.027  0.2947  1.9007  1.2231
  828MOL0     H11739   6.233   2.014   8.961  0.9458  0.4555  3.7808
  828MOL0     H11740   5.899   2.199   9.024 -1.2299 -1.3901 -0.2746
  828MOL0     H11741   5.589   2.185   8.972  0.0445  0.2799 -0.5118
  828MOL0     H11742   5.712   2.259   9.079 -0.8026 -2.6616  1.2325
  828MOL0     H11743   5.606   2.356   8.972 -2.4027 -2.0405  1.2683
  828MOL0     H11744   5.446   2.562   8.638  0.1695 -1.0074  0.8010
  828MOL0     H11745   5.202   2.604   8.582  0.3631 -0.0761  0.6011
  828MOL0     H11746   4.971   2.569   8.539  2.6351  1.6517 -0.0570
  828MOL0     H11747   5.032   2.653   8.405 -0.0976 -0.4540  0.7497
  828MOL0     H11748   4.812   2.448   8.354  0.4906 -0.8303 -0.9825
  828MOL0     H11749   4.779   2.617   8.373 -0.9951 -0.9098 -2.6923
  828MOL0     H11750   4.972   2.509   8.170  1.4696 -0.1072  3.3315
  828MOL0     H11751   4.929   2.683   8.197 -0.6435 -0.4266 -0.6121
  828MOL0     H11752   4.756   2.448   8.118  2.4290 -0.4571  0.0977
  828MOL0     H11753   4.677   2.603   8.162  0.1173  0.9908  0.6895
  828MOL0     H11754   4.896   2.593   7.941 -0.0317  0.4913  0.3955
  828MOL0     H11755   4.802   2.721   7.985 -1.1575  0.1508 -0.5310
  828MOL0     H11756   4.675   2.466   7.890 -0.1317 -0.1159  1.8330
  828MOL0     H11757   4.579   2.610   7.932  0.7431  1.6998  0.7197
  828MOL0     H11758   4.804   2.605   7.720  0.7114 -0.2473  2.4535
  828MOL0     H11759   4.679   2.725   7.742  0.4304  0.0481  0.7001
  828MOL0     H11760   4.652   2.520   7.555  3.1770 -0.1242  2.3815
  828MOL0     H11761   4.528   2.632   7.599 -0.9467  0.0540 -0.7123
  828MOL0     H11762   5.220   2.283   8.296 -0.9176  0.0080 -0.2315
  828MOL0     H11763   5.459   2.237   8.352 -1.5567 -1.1856 -0.9140
  828MOL0     H11764   5.841   2.265   8.529  2.9378 -0.3674 -0.2061
  828MOL0     H11765   6.052   2.202   8.614  1.7873 -1.6215  2.8785
  828MOL0     H11766   7.544   1.535   8.988  1.2928 -2.9854 -1.3893
  828MOL0     H11767   7.755   1.473   9.000 -3.2334  0.1102 -1.5456
  828MOL0     H11768   8.081   1.181   9.178 -1.0610  1.3680  0.8708
  828MOL0     H11769   8.313   1.139   9.156 -2.3734 -2.4777  2.1991
  828MOL0     H11770   8.524   1.168   9.458  0.1809  0.7259 -0.5211
  828MOL0     H11771   8.507   1.057   9.328  2.2488 -3.3422  3.1765
  828MOL0     H11772   8.737   1.041   9.408  0.0012  0.2202 -0.3561
  828MOL0     H11773   8.753   1.217   9.400  2.0964 -0.8114  0.6665
  828MOL0     H11774   8.777   1.240   9.190  0.9364 -0.3409 -0.4824
  828MOL0     H11775   8.690   1.089   9.147 -0.8489  1.6969  0.3147
  828MOL0     H11776   8.883   0.950   9.245  1.9049  0.5855  1.0831
  828MOL0     H11777   8.976   1.106   9.250  0.2133 -0.4658  0.5393
  828MOL0     H11778   9.030   1.006   8.855  0.8364 -0.5280  1.0773
  828MOL0     H11779   8.402   1.467   9.420 -0.3256  2.2454 -1.7239
  828MOL0     H11780   8.153   1.510   9.435  0.8126 -0.2333  1.0834
  829MOL0     O11781   8.945   0.671   9.447 -0.2770 -0.6203 -0.1780
  829MOL0     C11782   8.945   0.572   9.377 -1.1423 -0.3502  0.7847
  829MOL0     O11783   8.894   0.446   9.405  0.3581  0.2755 -0.3380
  829MOL0     C11784   8.814   0.433   9.517 -0.0562  0.1991 -0.3041
  829MOL0     C11785   8.731   0.530   9.574 -0.3066  0.0181  0.2545
  829MOL0     C11786   8.650   0.506   9.684  0.6937 -0.0631 -0.0385
  829MOL0     C11787   8.669   0.393   9.754  0.1884 -0.4146 -0.1826
  829MOL0     O11788   8.600   0.386   9.876 -0.2739 -0.1525  0.5803
  829MOL0     C11789   8.629   0.289   9.975  0.3807 -1.0360  0.9904
  829MOL0     C11790   8.537   0.169   9.952  0.3101  0.2565 -0.3294
  829MOL0     C11791   8.386   0.210   9.952  0.4333  0.4732 -0.3466
  829MOL0     C11792   8.307   0.078   9.965 -0.1398 -0.4020  0.1906
  829MOL0     C11793   8.153   0.090   9.962 -0.3192 -0.7535 -0.3310
  829MOL0     C11794   8.102   0.197  10.058 -1.0514 -0.4009 -0.1478
  829MOL0     C11795   7.951   0.197  10.086  0.6077 -0.0987  0.1924
  829MOL0     C11796   7.861   0.237   9.966  1.4173  0.0935 -0.1386
  829MOL0     N11797   7.724   0.261  10.011  0.2916  0.9455  0.1588
  829MOL0     C11798   7.681   0.373  10.082  0.1813  0.3203  0.3147
  829MOL0     C11799   7.549   0.341  10.114 -0.1371 -0.6899 -0.8218
  829MOL0     C11800   7.462   0.424  10.208  0.0668  1.1088  0.0777
  829MOL0     C11801   7.379   0.335  10.311 -0.1427  0.2892  0.9603
  829MOL0     C11802   7.255   0.256  10.246 -0.0845  0.5940 -0.7445
  829MOL0     C11803   7.152   0.362  10.193  0.0352  0.7343  0.3515
  829MOL0     O11804   7.033   0.283  10.161  0.0185 -0.7288  0.8284
  829MOL0     C11805   6.921   0.359  10.148 -0.9494  0.3595  1.0587
  829MOL0     C11806   6.798   0.288  10.139 -0.3793 -0.4258  0.2920
  829MOL0     C11807   6.677   0.358  10.128  0.0748 -0.2978  0.0035
  829MOL0     C11808   6.546   0.281  10.139  1.0677 -0.0233  0.0760
  829MOL0     C11809   6.675   0.501  10.106 -0.1159  0.1872  0.3893
  829MOL0     C11810   6.545   0.587  10.104 -0.0161  0.7715 -0.2334
  829MOL0     O11811   6.555   0.724  10.098 -0.2086  0.4774  0.4415
  829MOL0     C11812   6.448   0.805  10.063 -0.2118  1.2734 -0.8429
  829MOL0     C11813   6.355   0.840  10.165 -0.6129 -0.3967 -0.1535
  829MOL0     C11814   6.247   0.924  10.145  0.1606 -0.1952 -0.5634
  829MOL0     C11815   6.221   0.967  10.018  0.0143 -0.1932 -0.5382
  829MOL0     O11816   6.106   1.043  10.008 -0.6473 -0.2351 -0.0082
  829MOL0     C11817   6.002   0.959  10.004 -0.6899  0.0800  0.1875
  829MOL0     C11818   5.880   1.045   9.995  0.0230  0.6766  0.6441
  829MOL0     C11819   5.746   0.963  10.008  0.4816 -0.3571 -0.3544
  829MOL0     C11820   5.627   1.054  10.006  0.7732  0.7649 -0.4161
  829MOL0     C11821   5.490   0.974   9.988  0.1914 -0.0140 -0.6063
  829MOL0     C11822   5.374   1.060   9.951  0.8482  0.1452 -0.9737
  829MOL0     C11823   5.268   0.959   9.916  0.4737 -0.7870 -0.4309
  829MOL0     C11824   5.131   1.027   9.905 -0.0106 -0.7843  0.3225
  829MOL0    Cl11825   5.023   0.908   9.828 -0.3695 -0.0699 -0.4753
  829MOL0     C11826   6.313   0.938   9.916  0.8663 -0.4478 -0.5259
  829MOL0     C11827   6.428   0.856   9.936  0.3862  0.3059  0.0858
  829MOL0     O11828   6.436   0.527  10.090  0.1287 -0.1748 -0.3064
  829MOL0     C11829   6.804   0.562  10.092  0.6000  0.4118  0.8158
  829MOL0     C11830   6.919   0.494  10.117  0.2364  0.2994  0.4373
  829MOL0     N11831   7.523   0.225  10.041  0.1985 -0.1238  0.5210
  829MOL0     N11832   7.620   0.174   9.982  0.0432 -0.1858 -0.1361
  829MOL0     C11833   8.748   0.286   9.702  0.3995  0.1212  0.3629
  829MOL0     C11834   8.815   0.315   9.589  0.3069  0.1931  0.3149
  829MOL0     C11835   9.031   0.573   9.263  0.5922 -0.2961 -0.8094
  829MOL0     C11836   9.083   0.696   9.213  0.6981 -0.1574 -0.6445
  829MOL0     C11837   9.187   0.706   9.117  0.1709 -0.7354 -0.0150
  829MOL0     C11838   9.240   0.587   9.062  0.1892  0.2187  0.5777
  829MOL0     O11839   9.343   0.586   8.969  0.4676  0.2618  0.1836
  829MOL0     C11840   9.448   0.685   8.980  0.6163  0.1011  0.7779
  829MOL0     C11841   9.433   0.792   8.873  0.0234 -0.3669 -0.3867
  829MOL0     C11842   9.536   0.908   8.881 -0.2967 -0.3954  0.2003
  829MOL0     C11843   9.654   0.891   8.785 -1.0504  0.1491 -0.0052
  829MOL0     C11844   9.603   0.880   8.645  0.2531 -0.3649 -0.0224
  829MOL0     C11845   9.571   0.875   8.529  0.6632  0.0109 -0.0168
  829MOL0     C11846   9.184   0.468   9.096 -0.4037 -0.3942  0.8025
  829MOL0     C11847   9.087   0.457   9.195  0.1078 -0.4594 -0.8626
  829MOL0     H11848   8.719   0.625   9.523 -0.3756 -1.1173 -1.9919
  829MOL0     H11849   8.580   0.579   9.726  1.7441  0.9647 -0.0236
  829MOL0     H11850   8.735   0.262   9.972  0.8211  0.4934  1.6507
  829MOL0     H11851   8.612   0.345  10.067  2.9940 -1.2682  1.6858
  829MOL0     H11852   8.565   0.119   9.859  2.6534 -0.0365  0.4759
  829MOL0     H11853   8.560   0.102  10.035 -2.0288 -0.5884 -0.2998
  829MOL0     H11854   8.373   0.276  10.038 -0.9063 -1.7396  1.2656
  829MOL0     H11855   8.358   0.263   9.860  0.6541 -1.2708 -1.4608
  829MOL0     H11856   8.335   0.009   9.885  0.1020 -1.4291  1.1290
  829MOL0     H11857   8.335   0.025  10.057  0.2686 -1.3608 -0.4673
  829MOL0     H11858   8.124   0.111   9.859  0.2527  0.2987 -0.2917
  829MOL0     H11859   8.109  -0.008   9.982 -0.3167 -0.0979  3.8448
  829MOL0     H11860   8.143   0.167  10.155  0.1833  1.5846 -0.0089
  829MOL0     H11861   8.142   0.295  10.030  2.9914 -2.0849 -1.0022
  829MOL0     H11862   7.917   0.097  10.114  0.7658 -0.3722 -0.5626
  829MOL0     H11863   7.939   0.257  10.176 -1.0861  0.4335 -0.3519
  829MOL0     H11864   7.864   0.162   9.887 -1.7413  0.4129 -0.7167
  829MOL0     H11865   7.905   0.326   9.921 -1.2763  1.7701  0.2788
  829MOL0     H11866   7.743   0.460  10.100 -2.7586  3.0442 -1.7099
  829MOL0     H11867   7.533   0.481  10.269  0.6958  1.4095 -0.9103
  829MOL0     H11868   7.388   0.475  10.147 -2.4303 -2.0949  0.1508
  829MOL0     H11869   7.347   0.401  10.392  1.3244  0.9703  1.0170
  829MOL0     H11870   7.443   0.259  10.356  1.2350  1.3680  0.8813
  829MOL0     H11871   7.209   0.199  10.327  0.2723  1.2091 -0.0907
  829MOL0     H11872   7.275   0.193  10.159  0.7681  2.3639 -1.8800
  829MOL0     H11873   7.186   0.413  10.103 -0.9055 -0.0726 -0.4867
  829MOL0     H11874   7.143   0.439  10.270 -0.2533 -0.6257  1.7313
  829MOL0     H11875   6.796   0.185  10.174  2.3891 -0.4799  0.5041
  829MOL0     H11876   6.571   0.174  10.140  0.0162 -0.3434 -2.1940
  829MOL0     H11877   6.493   0.313  10.228  0.4868  1.5820 -0.8061
  829MOL0     H11878   6.479   0.298  10.054 -0.4604  0.6797  1.3884
  829MOL0     H11879   6.365   0.803  10.266 -2.2021 -1.5828 -0.3848
  829MOL0     H11880   6.187   0.952  10.231  1.5594 -1.2430  0.8172
  829MOL0     H11881   5.999   0.894   9.916 -1.7872 -1.3416  1.2221
  829MOL0     H11882   5.992   0.902  10.097  1.6730  0.1955  0.5611
  829MOL0     H11883   5.877   1.132  10.062 -0.1552  1.4110 -0.2960
  829MOL0     H11884   5.886   1.088   9.895  0.0285  0.0268  0.3593
  829MOL0     H11885   5.737   0.906  10.101  3.4715 -1.2917 -0.5364
  829MOL0     H11886   5.741   0.888   9.929  1.5257 -0.9048  0.0700
  829MOL0     H11887   5.620   1.105  10.102  0.3390 -0.2586  0.1054
  829MOL0     H11888   5.636   1.133   9.930  2.3150 -1.2679 -2.4763
  829MOL0     H11889   5.471   0.911  10.075  0.2367  0.7066 -0.0657
  829MOL0     H11890   5.496   0.900   9.908  0.4182  2.5263 -3.1393
  829MOL0     H11891   5.338   1.135  10.022  0.6564  0.5611 -1.4990
  829MOL0     H11892   5.408   1.131   9.875 -0.4976 -1.0276 -2.7662
  829MOL0     H11893   5.272   0.874   9.985  0.2530 -0.9979 -0.6765
  829MOL0     H11894   5.294   0.913   9.820 -1.4732  1.3200 -2.0486
  829MOL0     H11895   5.136   1.110   9.834 -3.2757 -1.1938 -0.5603
  829MOL0     H11896   5.092   1.069   9.998 -0.7663  0.4904 -0.5372
  829MOL0     H11897   6.303   0.980   9.816  2.4003  0.7441 -0.2184
  829MOL0     H11898   6.490   0.834   9.850  1.4045  0.3840  0.7739
  829MOL0     H11899   6.797   0.667  10.065 -1.5067  0.0712 -0.1720
  829MOL0     H11900   7.010   0.552  10.108  0.2366  0.3467  0.7483
  829MOL0     H11901   8.765   0.191   9.753  4.1522 -1.3146 -3.0029
  829MOL0     H11902   8.886   0.245   9.545 -0.5922  0.3692 -1.5058
  829MOL0     H11903   9.060   0.791   9.262 -1.0810  0.1238 -1.9375
  829MOL0     H11904   9.225   0.804   9.090  0.9561 -0.8135  0.7426
  829MOL0     H11905   9.445   0.728   9.081  2.1954 -1.4030  1.5342
  829MOL0     H11906   9.549   0.641   8.982  0.7229  0.2561  3.5932
  829MOL0     H11907   9.333   0.834   8.890  0.1070 -0.4913  0.4751
  829MOL0     H11908   9.421   0.751   8.772 -1.7943  0.4708 -0.5603
  829MOL0     H11909   9.574   0.931   8.981 -1.2113  1.5781  0.1508
  829MOL0     H11910   9.481   0.999   8.855 -2.0578 -1.8883 -1.5937
  829MOL0     H11911   9.705   0.798   8.812 -1.8698 -0.5818 -0.9333
  829MOL0     H11912   9.730   0.970   8.795  0.2619 -0.9928 -0.5915
  829MOL0     H11913   9.534   0.870   8.428 -1.9603  0.6819  0.8127
  829MOL0     H11914   9.225   0.376   9.057 -0.2804 -0.3396  0.8052
  829MOL0     H11915   9.064   0.362   9.243 -0.8736 -0.1434 -0.6764
  830MOL0     O11916   9.687   0.811   6.425  0.4184  0.2054  0.0809
  830MOL0     C11917   9.796   0.857   6.448 -0.4440 -0.2401 -0.5590
  830MOL0     O11918   9.819   0.972   6.511  0.2697 -0.8941 -0.5224
  830MOL0     C11919   9.707   1.037   6.563  0.4874 -0.4818  0.3083
  830MOL0     C11920   9.685   1.031   6.696 -0.0549 -0.2433 -0.9804
  830MOL0     C11921   9.571   1.091   6.749 -0.3309  0.5088  0.4808
  830MOL0     C11922   9.481   1.167   6.669 -0.0787 -0.3319  0.2018
  830MOL0     O11923   9.363   1.229   6.707 -0.1902 -0.5745 -0.3197
  830MOL0     C11924   9.358   1.251   6.849  0.9005  0.3681 -1.2364
  830MOL0     C11925   9.264   1.367   6.880  0.5650 -0.8465  0.7273
  830MOL0     C11926   9.121   1.335   6.850  1.0369 -0.0377 -0.0762
  830MOL0     C11927   9.068   1.410   6.718  0.7085 -0.1821 -1.1900
  830MOL0     C11928   8.916   1.383   6.688  0.2971 -0.4498  1.3297
  830MOL0     C11929   8.866   1.503   6.595  0.7023 -0.2567  0.6797
  830MOL0     C11930   8.825   1.634   6.662 -0.5851 -0.8908 -0.1403
  830MOL0     C11931   8.780   1.740   6.558 -0.3507 -0.5849  0.0541
  830MOL0     N11932   8.633   1.743   6.539 -0.2313  0.1412  0.0246
  830MOL0     C11933   8.567   1.676   6.434 -0.3193  0.0606 -0.8209
  830MOL0     C11934   8.434   1.679   6.448 -0.3754 -0.0721 -0.7164
  830MOL0     C11935   8.321   1.610   6.370  0.1819 -0.1506  0.1354
  830MOL0     C11936   8.351   1.595   6.223 -0.1398  0.4346  0.8207
  830MOL0     C11937   8.228   1.533   6.158  0.5417  0.3540  0.4956
  830MOL0     C11938   8.262   1.478   6.017  0.6322 -0.1043  0.2321
  830MOL0     O11939   8.165   1.401   5.955  0.3722 -0.4464 -0.5800
  830MOL0     C11940   8.049   1.470   5.918 -0.6568 -0.5496  0.2319
  830MOL0     C11941   7.944   1.391   5.868  0.5596 -0.7016  0.0193
  830MOL0     C11942   7.826   1.443   5.816  0.2113  0.2886  0.4613
  830MOL0     C11943   7.716   1.348   5.770 -0.1732 -0.5819  0.3819
  830MOL0     C11944   7.800   1.588   5.832  0.1474  0.0432  1.0200
  830MOL0     C11945   7.675   1.663   5.792 -0.0613  0.9030  0.3349
  830MOL0     O11946   7.589   1.606   5.708  0.5912 -0.3371 -0.6770
  830MOL0     C11947   7.462   1.647   5.720  0.4790 -0.5820 -0.3319
  830MOL0     C11948   7.368   1.590   5.810  0.0775 -0.0511  0.1298
  830MOL0     C11949   7.240   1.647   5.818 -0.4911  0.3431 -0.2587
  830MOL0     C11950   7.205   1.753   5.738 -0.3013  0.4595 -0.2164
  830MOL0     O11951   7.072   1.787   5.730  0.0142 -0.2622 -0.0543
  830MOL0     C11952   7.042   1.917   5.673  0.5816  0.5402  0.5567
  830MOL0     C11953   6.892   1.937   5.684 -0.7735 -0.8699 -0.8250
  830MOL0     C11954   6.820   1.882   5.557  0.2287 -0.0641 -0.1570
  830MOL0     C11955   6.669   1.915   5.566 -0.0911  0.6267  0.3678
  830MOL0     C11956   6.596   1.870   5.436  0.5523 -0.6876 -0.2995
  830MOL0     C11957   6.460   1.953   5.432  0.6764 -0.0607 -0.0704
  830MOL0     C11958   6.403   1.920   5.297  0.6127 -0.3336  1.1556
  830MOL0     C11959   6.266   1.984   5.286 -0.0224  0.0517  0.1575
  830MOL0    Cl11960   6.286   2.159   5.273 -0.1634 -0.3511 -0.2328
  830MOL0     C11961   7.299   1.824   5.666 -0.1082  0.0063 -0.4331
  830MOL0     C11962   7.429   1.768   5.659  0.2340  0.0350 -0.4442
  830MOL0     O11963   7.656   1.767   5.857  0.8011  0.1529  0.0747
  830MOL0     C11964   7.910   1.663   5.872 -0.0337  0.0696  0.4603
  830MOL0     C11965   8.032   1.607   5.917  0.7821  0.3914  1.1287
  830MOL0     N11966   8.420   1.754   6.572 -0.8985  0.7177  0.4065
  830MOL0     N11967   8.541   1.782   6.630  0.4220 -0.2479  1.2665
  830MOL0     C11968   9.509   1.171   6.531  0.3165  0.2160  0.6301
  830MOL0     C11969   9.622   1.106   6.473 -0.6084 -0.6275  0.6127
  830MOL0     C11970   9.923   0.801   6.386  0.3945 -0.2855 -0.0985
  830MOL0     C11971   9.917   0.718   6.279 -0.3990  0.0152  0.8416
  830MOL0     C11972  10.035   0.670   6.226  0.1669 -0.4142 -1.3505
  830MOL0     C11973  10.165   0.712   6.264  0.6024 -0.1326  0.1374
  830MOL0     O11974  10.283   0.677   6.210 -0.3170 -0.8940  0.1553
  830MOL0     C11975  10.282   0.585   6.104  0.1150  0.0951  0.7174
  830MOL0     C11976  10.417   0.577   6.026  0.1908  0.3296 -0.0115
  830MOL0     C11977  10.451   0.727   5.976 -0.3173  0.4541 -0.6113
  830MOL0     C11978  10.594   0.732   5.910 -0.0645 -0.6998 -0.5490
  830MOL0     C11979  10.620   0.872   5.870 -0.0880  0.1505  0.2682
  830MOL0     C11980  10.651   0.988   5.863  0.2768 -0.4931 -0.1277
  830MOL0     C11981  10.171   0.805   6.363  0.0330 -0.3005 -0.2010
  830MOL0     C11982  10.051   0.849   6.423 -0.8824  0.5039  0.7250
  830MOL0     H11983   9.741   0.953   6.747 -2.9315 -2.5363 -1.1220
  830MOL0     H11984   9.550   1.075   6.854 -1.5390 -2.3876 -0.0975
  830MOL0     H11985   9.328   1.158   6.897  1.3057 -0.1452 -1.9440
  830MOL0     H11986   9.451   1.280   6.898 -0.0384 -1.2363  1.7469
  830MOL0     H11987   9.272   1.389   6.987  1.7896  0.4982  0.3992
  830MOL0     H11988   9.298   1.457   6.827  0.3114 -0.0592  1.8475
  830MOL0     H11989   9.112   1.226   6.844  0.9788  0.0462 -2.7467
  830MOL0     H11990   9.066   1.367   6.939  2.8907 -1.1048  1.5347
  830MOL0     H11991   9.085   1.517   6.729  0.4641 -0.2885  0.4534
  830MOL0     H11992   9.134   1.371   6.640  1.2246  0.6314 -1.1733
  830MOL0     H11993   8.910   1.282   6.648  2.4428  0.2048 -0.8525
  830MOL0     H11994   8.859   1.387   6.782  0.9520  2.0996  1.6954
  830MOL0     H11995   8.944   1.531   6.524 -0.3202  2.8631  0.6201
  830MOL0     H11996   8.783   1.470   6.532  0.9834  0.0422  0.1422
  830MOL0     H11997   8.755   1.614   6.744  0.4621  2.7614  1.8951
  830MOL0     H11998   8.919   1.662   6.711 -0.2103 -1.3626 -0.5731
  830MOL0     H11999   8.838   1.719   6.468  0.4706 -2.6087  1.0056
  830MOL0     H12000   8.820   1.839   6.582  1.4134 -1.4304  0.8237
  830MOL0     H12001   8.614   1.612   6.361  0.0897 -1.8472  0.9979
  830MOL0     H12002   8.289   1.512   6.406  0.1336 -1.4770 -3.1491
  830MOL0     H12003   8.238   1.682   6.370 -0.3097 -0.7086  0.1911
  830MOL0     H12004   8.441   1.535   6.206  0.1157  0.6776  1.3171
  830MOL0     H12005   8.358   1.693   6.176  3.4563  0.2068  0.5671
  830MOL0     H12006   8.149   1.608   6.146  1.9465  2.0035  1.2539
  830MOL0     H12007   8.198   1.446   6.218 -0.4354 -0.1959 -0.7377
  830MOL0     H12008   8.342   1.407   6.042 -0.9173 -1.7288  0.8265
  830MOL0     H12009   8.303   1.565   5.966  1.3939  0.4438  1.7112
  830MOL0     H12010   7.945   1.284   5.889 -1.8518 -1.0487 -1.2783
  830MOL0     H12011   7.616   1.373   5.807 -1.2954  1.0660 -3.2351
  830MOL0     H12012   7.696   1.361   5.663 -1.1597  1.5723  0.7625
  830MOL0     H12013   7.747   1.245   5.789 -2.2349 -1.5594 -1.1661
  830MOL0     H12014   7.396   1.511   5.878  2.7925 -0.1619 -0.9835
  830MOL0     H12015   7.173   1.591   5.883  1.3843  0.5607  1.9949
  830MOL0     H12016   7.097   1.994   5.727  0.7003 -0.3947  1.8220
  830MOL0     H12017   7.057   1.920   5.565 -0.4726  1.2899  0.4163
  830MOL0     H12018   6.856   1.890   5.776  0.7610  1.1598  0.9346
  830MOL0     H12019   6.872   2.044   5.696  1.1866 -0.5369 -0.0447
  830MOL0     H12020   6.828   1.773   5.559  2.3561  0.0628  1.5643
  830MOL0     H12021   6.858   1.921   5.462  0.5232  3.9776  1.4038
  830MOL0     H12022   6.625   1.864   5.652 -0.3790 -0.9652 -0.6911
  830MOL0     H12023   6.662   2.022   5.586  0.1162 -0.0067  5.0086
  830MOL0     H12024   6.584   1.762   5.438  0.8616 -0.7555 -1.5010
  830MOL0     H12025   6.661   1.884   5.350  0.0524 -0.5912 -0.6666
  830MOL0     H12026   6.390   1.925   5.512  1.4953 -0.1581  0.6374
  830MOL0     H12027   6.479   2.060   5.442 -1.1049  0.1735  1.3336
  830MOL0     H12028   6.403   1.810   5.291  2.0088 -0.3250  0.6129
  830MOL0     H12029   6.457   1.955   5.209 -2.3850 -0.8308 -1.0298
  830MOL0     H12030   6.203   1.956   5.371 -0.2479  0.6492  0.1935
  830MOL0     H12031   6.228   1.941   5.193  1.5346  2.8826 -1.9589
  830MOL0     H12032   7.289   1.916   5.610 -0.0776 -0.1082 -0.6263
  830MOL0     H12033   7.501   1.831   5.606  0.0311  0.5028 -0.1731
  830MOL0     H12034   7.895   1.768   5.896  4.0845  0.8940  0.0905
  830MOL0     H12035   8.108   1.677   5.948  1.1100  1.6888 -2.1872
  830MOL0     H12036   9.429   1.213   6.471 -0.7811 -2.0155  0.4480
  830MOL0     H12037   9.631   1.105   6.365 -1.9467  0.6377  0.4457
  830MOL0     H12038   9.827   0.673   6.238 -1.3968  2.4797  0.1835
  830MOL0     H12039  10.028   0.606   6.138  0.6123  1.6860 -2.9876
  830MOL0     H12040  10.249   0.486   6.134  0.2162 -0.0318  0.4150
  830MOL0     H12041  10.219   0.629   6.026  3.3842  1.7292 -1.2347
  830MOL0     H12042  10.392   0.512   5.942  1.3894  1.1683 -1.0509
  830MOL0     H12043  10.492   0.533   6.092  1.3976 -0.1664 -1.6498
  830MOL0     H12044  10.447   0.791   6.065 -2.4437 -2.1051  1.3056
  830MOL0     H12045  10.376   0.749   5.900 -0.4133  1.1699 -0.3170
  830MOL0     H12046  10.595   0.666   5.823  0.5512  0.3190 -1.3277
  830MOL0     H12047  10.674   0.703   5.979 -0.3748  1.4143  0.7777
  830MOL0     H12048  10.667   1.093   5.872 -1.0597  0.1820 -3.8620
  830MOL0     H12049  10.261   0.841   6.412  0.3232 -0.2928 -0.7326
  830MOL0     H12050  10.058   0.914   6.510 -0.9050 -0.3781  1.3951
  831MOL0     O12051  10.733   7.101   8.877 -0.2736  0.3956  0.3948
  831MOL0     C12052  10.756   7.027   8.968 -0.8128  0.9246 -0.1935
  831MOL0     O12053  10.660   6.955   9.033  0.4778 -0.2151 -0.4387
  831MOL0     C12054  10.526   6.995   9.011  0.4886  0.7314  0.4157
  831MOL0     C12055  10.451   6.958   8.900 -0.5231 -0.5415  0.6783
  831MOL0     C12056  10.323   6.997   8.885 -0.1026 -0.7754 -0.1742
  831MOL0     C12057  10.259   7.080   8.988 -0.2923  0.9251  0.5898
  831MOL0     O12058  10.123   7.103   8.969  0.0796  0.3686 -0.6917
  831MOL0     C12059  10.100   7.238   8.925 -0.1565 -0.6351 -0.4506
  831MOL0     C12060  10.128   7.244   8.773  0.8579  0.4790 -0.5075
  831MOL0     C12061  10.106   7.387   8.720  0.3435 -0.5537 -0.2689
  831MOL0     C12062  10.152   7.413   8.577 -0.0953  0.8772 -0.3879
  831MOL0     C12063  10.088   7.525   8.504 -0.2283 -0.1546 -0.1875
  831MOL0     C12064  10.119   7.663   8.569  0.3711 -0.0052 -0.8453
  831MOL0     C12065  10.075   7.787   8.493  0.0301 -0.3192  1.0981
  831MOL0     C12066   9.919   7.787   8.476  0.4172 -0.2177  0.3701
  831MOL0     N12067   9.845   7.798   8.606 -0.2260  0.4745  0.2343
  831MOL0     C12068   9.775   7.700   8.674  0.1922  0.1470 -0.0391
  831MOL0     C12069   9.701   7.776   8.756  0.6635 -0.3314  0.0182
  831MOL0     C12070   9.580   7.734   8.835 -0.1317 -0.6627 -0.2166
  831MOL0     C12071   9.438   7.791   8.796  0.4236 -0.3797  0.3738
  831MOL0     C12072   9.341   7.796   8.920 -0.1808  0.7539 -0.1874
  831MOL0     C12073   9.214   7.875   8.902  0.8689  0.2567 -0.2874
  831MOL0     O12074   9.112   7.850   8.999  1.5109 -0.0365 -0.2470
  831MOL0     C12075   8.985   7.886   8.969  0.5587 -0.2284  0.2836
  831MOL0     C12076   8.963   7.985   8.877 -0.0906  0.2319  0.6432
  831MOL0     C12077   8.831   8.026   8.841 -0.1723  0.5259 -0.7783
  831MOL0     C12078   8.831   8.125   8.735  0.1329 -1.2715 -0.4002
  831MOL0     C12079   8.722   7.982   8.923 -0.1040  0.9892  0.6655
  831MOL0     C12080   8.583   8.022   8.894  0.2196  1.0182 -0.1064
  831MOL0     O12081   8.488   7.952   8.961 -0.0726  0.0547 -0.7610
  831MOL0     C12082   8.361   8.000   8.971 -0.4344 -0.1292  0.7613
  831MOL0     C12083   8.260   7.956   8.880 -0.5829  0.2587 -0.5383
  831MOL0     C12084   8.134   8.010   8.894 -0.2962 -0.3293 -1.1283
  831MOL0     C12085   8.094   8.092   9.000  0.3325  0.3368  0.7266
  831MOL0     O12086   7.965   8.126   9.036 -0.5746 -0.0122  0.6233
  831MOL0     C12087   7.854   8.067   8.966 -0.7661 -0.0328  1.2701
  831MOL0     C12088   7.726   8.106   9.035 -0.4349  0.0153 -0.1017
  831MOL0     C12089   7.597   8.066   8.949  0.0367 -0.2167  0.6790
  831MOL0     C12090   7.478   8.107   9.033 -0.0700  0.1561 -0.2094
  831MOL0     C12091   7.366   8.015   8.991  0.7353  0.2943  0.1029
  831MOL0     C12092   7.369   7.877   9.052 -0.4201 -0.9387 -0.6466
  831MOL0     C12093   7.246   7.789   9.022  0.5375 -0.1973 -0.4706
  831MOL0     C12094   7.272   7.651   9.070  0.0209 -0.4845 -0.0336
  831MOL0    Cl12095   7.375   7.560   8.958 -0.0244 -0.4141  0.1770
  831MOL0     C12096   8.188   8.132   9.091  0.3607 -0.0503  0.1368
  831MOL0     C12097   8.323   8.088   9.078  0.8027 -0.4027  0.2362
  831MOL0     O12098   8.554   8.122   8.824 -0.5436 -0.0397  0.1230
  831MOL0     C12099   8.746   7.892   9.021  0.3330  0.0723  0.1224
  831MOL0     C12100   8.877   7.836   9.043  0.1135  0.0070 -0.0965
  831MOL0     N12101   9.740   7.910   8.758  0.0291 -0.4151  0.7555
  831MOL0     N12102   9.833   7.920   8.666  0.3915 -0.0784 -0.6135
  831MOL0     C12103  10.335   7.130   9.085 -0.1147  0.8923  0.1003
  831MOL0     C12104  10.466   7.084   9.102 -0.2647  0.9420 -0.0113
  831MOL0     C12105  10.900   7.015   9.007 -0.5277 -0.3958 -0.0765
  831MOL0     C12106  11.000   7.104   8.962  0.4789  0.3615  0.0474
  831MOL0     C12107  11.132   7.097   8.997 -0.5551  0.2612  0.3440
  831MOL0     C12108  11.171   6.996   9.084 -0.3604  0.4632  0.5305
  831MOL0     O12109  11.304   7.005   9.144 -0.4836  0.3709  1.3705
  831MOL0     C12110  11.332   6.930   9.260  0.0871 -0.3960 -0.3563
  831MOL0     C12111  11.478   6.955   9.302  0.5385 -0.3696 -0.5319
  831MOL0     C12112  11.590   6.916   9.203  0.5393  0.3276  0.6038
  831MOL0     C12113  11.732   6.963   9.247 -0.1094  0.1671  0.2216
  831MOL0     C12114  11.743   7.112   9.246 -1.1233 -0.3397  0.5972
  831MOL0     C12115  11.748   7.232   9.254  0.1183 -0.3106  0.4828
  831MOL0     C12116  11.073   6.898   9.130  1.2127  0.3147 -0.0023
  831MOL0     C12117  10.935   6.914   9.095 -0.9749  0.2394 -0.1638
  831MOL0     H12118  10.510   6.885   8.846  1.2477  0.0137  1.7785
  831MOL0     H12119  10.261   6.959   8.804 -1.1089 -0.7780  0.5724
  831MOL0     H12120  10.005   7.280   8.960  1.7517  4.9558 -1.0741
  831MOL0     H12121  10.162   7.317   8.967 -1.7202  0.1229  0.5486
  831MOL0     H12122  10.233   7.221   8.753  0.6748  0.1677 -1.1433
  831MOL0     H12123  10.075   7.161   8.726  0.9268 -1.1019  2.0266
  831MOL0     H12124  10.000   7.409   8.734  0.7743  0.1784  2.3765
  831MOL0     H12125  10.166   7.444   8.792 -2.2382  1.9087  0.0698
  831MOL0     H12126  10.260   7.408   8.569  0.1829 -0.1991  2.6704
  831MOL0     H12127  10.123   7.330   8.512  1.1415  0.0519  0.0944
  831MOL0     H12128  10.124   7.531   8.401 -3.8172  0.6302 -1.5606
  831MOL0     H12129   9.981   7.505   8.496 -0.6053  1.6944 -0.2357
  831MOL0     H12130  10.068   7.666   8.666  1.1278 -2.0156 -0.3398
  831MOL0     H12131  10.227   7.665   8.586  0.1987  1.7807  0.3796
  831MOL0     H12132  10.100   7.878   8.548  2.8928  0.2236 -0.8730
  831MOL0     H12133  10.128   7.803   8.399  2.0388  1.2894  2.4205
  831MOL0     H12134   9.888   7.698   8.420 -0.9549 -1.0689  2.3614
  831MOL0     H12135   9.896   7.878   8.420 -0.1604 -0.9899 -0.6678
  831MOL0     H12136   9.780   7.592   8.664  0.2601  0.2751 -1.6322
  831MOL0     H12137   9.569   7.625   8.829 -0.7324 -0.5333 -1.8707
  831MOL0     H12138   9.600   7.776   8.934  0.2577  2.0124 -1.3463
  831MOL0     H12139   9.400   7.722   8.720  1.8756  1.3111 -2.0362
  831MOL0     H12140   9.445   7.890   8.750  3.0858  0.2517  1.9136
  831MOL0     H12141   9.390   7.839   9.008  2.8924 -2.0378 -0.3443
  831MOL0     H12142   9.329   7.693   8.953  2.9399 -0.6531 -2.8562
  831MOL0     H12143   9.186   7.847   8.800 -0.9644  1.0706 -0.0457
  831MOL0     H12144   9.242   7.980   8.913 -1.7811  0.7740  3.1506
  831MOL0     H12145   9.049   8.035   8.833 -0.8685  0.5242 -0.5758
  831MOL0     H12146   8.795   8.086   8.639  1.5766  2.5309 -2.7598
  831MOL0     H12147   8.765   8.208   8.762  1.8209 -0.4365  1.4165
  831MOL0     H12148   8.929   8.165   8.707 -1.5587  2.3018 -1.9400
  831MOL0     H12149   8.287   7.876   8.813  1.7408 -2.8902  3.6543
  831MOL0     H12150   8.048   7.994   8.829 -3.7485  2.6988  2.1853
  831MOL0     H12151   7.848   8.109   8.866 -0.2144 -1.6102  0.5477
  831MOL0     H12152   7.852   7.958   8.954 -0.1589  0.1819 -1.1308
  831MOL0     H12153   7.728   8.038   9.121  0.5251 -2.9476 -2.3131
  831MOL0     H12154   7.715   8.210   9.067  1.9445  0.1998  0.2978
  831MOL0     H12155   7.593   7.958   8.930  1.1304  0.0524 -1.2190
  831MOL0     H12156   7.610   8.110   8.850  1.0831 -0.7016  0.5880
  831MOL0     H12157   7.500   8.089   9.138  1.0663 -0.8758 -0.5873
  831MOL0     H12158   7.456   8.213   9.021  0.3784  0.3616  0.6996
  831MOL0     H12159   7.345   8.005   8.884 -2.6434  2.7329  0.3795
  831MOL0     H12160   7.276   8.067   9.025 -0.2093  1.8822 -4.1628
  831MOL0     H12161   7.457   7.818   9.028  1.8368  0.6682  2.8829
  831MOL0     H12162   7.369   7.896   9.160  3.5639 -0.2527 -0.6462
  831MOL0     H12163   7.231   7.787   8.914  0.8676  2.0789 -0.5935
  831MOL0     H12164   7.152   7.823   9.066  0.8899 -2.0257  1.8858
  831MOL0     H12165   7.182   7.595   9.094 -0.4217  0.4295  0.4996
  831MOL0     H12166   7.321   7.657   9.168 -2.2209  0.5960  1.0877
  831MOL0     H12167   8.145   8.179   9.180 -0.0578  1.5445 -0.8599
  831MOL0     H12168   8.389   8.123   9.156  0.0219 -0.2368  0.8317
  831MOL0     H12169   8.667   7.851   9.082 -0.5914 -0.4481 -1.3860
  831MOL0     H12170   8.883   7.768   9.127  3.1857 -0.2268 -0.3901
  831MOL0     H12171  10.284   7.198   9.154 -0.4843  0.5347  0.1846
  831MOL0     H12172  10.526   7.098   9.192  1.9435 -1.1133 -1.0553
  831MOL0     H12173  10.967   7.183   8.895  2.8054  0.5638 -0.9552
  831MOL0     H12174  11.212   7.166   8.969  1.7948 -1.7430  1.7080
  831MOL0     H12175  11.268   6.958   9.345  1.9628  0.4151  0.8530
  831MOL0     H12176  11.320   6.823   9.245 -0.0626 -0.5639  0.8654
  831MOL0     H12177  11.503   6.894   9.390  2.2885  0.9549 -0.0534
  831MOL0     H12178  11.478   7.062   9.329  2.6647  0.3232 -2.9712
  831MOL0     H12179  11.575   6.951   9.101  2.1190  1.6782  0.7866
  831MOL0     H12180  11.590   6.807   9.203  0.0146  0.3218  0.3231
  831MOL0     H12181  11.802   6.919   9.174  0.4940 -0.0947  0.9370
  831MOL0     H12182  11.764   6.931   9.347 -1.5356  1.1671  1.0214
  831MOL0     H12183  11.741   7.339   9.246 -3.1555 -0.5348 -1.2232
  831MOL0     H12184  11.101   6.817   9.198  1.6879 -0.6243 -1.2663
  831MOL0     H12185  10.864   6.845   9.140 -1.5557  0.7286 -0.3181
  832MOL0     O12186  10.931  10.199   5.110  0.3312  0.2496  0.8266
  832MOL0     C12187  10.929  10.299   5.188 -0.7882 -0.6077  0.1295
  832MOL0     O12188  10.902  10.285   5.328 -0.2882  0.2242 -0.0372
  832MOL0     C12189  10.894  10.155   5.380 -0.4999  0.3331 -0.0717
  832MOL0     C12190  10.815  10.141   5.487 -0.1728  0.4300  0.0643
  832MOL0     C12191  10.813  10.024   5.561  0.9084 -0.3051  0.4378
  832MOL0     C12192  10.892   9.918   5.521 -0.1722 -0.5492 -0.3044
  832MOL0     O12193  10.900   9.794   5.587 -0.2515 -0.3115  0.1201
  832MOL0     C12194  10.769   9.748   5.619  0.4692 -0.3309  0.4552
  832MOL0     C12195  10.652   9.743   5.504 -0.4618  0.0858  0.0085
  832MOL0     C12196  10.698   9.694   5.362 -0.4822 -0.3990 -0.6502
  832MOL0     C12197  10.689   9.800   5.257 -0.5653 -0.0033  1.7450
  832MOL0     C12198  10.787   9.772   5.145 -0.0050  0.2566 -0.1697
  832MOL0     C12199  10.718   9.684   5.046 -0.5020  0.1740  0.1912
  832MOL0     C12200  10.804   9.674   4.914  0.8783  1.2159 -0.5344
  832MOL0     C12201  10.925   9.593   4.935 -0.5111 -0.1415  0.4669
  832MOL0     N12202  11.004   9.586   4.810 -0.7266 -0.2706  0.3037
  832MOL0     C12203  10.988   9.493   4.710  0.2889  0.3170  0.4867
  832MOL0     C12204  11.100   9.491   4.634 -0.2252  0.0630  0.2220
  832MOL0     C12205  11.140   9.409   4.516 -0.1149 -0.3146 -1.0555
  832MOL0     C12206  11.026   9.346   4.447 -0.9298 -0.2480 -0.4439
  832MOL0     C12207  10.940   9.448   4.359  0.4192  0.3113 -0.1602
  832MOL0     C12208  10.814   9.383   4.308 -0.2418  0.0001  0.4712
  832MOL0     O12209  10.733   9.334   4.414  0.0735  0.5909 -0.2500
  832MOL0     C12210  10.601   9.300   4.379 -0.1416 -0.2402 -0.0470
  832MOL0     C12211  10.554   9.255   4.253 -0.1622 -0.5733  0.2593
  832MOL0     C12212  10.421   9.249   4.222 -0.6819  0.9442  0.2267
  832MOL0     C12213  10.398   9.213   4.077 -0.2699 -0.0121 -0.3699
  832MOL0     C12214  10.320   9.269   4.316  0.1739  0.1641  0.0147
  832MOL0     C12215  10.174   9.270   4.289  0.1184  0.3256  0.3237
  832MOL0     O12216  10.099   9.267   4.398  0.2676 -0.9240 -0.2920
  832MOL0     C12217   9.975   9.206   4.397  0.2010 -0.1074 -0.4523
  832MOL0     C12218   9.951   9.080   4.472  0.3820 -1.2905 -0.0966
  832MOL0     C12219   9.823   9.032   4.472  0.3250  0.4594 -0.5338
  832MOL0     C12220   9.718   9.091   4.402  0.4255 -0.9002 -0.5382
  832MOL0     O12221   9.597   9.027   4.409 -0.7358  0.4997 -0.3520
  832MOL0     C12222   9.486   9.076   4.330 -0.1439 -1.5209 -0.6079
  832MOL0     C12223   9.371   8.982   4.322  0.4067 -0.3688 -0.8995
  832MOL0     C12224   9.286   8.997   4.448  0.1225  0.3099  0.3434
  832MOL0     C12225   9.156   8.912   4.447  0.2761  0.2375  0.1025
  832MOL0     C12226   9.170   8.757   4.474  1.0123  0.4797  0.8171
  832MOL0     C12227   9.230   8.730   4.611  0.9423 -0.3028  0.9434
  832MOL0     C12228   9.203   8.593   4.659 -0.0869  0.0090  0.1218
  832MOL0     C12229   9.255   8.580   4.802 -0.0637  0.6820  0.2591
  832MOL0    Cl12230   9.421   8.519   4.815 -0.1070 -0.1082  0.2589
  832MOL0     C12231   9.744   9.211   4.325 -0.3152 -0.5605 -0.1810
  832MOL0     C12232   9.871   9.274   4.322  0.5940 -0.8065  0.3875
  832MOL0     O12233  10.130   9.267   4.174 -0.1907  0.0948 -0.6300
  832MOL0     C12234  10.366   9.305   4.449  0.5426 -0.3075  0.3290
  832MOL0     C12235  10.500   9.319   4.483 -0.6412  0.2289  0.6110
  832MOL0     N12236  11.190   9.579   4.692  0.4427 -1.0149 -0.3639
  832MOL0     N12237  11.134   9.651   4.792 -0.6750  0.4203 -0.2170
  832MOL0     C12238  10.982   9.939   5.418  0.4130  0.0221  0.2548
  832MOL0     C12239  10.990  10.057   5.349 -0.3712  0.9054 -0.2365
  832MOL0     C12240  10.955  10.431   5.136 -0.1649 -0.5457  0.5884
  832MOL0     C12241  10.906  10.464   5.004 -0.2929  0.2860  0.3048
  832MOL0     C12242  10.938  10.595   4.950 -0.4390 -0.5973  0.0864
  832MOL0     C12243  11.032  10.683   5.017  0.2616  1.6629 -0.5194
  832MOL0     O12244  11.061  10.793   4.942 -0.0551 -0.3534 -0.1286
  832MOL0     C12245  11.167  10.871   4.990 -0.3216 -0.1791 -0.4195
  832MOL0     C12246  11.187  10.985   4.878  0.8745  0.1657  0.1685
  832MOL0     C12247  11.281  11.094   4.932  0.2113  0.2702 -0.7988
  832MOL0     C12248  11.290  11.213   4.840  0.6843  0.2507 -0.6541
  832MOL0     C12249  11.339  11.333   4.912 -0.0631 -0.1197  0.4726
  832MOL0     C12250  11.387  11.427   4.970 -0.6725  0.3403  0.1643
  832MOL0     C12251  11.073  10.644   5.150 -0.4394  0.3946  0.6752
  832MOL0     C12252  11.035  10.520   5.206 -0.5312 -0.7261  0.6923
  832MOL0     H12253  10.734  10.205   5.519 -0.9666 -2.4551  4.7641
  832MOL0     H12254  10.740  10.026   5.641 -0.4576  4.3133 -0.5883
  832MOL0     H12255  10.778   9.642   5.645  2.0691 -1.0987 -2.7966
  832MOL0     H12256  10.725   9.803   5.703 -0.7260  1.0936 -1.0265
  832MOL0     H12257  10.584   9.662   5.532 -0.7629 -0.4420 -2.1081
  832MOL0     H12258  10.590   9.832   5.514 -0.3203  0.1230  0.6144
  832MOL0     H12259  10.801   9.661   5.376  0.0112  1.2291 -0.2501
  832MOL0     H12260  10.649   9.601   5.331  0.9001 -1.5327  0.4685
  832MOL0     H12261  10.584   9.815   5.230 -0.5816 -0.1559  1.7214
  832MOL0     H12262  10.714   9.892   5.310 -1.5629  0.2870  1.7365
  832MOL0     H12263  10.828   9.866   5.107 -2.5314  1.6707  0.3795
  832MOL0     H12264  10.861   9.710   5.197 -0.0506  0.9788  0.7800
  832MOL0     H12265  10.703   9.584   5.088  1.4204  0.4035  1.5577
  832MOL0     H12266  10.621   9.730   5.031  0.8943  3.0377 -0.7619
  832MOL0     H12267  10.743   9.631   4.834 -0.8072  2.7415 -0.1428
  832MOL0     H12268  10.834   9.770   4.872  0.2830  1.9192  0.5762
  832MOL0     H12269  10.918   9.490   4.971 -0.6976 -0.0437  0.7219
  832MOL0     H12270  10.987   9.639   5.013  0.3653 -0.5047 -0.0008
  832MOL0     H12271  10.893   9.441   4.699  0.8672 -1.0873  1.7583
  832MOL0     H12272  11.201   9.471   4.450 -2.1245  1.7696 -1.1162
  832MOL0     H12273  11.206   9.328   4.546  1.5857  1.6979  1.0140
  832MOL0     H12274  10.958   9.311   4.526 -0.4804  1.2072  0.6309
  832MOL0     H12275  11.050   9.257   4.387 -2.3660 -2.3085  1.8266
  832MOL0     H12276  11.009   9.472   4.278  2.0965 -1.5957  0.6198
  832MOL0     H12277  10.906   9.537   4.414  1.8221  1.2985 -0.8197
  832MOL0     H12278  10.847   9.295   4.251 -2.2411  0.4139 -1.4347
  832MOL0     H12279  10.768   9.454   4.240  2.1740  0.6544 -0.6055
  832MOL0     H12280  10.629   9.236   4.177 -0.7594  0.3630 -0.6060
  832MOL0     H12281  10.334   9.285   4.025  1.7272 -0.3063 -3.5596
  832MOL0     H12282  10.488   9.209   4.013 -1.1431  1.9076 -1.8256
  832MOL0     H12283  10.342   9.120   4.065 -1.5220  0.6897 -0.1522
  832MOL0     H12284  10.035   9.035   4.524  2.3081  1.1273 -0.9800
  832MOL0     H12285   9.807   8.943   4.532  0.2404 -0.5526 -2.0160
  832MOL0     H12286   9.461   9.176   4.366 -1.0737 -3.3552  4.7106
  832MOL0     H12287   9.516   9.090   4.226 -0.7497  0.4892 -0.5620
  832MOL0     H12288   9.311   9.018   4.237  2.0675  1.8293 -1.2467
  832MOL0     H12289   9.411   8.889   4.282 -1.7714 -1.3958 -0.7897
  832MOL0     H12290   9.276   9.104   4.468 -1.7052  0.4512 -0.9755
  832MOL0     H12291   9.354   8.958   4.524  0.6371 -1.0881 -0.7790
  832MOL0     H12292   9.103   8.947   4.536 -0.3371 -0.5290  0.0459
  832MOL0     H12293   9.096   8.928   4.357 -1.5661 -1.8401  0.8762
  832MOL0     H12294   9.219   8.699   4.395 -2.0442  0.6528 -1.3703
  832MOL0     H12295   9.064   8.730   4.467  0.8378  1.6873 -2.2159
  832MOL0     H12296   9.337   8.753   4.615  1.1763 -1.2975  0.6710
  832MOL0     H12297   9.180   8.798   4.680  1.5330  0.7524  0.3593
  832MOL0     H12298   9.260   8.516   4.606 -0.8057  0.2430 -1.0277
  832MOL0     H12299   9.094   8.588   4.655 -0.3767  1.8834  2.8985
  832MOL0     H12300   9.195   8.501   4.848  0.8898 -1.7477 -2.3624
  832MOL0     H12301   9.245   8.673   4.859  2.8277  0.7966  0.7064
  832MOL0     H12302   9.666   9.272   4.279  0.3339  2.2852  2.1842
  832MOL0     H12303   9.878   9.377   4.290  0.2421 -0.8129  0.2891
  832MOL0     H12304  10.293   9.319   4.527 -0.5056 -2.0937 -0.2711
  832MOL0     H12305  10.524   9.350   4.584 -1.6420 -3.8384  2.2874
  832MOL0     H12306  11.054   9.864   5.389  0.8939  0.3493  0.5862
  832MOL0     H12307  11.062  10.068   5.269  0.2587 -0.7785  0.0616
  832MOL0     H12308  10.846  10.392   4.947  1.6896  0.4567 -2.1781
  832MOL0     H12309  10.902  10.623   4.852  0.3067  1.4471  0.3590
  832MOL0     H12310  11.138  10.910   5.088 -2.1435 -2.0634 -0.1350
  832MOL0     H12311  11.256  10.808   4.997 -1.0875 -1.4403 -1.5005
  832MOL0     H12312  11.093  11.034   4.853  0.7017  0.4949  1.4017
  832MOL0     H12313  11.221  10.940   4.784 -1.0573  0.5076 -0.7388
  832MOL0     H12314  11.381  11.052   4.948 -0.9753 -2.6825 -0.3698
  832MOL0     H12315  11.246  11.125   5.031 -0.1839  2.3925 -1.5535
  832MOL0     H12316  11.190  11.225   4.800  0.8081  3.3123 -0.3006
  832MOL0     H12317  11.364  11.192   4.762 -0.6831 -0.8065 -1.7023
  832MOL0     H12318  11.431  11.514   5.015  1.8740 -1.1370  0.7825
  832MOL0     H12319  11.128  10.718   5.206  0.6302 -2.3108  3.5235
  832MOL0     H12320  11.065  10.497   5.307  0.0288  1.9818  1.2138
  833MOL0     O12321   1.152   4.703   1.013  0.4292 -0.8453 -0.0165
  833MOL0     C12322   1.238   4.631   1.057  0.6947 -0.2681 -0.2288
  833MOL0     O12323   1.244   4.498   1.041 -0.7563  0.8842  0.0785
  833MOL0     C12324   1.155   4.420   0.968  0.6181 -0.0194  0.2000
  833MOL0     C12325   1.018   4.419   0.990  0.1366  0.3408  0.4246
  833MOL0     C12326   0.927   4.335   0.923 -0.1303  0.5030  0.8470
  833MOL0     C12327   0.968   4.251   0.818 -0.1602 -0.6544  0.3633
  833MOL0     O12328   0.885   4.170   0.742 -0.2372 -0.0677  0.5791
  833MOL0     C12329   0.759   4.138   0.799  1.3303  0.1961  0.1918
  833MOL0     C12330   0.657   4.220   0.720 -0.3020  0.1200  0.2007
  833MOL0     C12331   0.523   4.199   0.767  1.0039 -0.1414 -0.2190
  833MOL0     C12332   0.478   4.054   0.757 -0.3258  0.1000  1.0084
  833MOL0     C12333   0.323   4.071   0.737  0.0726  0.5466 -0.9238
  833MOL0     C12334   0.235   3.947   0.743 -0.0055  0.7390  0.2108
  833MOL0     C12335   0.085   3.981   0.739 -0.2956 -0.0596 -0.4809
  833MOL0     C12336  -0.001   3.855   0.743  0.1701  0.7198 -0.6033
  833MOL0     N12337  -0.137   3.891   0.766  0.3819  0.7601 -0.5598
  833MOL0     C12338  -0.227   3.954   0.683  0.0877  0.1679 -0.6555
  833MOL0     C12339  -0.335   3.977   0.771  0.3911 -0.2370  0.4726
  833MOL0     C12340  -0.452   4.063   0.731  0.9391  0.3084  0.3126
  833MOL0     C12341  -0.578   3.999   0.793  0.5387 -0.7369 -0.3323
  833MOL0     C12342  -0.705   4.081   0.751 -0.4130  0.4682 -0.6993
  833MOL0     C12343  -0.827   4.065   0.833 -0.0769  1.0153 -0.3338
  833MOL0     O12344  -0.888   3.936   0.812  0.1563  0.5925 -0.5842
  833MOL0     C12345  -1.020   3.913   0.843  0.2700 -0.1494  0.2712
  833MOL0     C12346  -1.071   3.797   0.798  0.1516 -1.1525 -0.3073
  833MOL0     C12347  -1.200   3.760   0.831  0.2365  0.5696  0.6170
  833MOL0     C12348  -1.239   3.619   0.796  0.3267 -0.5328 -0.1885
  833MOL0     C12349  -1.287   3.844   0.915 -0.7673 -0.3271  0.1050
  833MOL0     C12350  -1.426   3.811   0.972  0.0707 -0.2033 -0.1873
  833MOL0     O12351  -1.476   3.901   1.063 -0.1588  0.3662 -0.3869
  833MOL0     C12352  -1.613   3.891   1.102 -0.2180  0.1122 -0.4840
  833MOL0     C12353  -1.691   4.011   1.123  0.5964 -0.5716 -0.1678
  833MOL0     C12354  -1.816   4.009   1.180 -0.2075 -0.4599  0.4663
  833MOL0     C12355  -1.871   3.889   1.228  0.0741 -0.4176 -0.0559
  833MOL0     O12356  -1.991   3.890   1.305 -0.2228  0.0888 -0.0890
  833MOL0     C12357  -1.997   3.795   1.405 -0.6251  0.8938  0.2514
  833MOL0     C12358  -2.068   3.837   1.531 -0.5530  0.1528  0.2455
  833MOL0     C12359  -2.223   3.825   1.527  1.0063 -0.5384  0.0380
  833MOL0     C12360  -2.284   3.870   1.664  0.2222 -0.5511 -0.3654
  833MOL0     C12361  -2.315   4.016   1.674 -0.0045 -0.3639  0.5725
  833MOL0     C12362  -2.307   4.090   1.809 -0.3601 -0.0114  0.3480
  833MOL0     C12363  -2.429   4.060   1.896 -0.2051 -0.1550 -0.4729
  833MOL0     C12364  -2.535   4.168   1.884  0.1614 -0.6977 -0.0342
  833MOL0    Cl12365  -2.692   4.123   1.956 -0.0432 -0.6163 -0.1972
  833MOL0     C12366  -1.796   3.770   1.205  0.0411 -0.6237 -0.2553
  833MOL0     C12367  -1.673   3.770   1.142 -0.3060 -0.8560 -0.0200
  833MOL0     O12368  -1.483   3.707   0.935  0.2147 -0.1979 -0.0654
  833MOL0     C12369  -1.237   3.975   0.947  0.7558 -0.0480 -0.2754
  833MOL0     C12370  -1.107   4.010   0.914 -0.5366 -0.6467  0.6614
  833MOL0     N12371  -0.303   3.932   0.898 -0.5325 -0.0911 -0.2794
  833MOL0     N12372  -0.179   3.892   0.898  0.4482  0.3971  0.6312
  833MOL0     C12373   1.108   4.252   0.785 -0.0688 -0.3008 -0.5899
  833MOL0     C12374   1.202   4.326   0.864  0.4440 -0.5467 -0.0699
  833MOL0     C12375   1.359   4.686   1.125  0.6164  0.4215 -0.4129
  833MOL0     C12376   1.482   4.629   1.100 -0.4070 -0.2499 -0.2294
  833MOL0     C12377   1.596   4.681   1.159 -0.5769 -0.0504 -0.4311
  833MOL0     C12378   1.588   4.778   1.256  0.0252 -0.2065 -0.3229
  833MOL0     O12379   1.703   4.812   1.324 -0.5416 -0.3350 -0.7943
  833MOL0     C12380   1.743   4.724   1.433  0.2038 -0.0418 -0.9535
  833MOL0     C12381   1.681   4.764   1.572 -0.5257 -0.2798  0.4492
  833MOL0     C12382   1.647   4.909   1.592 -0.1302 -0.1432  0.0728
  833MOL0     C12383   1.589   4.944   1.733 -0.2074  0.3458 -1.3424
  833MOL0     C12384   1.452   4.885   1.753  0.0663  0.1094 -0.5792
  833MOL0     C12385   1.351   4.825   1.778  0.4850  0.0935  0.1222
  833MOL0     C12386   1.458   4.830   1.293  0.0727  0.3373 -0.2549
  833MOL0     C12387   1.346   4.792   1.222  0.1148 -0.7456 -1.0435
  833MOL0     H12388   0.965   4.485   1.058 -1.2767 -1.9754  1.7352
  833MOL0     H12389   0.819   4.335   0.934 -0.3524 -2.5516 -0.4566
  833MOL0     H12390   0.733   4.033   0.783  2.0232 -0.4862  2.9203
  833MOL0     H12391   0.751   4.148   0.908  1.4258 -2.5203  0.5057
  833MOL0     H12392   0.679   4.327   0.726  0.2637 -0.0455  1.3911
  833MOL0     H12393   0.649   4.187   0.616 -1.9956 -1.9958  0.9376
  833MOL0     H12394   0.513   4.223   0.873  1.2466  3.8535 -0.9365
  833MOL0     H12395   0.455   4.256   0.702  0.8185 -0.0471  0.0540
  833MOL0     H12396   0.521   4.008   0.668  0.3146  0.6025  1.0560
  833MOL0     H12397   0.497   3.983   0.838 -1.8342 -0.6301  0.7735
  833MOL0     H12398   0.286   4.149   0.804  2.2569  2.2549 -1.6006
  833MOL0     H12399   0.314   4.117   0.638 -3.0021  1.1040 -0.4734
  833MOL0     H12400   0.273   3.884   0.662 -0.9745 -0.7585  0.8608
  833MOL0     H12401   0.264   3.896   0.836  3.2111  2.9105  0.5446
  833MOL0     H12402   0.061   4.043   0.826 -0.4679 -1.6531  0.6272
  833MOL0     H12403   0.065   4.034   0.645 -1.1904  1.2473  0.4170
  833MOL0     H12404   0.049   3.795   0.819  0.4282  2.1893  0.4370
  833MOL0     H12405   0.001   3.806   0.645 -5.8625  4.9946 -3.5725
  833MOL0     H12406  -0.209   3.960   0.576 -0.4798 -2.9407 -1.0289
  833MOL0     H12407  -0.436   4.168   0.755  1.4290  0.9131 -2.3525
  833MOL0     H12408  -0.463   4.049   0.623  2.7382 -1.9114  0.3255
  833MOL0     H12409  -0.570   3.997   0.902 -0.2499  0.4549 -0.2288
  833MOL0     H12410  -0.590   3.897   0.757  0.1904 -0.5179 -0.8465
  833MOL0     H12411  -0.727   4.053   0.648 -1.5483 -0.9870 -0.1054
  833MOL0     H12412  -0.687   4.189   0.752  0.8159  0.3475  2.3045
  833MOL0     H12413  -0.895   4.143   0.798 -1.2576 -0.1170 -0.6559
  833MOL0     H12414  -0.809   4.078   0.940 -1.7205  3.1396 -0.2464
  833MOL0     H12415  -1.003   3.740   0.736 -0.7011 -2.1131 -0.3860
  833MOL0     H12416  -1.167   3.572   0.728 -0.2128 -1.0180 -0.4383
  833MOL0     H12417  -1.237   3.568   0.892 -0.3705 -0.2247 -0.0002
  833MOL0     H12418  -1.339   3.610   0.752  0.5752  0.9249 -1.1392
  833MOL0     H12419  -1.640   4.104   1.103 -1.4077  1.4677  3.3003
  833MOL0     H12420  -1.859   4.108   1.190  1.7574  0.7237 -1.8098
  833MOL0     H12421  -2.053   3.707   1.372 -0.0091 -0.0408  1.6078
  833MOL0     H12422  -1.894   3.770   1.427 -1.1014  0.4212  2.0866
  833MOL0     H12423  -2.033   3.769   1.609  0.3972  0.2873 -0.0567
  833MOL0     H12424  -2.041   3.941   1.554  0.0024 -0.2063  1.2797
  833MOL0     H12425  -2.241   3.721   1.498  0.9070 -0.4888 -0.0832
  833MOL0     H12426  -2.268   3.894   1.455  2.9149  1.7765  0.9385
  833MOL0     H12427  -2.369   3.814   1.703 -0.5819  1.6691  1.2272
  833MOL0     H12428  -2.200   3.849   1.731  0.3306  0.4003 -0.1909
  833MOL0     H12429  -2.420   4.024   1.644  0.2738 -0.3728 -0.4127
  833MOL0     H12430  -2.256   4.073   1.602 -0.2111 -2.2364 -1.1847
  833MOL0     H12431  -2.217   4.060   1.863  0.6869  0.0276 -1.3087
  833MOL0     H12432  -2.306   4.199   1.795 -1.1979  0.3213  2.4701
  833MOL0     H12433  -2.406   4.056   2.003 -1.3425  0.6308 -0.1819
  833MOL0     H12434  -2.478   3.967   1.864  0.3606  0.6921 -4.4124
  833MOL0     H12435  -2.555   4.196   1.781 -0.4628  1.2505  0.5713
  833MOL0     H12436  -2.503   4.259   1.935 -0.6810 -0.4493  0.0653
  833MOL0     H12437  -1.832   3.676   1.246 -1.3393  0.0740  0.2038
  833MOL0     H12438  -1.609   3.683   1.140  0.4419 -0.3807  1.6939
  833MOL0     H12439  -1.293   4.049   1.003  1.3833  0.8424 -0.8160
  833MOL0     H12440  -1.072   4.104   0.953 -2.1488  0.4419 -0.3680
  833MOL0     H12441   1.159   4.202   0.704  1.2841 -0.9062  0.6006
  833MOL0     H12442   1.307   4.324   0.838  0.4113  2.4497 -0.8795
  833MOL0     H12443   1.496   4.553   1.024  2.2789  1.3279 -1.4438
  833MOL0     H12444   1.700   4.654   1.140 -0.3236  0.4323  0.2423
  833MOL0     H12445   1.712   4.621   1.417 -0.2999 -0.6673  3.0330
  833MOL0     H12446   1.852   4.726   1.440  0.1185  0.1251  0.6457
  833MOL0     H12447   1.735   4.718   1.654  1.1299  1.4792  0.4078
  833MOL0     H12448   1.583   4.715   1.572 -1.3756  1.3201 -0.4683
  833MOL0     H12449   1.579   4.937   1.511 -1.2752 -0.3777  0.9446
  833MOL0     H12450   1.739   4.967   1.579 -0.9606  1.5482  1.4200
  833MOL0     H12451   1.588   5.052   1.747 -2.7076  0.5319 -2.5073
  833MOL0     H12452   1.653   4.905   1.814 -0.9576 -0.9383 -1.3303
  833MOL0     H12453   1.256   4.778   1.791  0.2201  0.0430 -1.8012
  833MOL0     H12454   1.421   4.901   1.365 -3.6218 -0.0868 -1.4856
  833MOL0     H12455   1.249   4.836   1.239 -0.0900 -1.4537 -0.3465
  834MOL0     O12456   0.738   2.209   7.373 -0.1168  0.3432  1.0661
  834MOL0     C12457   0.697   2.308   7.316  0.9196 -0.5288  1.2339
  834MOL0     O12458   0.558   2.332   7.305  0.1164  0.0481 -0.1430
  834MOL0     C12459   0.466   2.246   7.351 -0.1083 -0.6037 -0.3921
  834MOL0     C12460   0.413   2.273   7.474 -0.2954 -0.1033 -0.8380
  834MOL0     C12461   0.334   2.176   7.539 -0.2988 -0.0201  0.0847
  834MOL0     C12462   0.316   2.056   7.475  0.3595  0.1853 -0.6903
  834MOL0     O12463   0.256   1.963   7.561  0.3661  0.2915  0.4438
  834MOL0     C12464   0.176   1.873   7.488  0.3063  0.5867 -0.6638
  834MOL0     C12465   0.095   1.782   7.582 -0.1139 -0.4521 -0.2193
  834MOL0     C12466  -0.039   1.827   7.605 -0.0530  0.8158  0.7055
  834MOL0     C12467  -0.050   1.962   7.684  0.0153  0.7184  0.0136
  834MOL0     C12468  -0.199   1.982   7.727  0.0850 -0.7274 -0.3491
  834MOL0     C12469  -0.220   2.119   7.787 -0.1691  0.3388  0.5638
  834MOL0     C12470  -0.362   2.145   7.839  0.2433 -0.4356 -0.0949
  834MOL0     C12471  -0.384   2.302   7.858 -0.1779 -0.2352  0.2868
  834MOL0     N12472  -0.276   2.370   7.929 -0.0256 -0.7365 -0.0095
  834MOL0     C12473  -0.175   2.452   7.880  0.2228 -0.6569 -0.1084
  834MOL0     C12474  -0.110   2.500   7.981  0.3254  0.8032  0.0978
  834MOL0     C12475   0.006   2.584   7.997 -0.5567 -0.8075  0.3994
  834MOL0     C12476   0.115   2.536   7.907 -0.1483  0.0130 -0.1560
  834MOL0     C12477   0.112   2.580   7.764  0.2036 -0.1651  0.7006
  834MOL0     C12478   0.251   2.559   7.705  0.3017  0.3479  0.1189
  834MOL0     O12479   0.339   2.665   7.728  0.0337 -0.9103 -0.0445
  834MOL0     C12480   0.474   2.642   7.747 -0.8340 -0.4055  0.2847
  834MOL0     C12481   0.532   2.621   7.867 -0.4374 -0.1388 -0.1037
  834MOL0     C12482   0.670   2.602   7.875  0.3834  1.0987 -0.1329
  834MOL0     C12483   0.740   2.593   8.013  1.1924  0.0386  0.0879
  834MOL0     C12484   0.748   2.581   7.760  0.1563  0.0610  0.7150
  834MOL0     C12485   0.901   2.547   7.752  0.5610  0.9609  0.4192
  834MOL0     O12486   0.960   2.522   7.635  0.3340  0.4912  0.1382
  834MOL0     C12487   1.096   2.496   7.633 -0.6466 -0.0763  0.0856
  834MOL0     C12488   1.143   2.379   7.676  0.4248  0.3440 -0.0658
  834MOL0     C12489   1.275   2.340   7.632 -0.3226 -0.5400  0.1044
  834MOL0     C12490   1.352   2.409   7.535 -0.1233 -0.4377  0.6807
  834MOL0     O12491   1.474   2.373   7.492  1.1452 -0.5636  0.7785
  834MOL0     C12492   1.565   2.338   7.595 -0.6726  1.2903  0.1827
  834MOL0     C12493   1.702   2.312   7.527 -1.0346  0.0312 -0.0294
  834MOL0     C12494   1.702   2.217   7.409  0.9954 -0.1559  0.2902
  834MOL0     C12495   1.842   2.184   7.372 -0.7313  0.9162  0.2850
  834MOL0     C12496   1.837   2.059   7.274 -1.3847 -0.3563 -0.2963
  834MOL0     C12497   1.988   2.039   7.245 -0.4527 -0.2753  1.0055
  834MOL0     C12498   2.023   1.925   7.142 -0.2344 -0.0383 -0.2836
  834MOL0     C12499   1.943   1.921   7.007 -0.1000  0.3782  0.1891
  834MOL0    Cl12500   2.003   1.800   6.884 -0.0743  0.1094 -0.0024
  834MOL0     C12501   1.290   2.532   7.490 -0.3237 -0.1531 -0.4218
  834MOL0     C12502   1.168   2.584   7.548  0.3758  0.6643  0.6003
  834MOL0     O12503   0.966   2.543   7.857  0.3696  0.3986  0.1313
  834MOL0     C12504   0.682   2.587   7.630  0.5963 -0.0929 -0.1748
  834MOL0     C12505   0.545   2.620   7.628 -0.0437 -0.8470 -0.0156
  834MOL0     N12506  -0.167   2.445   8.094 -0.5703  0.2254  0.9436
  834MOL0     N12507  -0.253   2.359   8.055  0.8746  1.5323  0.6332
  834MOL0     C12508   0.368   2.024   7.348 -0.1244  0.4826 -0.9982
  834MOL0     C12509   0.450   2.123   7.289 -0.3591  0.0579  0.0054
  834MOL0     C12510   0.791   2.410   7.268 -0.9299  0.0237  0.6065
  834MOL0     C12511   0.925   2.404   7.306  0.4219  0.3684  0.2187
  834MOL0     C12512   1.016   2.507   7.269 -0.5595  0.3160  0.4211
  834MOL0     C12513   0.976   2.616   7.196  0.2302  0.0973 -0.3483
  834MOL0     O12514   1.055   2.712   7.155 -0.0042  0.3061  0.4127
  834MOL0     C12515   1.204   2.693   7.158 -0.6617 -0.0821  0.1544
  834MOL0     C12516   1.254   2.790   7.043  0.4953  0.6637 -0.0181
  834MOL0     C12517   1.389   2.860   7.071  0.3050 -0.2075  0.4039
  834MOL0     C12518   1.411   2.998   7.004  0.0656  0.5293 -0.3604
  834MOL0     C12519   1.352   3.104   7.085  0.2145  0.1879  0.4456
  834MOL0     C12520   1.307   3.191   7.152  1.1258  0.6978 -0.2230
  834MOL0     C12521   0.839   2.623   7.165 -0.4370  0.2574  0.0404
  834MOL0     C12522   0.744   2.528   7.212 -0.0152 -0.9054  0.6407
  834MOL0     H12523   0.434   2.365   7.528 -0.0494  0.0361 -1.1644
  834MOL0     H12524   0.304   2.206   7.639  1.1406 -3.6806  1.7843
  834MOL0     H12525   0.106   1.920   7.419  0.5932  0.9584 -0.7019
  834MOL0     H12526   0.242   1.802   7.436  0.2146 -0.2857  0.3589
  834MOL0     H12527   0.097   1.684   7.532  2.8942  0.4918 -2.3019
  834MOL0     H12528   0.140   1.764   7.680 -3.9491  1.9870  2.2398
  834MOL0     H12529  -0.091   1.834   7.510 -0.1500  0.2693  0.7146
  834MOL0     H12530  -0.088   1.741   7.653  1.6377  0.3212  1.6182
  834MOL0     H12531   0.008   1.949   7.776 -1.1009 -0.1089  0.6406
  834MOL0     H12532  -0.021   2.047   7.623  1.2697 -1.5409 -2.7864
  834MOL0     H12533  -0.262   1.965   7.639 -1.0599  2.4673 -0.2772
  834MOL0     H12534  -0.234   1.912   7.804 -0.2814  1.3063  1.4177
  834MOL0     H12535  -0.149   2.137   7.867 -2.7963  1.3244  2.8313
  834MOL0     H12536  -0.197   2.193   7.709 -5.5352  3.4525  1.4413
  834MOL0     H12537  -0.448   2.117   7.778 -2.6288  2.7341  2.1012
  834MOL0     H12538  -0.367   2.092   7.935 -2.1928 -1.2614 -0.6209
  834MOL0     H12539  -0.480   2.329   7.902 -0.0034  1.3648 -0.2465
  834MOL0     H12540  -0.387   2.369   7.772  4.1169  1.3270  1.0903
  834MOL0     H12541  -0.160   2.473   7.774  0.2052  2.3377  0.4240
  834MOL0     H12542  -0.018   2.690   7.983 -0.3032 -0.8851 -0.7524
  834MOL0     H12543   0.049   2.570   8.097 -0.5132 -0.9758  0.3583
  834MOL0     H12544   0.129   2.429   7.927  0.3757 -0.1441 -1.2747
  834MOL0     H12545   0.210   2.580   7.938 -0.1696  0.6936 -1.0210
  834MOL0     H12546   0.099   2.689   7.767  2.7301  0.1715  2.9584
  834MOL0     H12547   0.035   2.530   7.704  1.3503 -0.8439 -0.2567
  834MOL0     H12548   0.242   2.538   7.598 -0.3190 -2.1809  0.6282
  834MOL0     H12549   0.296   2.469   7.746 -0.0348 -0.4085 -1.1249
  834MOL0     H12550   0.467   2.630   7.954 -0.5250 -2.4248  0.1315
  834MOL0     H12551   0.826   2.659   8.002  2.0262 -1.1228 -0.6799
  834MOL0     H12552   0.664   2.625   8.085  0.4558  0.0423 -0.6659
  834MOL0     H12553   0.771   2.492   8.039  0.9360  0.0223  0.3329
  834MOL0     H12554   1.085   2.315   7.742 -1.3948  4.4727  2.7720
  834MOL0     H12555   1.319   2.242   7.646 -0.1549 -0.3037  1.2650
  834MOL0     H12556   1.569   2.415   7.673  0.5677  1.9917 -0.5337
  834MOL0     H12557   1.532   2.248   7.646 -1.4341  1.5358  0.1333
  834MOL0     H12558   1.740   2.413   7.511 -3.3878  0.7739 -1.3856
  834MOL0     H12559   1.767   2.256   7.596  1.2956 -1.7028 -3.3563
  834MOL0     H12560   1.642   2.252   7.325 -1.5107 -3.7715  0.3272
  834MOL0     H12561   1.652   2.125   7.442  1.8862 -0.7082  0.1345
  834MOL0     H12562   1.892   2.273   7.332  1.6858 -0.8768 -0.9487
  834MOL0     H12563   1.892   2.151   7.463  0.5721 -2.1478 -1.4271
  834MOL0     H12564   1.777   2.088   7.187 -2.3404 -1.1384  0.0942
  834MOL0     H12565   1.794   1.964   7.308 -1.2521 -0.5208 -0.5810
  834MOL0     H12566   2.037   2.128   7.205  0.2840 -0.1613  2.1254
  834MOL0     H12567   2.039   2.015   7.339 -1.1731  2.3445  2.1461
  834MOL0     H12568   2.015   1.825   7.186  2.6104 -0.9235 -1.5588
  834MOL0     H12569   2.125   1.941   7.107  0.1632  1.5155  1.4747
  834MOL0     H12570   1.949   2.017   6.956 -0.9427  0.3425  0.0003
  834MOL0     H12571   1.836   1.903   7.023 -0.1987  1.0436  0.3148
  834MOL0     H12572   1.340   2.582   7.407 -0.7355  0.5020 -0.2866
  834MOL0     H12573   1.118   2.677   7.526 -0.1935 -0.0317 -1.1546
  834MOL0     H12574   0.737   2.590   7.537 -0.2133  0.6187 -0.6440
  834MOL0     H12575   0.491   2.622   7.534  0.5107 -0.2504 -0.3295
  834MOL0     H12576   0.363   1.928   7.297 -0.4658 -0.9598  1.5856
  834MOL0     H12577   0.493   2.100   7.192 -0.5294 -0.1677 -0.0167
  834MOL0     H12578   0.973   2.316   7.347  1.3987  0.9623  0.3868
  834MOL0     H12579   1.123   2.499   7.289 -0.6073 -0.2460  0.4635
  834MOL0     H12580   1.249   2.707   7.257  0.1252  0.2617 -0.2480
  834MOL0     H12581   1.226   2.590   7.129 -1.4775 -0.5722  1.1693
  834MOL0     H12582   1.172   2.854   7.009  1.6391  2.3571  0.2431
  834MOL0     H12583   1.262   2.722   6.958  0.9913 -0.5419  0.9607
  834MOL0     H12584   1.476   2.798   7.047  1.6521  0.7646  2.5118
  834MOL0     H12585   1.404   2.867   7.180 -0.1846 -1.4908  0.5743
  834MOL0     H12586   1.379   2.997   6.899  0.7523  0.5400 -0.5795
  834MOL0     H12587   1.519   3.014   7.000  0.1515 -0.1986 -2.5429
  834MOL0     H12588   1.266   3.273   7.207 -0.3676 -0.1507 -0.0295
  834MOL0     H12589   0.805   2.706   7.105  1.8460  1.3435  0.1672
  834MOL0     H12590   0.636   2.535   7.199 -0.0303 -0.3044  1.0451
  835MOL0     O12591   2.411   1.388   9.662  0.2562  0.3624 -0.3747
  835MOL0     C12592   2.481   1.353   9.567 -0.1461 -0.0527 -1.4411
  835MOL0     O12593   2.426   1.293   9.451 -0.1628  0.2070 -0.2854
  835MOL0     C12594   2.289   1.263   9.453 -0.6437 -0.5030  0.6483
  835MOL0     C12595   2.224   1.311   9.345 -0.0532 -0.4169  0.2905
  835MOL0     C12596   2.087   1.283   9.328  0.4699  0.3415 -0.1270
  835MOL0     C12597   2.022   1.210   9.424 -0.0093 -0.0628 -0.2061
  835MOL0     O12598   1.886   1.196   9.407 -0.3188  0.7443  0.6439
  835MOL0     C12599   1.805   1.144   9.516  1.3074 -0.4674 -0.3830
  835MOL0     C12600   1.662   1.125   9.460 -0.0060  0.2040 -1.1498
  835MOL0     C12601   1.563   1.122   9.577  0.4720 -0.1788  0.3619
  835MOL0     C12602   1.425   1.092   9.511  0.6104  0.2863  0.7507
  835MOL0     C12603   1.297   1.113   9.588 -0.2370 -0.1959 -0.4030
  835MOL0     C12604   1.190   1.032   9.531 -0.3805 -0.5398 -0.3912
  835MOL0     C12605   1.056   1.083   9.589 -0.6413  0.1616  0.8273
  835MOL0     C12606   0.952   1.012   9.503 -0.4237 -0.3936  0.3089
  835MOL0     N12607   0.811   1.038   9.530  0.1517 -0.6105 -0.0041
  835MOL0     C12608   0.719   0.932   9.537 -0.0978 -0.0501 -0.1513
  835MOL0     C12609   0.595   0.996   9.514  0.9009  0.6879  0.1476
  835MOL0     C12610   0.463   0.941   9.490  0.8895 -0.5224  0.8938
  835MOL0     C12611   0.448   0.886   9.340  0.6879  0.0218 -0.0406
  835MOL0     C12612   0.399   0.743   9.344  0.2182 -0.4152  0.4741
  835MOL0     C12613   0.426   0.670   9.212  0.1533 -0.5131  0.7560
  835MOL0     O12614   0.381   0.537   9.225 -0.0639 -0.2425 -0.2720
  835MOL0     C12615   0.468   0.451   9.284 -0.9701  0.3523 -0.5655
  835MOL0     C12616   0.422   0.324   9.308  0.2189 -0.0909  0.6599
  835MOL0     C12617   0.495   0.229   9.381 -1.3114  0.7966 -0.5989
  835MOL0     C12618   0.431   0.096   9.405 -0.8168 -0.4281 -0.5657
  835MOL0     C12619   0.622   0.262   9.436  0.3052  0.3964 -0.1423
  835MOL0     C12620   0.723   0.164   9.493  0.7919  0.3823 -0.7216
  835MOL0     O12621   0.669   0.045   9.522  0.3502  0.3110  0.1225
  835MOL0     C12622   0.749  -0.064   9.549 -0.0456  0.4783  0.1552
  835MOL0     C12623   0.794  -0.143   9.454 -0.4024  0.1239  0.5331
  835MOL0     C12624   0.876  -0.256   9.465 -1.1971 -0.3075  0.7937
  835MOL0     C12625   0.919  -0.292   9.596 -0.4878  0.4094  0.8579
  835MOL0     O12626   1.001  -0.407   9.611 -0.1396 -0.1156 -0.0379
  835MOL0     C12627   1.018  -0.461   9.743  0.1785  0.0346 -0.0631
  835MOL0     C12628   1.086  -0.596   9.747 -0.2769 -0.3144  0.0827
  835MOL0     C12629   1.238  -0.584   9.722  0.5862 -0.8146  0.2953
  835MOL0     C12630   1.312  -0.712   9.685 -0.7926  0.1020 -0.6841
  835MOL0     C12631   1.449  -0.720   9.740  0.3353  1.3558 -0.5780
  835MOL0     C12632   1.544  -0.614   9.691 -0.6754  0.1537 -0.3350
  835MOL0     C12633   1.677  -0.611   9.763  0.2761 -0.2396 -1.4026
  835MOL0     C12634   1.659  -0.528   9.890 -0.6103 -0.1126 -0.5974
  835MOL0    Cl12635   1.821  -0.479   9.952 -0.1335  0.2617  0.2419
  835MOL0     C12636   0.868  -0.211   9.703 -0.8648  0.7263  0.0259
  835MOL0     C12637   0.781  -0.100   9.685  0.3757 -0.0129 -0.0195
  835MOL0     O12638   0.846   0.194   9.491  0.9910 -0.2889 -0.5724
  835MOL0     C12639   0.659   0.403   9.422 -0.2124  0.5603  0.3504
  835MOL0     C12640   0.588   0.488   9.345 -0.1528 -0.0867 -0.4067
  835MOL0     N12641   0.615   1.128   9.486 -0.2626  0.0098  0.4082
  835MOL0     N12642   0.747   1.150   9.492  0.7464 -0.3386  1.1590
  835MOL0     C12643   2.083   1.179   9.540  0.9449  0.2562  0.2969
  835MOL0     C12644   2.221   1.205   9.555 -0.1218  0.5531 -0.7680
  835MOL0     C12645   2.636   1.357   9.580 -0.3236  0.0439 -0.1664
  835MOL0     C12646   2.713   1.268   9.510  0.8939 -0.3636 -0.3656
  835MOL0     C12647   2.849   1.264   9.528 -0.8306 -0.4675 -0.0907
  835MOL0     C12648   2.916   1.349   9.616 -0.7185  0.4882  0.7024
  835MOL0     O12649   3.052   1.356   9.639 -0.1580  0.0960  0.5787
  835MOL0     C12650   3.145   1.292   9.550  0.0144 -0.7076  0.6398
  835MOL0     C12651   3.172   1.385   9.435 -0.2088 -0.4953 -1.1166
  835MOL0     C12652   3.206   1.534   9.479 -0.8244 -0.2567 -0.3939
  835MOL0     C12653   3.355   1.549   9.530  1.7107 -0.3559 -0.0258
  835MOL0     C12654   3.382   1.676   9.585 -0.2206 -0.2510  0.0540
  835MOL0     C12655   3.406   1.778   9.646  0.0851  0.0155 -0.3322
  835MOL0     C12656   2.839   1.434   9.694 -0.0370 -0.2745 -0.0520
  835MOL0     C12657   2.699   1.435   9.673 -0.2806  0.1542  0.4260
  835MOL0     H12658   2.278   1.371   9.272 -2.2503  1.1416 -0.1432
  835MOL0     H12659   2.035   1.305   9.236 -1.6428 -1.3988  0.5652
  835MOL0     H12660   1.833   1.044   9.549  0.7026  0.5544  3.7897
  835MOL0     H12661   1.816   1.203   9.607 -2.7454  2.0553 -1.2772
  835MOL0     H12662   1.644   1.206   9.388  1.7117  0.0974 -1.7438
  835MOL0     H12663   1.652   1.035   9.399 -2.5820  0.6261 -1.4756
  835MOL0     H12664   1.588   1.043   9.649  1.1180 -0.8408 -0.5575
  835MOL0     H12665   1.556   1.220   9.625  2.0047  0.6987 -1.1261
  835MOL0     H12666   1.427   1.152   9.419  0.3531  2.8090  2.2947
  835MOL0     H12667   1.424   0.985   9.487 -1.1863  0.3684  0.3325
  835MOL0     H12668   1.308   1.101   9.696 -0.5220  2.4834 -0.0218
  835MOL0     H12669   1.273   1.220   9.587  1.0701  0.1076 -1.0604
  835MOL0     H12670   1.204   1.039   9.423  0.8901 -0.0903 -0.2123
  835MOL0     H12671   1.208   0.926   9.545  1.9236 -0.1863 -0.3297
  835MOL0     H12672   1.044   1.060   9.695  0.4619  1.7586  1.3326
  835MOL0     H12673   1.053   1.190   9.566 -1.5663 -0.4602 -2.4230
  835MOL0     H12674   0.972   0.906   9.523  0.1530  0.0643  2.3766
  835MOL0     H12675   0.973   1.026   9.396 -0.8192 -0.3351  0.2366
  835MOL0     H12676   0.730   0.825   9.553 -0.5643 -0.3987 -1.9469
  835MOL0     H12677   0.438   0.858   9.557  0.9829 -1.8165 -0.6247
  835MOL0     H12678   0.384   1.017   9.486 -0.3554 -1.7822 -2.7840
  835MOL0     H12679   0.547   0.889   9.294  0.7236  1.7502  0.0914
  835MOL0     H12680   0.375   0.950   9.291 -1.8786 -3.8999 -1.9083
  835MOL0     H12681   0.294   0.751   9.373  0.2648  1.3393  0.2343
  835MOL0     H12682   0.456   0.690   9.422  2.2665  3.7097  2.0828
  835MOL0     H12683   0.522   0.681   9.162 -0.1701 -1.7207 -0.1879
  835MOL0     H12684   0.350   0.719   9.149 -0.3325 -1.7467  0.3499
  835MOL0     H12685   0.330   0.297   9.257 -0.5369 -0.3860  2.1167
  835MOL0     H12686   0.487   0.021   9.348 -0.2767  0.8648 -1.7818
  835MOL0     H12687   0.424   0.067   9.510 -0.8523 -3.6215 -1.3576
  835MOL0     H12688   0.328   0.095   9.368 -1.1642 -0.3840  0.3661
  835MOL0     H12689   0.780  -0.116   9.350  0.1283 -3.0015 -0.4702
  835MOL0     H12690   0.918  -0.300   9.375  0.0258  0.4939  0.9505
  835MOL0     H12691   1.067  -0.393   9.813  1.1030 -1.6657  1.0350
  835MOL0     H12692   0.923  -0.474   9.794  1.5115 -1.0814  2.2887
  835MOL0     H12693   1.082  -0.647   9.844  1.6717  1.0723  0.9546
  835MOL0     H12694   1.040  -0.668   9.677 -1.0233  0.8893 -0.7005
  835MOL0     H12695   1.278  -0.552   9.819 -1.4184 -2.0771  1.6190
  835MOL0     H12696   1.254  -0.510   9.643 -4.1544  1.1124  0.8396
  835MOL0     H12697   1.256  -0.793   9.732  1.8076 -0.2389  2.1653
  835MOL0     H12698   1.320  -0.720   9.577  0.4269 -0.3313 -0.5777
  835MOL0     H12699   1.488  -0.820   9.721 -4.1267 -1.3256  2.5570
  835MOL0     H12700   1.441  -0.710   9.848 -2.1667  1.1439 -0.6864
  835MOL0     H12701   1.564  -0.637   9.586 -0.5379  0.5112 -0.3889
  835MOL0     H12702   1.500  -0.513   9.688  2.2193  1.5479  0.4709
  835MOL0     H12703   1.754  -0.559   9.706  1.2839 -0.4179 -0.2586
  835MOL0     H12704   1.710  -0.715   9.777  1.8189  0.5155  1.5884
  835MOL0     H12705   1.608  -0.572   9.976  0.0079  0.8336  0.2804
  835MOL0     H12706   1.617  -0.429   9.871  0.4167  0.1142 -1.8265
  835MOL0     H12707   0.910  -0.234   9.800 -0.0747  0.4025 -0.3876
  835MOL0     H12708   0.744  -0.040   9.767  1.5979 -1.1100  1.3743
  835MOL0     H12709   0.758   0.431   9.454  0.0980 -1.3445  1.1569
  835MOL0     H12710   0.633   0.587   9.336  0.8545 -0.4915 -0.0061
  835MOL0     H12711   2.020   1.138   9.618  2.3075 -0.2202  1.1917
  835MOL0     H12712   2.262   1.167   9.648  2.8435 -1.6612 -2.7876
  835MOL0     H12713   2.665   1.209   9.433 -0.9322  0.5396  0.0019
  835MOL0     H12714   2.902   1.195   9.463  1.5469  1.3702 -0.2686
  835MOL0     H12715   3.235   1.276   9.610  0.6384  0.6628  0.1006
  835MOL0     H12716   3.114   1.192   9.517 -2.1499 -0.1206  0.7501
  835MOL0     H12717   3.086   1.384   9.367  0.8720  2.4674 -2.7122
  835MOL0     H12718   3.256   1.341   9.380 -0.2391  2.2547 -3.6062
  835MOL0     H12719   3.129   1.570   9.548 -0.1072  0.5637 -0.0093
  835MOL0     H12720   3.187   1.602   9.395 -1.2153 -0.3726 -0.4035
  835MOL0     H12721   3.420   1.553   9.442  1.4300 -3.3120 -0.4590
  835MOL0     H12722   3.389   1.460   9.584  1.6958 -2.8078 -3.6953
  835MOL0     H12723   3.431   1.866   9.702  1.8078  0.4666 -1.7093
  835MOL0     H12724   2.894   1.499   9.762  0.2446 -1.8439  1.2975
  835MOL0     H12725   2.636   1.505   9.727  0.5776  1.2111  0.1018
  836MOL0     O12726   9.752   9.719   2.181 -0.3787  0.0313  0.2848
  836MOL0     C12727   9.842   9.690   2.260  0.4000  0.1374  0.0113
  836MOL0     O12728   9.835   9.684   2.395 -0.2614 -0.0790 -0.5694
  836MOL0     C12729   9.710   9.706   2.449 -0.2509 -0.2271 -0.0379
  836MOL0     C12730   9.645   9.587   2.492  0.3160 -0.4703 -0.5754
  836MOL0     C12731   9.527   9.586   2.560  0.0423 -0.2837  0.2964
  836MOL0     C12732   9.460   9.709   2.599 -0.1014  0.1088  0.2842
  836MOL0     O12733   9.333   9.709   2.666  0.2190  0.1413  0.7213
  836MOL0     C12734   9.310   9.809   2.770 -0.5710 -0.0569  0.4183
  836MOL0     C12735   9.222   9.757   2.881  0.9608  0.2273  0.1218
  836MOL0     C12736   9.077   9.788   2.835 -0.0126 -0.3581 -0.5943
  836MOL0     C12737   8.975   9.724   2.927  0.7298  0.1983  0.4079
  836MOL0     C12738   8.831   9.742   2.888  0.1919 -0.1242 -0.6688
  836MOL0     C12739   8.788   9.877   2.853 -0.3649  0.4170  0.4488
  836MOL0     C12740   8.648   9.866   2.824  0.1563 -0.2031 -0.3459
  836MOL0     C12741   8.571   9.989   2.759 -0.3029  0.9750 -0.4711
  836MOL0     N12742   8.427  10.002   2.788  0.5468  0.2479 -0.4020
  836MOL0     C12743   8.327  10.000   2.695 -0.3988 -0.5492  0.4036
  836MOL0     C12744   8.212   9.976   2.766 -0.7003 -0.3015 -0.5077
  836MOL0     C12745   8.077   9.964   2.695 -0.0416 -0.3129  0.1464
  836MOL0     C12746   7.990   9.862   2.778 -0.0874 -0.0878 -0.1371
  836MOL0     C12747   7.852   9.870   2.722  0.7882  0.3754  0.4270
  836MOL0     C12748   7.741   9.797   2.797  0.4587  0.0075 -0.9909
  836MOL0     O12749   7.616   9.814   2.735  0.3952 -0.0445  0.2090
  836MOL0     C12750   7.495   9.767   2.784 -0.3127 -0.1007  0.3161
  836MOL0     C12751   7.481   9.683   2.885  0.0908 -0.2013  0.2910
  836MOL0     C12752   7.362   9.625   2.916  0.3541  0.2476  0.1955
  836MOL0     C12753   7.357   9.510   3.018 -0.0253  0.2042  0.5400
  836MOL0     C12754   7.246   9.673   2.853  0.2717 -0.6812  0.0071
  836MOL0     C12755   7.107   9.620   2.868  0.1613  0.5226 -0.3531
  836MOL0     O12756   7.013   9.685   2.796  0.2163 -0.2174 -0.2401
  836MOL0     C12757   6.883   9.636   2.799 -0.4349 -0.0743  0.9647
  836MOL0     C12758   6.780   9.696   2.870  0.8503  0.3778 -0.9293
  836MOL0     C12759   6.645   9.658   2.870  0.4422  0.5445 -0.1596
  836MOL0     C12760   6.610   9.553   2.779 -0.5907  0.1729 -0.1921
  836MOL0     O12761   6.485   9.494   2.774 -0.0239 -0.6051 -0.4104
  836MOL0     C12762   6.369   9.537   2.844 -0.1895 -0.4462  0.2957
  836MOL0     C12763   6.254   9.463   2.769 -0.1867  0.0287 -0.5147
  836MOL0     C12764   6.228   9.506   2.621 -0.3771 -0.4079 -0.0427
  836MOL0     C12765   6.246   9.397   2.520 -0.0991 -0.1019  0.4041
  836MOL0     C12766   6.387   9.367   2.499 -1.1864 -1.0554 -0.6938
  836MOL0     C12767   6.413   9.268   2.385 -0.3682 -0.5536  0.3287
  836MOL0     C12768   6.564   9.261   2.350 -0.3031  0.8934  0.5161
  836MOL0     C12769   6.583   9.169   2.225  0.5459 -0.2523 -0.1319
  836MOL0    Cl12770   6.741   9.204   2.157  0.3645 -0.3219 -0.0876
  836MOL0     C12771   6.715   9.490   2.704 -0.2269  0.2454  0.1544
  836MOL0     C12772   6.850   9.529   2.717 -0.6993 -0.7965 -0.1331
  836MOL0     O12773   7.082   9.525   2.946  0.0714 -0.3625 -0.1230
  836MOL0     C12774   7.267   9.780   2.755  0.3568 -0.4138 -0.5517
  836MOL0     C12775   7.388   9.830   2.718 -0.0291  0.2616 -0.0252
  836MOL0     N12776   8.246   9.976   2.900 -0.3383 -0.1860 -0.5273
  836MOL0     N12777   8.377   9.983   2.916 -0.1615 -0.1682  0.2423
  836MOL0     C12778   9.511   9.828   2.550  0.2672  0.2213  0.9201
  836MOL0     C12779   9.632   9.825   2.476  0.3726  0.4818 -1.3302
  836MOL0     C12780   9.971   9.641   2.196 -0.1160 -0.1835 -0.6333
  836MOL0     C12781   9.987   9.630   2.057  0.0747  0.5347 -0.1934
  836MOL0     C12782  10.112   9.589   1.999 -0.0959 -0.3165  0.3184
  836MOL0     C12783  10.217   9.531   2.072  0.0906  0.5691 -0.8963
  836MOL0     O12784  10.327   9.469   2.019  0.6236 -0.7233 -0.2603
  836MOL0     C12785  10.380   9.541   1.903  0.1396 -0.1575  0.2402
  836MOL0     C12786  10.448   9.668   1.941  0.0836 -0.6519 -0.2095
  836MOL0     C12787  10.573   9.639   2.034  0.0413 -1.0435  0.4212
  836MOL0     C12788  10.627   9.760   2.104 -0.0854 -0.4685  0.6933
  836MOL0     C12789  10.779   9.756   2.103 -0.7591 -0.1745  0.3361
  836MOL0     C12790  10.901   9.743   2.103 -0.7811  0.6724  1.0049
  836MOL0     C12791  10.179   9.518   2.209 -0.1703 -0.1071  0.3913
  836MOL0     C12792  10.069   9.579   2.268  0.4215  0.6926  0.6117
  836MOL0     H12793   9.696   9.496   2.463  1.8894  0.2232 -0.0453
  836MOL0     H12794   9.473   9.500   2.598  1.3956 -1.0424  0.5718
  836MOL0     H12795   9.411   9.825   2.808 -0.3223  2.2566 -1.0418
  836MOL0     H12796   9.268   9.900   2.726  2.8350  1.4056 -0.0825
  836MOL0     H12797   9.230   9.650   2.901 -2.4592  0.3013  2.8727
  836MOL0     H12798   9.244   9.815   2.971 -0.8384  0.7949  0.2333
  836MOL0     H12799   9.066   9.897   2.830  2.8536  0.2962  3.0708
  836MOL0     H12800   9.058   9.736   2.741 -1.9506 -0.8463  0.0161
  836MOL0     H12801   8.993   9.616   2.927 -0.0448  0.0577 -0.4021
  836MOL0     H12802   8.998   9.762   3.027  1.0235  0.5453  0.2122
  836MOL0     H12803   8.821   9.668   2.808  1.7363 -1.0368 -0.0605
  836MOL0     H12804   8.776   9.703   2.974 -0.6884  0.8934 -0.7524
  836MOL0     H12805   8.808   9.957   2.925  3.3896  1.9996 -2.0370
  836MOL0     H12806   8.845   9.907   2.764  0.0203 -2.6571 -0.4520
  836MOL0     H12807   8.617   9.779   2.764 -1.9704  0.6228 -0.5227
  836MOL0     H12808   8.608   9.851   2.925  1.5294 -2.8627 -0.1002
  836MOL0     H12809   8.580   9.974   2.651  1.3670  1.5129 -0.4367
  836MOL0     H12810   8.623  10.075   2.803  1.3293 -0.5044  0.6479
  836MOL0     H12811   8.341   9.997   2.587 -0.8053 -1.4434  0.3572
  836MOL0     H12812   8.038  10.066   2.696  2.4200  0.7342 -1.5976
  836MOL0     H12813   8.086   9.922   2.594  2.7384  2.8091 -1.1090
  836MOL0     H12814   7.982   9.902   2.880 -3.2929 -1.6243  0.3321
  836MOL0     H12815   8.039   9.765   2.768  1.3704  0.7923 -2.3713
  836MOL0     H12816   7.840   9.830   2.620 -0.4108 -1.0829  1.0904
  836MOL0     H12817   7.827   9.975   2.706  1.8670  0.2677 -2.8089
  836MOL0     H12818   7.732   9.827   2.901 -1.3158 -0.6686 -0.9255
  836MOL0     H12819   7.762   9.689   2.803 -1.1664 -0.2163  2.5592
  836MOL0     H12820   7.579   9.654   2.922  2.5508  0.9992 -4.5099
  836MOL0     H12821   7.316   9.423   2.966  1.3504 -0.9100  1.2535
  836MOL0     H12822   7.454   9.476   3.055 -0.4046 -1.3514  0.1973
  836MOL0     H12823   7.285   9.540   3.094 -2.3349  0.3004 -1.5374
  836MOL0     H12824   6.823   9.769   2.938  0.7133  0.7491 -1.2402
  836MOL0     H12825   6.569   9.704   2.932 -0.0254 -0.6821  0.2105
  836MOL0     H12826   6.379   9.502   2.948  1.4758 -0.6074  0.1039
  836MOL0     H12827   6.357   9.645   2.846  1.0956 -0.2924  0.6196
  836MOL0     H12828   6.273   9.355   2.769 -4.5460 -0.9665  1.4692
  836MOL0     H12829   6.162   9.474   2.827  0.1237 -1.2715  0.2646
  836MOL0     H12830   6.285   9.598   2.605 -1.6957  0.5390  0.5162
  836MOL0     H12831   6.122   9.535   2.620 -0.3537 -0.3065  0.3410
  836MOL0     H12832   6.194   9.304   2.545 -1.5198  1.0617  2.0316
  836MOL0     H12833   6.195   9.419   2.426  1.6373 -1.0613 -0.8280
  836MOL0     H12834   6.420   9.324   2.594  0.3680 -0.0495 -0.7308
  836MOL0     H12835   6.431   9.464   2.473  1.6575 -1.4144  2.1926
  836MOL0     H12836   6.382   9.168   2.415 -1.0212  0.2478  2.5596
  836MOL0     H12837   6.356   9.301   2.297  0.3756  2.1490  0.7607
  836MOL0     H12838   6.624   9.223   2.433  0.3790  2.3278  0.7135
  836MOL0     H12839   6.616   9.356   2.332  0.7394  0.0635 -0.9945
  836MOL0     H12840   6.518   9.201   2.143  1.3502  0.8632 -0.3487
  836MOL0     H12841   6.570   9.064   2.256 -3.0492  0.6449  1.9338
  836MOL0     H12842   6.682   9.412   2.636 -1.0523  1.6380 -1.0944
  836MOL0     H12843   6.923   9.474   2.658 -2.0455 -1.5338 -1.1968
  836MOL0     H12844   7.186   9.832   2.704  2.0776  1.2256 -1.7307
  836MOL0     H12845   7.407   9.910   2.648  3.4946 -0.6759 -0.3331
  836MOL0     H12846   9.458   9.921   2.569 -0.9693 -0.5713  1.4801
  836MOL0     H12847   9.669   9.919   2.436  2.6266 -0.1138 -0.7916
  836MOL0     H12848   9.909   9.673   1.995  1.2614 -0.7846 -2.7237
  836MOL0     H12849  10.101   9.576   1.892  0.7144 -0.4614  0.2427
  836MOL0     H12850  10.454   9.480   1.850  1.0027  0.7293  0.3824
  836MOL0     H12851  10.302   9.563   1.830  0.6245  1.2107  0.0907
  836MOL0     H12852  10.378   9.734   1.993 -1.4805 -0.2582 -2.6769
  836MOL0     H12853  10.480   9.711   1.846 -0.4125 -2.6111 -1.3232
  836MOL0     H12854  10.647   9.578   1.982 -0.2989 -1.4894  0.4476
  836MOL0     H12855  10.540   9.575   2.116 -2.6598 -1.2396 -0.6881
  836MOL0     H12856  10.595   9.768   2.208  0.2054 -0.9205  0.8264
  836MOL0     H12857  10.599   9.853   2.054  1.1090  0.1782  1.1842
  836MOL0     H12858  11.006   9.749   2.083 -1.0171 -0.3425 -0.8448
  836MOL0     H12859  10.255   9.471   2.271 -0.0942 -0.3335  0.1279
  836MOL0     H12860  10.050   9.563   2.374  1.0051 -1.3034  0.4613
  837MOL0     O12861   3.099  10.179   4.435  0.2464 -0.4732  0.1026
  837MOL0     C12862   3.095  10.220   4.320 -0.6137 -0.2549 -0.0959
  837MOL0     O12863   2.989  10.252   4.246  0.3489  0.6182 -0.7577
  837MOL0     C12864   2.859  10.220   4.285 -0.3646  0.0267 -0.3966
  837MOL0     C12865   2.805  10.233   4.413 -0.3071  0.2218 -0.2595
  837MOL0     C12866   2.663  10.220   4.441 -0.2749 -0.2631  0.5483
  837MOL0     C12867   2.572  10.198   4.341  0.0974 -0.4329 -0.1591
  837MOL0     O12868   2.448  10.175   4.383  0.1089  0.4301 -0.8814
  837MOL0     C12869   2.347  10.213   4.287  0.2523 -0.0960 -0.6314
  837MOL0     C12870   2.226  10.130   4.331 -0.1422 -0.6487 -0.3675
  837MOL0     C12871   2.093  10.199   4.283 -0.6162  0.5767  0.1000
  837MOL0     C12872   1.977  10.097   4.282  0.5643 -0.6970 -0.1309
  837MOL0     C12873   1.853  10.146   4.215  0.5698 -0.5332 -0.5721
  837MOL0     C12874   1.856  10.134   4.063 -0.4868  0.8974 -0.0551
  837MOL0     C12875   1.724  10.190   4.013  0.2916 -0.7239  0.2644
  837MOL0     C12876   1.697  10.336   4.039  0.4934  0.3230  0.3638
  837MOL0     N12877   1.565  10.372   4.000  0.8863  0.1009 -0.1460
  837MOL0     C12878   1.441  10.326   4.054  0.1260  0.2030  1.2107
  837MOL0     C12879   1.339  10.376   3.978  0.2839  0.5258  0.4333
  837MOL0     C12880   1.194  10.344   3.991  0.3581  0.2125 -0.4801
  837MOL0     C12881   1.124  10.379   3.861 -0.3586 -0.2433  0.5134
  837MOL0     C12882   0.979  10.362   3.878  0.2296  0.5024  0.0561
  837MOL0     C12883   0.882  10.407   3.761 -0.3030  1.0062 -0.2340
  837MOL0     O12884   0.756  10.355   3.801 -0.4764 -0.5575 -0.7484
  837MOL0     C12885   0.636  10.380   3.745 -0.2215  0.4007  0.7226
  837MOL0     C12886   0.536  10.317   3.812 -0.7706 -0.2059 -0.1985
  837MOL0     C12887   0.402  10.328   3.774 -0.5906  0.3943 -0.6100
  837MOL0     C12888   0.308  10.257   3.868  0.4737 -0.1821  0.6374
  837MOL0     C12889   0.375  10.412   3.655  0.1394  1.1533 -0.0913
  837MOL0     C12890   0.238  10.450   3.608 -0.0267  0.5169 -0.0613
  837MOL0     O12891   0.133  10.426   3.698 -1.1949  0.0580 -0.0577
  837MOL0     C12892   0.012  10.386   3.651  0.5782 -0.7242  0.0547
  837MOL0     C12893  -0.031  10.257   3.629 -0.6812  0.0532 -0.3713
  837MOL0     C12894  -0.163  10.226   3.584 -0.7229  0.4874 -0.1533
  837MOL0     C12895  -0.249  10.323   3.550  0.8817  0.8318 -0.4308
  837MOL0     O12896  -0.378  10.291   3.505 -0.7323 -0.2406 -0.5166
  837MOL0     C12897  -0.450  10.187   3.571  0.2803  0.3357 -0.5516
  837MOL0     C12898  -0.594  10.248   3.576  0.1249  0.5274 -0.0864
  837MOL0     C12899  -0.689  10.180   3.671  1.0826  0.4488 -0.3146
  837MOL0     C12900  -0.690  10.026   3.647 -0.3893 -0.2774  0.1784
  837MOL0     C12901  -0.799   9.955   3.712 -0.2499  0.1022  0.2702
  837MOL0     C12902  -0.939  10.002   3.674 -0.1591  0.2301 -0.7856
  837MOL0     C12903  -1.042   9.902   3.721 -0.0442 -0.2068  0.6288
  837MOL0     C12904  -1.186   9.927   3.690  1.2924 -0.3925 -0.0630
  837MOL0    Cl12905  -1.304   9.804   3.767 -0.2609 -0.3614  0.0240
  837MOL0     C12906  -0.212  10.457   3.579 -0.0314  0.2505 -0.5476
  837MOL0     C12907  -0.082  10.492   3.627 -0.0631  0.6432 -0.5006
  837MOL0     O12908   0.232  10.489   3.495  1.0827  1.3441  0.4918
  837MOL0     C12909   0.483  10.455   3.578 -0.6891  0.4181  1.0079
  837MOL0     C12910   0.608  10.444   3.625  0.1525  0.9183  0.6691
  837MOL0     N12911   1.395  10.472   3.891  0.2297  0.0921  0.2138
  837MOL0     N12912   1.522  10.464   3.906 -0.1268 -0.9629 -0.1291
  837MOL0     C12913   2.629  10.186   4.214 -0.3227  1.0655  0.5761
  837MOL0     C12914   2.767  10.202   4.184 -0.6138  0.4974 -0.2128
  837MOL0     C12915   3.228  10.259   4.256  0.7459 -0.3586  0.3817
  837MOL0     C12916   3.349  10.228   4.322 -0.0445  0.6018 -0.5947
  837MOL0     C12917   3.479  10.263   4.265 -0.0058  0.3696  0.2209
  837MOL0     C12918   3.476  10.316   4.135 -0.2616  0.0880 -0.3222
  837MOL0     O12919   3.592  10.340   4.067  0.3757  0.2155 -0.8458
  837MOL0     C12920   3.722  10.312   4.128  0.4454 -0.1715  0.3685
  837MOL0     C12921   3.822  10.339   4.016  0.7949  0.0235 -0.4345
  837MOL0     C12922   3.961  10.364   4.079 -0.4112  0.9863  0.4403
  837MOL0     C12923   4.011  10.257   4.181 -0.9627  0.4373  0.3279
  837MOL0     C12924   3.940  10.274   4.316  0.1642  0.4088 -0.0618
  837MOL0     C12925   3.887  10.268   4.424 -0.6734  0.0076  0.4835
  837MOL0     C12926   3.356  10.345   4.074 -0.1954 -0.1133 -0.5153
  837MOL0     C12927   3.229  10.319   4.130 -0.2296  1.0656 -0.4040
  837MOL0     H12928   2.875  10.254   4.494 -1.0958  1.0595  0.2185
  837MOL0     H12929   2.616  10.224   4.539  0.5016  1.9912  0.8860
  837MOL0     H12930   2.320  10.318   4.300  0.4522 -0.2713  1.5307
  837MOL0     H12931   2.364  10.189   4.182  0.2024 -3.0325 -0.0425
  837MOL0     H12932   2.237  10.027   4.295  5.5176 -0.6225  0.2432
  837MOL0     H12933   2.228  10.135   4.440 -1.9640 -1.5199 -0.2627
  837MOL0     H12934   2.077  10.279   4.356  0.7495  0.6800  0.3107
  837MOL0     H12935   2.110  10.235   4.181 -2.5408 -1.5277 -1.0735
  837MOL0     H12936   2.008  10.009   4.225  0.6680  0.5220 -2.0660
  837MOL0     H12937   1.953  10.078   4.387 -1.1868 -0.1335 -0.3976
  837MOL0     H12938   1.767  10.089   4.249  0.1255  0.1467 -0.5361
  837MOL0     H12939   1.829  10.248   4.247 -2.3238 -0.5612 -2.3412
  837MOL0     H12940   1.945  10.177   4.015 -0.2691 -0.4803 -0.9755
  837MOL0     H12941   1.853  10.029   4.032  3.0498  0.9431 -1.0389
  837MOL0     H12942   1.723  10.175   3.905 -1.4022 -3.6816  0.5646
  837MOL0     H12943   1.642  10.130   4.054  0.7914 -0.6212  1.4518
  837MOL0     H12944   1.769  10.395   3.980  0.5637 -1.5784 -1.5539
  837MOL0     H12945   1.707  10.369   4.143  0.5317 -0.0387  0.4740
  837MOL0     H12946   1.429  10.251   4.132 -1.0981  1.1121  1.9433
  837MOL0     H12947   1.173  10.241   4.021 -3.1313  0.7254 -0.6526
  837MOL0     H12948   1.153  10.405   4.072 -0.1188  2.6476 -2.4149
  837MOL0     H12949   1.157  10.313   3.780  0.0716 -0.0009  0.4924
  837MOL0     H12950   1.142  10.482   3.829 -1.4512 -1.1042 -3.4345
  837MOL0     H12951   0.951  10.421   3.965 -0.4626  1.0920 -0.5505
  837MOL0     H12952   0.951  10.257   3.896 -0.8006  0.6478 -0.5753
  837MOL0     H12953   0.914  10.355   3.670 -0.3471 -1.3216  1.0069
  837MOL0     H12954   0.889  10.515   3.746 -1.1121  0.9348 -1.2601
  837MOL0     H12955   0.575  10.262   3.896 -0.3891 -3.7282 -2.4903
  837MOL0     H12956   0.262  10.320   3.945 -3.1295 -0.4517 -1.0847
  837MOL0     H12957   0.228  10.209   3.812  0.2482  1.3448 -0.4045
  837MOL0     H12958   0.365  10.180   3.921  3.0686  1.8000  0.9735
  837MOL0     H12959   0.036  10.175   3.651 -2.1865 -1.7492 -2.1201
  837MOL0     H12960  -0.189  10.121   3.570  3.1942 -0.6130 -0.4979
  837MOL0     H12961  -0.445  10.092   3.518  0.7631 -0.4686  0.8901
  837MOL0     H12962  -0.413  10.171   3.672 -0.2338  0.5022 -0.3299
  837MOL0     H12963  -0.595  10.355   3.599 -0.7628  0.5799 -0.3011
  837MOL0     H12964  -0.629  10.229   3.475 -1.0474 -1.1993  0.5966
  837MOL0     H12965  -0.790  10.218   3.656  0.4157 -1.2727 -0.4759
  837MOL0     H12966  -0.664  10.203   3.775 -2.4892  3.5437  0.0605
  837MOL0     H12967  -0.693  10.006   3.539  1.7451 -1.7784  0.3526
  837MOL0     H12968  -0.594   9.984   3.676 -0.1954 -0.2824 -0.4543
  837MOL0     H12969  -0.772   9.980   3.816 -2.6124  0.2337  0.8974
  837MOL0     H12970  -0.789   9.848   3.695 -0.2457  0.3401 -1.3415
  837MOL0     H12971  -0.960  10.096   3.727 -0.9302  0.4868 -1.5218
  837MOL0     H12972  -0.946  10.016   3.566  1.2031 -0.0706 -0.9235
  837MOL0     H12973  -1.036   9.881   3.829  1.0428  0.2745  0.6737
  837MOL0     H12974  -1.007   9.806   3.681  0.7655 -0.0640  0.9702
  837MOL0     H12975  -1.208   9.936   3.583 -0.1533 -0.5512  0.2115
  837MOL0     H12976  -1.199  10.026   3.736 -0.3865 -0.4279 -0.4276
  837MOL0     H12977  -0.283  10.537   3.561  1.7697  2.2055  0.6592
  837MOL0     H12978  -0.052  10.596   3.632 -1.4352  1.1516 -1.8190
  837MOL0     H12979   0.484  10.503   3.481  2.0000  0.6625  1.0810
  837MOL0     H12980   0.693  10.492   3.579 -1.1782  0.7613 -2.1401
  837MOL0     H12981   2.580  10.156   4.122  2.0108 -3.5010  0.5248
  837MOL0     H12982   2.804  10.207   4.083 -1.5648 -0.9720 -0.6664
  837MOL0     H12983   3.356  10.178   4.418 -2.4342 -2.3037 -1.7553
  837MOL0     H12984   3.574  10.253   4.318  2.1161 -0.7057 -3.4054
  837MOL0     H12985   3.735  10.382   4.211  2.1044 -0.9091  0.7639
  837MOL0     H12986   3.736  10.210   4.166  3.4771  0.5710  1.5767
  837MOL0     H12987   3.800  10.429   3.957  0.7083  0.0540 -0.3532
  837MOL0     H12988   3.812  10.253   3.949  1.0069  0.3179 -0.8535
  837MOL0     H12989   3.962  10.454   4.142  2.6572 -0.4499  2.7164
  837MOL0     H12990   4.033  10.377   3.998 -0.4979 -1.5355 -0.1351
  837MOL0     H12991   4.119  10.262   4.198 -0.4033 -1.7753 -1.8521
  837MOL0     H12992   4.012  10.153   4.146  0.4180 -0.3423  2.4720
  837MOL0     H12993   3.861  10.237   4.523 -1.3127  0.8423  0.5863
  837MOL0     H12994   3.365  10.391   3.976  2.6396 -0.0108 -0.2878
  837MOL0     H12995   3.146  10.360   4.073  1.2877  0.4290 -3.2187
  838MOL0     O12996  11.242  10.152  10.711  0.7756 -0.0528  0.5202
  838MOL0     C12997  11.280  10.036  10.729  0.1072  0.1476  0.3059
  838MOL0     O12998  11.205   9.946  10.786  0.5819  0.1192  0.4067
  838MOL0     C12999  11.091   9.986  10.847 -1.5840 -0.6539  0.3591
  838MOL0     C13000  11.080   9.972  10.983  0.0548  0.4497 -0.0497
  838MOL0     C13001  10.965  10.000  11.051 -0.7340  0.3806  0.2920
  838MOL0     C13002  10.857  10.052  10.984  0.7004  0.1661 -0.7449
  838MOL0     O13003  10.743  10.084  11.066 -0.1219  0.4792 -0.0142
  838MOL0     C13004  10.612  10.093  11.002 -0.2549 -0.4296 -0.3635
  838MOL0     C13005  10.501  10.083  11.098  0.1119 -0.0241 -0.2043
  838MOL0     C13006  10.483  10.221  11.170 -0.6639  0.3291  0.8690
  838MOL0     C13007  10.363  10.203  11.254  0.2085  0.2360  0.1357
  838MOL0     C13008  10.322  10.338  11.316 -0.7206 -0.7219 -0.4786
  838MOL0     C13009  10.186  10.337  11.391 -0.6837  0.6243 -0.2958
  838MOL0     C13010  10.182  10.235  11.506  0.1279 -0.0445  0.0632
  838MOL0     C13011  10.059  10.266  11.598  0.2746  0.4141  0.4218
  838MOL0     N13012   9.928  10.232  11.537  0.7059 -0.6398 -0.0489
  838MOL0     C13013   9.894  10.121  11.457  0.2055 -0.0880 -0.4193
  838MOL0     C13014   9.787  10.157  11.385 -1.0608  0.3672 -0.3479
  838MOL0     C13015   9.749  10.080  11.266 -0.2590 -0.0563 -0.1457
  838MOL0     C13016   9.846  10.122  11.144  0.1674 -0.7364 -0.6571
  838MOL0     C13017   9.813  10.251  11.073  0.1236 -0.8006 -0.3594
  838MOL0     C13018   9.946  10.304  10.998 -0.3134  0.3004 -0.1379
  838MOL0     O13019  10.014  10.196  10.930 -0.0788 -0.4510  0.7698
  838MOL0     C13020  10.143  10.226  10.875 -0.6595 -0.3674  0.2454
  838MOL0     C13021  10.208  10.344  10.878 -0.1450 -0.6029 -0.6694
  838MOL0     C13022  10.339  10.366  10.819 -0.1322  0.0638  0.3933
  838MOL0     C13023  10.384  10.506  10.832  0.0176  0.3479 -0.3297
  838MOL0     C13024  10.404  10.265  10.754  0.3528 -0.0467  0.1722
  838MOL0     C13025  10.536  10.279  10.684  0.1148  0.2932  0.9416
  838MOL0     O13026  10.579  10.402  10.665 -0.6861 -0.0210 -0.7741
  838MOL0     C13027  10.707  10.414  10.620  0.8154  0.5860 -0.1376
  838MOL0     C13028  10.828  10.393  10.694  0.0325  0.1334  0.1930
  838MOL0     C13029  10.952  10.419  10.628 -0.5549 -0.2570  0.2155
  838MOL0     C13030  10.955  10.457  10.488  0.5871  0.5921  0.0059
  838MOL0     O13031  11.064  10.481  10.404 -0.0836  0.3889  0.0709
  838MOL0     C13032  11.170  10.393  10.417  0.1436 -0.9767 -0.3797
  838MOL0     C13033  11.250  10.404  10.288 -0.2163 -0.1519 -0.0829
  838MOL0     C13034  11.358  10.294  10.265 -0.3208 -0.8098  0.2811
  838MOL0     C13035  11.296  10.159  10.239  0.5705  0.0054 -0.7976
  838MOL0     C13036  11.402  10.070  10.167 -0.4905  0.5625 -0.1264
  838MOL0     C13037  11.525  10.037  10.251 -0.2510 -0.4978  0.3802
  838MOL0     C13038  11.622   9.943  10.167 -0.4000  0.2835  0.2823
  838MOL0     C13039  11.734   9.888  10.264  0.7948  0.0221  0.9916
  838MOL0    Cl13040  11.879   9.873  10.172  0.2542  0.1874 -0.2933
  838MOL0     C13041  10.839  10.468  10.417  0.7690  0.1461  0.1289
  838MOL0     C13042  10.716  10.447  10.480  0.0146  0.0623 -0.1300
  838MOL0     O13043  10.602  10.170  10.659  0.3977  0.1120  0.2035
  838MOL0     C13044  10.344  10.134  10.755 -0.2652  0.4098  0.7550
  838MOL0     C13045  10.220  10.122  10.821 -0.3763  0.3232  0.1248
  838MOL0     N13046   9.740  10.281  11.432  0.1786  0.3243  0.1681
  838MOL0     N13047   9.815  10.319  11.532  0.7976  0.6389 -0.3868
  838MOL0     C13048  10.862  10.074  10.849 -0.2000 -0.0176 -0.9750
  838MOL0     C13049  10.977  10.041  10.778 -0.2415  0.2833 -0.3347
  838MOL0     C13050  11.424  10.006  10.696 -0.0060 -0.4941 -0.5233
  838MOL0     C13051  11.484   9.883  10.734  0.8803  1.0545  0.4205
  838MOL0     C13052  11.611   9.849  10.705  0.2223 -0.1238  0.9276
  838MOL0     C13053  11.696   9.942  10.650 -0.4896 -0.5105  1.4199
  838MOL0     O13054  11.816   9.887  10.610  0.2842  0.0135  0.4225
  838MOL0     C13055  11.929   9.975  10.595  0.7094 -0.3066 -0.2655
  838MOL0     C13056  12.038   9.894  10.653  0.0913 -0.3008  0.0392
  838MOL0     C13057  12.169   9.973  10.671  0.3722 -0.2746 -0.2496
  838MOL0     C13058  12.297   9.889  10.701 -0.2595  0.1271  0.1552
  838MOL0     C13059  12.405   9.991  10.715  0.1191 -0.0343 -0.6127
  838MOL0     C13060  12.498  10.068  10.716 -0.3990  0.2449  0.6054
  838MOL0     C13061  11.651  10.074  10.619  0.8629  0.0855  0.0372
  838MOL0     C13062  11.515  10.099  10.632 -0.5487  0.2240 -0.4678
  838MOL0     H13063  11.175   9.942  11.027  0.4794  2.7592  0.7508
  838MOL0     H13064  10.961   9.987  11.158 -0.2288 -0.5364  0.2126
  838MOL0     H13065  10.597  10.182  10.940 -1.4946  0.9994  1.8281
  838MOL0     H13066  10.601  10.005  10.939 -1.9274  0.4125 -1.3254
  838MOL0     H13067  10.409  10.067  11.041  0.1325  0.0870 -0.2691
  838MOL0     H13068  10.515  10.003  11.171 -0.9949 -0.1439 -0.1146
  838MOL0     H13069  10.578  10.243  11.219 -0.2628 -0.8482  0.6584
  838MOL0     H13070  10.455  10.294  11.094 -2.4604 -1.3168 -0.1568
  838MOL0     H13071  10.273  10.174  11.200  0.0536  1.5336 -0.3366
  838MOL0     H13072  10.392  10.132  11.332  3.0341 -1.1409 -1.9858
  838MOL0     H13073  10.404  10.368  11.383 -1.1224  2.3952 -1.2247
  838MOL0     H13074  10.318  10.415  11.238  0.7675  1.0372  1.0623
  838MOL0     H13075  10.179  10.437  11.434 -0.0194  1.0617 -1.1985
  838MOL0     H13076  10.101  10.315  11.325 -1.3694 -1.5703  1.1807
  838MOL0     H13077  10.162  10.134  11.467 -1.5715  0.3599 -0.1893
  838MOL0     H13078  10.276  10.248  11.560 -0.1968  2.2624  0.1707
  838MOL0     H13079  10.059  10.370  11.632 -0.7759 -0.2217  2.5334
  838MOL0     H13080  10.058  10.192  11.679 -2.6927 -1.9800 -1.5895
  838MOL0     H13081   9.949  10.028  11.455 -2.4185 -1.8197  1.3891
  838MOL0     H13082   9.771   9.974  11.281 -0.4659 -0.3224 -1.6012
  838MOL0     H13083   9.643  10.100  11.250  0.2551  1.3662 -2.1358
  838MOL0     H13084   9.847  10.049  11.063 -2.6756 -1.3334 -0.2580
  838MOL0     H13085   9.943  10.141  11.190 -1.3128 -0.0430  2.5128
  838MOL0     H13086   9.781  10.325  11.147 -0.5855  0.4149 -1.8400
  838MOL0     H13087   9.736  10.232  10.998  0.8266 -1.3789 -0.9537
  838MOL0     H13088  10.014  10.333  11.079  1.8525 -0.0448 -1.7274
  838MOL0     H13089   9.928  10.392  10.934 -2.3395  0.0723  0.0580
  838MOL0     H13090  10.161  10.426  10.930  0.0894  0.3915 -1.9733
  838MOL0     H13091  10.492  10.512  10.848  0.2052 -1.4805 -0.7832
  838MOL0     H13092  10.354  10.564  10.744 -1.6274  0.0261 -0.0042
  838MOL0     H13093  10.342  10.557  10.920 -0.1325  2.3614 -1.5057
  838MOL0     H13094  10.838  10.367  10.799 -0.0886  2.8440  0.9369
  838MOL0     H13095  11.037  10.409  10.694 -0.8464 -0.9063  0.4984
  838MOL0     H13096  11.229  10.423  10.504 -0.0619  2.2653 -1.2308
  838MOL0     H13097  11.135  10.290  10.431  1.9520 -1.2638  3.3641
  838MOL0     H13098  11.172  10.387  10.213  0.1030 -0.0351 -0.4383
  838MOL0     H13099  11.287  10.506  10.272 -0.7873 -0.0306 -0.6777
  838MOL0     H13100  11.423  10.287  10.353 -0.5929  0.3421  0.5951
  838MOL0     H13101  11.407  10.332  10.174  1.7186 -0.3693  1.4900
  838MOL0     H13102  11.269  10.117  10.336 -3.8775 -2.0016 -2.6242
  838MOL0     H13103  11.204  10.155  10.181  0.7756 -1.5079 -1.0712
  838MOL0     H13104  11.426  10.115  10.070 -1.0333 -0.7820 -0.9171
  838MOL0     H13105  11.348   9.977  10.148  1.3043 -0.0788 -2.6083
  838MOL0     H13106  11.581  10.127  10.282 -0.2948 -0.7504  1.2069
  838MOL0     H13107  11.498   9.983  10.342 -1.8793 -3.4471 -1.7090
  838MOL0     H13108  11.663  10.012  10.092 -0.2883 -1.7902 -1.6403
  838MOL0     H13109  11.574   9.858  10.119  3.2010 -0.6787 -2.0439
  838MOL0     H13110  11.693   9.789  10.288 -1.9644  0.4672 -1.2702
  838MOL0     H13111  11.749   9.945  10.356 -0.4190  0.6664  0.8108
  838MOL0     H13112  10.840  10.519  10.321  0.8953  0.1057  0.1096
  838MOL0     H13113  10.630  10.480  10.423  1.7322  4.8821 -0.4013
  838MOL0     H13114  10.382  10.053  10.694 -0.2639  0.8994  0.0844
  838MOL0     H13115  10.178  10.022  10.819 -0.5904  0.4194 -1.5871
  838MOL0     H13116  10.776  10.115  10.796 -0.0946  1.2831 -0.1953
  838MOL0     H13117  10.984  10.048  10.670  0.8708 -2.0570 -0.4959
  838MOL0     H13118  11.415   9.809  10.771  0.6644 -0.9089 -3.4587
  838MOL0     H13119  11.650   9.750  10.728  1.0949 -0.4178 -1.5273
  838MOL0     H13120  11.949  10.001  10.490  1.8222 -1.2185 -0.2986
  838MOL0     H13121  11.918  10.063  10.659  1.9202  0.3913 -0.9878
  838MOL0     H13122  12.047   9.793  10.610  1.8293 -1.8553  3.6145
  838MOL0     H13123  12.012   9.861  10.754 -1.0799 -0.2252 -0.2272
  838MOL0     H13124  12.147  10.045  10.750 -3.2971 -3.0142  1.5544
  838MOL0     H13125  12.190  10.028  10.578  0.5649 -4.9633 -3.3250
  838MOL0     H13126  12.318   9.816  10.622 -2.1578  1.3352 -1.5649
  838MOL0     H13127  12.281   9.833  10.794  0.5599 -0.9663 -0.3325
  838MOL0     H13128  12.587  10.127  10.729 -0.0287 -0.6680  2.6650
  838MOL0     H13129  11.712  10.137  10.555  2.4081 -1.0247  0.3792
  838MOL0     H13130  11.466  10.185  10.589 -0.1391  0.4873 -0.4094
  839MOL0     O13131   8.109   6.418  10.553 -0.2507  0.2233  0.4011
  839MOL0     C13132   8.192   6.471  10.478  0.5810  0.2166  0.1899
  839MOL0     O13133   8.176   6.512  10.347  0.2124  0.2981 -0.2951
  839MOL0     C13134   8.065   6.470  10.279 -1.2627 -0.4176  0.0196
  839MOL0     C13135   8.074   6.359  10.200  0.0945  0.4471  0.5582
  839MOL0     C13136   7.959   6.323  10.120 -0.2894  0.4022  0.3254
  839MOL0     C13137   7.841   6.393  10.123 -1.0790 -0.2122 -0.4564
  839MOL0     O13138   7.739   6.345  10.042  0.2161  0.5420 -0.2862
  839MOL0     C13139   7.599   6.392  10.064 -0.1429 -0.1364 -0.3695
  839MOL0     C13140   7.501   6.315   9.975  0.1922  0.6641 -0.0314
  839MOL0     C13141   7.355   6.351   9.999  0.2492 -0.0716 -0.2628
  839MOL0     C13142   7.262   6.271   9.902  0.3503 -0.1534  0.2143
  839MOL0     C13143   7.115   6.319   9.901  0.0656  0.3081 -0.3764
  839MOL0     C13144   7.085   6.437   9.810  0.6061 -1.1107  0.0633
  839MOL0     C13145   6.934   6.477   9.816  0.5934 -0.2207 -1.0115
  839MOL0     C13146   6.840   6.367   9.767  0.0853 -0.0168 -0.3010
  839MOL0     N13147   6.699   6.416   9.772 -0.1673  0.3350  0.4640
  839MOL0     C13148   6.636   6.503   9.689 -0.5135 -0.4278 -1.0173
  839MOL0     C13149   6.507   6.512   9.734 -0.1499  0.0677  0.4001
  839MOL0     C13150   6.399   6.599   9.678  0.8597 -0.1471  0.3730
  839MOL0     C13151   6.274   6.514   9.660 -0.3885  0.7216  0.1723
  839MOL0     C13152   6.168   6.602   9.600 -0.4527  1.0718 -0.3098
  839MOL0     C13153   6.044   6.514   9.577  0.2034 -0.3077 -0.9062
  839MOL0     O13154   5.980   6.459   9.698 -0.1206  0.2177 -0.3709
  839MOL0     C13155   5.889   6.546   9.765  0.5012  0.0549  0.7439
  839MOL0     C13156   5.812   6.492   9.868  0.1784  0.9030  0.0742
  839MOL0     C13157   5.724   6.574   9.941 -0.7191  0.1062 -0.1549
  839MOL0     C13158   5.660   6.501  10.057  0.8630  0.0950 -0.7247
  839MOL0     C13159   5.724   6.717   9.923  0.2701  0.4724 -0.0687
  839MOL0     C13160   5.634   6.815   9.994 -1.2476  0.7755  0.1625
  839MOL0     O13161   5.635   6.809  10.131  0.2624  0.3668 -0.3672
  839MOL0     C13162   5.520   6.861  10.188 -0.0348 -0.9822  0.4603
  839MOL0     C13163   5.534   6.977  10.274 -0.3360  0.2762 -0.5035
  839MOL0     C13164   5.423   7.026  10.341  0.5737  0.3710  0.1868
  839MOL0     C13165   5.293   6.974  10.304  0.0825 -0.5543 -0.7564
  839MOL0     O13166   5.179   7.038  10.338  0.4624 -0.2612 -0.3313
  839MOL0     C13167   5.180   7.175  10.381 -0.3895  0.4298  0.4030
  839MOL0     C13168   5.030   7.211  10.392  0.8509  0.2033  0.3185
  839MOL0     C13169   5.014   7.365  10.369  0.2303  1.4169  0.4508
  839MOL0     C13170   4.877   7.380  10.288 -0.5204  0.3923 -0.3184
  839MOL0     C13171   4.815   7.525  10.289  0.0547  0.2989 -0.0488
  839MOL0     C13172   4.914   7.625  10.247 -0.5880 -0.0699 -0.1477
  839MOL0     C13173   4.853   7.763  10.264  0.4338  0.0494  0.3462
  839MOL0     C13174   4.914   7.864  10.170 -0.2590 -1.3234 -0.4845
  839MOL0    Cl13175   4.897   7.834   9.994  0.0967  0.0222  0.2416
  839MOL0     C13176   5.279   6.867  10.221 -0.5353 -0.5642  1.1833
  839MOL0     C13177   5.391   6.807  10.162 -0.1949 -0.0685 -0.8007
  839MOL0     O13178   5.565   6.894   9.928 -0.1412  0.4291  0.2393
  839MOL0     C13179   5.805   6.769   9.826 -0.2946 -0.5316  2.0453
  839MOL0     C13180   5.876   6.686   9.740 -0.1967  0.8723 -0.5175
  839MOL0     N13181   6.497   6.438   9.851  0.1016  0.5648 -0.2492
  839MOL0     N13182   6.612   6.375   9.872  0.1324 -0.2561 -0.1913
  839MOL0     C13183   7.838   6.506  10.208 -0.3993 -0.6124 -0.4842
  839MOL0     C13184   7.954   6.545  10.276  0.4219 -0.4736  0.3451
  839MOL0     C13185   8.325   6.499  10.541  0.3253 -0.6492  0.2934
  839MOL0     C13186   8.363   6.458  10.668  0.4207  0.3482 -0.0700
  839MOL0     C13187   8.478   6.501  10.733  0.7154 -0.6747  0.4360
  839MOL0     C13188   8.565   6.588  10.662 -0.1809  0.2255  0.4048
  839MOL0     O13189   8.684   6.626  10.718 -0.0061 -0.5449  0.1657
  839MOL0     C13190   8.729   6.586  10.845  0.0965  0.2732  0.2006
  839MOL0     C13191   8.790   6.443  10.840  0.4772  0.0025  0.3293
  839MOL0     C13192   8.934   6.437  10.801 -0.1712  0.6321  0.6623
  839MOL0     C13193   9.026   6.506  10.900  0.5901  0.4845 -0.6963
  839MOL0     C13194   9.029   6.450  11.033 -0.0251  0.0580  0.0631
  839MOL0     C13195   9.032   6.409  11.150 -0.7597 -0.2273 -0.3388
  839MOL0     C13196   8.535   6.632  10.535  0.1702  0.1914  0.0310
  839MOL0     C13197   8.418   6.577  10.473 -0.0490  0.1042  0.3214
  839MOL0     H13198   8.166   6.302  10.206 -0.3476 -0.4322 -0.7070
  839MOL0     H13199   7.970   6.229  10.068  3.4871  0.0541  1.3968
  839MOL0     H13200   7.585   6.389  10.172  2.0835 -0.5104 -0.0525
  839MOL0     H13201   7.594   6.496  10.032 -1.7922  0.7611  2.4191
  839MOL0     H13202   7.529   6.337   9.872  0.3470  0.7181  0.0215
  839MOL0     H13203   7.520   6.209   9.996  0.4246  0.5693 -0.6979
  839MOL0     H13204   7.328   6.331  10.103 -4.6560  1.0799 -1.0537
  839MOL0     H13205   7.354   6.460   9.992  1.4864  0.0145  0.6510
  839MOL0     H13206   7.308   6.262   9.803  0.0217  1.1122 -0.0734
  839MOL0     H13207   7.260   6.166   9.932 -1.0179  0.3752  2.2205
  839MOL0     H13208   7.061   6.230   9.866 -0.0290  0.2370 -0.0579
  839MOL0     H13209   7.084   6.330  10.006  0.8127  3.0016 -0.3901
  839MOL0     H13210   7.141   6.523   9.847 -1.9849  1.0542 -0.7812
  839MOL0     H13211   7.115   6.408   9.709  1.4534 -0.8774  0.2388
  839MOL0     H13212   6.925   6.495   9.924  1.6662 -0.0206 -0.9419
  839MOL0     H13213   6.907   6.567   9.761  0.7460  1.8799  2.1029
  839MOL0     H13214   6.842   6.278   9.832 -1.6322 -0.0270 -0.2133
  839MOL0     H13215   6.867   6.341   9.664 -0.5374  0.1955 -0.5208
  839MOL0     H13216   6.692   6.561   9.616 -0.4438 -0.2529 -0.8263
  839MOL0     H13217   6.385   6.686   9.743 -0.0328 -0.6677  0.9032
  839MOL0     H13218   6.425   6.646   9.582 -0.1926  1.2731  0.7536
  839MOL0     H13219   6.240   6.470   9.755 -0.3438  0.9385  0.2891
  839MOL0     H13220   6.308   6.431   9.597 -1.6445 -1.1482  1.8085
  839MOL0     H13221   6.205   6.648   9.508 -2.4401  0.2818 -1.5890
  839MOL0     H13222   6.138   6.683   9.667  1.9772  1.9184 -0.1475
  839MOL0     H13223   6.058   6.428   9.510 -3.4639 -1.0922 -0.9015
  839MOL0     H13224   5.969   6.576   9.526 -0.5784  1.0588  1.7252
  839MOL0     H13225   5.820   6.384   9.876  1.9651  1.0779  1.5507
  839MOL0     H13226   5.708   6.533  10.150 -2.9682 -1.4621  2.0307
  839MOL0     H13227   5.553   6.523  10.062  0.5922 -1.0693 -1.0584
  839MOL0     H13228   5.666   6.393  10.044 -0.9668  0.1434 -2.5328
  839MOL0     H13229   5.635   7.007  10.299 -0.5440 -0.0944  0.9048
  839MOL0     H13230   5.430   7.115  10.402  2.7679  1.3864 -1.3619
  839MOL0     H13231   5.223   7.197  10.479  1.2570 -1.3201  0.1244
  839MOL0     H13232   5.245   7.239  10.320  0.7987 -0.8302  0.3009
  839MOL0     H13233   4.979   7.149  10.318  2.0546 -1.2383  0.6656
  839MOL0     H13234   4.984   7.191  10.489  1.8703 -0.2675  0.7225
  839MOL0     H13235   5.100   7.406  10.315  0.2073 -0.4566 -1.0797
  839MOL0     H13236   5.002   7.423  10.461 -1.7031  4.3550 -1.4585
  839MOL0     H13237   4.901   7.343  10.188  1.3999 -1.4874  0.7765
  839MOL0     H13238   4.801   7.315  10.332  0.2932  1.9170  3.9087
  839MOL0     H13239   4.789   7.558  10.390  0.8042  1.0948 -0.0985
  839MOL0     H13240   4.726   7.530  10.225  1.7820  0.8962 -2.5474
  839MOL0     H13241   4.995   7.620  10.321  1.7012  1.7480 -2.3642
  839MOL0     H13242   4.953   7.601  10.147 -0.7891 -0.7318 -0.0719
  839MOL0     H13243   4.874   7.800  10.365 -0.5051 -0.4994  0.7523
  839MOL0     H13244   4.747   7.775  10.241  0.9457  1.6226 -1.4745
  839MOL0     H13245   5.022   7.880  10.180 -0.3569 -0.6190 -0.5130
  839MOL0     H13246   4.862   7.960  10.177 -0.9691 -1.6063 -1.5914
  839MOL0     H13247   5.181   6.833  10.189 -0.9847  0.9423  0.9108
  839MOL0     H13248   5.383   6.719  10.099  0.5361  1.0472 -2.5199
  839MOL0     H13249   5.794   6.874   9.801 -2.5501 -1.2183 -0.2808
  839MOL0     H13250   5.919   6.734   9.653 -2.0551 -1.1346 -2.6972
  839MOL0     H13251   7.746   6.563  10.201  0.7005  1.1580 -0.8742
  839MOL0     H13252   7.943   6.635  10.335 -2.7016  1.3963 -2.6985
  839MOL0     H13253   8.297   6.392  10.724  0.3214 -0.0282 -0.6224
  839MOL0     H13254   8.501   6.464  10.832  0.7772 -0.2850  0.5695
  839MOL0     H13255   8.799   6.663  10.877  1.5095 -0.4832 -0.9026
  839MOL0     H13256   8.647   6.596  10.916 -0.9169 -0.7125 -0.7979
  839MOL0     H13257   8.728   6.379  10.775  1.0527  2.1008 -2.4757
  839MOL0     H13258   8.776   6.393  10.937 -1.0639  0.9235  0.6109
  839MOL0     H13259   8.937   6.488  10.705  1.8456  2.2674  1.5097
  839MOL0     H13260   8.958   6.331  10.791 -2.5326 -0.1168  2.1461
  839MOL0     H13261   9.006   6.612  10.916 -4.1240  0.1307 -2.5952
  839MOL0     H13262   9.126   6.502  10.854  0.1734 -0.1432 -1.5820
  839MOL0     H13263   9.036   6.385  11.254 -0.0912  2.7033  0.3770
  839MOL0     H13264   8.601   6.694  10.476  0.5396 -1.3668 -1.2696
  839MOL0     H13265   8.401   6.606  10.370  0.4210  0.1169  0.2453
  840MOL0     O13266   3.269   6.161   0.618  0.2956 -0.3707 -0.0295
  840MOL0     C13267   3.286   6.112   0.512  0.2728 -0.0985  1.0509
  840MOL0     O13268   3.196   6.103   0.416 -0.4823 -0.0654  0.2314
  840MOL0     C13269   3.076   6.159   0.426  0.0709  0.4180 -0.0846
  840MOL0     C13270   3.016   6.220   0.314 -0.5369 -0.1270 -0.4933
  840MOL0     C13271   2.893   6.281   0.314  0.5228 -0.2361 -0.7093
  840MOL0     C13272   2.815   6.284   0.431  0.5474  0.2095  0.1187
  840MOL0     O13273   2.690   6.331   0.414 -0.5174 -0.7834 -0.2235
  840MOL0     C13274   2.672   6.462   0.468  0.9549 -0.6204 -0.1164
  840MOL0     C13275   2.540   6.469   0.541  0.1093 -0.4133 -0.4275
  840MOL0     C13276   2.518   6.377   0.665  0.5087 -0.1582  0.3779
  840MOL0     C13277   2.468   6.238   0.635  0.6600 -0.7391  0.2436
  840MOL0     C13278   2.462   6.148   0.767  0.2668  0.0175 -0.0965
  840MOL0     C13279   2.398   6.010   0.739 -0.4347 -0.1524  0.8910
  840MOL0     C13280   2.492   5.919   0.654  0.4200  0.3458  0.8103
  840MOL0     C13281   2.614   5.873   0.729  0.5501 -0.4260  1.0655
  840MOL0     N13282   2.583   5.840   0.871 -0.6360  0.6242 -0.1256
  840MOL0     C13283   2.529   5.717   0.911  0.1176  0.2280  0.0378
  840MOL0     C13284   2.547   5.709   1.048  0.0936 -0.8351  0.3980
  840MOL0     C13285   2.523   5.577   1.118 -0.1034 -0.1296 -0.2125
  840MOL0     C13286   2.494   5.601   1.268 -0.0124  0.0606 -0.1322
  840MOL0     C13287   2.400   5.495   1.319 -0.1807  0.1817 -1.0032
  840MOL0     C13288   2.484   5.369   1.352 -0.3820  0.6164  0.3024
  840MOL0     O13289   2.417   5.248   1.342 -0.4247  0.3051 -1.1243
  840MOL0     C13290   2.347   5.190   1.445  1.2600  0.1122  0.1289
  840MOL0     C13291   2.270   5.074   1.424  0.8068  1.0092 -0.1376
  840MOL0     C13292   2.180   5.023   1.512 -0.0761  0.8681  0.3337
  840MOL0     C13293   2.101   4.900   1.472  0.4666  0.4786 -0.3442
  840MOL0     C13294   2.155   5.092   1.638  0.1214 -0.1764  0.6615
  840MOL0     C13295   2.054   5.050   1.745  0.4801  0.2149  0.4292
  840MOL0     O13296   2.028   5.135   1.852 -0.1644  0.3792  0.2154
  840MOL0     C13297   1.954   5.089   1.951 -0.8256  0.0490  0.9848
  840MOL0     C13298   2.029   5.021   2.053  0.4643  0.3510  0.0895
  840MOL0     C13299   1.958   4.971   2.153 -0.2228  0.4551 -0.2021
  840MOL0     C13300   1.823   4.989   2.171  0.7617  0.9720  0.7659
  840MOL0     O13301   1.776   4.933   2.292 -0.6201  0.0687  0.0953
  840MOL0     C13302   1.655   4.985   2.349  0.5175  0.2201  0.2345
  840MOL0     C13303   1.536   4.922   2.290  0.5228 -0.2128 -0.3305
  840MOL0     C13304   1.414   4.946   2.381  0.2160 -0.0487  0.1667
  840MOL0     C13305   1.339   5.083   2.363 -0.2426  0.8714 -0.4612
  840MOL0     C13306   1.247   5.116   2.482  0.7650 -0.0564 -0.5764
  840MOL0     C13307   1.106   5.064   2.466 -0.2086  0.3714 -0.2987
  840MOL0     C13308   0.988   5.156   2.504 -0.0441  0.1277  0.5179
  840MOL0     C13309   0.851   5.091   2.495  0.7667 -0.3479  0.2513
  840MOL0    Cl13310   0.819   5.026   2.332  0.1359 -0.0167 -0.4821
  840MOL0     C13311   1.751   5.067   2.072  0.0567  0.3083  0.2578
  840MOL0     C13312   1.819   5.121   1.965  0.1032  0.5367 -0.5875
  840MOL0     O13313   2.001   4.942   1.723  0.2541 -0.8086 -0.1955
  840MOL0     C13314   2.235   5.204   1.660  0.3555 -0.2054 -0.0086
  840MOL0     C13315   2.326   5.252   1.569 -0.4539  0.5966 -0.7534
  840MOL0     N13316   2.624   5.819   1.086 -0.3030  0.1103  0.2895
  840MOL0     N13317   2.643   5.891   0.979 -0.7187  0.1052  0.2041
  840MOL0     C13318   2.859   6.205   0.539 -0.9141 -0.4619  1.0651
  840MOL0     C13319   2.990   6.139   0.539 -0.5690 -0.0792  0.7457
  840MOL0     C13320   3.412   6.049   0.487  0.1409 -0.4792  0.4544
  840MOL0     C13321   3.455   6.008   0.359  0.0703 -0.3385  0.0333
  840MOL0     C13322   3.564   5.927   0.337 -0.3011 -0.1388 -0.6599
  840MOL0     C13323   3.645   5.896   0.447 -0.5195 -0.2853 -0.1806
  840MOL0     O13324   3.762   5.838   0.433 -0.0126  0.2052 -0.4824
  840MOL0     C13325   3.874   5.918   0.388 -1.2737 -0.2830 -0.0730
  840MOL0     C13326   4.003   5.835   0.428  0.9980 -0.1855  0.1822
  840MOL0     C13327   4.053   5.822   0.566  0.1434  0.1186  0.4354
  840MOL0     C13328   4.165   5.711   0.572  0.2487 -0.3534 -0.8367
  840MOL0     C13329   4.303   5.741   0.540 -0.0545 -0.8611 -0.2163
  840MOL0     C13330   4.424   5.756   0.522 -1.3994  0.2560 -0.6847
  840MOL0     C13331   3.617   5.939   0.578 -0.3559  0.5685 -0.1913
  840MOL0     C13332   3.496   6.013   0.598 -0.7551 -0.7563  0.0351
  840MOL0     H13333   3.079   6.211   0.226  1.0352 -0.2497  0.5954
  840MOL0     H13334   2.858   6.326   0.222  1.2755  0.6822 -0.5643
  840MOL0     H13335   2.754   6.497   0.530  1.6041 -0.5050 -1.0146
  840MOL0     H13336   2.668   6.531   0.383 -2.0527  0.4997  0.7757
  840MOL0     H13337   2.538   6.573   0.573  1.2893  0.0187 -1.6410
  840MOL0     H13338   2.467   6.465   0.459  1.2213 -1.3841 -1.4108
  840MOL0     H13339   2.614   6.365   0.715 -0.1857 -3.4436  1.2104
  840MOL0     H13340   2.441   6.426   0.726  0.7634 -1.2608  1.6614
  840MOL0     H13341   2.369   6.246   0.588  0.1758 -1.9443  1.0007
  840MOL0     H13342   2.536   6.199   0.559  4.3216  4.1953  0.4953
  840MOL0     H13343   2.563   6.138   0.808  0.9827 -3.1081 -2.1783
  840MOL0     H13344   2.404   6.199   0.844 -1.1415  0.6201 -1.4853
  840MOL0     H13345   2.373   5.947   0.825  2.2634 -2.2234  0.2976
  840MOL0     H13346   2.302   6.027   0.690  0.0109  0.5091  0.2172
  840MOL0     H13347   2.435   5.832   0.620 -0.7148  1.2626  0.2986
  840MOL0     H13348   2.532   5.967   0.563  0.3724 -0.3293  0.4253
  840MOL0     H13349   2.697   5.942   0.715  1.0424 -0.7744  2.1026
  840MOL0     H13350   2.630   5.777   0.679 -3.2973 -1.4242  1.4457
  840MOL0     H13351   2.501   5.631   0.851  4.8627 -1.4637 -0.1920
  840MOL0     H13352   2.436   5.540   1.063 -1.7413  3.6613 -0.4967
  840MOL0     H13353   2.609   5.512   1.096  0.5234  1.2660 -2.2253
  840MOL0     H13354   2.445   5.698   1.274  0.0191  0.1086 -0.6490
  840MOL0     H13355   2.585   5.611   1.328  0.4828  1.6598 -1.0991
  840MOL0     H13356   2.331   5.489   1.234 -0.9387  0.5815 -0.4213
  840MOL0     H13357   2.348   5.519   1.412 -0.8231 -1.8180 -0.8008
  840MOL0     H13358   2.530   5.374   1.451 -1.6992 -0.8024  1.0440
  840MOL0     H13359   2.571   5.366   1.286  0.8976 -1.6483  1.9217
  840MOL0     H13360   2.294   5.029   1.328  1.4505  1.7846 -0.3501
  840MOL0     H13361   2.109   4.820   1.545 -0.4170 -1.4421 -2.2543
  840MOL0     H13362   1.995   4.927   1.471  0.3116  0.1248  1.8407
  840MOL0     H13363   2.131   4.865   1.373  1.4299  1.9149 -0.5878
  840MOL0     H13364   2.137   5.024   2.048  0.5157  1.8553  1.6016
  840MOL0     H13365   2.024   4.929   2.228 -0.6816 -0.7361 -0.4379
  840MOL0     H13366   1.660   4.966   2.456  1.1603 -1.3718 -0.0524
  840MOL0     H13367   1.646   5.093   2.341 -0.8317  0.0707 -0.7229
  840MOL0     H13368   1.515   4.965   2.192 -0.0545  1.7985  0.6140
  840MOL0     H13369   1.553   4.814   2.279 -1.4158 -0.2643 -4.3621
  840MOL0     H13370   1.444   4.937   2.486  1.6811  0.2913 -0.1999
  840MOL0     H13371   1.341   4.866   2.360  0.0809 -1.0075  3.5573
  840MOL0     H13372   1.408   5.166   2.375  1.0277 -0.1696 -0.3314
  840MOL0     H13373   1.297   5.081   2.263  2.1068 -0.3945 -1.5051
  840MOL0     H13374   1.229   5.223   2.494 -1.4443 -0.2922 -1.3332
  840MOL0     H13375   1.288   5.073   2.574  1.4685  3.0156  0.6554
  840MOL0     H13376   1.093   5.041   2.359  0.3352 -0.0338 -0.2842
  840MOL0     H13377   1.092   4.975   2.528  3.6947 -0.8324 -0.8445
  840MOL0     H13378   0.985   5.254   2.456 -0.4492  1.1077  2.4189
  840MOL0     H13379   1.005   5.182   2.609 -0.0848 -1.4961  0.9589
  840MOL0     H13380   0.781   5.170   2.523  0.7118  0.2092 -1.3515
  840MOL0     H13381   0.830   5.009   2.564  1.4971  0.3961  1.3834
  840MOL0     H13382   1.647   5.093   2.092 -0.1363  1.1236 -1.5713
  840MOL0     H13383   1.761   5.167   1.886 -0.2343  1.6495  0.2856
  840MOL0     H13384   2.226   5.271   1.745  0.9987  0.4190 -0.4265
  840MOL0     H13385   2.382   5.342   1.592 -0.2478  0.2268  0.2544
  840MOL0     H13386   2.789   6.177   0.618 -0.6250 -4.4346  0.0788
  840MOL0     H13387   3.031   6.073   0.615  0.8363  0.0400  0.1195
  840MOL0     H13388   3.392   6.025   0.273 -3.4738 -1.9110  2.0872
  840MOL0     H13389   3.591   5.906   0.234 -1.8557  3.9754 -2.1034
  840MOL0     H13390   3.885   5.917   0.279 -1.4079 -3.5889 -0.1578
  840MOL0     H13391   3.879   6.019   0.429 -1.9546 -1.3239  2.7965
  840MOL0     H13392   4.084   5.885   0.373  0.4484 -0.0319 -0.4996
  840MOL0     H13393   3.985   5.737   0.382 -0.2823  0.9234 -1.8414
  840MOL0     H13394   3.975   5.784   0.632 -0.1926  1.7692  1.0343
  840MOL0     H13395   4.079   5.918   0.611 -0.9666  1.1877 -1.0886
  840MOL0     H13396   4.140   5.617   0.521 -1.2732  0.2753 -1.2853
  840MOL0     H13397   4.165   5.687   0.679 -2.4672 -0.5418 -0.8037
  840MOL0     H13398   4.528   5.772   0.502 -1.3715  1.7786  0.4998
  840MOL0     H13399   3.686   5.914   0.658 -0.6172  1.2184  0.2519
  840MOL0     H13400   3.471   6.051   0.696 -1.1647 -0.7433 -0.0737
  841MOL0     O13401   4.874   0.543   9.594 -0.0697 -0.0536 -0.5081
  841MOL0     C13402   4.923   0.449   9.653  0.4004  0.1490  0.4624
  841MOL0     O13403   4.863   0.323   9.678 -0.2118 -0.4518  0.1804
  841MOL0     C13404   4.746   0.279   9.619  0.2686  0.1461 -0.6374
  841MOL0     C13405   4.672   0.188   9.695 -0.5935  0.2227  0.4164
  841MOL0     C13406   4.546   0.136   9.652 -0.7210 -0.8059  0.0351
  841MOL0     C13407   4.505   0.144   9.521 -0.4007  0.7005 -1.0305
  841MOL0     O13408   4.397   0.063   9.479  0.2973 -0.6479  0.4039
  841MOL0     C13409   4.345   0.096   9.353  0.4880  0.0598  1.0678
  841MOL0     C13410   4.253  -0.016   9.327 -0.0147  0.4091  0.4709
  841MOL0     C13411   4.190  -0.005   9.190  0.5884  0.0924  0.2748
  841MOL0     C13412   4.079  -0.106   9.204  0.5591  0.3770 -1.3018
  841MOL0     C13413   4.014  -0.129   9.069  0.7069 -0.0978 -0.3519
  841MOL0     C13414   3.933  -0.250   9.048  0.1155  0.6248  0.2951
  841MOL0     C13415   3.797  -0.238   9.114 -0.7220  1.0453  0.1105
  841MOL0     C13416   3.714  -0.366   9.105  0.0551 -0.3696  0.6870
  841MOL0     N13417   3.570  -0.345   9.113 -0.2558 -0.2251 -0.6335
  841MOL0     C13418   3.486  -0.389   9.217 -0.7864 -0.4598 -0.6275
  841MOL0     C13419   3.357  -0.345   9.179 -0.3856 -0.1209 -0.0884
  841MOL0     C13420   3.227  -0.388   9.244  0.9519 -0.9616 -0.3269
  841MOL0     C13421   3.132  -0.470   9.145 -0.9335 -0.1534 -0.0046
  841MOL0     C13422   2.999  -0.501   9.210  0.0332 -0.1385  0.0577
  841MOL0     C13423   2.921  -0.599   9.121  0.1109 -0.4974  0.2396
  841MOL0     O13424   2.865  -0.538   9.005  0.9661 -0.5341  0.1219
  841MOL0     C13425   2.731  -0.574   8.968  0.2638  1.0813  0.9288
  841MOL0     C13426   2.652  -0.685   9.005  0.6116  0.4659  0.3618
  841MOL0     C13427   2.513  -0.703   8.975 -0.5086  0.3513 -1.2768
  841MOL0     C13428   2.459  -0.846   8.974  0.2374 -0.2202 -0.5052
  841MOL0     C13429   2.449  -0.596   8.913  0.4537  0.3406 -0.1752
  841MOL0     C13430   2.307  -0.594   8.896 -0.5113 -0.1467 -0.6549
  841MOL0     O13431   2.231  -0.672   8.978 -0.5994  0.0149  0.3790
  841MOL0     C13432   2.098  -0.677   8.962 -0.5392 -0.2397 -0.7854
  841MOL0     C13433   2.018  -0.567   8.943 -0.1365 -0.3801 -0.2742
  841MOL0     C13434   1.879  -0.574   8.956 -0.1151 -0.6415  0.0167
  841MOL0     C13435   1.809  -0.695   8.962  0.1640  0.2637  0.1961
  841MOL0     O13436   1.672  -0.714   8.966  1.0091  0.2593 -0.3624
  841MOL0     C13437   1.592  -0.598   9.006  0.2248  0.1408 -0.7799
  841MOL0     C13438   1.440  -0.651   8.995 -0.7161 -0.1668  0.2961
  841MOL0     C13439   1.343  -0.586   9.095  0.0931 -0.4544  0.3006
  841MOL0     C13440   1.364  -0.434   9.104  0.7428  0.4615 -0.8060
  841MOL0     C13441   1.245  -0.370   9.185 -0.6921 -0.8977  0.4577
  841MOL0     C13442   1.263  -0.381   9.337 -0.5089 -0.0404 -0.4774
  841MOL0     C13443   1.321  -0.254   9.403 -0.5440 -0.3390 -0.0108
  841MOL0     C13444   1.472  -0.236   9.365 -0.4314 -0.1241  1.0023
  841MOL0    Cl13445   1.577  -0.380   9.431 -0.0354  0.1313 -0.2279
  841MOL0     C13446   1.892  -0.806   8.972 -0.5394 -1.1755  0.5642
  841MOL0     C13447   2.034  -0.795   8.970 -0.6971  0.2953 -0.0632
  841MOL0     O13448   2.263  -0.525   8.808 -0.4609 -0.1768 -0.0521
  841MOL0     C13449   2.522  -0.483   8.876 -0.5923 -0.1949  0.4907
  841MOL0     C13450   2.660  -0.473   8.906 -0.5114  0.2820 -0.2948
  841MOL0     N13451   3.368  -0.289   9.053 -0.2842  0.2422 -0.4704
  841MOL0     N13452   3.496  -0.284   9.014  0.2916  0.0617 -0.0066
  841MOL0     C13453   4.579   0.242   9.445  0.1339  0.8547  0.0908
  841MOL0     C13454   4.702   0.302   9.494  0.8732  0.2114 -0.8493
  841MOL0     C13455   5.057   0.465   9.708  0.4033 -0.1949 -0.5375
  841MOL0     C13456   5.130   0.590   9.715  0.2559 -0.0454 -0.1533
  841MOL0     C13457   5.259   0.596   9.779  0.9441  0.5575 -0.0192
  841MOL0     C13458   5.322   0.478   9.824  0.6746  0.0804 -0.9573
  841MOL0     O13459   5.447   0.458   9.875 -0.2283  0.4784  0.0053
  841MOL0     C13460   5.531   0.582   9.884  0.3048 -0.7656  0.6465
  841MOL0     C13461   5.581   0.619   9.745 -0.2984  0.2695 -0.7147
  841MOL0     C13462   5.668   0.514   9.682 -0.6085 -0.1239 -0.4319
  841MOL0     C13463   5.740   0.563   9.562 -0.1696  0.2405  0.3054
  841MOL0     C13464   5.813   0.456   9.492  0.8697 -0.3483  0.1236
  841MOL0     C13465   5.865   0.356   9.441 -0.3609  0.5786  0.3455
  841MOL0     C13466   5.245   0.361   9.825 -0.1774  0.1631  0.3744
  841MOL0     C13467   5.122   0.348   9.762  0.0655  0.4768  0.1570
  841MOL0     H13468   4.722   0.167   9.789  0.7509 -1.0908 -0.5352
  841MOL0     H13469   4.515   0.063   9.726  3.5374 -1.5376  1.3420
  841MOL0     H13470   4.310   0.199   9.349  3.6548  1.2256  0.1172
  841MOL0     H13471   4.424   0.090   9.278 -0.5134 -3.0572  0.0990
  841MOL0     H13472   4.307  -0.111   9.335 -2.0927 -0.8692  0.0324
  841MOL0     H13473   4.176  -0.010   9.404 -0.7474 -0.9112 -0.1236
  841MOL0     H13474   4.146   0.095   9.180 -2.2814 -1.3355 -3.6355
  841MOL0     H13475   4.262  -0.017   9.109 -0.3748 -1.0707 -0.4399
  841MOL0     H13476   4.122  -0.203   9.231 -2.7484 -1.1285 -0.8532
  841MOL0     H13477   4.004  -0.094   9.283  0.2573 -4.8003 -0.4195
  841MOL0     H13478   3.951  -0.042   9.048 -3.0503 -2.0533  1.7062
  841MOL0     H13479   4.093  -0.133   8.994  2.9435  1.5059  1.7450
  841MOL0     H13480   3.917  -0.255   8.940 -0.7021  2.2940  0.3166
  841MOL0     H13481   3.980  -0.346   9.075 -1.0261 -0.8031 -2.4218
  841MOL0     H13482   3.810  -0.207   9.218  2.3953  0.4372 -0.0084
  841MOL0     H13483   3.741  -0.159   9.064  1.7707  2.4471 -0.6385
  841MOL0     H13484   3.740  -0.441   9.181 -1.8375 -2.0854 -0.2573
  841MOL0     H13485   3.730  -0.411   9.007 -3.9275 -0.3458 -0.1557
  841MOL0     H13486   3.531  -0.443   9.300  0.8632 -1.2986 -1.9951
  841MOL0     H13487   3.260  -0.445   9.331  1.6786 -1.5320 -0.9592
  841MOL0     H13488   3.173  -0.297   9.270 -1.4062 -1.5553 -2.6947
  841MOL0     H13489   3.192  -0.561   9.138 -0.0027  0.3081  1.3258
  841MOL0     H13490   3.124  -0.414   9.052 -1.2207  1.8848  1.1795
  841MOL0     H13491   2.939  -0.410   9.223  0.1691 -0.0005 -0.2669
  841MOL0     H13492   3.024  -0.554   9.302 -0.1708 -0.3387 -0.0003
  841MOL0     H13493   2.844  -0.636   9.189 -0.0176  2.9562  2.1853
  841MOL0     H13494   2.984  -0.683   9.088  0.7717 -0.1844  0.6878
  841MOL0     H13495   2.691  -0.778   9.047  0.3547 -0.7005 -1.8220
  841MOL0     H13496   2.542  -0.917   8.986  0.2857  0.0409  0.9765
  841MOL0     H13497   2.380  -0.849   9.049 -2.1546  3.0788 -2.6506
  841MOL0     H13498   2.410  -0.869   8.879  0.1181 -0.4321 -0.3945
  841MOL0     H13499   2.056  -0.465   8.937  0.6360 -0.6539 -0.1714
  841MOL0     H13500   1.826  -0.482   8.932  1.4877 -0.1016 -1.7913
  841MOL0     H13501   1.626  -0.565   9.104  0.2358 -2.6307  0.2327
  841MOL0     H13502   1.602  -0.512   8.939  1.6572  0.8146  0.2485
  841MOL0     H13503   1.413  -0.645   8.889  2.6302 -4.7023 -1.1364
  841MOL0     H13504   1.437  -0.758   9.020 -4.4140 -0.3557 -0.3795
  841MOL0     H13505   1.370  -0.615   9.197  1.2534  0.2364  0.2099
  841MOL0     H13506   1.239  -0.610   9.069  0.2616  0.9230 -1.9422
  841MOL0     H13507   1.449  -0.415   9.170 -0.5172  0.1419  0.9962
  841MOL0     H13508   1.378  -0.390   9.005  0.6370  0.1609 -0.9564
  841MOL0     H13509   1.145  -0.401   9.153 -0.8710  1.6879 -1.9783
  841MOL0     H13510   1.246  -0.264   9.158 -0.7553 -1.5117 -2.2761
  841MOL0     H13511   1.159  -0.390   9.367 -1.1702  2.1987 -1.8535
  841MOL0     H13512   1.328  -0.469   9.345 -0.6990 -0.0705  1.1268
  841MOL0     H13513   1.314  -0.254   9.512 -1.9092 -0.1972 -0.0807
  841MOL0     H13514   1.269  -0.162   9.373 -1.0377  0.4832  3.0560
  841MOL0     H13515   1.513  -0.145   9.410  0.2790 -1.1978  2.6118
  841MOL0     H13516   1.487  -0.229   9.257  0.6072  1.7065  1.2251
  841MOL0     H13517   1.846  -0.905   8.972 -3.6001  0.0089 -2.5812
  841MOL0     H13518   2.088  -0.890   8.978 -0.6333  0.2013 -1.3577
  841MOL0     H13519   2.474  -0.399   8.827 -2.2765 -1.5563 -0.2740
  841MOL0     H13520   2.712  -0.383   8.875 -0.9786  0.7439  0.2531
  841MOL0     H13521   4.544   0.269   9.345 -1.2204 -1.6640 -0.1792
  841MOL0     H13522   4.765   0.364   9.431  0.9356  1.9539  0.8628
  841MOL0     H13523   5.100   0.685   9.673  2.3209  0.1137 -1.3953
  841MOL0     H13524   5.306   0.692   9.797  1.6771 -0.1019  1.7792
  841MOL0     H13525   5.463   0.664   9.911  1.3425  2.1245 -4.1909
  841MOL0     H13526   5.618   0.578   9.951  0.1254  3.4103  1.3783
  841MOL0     H13527   5.639   0.711   9.760 -0.9608  0.4817  0.6785
  841MOL0     H13528   5.493   0.630   9.682  0.4994 -3.3494 -2.7420
  841MOL0     H13529   5.612   0.423   9.661  0.5399 -0.7407 -0.9060
  841MOL0     H13530   5.739   0.478   9.757  0.8327  0.3023 -1.5354
  841MOL0     H13531   5.810   0.642   9.592  0.4443 -0.7775  1.6831
  841MOL0     H13532   5.682   0.607   9.481  2.3635  2.2195 -0.5964
  841MOL0     H13533   5.921   0.272   9.407 -0.6340  0.0532  1.1743
  841MOL0     H13534   5.292   0.276   9.874  0.0409  0.1464  0.1377
  841MOL0     H13535   5.071   0.253   9.770  0.5085  0.2301  0.0614
  842MOL0     O13536   1.411   7.220   6.409  0.0893 -0.2018 -0.2055
  842MOL0     C13537   1.415   7.330   6.458  0.2852 -0.5966 -0.1767
  842MOL0     O13538   1.327   7.434   6.432  0.2221 -0.9598  1.0026
  842MOL0     C13539   1.221   7.418   6.336 -0.1682  0.9701 -1.4475
  842MOL0     C13540   1.194   7.520   6.256  0.6271 -0.0090  0.4239
  842MOL0     C13541   1.080   7.515   6.172 -0.3362 -0.3923  0.1151
  842MOL0     C13542   0.990   7.406   6.186 -0.4336  1.0161 -0.1474
  842MOL0     O13543   0.862   7.442   6.138 -0.5513 -0.7307  0.5216
  842MOL0     C13544   0.764   7.337   6.130 -0.3671  0.3835  0.2175
  842MOL0     C13545   0.670   7.375   6.019 -0.3326  0.3499 -0.2792
  842MOL0     C13546   0.602   7.507   6.040  0.0515  0.1255 -0.0901
  842MOL0     C13547   0.462   7.521   5.979 -0.4013 -0.7336 -0.0210
  842MOL0     C13548   0.451   7.489   5.828 -0.1612  0.2340 -0.0203
  842MOL0     C13549   0.565   7.542   5.736 -0.1881  0.3799  0.3830
  842MOL0     C13550   0.569   7.696   5.741  0.6731  0.4486  0.0027
  842MOL0     C13551   0.652   7.755   5.625  0.1129  0.2908 -0.3096
  842MOL0     N13552   0.596   7.755   5.489 -0.0288  0.4242  0.3955
  842MOL0     C13553   0.574   7.656   5.396 -0.9651  0.0096  0.0799
  842MOL0     C13554   0.531   7.714   5.281  0.6584 -0.8378  1.0663
  842MOL0     C13555   0.478   7.633   5.167  0.3054 -0.4732  0.5809
  842MOL0     C13556   0.382   7.700   5.071 -1.2588 -0.4459 -0.4569
  842MOL0     C13557   0.352   7.617   4.946 -0.0358  0.0386 -0.8324
  842MOL0     C13558   0.292   7.694   4.827  0.3494  0.3396  0.3980
  842MOL0     O13559   0.200   7.785   4.874  0.5119 -0.2974 -0.3891
  842MOL0     C13560   0.089   7.820   4.795  0.8436  0.1718 -1.0983
  842MOL0     C13561   0.001   7.919   4.839  0.0371 -0.0355 -0.4305
  842MOL0     C13562  -0.108   7.973   4.768  0.2567  0.8029 -1.0542
  842MOL0     C13563  -0.184   8.081   4.829  0.2104 -0.1262  0.0853
  842MOL0     C13564  -0.134   7.912   4.641  0.2393 -1.2257  0.8297
  842MOL0     C13565  -0.251   7.954   4.554  0.0059 -0.0639 -0.2300
  842MOL0     O13566  -0.341   8.048   4.587 -0.0205  0.4673  0.1803
  842MOL0     C13567  -0.413   8.120   4.492 -0.6191 -0.4562 -0.1987
  842MOL0     C13568  -0.373   8.256   4.456 -0.8946  0.0061  0.1822
  842MOL0     C13569  -0.449   8.328   4.364 -0.2585  0.1873 -0.3379
  842MOL0     C13570  -0.572   8.272   4.306 -0.3490 -0.4241  0.1684
  842MOL0     O13571  -0.648   8.342   4.221 -0.1398  0.2706 -0.0115
  842MOL0     C13572  -0.709   8.466   4.269  0.4747  0.0252  0.5546
  842MOL0     C13573  -0.794   8.429   4.388  0.1879  0.8018 -0.8240
  842MOL0     C13574  -0.911   8.331   4.354  0.1090  1.0667  0.5308
  842MOL0     C13575  -0.993   8.284   4.465  1.6829 -0.2898 -0.0793
  842MOL0     C13576  -1.094   8.177   4.422  0.1405  0.3354  0.0697
  842MOL0     C13577  -1.222   8.244   4.367 -0.0528  0.6000  0.1191
  842MOL0     C13578  -1.344   8.148   4.333 -0.3197  0.3078  0.3345
  842MOL0     C13579  -1.463   8.237   4.296 -0.0095 -0.6002  0.3029
  842MOL0    Cl13580  -1.589   8.151   4.197  0.2742  0.3441 -0.0128
  842MOL0     C13581  -0.605   8.140   4.341  0.4164 -0.0148 -0.3107
  842MOL0     C13582  -0.528   8.069   4.432 -0.4493 -0.3753 -0.6884
  842MOL0     O13583  -0.232   7.925   4.437 -0.0481 -0.0811 -0.0168
  842MOL0     C13584  -0.045   7.818   4.587 -0.4007  0.1966 -0.7955
  842MOL0     C13585   0.066   7.772   4.663 -0.0495  0.2549  0.3504
  842MOL0     N13586   0.515   7.845   5.308  0.2746 -0.2731 -0.3986
  842MOL0     N13587   0.561   7.871   5.426  0.3013  0.5420 -0.3394
  842MOL0     C13588   1.016   7.295   6.267  0.5831 -0.6258  0.1519
  842MOL0     C13589   1.132   7.299   6.339 -0.5015  0.9016 -0.2831
  842MOL0     C13590   1.512   7.356   6.559 -0.5679  1.0971  0.0663
  842MOL0     C13591   1.606   7.262   6.599  0.0085 -0.7247 -0.0958
  842MOL0     C13592   1.698   7.293   6.687 -0.8300 -0.4444 -0.1531
  842MOL0     C13593   1.706   7.418   6.747 -0.8670  0.6230  0.4772
  842MOL0     O13594   1.811   7.446   6.827  0.3748 -0.0258  0.0613
  842MOL0     C13595   1.811   7.559   6.913 -0.1911 -0.3344  0.1305
  842MOL0     C13596   1.878   7.688   6.855 -0.1438 -0.5962 -0.1952
  842MOL0     C13597   2.032   7.665   6.840  0.5932 -0.9097  0.7544
  842MOL0     C13598   2.093   7.778   6.755  0.6741 -0.0032  0.2125
  842MOL0     C13599   2.237   7.780   6.788  0.3181 -0.1320  0.7941
  842MOL0     C13600   2.355   7.760   6.806 -0.2223 -0.3967  0.2492
  842MOL0     C13601   1.619   7.509   6.712 -0.1468  0.7105  0.6092
  842MOL0     C13602   1.517   7.487   6.615 -0.7223  0.0377  1.0074
  842MOL0     H13603   1.258   7.607   6.258 -2.5318  2.4844  0.7077
  842MOL0     H13604   1.036   7.589   6.105 -0.4628 -1.0944 -0.6048
  842MOL0     H13605   0.814   7.246   6.096 -2.9966 -0.4692 -1.6113
  842MOL0     H13606   0.701   7.329   6.219  1.4430  0.6050  1.5765
  842MOL0     H13607   0.735   7.375   5.931  2.2263 -1.1206  1.5031
  842MOL0     H13608   0.601   7.291   6.014  1.3988 -1.0509 -2.3450
  842MOL0     H13609   0.598   7.538   6.145  0.6853 -0.4377  0.1011
  842MOL0     H13610   0.669   7.582   5.997  0.5155  0.5653  1.3768
  842MOL0     H13611   0.386   7.478   6.045 -2.3855  3.3894  0.6770
  842MOL0     H13612   0.439   7.628   5.981 -0.4428 -0.6628 -1.9874
  842MOL0     H13613   0.448   7.381   5.816 -0.7617  0.0126  1.7465
  842MOL0     H13614   0.356   7.525   5.787  0.8345 -0.2523 -2.9696
  842MOL0     H13615   0.666   7.506   5.754 -1.0654 -0.8258  3.6851
  842MOL0     H13616   0.550   7.507   5.634  1.6665 -0.3621  0.3415
  842MOL0     H13617   0.469   7.738   5.728  0.3033  0.2865  1.9922
  842MOL0     H13618   0.608   7.734   5.836 -0.8255 -1.8746  1.6810
  842MOL0     H13619   0.740   7.691   5.624 -0.7715 -0.9916  1.0083
  842MOL0     H13620   0.687   7.857   5.648 -0.7139  0.1337  1.8118
  842MOL0     H13621   0.588   7.549   5.413  0.5617 -0.4244 -3.0559
  842MOL0     H13622   0.562   7.601   5.106 -1.2691 -3.0255 -0.4249
  842MOL0     H13623   0.436   7.541   5.208  0.5422 -0.0189  1.8723
  842MOL0     H13624   0.423   7.799   5.047 -0.7597 -1.3077 -3.6229
  842MOL0     H13625   0.288   7.718   5.123 -0.3289  1.7248  0.6343
  842MOL0     H13626   0.273   7.549   4.979 -0.1590 -0.4322 -2.0677
  842MOL0     H13627   0.436   7.570   4.894 -0.2205  0.3354 -1.4047
  842MOL0     H13628   0.248   7.627   4.752  0.8151 -1.0356  1.3080
  842MOL0     H13629   0.369   7.737   4.763  0.9476 -0.4630  0.5533
  842MOL0     H13630   0.027   7.959   4.937 -0.7732  1.8277 -0.9197
  842MOL0     H13631  -0.205   8.163   4.760 -0.4513  1.6205  2.2259
  842MOL0     H13632  -0.279   8.042   4.867  0.9519  0.1058  2.3390
  842MOL0     H13633  -0.135   8.124   4.917  0.5289 -1.8150  0.7821
  842MOL0     H13634  -0.288   8.298   4.510  1.6147 -2.0325 -1.8534
  842MOL0     H13635  -0.417   8.425   4.327 -0.5832 -0.4432 -2.3787
  842MOL0     H13636  -0.631   8.539   4.292 -1.5503  2.6872 -0.5624
  842MOL0     H13637  -0.775   8.499   4.188  0.0918  1.5891  1.4791
  842MOL0     H13638  -0.737   8.397   4.475 -0.8615 -1.9373 -1.0536
  842MOL0     H13639  -0.847   8.514   4.431 -1.3767 -0.3386 -0.4235
  842MOL0     H13640  -0.877   8.250   4.290 -2.3735 -0.5103  1.0791
  842MOL0     H13641  -0.973   8.387   4.284  1.4107  0.5769 -1.0684
  842MOL0     H13642  -0.941   8.228   4.544 -2.6990 -1.5215  2.2121
  842MOL0     H13643  -1.040   8.362   4.524  1.1518  0.3409 -1.3011
  842MOL0     H13644  -1.115   8.126   4.516  3.4856 -0.7014  0.3902
  842MOL0     H13645  -1.049   8.097   4.363 -0.8116 -1.1826  1.3132
  842MOL0     H13646  -1.252   8.309   4.449 -2.4146  1.3109 -1.1991
  842MOL0     H13647  -1.202   8.303   4.277  0.2148  0.7488  0.2737
  842MOL0     H13648  -1.366   8.081   4.416  1.8200 -3.0042 -1.5747
  842MOL0     H13649  -1.318   8.080   4.251 -2.0540 -0.3463  0.2710
  842MOL0     H13650  -1.429   8.330   4.251 -0.8434  0.2786  1.4324
  842MOL0     H13651  -1.523   8.249   4.387 -1.2344  3.3221 -0.8315
  842MOL0     H13652  -0.689   8.103   4.283  0.8223 -0.3150 -0.7145
  842MOL0     H13653  -0.570   7.977   4.470  0.0693 -0.1850  0.3659
  842MOL0     H13654  -0.071   7.768   4.494  1.4272  0.7385 -1.6583
  842MOL0     H13655   0.121   7.695   4.611  0.2883 -0.7147  2.0505
  842MOL0     H13656   0.937   7.227   6.295  0.9229 -0.0946  2.5551
  842MOL0     H13657   1.157   7.215   6.403 -0.6912  1.7742  0.9672
  842MOL0     H13658   1.602   7.161   6.559 -2.3372 -1.5750  1.9908
  842MOL0     H13659   1.767   7.216   6.720 -0.3018 -0.3212 -0.9615
  842MOL0     H13660   1.711   7.586   6.949  0.2412  0.3202  0.8698
  842MOL0     H13661   1.871   7.530   7.000 -0.3968  0.5380  0.5757
  842MOL0     H13662   1.853   7.773   6.918 -0.6836 -0.2750 -0.8279
  842MOL0     H13663   1.833   7.713   6.759 -2.3407 -0.2569  0.8575
  842MOL0     H13664   2.056   7.564   6.806  2.1862 -0.6455  0.9798
  842MOL0     H13665   2.073   7.679   6.940 -0.8529  3.6712  0.9768
  842MOL0     H13666   2.046   7.870   6.792 -0.8633 -0.7782  0.2805
  842MOL0     H13667   2.077   7.776   6.647 -1.1261 -0.2495  0.4485
  842MOL0     H13668   2.454   7.726   6.830 -0.8940 -1.9202  1.0199
  842MOL0     H13669   1.617   7.608   6.755 -1.0687  1.2965 -0.7200
  842MOL0     H13670   1.458   7.568   6.573 -2.7738 -1.5437  0.7140
  843MOL0     O13671  10.782   8.045   3.780 -0.0732  0.0610 -0.3915
  843MOL0     C13672  10.802   8.016   3.896 -0.0258  0.3252  0.3228
  843MOL0     O13673  10.710   7.978   3.993 -0.0624  0.1774  0.1126
  843MOL0     C13674  10.578   7.997   3.958 -0.1401 -0.7232  0.0900
  843MOL0     C13675  10.513   7.915   3.864 -0.4782 -0.9170  0.7946
  843MOL0     C13676  10.381   7.939   3.826 -0.4302  0.3191  0.0784
  843MOL0     C13677  10.309   8.035   3.886  0.3765  0.7450 -0.0608
  843MOL0     O13678  10.180   8.080   3.834  0.4952  0.0807 -0.4707
  843MOL0     C13679  10.070   8.072   3.922  0.2948  0.1844  0.5973
  843MOL0     C13680   9.955   8.159   3.868 -0.3638  0.3791  0.2096
  843MOL0     C13681   9.901   8.109   3.733 -0.0082  0.1368  0.5002
  843MOL0     C13682   9.756   8.161   3.707  0.0327  0.6640  0.3574
  843MOL0     C13683   9.666   8.081   3.605  0.1182 -1.0025  0.1774
  843MOL0     C13684   9.522   8.132   3.605 -0.7610 -0.0868  0.0004
  843MOL0     C13685   9.461   8.120   3.467 -0.0899 -0.0833  1.1394
  843MOL0     C13686   9.436   7.974   3.431 -0.0759 -0.2854 -0.1310
  843MOL0     N13687   9.338   7.964   3.314  0.2826 -0.2310 -0.1162
  843MOL0     C13688   9.292   8.060   3.224  0.2399 -0.7865 -0.4165
  843MOL0     C13689   9.200   8.005   3.143 -0.4615 -0.0782 -0.2226
  843MOL0     C13690   9.132   8.066   3.024  0.6954  0.3879  0.3033
  843MOL0     C13691   8.978   8.061   3.025  0.4508 -0.0174 -0.3264
  843MOL0     C13692   8.907   8.164   2.936 -0.1617  0.0489  0.0525
  843MOL0     C13693   8.777   8.211   3.002 -0.5764 -0.6918 -0.6505
  843MOL0     O13694   8.706   8.096   3.054 -0.0856  0.3407 -0.0857
  843MOL0     C13695   8.578   8.114   3.100  0.3251  0.9384  0.3353
  843MOL0     C13696   8.544   8.024   3.197  0.0617 -0.3690 -0.2740
  843MOL0     C13697   8.418   8.034   3.256  0.4241  0.0480  0.0832
  843MOL0     C13698   8.402   7.924   3.363 -0.8582 -0.6285 -1.1041
  843MOL0     C13699   8.321   8.134   3.230 -0.7960  0.0697 -0.1777
  843MOL0     C13700   8.187   8.157   3.303 -0.9976  0.0191 -0.0973
  843MOL0     O13701   8.116   8.265   3.266  0.2236 -0.5138  0.0262
  843MOL0     C13702   7.986   8.255   3.301  0.4180 -0.8780 -0.4228
  843MOL0     C13703   7.923   8.305   3.421  0.4409 -0.3504  0.1285
  843MOL0     C13704   7.790   8.298   3.452 -0.0383  0.3685  0.0667
  843MOL0     C13705   7.700   8.252   3.356 -0.2236 -0.5324  0.6293
  843MOL0     O13706   7.565   8.253   3.389 -0.6414  0.3712  0.2308
  843MOL0     C13707   7.486   8.316   3.288  0.2976 -0.1733  0.3605
  843MOL0     C13708   7.519   8.462   3.290 -0.2227  0.0088  0.7348
  843MOL0     C13709   7.596   8.492   3.160  0.1989  0.2987  0.2357
  843MOL0     C13710   7.655   8.635   3.157 -0.6928 -0.4479  0.0229
  843MOL0     C13711   7.730   8.661   3.025 -0.2227 -0.3571  0.1086
  843MOL0     C13712   7.867   8.586   3.014 -0.8215  0.3274 -0.0765
  843MOL0     C13713   7.971   8.626   3.129 -0.8927 -0.2353 -1.0229
  843MOL0     C13714   8.112   8.556   3.125 -0.5868  0.0290 -0.6436
  843MOL0    Cl13715   8.256   8.645   3.053  0.1469 -0.2990 -0.4345
  843MOL0     C13716   7.757   8.194   3.244 -0.1574  1.1434  0.3133
  843MOL0     C13717   7.895   8.191   3.220  0.4896 -0.3091  0.5165
  843MOL0     O13718   8.176   8.096   3.406  0.2348 -0.7476  0.0571
  843MOL0     C13719   8.365   8.233   3.130 -0.2249 -0.5785 -0.0366
  843MOL0     C13720   8.492   8.215   3.064  0.5126 -0.8383 -0.3117
  843MOL0     N13721   9.198   7.869   3.180 -0.5176 -0.0637 -0.0267
  843MOL0     N13722   9.275   7.843   3.289 -0.6899  0.6458  0.5103
  843MOL0     C13723  10.367   8.112   3.990 -0.0273  0.4286 -0.0235
  843MOL0     C13724  10.498   8.087   4.030 -0.4481 -0.3271  0.6760
  843MOL0     C13725  10.938   8.018   3.930  1.0351 -0.0181 -0.2466
  843MOL0     C13726  11.041   8.046   3.832 -0.3403  0.4099 -0.6591
  843MOL0     C13727  11.177   8.048   3.876 -0.3407 -0.0136 -0.2301
  843MOL0     C13728  11.219   7.999   4.000  0.3074 -0.0362 -0.0955
  843MOL0     O13729  11.354   8.011   4.038  0.1075 -0.4067  0.4294
  843MOL0     C13730  11.450   7.933   3.961 -1.1974 -0.2163 -0.8135
  843MOL0     C13731  11.559   7.875   4.055 -0.2198 -1.0839 -0.9483
  843MOL0     C13732  11.504   7.762   4.141  0.6417 -0.2011  0.6349
  843MOL0     C13733  11.609   7.700   4.223  0.0269  1.0102 -0.4671
  843MOL0     C13734  11.639   7.783   4.344  0.8407  0.4120  0.1221
  843MOL0     C13735  11.670   7.815   4.455 -0.0138 -0.4437  0.0515
  843MOL0     C13736  11.115   7.972   4.091 -0.0765  0.3968  0.1240
  843MOL0     C13737  10.977   7.980   4.056 -0.2180 -0.2078 -0.1885
  843MOL0     H13738  10.581   7.843   3.818  1.8909  1.5401  0.1837
  843MOL0     H13739  10.343   7.877   3.745 -0.6061 -1.4323  1.4440
  843MOL0     H13740  10.041   7.967   3.934 -0.1164  0.2081 -0.1716
  843MOL0     H13741  10.094   8.119   4.018  0.2683  2.2237 -0.3464
  843MOL0     H13742   9.874   8.158   3.942  0.3486  0.3926  1.0073
  843MOL0     H13743   9.984   8.265   3.861 -1.2256  0.8042  2.2398
  843MOL0     H13744   9.968   8.134   3.651 -2.1403  1.4717 -0.9322
  843MOL0     H13745   9.902   7.999   3.732  0.1854  0.1435 -0.1779
  843MOL0     H13746   9.698   8.176   3.799 -1.4198  0.0860 -0.4216
  843MOL0     H13747   9.783   8.256   3.662  1.2939  1.1036  1.9460
  843MOL0     H13748   9.717   8.090   3.509  1.1518 -2.0483  0.6084
  843MOL0     H13749   9.674   7.973   3.624  0.1341 -1.2539 -1.2087
  843MOL0     H13750   9.457   8.078   3.674 -0.4750  1.1069  1.2520
  843MOL0     H13751   9.526   8.239   3.626 -0.2731  0.2384 -1.6150
  843MOL0     H13752   9.357   8.153   3.465 -0.0586  0.0358  1.4926
  843MOL0     H13753   9.531   8.178   3.405 -0.8499  0.3115  0.6383
  843MOL0     H13754   9.412   7.912   3.517 -0.7769  0.8949  0.5524
  843MOL0     H13755   9.530   7.942   3.385 -0.5143  1.9115 -2.8261
  843MOL0     H13756   9.331   8.159   3.208  2.1491 -0.9870  2.3815
  843MOL0     H13757   9.166   8.170   3.016  1.7258  0.2616  2.4292
  843MOL0     H13758   9.165   8.012   2.935  0.5797  1.3128 -0.3142
  843MOL0     H13759   8.951   8.076   3.130 -1.7749 -1.3529 -0.6437
  843MOL0     H13760   8.936   7.961   3.018 -2.0639  0.9417 -0.0602
  843MOL0     H13761   8.897   8.126   2.834  3.1549 -1.4780  0.1698
  843MOL0     H13762   8.965   8.256   2.933  1.6741 -1.0758 -0.5865
  843MOL0     H13763   8.726   8.280   2.934  0.4066  2.3672  1.5108
  843MOL0     H13764   8.799   8.276   3.087  1.8315 -0.0477 -1.6989
  843MOL0     H13765   8.618   7.947   3.215 -0.1157  0.2172  3.9887
  843MOL0     H13766   8.420   7.960   3.465  0.2555 -1.9862 -0.7791
  843MOL0     H13767   8.301   7.886   3.350 -0.9733  0.5968 -4.5585
  843MOL0     H13768   8.467   7.837   3.344 -1.6941 -1.3950 -0.5499
  843MOL0     H13769   7.985   8.339   3.504 -0.7280  0.0587  0.8688
  843MOL0     H13770   7.760   8.342   3.547 -1.6303  1.5487 -0.9365
  843MOL0     H13771   7.509   8.271   3.191  2.8132 -1.8419  1.6219
  843MOL0     H13772   7.379   8.298   3.304  0.1061 -1.7406 -2.0635
  843MOL0     H13773   7.431   8.527   3.297  1.4939  2.2939  3.9560
  843MOL0     H13774   7.578   8.483   3.380 -1.5496 -1.3825  1.9817
  843MOL0     H13775   7.537   8.472   3.071  2.9174 -2.3888 -1.1650
  843MOL0     H13776   7.678   8.423   3.139 -1.3777 -0.9811 -2.0658
  843MOL0     H13777   7.578   8.713   3.165  0.6742  0.8950  0.3885
  843MOL0     H13778   7.720   8.646   3.244 -1.0664 -0.2244  0.2747
  843MOL0     H13779   7.752   8.768   3.022 -0.1005 -0.3893 -2.5422
  843MOL0     H13780   7.670   8.634   2.937  0.9481  2.2994 -1.6383
  843MOL0     H13781   7.859   8.477   3.020 -1.7091  0.3091 -1.1855
  843MOL0     H13782   7.908   8.617   2.917  0.7148 -0.4487  0.2875
  843MOL0     H13783   7.930   8.601   3.227  1.6279  0.8499  0.3998
  843MOL0     H13784   7.993   8.733   3.123  3.8653 -0.9370  0.3181
  843MOL0     H13785   8.103   8.466   3.063  0.3684 -0.0470 -0.6788
  843MOL0     H13786   8.139   8.519   3.224  2.6992  1.3457 -0.9325
  843MOL0     H13787   7.692   8.153   3.167 -0.9296 -1.1972  2.1227
  843MOL0     H13788   7.938   8.153   3.128  0.6208 -1.0598  0.8759
  843MOL0     H13789   8.307   8.319   3.098  1.1847  1.1375  1.7702
  843MOL0     H13790   8.527   8.284   2.988 -2.0483  2.6424  1.3524
  843MOL0     H13791  10.311   8.190   4.039 -2.7111 -0.5049 -1.3605
  843MOL0     H13792  10.537   8.158   4.102  3.4525  1.1275 -2.5446
  843MOL0     H13793  11.023   8.078   3.730  0.5660 -0.8769 -1.2479
  843MOL0     H13794  11.252   8.071   3.801  0.1358  1.5729  0.6689
  843MOL0     H13795  11.409   7.851   3.901 -0.2138 -2.7301  1.7483
  843MOL0     H13796  11.485   8.005   3.886 -4.5026  0.8043 -1.5279
  843MOL0     H13797  11.590   7.951   4.127 -4.1886  0.0634 -0.2204
  843MOL0     H13798  11.636   7.834   3.990 -0.0050 -1.1133 -0.6763
  843MOL0     H13799  11.460   7.688   4.074  1.9535 -0.1619 -0.3269
  843MOL0     H13800  11.424   7.790   4.209  1.0755  0.8183  0.7500
  843MOL0     H13801  11.695   7.681   4.159 -0.3431  2.9304 -1.6014
  843MOL0     H13802  11.581   7.608   4.275  3.2883  2.0254  3.7473
  843MOL0     H13803  11.706   7.829   4.555  0.1781 -0.5772  0.0011
  843MOL0     H13804  11.143   7.939   4.191  0.9890  1.3960  0.1661
  843MOL0     H13805  10.899   7.959   4.129  1.2844 -1.3613  1.1514
  844MOL0     O13806  10.268   4.143   8.272 -0.1264  1.0169  0.0837
  844MOL0     C13807  10.250   4.066   8.366  0.8494 -0.5058 -0.6617
  844MOL0     O13808  10.177   4.094   8.483 -0.5993 -1.1938 -0.3328
  844MOL0     C13809  10.086   4.194   8.484 -0.3849 -0.6282 -0.6999
  844MOL0     C13810  10.109   4.332   8.482  0.0748  0.5659  0.0482
  844MOL0     C13811  10.009   4.428   8.491 -0.4488  0.0857 -0.6234
  844MOL0     C13812   9.873   4.387   8.502 -0.3098  0.8579  0.5799
  844MOL0     O13813   9.763   4.476   8.499  0.2803  0.0247 -0.3491
  844MOL0     C13814   9.789   4.617   8.539 -0.4954 -0.6071  0.5213
  844MOL0     C13815   9.663   4.706   8.534  0.5549  0.3584 -0.1814
  844MOL0     C13816   9.636   4.758   8.385 -0.4174  0.2651 -0.7625
  844MOL0     C13817   9.545   4.873   8.380 -0.8578 -0.1631  0.5467
  844MOL0     C13818   9.402   4.846   8.415  0.1410  0.5685 -0.6620
  844MOL0     C13819   9.335   4.778   8.298 -0.2124  0.5653 -0.6727
  844MOL0     C13820   9.189   4.755   8.329 -0.5347  0.0323 -0.2912
  844MOL0     C13821   9.163   4.635   8.417  0.1200  0.0185 -0.8178
  844MOL0     N13822   9.024   4.591   8.435  0.0692 -0.5765  0.1885
  844MOL0     C13823   8.939   4.540   8.340 -0.1744 -0.1901 -0.3837
  844MOL0     C13824   8.816   4.543   8.394 -0.2088 -0.4319 -0.6598
  844MOL0     C13825   8.697   4.511   8.314 -0.1512 -0.5070 -0.6583
  844MOL0     C13826   8.568   4.577   8.380  0.3169 -0.0219  0.6421
  844MOL0     C13827   8.451   4.620   8.284 -0.4905 -0.1272 -0.3474
  844MOL0     C13828   8.415   4.505   8.199 -0.1296  0.1055 -0.6795
  844MOL0     O13829   8.294   4.539   8.138 -0.2828  0.4542 -0.5537
  844MOL0     C13830   8.178   4.467   8.167  1.0358  0.5914  0.0449
  844MOL0     C13831   8.084   4.458   8.071  0.2770  0.7603 -0.8133
  844MOL0     C13832   7.960   4.401   8.088  0.4505 -0.5246 -0.8082
  844MOL0     C13833   7.861   4.416   7.979 -0.3406 -0.8498 -0.0897
  844MOL0     C13834   7.931   4.349   8.214 -0.3058  0.6839 -0.5884
  844MOL0     C13835   7.793   4.305   8.257 -0.5285  0.0525  0.3637
  844MOL0     O13836   7.716   4.222   8.174 -0.2122 -0.3052  0.2049
  844MOL0     C13837   7.596   4.173   8.220  0.4936 -0.3157  0.2353
  844MOL0     C13838   7.573   4.126   8.356  0.0782 -0.2586  0.2538
  844MOL0     C13839   7.447   4.071   8.381  0.3603 -0.0522 -0.8916
  844MOL0     C13840   7.344   4.053   8.289  0.4329  0.0588 -0.1118
  844MOL0     O13841   7.214   4.000   8.313 -0.2891 -0.2023 -0.0026
  844MOL0     C13842   7.162   4.000   8.448 -0.3364  0.1256 -0.6299
  844MOL0     C13843   7.194   3.870   8.521  0.0656 -0.7481  0.1219
  844MOL0     C13844   7.167   3.871   8.677  0.0038  0.5367  0.8671
  844MOL0     C13845   7.014   3.898   8.701 -0.4881 -0.1395 -0.7046
  844MOL0     C13846   6.972   3.852   8.836  0.0345  1.3401  0.8402
  844MOL0     C13847   6.841   3.893   8.892 -0.5467 -0.1016 -0.8092
  844MOL0     C13848   6.729   3.821   8.825 -1.1466 -0.9945 -0.1041
  844MOL0     C13849   6.602   3.852   8.891 -0.0662  0.4662  1.1144
  844MOL0    Cl13850   6.448   3.828   8.800  0.1061 -0.0980 -0.0582
  844MOL0     C13851   7.378   4.089   8.157 -0.0086  0.4652 -0.2898
  844MOL0     C13852   7.500   4.144   8.125 -0.3401 -1.3004 -0.6403
  844MOL0     O13853   7.762   4.342   8.373 -0.2292  0.3121  0.0699
  844MOL0     C13854   8.030   4.349   8.321 -0.1743 -0.0069  0.0262
  844MOL0     C13855   8.147   4.415   8.295 -0.1596 -0.8439  0.1304
  844MOL0     N13856   8.824   4.580   8.530 -0.0475  1.1317  0.2389
  844MOL0     N13857   8.941   4.635   8.539  0.0138 -0.5291  0.1079
  844MOL0     C13858   9.848   4.248   8.511 -0.2531  0.0500 -0.0876
  844MOL0     C13859   9.953   4.155   8.503  0.0830  0.7970 -0.6046
  844MOL0     C13860  10.310   3.935   8.346  0.3696 -0.3180 -0.7590
  844MOL0     C13861  10.271   3.833   8.430  0.2762  0.9980  0.0811
  844MOL0     C13862  10.328   3.705   8.419  1.5032  0.0289 -0.2622
  844MOL0     C13863  10.410   3.679   8.305  0.2417 -1.1016 -0.1570
  844MOL0     O13864  10.437   3.551   8.275 -0.7084 -0.4862 -0.3136
  844MOL0     C13865  10.540   3.505   8.184  0.0931 -0.7573 -0.2516
  844MOL0     C13866  10.549   3.357   8.185  1.0574  0.4487  0.1566
  844MOL0     C13867  10.428   3.284   8.118 -0.1366 -0.2661 -0.1766
  844MOL0     C13868  10.475   3.127   8.132  0.3635  0.0300 -0.0642
  844MOL0     C13869  10.373   3.035   8.080 -0.2307 -0.0827 -0.0258
  844MOL0     C13870  10.286   2.977   8.015  0.3560  0.2820  0.3250
  844MOL0     C13871  10.449   3.782   8.224  0.3725  1.4058 -0.2849
  844MOL0     C13872  10.412   3.908   8.250  0.7855  0.1043 -0.3158
  844MOL0     H13873  10.211   4.365   8.465  0.0592 -0.2942 -1.9422
  844MOL0     H13874  10.048   4.529   8.491 -1.3003  0.4479 -2.0054
  844MOL0     H13875   9.827   4.616   8.642  0.5783  1.2832  0.1901
  844MOL0     H13876   9.868   4.662   8.478 -0.2592  1.5849  2.3176
  844MOL0     H13877   9.579   4.649   8.574  2.3355 -2.0250  0.3490
  844MOL0     H13878   9.667   4.794   8.600  0.1958 -0.2354  0.6443
  844MOL0     H13879   9.734   4.791   8.348  1.9061 -3.2343  1.5935
  844MOL0     H13880   9.608   4.672   8.324  0.2631  0.3586 -1.2303
  844MOL0     H13881   9.578   4.946   8.454  1.6228  1.0178 -1.5472
  844MOL0     H13882   9.549   4.923   8.282 -1.1654 -1.8465 -0.3627
  844MOL0     H13883   9.388   4.776   8.498 -3.0087  0.4426 -1.1879
  844MOL0     H13884   9.344   4.935   8.440 -3.9996 -1.9959 -0.1111
  844MOL0     H13885   9.346   4.838   8.207  0.2173  0.4857 -0.6757
  844MOL0     H13886   9.379   4.681   8.277  0.0208 -0.3760  3.3749
  844MOL0     H13887   9.148   4.852   8.359  0.6825  1.4694 -2.9004
  844MOL0     H13888   9.139   4.735   8.233  0.6714 -1.5532 -0.6204
  844MOL0     H13889   9.224   4.641   8.507  2.3281 -1.5780 -2.1046
  844MOL0     H13890   9.209   4.544   8.378  1.1273 -0.5640  1.5831
  844MOL0     H13891   8.963   4.505   8.240 -2.0112 -3.4753  0.1769
  844MOL0     H13892   8.702   4.553   8.213 -3.4324 -0.5571 -0.9229
  844MOL0     H13893   8.680   4.403   8.310 -1.0621 -0.4770  1.3113
  844MOL0     H13894   8.581   4.666   8.442  0.3426  0.6553 -0.3160
  844MOL0     H13895   8.528   4.498   8.445  0.8896  0.0067  1.0330
  844MOL0     H13896   8.470   4.715   8.232 -1.3833 -0.3377 -1.0930
  844MOL0     H13897   8.372   4.633   8.359  1.4898 -1.8061  2.2132
  844MOL0     H13898   8.398   4.421   8.267 -0.4501  1.5085  1.0641
  844MOL0     H13899   8.490   4.480   8.124 -0.2372 -2.6513  0.0235
  844MOL0     H13900   8.106   4.492   7.970 -2.2845 -2.4539 -2.6372
  844MOL0     H13901   7.765   4.442   8.024 -0.0652 -0.1791  0.1274
  844MOL0     H13902   7.889   4.498   7.912 -0.7082 -1.0800 -0.5319
  844MOL0     H13903   7.844   4.326   7.918 -1.5739 -1.3375  0.9320
  844MOL0     H13904   7.656   4.122   8.426  1.6685 -0.7177 -1.5612
  844MOL0     H13905   7.439   4.050   8.487 -0.0868 -4.2701 -1.5814
  844MOL0     H13906   7.203   4.082   8.508 -1.1136 -0.0925  0.2166
  844MOL0     H13907   7.055   4.012   8.434  0.1594  3.3368 -2.5603
  844MOL0     H13908   7.144   3.789   8.466 -0.2628 -0.0312 -0.6522
  844MOL0     H13909   7.302   3.857   8.513  0.0393  0.1300 -2.5860
  844MOL0     H13910   7.223   3.946   8.733  1.4411  0.1520 -0.0002
  844MOL0     H13911   7.201   3.774   8.716 -4.4208 -2.5516 -2.0425
  844MOL0     H13912   6.990   4.005   8.697  0.0168  0.0643  1.0994
  844MOL0     H13913   6.945   3.853   8.629  0.1626  0.8926 -2.0124
  844MOL0     H13914   7.051   3.892   8.900  0.6494  0.6349  0.5290
  844MOL0     H13915   6.968   3.743   8.836 -0.8952  1.3380 -0.8826
  844MOL0     H13916   6.850   3.855   8.994  1.1439  2.2700  0.0213
  844MOL0     H13917   6.834   4.002   8.895  3.5713  0.4621 -3.3181
  844MOL0     H13918   6.745   3.714   8.837  1.8067 -0.6768 -0.4396
  844MOL0     H13919   6.727   3.850   8.720  1.4772 -2.6515 -0.7099
  844MOL0     H13920   6.606   3.959   8.910  0.5097  0.2910  2.0678
  844MOL0     H13921   6.594   3.794   8.984 -1.5083 -0.2192  0.6024
  844MOL0     H13922   7.305   4.083   8.077 -1.4768 -0.1647  1.0510
  844MOL0     H13923   7.519   4.163   8.020 -1.1345 -2.2583 -0.9649
  844MOL0     H13924   8.008   4.298   8.415  0.4638  1.2395  0.8928
  844MOL0     H13925   8.209   4.439   8.380  0.0359 -1.3019  0.1167
  844MOL0     H13926   9.743   4.225   8.526 -0.4321  2.3189  3.4822
  844MOL0     H13927   9.930   4.049   8.507  0.9514  0.5995 -0.6743
  844MOL0     H13928  10.183   3.852   8.491 -1.3912 -1.0794 -1.5118
  844MOL0     H13929  10.305   3.623   8.487  0.2071  0.1957 -0.4803
  844MOL0     H13930  10.522   3.545   8.084 -2.7584  4.0746  1.8091
  844MOL0     H13931  10.634   3.556   8.208 -1.0668  1.2451  0.3044
  844MOL0     H13932  10.564   3.323   8.288  3.3234  1.4965  0.2321
  844MOL0     H13933  10.637   3.325   8.129  0.5253 -0.1110 -0.3704
  844MOL0     H13934  10.422   3.310   8.012 -1.7479 -2.5612 -0.7170
  844MOL0     H13935  10.338   3.294   8.179  1.0561 -0.6914  1.7530
  844MOL0     H13936  10.492   3.096   8.236 -0.1861 -1.2341 -0.3339
  844MOL0     H13937  10.567   3.112   8.074  0.4969  1.2009 -0.1763
  844MOL0     H13938  10.199   2.938   7.966 -0.3544  1.2052  0.7986
  844MOL0     H13939  10.514   3.758   8.141  0.2923  0.2768 -0.0386
  844MOL0     H13940  10.454   3.984   8.183 -1.6981  0.5224 -1.5019
  845MOL0     O13941   6.603   3.052   7.983  0.0982 -0.4678  0.0192
  845MOL0     C13942   6.682   3.146   7.975 -0.3363  0.7312  0.0336
  845MOL0     O13943   6.649   3.273   7.963 -0.7014  0.8233  0.4496
  845MOL0     C13944   6.529   3.321   7.910  0.1529  0.2663 -0.0633
  845MOL0     C13945   6.427   3.249   7.848  0.1881 -0.1325  0.2323
  845MOL0     C13946   6.312   3.305   7.800  0.3268  0.0719 -0.0265
  845MOL0     C13947   6.283   3.441   7.825  0.5862 -0.5928  0.4749
  845MOL0     O13948   6.174   3.513   7.805 -0.2035 -0.3908  0.5698
  845MOL0     C13949   6.056   3.464   7.743  0.3416  0.0476 -1.0284
  845MOL0     C13950   5.967   3.375   7.835 -0.1092 -0.6130  0.1049
  845MOL0     C13951   5.856   3.313   7.752  0.4284 -0.6876  0.2333
  845MOL0     C13952   5.737   3.252   7.840 -0.3362 -0.5338  0.4324
  845MOL0     C13953   5.608   3.218   7.754  0.6531 -1.1317 -0.2548
  845MOL0     C13954   5.619   3.100   7.659 -0.1908 -0.6025  0.0020
  845MOL0     C13955   5.478   3.077   7.596 -0.1547  0.0235 -0.2092
  845MOL0     C13956   5.474   2.981   7.480  0.5464  0.0972 -0.3842
  845MOL0     N13957   5.340   2.925   7.475  0.1787  0.2557 -0.5313
  845MOL0     C13958   5.218   2.992   7.458  0.4677 -0.2942 -0.2093
  845MOL0     C13959   5.122   2.907   7.496 -0.8149  0.2199 -0.5744
  845MOL0     C13960   4.972   2.920   7.487 -0.3164 -0.1982  0.8366
  845MOL0     C13961   4.929   2.969   7.348  0.6984  0.1362 -0.1335
  845MOL0     C13962   4.783   2.988   7.360 -0.8867  0.5772 -0.0981
  845MOL0     C13963   4.711   3.008   7.226  0.1272 -0.6059 -0.3943
  845MOL0     O13964   4.579   2.962   7.230  0.1817 -0.1817 -0.2726
  845MOL0     C13965   4.481   3.032   7.287  0.3590 -0.2695  0.2913
  845MOL0     C13966   4.369   2.958   7.314  0.4246  0.3915 -0.4596
  845MOL0     C13967   4.246   3.010   7.357  0.4862 -0.3364 -0.1152
  845MOL0     C13968   4.120   2.922   7.377 -0.3485  0.0954  1.8843
  845MOL0     C13969   4.234   3.152   7.377 -0.5076  0.0093 -1.0164
  845MOL0     C13970   4.117   3.217   7.436  0.6889  0.0928  0.0373
  845MOL0     O13971   4.051   3.145   7.531 -0.1181  0.3536 -0.0028
  845MOL0     C13972   3.932   3.163   7.586 -0.7919 -0.3070  0.2115
  845MOL0     C13973   3.815   3.206   7.513  0.0083  0.8857 -0.4705
  845MOL0     C13974   3.692   3.206   7.585 -0.0736 -0.1550  0.3339
  845MOL0     C13975   3.673   3.170   7.718  0.3478 -0.0879  0.1125
  845MOL0     O13976   3.562   3.213   7.779 -0.1292  0.0515  0.0178
  845MOL0     C13977   3.523   3.147   7.899  0.0203  0.1570  0.8838
  845MOL0     C13978   3.374   3.188   7.912 -0.5991 -0.3236  0.1363
  845MOL0     C13979   3.310   3.094   8.019  0.4879  0.0779  0.8021
  845MOL0     C13980   3.176   3.124   8.067  0.4324  0.0333  0.4486
  845MOL0     C13981   3.170   3.259   8.144 -0.9585  0.2631  0.2220
  845MOL0     C13982   3.042   3.271   8.213  0.3020  0.0307  0.0513
  845MOL0     C13983   2.938   3.333   8.122  0.1208  1.1553 -0.3926
  845MOL0     C13984   2.820   3.377   8.209 -0.0946 -0.7543  0.6070
  845MOL0    Cl13985   2.662   3.383   8.114  0.0255  0.1973 -0.1151
  845MOL0     C13986   3.786   3.115   7.782  0.6544  0.6560 -0.0806
  845MOL0     C13987   3.905   3.111   7.714 -0.8524 -0.9385 -0.1866
  845MOL0     O13988   4.087   3.335   7.404 -0.7307  0.4657  0.4098
  845MOL0     C13989   4.352   3.226   7.353 -0.8175 -0.4437 -0.4159
  845MOL0     C13990   4.475   3.166   7.310  0.1710 -0.1888  0.1251
  845MOL0     N13991   5.177   2.796   7.550  0.2259 -0.0974 -0.9070
  845MOL0     N13992   5.306   2.806   7.529  0.2150  0.0439  0.3371
  845MOL0     C13993   6.389   3.518   7.864 -0.1551  0.0245 -0.1953
  845MOL0     C13994   6.512   3.459   7.917  0.6472  0.3946  0.0115
  845MOL0     C13995   6.820   3.125   7.992 -0.0566  0.0572  0.0967
  845MOL0     C13996   6.907   3.228   8.043  1.9056  0.2955  0.3343
  845MOL0     C13997   7.042   3.198   8.064  0.7938 -0.3006 -0.1833
  845MOL0     C13998   7.091   3.074   8.035 -0.1167 -0.2080  0.7718
  845MOL0     O13999   7.222   3.038   8.052  0.1002 -0.6620  0.1287
  845MOL0     C14000   7.304   3.123   8.131  0.0858 -0.6975 -0.4617
  845MOL0     C14001   7.441   3.060   8.149 -0.7161  1.1760  0.6137
  845MOL0     C14002   7.525   3.142   8.247  0.6267  0.3759 -0.2819
  845MOL0     C14003   7.675   3.156   8.219 -0.2279  0.5858 -0.5496
  845MOL0     C14004   7.720   3.254   8.116  0.0856  1.1467  0.5534
  845MOL0     C14005   7.745   3.335   8.028  0.1545  0.5814  0.1656
  845MOL0     C14006   7.010   2.975   7.982  0.4941  0.1211  0.6602
  845MOL0     C14007   6.878   2.998   7.958  0.3094  0.9196  0.4061
  845MOL0     H14008   6.427   3.142   7.830 -1.1119  0.4167 -3.9963
  845MOL0     H14009   6.234   3.236   7.772 -0.2112  0.6192  0.0975
  845MOL0     H14010   6.003   3.553   7.709 -0.8564  1.6086  4.1310
  845MOL0     H14011   6.093   3.406   7.657 -0.2112 -0.8455 -0.6789
  845MOL0     H14012   6.035   3.316   7.897  2.0745  0.9142 -0.7087
  845MOL0     H14013   5.917   3.449   7.898  0.8422  0.5288 -0.4435
  845MOL0     H14014   5.816   3.375   7.671 -2.1161 -2.7779 -0.2554
  845MOL0     H14015   5.903   3.231   7.698 -0.0534 -2.0793  1.8217
  845MOL0     H14016   5.778   3.169   7.898  0.4236 -1.0558 -0.8200
  845MOL0     H14017   5.711   3.332   7.911  1.8686 -0.5914  1.3733
  845MOL0     H14018   5.524   3.202   7.822 -0.3218  3.0808 -0.1955
  845MOL0     H14019   5.574   3.305   7.698  2.1869 -1.7944 -2.3247
  845MOL0     H14020   5.702   3.112   7.588  0.6732  2.1218  1.3504
  845MOL0     H14021   5.642   3.014   7.723  2.0758 -0.3634 -0.3790
  845MOL0     H14022   5.412   3.061   7.681  0.2991  0.6041  0.2677
  845MOL0     H14023   5.431   3.172   7.567 -4.6489 -0.8863  3.0843
  845MOL0     H14024   5.550   2.906   7.502 -1.7641 -1.7942  1.7873
  845MOL0     H14025   5.498   3.022   7.381 -2.1511 -5.8226 -4.0437
  845MOL0     H14026   5.206   3.083   7.400  0.0478  0.9354  1.7036
  845MOL0     H14027   4.919   2.827   7.509  2.4796 -1.9296  0.7646
  845MOL0     H14028   4.931   2.990   7.560 -0.9301  0.1984  0.1285
  845MOL0     H14029   4.934   2.887   7.276 -2.5785 -1.0657  0.8503
  845MOL0     H14030   4.993   3.056   7.325  1.4459 -0.2829  0.3289
  845MOL0     H14031   4.751   3.060   7.435 -1.2001 -0.3138  0.6422
  845MOL0     H14032   4.739   2.896   7.399 -1.8314  1.1492  0.2060
  845MOL0     H14033   4.768   2.956   7.148  3.2387  1.5097  0.2886
  845MOL0     H14034   4.716   3.112   7.192 -4.4454  0.3352  1.1354
  845MOL0     H14035   4.370   2.853   7.286 -0.2743  0.0280  0.7991
  845MOL0     H14036   4.107   2.896   7.482  0.1606  0.9578  2.1708
  845MOL0     H14037   4.031   2.968   7.333 -0.2747  0.5508  2.2013
  845MOL0     H14038   4.140   2.828   7.324  0.0181  1.0415  0.2534
  845MOL0     H14039   3.815   3.231   7.408 -0.5168 -0.0611 -0.7029
  845MOL0     H14040   3.612   3.241   7.521  1.3151  1.7958 -0.4273
  845MOL0     H14041   3.532   3.041   7.873  1.0211 -0.1898  2.4925
  845MOL0     H14042   3.579   3.180   7.987  0.1970 -2.1208  1.6932
  845MOL0     H14043   3.366   3.290   7.951  1.1698 -0.3476  0.6217
  845MOL0     H14044   3.320   3.183   7.817 -1.9421  0.3241  0.8300
  845MOL0     H14045   3.381   3.105   8.102  2.7079 -1.1461 -0.8274
  845MOL0     H14046   3.302   2.993   7.980 -0.7644  1.1618 -2.0443
  845MOL0     H14047   3.105   3.136   7.984  0.7490  0.6411  0.2648
  845MOL0     H14048   3.130   3.043   8.125 -4.7738  1.0312 -1.6613
  845MOL0     H14049   3.184   3.339   8.071  0.6612  0.8955  1.1884
  845MOL0     H14050   3.256   3.270   8.211 -0.2731 -0.2035 -0.5649
  845MOL0     H14051   3.018   3.172   8.254  0.2356 -0.3411 -0.8642
  845MOL0     H14052   3.066   3.339   8.295  2.0687  1.6272 -1.6651
  845MOL0     H14053   2.908   3.257   8.049 -0.0835  1.1073 -0.2595
  845MOL0     H14054   2.981   3.419   8.070  4.6842 -0.6652 -0.0852
  845MOL0     H14055   2.826   3.474   8.260  2.8704 -0.4638 -0.1428
  845MOL0     H14056   2.809   3.301   8.287 -0.7911  0.9063  2.2165
  845MOL0     H14057   3.773   3.075   7.882 -0.8497 -2.2656 -1.3180
  845MOL0     H14058   4.001   3.087   7.759 -0.2138  1.9685  0.1696
  845MOL0     H14059   4.342   3.333   7.363  0.7923 -0.3149  0.0066
  845MOL0     H14060   4.568   3.220   7.294 -0.3946  0.1155 -2.6298
  845MOL0     H14061   6.396   3.626   7.876  1.2984 -0.2040  1.4862
  845MOL0     H14062   6.593   3.518   7.959  1.9462 -1.4927  0.2638
  845MOL0     H14063   6.863   3.325   8.067 -1.2483  0.4050 -4.5159
  845MOL0     H14064   7.094   3.281   8.111 -1.0202  1.3925 -1.0143
  845MOL0     H14065   7.311   3.224   8.090 -1.9125  1.1164  3.1479
  845MOL0     H14066   7.261   3.133   8.231  0.7625  0.9624 -0.3057
  845MOL0     H14067   7.488   3.047   8.051  1.0313 -1.7005  1.6871
  845MOL0     H14068   7.426   2.959   8.189  1.5256  0.4366 -0.2844
  845MOL0     H14069   7.535   3.079   8.336  2.3168  1.0936  0.0847
  845MOL0     H14070   7.477   3.237   8.268 -1.7586 -0.7948 -0.1577
  845MOL0     H14071   7.706   3.061   8.173 -3.0055  0.1178 -1.6420
  845MOL0     H14072   7.724   3.159   8.317 -1.0691 -1.0157 -0.0401
  845MOL0     H14073   7.760   3.413   7.956  1.7461  0.3949  0.2494
  845MOL0     H14074   7.060   2.884   7.949 -1.0044  1.0661 -5.1764
  845MOL0     H14075   6.827   2.918   7.907 -1.3303  2.0271  0.2183
  846MOL0     O14076   7.222   3.743   0.794 -0.0484 -0.1894 -0.5100
  846MOL0     C14077   7.305   3.793   0.724 -0.0901  0.1114  0.1780
  846MOL0     O14078   7.283   3.845   0.599 -0.1286  0.3183 -0.0638
  846MOL0     C14079   7.160   3.885   0.552 -0.1201 -0.0923 -0.9946
  846MOL0     C14080   7.151   3.878   0.408  0.3495 -0.4530 -1.6921
  846MOL0     C14081   7.028   3.912   0.347 -0.0579 -0.2648 -0.6819
  846MOL0     C14082   6.919   3.948   0.433  0.1832  0.1488 -0.0400
  846MOL0     O14083   6.801   3.986   0.372 -0.5460  0.2166  0.2444
  846MOL0     C14084   6.688   4.035   0.451 -0.3176  0.6720 -0.3924
  846MOL0     C14085   6.567   4.060   0.365  0.8095  0.6004  0.2970
  846MOL0     C14086   6.438   4.044   0.435  0.6807 -0.3210 -1.1181
  846MOL0     C14087   6.315   4.085   0.358  0.4434  0.3783 -0.2298
  846MOL0     C14088   6.184   4.049   0.431 -0.6755  0.0566 -0.3121
  846MOL0     C14089   6.163   4.159   0.528  0.1436  0.4877 -0.4183
  846MOL0     C14090   6.017   4.140   0.585  0.8446  0.1340  0.1696
  846MOL0     C14091   6.009   4.057   0.720  0.6473  0.5097 -0.3606
  846MOL0     N14092   5.871   4.046   0.759  0.6691  0.3013  0.2864
  846MOL0     C14093   5.784   3.963   0.698  0.6934  0.0921  0.6824
  846MOL0     C14094   5.672   3.973   0.776  0.1741  0.7801  0.7777
  846MOL0     C14095   5.545   3.889   0.758  0.7282 -0.4623 -0.5391
  846MOL0     C14096   5.428   3.974   0.792  0.4879 -0.5261  0.0363
  846MOL0     C14097   5.306   3.890   0.753  0.3224  0.0082  0.7664
  846MOL0     C14098   5.172   3.967   0.765 -0.2103 -0.9651 -0.0809
  846MOL0     O14099   5.063   3.906   0.694 -0.0167 -0.4071 -0.2812
  846MOL0     C14100   4.943   3.928   0.745  0.4403  0.0433 -0.6635
  846MOL0     C14101   4.840   3.863   0.674 -0.3541  0.1538 -0.3806
  846MOL0     C14102   4.704   3.878   0.702  0.1195  0.3163  0.3393
  846MOL0     C14103   4.609   3.804   0.619 -0.2940  0.2744  0.6665
  846MOL0     C14104   4.663   3.953   0.811  0.5270  0.0576 -0.6965
  846MOL0     C14105   4.521   3.982   0.843 -0.8392  0.4227  0.5785
  846MOL0     O14106   4.503   4.036   0.964 -0.0642  0.1696 -0.1777
  846MOL0     C14107   4.376   4.052   1.023 -0.0052 -0.2596  0.1355
  846MOL0     C14108   4.255   3.989   0.988  0.1772  0.3881 -0.2054
  846MOL0     C14109   4.138   4.012   1.062  0.2298 -0.0951  0.1541
  846MOL0     C14110   4.136   4.091   1.172  0.8145  0.3792 -0.9821
  846MOL0     O14111   4.020   4.117   1.236 -0.6408 -0.0221  0.4666
  846MOL0     C14112   3.971   3.994   1.306 -0.2686  0.3643  0.5928
  846MOL0     C14113   3.834   4.022   1.360 -0.5413  0.7442 -0.8750
  846MOL0     C14114   3.801   3.931   1.488 -0.7421  0.0338  0.4907
  846MOL0     C14115   3.746   3.800   1.428  0.3886 -0.1128 -0.6412
  846MOL0     C14116   3.712   3.688   1.537  0.3681 -0.5484 -0.2392
  846MOL0     C14117   3.683   3.550   1.474  0.1028 -0.2137 -0.1052
  846MOL0     C14118   3.567   3.575   1.377  0.4034 -0.0221 -0.1206
  846MOL0     C14119   3.485   3.454   1.343  0.1281 -0.3909 -0.0396
  846MOL0    Cl14120   3.436   3.362   1.500 -0.4015 -0.0552  0.3243
  846MOL0     C14121   4.254   4.161   1.213  0.7627  1.2512 -0.0398
  846MOL0     C14122   4.367   4.130   1.143  0.8589  0.2851  0.3334
  846MOL0     O14123   4.445   3.995   0.748 -0.2566 -0.2136 -0.2642
  846MOL0     C14124   4.766   4.026   0.885 -0.4339  0.3913  0.3035
  846MOL0     C14125   4.901   4.007   0.859  0.6614  0.2968  0.0144
  846MOL0     N14126   5.694   4.047   0.882 -0.6686 -0.9354 -0.0542
  846MOL0     N14127   5.813   4.099   0.875  0.5249 -0.1692 -0.4318
  846MOL0     C14128   6.938   3.958   0.573  0.5737 -0.9433  0.2098
  846MOL0     C14129   7.056   3.925   0.633  0.1770 -0.2493 -1.0228
  846MOL0     C14130   7.441   3.796   0.776  0.0325  0.0158 -0.1771
  846MOL0     C14131   7.476   3.738   0.904 -0.0525 -0.5060  1.0288
  846MOL0     C14132   7.599   3.759   0.956  0.4916  0.4114  0.5199
  846MOL0     C14133   7.699   3.841   0.896  0.1089  1.4015 -0.4937
  846MOL0     O14134   7.820   3.850   0.943 -0.6085  0.2395 -0.2884
  846MOL0     C14135   7.856   3.791   1.064  0.4052  0.8111  0.1734
  846MOL0     C14136   8.007   3.803   1.075  0.4694  1.0386  0.0552
  846MOL0     C14137   8.074   3.709   0.983 -0.7332  0.5344  0.0706
  846MOL0     C14138   8.223   3.677   1.005 -0.0499  0.5953 -0.6053
  846MOL0     C14139   8.262   3.573   0.915 -0.5997  0.7644  0.4343
  846MOL0     C14140   8.292   3.483   0.833 -0.2914 -0.0366 -0.4350
  846MOL0     C14141   7.672   3.896   0.769 -0.1267  0.7366 -0.1216
  846MOL0     C14142   7.540   3.874   0.714 -0.2409 -0.7213 -0.4178
  846MOL0     H14143   7.233   3.842   0.346  0.3392 -1.3599 -1.2024
  846MOL0     H14144   7.004   3.893   0.243 -0.3251 -2.8513 -0.2021
  846MOL0     H14145   6.673   3.958   0.527  3.7803  0.1097  0.0890
  846MOL0     H14146   6.713   4.122   0.513 -0.4419  0.7077 -0.3930
  846MOL0     H14147   6.564   4.166   0.337 -0.8785  0.2408 -1.0550
  846MOL0     H14148   6.572   4.001   0.274 -0.2075  1.5385 -0.4015
  846MOL0     H14149   6.432   3.941   0.472 -0.0252  0.3037  0.5932
  846MOL0     H14150   6.448   4.106   0.525 -0.1586  2.8064 -3.0300
  846MOL0     H14151   6.309   4.191   0.332  1.0364  1.0449  2.0743
  846MOL0     H14152   6.324   4.020   0.270  1.8263 -1.0210  0.8847
  846MOL0     H14153   6.112   4.040   0.349 -0.4850 -0.5059 -0.4231
  846MOL0     H14154   6.187   3.955   0.488  0.8717 -0.2359 -0.8332
  846MOL0     H14155   6.238   4.153   0.608 -0.9179  3.9195  0.9911
  846MOL0     H14156   6.171   4.260   0.486  0.6046  0.3287 -0.7307
  846MOL0     H14157   5.980   4.240   0.608  0.1132 -0.6255  2.5888
  846MOL0     H14158   5.955   4.103   0.502  1.6890 -2.7775  0.7044
  846MOL0     H14159   6.065   4.098   0.805  2.3401 -0.5295 -0.9045
  846MOL0     H14160   6.051   3.956   0.713  1.7545  0.4601  4.0946
  846MOL0     H14161   5.811   3.903   0.611  1.6468 -0.5147  1.3726
  846MOL0     H14162   5.545   3.843   0.658  2.0598 -3.4275  0.7311
  846MOL0     H14163   5.547   3.798   0.818  0.4990 -1.3882 -1.8931
  846MOL0     H14164   5.429   4.069   0.739  2.3033 -0.7723 -0.4275
  846MOL0     H14165   5.418   4.000   0.898 -3.1643 -2.6524  0.3693
  846MOL0     H14166   5.302   3.801   0.816 -1.7313 -0.9469 -0.6103
  846MOL0     H14167   5.301   3.876   0.644  0.3910  0.3050  0.7240
  846MOL0     H14168   5.191   4.071   0.739  0.0474 -0.5556  1.6055
  846MOL0     H14169   5.153   3.960   0.873 -0.2198 -1.0576 -0.0882
  846MOL0     H14170   4.881   3.797   0.599  2.2118 -1.9492  2.6173
  846MOL0     H14171   4.526   3.767   0.679 -0.2697  0.8224  1.0470
  846MOL0     H14172   4.581   3.881   0.546 -1.5330 -1.2677 -0.5256
  846MOL0     H14173   4.650   3.718   0.566 -0.3296  0.5743  0.1471
  846MOL0     H14174   4.260   3.917   0.907 -1.2704  1.9567 -1.7850
  846MOL0     H14175   4.053   3.951   1.030  0.0690  1.9918 -4.1361
  846MOL0     H14176   3.956   3.909   1.238  0.1180 -1.1325  2.2899
  846MOL0     H14177   4.038   3.959   1.385 -1.9712 -1.2204  1.4247
  846MOL0     H14178   3.829   4.125   1.395  0.0651  0.6724 -0.5743
  846MOL0     H14179   3.752   4.017   1.288 -2.1515  1.7322  0.8021
  846MOL0     H14180   3.734   3.975   1.562 -0.0268 -0.7041  1.6082
  846MOL0     H14181   3.898   3.917   1.536 -1.3053 -1.6807  1.1927
  846MOL0     H14182   3.650   3.828   1.383 -0.4102 -2.0506 -0.2796
  846MOL0     H14183   3.817   3.769   1.351  0.4723  0.0451 -0.6276
  846MOL0     H14184   3.627   3.712   1.602 -0.7405  0.6665 -2.0068
  846MOL0     H14185   3.805   3.691   1.594  1.8346  0.4439 -2.5464
  846MOL0     H14186   3.765   3.516   1.412 -0.7370  0.2047 -1.5051
  846MOL0     H14187   3.670   3.477   1.554  2.3800  0.7398  1.2362
  846MOL0     H14188   3.612   3.620   1.288  0.7151  0.2782  0.1885
  846MOL0     H14189   3.502   3.650   1.424  2.1448  2.2025 -1.1014
  846MOL0     H14190   3.554   3.392   1.285 -1.3367 -1.2364 -0.9287
  846MOL0     H14191   3.393   3.488   1.295  0.5836  1.3356  0.2395
  846MOL0     H14192   4.241   4.228   1.297 -0.8968 -0.6262  1.3123
  846MOL0     H14193   4.456   4.181   1.179  1.5369  1.1180 -2.3265
  846MOL0     H14194   4.739   4.104   0.955 -1.2874  2.6838 -2.3690
  846MOL0     H14195   4.969   4.077   0.906  0.6241  0.1000  0.3634
  846MOL0     H14196   6.858   3.992   0.638  1.1201  0.4215  0.1949
  846MOL0     H14197   7.065   3.925   0.742  2.3343 -0.3842 -1.1475
  846MOL0     H14198   7.412   3.672   0.961 -0.1645 -1.3493 -0.0292
  846MOL0     H14199   7.601   3.727   1.059  1.6128  5.1190  2.2472
  846MOL0     H14200   7.812   3.839   1.152 -0.2138  1.8945 -0.6983
  846MOL0     H14201   7.814   3.690   1.070 -2.6855  1.6367 -3.3954
  846MOL0     H14202   8.033   3.778   1.178 -0.5688 -1.0604 -0.1432
  846MOL0     H14203   8.040   3.902   1.043 -1.1001  1.2654 -0.9567
  846MOL0     H14204   8.077   3.758   0.885  1.7049  0.6259  0.1305
  846MOL0     H14205   8.023   3.612   0.977 -0.1607  0.1357  1.3690
  846MOL0     H14206   8.244   3.639   1.105 -2.0213 -2.6729 -1.2760
  846MOL0     H14207   8.284   3.766   0.986 -0.1008  0.2972 -2.4193
  846MOL0     H14208   8.303   3.396   0.772  0.8921  1.9576 -3.2243
  846MOL0     H14209   7.739   3.947   0.700 -0.8983  2.1554  0.1364
  846MOL0     H14210   7.510   3.927   0.624  0.3155 -1.0563 -0.8054
  847MOL0     O14211   8.071  10.107   4.037 -0.4464  0.3979 -0.8431
  847MOL0     C14212   8.096   9.993   4.068 -0.6370 -0.2455 -0.2142
  847MOL0     O14213   8.028   9.905   4.143 -0.6170  0.5783 -0.6484
  847MOL0     C14214   7.908   9.941   4.210 -0.0715 -0.8226  0.1421
  847MOL0     C14215   7.791   9.982   4.138  0.3292 -0.8162 -1.1858
  847MOL0     C14216   7.674  10.021   4.213 -0.5684  0.3586  0.5897
  847MOL0     C14217   7.666  10.008   4.352 -0.5043  0.1664  0.8169
  847MOL0     O14218   7.557  10.016   4.428 -0.9335  0.8475  0.3781
  847MOL0     C14219   7.433  10.075   4.381  0.6748  0.6672  1.4417
  847MOL0     C14220   7.327  10.067   4.497  0.1770 -0.9440  0.8708
  847MOL0     C14221   7.179  10.091   4.449 -0.1520 -0.4787 -0.0954
  847MOL0     C14222   7.098  10.155   4.570  0.9177  0.2544 -0.8313
  847MOL0     C14223   7.085  10.062   4.690 -0.6191  0.7873 -0.6961
  847MOL0     C14224   6.973  10.118   4.782 -0.7322  0.7162 -0.2416
  847MOL0     C14225   6.948  10.024   4.898  0.4236  0.2379 -0.9737
  847MOL0     C14226   6.830  10.065   4.987 -0.4279  0.7280 -0.2354
  847MOL0     N14227   6.709  10.090   4.914 -0.6473 -0.2708 -0.2583
  847MOL0     C14228   6.637  10.003   4.835 -0.0273 -0.5530 -0.1108
  847MOL0     C14229   6.538  10.079   4.791  0.2876  0.4111  0.8093
  847MOL0     C14230   6.438  10.025   4.693 -0.2173 -0.0325 -0.0445
  847MOL0     C14231   6.503   9.975   4.554  0.5633  0.0141  0.1958
  847MOL0     C14232   6.402   9.880   4.472 -0.6739 -0.6803 -0.5579
  847MOL0     C14233   6.263   9.937   4.459  0.7142  0.1153  0.3466
  847MOL0     O14234   6.260  10.047   4.364  0.3399 -0.2195 -0.6369
  847MOL0     C14235   6.153  10.052   4.280 -0.3561 -0.6167  0.7923
  847MOL0     C14236   6.162  10.011   4.145 -0.6231  0.5305 -0.4980
  847MOL0     C14237   6.054  10.021   4.055 -0.2287  0.2993  0.4849
  847MOL0     C14238   6.071   9.978   3.909 -0.1375 -0.3919  0.3818
  847MOL0     C14239   5.929  10.074   4.108 -0.3137 -0.0493 -0.0619
  847MOL0     C14240   5.808  10.082   4.036  0.1445 -0.7772 -0.5694
  847MOL0     O14241   5.728  10.193   4.062  0.1049  0.3828 -0.0525
  847MOL0     C14242   5.604  10.198   4.007 -0.7089  0.3999  1.0605
  847MOL0     C14243   5.501  10.126   4.063  0.1228 -0.2337  0.2940
  847MOL0     C14244   5.364  10.150   4.026 -1.2560  0.8069 -0.2839
  847MOL0     C14245   5.332  10.240   3.931  0.3547 -0.5643  0.7730
  847MOL0     O14246   5.199  10.248   3.899 -0.1253  0.3951  0.0662
  847MOL0     C14247   5.141  10.388   3.900  0.0935  0.1461  0.1969
  847MOL0     C14248   4.999  10.386   3.939 -0.1782  0.4254  0.0416
  847MOL0     C14249   4.899  10.325   3.835  0.1395 -0.8873 -0.3768
  847MOL0     C14250   4.747  10.353   3.856  0.1107 -0.2794  0.2015
  847MOL0     C14251   4.664  10.253   3.762  2.0005  0.0647 -0.9818
  847MOL0     C14252   4.521  10.234   3.794  0.1479  0.6347 -0.5415
  847MOL0     C14253   4.506  10.210   3.949  0.0914  0.2365 -0.3124
  847MOL0     C14254   4.389  10.129   3.999  0.6718 -0.0474  0.2440
  847MOL0    Cl14255   4.225  10.175   3.930  0.1451  0.5509 -0.2196
  847MOL0     C14256   5.431  10.316   3.870 -0.5872 -0.6971  0.1695
  847MOL0     C14257   5.564  10.302   3.917 -1.2520 -0.6407 -0.2824
  847MOL0     O14258   5.787  10.001   3.953  0.1565  0.3676 -0.0267
  847MOL0     C14259   5.930  10.122   4.238 -0.2216  0.9676  0.2159
  847MOL0     C14260   6.042  10.109   4.329 -0.4228 -0.3276  0.7859
  847MOL0     N14261   6.541  10.203   4.848 -0.1569  0.1679  0.4611
  847MOL0     N14262   6.650  10.216   4.917  0.2180  0.1576 -0.9201
  847MOL0     C14263   7.782   9.942   4.422 -0.0855 -0.0986 -0.2609
  847MOL0     C14264   7.900   9.917   4.347  0.3938  0.5017  0.1985
  847MOL0     C14265   8.235   9.957   4.055  0.3362  0.5099  0.0032
  847MOL0     C14266   8.327  10.048   4.002 -0.3967 -0.0793 -1.1900
  847MOL0     C14267   8.455  10.021   3.987  0.0727  0.5126  0.3754
  847MOL0     C14268   8.506   9.896   4.002  0.4245  0.5647  0.7381
  847MOL0     O14269   8.639   9.868   3.977  0.7218  0.6472  0.3901
  847MOL0     C14270   8.703   9.741   3.992  0.0862  0.1194  1.2580
  847MOL0     C14271   8.848   9.756   4.009 -1.3171 -0.2982  0.2314
  847MOL0     C14272   8.919   9.829   3.888 -0.0395  0.6432  0.0245
  847MOL0     C14273   8.879   9.764   3.751 -0.6842 -0.2527 -0.2902
  847MOL0     C14274   8.979   9.808   3.650  0.0951  0.1792 -0.7467
  847MOL0     C14275   9.062   9.818   3.561  0.4127 -0.0839  0.0946
  847MOL0     C14276   8.412   9.794   4.051 -0.4291 -0.3669 -0.5332
  847MOL0     C14277   8.279   9.824   4.082 -1.0338  0.1344 -0.2208
  847MOL0     H14278   7.792   9.998   4.031 -0.5129 -1.5314 -1.3133
  847MOL0     H14279   7.599  10.062   4.146  1.5948  2.0473 -0.9566
  847MOL0     H14280   7.452  10.177   4.346  0.2770  0.2443 -0.0879
  847MOL0     H14281   7.389  10.020   4.297  1.4978  0.9367  0.8163
  847MOL0     H14282   7.327   9.967   4.542 -0.1512 -1.8478 -1.0360
  847MOL0     H14283   7.358  10.146   4.566 -0.8217  0.0842  0.1735
  847MOL0     H14284   7.180  10.153   4.359  2.3010 -0.5622 -0.1918
  847MOL0     H14285   7.139   9.991   4.428 -3.4083  0.1609  2.2828
  847MOL0     H14286   7.140  10.248   4.609  0.1858 -0.3893  1.7330
  847MOL0     H14287   6.997  10.184   4.539 -0.1368  0.7026  2.5356
  847MOL0     H14288   7.051   9.967   4.649  1.3842 -0.4794  0.4128
  847MOL0     H14289   7.181  10.042   4.738 -1.2918 -0.7704  0.0799
  847MOL0     H14290   7.012  10.219   4.801  0.2725  0.4575 -0.8439
  847MOL0     H14291   6.886  10.134   4.717 -0.1921 -0.4271 -1.2822
  847MOL0     H14292   6.946   9.920   4.864  0.0610 -0.5382  1.2547
  847MOL0     H14293   7.038  10.021   4.960 -0.6550 -2.4257  0.6397
  847MOL0     H14294   6.847  10.155   5.047  1.7819  0.3026 -0.1729
  847MOL0     H14295   6.809   9.987   5.060 -1.1290 -1.3725 -2.5348
  847MOL0     H14296   6.657   9.898   4.816 -1.7160 -0.9313  0.0282
  847MOL0     H14297   6.381   9.949   4.748 -2.1560  0.7103 -0.9396
  847MOL0     H14298   6.366  10.106   4.677 -0.2366  0.0976  0.6385
  847MOL0     H14299   6.591   9.911   4.570  0.7661  0.1364 -0.4096
  847MOL0     H14300   6.518  10.063   4.491 -0.4642  1.0432  1.3429
  847MOL0     H14301   6.389   9.785   4.526 -0.9011 -0.9406 -1.0688
  847MOL0     H14302   6.444   9.844   4.378 -2.1033 -0.1382 -1.4153
  847MOL0     H14303   6.223   9.963   4.557 -0.1614 -0.0604  0.0524
  847MOL0     H14304   6.192   9.860   4.427 -2.1628  2.6801  0.0800
  847MOL0     H14305   6.263   9.993   4.111 -0.4902  1.6713 -0.7515
  847MOL0     H14306   6.176   9.993   3.882  0.2201 -1.0783  1.3392
  847MOL0     H14307   6.045   9.873   3.891 -1.8555 -0.0074  0.5312
  847MOL0     H14308   6.010  10.038   3.841 -0.2364  1.8864  2.3748
  847MOL0     H14309   5.516  10.058   4.146 -0.0262 -2.1947 -1.1955
  847MOL0     H14310   5.284  10.103   4.082 -0.2646  1.0430  1.3898
  847MOL0     H14311   5.203  10.453   3.962  0.7008 -0.8932  0.6899
  847MOL0     H14312   5.139  10.437   3.802  1.3373 -0.0802  0.0444
  847MOL0     H14313   4.998  10.326   4.030  3.0870 -0.3373 -0.3090
  847MOL0     H14314   4.964  10.486   3.966  2.7119  1.3763  0.6326
  847MOL0     H14315   4.903  10.216   3.848 -0.9265 -1.0608 -1.3070
  847MOL0     H14316   4.931  10.355   3.735  0.9753 -1.3811 -0.2694
  847MOL0     H14317   4.732  10.336   3.963 -1.3725  2.0943  0.4541
  847MOL0     H14318   4.733  10.458   3.829 -1.2808 -0.6225 -0.5207
  847MOL0     H14319   4.710  10.154   3.761  0.1375 -0.8908  0.6728
  847MOL0     H14320   4.668  10.295   3.661  1.5483 -0.4762 -1.2285
  847MOL0     H14321   4.464  10.320   3.757 -2.8899 -1.4179 -0.9722
  847MOL0     H14322   4.481  10.151   3.736 -1.5634  0.0346  1.3798
  847MOL0     H14323   4.491  10.307   3.997 -2.9905 -1.5894  2.8604
  847MOL0     H14324   4.602  10.171   3.984  1.3254  0.0825 -3.5045
  847MOL0     H14325   4.391  10.140   4.108 -1.4358 -0.8155  0.4191
  847MOL0     H14326   4.396  10.021   3.983 -1.5940 -0.3529  0.8792
  847MOL0     H14327   5.409  10.388   3.792  1.3079  0.6632  0.8275
  847MOL0     H14328   5.646  10.367   3.885 -0.8046 -0.1081  1.7985
  847MOL0     H14329   5.842  10.162   4.288 -1.3371  0.7386 -1.4957
  847MOL0     H14330   6.037  10.145   4.431  1.2599  1.4909  0.2822
  847MOL0     H14331   7.777   9.930   4.529  1.7741 -1.0653 -0.2562
  847MOL0     H14332   7.975   9.868   4.408  0.8167 -0.9762 -1.4128
  847MOL0     H14333   8.302  10.151   3.978  2.2868  1.1649  0.9056
  847MOL0     H14334   8.520  10.104   3.960 -1.1667  1.0282 -1.1600
  847MOL0     H14335   8.648   9.683   4.067  0.4204 -2.3503 -0.2824
  847MOL0     H14336   8.689   9.698   3.892 -0.2983  3.4180 -0.2114
  847MOL0     H14337   8.893   9.656   4.019 -0.4920  0.0998  0.5968
  847MOL0     H14338   8.871   9.811   4.100 -2.2865  0.3226  0.1129
  847MOL0     H14339   9.027   9.822   3.901 -0.1599 -0.2881  0.6006
  847MOL0     H14340   8.901   9.937   3.878  2.1203  0.9417 -1.4117
  847MOL0     H14341   8.787   9.807   3.711  1.0899  2.7296 -1.5093
  847MOL0     H14342   8.874   9.654   3.749 -2.4668 -0.2160  0.2395
  847MOL0     H14343   9.127   9.829   3.477  1.5292  1.1197  1.0611
  847MOL0     H14344   8.438   9.690   4.068  1.0874 -0.3300 -2.3646
  847MOL0     H14345   8.218   9.749   4.132 -0.0500  0.2293  1.1613
  848MOL0     O14346   2.576   8.361   0.678 -0.2885  0.3419  0.1740
  848MOL0     C14347   2.534   8.346   0.563 -0.0359  0.4072  0.3855
  848MOL0     O14348   2.441   8.254   0.517 -0.5614  0.0955  0.5605
  848MOL0     C14349   2.361   8.185   0.608  0.5041 -0.7794 -0.2675
  848MOL0     C14350   2.367   8.170   0.747 -0.5382  0.0153 -0.1216
  848MOL0     C14351   2.268   8.084   0.809 -0.7916  1.4096 -0.8057
  848MOL0     C14352   2.176   8.015   0.741 -0.3544 -0.0041  0.7009
  848MOL0     O14353   2.076   7.936   0.787  0.0606  0.3587  0.6301
  848MOL0     C14354   2.071   7.903   0.922 -0.9254 -1.1126 -0.5371
  848MOL0     C14355   1.942   7.818   0.957 -1.3365 -0.2872 -0.0348
  848MOL0     C14356   1.934   7.756   1.100 -0.2278  0.1028 -0.2342
  848MOL0     C14357   1.964   7.609   1.099  0.6591  1.1180  0.3120
  848MOL0     C14358   1.964   7.549   1.243  0.1553 -1.1035  0.9833
  848MOL0     C14359   1.956   7.396   1.230  0.0117  0.3039 -0.7560
  848MOL0     C14360   2.009   7.326   1.350  0.4910  0.5397 -0.1015
  848MOL0     C14361   1.938   7.361   1.484 -0.5761 -0.5914  0.0949
  848MOL0     N14362   1.804   7.305   1.491 -0.4849 -0.7075  0.6142
  848MOL0     C14363   1.766   7.179   1.541  0.5522 -1.0954 -0.7797
  848MOL0     C14364   1.638   7.178   1.508  0.6908  0.8198  0.7653
  848MOL0     C14365   1.550   7.065   1.553 -0.6379  0.2564 -0.0367
  848MOL0     C14366   1.427   7.049   1.468  0.4724 -0.4284  0.0181
  848MOL0     C14367   1.317   7.158   1.498 -1.0647  0.3227 -0.0698
  848MOL0     C14368   1.297   7.192   1.650 -0.1971  0.2782  0.1000
  848MOL0     O14369   1.185   7.272   1.688  0.2687  0.1227 -0.2423
  848MOL0     C14370   1.064   7.220   1.687 -0.0052 -0.7559  0.2857
  848MOL0     C14371   1.031   7.086   1.660 -0.7517 -0.1351  0.1173
  848MOL0     C14372   0.897   7.048   1.683  0.1690 -0.9360 -0.8276
  848MOL0     C14373   0.870   6.898   1.661 -0.1721  0.1569 -0.2464
  848MOL0     C14374   0.800   7.146   1.713  0.8413  0.6039 -0.0651
  848MOL0     C14375   0.653   7.115   1.714 -0.3616  0.6157 -0.8096
  848MOL0     O14376   0.582   7.196   1.791 -0.4100 -0.4114 -0.5865
  848MOL0     C14377   0.453   7.183   1.822  0.1762 -0.0130 -0.3273
  848MOL0     C14378   0.413   7.215   1.948  0.0742  0.6052  0.8394
  848MOL0     C14379   0.272   7.197   1.985  0.4680  0.8306  0.0899
  848MOL0     C14380   0.174   7.158   1.892  0.5637  0.4973 -0.3166
  848MOL0     O14381   0.043   7.121   1.918 -0.0777  0.7309 -0.9599
  848MOL0     C14382   0.015   7.123   2.055  0.2665  0.5168 -0.3010
  848MOL0     C14383  -0.122   7.055   2.066 -0.5102 -0.2751 -0.1489
  848MOL0     C14384  -0.176   7.077   2.206 -0.1047  0.2826 -0.3510
  848MOL0     C14385  -0.325   7.053   2.236 -0.6528 -0.3576  0.0410
  848MOL0     C14386  -0.375   6.908   2.221  1.2325  0.2977  0.2400
  848MOL0     C14387  -0.530   6.907   2.240  0.1023 -0.2792 -0.7755
  848MOL0     C14388  -0.581   6.763   2.266 -0.2553  1.1602  0.6717
  848MOL0     C14389  -0.613   6.714   2.405  0.0396 -0.7769 -0.7678
  848MOL0    Cl14390  -0.739   6.824   2.481 -0.2942 -0.1027  0.0917
  848MOL0     C14391   0.217   7.130   1.763 -0.4096 -0.0461 -0.0680
  848MOL0     C14392   0.356   7.138   1.732 -0.8749  0.3089 -0.2329
  848MOL0     O14393   0.612   7.029   1.639  0.1861  0.3112  0.1429
  848MOL0     C14394   0.842   7.279   1.740  0.5655 -0.1427 -0.0234
  848MOL0     C14395   0.970   7.315   1.733  0.0593 -0.4534  0.6604
  848MOL0     N14396   1.594   7.297   1.444 -0.1912  0.6235 -0.2622
  848MOL0     N14397   1.696   7.367   1.423 -0.2851 -0.5388 -0.1596
  848MOL0     C14398   2.162   8.039   0.608 -0.3681 -0.2031  0.3893
  848MOL0     C14399   2.261   8.114   0.541  0.8190 -0.1198 -0.5234
  848MOL0     C14400   2.600   8.424   0.461 -0.0501  0.2866  0.9357
  848MOL0     C14401   2.724   8.488   0.492 -0.8475 -0.3502 -0.0452
  848MOL0     C14402   2.798   8.553   0.390 -0.0078 -0.2348 -0.2350
  848MOL0     C14403   2.742   8.567   0.261 -0.2610  0.5387 -0.6534
  848MOL0     O14404   2.823   8.628   0.166 -0.3251  0.6491 -0.5130
  848MOL0     C14405   2.775   8.622   0.028 -0.1802 -0.0281  0.4859
  848MOL0     C14406   2.880   8.702  -0.046  0.0301  0.0636  0.0696
  848MOL0     C14407   3.030   8.653  -0.031 -0.2240 -0.0853 -0.6465
  848MOL0     C14408   3.095   8.610  -0.166  0.0691 -0.3224  0.4676
  848MOL0     C14409   3.238   8.583  -0.134  0.6298 -0.8728 -0.3614
  848MOL0     C14410   3.355   8.553  -0.100  0.1112  0.5581  0.4008
  848MOL0     C14411   2.608   8.514   0.237  1.0078  0.2593 -0.3811
  848MOL0     C14412   2.546   8.437   0.333 -0.0653  0.0257 -0.5183
  848MOL0     H14413   2.433   8.223   0.815 -0.1960 -0.7520  0.1545
  848MOL0     H14414   2.277   8.087   0.917  3.2740  2.5616 -1.0011
  848MOL0     H14415   2.153   7.835   0.948  0.9395  0.5101 -1.8156
  848MOL0     H14416   2.085   7.995   0.980  3.5978 -1.6806 -0.3576
  848MOL0     H14417   1.853   7.879   0.942 -1.9773 -1.4720 -1.1882
  848MOL0     H14418   1.940   7.738   0.882  0.8710 -0.9596  0.5356
  848MOL0     H14419   2.002   7.815   1.162  3.0280 -0.6547 -2.8340
  848MOL0     H14420   1.829   7.759   1.132 -0.0208 -1.0509  0.5675
  848MOL0     H14421   1.887   7.559   1.039  0.9325  1.5647 -0.4281
  848MOL0     H14422   2.064   7.586   1.061  0.8826  0.6540  1.1460
  848MOL0     H14423   2.062   7.570   1.287 -0.4055 -0.7167  2.0879
  848MOL0     H14424   1.891   7.603   1.305 -2.6877 -2.2099 -1.1537
  848MOL0     H14425   1.852   7.364   1.218 -1.0733  2.0968  2.4759
  848MOL0     H14426   2.014   7.373   1.140 -1.5667  1.7758 -2.2191
  848MOL0     H14427   2.000   7.217   1.342 -2.4655  0.7665 -0.7585
  848MOL0     H14428   2.114   7.356   1.360  0.4539  0.2162  1.5239
  848MOL0     H14429   1.935   7.468   1.506 -0.4106 -0.7340  0.8175
  848MOL0     H14430   1.986   7.325   1.575 -2.3502 -0.0468  1.2880
  848MOL0     H14431   1.823   7.099   1.588  0.3496 -0.5251  0.4401
  848MOL0     H14432   1.615   6.978   1.542  0.8597  1.0363  1.9272
  848MOL0     H14433   1.526   7.078   1.659  0.4958  1.2971  0.1238
  848MOL0     H14434   1.376   6.952   1.471 -1.7745  0.5446 -2.8555
  848MOL0     H14435   1.449   7.066   1.363 -0.3596  1.0229  0.0436
  848MOL0     H14436   1.216   7.133   1.464 -1.6551  0.7608  1.2903
  848MOL0     H14437   1.348   7.247   1.442 -0.3962  1.0647  1.4229
  848MOL0     H14438   1.386   7.243   1.688  0.5038  0.9380 -2.2476
  848MOL0     H14439   1.287   7.106   1.716 -0.9491 -0.0484 -0.4327
  848MOL0     H14440   1.104   7.010   1.632 -0.3682 -1.4341  3.9822
  848MOL0     H14441   0.806   6.867   1.744 -0.2788  1.1977  0.0769
  848MOL0     H14442   0.820   6.872   1.567  0.7095 -5.8764  0.5816
  848MOL0     H14443   0.964   6.843   1.651 -0.3415 -0.0622 -0.6851
  848MOL0     H14444   0.493   7.239   2.017  1.5513  0.6444 -0.8088
  848MOL0     H14445   0.253   7.224   2.089  0.9308  1.9418 -0.0982
  848MOL0     H14446   0.083   7.060   2.113 -1.5492 -1.1237  0.1539
  848MOL0     H14447   0.011   7.225   2.094 -0.8652  0.5904 -0.5621
  848MOL0     H14448  -0.183   7.111   1.994 -0.4452 -1.2430 -0.9693
  848MOL0     H14449  -0.123   6.956   2.021  0.4750 -0.3067 -0.1084
  848MOL0     H14450  -0.168   7.183   2.232  0.2275 -0.1276  1.2808
  848MOL0     H14451  -0.116   7.018   2.276  2.4967  1.7203 -1.1938
  848MOL0     H14452  -0.359   7.085   2.334 -1.1768  2.0819 -0.8664
  848MOL0     H14453  -0.381   7.126   2.177 -0.5914  1.1031  1.7366
  848MOL0     H14454  -0.350   6.835   2.298  0.7431 -0.0914  0.0389
  848MOL0     H14455  -0.356   6.862   2.124  0.2171  1.8653 -0.7465
  848MOL0     H14456  -0.555   6.969   2.326  2.4778  1.1633 -1.0350
  848MOL0     H14457  -0.573   6.959   2.154  2.7883  0.9192 -1.5019
  848MOL0     H14458  -0.520   6.678   2.234 -2.0727 -0.8984  2.3152
  848MOL0     H14459  -0.673   6.752   2.206  1.5370 -1.7054 -1.8317
  848MOL0     H14460  -0.526   6.723   2.470 -0.3300  0.0559 -0.3706
  848MOL0     H14461  -0.651   6.612   2.392 -2.4343 -0.5051  2.7072
  848MOL0     H14462   0.155   7.085   1.686  1.2118  0.5255 -1.7770
  848MOL0     H14463   0.368   7.113   1.627 -0.6124 -1.6092  0.2132
  848MOL0     H14464   0.756   7.344   1.751  0.0345 -0.9811  0.9109
  848MOL0     H14465   1.002   7.417   1.747  0.0959 -0.2862 -0.5694
  848MOL0     H14466   2.075   7.998   0.558 -0.2048 -1.8234  1.3438
  848MOL0     H14467   2.251   8.143   0.437  0.1260 -1.1701 -0.7692
  848MOL0     H14468   2.770   8.474   0.588 -1.9670 -0.5422  0.4858
  848MOL0     H14469   2.904   8.572   0.401  0.1025 -0.5624 -0.6878
  848MOL0     H14470   2.761   8.524  -0.019 -0.2598  1.2354 -2.3002
  848MOL0     H14471   2.676   8.665   0.012  0.5122  1.2898 -0.3757
  848MOL0     H14472   2.874   8.805  -0.010  1.8167  0.0233  0.5612
  848MOL0     H14473   2.849   8.699  -0.151 -0.4813  4.1645 -0.0807
  848MOL0     H14474   3.025   8.571   0.041 -2.0510 -0.7409 -1.4377
  848MOL0     H14475   3.084   8.738   0.010 -0.0562  0.8480 -2.6533
  848MOL0     H14476   3.101   8.690  -0.241  1.0376 -0.0089  0.8612
  848MOL0     H14477   3.035   8.529  -0.209 -1.8602  1.0201  0.4802
  848MOL0     H14478   3.449   8.521  -0.059 -0.3688 -0.6469  0.5834
  848MOL0     H14479   2.566   8.528   0.138  0.8629  0.1821 -0.3303
  848MOL0     H14480   2.444   8.407   0.315  0.1622 -0.6640 -0.6907
  849MOL0     O14481   5.264   2.589   9.744 -0.3778 -0.1474  0.1584
  849MOL0     C14482   5.363   2.661   9.738  0.2716  0.1549  0.3777
  849MOL0     O14483   5.388   2.754   9.638 -0.2265  0.5468  0.2086
  849MOL0     C14484   5.277   2.781   9.552 -0.6814 -0.2859 -0.0596
  849MOL0     C14485   5.281   2.721   9.428  0.8154 -0.1127 -0.2779
  849MOL0     C14486   5.168   2.742   9.351  0.3631 -0.0773  0.5418
  849MOL0     C14487   5.071   2.842   9.376 -0.7847 -0.7187  0.6627
  849MOL0     O14488   4.964   2.877   9.297 -0.3105  0.0885 -0.0391
  849MOL0     C14489   5.002   2.917   9.167  1.0456  0.0035  0.5399
  849MOL0     C14490   4.876   2.985   9.106  0.1585 -0.7114 -0.7781
  849MOL0     C14491   4.826   3.116   9.189  0.3304 -0.1770 -0.1662
  849MOL0     C14492   4.721   3.088   9.292 -0.3360  0.7186  0.8632
  849MOL0     C14493   4.591   3.176   9.267 -0.1106  0.4487 -0.2776
  849MOL0     C14494   4.518   3.130   9.137 -0.6250  0.8506  0.6995
  849MOL0     C14495   4.409   3.237   9.098 -1.4884  0.1076 -0.6104
  849MOL0     C14496   4.282   3.233   9.171  0.0614 -0.1604  0.3750
  849MOL0     N14497   4.168   3.287   9.099 -0.0807 -0.0484  0.5069
  849MOL0     C14498   4.149   3.417   9.073  0.0740 -0.4663  0.8325
  849MOL0     C14499   4.076   3.414   8.962  0.5942  0.0339 -0.3401
  849MOL0     C14500   4.056   3.532   8.869  0.6237  1.0820 -0.7045
  849MOL0     C14501   3.914   3.560   8.823  0.2601 -0.9804 -0.3072
  849MOL0     C14502   3.834   3.601   8.944  0.1842  0.2343 -0.4999
  849MOL0     C14503   3.680   3.632   8.934  0.6286  0.2652  0.8795
  849MOL0     O14504   3.605   3.611   9.058  0.0314  0.5279 -0.1644
  849MOL0     C14505   3.482   3.673   9.066  0.6667 -0.4227  0.8535
  849MOL0     C14506   3.423   3.673   9.190  0.7903  0.1585 -0.9819
  849MOL0     C14507   3.298   3.743   9.221 -0.7907  0.2836  0.1193
  849MOL0     C14508   3.233   3.713   9.359  0.6079 -0.0541  0.8255
  849MOL0     C14509   3.252   3.836   9.125  0.3249 -0.1097 -0.2841
  849MOL0     C14510   3.149   3.934   9.156 -0.0496  0.2901 -0.2282
  849MOL0     O14511   3.111   3.965   9.286 -0.1758 -0.2226  0.0441
  849MOL0     C14512   3.008   4.045   9.309  0.0068  0.3900 -0.6235
  849MOL0     C14513   3.031   4.173   9.354 -0.3236 -0.1363 -0.8554
  849MOL0     C14514   2.930   4.262   9.386  0.3772  0.1217 -0.7468
  849MOL0     C14515   2.796   4.233   9.366  0.2141 -0.5572 -0.1381
  849MOL0     O14516   2.705   4.310   9.423  0.4215 -1.0184  1.1242
  849MOL0     C14517   2.575   4.257   9.430 -0.3183 -0.3097 -0.0160
  849MOL0     C14518   2.490   4.303   9.324 -0.0153 -0.3823 -0.1994
  849MOL0     C14519   2.350   4.231   9.339 -0.1624  0.7379  1.2599
  849MOL0     C14520   2.266   4.317   9.436  0.5152 -0.0279  0.2927
  849MOL0     C14521   2.124   4.270   9.413 -0.3209 -0.7387 -0.3772
  849MOL0     C14522   2.028   4.331   9.509  0.6779  0.1838 -0.4754
  849MOL0     C14523   1.892   4.312   9.448  0.1708 -0.0275  1.1537
  849MOL0     C14524   1.781   4.360   9.541  0.0175  0.0538  0.6300
  849MOL0    Cl14525   1.621   4.317   9.489  0.4707  0.2414  0.0474
  849MOL0     C14526   2.766   4.113   9.307 -0.8673 -0.0868 -0.0781
  849MOL0     C14527   2.874   4.022   9.283  1.0032  0.2065  0.3041
  849MOL0     O14528   3.088   3.971   9.054 -0.2010  0.3632 -0.6147
  849MOL0     C14529   3.310   3.841   8.995 -0.1901 -0.7319  0.6794
  849MOL0     C14530   3.422   3.756   8.962  0.2132  0.1606 -0.1144
  849MOL0     N14531   4.021   3.283   8.940  0.1511 -0.3418 -0.1606
  849MOL0     N14532   4.083   3.207   9.029  0.1046 -0.5856 -0.6654
  849MOL0     C14533   5.080   2.901   9.499 -0.5097  0.0255  0.1704
  849MOL0     C14534   5.181   2.869   9.588 -0.6512 -0.3713 -0.3166
  849MOL0     C14535   5.472   2.637   9.835  0.5828 -0.2042 -0.3921
  849MOL0     C14536   5.586   2.716   9.823  0.2529  0.1526 -0.5681
  849MOL0     C14537   5.692   2.709   9.908 -0.4245 -0.0100  0.5084
  849MOL0     C14538   5.698   2.604   9.989  0.1262  0.5138 -1.1688
  849MOL0     O14539   5.808   2.596  10.076 -0.0590 -0.0213 -0.1601
  849MOL0     C14540   5.833   2.489  10.158 -0.0475  0.0799  0.0443
  849MOL0     C14541   5.976   2.498  10.209 -0.1716 -0.0462  0.6108
  849MOL0     C14542   6.027   2.619  10.279 -1.0193 -0.3126 -0.1314
  849MOL0     C14543   5.967   2.625  10.414 -0.2062 -0.4342  1.3453
  849MOL0     C14544   6.029   2.733  10.501  0.3883 -0.4905 -0.3224
  849MOL0     C14545   6.079   2.825  10.560  0.0852  0.0947  0.7030
  849MOL0     C14546   5.592   2.516  10.004  0.9505  0.4046 -0.1082
  849MOL0     C14547   5.479   2.531   9.927 -0.2048 -0.1674 -0.1040
  849MOL0     H14548   5.357   2.652   9.391 -0.3402 -1.0553 -0.9894
  849MOL0     H14549   5.157   2.682   9.261  1.3719 -0.2922  0.5449
  849MOL0     H14550   5.085   2.988   9.165  0.2121  1.1283  2.4749
  849MOL0     H14551   5.007   2.829   9.102 -2.5015 -0.8137  1.1646
  849MOL0     H14552   4.902   3.035   9.012 -1.6112  1.6769 -0.1162
  849MOL0     H14553   4.804   2.905   9.084  3.2805 -3.2611 -2.4173
  849MOL0     H14554   4.914   3.152   9.243  0.0917 -0.6769  0.5734
  849MOL0     H14555   4.785   3.193   9.124  1.1249 -0.2542 -0.7700
  849MOL0     H14556   4.700   2.980   9.298 -1.3272  0.7668 -1.0002
  849MOL0     H14557   4.762   3.118   9.389  0.9956 -2.7806  1.5515
  849MOL0     H14558   4.531   3.159   9.358  2.3907  1.0614  1.5897
  849MOL0     H14559   4.615   3.282   9.262  1.5010  0.2134  1.2561
  849MOL0     H14560   4.583   3.115   9.050 -1.8563  2.6948 -0.6061
  849MOL0     H14561   4.476   3.031   9.155  1.7416 -0.0398  1.7404
  849MOL0     H14562   4.461   3.332   9.108  2.0744 -1.9098  1.9031
  849MOL0     H14563   4.377   3.216   8.995 -1.8110 -4.5973  0.2207
  849MOL0     H14564   4.301   3.296   9.259  2.6495  1.1045 -0.9612
  849MOL0     H14565   4.266   3.129   9.201 -3.3564  0.3829  0.8670
  849MOL0     H14566   4.212   3.494   9.115  0.7671 -0.0121 -0.9307
  849MOL0     H14567   4.096   3.625   8.910  4.6133 -1.5938  2.1615
  849MOL0     H14568   4.113   3.503   8.780  1.0334 -1.1029  0.2124
  849MOL0     H14569   3.863   3.475   8.776 -0.5072 -1.9251  2.1076
  849MOL0     H14570   3.901   3.640   8.748 -1.6702 -1.6541 -0.7480
  849MOL0     H14571   3.884   3.693   8.978 -0.1095  1.0144 -2.0656
  849MOL0     H14572   3.850   3.524   9.019  0.2883  1.9441  1.3048
  849MOL0     H14573   3.643   3.565   8.855  1.8605 -1.7373  1.9103
  849MOL0     H14574   3.684   3.734   8.896  0.4855 -0.6345 -1.7804
  849MOL0     H14575   3.454   3.607   9.271  0.9556  0.2813 -0.9450
  849MOL0     H14576   3.276   3.627   9.411 -1.8184 -0.7241  1.8770
  849MOL0     H14577   3.241   3.796   9.430 -1.7280  0.5661  0.4364
  849MOL0     H14578   3.126   3.691   9.355  0.2891  1.4686  0.3367
  849MOL0     H14579   3.133   4.210   9.359 -0.8234  1.2344 -0.2903
  849MOL0     H14580   2.955   4.353   9.441 -1.7035  0.1313  0.2638
  849MOL0     H14581   2.569   4.148   9.439 -1.4984 -0.2677 -0.1304
  849MOL0     H14582   2.527   4.296   9.520 -0.1851 -0.6357  0.1987
  849MOL0     H14583   2.479   4.410   9.347  2.5302  0.3429 -1.9834
  849MOL0     H14584   2.535   4.302   9.225  1.4977  0.2613  0.4482
  849MOL0     H14585   2.365   4.129   9.375  0.6881  0.3926 -0.0086
  849MOL0     H14586   2.298   4.221   9.244 -1.1205 -3.9178  2.0150
  849MOL0     H14587   2.285   4.290   9.540 -0.2490 -0.8677  0.2319
  849MOL0     H14588   2.290   4.423   9.425 -3.4244  0.8563 -1.5069
  849MOL0     H14589   2.126   4.165   9.444  1.1769  0.1846  3.0822
  849MOL0     H14590   2.086   4.269   9.310 -2.6547 -0.0611  0.4334
  849MOL0     H14591   2.028   4.270   9.599  0.4746  1.5507  0.4926
  849MOL0     H14592   2.048   4.438   9.525  1.7172  0.0582 -0.9059
  849MOL0     H14593   1.871   4.210   9.414 -2.9726  1.3660 -1.6303
  849MOL0     H14594   1.883   4.375   9.359 -3.3119  0.1526  1.4927
  849MOL0     H14595   1.786   4.469   9.548 -0.8072  0.0805  1.0071
  849MOL0     H14596   1.790   4.310   9.638  1.4552  0.5000  0.7371
  849MOL0     H14597   2.665   4.092   9.273 -2.8562  1.9336  3.9662
  849MOL0     H14598   2.833   3.934   9.233 -1.1500  2.3705 -2.0363
  849MOL0     H14599   3.275   3.916   8.925  2.2258  1.4226  1.6232
  849MOL0     H14600   3.458   3.756   8.860 -1.1462 -0.0593 -0.6163
  849MOL0     H14601   5.007   2.970   9.540  1.6574  1.9873  0.9761
  849MOL0     H14602   5.190   2.915   9.686  3.2508  1.5362 -1.3865
  849MOL0     H14603   5.587   2.802   9.757 -2.0638 -2.2863 -4.1681
  849MOL0     H14604   5.773   2.781   9.916 -1.3334  1.1405 -0.2796
  849MOL0     H14605   5.779   2.478  10.253  3.1148 -0.5998  1.9085
  849MOL0     H14606   5.825   2.397  10.099  1.5107 -0.4701  0.6552
  849MOL0     H14607   6.038   2.490  10.119 -2.8145 -0.3435 -1.2939
  849MOL0     H14608   5.986   2.412  10.277 -0.5166 -0.2793  0.3635
  849MOL0     H14609   6.018   2.709  10.218  2.2745 -0.3948 -0.8773
  849MOL0     H14610   6.136   2.614  10.288 -0.9193 -0.8878 -1.5008
  849MOL0     H14611   5.985   2.525  10.454  2.9337 -1.1009 -1.3226
  849MOL0     H14612   5.859   2.640  10.400 -0.0298 -0.1320  0.1871
  849MOL0     H14613   6.124   2.907  10.612  0.8384  1.2020 -1.5962
  849MOL0     H14614   5.599   2.438  10.079  2.4819  1.6883  1.1558
  849MOL0     H14615   5.406   2.450   9.932  0.3451 -0.8828 -2.4859
  850MOL0     O14616   6.037   1.493   6.917  0.1581 -0.0483  0.5271
  850MOL0     C14617   6.056   1.618   6.931  0.4526  0.0276 -0.1599
  850MOL0     O14618   5.959   1.715   6.958 -0.8590 -0.2114  0.2616
  850MOL0     C14619   5.825   1.680   6.958 -0.9026 -0.5766 -0.2356
  850MOL0     C14620   5.767   1.584   6.865 -0.6169  0.2510  0.5924
  850MOL0     C14621   5.630   1.562   6.859 -0.8182 -0.1086 -0.1393
  850MOL0     C14622   5.534   1.640   6.939  0.2437 -0.0403  0.5018
  850MOL0     O14623   5.400   1.647   6.918  0.6145 -0.0811  0.3917
  850MOL0     C14624   5.333   1.536   6.859  0.1059 -0.6429 -0.3598
  850MOL0     C14625   5.189   1.574   6.824  0.1305  0.1446 -0.3529
  850MOL0     C14626   5.104   1.457   6.764 -0.9114 -0.3413 -0.1632
  850MOL0     C14627   5.047   1.497   6.630  0.4248  0.1687  0.6948
  850MOL0     C14628   4.935   1.601   6.627  0.6202  0.5019  0.2163
  850MOL0     C14629   4.816   1.568   6.706  0.5902 -0.1788  0.7697
  850MOL0     C14630   4.695   1.664   6.696 -0.2376 -0.4941  0.8424
  850MOL0     C14631   4.725   1.796   6.767 -0.4612 -0.2760 -0.5947
  850MOL0     N14632   4.714   1.784   6.914  0.3351  0.0236 -0.7533
  850MOL0     C14633   4.822   1.758   7.000  1.4975 -0.1013 -0.1153
  850MOL0     C14634   4.753   1.735   7.121 -0.9779 -0.9230  0.5540
  850MOL0     C14635   4.814   1.714   7.251  0.3338 -0.1090 -0.3741
  850MOL0     C14636   4.954   1.770   7.251 -0.4152  1.1559 -1.0479
  850MOL0     C14637   5.004   1.777   7.398 -0.9001 -0.0216  0.3988
  850MOL0     C14638   5.134   1.865   7.389 -0.4317  0.7680  0.0438
  850MOL0     O14639   5.206   1.867   7.518  0.8754 -0.4606 -0.4691
  850MOL0     C14640   5.344   1.870   7.525  1.2271  0.0405  0.6606
  850MOL0     C14641   5.407   1.849   7.641 -0.2738  0.1615  0.0104
  850MOL0     C14642   5.544   1.849   7.651  0.4145  0.2870 -0.7784
  850MOL0     C14643   5.588   1.818   7.796  0.4879 -0.2269  0.8044
  850MOL0     C14644   5.625   1.882   7.541 -0.3439  0.7114 -0.5280
  850MOL0     C14645   5.765   1.886   7.557 -0.3609  0.9345  0.2765
  850MOL0     O14646   5.816   1.959   7.657 -0.4550  0.6422  0.6650
  850MOL0     C14647   5.952   1.969   7.673 -0.8525  0.7503  0.6122
  850MOL0     C14648   6.006   1.903   7.782 -0.2294  0.0226  0.6457
  850MOL0     C14649   6.143   1.913   7.813 -0.3581  0.1556  1.2672
  850MOL0     C14650   6.231   1.986   7.730  0.1689 -0.1337 -0.6633
  850MOL0     O14651   6.362   1.981   7.771 -0.9284 -0.7523 -0.9698
  850MOL0     C14652   6.457   2.073   7.707  0.2370 -0.4683 -0.0748
  850MOL0     C14653   6.587   2.063   7.769 -0.2753 -0.8278 -0.0489
  850MOL0     C14654   6.650   1.927   7.747 -0.1294  0.1821 -0.0083
  850MOL0     C14655   6.800   1.944   7.723 -0.1343 -0.3967 -0.6446
  850MOL0     C14656   6.879   1.809   7.746  0.3761  0.8929 -0.7026
  850MOL0     C14657   6.878   1.714   7.638 -0.1883  0.4338 -0.2096
  850MOL0     C14658   6.956   1.744   7.518  0.3031  0.3614 -0.0740
  850MOL0     C14659   6.946   1.638   7.415  0.2961 -0.7352  0.1484
  850MOL0    Cl14660   6.791   1.663   7.319 -0.0613  0.7145  0.0994
  850MOL0     C14661   6.181   2.047   7.618  0.6374 -0.5884  0.0513
  850MOL0     C14662   6.037   2.033   7.583  0.0633  0.7457  0.4924
  850MOL0     O14663   5.838   1.830   7.471  0.4248 -0.0259 -0.0938
  850MOL0     C14664   5.565   1.911   7.424  0.0117  0.9418 -0.4546
  850MOL0     C14665   5.428   1.900   7.417 -0.0170 -1.0195  1.0734
  850MOL0     N14666   4.622   1.746   7.098 -0.5363  0.2048  0.0026
  850MOL0     N14667   4.595   1.761   6.973 -0.3842  0.1160 -1.1165
  850MOL0     C14668   5.595   1.737   7.020  0.3680 -0.0399  0.2978
  850MOL0     C14669   5.737   1.761   7.037  0.4498  0.0471 -0.6922
  850MOL0     C14670   6.197   1.664   6.917 -0.5776 -0.5385 -0.5984
  850MOL0     C14671   6.235   1.794   6.949 -0.3752  0.0787 -0.5442
  850MOL0     C14672   6.365   1.830   6.929  0.1923 -0.5165  0.1330
  850MOL0     C14673   6.462   1.742   6.885  0.4681  0.5988  0.1003
  850MOL0     O14674   6.595   1.781   6.894 -0.3676  1.0843 -0.0384
  850MOL0     C14675   6.690   1.676   6.857 -0.0917  0.6088  0.4751
  850MOL0     C14676   6.832   1.722   6.839 -0.7877 -0.1459  0.2742
  850MOL0     C14677   6.900   1.767   6.965 -1.1150  0.8768 -1.0865
  850MOL0     C14678   7.045   1.826   6.955  1.0457 -0.0260  0.6176
  850MOL0     C14679   7.087   1.879   7.084  0.6906 -0.7827  0.5863
  850MOL0     C14680   7.133   1.923   7.183 -0.4878 -0.5558 -0.4300
  850MOL0     C14681   6.425   1.610   6.851 -0.8629  0.0744  0.8154
  850MOL0     C14682   6.291   1.572   6.865 -0.2755 -0.7507 -0.0611
  850MOL0     H14683   5.829   1.534   6.791 -1.9849 -0.3090 -0.2170
  850MOL0     H14684   5.594   1.486   6.789 -1.3626  2.2568 -2.5996
  850MOL0     H14685   5.380   1.509   6.764  1.0054  1.0991 -0.4493
  850MOL0     H14686   5.332   1.442   6.915  0.1135 -0.1987  0.4100
  850MOL0     H14687   5.147   1.619   6.914  1.7323  1.7483 -0.3487
  850MOL0     H14688   5.190   1.656   6.751  0.4741 -0.0001 -0.5137
  850MOL0     H14689   5.164   1.366   6.751  2.1718  1.6760 -1.0039
  850MOL0     H14690   5.029   1.430   6.839  1.6092 -0.1992  2.5885
  850MOL0     H14691   5.129   1.538   6.569  1.2017 -0.5401  1.2402
  850MOL0     H14692   4.996   1.407   6.595 -0.1878 -0.3470  2.8181
  850MOL0     H14693   4.975   1.693   6.671  0.1645  2.0224 -2.3378
  850MOL0     H14694   4.905   1.619   6.524  1.9791  0.0591 -0.2788
  850MOL0     H14695   4.779   1.468   6.681  1.8997 -1.1571  2.4600
  850MOL0     H14696   4.845   1.538   6.808 -0.7552 -0.2665  1.1378
  850MOL0     H14697   4.668   1.686   6.593 -2.7644  0.4344  1.6281
  850MOL0     H14698   4.613   1.612   6.747 -1.1238  0.8850  0.8894
  850MOL0     H14699   4.652   1.875   6.748  0.4986  0.4953 -1.2213
  850MOL0     H14700   4.825   1.827   6.733 -1.5298  4.1572 -0.3469
  850MOL0     H14701   4.928   1.760   6.980  1.5671 -0.5809  0.1842
  850MOL0     H14702   4.759   1.759   7.334  1.4190  0.2666  0.1607
  850MOL0     H14703   4.815   1.606   7.270 -0.8584 -0.1567 -0.5462
  850MOL0     H14704   4.966   1.861   7.190  1.7211  0.9991 -0.9359
  850MOL0     H14705   5.007   1.687   7.204 -2.4247 -1.5776  1.2266
  850MOL0     H14706   5.016   1.675   7.438 -3.9391 -0.5958  0.1444
  850MOL0     H14707   4.928   1.836   7.450 -0.8630  0.4226 -0.0448
  850MOL0     H14708   5.098   1.961   7.351 -3.5922 -1.0846 -2.1054
  850MOL0     H14709   5.203   1.834   7.310 -0.8552  3.0807 -1.3456
  850MOL0     H14710   5.348   1.817   7.726  0.6591 -0.6827  0.3600
  850MOL0     H14711   5.511   1.803   7.872  2.0626 -1.3765  2.2549
  850MOL0     H14712   5.658   1.736   7.811  0.8492 -0.0568  0.1189
  850MOL0     H14713   5.648   1.904   7.829  1.5729 -0.1676 -1.1145
  850MOL0     H14714   5.941   1.840   7.842 -1.0134  0.9522  0.8078
  850MOL0     H14715   6.181   1.859   7.899 -1.3472 -0.8467  1.0898
  850MOL0     H14716   6.462   2.057   7.599  2.1737  2.3711 -0.5185
  850MOL0     H14717   6.428   2.178   7.719  0.6436  0.1105 -3.2556
  850MOL0     H14718   6.649   2.147   7.739  0.5320 -1.0327  0.9984
  850MOL0     H14719   6.585   2.084   7.876 -1.9980  3.4059 -0.7284
  850MOL0     H14720   6.604   1.876   7.662  1.8386 -1.0085 -0.4350
  850MOL0     H14721   6.630   1.865   7.835 -3.1652  1.0604  0.0077
  850MOL0     H14722   6.807   1.975   7.618 -0.5073  2.3203  0.0564
  850MOL0     H14723   6.844   2.022   7.785 -2.1163  2.1380 -2.2053
  850MOL0     H14724   6.842   1.752   7.831 -1.5224  1.6420 -0.9852
  850MOL0     H14725   6.981   1.826   7.781 -0.1444 -2.8685  3.4710
  850MOL0     H14726   6.935   1.631   7.682 -0.7308  0.9938  1.5818
  850MOL0     H14727   6.772   1.700   7.615 -0.8194  2.6503  1.1172
  850MOL0     H14728   7.059   1.738   7.555 -0.1848 -0.2363  1.2566
  850MOL0     H14729   6.948   1.840   7.466 -3.2716 -0.5265 -1.3740
  850MOL0     H14730   6.954   1.539   7.460 -2.0157 -2.4507 -2.8266
  850MOL0     H14731   7.033   1.652   7.350  0.7688 -0.5163  0.8064
  850MOL0     H14732   6.243   2.107   7.551 -1.0106  0.0913 -0.9285
  850MOL0     H14733   6.000   2.085   7.496 -0.3035  1.6163  1.1588
  850MOL0     H14734   5.619   1.954   7.339  0.6143 -1.2391 -1.2436
  850MOL0     H14735   5.385   1.939   7.326  0.3284 -0.3200  1.2060
  850MOL0     H14736   5.522   1.805   7.064 -0.9546 -0.2364 -1.4974
  850MOL0     H14737   5.774   1.837   7.104 -0.9388  0.0304  0.1200
  850MOL0     H14738   6.167   1.866   6.994  1.0030  1.3438 -0.3716
  850MOL0     H14739   6.396   1.930   6.954 -0.3251  0.0110 -1.2356
  850MOL0     H14740   6.680   1.597   6.931 -1.2548 -1.1139 -1.4278
  850MOL0     H14741   6.665   1.644   6.755  1.7174  1.7221 -0.3922
  850MOL0     H14742   6.837   1.792   6.755 -2.4198  1.0652  1.1343
  850MOL0     H14743   6.875   1.628   6.802 -0.1642 -0.9713  2.9023
  850MOL0     H14744   6.895   1.681   7.033 -2.6299  1.2388 -0.7083
  850MOL0     H14745   6.837   1.839   7.018 -2.6301  1.0356 -2.9868
  850MOL0     H14746   7.036   1.904   6.879  2.5217  1.4713  1.9044
  850MOL0     H14747   7.116   1.746   6.932  2.6391  1.4363  0.2277
  850MOL0     H14748   7.185   1.959   7.270 -0.3201 -0.0352 -0.7377
  850MOL0     H14749   6.490   1.528   6.820 -0.5681  1.1620 -1.6682
  850MOL0     H14750   6.265   1.469   6.840  0.0504 -0.8260 -0.0910
  851MOL0     O14751   7.368   1.163  10.558 -0.7473  0.7448  0.5304
  851MOL0     C14752   7.423   1.272  10.532 -0.4664  1.0050 -0.3453
  851MOL0     O14753   7.392   1.396  10.568  0.4293 -0.3073 -0.0950
  851MOL0     C14754   7.296   1.420  10.655  0.5850 -0.4018 -0.3163
  851MOL0     C14755   7.238   1.546  10.651  0.5839 -0.7984 -0.4602
  851MOL0     C14756   7.123   1.585  10.735 -0.3265  0.9364  0.0615
  851MOL0     C14757   7.071   1.486  10.821 -0.0557  0.2811 -1.0107
  851MOL0     O14758   6.969   1.509  10.909 -0.0302  0.4075 -0.0505
  851MOL0     C14759   6.970   1.627  10.992 -0.2025 -0.3860  0.1794
  851MOL0     C14760   6.831   1.652  11.058 -0.7712  0.4270 -0.6156
  851MOL0     C14761   6.823   1.792  11.131 -0.0271 -0.1006 -0.8340
  851MOL0     C14762   6.689   1.819  11.206 -1.0336 -0.1050  0.2503
  851MOL0     C14763   6.575   1.857  11.106 -0.2356  1.2006 -0.3222
  851MOL0     C14764   6.454   1.915  11.178 -1.6361 -0.8216 -0.9902
  851MOL0     C14765   6.366   1.799  11.223  0.2530 -0.5250 -0.3365
  851MOL0     C14766   6.257   1.855  11.331  0.9070 -0.3934 -0.2089
  851MOL0     N14767   6.320   1.913  11.450 -0.8739  0.0241 -0.4836
  851MOL0     C14768   6.383   1.842  11.550  0.7682  0.5283 -0.0945
  851MOL0     C14769   6.418   1.932  11.642  0.2039 -0.5013  0.4256
  851MOL0     C14770   6.503   1.933  11.762 -0.7186 -0.1665  0.4102
  851MOL0     C14771   6.437   1.891  11.887  0.6698  0.9308  0.0604
  851MOL0     C14772   6.310   1.959  11.941 -0.4250 -0.2300  0.0020
  851MOL0     C14773   6.312   2.118  11.932  0.4789  0.5984 -0.0935
  851MOL0     O14774   6.194   2.171  11.991 -0.0886  0.1475  0.1484
  851MOL0     C14775   6.073   2.179  11.930  0.5105 -0.0723  0.0983
  851MOL0     C14776   5.954   2.220  11.994 -0.4542 -0.3445 -0.4238
  851MOL0     C14777   5.832   2.242  11.928  0.7018  0.5524 -0.3825
  851MOL0     C14778   5.722   2.303  12.014 -0.1889 -0.3971 -0.0473
  851MOL0     C14779   5.823   2.206  11.789  0.0273  0.6993 -0.2315
  851MOL0     C14780   5.696   2.204  11.701 -0.0992  0.2600  0.2199
  851MOL0     O14781   5.582   2.266  11.752 -0.6895  0.0332 -0.2130
  851MOL0     C14782   5.480   2.298  11.668  0.0974  0.4812 -1.3590
  851MOL0     C14783   5.353   2.288  11.729 -0.3442  0.1674  0.8546
  851MOL0     C14784   5.236   2.328  11.657  0.2293  0.2580  0.1655
  851MOL0     C14785   5.253   2.375  11.527 -0.5779  0.6290 -0.1974
  851MOL0     O14786   5.149   2.420  11.455 -0.2250 -0.3162 -0.6491
  851MOL0     C14787   5.014   2.411  11.513 -0.9658  0.0693 -0.0262
  851MOL0     C14788   4.913   2.463  11.407 -0.6687 -0.0827 -0.1998
  851MOL0     C14789   4.781   2.437  11.465  0.1382 -0.3439  0.1052
  851MOL0     C14790   4.666   2.490  11.368  0.2068  0.0271 -0.5838
  851MOL0     C14791   4.633   2.636  11.372  0.8103  1.0402 -0.7049
  851MOL0     C14792   4.481   2.646  11.320  0.1397 -0.1939 -0.2707
  851MOL0     C14793   4.376   2.592  11.424  0.0584 -0.2327 -0.4504
  851MOL0     C14794   4.242   2.661  11.421 -0.1233  0.0890 -0.0928
  851MOL0    Cl14795   4.200   2.682  11.245  0.0452  0.2144  0.4044
  851MOL0     C14796   5.378   2.372  11.469  0.4272 -0.8212  0.7389
  851MOL0     C14797   5.496   2.345  11.537 -0.3550 -0.0233 -0.6242
  851MOL0     O14798   5.698   2.141  11.593  1.0603 -0.3928 -0.6685
  851MOL0     C14799   5.935   2.147  11.728  0.5231 -0.1118 -0.1632
  851MOL0     C14800   6.057   2.139  11.799  0.3242 -0.2631 -0.1537
  851MOL0     N14801   6.363   2.053  11.601 -0.1951 -0.1681  0.8174
  851MOL0     N14802   6.310   2.042  11.485 -0.5990  0.0691  1.4866
  851MOL0     C14803   7.133   1.356  10.831  0.8141  0.3748 -0.7317
  851MOL0     C14804   7.243   1.329  10.746 -0.3662  1.0990 -1.2237
  851MOL0     C14805   7.549   1.259  10.449  0.2564  0.7140  0.6371
  851MOL0     C14806   7.588   1.135  10.382 -0.0571 -0.1870 -0.2311
  851MOL0     C14807   7.716   1.129  10.312 -0.4158  0.3327 -0.2193
  851MOL0     C14808   7.800   1.245  10.301  0.5851  0.0794 -0.7420
  851MOL0     O14809   7.923   1.253  10.246 -0.3503 -0.5986  0.2851
  851MOL0     C14810   7.942   1.178  10.127 -0.5692  0.1189  0.3131
  851MOL0     C14811   8.057   1.244  10.045  1.2518 -0.6384 -0.4139
  851MOL0     C14812   8.018   1.374   9.966 -0.2552  0.0864  0.4571
  851MOL0     C14813   8.133   1.425   9.870 -0.2556 -0.3365 -0.4635
  851MOL0     C14814   8.253   1.483   9.927 -0.1040  0.5141  0.1594
  851MOL0     C14815   8.356   1.516   9.980 -0.3474 -0.1405 -0.7982
  851MOL0     C14816   7.760   1.358  10.369 -0.4719 -0.1033  0.0679
  851MOL0     C14817   7.638   1.366  10.436  0.7533 -0.9015  0.3781
  851MOL0     H14818   7.249   1.624  10.576 -1.3888 -0.2762 -0.2643
  851MOL0     H14819   7.076   1.683  10.722  0.3280  1.5857  2.1677
  851MOL0     H14820   7.052   1.611  11.063  3.6469 -2.7421 -4.1804
  851MOL0     H14821   6.992   1.718  10.934 -3.9749  1.6434  1.5993
  851MOL0     H14822   6.762   1.656  10.973 -1.8877  1.7837  0.3118
  851MOL0     H14823   6.805   1.572  11.127 -3.0515  1.1580 -0.5472
  851MOL0     H14824   6.904   1.797  11.205 -0.7133  2.1238 -0.1785
  851MOL0     H14825   6.847   1.861  11.049  7.1673 -0.6919  0.0857
  851MOL0     H14826   6.675   1.735  11.275  1.1435  2.2184  3.8859
  851MOL0     H14827   6.703   1.901  11.278  2.3168 -0.3503  0.0412
  851MOL0     H14828   6.611   1.932  11.035 -0.2350  0.8743 -0.6685
  851MOL0     H14829   6.553   1.769  11.045  1.5977 -0.5186  1.3237
  851MOL0     H14830   6.498   1.972  11.260  1.4962 -2.3914 -1.4259
  851MOL0     H14831   6.411   1.988  11.109  1.2267  2.5444  0.4734
  851MOL0     H14832   6.324   1.735  11.145 -0.0084 -0.7428 -0.0245
  851MOL0     H14833   6.423   1.735  11.291  0.0191  0.1731  0.5334
  851MOL0     H14834   6.186   1.777  11.360  1.3661 -0.8770 -0.3689
  851MOL0     H14835   6.198   1.941  11.300  2.6610  1.1215  0.4763
  851MOL0     H14836   6.419   1.740  11.547 -1.3245 -0.2311 -0.9852
  851MOL0     H14837   6.593   1.876  11.738 -1.4693 -1.7569  1.1951
  851MOL0     H14838   6.553   2.029  11.778  2.1981 -1.1704 -1.7520
  851MOL0     H14839   6.504   1.904  11.972 -1.7939 -0.6062  2.3946
  851MOL0     H14840   6.408   1.786  11.883  1.3671  0.7082  0.6082
  851MOL0     H14841   6.306   1.930  12.046 -1.8549 -0.3794 -0.0667
  851MOL0     H14842   6.216   1.935  11.889  0.0659 -1.3872 -0.3760
  851MOL0     H14843   6.312   2.155  11.829  2.4457  2.2325  0.4112
  851MOL0     H14844   6.391   2.175  11.982 -0.1302  2.2581 -0.9455
  851MOL0     H14845   5.954   2.247  12.099  1.5219 -0.3719 -0.3914
  851MOL0     H14846   5.656   2.371  11.959 -1.3152 -1.2827  0.1528
  851MOL0     H14847   5.652   2.228  12.053 -4.2029  3.6650  1.4600
  851MOL0     H14848   5.764   2.354  12.101  1.3892 -2.2618  0.3558
  851MOL0     H14849   5.353   2.237  11.825  1.0497 -0.3037  0.6151
  851MOL0     H14850   5.142   2.307  11.707  0.7972 -0.1940  1.0585
  851MOL0     H14851   4.997   2.305  11.535  0.5175 -0.4161 -1.0463
  851MOL0     H14852   5.010   2.476  11.600 -1.3242  1.4046 -1.0029
  851MOL0     H14853   4.938   2.568  11.387  1.0695 -0.4451 -0.0852
  851MOL0     H14854   4.911   2.406  11.314  1.7188 -1.3416  0.4490
  851MOL0     H14855   4.775   2.509  11.547  1.5271  0.6059 -0.5846
  851MOL0     H14856   4.763   2.336  11.503 -0.3341 -0.5896 -0.7363
  851MOL0     H14857   4.674   2.460  11.263  2.0684  0.0641 -0.4959
  851MOL0     H14858   4.578   2.441  11.409 -0.1334 -0.9897 -2.4203
  851MOL0     H14859   4.699   2.692  11.305 -0.4551  0.0293 -2.8738
  851MOL0     H14860   4.649   2.672  11.475  1.1973 -3.7459  1.1495
  851MOL0     H14861   4.463   2.754  11.315  1.4882  0.0745  0.4319
  851MOL0     H14862   4.458   2.605  11.221 -1.9117 -1.6342  0.7431
  851MOL0     H14863   4.413   2.610  11.525  2.0723 -0.6882 -1.0519
  851MOL0     H14864   4.374   2.483  11.412 -0.2175 -0.6466  2.6102
  851MOL0     H14865   4.237   2.758  11.472 -1.9979 -0.5009  0.9619
  851MOL0     H14866   4.169   2.604  11.480 -1.9018 -0.1324 -2.3385
  851MOL0     H14867   5.371   2.413  11.369 -1.1388 -1.2501  0.6428
  851MOL0     H14868   5.597   2.351  11.498  0.0479 -2.2861 -0.0613
  851MOL0     H14869   5.917   2.101  11.632 -3.4706  0.2295  0.2719
  851MOL0     H14870   6.142   2.102  11.743  2.2696  2.0673  1.0543
  851MOL0     H14871   7.108   1.281  10.904 -0.5386 -1.4586 -2.9391
  851MOL0     H14872   7.277   1.229  10.769 -1.7238  0.2214 -2.8379
  851MOL0     H14873   7.521   1.052  10.399 -3.0875  1.8940 -1.1612
  851MOL0     H14874   7.745   1.030  10.279 -1.1471 -0.4593  1.4402
  851MOL0     H14875   7.969   1.076  10.155  1.5913  0.1381 -1.3937
  851MOL0     H14876   7.850   1.169  10.067 -0.1116 -0.8413 -0.2650
  851MOL0     H14877   8.093   1.170   9.973 -0.9283 -2.1212 -0.0857
  851MOL0     H14878   8.141   1.263  10.112  1.5275 -1.5390 -0.4942
  851MOL0     H14879   7.991   1.453  10.037 -0.1619  0.1388  0.4352
  851MOL0     H14880   7.937   1.340   9.902  1.0858  0.8309 -1.7279
  851MOL0     H14881   8.085   1.500   9.808 -1.7075  0.0259  1.0108
  851MOL0     H14882   8.159   1.342   9.804  1.6736  0.2027 -0.4622
  851MOL0     H14883   8.445   1.548  10.031 -0.5965 -1.6219  0.6505
  851MOL0     H14884   7.831   1.439  10.359 -0.4283 -0.3446 -2.3377
  851MOL0     H14885   7.620   1.465  10.477  2.1892  0.8020 -2.7662
  852MOL0     O14886   7.580   4.281  10.119  0.4502  0.8018  0.3049
  852MOL0     C14887   7.667   4.356  10.077 -0.1401 -0.0520 -0.0318
  852MOL0     O14888   7.693   4.484  10.130 -0.8491  0.9507  0.4617
  852MOL0     C14889   7.592   4.546  10.197  0.7304 -0.7397 -0.3747
  852MOL0     C14890   7.606   4.578  10.329  0.0479 -0.2725  0.5550
  852MOL0     C14891   7.508   4.637  10.414 -0.2936 -0.1104  0.3225
  852MOL0     C14892   7.386   4.659  10.358  0.6724  0.1265 -0.6849
  852MOL0     O14893   7.278   4.700  10.437  0.3294  0.5430 -0.1466
  852MOL0     C14894   7.233   4.610  10.538 -0.5337  0.5113 -0.3161
  852MOL0     C14895   7.174   4.475  10.491 -0.6543  0.0814  0.2913
  852MOL0     C14896   7.030   4.490  10.447 -0.3929  0.8906 -0.0952
  852MOL0     C14897   6.931   4.522  10.561 -0.3811  1.0016  0.0460
  852MOL0     C14898   6.793   4.495  10.522  0.0147 -0.4186  0.3270
  852MOL0     C14899   6.687   4.527  10.640 -0.0906  0.1818 -1.2123
  852MOL0     C14900   6.559   4.436  10.635 -0.4313 -0.1142 -0.9104
  852MOL0     C14901   6.510   4.430  10.493  0.4132 -0.6967 -0.6752
  852MOL0     N14902   6.391   4.350  10.465  0.5944 -0.6312  0.5525
  852MOL0     C14903   6.271   4.404  10.414  0.2035  0.0797 -0.3714
  852MOL0     C14904   6.190   4.296  10.416  0.2348 -0.4686 -0.1215
  852MOL0     C14905   6.042   4.295  10.399  0.8381 -0.1103 -0.1765
  852MOL0     C14906   5.986   4.204  10.289 -0.4144  0.0821  0.0381
  852MOL0     C14907   5.996   4.050  10.315 -0.3068 -0.2338 -0.1487
  852MOL0     C14908   5.859   3.986  10.279 -0.2916 -0.2718  0.5400
  852MOL0     O14909   5.757   4.022  10.380 -0.4942 -0.4048  0.2301
  852MOL0     C14910   5.628   3.995  10.339 -0.0083 -0.4837 -0.4871
  852MOL0     C14911   5.587   3.914  10.231 -1.1460  0.1461  0.4174
  852MOL0     C14912   5.451   3.897  10.193 -0.0200 -0.0770  0.4848
  852MOL0     C14913   5.430   3.801  10.083 -0.0024  0.3914  0.5079
  852MOL0     C14914   5.351   3.972  10.255 -0.5684 -0.2077  0.4749
  852MOL0     C14915   5.213   3.975  10.208  0.9980  0.8316 -0.0133
  852MOL0     O14916   5.136   4.078  10.261 -1.2901 -0.2690 -0.2649
  852MOL0     C14917   5.005   4.100  10.215  0.7375  0.3357 -0.1278
  852MOL0     C14918   4.969   4.107  10.077 -0.6268 -0.2832  0.1069
  852MOL0     C14919   4.837   4.155  10.047  0.8084 -0.0373 -0.9054
  852MOL0     C14920   4.739   4.177  10.148 -0.3644  0.3072  0.9146
  852MOL0     O14921   4.619   4.214  10.108  0.0362  0.3966 -0.0359
  852MOL0     C14922   4.508   4.223  10.206  0.5172 -0.6368  0.6101
  852MOL0     C14923   4.369   4.248  10.132  0.1947  0.3143  0.6357
  852MOL0     C14924   4.257   4.262  10.228  0.0446  0.3473 -0.9231
  852MOL0     C14925   4.138   4.188  10.187  0.4772 -0.5484 -1.2463
  852MOL0     C14926   4.016   4.240  10.265  0.6736 -0.3031  0.2848
  852MOL0     C14927   3.884   4.166  10.224  0.3824  0.0327  0.1133
  852MOL0     C14928   3.771   4.204  10.320  0.1802  0.4612 -0.7370
  852MOL0     C14929   3.636   4.134  10.279 -0.4945  0.5366 -0.6519
  852MOL0    Cl14930   3.526   4.122  10.428  0.0574 -0.3112  0.2660
  852MOL0     C14931   4.779   4.163  10.278  0.3098  0.5319 -0.0585
  852MOL0     C14932   4.909   4.137  10.309  1.0376  0.4995 -0.3746
  852MOL0     O14933   5.175   3.884  10.136 -0.2497  0.0122  0.2756
  852MOL0     C14934   5.394   4.060  10.351 -0.0379 -0.0103 -0.7054
  852MOL0     C14935   5.524   4.066  10.406  0.9150  0.1566  0.8909
  852MOL0     N14936   6.263   4.188  10.461 -0.0587 -0.0143 -0.3165
  852MOL0     N14937   6.370   4.227  10.488 -0.1063  0.6029 -0.5215
  852MOL0     C14938   7.357   4.632  10.222 -1.2089  0.3129  0.7867
  852MOL0     C14939   7.468   4.581  10.141  0.1445  0.0979  0.0047
  852MOL0     C14940   7.749   4.303   9.964  0.3095  0.5529  0.3461
  852MOL0     C14941   7.808   4.390   9.875  1.0805 -1.4421 -1.2439
  852MOL0     C14942   7.872   4.338   9.758 -0.1353 -0.0777 -0.1146
  852MOL0     C14943   7.886   4.197   9.748 -0.0698 -0.8485 -0.9826
  852MOL0     O14944   7.958   4.149   9.642 -0.6727  0.1160  0.2279
  852MOL0     C14945   7.922   4.024   9.584 -0.4310  0.3552  0.3585
  852MOL0     C14946   7.889   4.017   9.427 -1.1672 -0.5725 -0.2535
  852MOL0     C14947   7.985   4.101   9.346 -0.5890 -0.6078 -0.0006
  852MOL0     C14948   7.966   4.106   9.191 -0.2268 -0.0409  0.2051
  852MOL0     C14949   8.068   4.181   9.118  0.0956 -0.0300 -0.2124
  852MOL0     C14950   8.160   4.251   9.084 -0.2865  0.6452  0.5093
  852MOL0     C14951   7.840   4.114   9.846 -0.2024 -0.1653 -0.5515
  852MOL0     C14952   7.773   4.165   9.956 -0.0856  0.0124 -0.1585
  852MOL0     H14953   7.706   4.556  10.365  0.8726  2.6658  0.3250
  852MOL0     H14954   7.535   4.652  10.518  3.1674 -1.7693 -0.1885
  852MOL0     H14955   7.305   4.601  10.620 -0.6341  1.3424 -0.1228
  852MOL0     H14956   7.152   4.661  10.592  0.2208  0.0165  1.3372
  852MOL0     H14957   7.235   4.442  10.406 -1.9413 -0.0196 -0.6273
  852MOL0     H14958   7.189   4.410  10.578  5.0714  0.3780 -0.0939
  852MOL0     H14959   7.023   4.570  10.373  1.2776 -2.7519 -4.6780
  852MOL0     H14960   7.004   4.405  10.384 -1.0576  0.7930  0.3063
  852MOL0     H14961   6.958   4.446  10.635 -1.3159  0.4635 -0.1530
  852MOL0     H14962   6.951   4.625  10.593  1.3978  0.7275 -0.0439
  852MOL0     H14963   6.786   4.556  10.431  2.8880  3.1207  2.2333
  852MOL0     H14964   6.770   4.391  10.499 -2.9643 -0.8894  4.3289
  852MOL0     H14965   6.733   4.509  10.738 -3.8648 -3.8439  0.1691
  852MOL0     H14966   6.655   4.631  10.649 -0.1049 -0.0298  2.8804
  852MOL0     H14967   6.593   4.342  10.679  4.2406  0.6480 -2.3857
  852MOL0     H14968   6.487   4.477  10.706  0.7532 -0.2905  0.4364
  852MOL0     H14969   6.576   4.389  10.415 -1.6001 -0.7098 -2.4650
  852MOL0     H14970   6.500   4.535  10.466 -0.6625 -0.2676  1.2505
  852MOL0     H14971   6.253   4.506  10.379 -1.6267  1.9701  4.9728
  852MOL0     H14972   6.010   4.259  10.497  1.6133 -2.2986 -0.6614
  852MOL0     H14973   5.997   4.394  10.392  1.4855  0.2464  0.5742
  852MOL0     H14974   6.018   4.223  10.186 -2.7166  0.3159 -0.6989
  852MOL0     H14975   5.880   4.227  10.272 -1.1722 -2.8372  0.3645
  852MOL0     H14976   6.004   4.022  10.421  1.0940 -2.3094 -0.7456
  852MOL0     H14977   6.081   4.006  10.262 -1.6561 -2.8635 -0.2769
  852MOL0     H14978   5.872   3.878  10.273  1.0208 -0.0777 -0.5946
  852MOL0     H14979   5.833   4.020  10.179  1.9114  0.3854  0.1242
  852MOL0     H14980   5.661   3.850  10.184 -0.3961 -0.6346  2.5576
  852MOL0     H14981   5.525   3.757  10.052  0.0938  0.0492  1.2656
  852MOL0     H14982   5.367   3.717  10.115  1.2227 -1.3552 -1.3754
  852MOL0     H14983   5.384   3.858  10.002 -2.6893 -0.4169  1.3374
  852MOL0     H14984   5.044   4.097   9.999 -1.6173  0.9255 -1.0265
  852MOL0     H14985   4.814   4.175   9.942  2.3842 -1.4425 -1.5690
  852MOL0     H14986   4.508   4.127  10.259  1.0720 -0.1092  1.5951
  852MOL0     H14987   4.513   4.309  10.273 -1.7165 -1.2295  1.6604
  852MOL0     H14988   4.372   4.337  10.069 -0.3191 -1.2503 -1.7511
  852MOL0     H14989   4.352   4.152  10.081 -0.4108 -0.5293  2.3494
  852MOL0     H14990   4.228   4.364  10.254 -0.6733 -0.6646  2.9764
  852MOL0     H14991   4.275   4.210  10.323  1.3532  0.8131 -0.9036
  852MOL0     H14992   4.112   4.200  10.081  0.8300  1.2495 -1.1589
  852MOL0     H14993   4.159   4.083  10.205  1.4372 -0.2174 -0.3264
  852MOL0     H14994   3.998   4.341  10.226  3.1416 -1.3097 -4.1919
  852MOL0     H14995   4.025   4.236  10.374 -2.0327  0.0273  0.6095
  852MOL0     H14996   3.842   4.178  10.124 -0.2267  3.3643  0.6522
  852MOL0     H14997   3.897   4.058  10.238  2.7483  0.4634  2.0505
  852MOL0     H14998   3.761   4.313  10.323  1.7869  0.5931  0.4101
  852MOL0     H14999   3.791   4.172  10.422  1.8193  1.0079 -0.8661
  852MOL0     H15000   3.649   4.029  10.250  1.5291  0.5526  0.0264
  852MOL0     H15001   3.598   4.189  10.193  0.9234  0.3371 -1.4442
  852MOL0     H15002   4.714   4.181  10.363 -1.1327  1.8045 -1.3716
  852MOL0     H15003   4.949   4.148  10.410  0.8593  1.7943 -0.4251
  852MOL0     H15004   5.329   4.139  10.388  1.7561  2.8296 -3.0720
  852MOL0     H15005   5.552   4.129  10.490 -3.2535  0.2637  2.4355
  852MOL0     H15006   7.264   4.663  10.175 -0.6799 -2.7580 -2.6941
  852MOL0     H15007   7.464   4.549  10.037  2.2546 -0.8633  0.1761
  852MOL0     H15008   7.802   4.496   9.899 -0.9661 -1.6599 -0.5539
  852MOL0     H15009   7.932   4.392   9.685 -1.4270 -0.6637 -1.6807
  852MOL0     H15010   8.007   3.957   9.602 -1.0559 -0.0783  1.8398
  852MOL0     H15011   7.831   3.993   9.636  0.7842 -2.3177  1.0644
  852MOL0     H15012   7.790   4.064   9.432  0.3868  3.3312 -2.0298
  852MOL0     H15013   7.866   3.916   9.390 -0.8774  0.0867 -2.4191
  852MOL0     H15014   8.087   4.065   9.361 -0.9071 -2.5234 -1.9092
  852MOL0     H15015   7.976   4.202   9.389 -0.9334 -1.7610  2.8942
  852MOL0     H15016   7.868   4.152   9.176 -1.3053 -1.8479  1.3411
  852MOL0     H15017   7.974   4.002   9.158  3.9236 -0.5626  2.1739
  852MOL0     H15018   8.245   4.300   9.040  0.4197 -0.6677  0.3668
  852MOL0     H15019   7.862   4.008   9.842  3.6648  0.5069 -0.6118
  852MOL0     H15020   7.745   4.097  10.037  0.6585  0.6788  0.6849
  853MOL0     O15021   6.463   8.186   3.212  0.0181 -0.7716  0.7250
  853MOL0     C15022   6.407   8.267   3.137 -0.5637 -0.2470  0.5503
  853MOL0     O15023   6.465   8.359   3.054  0.2319 -0.7067  0.5042
  853MOL0     C15024   6.602   8.354   3.054  0.2669 -0.3845 -0.4785
  853MOL0     C15025   6.672   8.455   3.116 -1.5440 -0.4079 -0.4881
  853MOL0     C15026   6.811   8.458   3.114 -0.5545 -0.3782 -0.6855
  853MOL0     C15027   6.883   8.369   3.030 -0.1862 -0.8778  0.8183
  853MOL0     O15028   7.021   8.362   3.025  0.5782 -0.0589 -0.3961
  853MOL0     C15029   7.110   8.460   3.081  0.9436 -0.5770 -0.1058
  853MOL0     C15030   7.250   8.444   3.026  0.9034 -0.2616 -0.5566
  853MOL0     C15031   7.254   8.475   2.875  0.0572 -0.2864  0.7872
  853MOL0     C15032   7.390   8.471   2.810  0.4544 -0.0069 -0.3689
  853MOL0     C15033   7.384   8.473   2.656 -0.6142  0.1149  0.2841
  853MOL0     C15034   7.371   8.624   2.622  0.1727  0.3720 -0.0502
  853MOL0     C15035   7.386   8.644   2.473 -0.8291 -1.3210  0.0962
  853MOL0     C15036   7.412   8.792   2.449 -0.0161  0.2122  0.1055
  853MOL0     N15037   7.416   8.816   2.302 -0.2813  0.2420  0.6119
  853MOL0     C15038   7.304   8.841   2.223 -0.2476  0.2954 -0.5932
  853MOL0     C15039   7.354   8.851   2.102 -0.5018 -0.2390 -0.2881
  853MOL0     C15040   7.288   8.852   1.970  0.1916  0.4766 -1.3217
  853MOL0     C15041   7.329   8.982   1.893  0.6432 -0.3089  0.0210
  853MOL0     C15042   7.253   8.976   1.760 -0.1079 -0.1060  0.5359
  853MOL0     C15043   7.109   9.039   1.742 -0.1841 -0.3419 -0.6937
  853MOL0     O15044   7.031   9.005   1.849 -0.2677  0.5440 -0.0718
  853MOL0     C15045   6.902   9.049   1.839  0.0504  0.2577  0.1991
  853MOL0     C15046   6.838   9.145   1.761 -1.0522 -0.3286  0.3273
  853MOL0     C15047   6.703   9.178   1.752  0.3622  0.1205 -0.5828
  853MOL0     C15048   6.672   9.287   1.654  0.7276 -0.4574  0.3569
  853MOL0     C15049   6.619   9.107   1.839  0.8353  0.0203  0.9863
  853MOL0     C15050   6.470   9.129   1.845 -0.8560  0.8242  0.0608
  853MOL0     O15051   6.403   9.049   1.942 -0.0177 -0.8788 -0.4144
  853MOL0     C15052   6.269   9.065   1.952  0.1444 -0.5370 -0.5122
  853MOL0     C15053   6.176   8.976   1.885  0.4320 -0.6829  0.5451
  853MOL0     C15054   6.036   8.998   1.887 -0.1013 -0.1317 -0.6633
  853MOL0     C15055   5.980   9.104   1.959 -0.0578 -0.2416  0.1837
  853MOL0     O15056   5.845   9.119   1.934  0.4271  0.6489  0.0128
  853MOL0     C15057   5.780   9.232   1.986 -0.0970 -0.6011 -0.1961
  853MOL0     C15058   5.624   9.224   1.975 -0.1608  0.8123 -0.2232
  853MOL0     C15059   5.595   9.206   1.830  0.8765  0.0130  0.0294
  853MOL0     C15060   5.439   9.211   1.822 -0.0719  0.0547  0.7023
  853MOL0     C15061   5.392   9.169   1.683  0.3927 -0.2052 -0.3314
  853MOL0     C15062   5.246   9.137   1.696  0.3437 -1.0362  0.3981
  853MOL0     C15063   5.195   9.101   1.553  0.2080  0.4093 -0.7960
  853MOL0     C15064   5.059   9.026   1.564  0.3022 -0.5104  0.0670
  853MOL0    Cl15065   4.925   9.131   1.616  0.0255  0.1454 -0.0802
  853MOL0     C15066   6.065   9.190   2.030 -0.6278 -0.5779  0.7446
  853MOL0     C15067   6.211   9.172   2.020  0.2005 -0.7744 -0.3020
  853MOL0     O15068   6.423   9.214   1.773  0.5374  0.0276  0.5132
  853MOL0     C15069   6.680   9.003   1.923  0.2084  0.1756  0.4982
  853MOL0     C15070   6.817   8.974   1.917 -1.1683 -0.7072  0.4199
  853MOL0     N15071   7.491   8.847   2.107  0.3262 -0.9647  0.7021
  853MOL0     N15072   7.526   8.830   2.232  0.0141 -0.0487 -0.3388
  853MOL0     C15073   6.810   8.270   2.967 -0.1437  1.0744 -0.7763
  853MOL0     C15074   6.668   8.253   2.983 -0.5843  0.4277 -0.0056
  853MOL0     C15075   6.262   8.289   3.152  0.1114  0.0107  1.5929
  853MOL0     C15076   6.191   8.397   3.087 -0.6020 -0.1684  0.3069
  853MOL0     C15077   6.053   8.405   3.096  0.2917 -0.4992 -0.9907
  853MOL0     C15078   5.969   8.312   3.156  0.2452  0.8054 -0.1143
  853MOL0     O15079   5.832   8.309   3.187 -0.8550  0.5124 -0.3341
  853MOL0     C15080   5.753   8.416   3.153  0.2131  0.5647  0.0270
  853MOL0     C15081   5.607   8.366   3.168  0.5634 -0.4760 -0.0263
  853MOL0     C15082   5.509   8.480   3.146  0.8458  0.7429 -0.6199
  853MOL0     C15083   5.371   8.433   3.197  0.7367 -0.0876  0.3524
  853MOL0     C15084   5.310   8.332   3.100  0.0870 -0.6115  0.4652
  853MOL0     C15085   5.242   8.256   3.038  0.1359 -0.2550 -0.0558
  853MOL0     C15086   6.040   8.201   3.204  1.6193 -0.1960  0.0282
  853MOL0     C15087   6.176   8.198   3.211 -0.2866  0.4785  0.5274
  853MOL0     H15088   6.622   8.531   3.175  0.9818  0.9754  0.0207
  853MOL0     H15089   6.860   8.528   3.180  2.1016 -1.7796 -1.0049
  853MOL0     H15090   7.080   8.561   3.050  0.0304 -0.6163  0.5974
  853MOL0     H15091   7.122   8.462   3.190  0.2758  0.7524 -0.0359
  853MOL0     H15092   7.320   8.516   3.069  1.1951 -0.1486 -1.2042
  853MOL0     H15093   7.291   8.346   3.049  1.5280 -0.3366 -1.8910
  853MOL0     H15094   7.184   8.406   2.827 -1.8989 -1.1850  4.5584
  853MOL0     H15095   7.209   8.570   2.847  1.9829  1.3580  2.9127
  853MOL0     H15096   7.441   8.563   2.840  1.5459  0.4277 -3.2215
  853MOL0     H15097   7.451   8.384   2.835  1.0290  1.3091  3.3967
  853MOL0     H15098   7.480   8.436   2.618 -0.9346 -0.6018  0.1510
  853MOL0     H15099   7.304   8.419   2.605 -1.2118  0.2939  1.0211
  853MOL0     H15100   7.276   8.660   2.661 -0.2781 -0.3778 -0.4438
  853MOL0     H15101   7.452   8.681   2.669 -0.5626  0.9834  0.5035
  853MOL0     H15102   7.470   8.590   2.428  0.1963 -1.8758  2.5013
  853MOL0     H15103   7.291   8.612   2.429 -0.7567 -1.3057 -0.0712
  853MOL0     H15104   7.508   8.827   2.488  0.3714 -0.7136 -0.0079
  853MOL0     H15105   7.337   8.853   2.502 -2.7254 -2.2074 -0.7035
  853MOL0     H15106   7.198   8.825   2.236  0.2437 -0.7051  3.2209
  853MOL0     H15107   7.311   8.761   1.915 -2.0483 -0.8506 -0.2101
  853MOL0     H15108   7.179   8.856   1.983  0.1544 -0.1765 -1.3925
  853MOL0     H15109   7.438   8.990   1.883  0.4501  2.1856 -0.8161
  853MOL0     H15110   7.290   9.064   1.955 -0.3271 -0.8927  0.2089
  853MOL0     H15111   7.260   8.871   1.727  0.8728  0.1820 -0.2588
  853MOL0     H15112   7.317   9.035   1.693  0.1236 -0.5753  0.3360
  853MOL0     H15113   7.063   9.014   1.646  1.2211 -0.5168 -1.3420
  853MOL0     H15114   7.116   9.148   1.745 -0.1404 -0.3618  0.7910
  853MOL0     H15115   6.905   9.193   1.691  1.1139 -2.6039  0.7094
  853MOL0     H15116   6.753   9.303   1.582  0.7177 -1.0768  0.2055
  853MOL0     H15117   6.585   9.271   1.590  0.4332  2.6743 -0.2060
  853MOL0     H15118   6.652   9.383   1.702  1.4124 -0.2877  0.3107
  853MOL0     H15119   6.226   8.901   1.824 -0.6272 -1.6464  0.8168
  853MOL0     H15120   5.961   8.943   1.831  0.3613 -1.2841 -0.1842
  853MOL0     H15121   5.805   9.228   2.092  0.8149  2.4732 -0.2067
  853MOL0     H15122   5.820   9.328   1.952  0.3462 -1.0002 -0.8307
  853MOL0     H15123   5.595   9.137   2.035  3.0800 -0.0332  0.3276
  853MOL0     H15124   5.558   9.299   2.020 -0.6100 -0.5446  1.5013
  853MOL0     H15125   5.621   9.108   1.790  0.1075  0.1953 -0.9704
  853MOL0     H15126   5.642   9.281   1.766  0.9343 -2.2785 -2.8206
  853MOL0     H15127   5.411   9.139   1.900 -1.8963 -0.4886 -0.4145
  853MOL0     H15128   5.407   9.315   1.834 -1.8540 -0.2416 -1.0416
  853MOL0     H15129   5.443   9.075   1.662  2.6697  0.6714  0.8048
  853MOL0     H15130   5.416   9.252   1.615  0.4486  1.3930  1.5359
  853MOL0     H15131   5.235   9.047   1.757 -0.7174 -1.4931 -0.4233
  853MOL0     H15132   5.194   9.224   1.737  0.7801 -0.7436  0.3407
  853MOL0     H15133   5.258   9.036   1.491 -1.0490 -3.6145  1.7869
  853MOL0     H15134   5.182   9.190   1.491 -2.1111  0.8329  0.1751
  853MOL0     H15135   5.070   8.945   1.636 -2.3750  0.7193  2.0508
  853MOL0     H15136   5.024   8.996   1.465 -0.6843  0.0534  0.2298
  853MOL0     H15137   6.021   9.280   2.070 -1.6899  0.7685 -3.0246
  853MOL0     H15138   6.273   9.249   2.065  1.1356 -0.9225 -1.2908
  853MOL0     H15139   6.620   8.945   1.993  1.5532 -1.2654  0.5218
  853MOL0     H15140   6.864   8.891   1.969 -0.3333 -1.4682 -1.4536
  853MOL0     H15141   6.856   8.189   2.911 -0.6565  0.5232 -0.4260
  853MOL0     H15142   6.615   8.173   2.932 -1.1274  0.5041  0.4314
  853MOL0     H15143   6.246   8.472   3.031 -0.9910 -1.8042 -2.4686
  853MOL0     H15144   6.010   8.487   3.040 -1.7811 -0.9011 -0.0582
  853MOL0     H15145   5.773   8.503   3.216 -0.7142 -0.1232  1.3156
  853MOL0     H15146   5.765   8.453   3.050 -1.6310  0.5062 -0.2505
  853MOL0     H15147   5.594   8.318   3.266  1.4544 -2.4748 -0.8416
  853MOL0     H15148   5.596   8.285   3.095  2.5622 -1.7121  0.9485
  853MOL0     H15149   5.491   8.499   3.039 -0.5303  1.9753 -0.2022
  853MOL0     H15150   5.531   8.577   3.192 -2.2205  1.0995  0.2530
  853MOL0     H15151   5.300   8.516   3.202 -0.8381 -1.3835  0.3152
  853MOL0     H15152   5.373   8.383   3.294  0.5688 -1.3319 -0.2606
  853MOL0     H15153   5.171   8.180   3.015  1.1844 -1.2071 -0.2178
  853MOL0     H15154   5.979   8.119   3.241  2.2325 -0.0529  1.4170
  853MOL0     H15155   6.227   8.118   3.264 -0.2368  0.3805  0.3331
  854MOL0     O15156   1.299   1.558   8.915 -0.3504 -0.1157  0.0863
  854MOL0     C15157   1.262   1.442   8.888  1.0673 -0.3566 -0.6104
  854MOL0     O15158   1.134   1.392   8.905  0.1441  0.1225  0.2254
  854MOL0     C15159   1.021   1.469   8.928  0.0085 -0.2869  0.6528
  854MOL0     C15160   1.009   1.607   8.902  0.0508 -0.1418  0.3185
  854MOL0     C15161   0.901   1.680   8.939  0.4036  0.6033 -0.3743
  854MOL0     C15162   0.785   1.616   8.989  0.4720  0.4261  0.9945
  854MOL0     O15163   0.666   1.684   9.023  0.2239  0.9569 -0.1817
  854MOL0     C15164   0.656   1.829   9.026 -0.5394 -0.2410  0.2842
  854MOL0     C15165   0.503   1.867   9.053 -1.1042 -0.8660  0.4079
  854MOL0     C15166   0.478   2.010   9.091  0.1277 -0.0593  0.0976
  854MOL0     C15167   0.342   2.047   9.031  0.0434  0.1451  0.0360
  854MOL0     C15168   0.218   1.964   9.089 -0.2761  0.4970  0.0384
  854MOL0     C15169   0.199   1.965   9.242 -0.1160  0.6319 -0.7800
  854MOL0     C15170   0.059   1.919   9.278 -0.0308 -0.2961 -0.8636
  854MOL0     C15171   0.012   1.924   9.422  0.6278  0.3875 -0.0631
  854MOL0     N15172  -0.137   1.931   9.414  0.3979 -0.2733  0.6348
  854MOL0     C15173  -0.204   2.048   9.378 -0.0309  0.3851  0.1257
  854MOL0     C15174  -0.332   2.005   9.387  1.3650 -0.1034  0.1427
  854MOL0     C15175  -0.455   2.084   9.336 -0.2050  0.6462  0.7695
  854MOL0     C15176  -0.508   2.038   9.198  0.0605 -0.5684  0.7621
  854MOL0     C15177  -0.554   1.893   9.202  0.7921  0.6413 -0.6333
  854MOL0     C15178  -0.655   1.878   9.084  0.9727  0.5198 -0.2854
  854MOL0     O15179  -0.786   1.922   9.135 -0.4038  0.4807  0.1758
  854MOL0     C15180  -0.903   1.872   9.087 -0.0055  0.4665 -0.2059
  854MOL0     C15181  -1.004   1.851   9.178  0.2232 -0.9472  0.0956
  854MOL0     C15182  -1.135   1.800   9.137 -0.6024 -0.7884  0.1342
  854MOL0     C15183  -1.231   1.769   9.243  0.7088  0.2006 -1.2897
  854MOL0     C15184  -1.158   1.771   8.997 -0.0148 -0.2812 -0.2360
  854MOL0     C15185  -1.285   1.728   8.938  0.5502 -0.2811  0.6366
  854MOL0     O15186  -1.389   1.709   9.016 -0.1495 -0.0025 -0.4660
  854MOL0     C15187  -1.525   1.714   8.972  0.0850 -0.4665 -0.4599
  854MOL0     C15188  -1.622   1.658   9.058 -0.5690 -0.0184 -0.5490
  854MOL0     C15189  -1.758   1.667   9.027  0.1309 -0.1769  0.0641
  854MOL0     C15190  -1.802   1.731   8.915 -0.1921 -0.7070 -0.7523
  854MOL0     O15191  -1.941   1.733   8.893 -0.3943  0.1447  0.3832
  854MOL0     C15192  -2.001   1.853   8.872 -0.8282  0.4882  0.1200
  854MOL0     C15193  -2.149   1.830   8.844 -0.4895  0.4275  0.2736
  854MOL0     C15194  -2.207   1.971   8.833 -0.3627 -1.1456 -0.1472
  854MOL0     C15195  -2.358   1.962   8.804 -0.5356 -0.3375  0.7048
  854MOL0     C15196  -2.404   2.100   8.757 -0.3419  0.2078  0.1804
  854MOL0     C15197  -2.556   2.093   8.733  0.5035 -0.2758  0.6845
  854MOL0     C15198  -2.625   2.227   8.748 -0.1157  0.4839 -0.3333
  854MOL0     C15199  -2.635   2.314   8.624  0.2390 -0.6737 -0.3174
  854MOL0    Cl15200  -2.469   2.349   8.569  0.3618 -1.1324 -0.1088
  854MOL0     C15201  -1.715   1.800   8.829 -0.4721 -0.8712  0.5240
  854MOL0     C15202  -1.579   1.790   8.863  0.1671  0.7536  0.4654
  854MOL0     O15203  -1.284   1.720   8.814  0.4934 -0.3696 -0.1982
  854MOL0     C15204  -1.053   1.796   8.915 -0.3034  0.1767  0.1255
  854MOL0     C15205  -0.931   1.843   8.961 -0.1621  0.2696  0.1764
  854MOL0     N15206  -0.341   1.871   9.411 -0.0540  0.6967 -0.0239
  854MOL0     N15207  -0.220   1.823   9.434  0.4002 -0.3566 -0.6520
  854MOL0     C15208   0.795   1.484   9.023  0.6482  0.1514 -1.0807
  854MOL0     C15209   0.909   1.409   8.996  0.4021  0.5047  0.3020
  854MOL0     C15210   1.357   1.358   8.836  0.1231  0.8987  0.8054
  854MOL0     C15211   1.486   1.410   8.804 -0.6621 -0.1270 -0.7906
  854MOL0     C15212   1.582   1.329   8.728  0.7339  0.2534 -0.7276
  854MOL0     C15213   1.556   1.198   8.705 -1.4443 -0.1765  0.2335
  854MOL0     O15214   1.646   1.105   8.648  0.6984 -0.3936 -0.5325
  854MOL0     C15215   1.772   1.142   8.606 -0.7271 -1.0707 -0.3482
  854MOL0     C15216   1.882   1.161   8.713 -0.4433 -0.2547  0.7695
  854MOL0     C15217   1.988   1.261   8.670  0.2305  0.2024 -0.3198
  854MOL0     C15218   2.050   1.227   8.534 -0.3451  0.2841 -0.7052
  854MOL0     C15219   2.088   1.083   8.538  0.0410  0.2387  0.2936
  854MOL0     C15220   2.118   0.965   8.508  1.5672 -0.5639  0.0982
  854MOL0     C15221   1.433   1.145   8.750  0.2791  0.8957 -0.2513
  854MOL0     C15222   1.333   1.221   8.810 -0.0757  0.0511  0.1964
  854MOL0     H15223   1.087   1.658   8.847 -0.7257  0.5328 -0.1716
  854MOL0     H15224   0.893   1.786   8.917  0.2497  0.8209  0.6498
  854MOL0     H15225   0.723   1.873   9.100 -0.9221  0.2781  0.3317
  854MOL0     H15226   0.684   1.872   8.929 -0.3027 -0.8532  0.0775
  854MOL0     H15227   0.451   1.852   8.958 -0.7812  3.0446 -0.5454
  854MOL0     H15228   0.475   1.809   9.141 -1.5468  1.8644  2.1521
  854MOL0     H15229   0.461   2.012   9.199 -3.5562  1.7714 -0.3505
  854MOL0     H15230   0.569   2.067   9.069  0.6341 -1.7756 -2.7562
  854MOL0     H15231   0.335   2.151   9.064  1.2043 -0.4559  2.4145
  854MOL0     H15232   0.351   2.028   8.924  5.4849  2.6901 -0.2733
  854MOL0     H15233   0.129   2.017   9.053 -0.2842 -0.6974 -1.8520
  854MOL0     H15234   0.216   1.865   9.042  1.0891 -1.2476  3.2936
  854MOL0     H15235   0.270   1.888   9.274  0.7799  0.3263 -3.2836
  854MOL0     H15236   0.231   2.061   9.283 -1.9922  1.2593 -0.6710
  854MOL0     H15237   0.001   1.994   9.224  1.4593 -0.4591 -2.8373
  854MOL0     H15238   0.046   1.818   9.237  2.0027 -1.4223  1.0649
  854MOL0     H15239   0.050   2.016   9.466  0.9391  0.5474 -0.6490
  854MOL0     H15240   0.046   1.836   9.477 -0.4986  0.2493  0.4521
  854MOL0     H15241  -0.165   2.143   9.342  0.4997  0.6363  1.3116
  854MOL0     H15242  -0.540   2.072   9.404 -0.4338 -0.9045  0.2293
  854MOL0     H15243  -0.424   2.188   9.322  0.8056  0.1638 -0.7872
  854MOL0     H15244  -0.433   2.060   9.122 -2.0462  0.5863 -1.1190
  854MOL0     H15245  -0.604   2.087   9.177  0.2742 -0.7574 -0.7437
  854MOL0     H15246  -0.607   1.869   9.295  2.8331  0.6315  0.5795
  854MOL0     H15247  -0.465   1.831   9.191  1.7711  1.5107  1.6661
  854MOL0     H15248  -0.662   1.774   9.053  1.6060  1.4065 -3.8762
  854MOL0     H15249  -0.626   1.938   8.997 -2.9106  0.0051 -2.1573
  854MOL0     H15250  -0.978   1.860   9.283  0.6221 -1.0809  0.0086
  854MOL0     H15251  -1.176   1.769   9.337 -1.3657  1.0155 -0.0282
  854MOL0     H15252  -1.303   1.850   9.255  1.4722  0.4987  2.5021
  854MOL0     H15253  -1.287   1.675   9.235 -1.3432  1.1195  1.2316
  854MOL0     H15254  -1.582   1.606   9.144  0.7355  1.6214 -0.1023
  854MOL0     H15255  -1.838   1.620   9.083  0.7528 -1.6021 -0.2011
  854MOL0     H15256  -1.980   1.922   8.954  3.7908 -0.7537  0.2364
  854MOL0     H15257  -1.956   1.905   8.787 -2.0257  0.7281 -0.3955
  854MOL0     H15258  -2.166   1.763   8.759  1.7218  1.1345 -0.7871
  854MOL0     H15259  -2.195   1.780   8.930  1.9559 -3.3950 -0.3740
  854MOL0     H15260  -2.149   2.026   8.758  1.0998  2.2576  3.1570
  854MOL0     H15261  -2.195   2.034   8.922 -0.2098 -0.8324 -0.3859
  854MOL0     H15262  -2.389   1.882   8.736  0.8367 -0.2491 -0.0520
  854MOL0     H15263  -2.409   1.931   8.896  1.9059 -1.4402  1.7604
  854MOL0     H15264  -2.358   2.143   8.668  1.1293  0.3854  0.9762
  854MOL0     H15265  -2.377   2.174   8.833  3.0086  0.0121 -0.6572
  854MOL0     H15266  -2.578   2.072   8.628  1.1222  2.8516 -0.1552
  854MOL0     H15267  -2.600   2.016   8.798  0.4205  0.2432  1.2563
  854MOL0     H15268  -2.579   2.288   8.827 -0.8573 -0.2628  0.7122
  854MOL0     H15269  -2.728   2.205   8.779  0.5771 -1.5994  0.6914
  854MOL0     H15270  -2.687   2.410   8.631 -0.0401 -0.9173  1.2222
  854MOL0     H15271  -2.684   2.255   8.546 -0.6189  0.9884 -1.0951
  854MOL0     H15272  -1.741   1.852   8.738  2.9203 -1.1523 -0.7612
  854MOL0     H15273  -1.501   1.830   8.799  1.1193 -0.0690  1.0667
  854MOL0     H15274  -1.064   1.793   8.807  1.5327  2.1303 -0.1748
  854MOL0     H15275  -0.853   1.861   8.888 -1.2811 -1.0873 -1.4669
  854MOL0     H15276   0.705   1.451   9.075 -0.8524  1.7190 -2.5774
  854MOL0     H15277   0.899   1.304   9.020  0.2148  0.3931 -0.2310
  854MOL0     H15278   1.512   1.512   8.833  1.8627 -0.8077 -0.3696
  854MOL0     H15279   1.671   1.380   8.692  1.0981 -0.1632 -0.4354
  854MOL0     H15280   1.818   1.070   8.538 -0.2515 -0.5670 -0.5670
  854MOL0     H15281   1.764   1.233   8.546 -2.6272 -1.9431 -1.5065
  854MOL0     H15282   1.924   1.064   8.742 -0.5921 -0.6909 -0.4312
  854MOL0     H15283   1.843   1.214   8.801 -1.2983 -1.3072  1.0589
  854MOL0     H15284   2.069   1.250   8.743 -1.8613 -0.8134  2.0138
  854MOL0     H15285   1.956   1.365   8.675 -0.7240  0.0296 -2.0053
  854MOL0     H15286   2.137   1.290   8.516  0.1727 -1.2301 -4.2787
  854MOL0     H15287   1.986   1.253   8.449 -1.4075 -2.4648 -0.8534
  854MOL0     H15288   2.126   0.867   8.465 -0.2224 -1.1341  1.0018
  854MOL0     H15289   1.397   1.042   8.752 -4.2292  2.2191 -1.1489
  854MOL0     H15290   1.240   1.176   8.841 -1.6332  1.8344 -1.5808
  855MOL0     O15291   4.490   1.833   5.068  0.4815  1.0394 -0.6434
  855MOL0     C15292   4.514   1.778   4.960 -0.1989 -1.1645  1.6564
  855MOL0     O15293   4.448   1.806   4.848  0.1486 -0.0980 -0.2017
  855MOL0     C15294   4.328   1.854   4.835  0.2255 -0.1991 -0.7924
  855MOL0     C15295   4.231   1.827   4.932  0.1734  0.0336  0.4096
  855MOL0     C15296   4.098   1.867   4.908  1.1014  0.1476 -0.2764
  855MOL0     C15297   4.068   1.939   4.794  0.7202 -0.2204  0.6133
  855MOL0     O15298   3.945   1.996   4.775  0.4568 -0.0065  0.8760
  855MOL0     C15299   3.942   2.137   4.807  0.0585 -0.4665 -0.0518
  855MOL0     C15300   3.793   2.186   4.782  0.1698  0.2804 -0.5065
  855MOL0     C15301   3.694   2.165   4.893  0.0909 -0.7177 -0.4561
  855MOL0     C15302   3.709   2.024   4.950 -0.0196 -0.3325  0.2340
  855MOL0     C15303   3.614   1.995   5.069 -0.5291 -0.1167  0.1657
  855MOL0     C15304   3.628   2.077   5.201  0.0777  0.3393  1.1386
  855MOL0     C15305   3.529   2.034   5.311 -0.1817  1.5268 -0.2711
  855MOL0     C15306   3.373   2.036   5.280  0.0977 -0.3263 -0.2620
  855MOL0     N15307   3.305   1.942   5.363 -0.4232  0.2145  0.2800
  855MOL0     C15308   3.238   1.973   5.478  0.2647 -0.6029 -0.4443
  855MOL0     C15309   3.173   1.860   5.503  0.0442  0.0094 -0.1191
  855MOL0     C15310   3.088   1.857   5.627 -0.7715 -0.0155 -0.2182
  855MOL0     C15311   2.938   1.842   5.583 -0.4500 -0.7939  0.2907
  855MOL0     C15312   2.858   1.798   5.703  0.4134 -0.7620 -0.4221
  855MOL0     C15313   2.712   1.800   5.682 -0.9089  0.2531 -0.0226
  855MOL0     O15314   2.690   1.682   5.606 -0.0062  0.2142 -0.1855
  855MOL0     C15315   2.561   1.635   5.592  0.0439 -0.7938 -0.0222
  855MOL0     C15316   2.524   1.599   5.465 -0.4288 -0.2591  0.0284
  855MOL0     C15317   2.409   1.524   5.444 -0.0803 -0.6302 -0.4035
  855MOL0     C15318   2.375   1.495   5.301  0.4149 -0.2602 -0.5597
  855MOL0     C15319   2.309   1.502   5.550  0.1743 -0.2766  0.3394
  855MOL0     C15320   2.175   1.443   5.524 -0.1196  0.2359 -0.2531
  855MOL0     O15321   2.076   1.497   5.596  0.4171 -0.7978  0.2801
  855MOL0     C15322   1.958   1.460   5.547  0.4416 -0.0368 -0.5126
  855MOL0     C15323   1.902   1.516   5.430 -0.6139 -0.1497  0.1045
  855MOL0     C15324   1.769   1.491   5.408 -0.3705  0.4606 -0.2697
  855MOL0     C15325   1.695   1.417   5.488  0.8869  0.5897 -0.4063
  855MOL0     O15326   1.553   1.406   5.481  0.6220  0.1747 -0.1986
  855MOL0     C15327   1.498   1.522   5.432  0.8981 -0.2999  1.1818
  855MOL0     C15328   1.340   1.511   5.438 -0.4404  0.0768  0.9342
  855MOL0     C15329   1.280   1.511   5.575  0.2106 -0.3990 -0.2946
  855MOL0     C15330   1.126   1.512   5.587  0.0080 -0.0509 -0.8330
  855MOL0     C15331   1.048   1.400   5.535 -0.2342  0.4259  0.2966
  855MOL0     C15332   0.894   1.419   5.525 -1.2221 -0.4492 -0.8768
  855MOL0     C15333   0.827   1.305   5.450  0.5198 -0.4831 -0.3382
  855MOL0     C15334   0.679   1.343   5.448  0.2025  0.7227  0.3347
  855MOL0    Cl15335   0.598   1.346   5.613  0.4485 -0.3103 -0.3094
  855MOL0     C15336   1.752   1.350   5.596 -0.2808  0.0083 -0.1881
  855MOL0     C15337   1.883   1.371   5.626 -0.0610  0.3399  0.2576
  855MOL0     O15338   2.172   1.333   5.466  0.5317 -0.5404  0.3461
  855MOL0     C15339   2.355   1.539   5.674 -0.1244 -0.7949  0.5949
  855MOL0     C15340   2.483   1.593   5.700 -0.9865  0.7958 -0.3854
  855MOL0     N15341   3.194   1.762   5.410 -0.0110  0.5827  0.8101
  855MOL0     N15342   3.276   1.815   5.329  0.2653  0.2239  0.5741
  855MOL0     C15343   4.163   1.954   4.693  0.4438 -0.0177  0.2347
  855MOL0     C15344   4.288   1.907   4.712  0.3426 -0.6209  0.8859
  855MOL0     C15345   4.632   1.682   4.950 -0.4097 -0.0257 -0.5978
  855MOL0     C15346   4.729   1.665   5.053  0.6611 -0.3876  0.9488
  855MOL0     C15347   4.839   1.580   5.030  0.3980  0.5035  0.4571
  855MOL0     C15348   4.851   1.504   4.917  0.7510  0.1991 -0.1074
  855MOL0     O15349   4.959   1.420   4.917 -0.1414  0.3774  0.8927
  855MOL0     C15350   4.986   1.342   4.802 -1.2823  0.3149  0.3826
  855MOL0     C15351   5.016   1.419   4.672 -0.0719 -0.2603 -0.1159
  855MOL0     C15352   5.148   1.508   4.672 -0.5081  0.3831  0.0437
  855MOL0     C15353   5.176   1.569   4.530  0.1456 -0.0778  0.2579
  855MOL0     C15354   5.324   1.589   4.511  0.4895 -1.3637  0.3827
  855MOL0     C15355   5.442   1.598   4.492 -0.1408 -0.0890 -0.5479
  855MOL0     C15356   4.750   1.503   4.825  0.1608 -0.1448  0.4320
  855MOL0     C15357   4.643   1.592   4.846  1.0407  0.0260  0.1804
  855MOL0     H15358   4.253   1.769   5.021 -0.7097 -1.6077 -0.3818
  855MOL0     H15359   4.018   1.844   4.978 -0.4305  0.0153 -1.9881
  855MOL0     H15360   3.979   2.167   4.905  0.7865 -2.1556  0.2219
  855MOL0     H15361   4.000   2.194   4.734 -1.5137  1.9789  0.4983
  855MOL0     H15362   3.795   2.293   4.759  0.2486  0.2520 -0.6320
  855MOL0     H15363   3.760   2.132   4.693 -0.5920  0.6481 -0.4569
  855MOL0     H15364   3.716   2.238   4.971  1.6189 -0.1068 -1.3861
  855MOL0     H15365   3.591   2.180   4.859  0.3192  1.9389 -0.2253
  855MOL0     H15366   3.682   1.953   4.872  2.0287 -0.9743  0.0501
  855MOL0     H15367   3.805   2.011   5.000 -1.3184 -0.8417  2.8248
  855MOL0     H15368   3.513   2.004   5.028 -0.7173 -2.2572  0.0143
  855MOL0     H15369   3.633   1.890   5.094  2.4904 -0.0663 -1.4926
  855MOL0     H15370   3.733   2.080   5.233  0.6007  1.2211 -0.5403
  855MOL0     H15371   3.606   2.183   5.185  0.0650  0.1757  0.0355
  855MOL0     H15372   3.550   1.930   5.339 -1.3305  1.7311  1.4785
  855MOL0     H15373   3.544   2.099   5.397 -1.8903  4.0205 -1.7374
  855MOL0     H15374   3.353   2.006   5.177 -4.0161  0.0715  0.2429
  855MOL0     H15375   3.339   2.140   5.285 -3.5627 -1.3844 -0.3924
  855MOL0     H15376   3.244   2.063   5.537 -0.3985 -1.5588  1.1395
  855MOL0     H15377   3.131   1.779   5.691  1.6799  1.3214 -0.1196
  855MOL0     H15378   3.100   1.942   5.695 -0.4668 -1.3446  1.4783
  855MOL0     H15379   2.924   1.770   5.502  0.3033  0.9032 -1.4258
  855MOL0     H15380   2.897   1.934   5.541 -1.5143 -1.5497 -0.3563
  855MOL0     H15381   2.874   1.873   5.781 -0.9426  0.2844 -1.1054
  855MOL0     H15382   2.896   1.704   5.746  0.6889 -0.7653 -0.6684
  855MOL0     H15383   2.697   1.883   5.612  2.2156 -0.1123 -1.2645
  855MOL0     H15384   2.653   1.805   5.774  0.0145 -0.1853  0.6092
  855MOL0     H15385   2.591   1.623   5.383  2.7827  1.4396  2.9208
  855MOL0     H15386   2.424   1.399   5.279 -1.0904 -0.7148 -2.1983
  855MOL0     H15387   2.268   1.481   5.288  0.6888 -2.7372 -0.6872
  855MOL0     H15388   2.417   1.569   5.232  1.6858 -1.3371 -0.9811
  855MOL0     H15389   1.964   1.588   5.378 -2.3275  0.3244 -1.3695
  855MOL0     H15390   1.730   1.534   5.316 -3.5619 -1.2194  0.1788
  855MOL0     H15391   1.530   1.612   5.485  0.5867 -0.0910  1.0197
  855MOL0     H15392   1.522   1.519   5.326 -1.1451  0.4776  0.6494
  855MOL0     H15393   1.300   1.600   5.388 -1.2859 -0.4925  0.5792
  855MOL0     H15394   1.308   1.421   5.384  0.5146  1.0962 -1.5206
  855MOL0     H15395   1.318   1.605   5.616 -1.0905  0.7570 -1.6350
  855MOL0     H15396   1.316   1.416   5.613  1.1107 -2.1010 -4.8014
  855MOL0     H15397   1.108   1.517   5.695 -2.3452 -0.7394 -1.1428
  855MOL0     H15398   1.085   1.603   5.543  1.0548 -0.5146 -2.9210
  855MOL0     H15399   1.071   1.308   5.589 -0.7884 -3.1024 -4.7368
  855MOL0     H15400   1.072   1.396   5.428 -4.6556  0.6452 -0.8837
  855MOL0     H15401   0.859   1.420   5.629  0.8042  1.7612 -0.1079
  855MOL0     H15402   0.873   1.513   5.473 -0.1380 -0.7710 -1.9415
  855MOL0     H15403   0.840   1.207   5.497 -0.3156 -0.4762 -0.0731
  855MOL0     H15404   0.867   1.300   5.348  0.8763 -1.2546 -0.1674
  855MOL0     H15405   0.621   1.265   5.398 -0.5195 -0.3899  2.7621
  855MOL0     H15406   0.665   1.440   5.400  0.0906  1.0933  1.0918
  855MOL0     H15407   1.687   1.294   5.663  0.8531 -1.2495 -0.0929
  855MOL0     H15408   1.918   1.309   5.708 -3.0347 -3.6723 -1.1281
  855MOL0     H15409   2.281   1.525   5.752 -2.9402 -0.5285 -1.8564
  855MOL0     H15410   2.517   1.596   5.803  1.7434 -0.4577 -1.1463
  855MOL0     H15411   4.120   1.992   4.601  1.8619  1.6730  0.2168
  855MOL0     H15412   4.360   1.935   4.636 -1.1089 -0.2167 -0.4012
  855MOL0     H15413   4.706   1.716   5.146 -2.8054  1.1633 -0.5925
  855MOL0     H15414   4.919   1.591   5.102  0.4150  1.7972  0.2522
  855MOL0     H15415   5.073   1.280   4.828  1.4087  3.6543  0.0239
  855MOL0     H15416   4.900   1.277   4.784 -1.6855  1.5645 -3.0329
  855MOL0     H15417   4.939   1.485   4.630  1.2899  0.4616 -1.6091
  855MOL0     H15418   5.016   1.343   4.594 -2.5830  2.2743 -2.8599
  855MOL0     H15419   5.229   1.441   4.700 -1.4817 -0.0874  1.8474
  855MOL0     H15420   5.142   1.586   4.749  2.5276  0.1628  0.6215
  855MOL0     H15421   5.108   1.654   4.524 -0.3733 -0.4967  0.1408
  855MOL0     H15422   5.136   1.503   4.453  2.7693 -1.1133 -0.3114
  855MOL0     H15423   5.548   1.609   4.484  0.0412  0.4673  1.7980
  855MOL0     H15424   4.745   1.439   4.738 -1.1894  0.1029  0.3064
  855MOL0     H15425   4.561   1.593   4.775  1.5379  0.9664 -0.3954
  856MOL0     O15426   4.321   7.093   7.313 -0.6327 -0.2099 -0.2855
  856MOL0     C15427   4.339   7.211   7.319  0.1699 -0.7207 -0.6161
  856MOL0     O15428   4.265   7.311   7.253  0.4480  0.4789  0.3100
  856MOL0     C15429   4.151   7.266   7.192  0.3114 -0.0894  0.9501
  856MOL0     C15430   4.151   7.189   7.075  0.1341  0.3089 -0.2886
  856MOL0     C15431   4.036   7.138   7.018  0.2401  0.5186  0.4281
  856MOL0     C15432   3.913   7.183   7.066  0.1149  0.3101  0.5833
  856MOL0     O15433   3.802   7.134   7.002 -0.6224  0.5742 -0.4048
  856MOL0     C15434   3.677   7.201   7.021 -1.2227 -0.9366 -0.8291
  856MOL0     C15435   3.585   7.132   6.930  0.8093 -0.5351  0.5369
  856MOL0     C15436   3.455   7.207   6.918 -0.2758  0.1048  0.0422
  856MOL0     C15437   3.375   7.146   6.806  1.3611  0.7669 -0.0977
  856MOL0     C15438   3.237   7.214   6.777 -0.5600 -0.3931  0.3323
  856MOL0     C15439   3.171   7.149   6.652 -0.3501 -0.8876  0.2656
  856MOL0     C15440   3.023   7.174   6.626  0.5223 -0.5476  0.1806
  856MOL0     C15441   2.983   7.317   6.655 -0.2038 -0.3508  1.0494
  856MOL0     N15442   2.846   7.354   6.638  0.0800 -0.0098  0.3635
  856MOL0     C15443   2.735   7.275   6.641  0.7218  0.0547 -0.2975
  856MOL0     C15444   2.629   7.350   6.602 -0.0994 -0.6110  0.0694
  856MOL0     C15445   2.485   7.306   6.613  1.2469  0.6274  1.2098
  856MOL0     C15446   2.394   7.412   6.538 -0.6055 -0.5214  0.0507
  856MOL0     C15447   2.242   7.377   6.542 -0.1275  0.1971  0.1647
  856MOL0     C15448   2.159   7.455   6.437  0.2274 -0.8064  0.0587
  856MOL0     O15449   2.029   7.398   6.444 -0.0757 -0.2650 -0.0282
  856MOL0     C15450   1.935   7.487   6.382  0.2567  0.7403 -0.8885
  856MOL0     C15451   1.878   7.588   6.448  0.7738 -0.7134 -0.7572
  856MOL0     C15452   1.780   7.661   6.380 -0.5744 -0.2225 -0.2641
  856MOL0     C15453   1.712   7.773   6.459 -0.6975  0.4356 -0.0566
  856MOL0     C15454   1.746   7.646   6.244  0.3135 -0.1844  0.3684
  856MOL0     C15455   1.640   7.717   6.168  0.2641  0.1658  0.0460
  856MOL0     O15456   1.649   7.753   6.037  0.6129  0.2619  0.1217
  856MOL0     C15457   1.543   7.826   5.989 -0.3514 -0.0613 -0.1527
  856MOL0     C15458   1.419   7.774   5.960  0.0391 -0.3660  0.1427
  856MOL0     C15459   1.314   7.865   5.928  0.2077  0.2812  0.9979
  856MOL0     C15460   1.337   8.001   5.924 -0.2131  0.7510  0.0952
  856MOL0     O15461   1.240   8.089   5.904  0.3155  0.2755 -0.2526
  856MOL0     C15462   1.100   8.055   5.879  0.4748 -0.9514 -0.1705
  856MOL0     C15463   1.065   8.041   5.732  0.3122 -0.3296  0.4174
  856MOL0     C15464   1.062   8.181   5.669  0.0532  1.0480  0.3775
  856MOL0     C15465   1.042   8.176   5.518 -0.2473  0.7509  0.6137
  856MOL0     C15466   1.043   8.312   5.461 -0.1204 -0.8377 -0.0113
  856MOL0     C15467   1.102   8.321   5.324  0.1262  0.2000 -0.8741
  856MOL0     C15468   1.087   8.442   5.236  0.4790  0.2352  0.5273
  856MOL0     C15469   1.066   8.377   5.093 -0.3588 -0.3697  0.5140
  856MOL0    Cl15470   0.895   8.308   5.103  0.1018  0.6548 -0.2562
  856MOL0     C15471   1.471   8.044   5.942  1.1133  0.3162  0.4885
  856MOL0     C15472   1.572   7.960   5.972 -0.0563  0.2455  0.2158
  856MOL0     O15473   1.541   7.734   6.236 -1.1174 -0.0891  0.2163
  856MOL0     C15474   1.815   7.543   6.186  0.0534 -0.4055  1.1759
  856MOL0     C15475   1.898   7.461   6.251 -0.2722 -0.6007  0.4671
  856MOL0     N15476   2.675   7.475   6.579  0.1935  0.2330  0.0148
  856MOL0     N15477   2.805   7.477   6.594 -0.2440 -0.0098  0.3314
  856MOL0     C15478   3.910   7.270   7.178  0.2791  0.2827  0.7845
  856MOL0     C15479   4.032   7.316   7.233  0.3551  0.4280  0.0112
  856MOL0     C15480   4.470   7.241   7.392  0.1582  0.3530 -0.8172
  856MOL0     C15481   4.571   7.141   7.414 -0.2095  0.3026  0.0899
  856MOL0     C15482   4.703   7.180   7.426  0.1932 -0.2770  0.0290
  856MOL0     C15483   4.738   7.314   7.457 -0.9427  0.4704  0.9987
  856MOL0     O15484   4.867   7.361   7.479  0.5993  0.2363 -0.7085
  856MOL0     C15485   4.966   7.270   7.453  0.5801  0.3317 -0.5664
  856MOL0     C15486   5.109   7.327   7.472  0.6494 -0.0839  0.0057
  856MOL0     C15487   5.127   7.389   7.611 -0.5048  0.6153 -0.4016
  856MOL0     C15488   5.271   7.432   7.636 -0.2765 -0.6596  0.2031
  856MOL0     C15489   5.296   7.553   7.562  0.9523  0.5466 -0.3366
  856MOL0     C15490   5.318   7.662   7.503 -0.3817 -0.2417  0.1299
  856MOL0     C15491   4.635   7.409   7.462  0.3637  0.2287 -0.0733
  856MOL0     C15492   4.504   7.378   7.418  0.5163 -0.5710  0.3060
  856MOL0     H15493   4.243   7.156   7.027 -1.2727 -3.5495 -0.7109
  856MOL0     H15494   4.047   7.081   6.926 -1.2253  2.2232 -0.8817
  856MOL0     H15495   3.657   7.183   7.127  1.4510 -1.3507 -0.3279
  856MOL0     H15496   3.697   7.308   7.008  5.3720 -1.8306 -1.7767
  856MOL0     H15497   3.632   7.131   6.831 -1.8623 -1.8608 -0.8188
  856MOL0     H15498   3.579   7.031   6.971  1.2106 -0.4207  0.8882
  856MOL0     H15499   3.403   7.209   7.014 -1.7237  0.8954 -0.7337
  856MOL0     H15500   3.483   7.309   6.890 -0.4787  0.2792  0.4625
  856MOL0     H15501   3.433   7.145   6.713  2.6849 -5.3545  0.3510
  856MOL0     H15502   3.351   7.040   6.820  5.0145 -0.4797 -2.0997
  856MOL0     H15503   3.177   7.209   6.868  0.3830 -4.3238  0.9465
  856MOL0     H15504   3.251   7.321   6.759 -2.9027 -0.0170  0.5159
  856MOL0     H15505   3.217   7.183   6.559 -2.4526  0.4386 -0.3646
  856MOL0     H15506   3.184   7.041   6.658 -1.4282 -1.3170 -3.0030
  856MOL0     H15507   2.991   7.143   6.527  4.3776 -1.2676 -1.0273
  856MOL0     H15508   2.960   7.119   6.696  2.5818 -0.9281  1.8487
  856MOL0     H15509   3.045   7.373   6.583  1.1427 -2.6157  0.3344
  856MOL0     H15510   3.016   7.361   6.749  1.1288  0.3586  0.2874
  856MOL0     H15511   2.741   7.175   6.682 -0.8334  0.8679  2.0949
  856MOL0     H15512   2.468   7.203   6.582  0.1775  1.1066  0.0726
  856MOL0     H15513   2.453   7.306   6.717  0.0006  0.3229  0.8476
  856MOL0     H15514   2.435   7.415   6.437  1.5625 -2.5202  0.7793
  856MOL0     H15515   2.418   7.508   6.585  2.4842 -2.2889  2.4531
  856MOL0     H15516   2.205   7.405   6.640  0.3102  2.5374 -0.2777
  856MOL0     H15517   2.230   7.270   6.525 -1.5883  0.1378  1.4209
  856MOL0     H15518   2.210   7.443   6.341  0.7898  0.7843  0.1224
  856MOL0     H15519   2.172   7.560   6.465 -2.4042 -0.5108  0.4322
  856MOL0     H15520   1.910   7.600   6.551 -0.3044 -7.0962  0.7017
  856MOL0     H15521   1.785   7.794   6.538  2.0689 -0.2701 -2.2316
  856MOL0     H15522   1.685   7.863   6.404  1.3686  1.2757  0.1983
  856MOL0     H15523   1.621   7.729   6.500 -0.3546 -0.0778  0.1650
  856MOL0     H15524   1.393   7.670   5.976  0.6157 -0.5226  0.0735
  856MOL0     H15525   1.218   7.817   5.917  0.8857 -1.2527  1.4306
  856MOL0     H15526   1.073   7.964   5.934 -1.5308  0.7632  1.8988
  856MOL0     H15527   1.035   8.131   5.925 -0.1487 -0.8661 -1.1714
  856MOL0     H15528   1.134   7.975   5.679 -2.1863 -0.5452 -2.9337
  856MOL0     H15529   0.967   7.992   5.725  0.8191 -1.2596 -0.4847
  856MOL0     H15530   1.155   8.231   5.697  1.1675 -0.0280 -1.2177
  856MOL0     H15531   0.984   8.238   5.720 -0.4112  2.2440 -1.5830
  856MOL0     H15532   1.107   8.104   5.467  0.5448  1.0764  1.1499
  856MOL0     H15533   0.941   8.135   5.509  0.2777 -0.6549  0.7638
  856MOL0     H15534   1.110   8.367   5.527 -0.4686 -0.7148  0.2410
  856MOL0     H15535   0.942   8.353   5.470  0.4019  0.2358  1.1504
  856MOL0     H15536   1.205   8.291   5.345 -0.6716 -1.3754  1.1508
  856MOL0     H15537   1.051   8.237   5.276  1.3500 -1.3219  0.3943
  856MOL0     H15538   1.187   8.487   5.233  0.5874 -0.0385 -0.0234
  856MOL0     H15539   1.012   8.517   5.266 -0.0374 -0.5865  1.3452
  856MOL0     H15540   1.137   8.297   5.068 -0.1607 -0.2694  0.7460
  856MOL0     H15541   1.065   8.454   5.015 -0.5918 -0.2812  0.6048
  856MOL0     H15542   1.485   8.148   5.915 -3.2791  0.5515 -1.9083
  856MOL0     H15543   1.675   7.984   5.996  0.1750 -1.2083  0.8278
  856MOL0     H15544   1.792   7.525   6.081  1.3024  1.0211  0.6155
  856MOL0     H15545   1.946   7.378   6.199  0.1693 -0.5123  0.7375
  856MOL0     H15546   3.816   7.306   7.217  0.6332  0.0772  1.8605
  856MOL0     H15547   4.024   7.381   7.319  1.0518 -1.2412  1.3985
  856MOL0     H15548   4.556   7.039   7.381 -3.0935  0.9992 -1.0864
  856MOL0     H15549   4.782   7.106   7.438  1.5944  1.3621  1.6111
  856MOL0     H15550   4.956   7.176   7.508 -3.1238  0.0851 -1.4099
  856MOL0     H15551   4.963   7.236   7.349  1.5265 -1.0783 -0.1645
  856MOL0     H15552   5.114   7.412   7.404 -1.6445  0.5354  0.5225
  856MOL0     H15553   5.182   7.248   7.450 -0.5200 -1.3472  0.5359
  856MOL0     H15554   5.116   7.314   7.689  1.6010 -0.9049 -1.4646
  856MOL0     H15555   5.059   7.470   7.639  1.5079  1.4186  2.7411
  856MOL0     H15556   5.330   7.344   7.607 -1.4039 -0.7421 -2.0644
  856MOL0     H15557   5.291   7.454   7.741  2.4363  4.8218 -1.1169
  856MOL0     H15558   5.332   7.749   7.443 -3.1523  0.2348  0.0860
  856MOL0     H15559   4.654   7.515   7.474 -1.2542  0.5340  0.0206
  856MOL0     H15560   4.420   7.445   7.410  1.1810  0.1476 -0.9607
  857MOL0     O15561  10.260   1.921   6.253 -0.1903 -0.4689 -0.4741
  857MOL0     C15562  10.321   1.845   6.336  0.6768  0.4188 -0.5560
  857MOL0     O15563  10.284   1.834   6.470 -0.0590  0.4742 -0.0770
  857MOL0     C15564  10.166   1.900   6.499 -0.4182  0.7919  0.0215
  857MOL0     C15565  10.056   1.850   6.447  0.4996  0.2937  0.3726
  857MOL0     C15566   9.932   1.903   6.486 -0.3630  0.4054 -0.1414
  857MOL0     C15567   9.926   2.014   6.574  0.0382 -0.9337 -0.6705
  857MOL0     O15568   9.818   2.076   6.625  0.0530  0.0713 -0.1544
  857MOL0     C15569   9.688   2.029   6.597  0.3444  0.4289  0.2706
  857MOL0     C15570   9.586   2.142   6.636 -0.0963 -0.2392 -0.0806
  857MOL0     C15571   9.604   2.188   6.785 -0.4556 -0.4661  0.4224
  857MOL0     C15572   9.486   2.282   6.826 -0.4871 -0.1870  1.3619
  857MOL0     C15573   9.502   2.423   6.766  0.8381  0.3615  0.3657
  857MOL0     C15574   9.376   2.496   6.768  1.1508 -0.1444 -0.5329
  857MOL0     C15575   9.269   2.441   6.681 -0.9947 -0.3439  0.2368
  857MOL0     C15576   9.159   2.547   6.659  0.7417  0.7066  0.5209
  857MOL0     N15577   9.026   2.493   6.617 -0.0026 -0.1925 -0.1754
  857MOL0     C15578   8.957   2.391   6.675 -0.4858  0.3384 -0.2230
  857MOL0     C15579   8.862   2.360   6.586  0.2622 -0.0989  0.5639
  857MOL0     C15580   8.775   2.230   6.584 -0.1951 -0.0169  0.4114
  857MOL0     C15581   8.640   2.264   6.640 -0.3441  0.1864 -0.2439
  857MOL0     C15582   8.565   2.368   6.550  0.4840  0.4590 -0.0553
  857MOL0     C15583   8.412   2.351   6.545 -0.0645 -0.5568 -0.1560
  857MOL0     O15584   8.360   2.317   6.678 -0.2243 -0.1008  0.1700
  857MOL0     C15585   8.222   2.305   6.665 -0.4329  0.3229  0.4085
  857MOL0     C15586   8.155   2.180   6.648  0.0569 -0.3172 -0.0973
  857MOL0     C15587   8.020   2.166   6.646 -0.0279 -0.7537  0.1477
  857MOL0     C15588   7.964   2.034   6.628  1.0378  0.0356  0.2194
  857MOL0     C15589   7.954   2.285   6.687 -0.9488 -0.5533  1.1210
  857MOL0     C15590   7.811   2.289   6.699 -0.1089 -1.0393 -0.3448
  857MOL0     O15591   7.759   2.380   6.790 -0.0244 -0.0529  0.6019
  857MOL0     C15592   7.622   2.394   6.797 -1.0465 -0.2707  0.2836
  857MOL0     C15593   7.571   2.522   6.822 -0.1271 -0.9406  1.1757
  857MOL0     C15594   7.432   2.544   6.819  0.0497 -0.1349 -0.3531
  857MOL0     C15595   7.344   2.438   6.798  0.3435 -1.0520  0.0999
  857MOL0     O15596   7.213   2.469   6.810  0.2060 -0.4853 -0.8130
  857MOL0     C15597   7.115   2.371   6.797  0.2821  0.1673  0.7951
  857MOL0     C15598   7.093   2.347   6.641  0.6909  0.1857 -0.4152
  857MOL0     C15599   7.042   2.471   6.570 -0.3307  0.3622  0.9443
  857MOL0     C15600   7.001   2.423   6.426 -0.0409 -0.0496 -0.8704
  857MOL0     C15601   6.966   2.536   6.326 -0.2389 -0.1224 -0.9812
  857MOL0     C15602   6.875   2.497   6.217 -0.6185  0.3392  0.0439
  857MOL0     C15603   6.956   2.418   6.112 -1.0500  0.5434  0.2730
  857MOL0     C15604   6.863   2.361   6.008  0.1560 -0.4962  0.2489
  857MOL0    Cl15605   6.949   2.250   5.903 -0.3271 -0.3799 -0.1284
  857MOL0     C15606   7.391   2.308   6.786  1.0227  0.5001 -0.6284
  857MOL0     C15607   7.526   2.284   6.795 -0.2162 -0.4656  0.7215
  857MOL0     O15608   7.753   2.233   6.607 -0.0362  0.5749 -0.1049
  857MOL0     C15609   8.018   2.412   6.716  0.1081 -0.2946  0.1909
  857MOL0     C15610   8.151   2.424   6.690  0.0701  0.0860  0.2468
  857MOL0     N15611   8.865   2.451   6.484  0.1644 -0.5707 -0.2631
  857MOL0     N15612   8.961   2.529   6.500 -0.0687 -0.1940 -0.7551
  857MOL0     C15613  10.043   2.060   6.635 -0.0916  0.4638 -0.2028
  857MOL0     C15614  10.164   1.997   6.603 -0.7305 -0.9201  0.2036
  857MOL0     C15615  10.435   1.762   6.303 -0.4841  0.4969 -0.1787
  857MOL0     C15616  10.487   1.765   6.173 -0.1077 -0.3442  0.5822
  857MOL0     C15617  10.614   1.696   6.147  0.0579  0.0578  0.1341
  857MOL0     C15618  10.686   1.645   6.257 -0.0107 -0.7054  0.6661
  857MOL0     O15619  10.820   1.621   6.233 -0.1501  0.2499 -0.7093
  857MOL0     C15620  10.863   1.492   6.269 -0.6093 -0.1102  0.2296
  857MOL0     C15621  10.997   1.450   6.201 -0.1624  0.5165 -0.1783
  857MOL0     C15622  11.033   1.535   6.077  0.5855  0.4382  0.6524
  857MOL0     C15623  11.168   1.482   6.017  0.7569 -0.5631  0.5379
  857MOL0     C15624  11.142   1.354   5.941  0.0804 -0.6630 -0.1611
  857MOL0     C15625  11.128   1.244   5.885 -0.0751  0.7260  0.2521
  857MOL0     C15626  10.624   1.636   6.379 -0.0840  0.5977 -1.0660
  857MOL0     C15627  10.496   1.689   6.406  0.0042 -0.5999  1.4408
  857MOL0     H15628  10.058   1.761   6.383  2.0848 -0.2087  1.0889
  857MOL0     H15629   9.842   1.860   6.443  0.5845 -1.6996 -0.1119
  857MOL0     H15630   9.670   2.012   6.490  3.7321  0.4728 -0.4364
  857MOL0     H15631   9.676   1.937   6.656  0.1111  0.5057  0.3428
  857MOL0     H15632   9.592   2.228   6.569  3.9738 -2.4069 -2.8713
  857MOL0     H15633   9.486   2.098   6.631  0.7365 -2.6488  1.9651
  857MOL0     H15634   9.599   2.109   6.860  1.7390 -0.2240  0.8853
  857MOL0     H15635   9.704   2.230   6.797 -0.5452  0.4139 -1.5692
  857MOL0     H15636   9.390   2.233   6.809  0.3231 -1.7415  1.0868
  857MOL0     H15637   9.489   2.305   6.933 -1.2385  1.5373  1.0381
  857MOL0     H15638   9.572   2.477   6.831  0.1217 -1.0596  2.4152
  857MOL0     H15639   9.545   2.420   6.665  3.1230  1.4522  1.2160
  857MOL0     H15640   9.343   2.505   6.872 -0.1471 -1.6389 -0.7762
  857MOL0     H15641   9.394   2.596   6.727  3.0582 -0.8264 -1.4503
  857MOL0     H15642   9.313   2.398   6.591 -0.8094 -2.7661  1.3901
  857MOL0     H15643   9.224   2.361   6.740 -0.8762 -0.1547  0.5877
  857MOL0     H15644   9.196   2.626   6.592  1.8884 -0.6306 -0.4795
  857MOL0     H15645   9.138   2.594   6.756 -3.0602 -2.8318  1.6889
  857MOL0     H15646   8.974   2.328   6.762 -4.2399  1.8992  1.8925
  857MOL0     H15647   8.773   2.190   6.482 -1.8268  0.4658  0.2233
  857MOL0     H15648   8.828   2.154   6.642  0.0094 -0.4282 -0.2973
  857MOL0     H15649   8.659   2.311   6.737  1.4639 -1.7337  0.3896
  857MOL0     H15650   8.591   2.167   6.651 -0.1324 -0.5767 -4.3957
  857MOL0     H15651   8.606   2.351   6.450  0.8132  0.1560  0.1316
  857MOL0     H15652   8.597   2.467   6.584  1.6628 -0.5054  1.8115
  857MOL0     H15653   8.374   2.283   6.469  1.5893 -1.3647 -0.2964
  857MOL0     H15654   8.374   2.451   6.519 -0.1002 -0.6450 -0.4395
  857MOL0     H15655   8.199   2.083   6.627 -1.9849 -0.8885 -2.1675
  857MOL0     H15656   8.006   1.960   6.697  3.5260  0.4090 -0.7911
  857MOL0     H15657   7.857   2.036   6.649  0.6452  2.2825 -1.6413
  857MOL0     H15658   7.976   1.993   6.527  0.1469  0.3333 -0.0177
  857MOL0     H15659   7.628   2.615   6.819 -0.7545 -0.5742 -0.2382
  857MOL0     H15660   7.394   2.645   6.833 -0.4702 -0.3628 -0.0718
  857MOL0     H15661   7.131   2.273   6.844  0.8293 -0.3928 -0.5163
  857MOL0     H15662   7.022   2.406   6.845 -0.1758  1.1831 -0.7795
  857MOL0     H15663   7.190   2.329   6.593  0.0920 -0.4090 -1.4514
  857MOL0     H15664   7.024   2.264   6.620  1.0066  0.6781 -4.0875
  857MOL0     H15665   7.112   2.554   6.556 -0.0269 -0.3558 -2.6879
  857MOL0     H15666   6.948   2.511   6.610 -0.8611 -1.6656  1.8375
  857MOL0     H15667   7.079   2.353   6.393  0.1868 -0.8174  1.1799
  857MOL0     H15668   6.911   2.365   6.447  0.3824  0.4952  3.3854
  857MOL0     H15669   7.045   2.596   6.281 -3.1144  1.3723 -4.5446
  857MOL0     H15670   6.916   2.608   6.391  4.2583  3.6825 -1.1833
  857MOL0     H15671   6.788   2.437   6.248 -0.7313  0.0431 -0.7999
  857MOL0     H15672   6.848   2.592   6.170  0.3728  1.0872  0.9328
  857MOL0     H15673   7.016   2.337   6.155  3.1440  2.2333 -1.7663
  857MOL0     H15674   7.028   2.486   6.064 -1.0073 -0.5073 -1.2072
  857MOL0     H15675   6.825   2.445   5.948  1.6760  1.4976  1.9202
  857MOL0     H15676   6.780   2.305   6.053  0.5492 -0.6255  0.8266
  857MOL0     H15677   7.317   2.229   6.775 -0.6249  1.7052  1.0324
  857MOL0     H15678   7.574   2.187   6.785  1.2377  0.2884 -0.0218
  857MOL0     H15679   7.965   2.502   6.746 -2.6889 -1.6354 -0.3946
  857MOL0     H15680   8.212   2.514   6.702 -1.9331  1.4387  0.6862
  857MOL0     H15681  10.050   2.146   6.701  1.0891  0.7945 -0.7368
  857MOL0     H15682  10.253   2.034   6.652 -0.3820 -0.9440 -0.3999
  857MOL0     H15683  10.433   1.817   6.094  1.3336  2.9902  1.6260
  857MOL0     H15684  10.666   1.685   6.053  1.4117  0.9695  0.7459
  857MOL0     H15685  10.881   1.458   6.371 -0.3584 -0.7242 -0.0103
  857MOL0     H15686  10.785   1.420   6.241 -0.3774  0.1967 -1.3017
  857MOL0     H15687  10.982   1.345   6.173 -1.7848  0.0235  2.2384
  857MOL0     H15688  11.082   1.447   6.271 -0.6076 -2.4533  0.3768
  857MOL0     H15689  11.038   1.642   6.100 -2.4865  0.8382 -0.0180
  857MOL0     H15690  10.950   1.535   6.006  2.1038  0.2669 -1.2069
  857MOL0     H15691  11.250   1.481   6.090  0.7887  0.4142  0.5249
  857MOL0     H15692  11.207   1.552   5.943  0.7361  0.4808  1.4950
  857MOL0     H15693  11.096   1.157   5.832  0.0889  1.8814 -1.8400
  857MOL0     H15694  10.682   1.582   6.453 -1.3590 -1.6113 -1.5852
  857MOL0     H15695  10.463   1.697   6.509 -0.7558  0.4721  1.1252
  858MOL0     O15696   2.837   1.571   5.242  0.1881 -0.3373 -0.5631
  858MOL0     C15697   2.856   1.555   5.121  0.6623  0.1503 -1.1135
  858MOL0     O15698   2.768   1.591   5.018  0.3289  0.4877  0.3235
  858MOL0     C15699   2.656   1.678   5.029  0.0178  0.4495  0.5604
  858MOL0     C15700   2.587   1.707   4.911  0.0243  0.0993  0.0209
  858MOL0     C15701   2.487   1.804   4.905 -0.1064 -0.2376 -0.4739
  858MOL0     C15702   2.456   1.873   5.021 -0.0459  0.3888 -0.8931
  858MOL0     O15703   2.355   1.959   5.006 -0.3015 -0.2458  0.2871
  858MOL0     C15704   2.293   2.027   5.119 -0.8961  0.2411 -1.0651
  858MOL0     C15705   2.177   2.112   5.076 -0.0651 -0.2510  0.1174
  858MOL0     C15706   2.102   2.155   5.198  0.7582 -1.1324 -0.1688
  858MOL0     C15707   1.977   2.241   5.184 -0.5078  0.3298 -0.2670
  858MOL0     C15708   1.926   2.288   5.331 -0.1421 -0.1280  0.3949
  858MOL0     C15709   1.790   2.361   5.329  0.4844  0.2514  0.7342
  858MOL0     C15710   1.724   2.391   5.461  0.0504 -0.5410 -0.2615
  858MOL0     C15711   1.610   2.487   5.448 -0.4005  0.4384  0.1725
  858MOL0     N15712   1.474   2.432   5.426 -0.7590  0.4366 -0.2455
  858MOL0     C15713   1.446   2.311   5.371  0.1637 -0.5190  0.2276
  858MOL0     C15714   1.324   2.315   5.328  0.2770 -0.1741  0.0509
  858MOL0     C15715   1.275   2.199   5.246  0.6347 -0.3766  1.2172
  858MOL0     C15716   1.118   2.193   5.257 -0.0353 -0.0238  0.1286
  858MOL0     C15717   1.055   2.316   5.184  0.0611 -0.3902 -0.4610
  858MOL0     C15718   0.905   2.303   5.208 -0.5982  0.2699 -0.2125
  858MOL0     O15719   0.853   2.173   5.177 -0.1613 -0.3678 -1.0254
  858MOL0     C15720   0.718   2.156   5.154 -0.6193  0.3388 -0.2216
  858MOL0     C15721   0.674   2.023   5.146 -0.1403  0.0082  0.2422
  858MOL0     C15722   0.542   1.986   5.149 -0.2248 -0.0756  0.3430
  858MOL0     C15723   0.516   1.833   5.135 -0.0315 -0.7228 -0.5318
  858MOL0     C15724   0.445   2.088   5.140 -0.3860 -0.6945 -0.8457
  858MOL0     C15725   0.291   2.063   5.171  0.3136  0.7616 -0.3325
  858MOL0     O15726   0.203   2.168   5.137 -0.2045  1.0016 -0.1984
  858MOL0     C15727   0.065   2.147   5.151  0.3930 -0.4477 -0.1276
  858MOL0     C15728  -0.004   2.157   5.270 -1.0251 -0.6952  0.5723
  858MOL0     C15729  -0.143   2.153   5.279 -0.4890  0.6401 -0.2283
  858MOL0     C15730  -0.218   2.116   5.173  0.3719  0.5986  0.0048
  858MOL0     O15731  -0.350   2.099   5.194  0.2766 -0.3834  0.1351
  858MOL0     C15732  -0.427   2.029   5.091  0.0469 -0.7081 -0.4363
  858MOL0     C15733  -0.564   1.989   5.153  0.8006  0.4322  0.0661
  858MOL0     C15734  -0.656   1.950   5.037  0.5604 -0.5152 -0.5652
  858MOL0     C15735  -0.737   2.080   4.988  0.3671  0.0887  0.2289
  858MOL0     C15736  -0.711   2.114   4.838 -0.7794 -0.0515  0.1345
  858MOL0     C15737  -0.775   2.248   4.790  0.3282 -0.5289  0.9651
  858MOL0     C15738  -0.718   2.371   4.859  0.0138 -0.6139 -0.5428
  858MOL0     C15739  -0.559   2.386   4.869  0.0900  1.1414  0.1202
  858MOL0    Cl15740  -0.478   2.359   4.705 -0.3676 -0.2024 -0.3481
  858MOL0     C15741  -0.159   2.120   5.047 -0.6383 -0.9253  0.6351
  858MOL0     C15742  -0.017   2.126   5.039 -0.1220 -0.3330 -0.1282
  858MOL0     O15743   0.257   1.955   5.221  0.0147  0.0471  0.3666
  858MOL0     C15744   0.491   2.224   5.139  0.3683  0.2388  0.2562
  858MOL0     C15745   0.627   2.262   5.136  0.9031  0.2561  0.0479
  858MOL0     N15746   1.266   2.429   5.389 -0.1671  0.1097  0.7862
  858MOL0     N15747   1.355   2.504   5.445  0.2125  0.0273  0.4593
  858MOL0     C15748   2.524   1.861   5.141 -0.9961  0.5164 -0.1858
  858MOL0     C15749   2.619   1.757   5.148  0.5753  0.6050  0.9345
  858MOL0     C15750   2.988   1.498   5.081 -0.0921 -1.0112  0.0793
  858MOL0     C15751   3.022   1.462   4.951  0.9714  0.6293 -0.1785
  858MOL0     C15752   3.156   1.427   4.913  0.3399 -0.0408 -0.0043
  858MOL0     C15753   3.259   1.405   5.006 -0.1040 -0.1978 -0.0351
  858MOL0     O15754   3.385   1.349   4.974  0.5147  0.2046 -0.8085
  858MOL0     C15755   3.414   1.310   4.842 -0.2064  0.2260 -1.1414
  858MOL0     C15756   3.563   1.253   4.850 -0.1541  0.7112 -0.7722
  858MOL0     C15757   3.678   1.367   4.869 -0.1327 -0.9312 -0.2828
  858MOL0     C15758   3.797   1.321   4.964 -0.4505  0.1369 -0.5575
  858MOL0     C15759   3.892   1.433   4.982 -0.7822  0.2136  0.0282
  858MOL0     C15760   3.980   1.509   4.978  0.3524  0.1425 -0.4438
  858MOL0     C15761   3.228   1.456   5.132 -0.5128 -0.1014 -0.3423
  858MOL0     C15762   3.096   1.491   5.177  0.0274  0.0534 -0.1345
  858MOL0     H15763   2.629   1.645   4.832  1.0975 -0.4281  0.9861
  858MOL0     H15764   2.435   1.808   4.809  2.6000 -0.2559 -2.0470
  858MOL0     H15765   2.246   1.949   5.180 -1.1161  1.6738  0.7038
  858MOL0     H15766   2.358   2.085   5.185 -2.4966 -0.9439  1.7288
  858MOL0     H15767   2.209   2.198   5.017  2.3263 -2.9670 -2.9080
  858MOL0     H15768   2.110   2.067   5.002 -0.1234  2.3871 -1.5568
  858MOL0     H15769   2.067   2.062   5.244  3.4346 -2.5332 -0.7369
  858MOL0     H15770   2.166   2.213   5.264 -0.0094  0.6076 -0.9050
  858MOL0     H15771   2.003   2.323   5.116  0.0969 -0.2398 -0.7348
  858MOL0     H15772   1.895   2.182   5.142  1.8831 -1.9756 -2.0612
  858MOL0     H15773   1.927   2.212   5.410  0.7346  1.1659  1.6900
  858MOL0     H15774   1.996   2.362   5.372 -0.4889 -0.8220  2.3215
  858MOL0     H15775   1.804   2.456   5.276 -1.3268  0.3530  0.3960
  858MOL0     H15776   1.727   2.290   5.275 -1.3467  1.9680  0.5139
  858MOL0     H15777   1.694   2.297   5.508 -1.1459  0.2965  0.7184
  858MOL0     H15778   1.800   2.439   5.522  0.7589  0.4040 -1.8158
  858MOL0     H15779   1.621   2.548   5.358  0.0433 -2.9020 -2.2217
  858MOL0     H15780   1.603   2.558   5.530 -1.6204  0.7220 -0.1598
  858MOL0     H15781   1.521   2.232   5.363 -0.0379 -0.6970  0.0778
  858MOL0     H15782   1.307   2.206   5.142  1.5825 -2.2821  1.3322
  858MOL0     H15783   1.327   2.113   5.291 -1.0506 -2.0628  0.1056
  858MOL0     H15784   1.084   2.198   5.361 -3.9026  2.0758 -1.0643
  858MOL0     H15785   1.077   2.102   5.213  0.1909 -0.2771  0.4356
  858MOL0     H15786   1.070   2.310   5.075  1.8222  1.0933 -0.3452
  858MOL0     H15787   1.106   2.408   5.213  0.8751 -0.5226 -1.4214
  858MOL0     H15788   0.860   2.386   5.152 -1.8531  0.1447  0.5530
  858MOL0     H15789   0.881   2.326   5.313 -0.9771 -2.5456  0.3884
  858MOL0     H15790   0.755   1.952   5.157 -0.7182 -0.6647  0.2240
  858MOL0     H15791   0.598   1.773   5.093  1.7947  0.7964  0.6851
  858MOL0     H15792   0.490   1.794   5.234 -3.7596 -2.8803 -2.1482
  858MOL0     H15793   0.427   1.822   5.073 -1.9853  0.7614  1.8446
  858MOL0     H15794   0.057   2.199   5.349 -0.3907  0.0948 -0.3135
  858MOL0     H15795  -0.183   2.153   5.380  1.8341  0.7370  0.7611
  858MOL0     H15796  -0.448   2.091   5.003  0.0661  0.0808  0.1123
  858MOL0     H15797  -0.363   1.948   5.055  2.2195  0.5507  0.4114
  858MOL0     H15798  -0.541   1.902   5.215  0.1682  1.8599  2.4146
  858MOL0     H15799  -0.610   2.065   5.216 -5.2676 -2.4892 -0.0915
  858MOL0     H15800  -0.731   1.875   5.065  0.0190  0.9697  2.2781
  858MOL0     H15801  -0.591   1.918   4.954  2.3481 -0.3509  0.7155
  858MOL0     H15802  -0.845   2.067   5.004  0.0583  0.2617 -1.4880
  858MOL0     H15803  -0.719   2.171   5.045 -2.2975 -0.1293  1.5829
  858MOL0     H15804  -0.752   2.032   4.778 -0.7032  2.4195 -3.6076
  858MOL0     H15805  -0.607   2.133   4.812 -1.3025 -0.5715 -2.7241
  858MOL0     H15806  -0.749   2.249   4.684  0.1196  0.9956  0.9177
  858MOL0     H15807  -0.884   2.256   4.800 -0.2099  0.9097 -3.9290
  858MOL0     H15808  -0.762   2.384   4.958  1.3719  1.5819 -0.1726
  858MOL0     H15809  -0.742   2.462   4.804  1.2901 -0.0014 -0.1159
  858MOL0     H15810  -0.518   2.318   4.945 -1.9401 -1.0772 -0.6472
  858MOL0     H15811  -0.522   2.486   4.892  3.5892  0.1123 -0.4619
  858MOL0     H15812  -0.227   2.120   4.962 -0.1094 -0.6038  0.2075
  858MOL0     H15813   0.032   2.147   4.944  2.2532  3.9657  1.7523
  858MOL0     H15814   0.415   2.299   5.156 -0.2994 -0.9405  3.1386
  858MOL0     H15815   0.658   2.366   5.132 -0.5876  0.7333  0.5262
  858MOL0     H15816   2.509   1.922   5.230  2.3308 -1.3539  1.8838
  858MOL0     H15817   2.682   1.747   5.235  0.3863  2.6276  1.3409
  858MOL0     H15818   2.957   1.461   4.864  0.9105 -0.7133 -0.1246
  858MOL0     H15819   3.179   1.406   4.809 -0.2114  2.2704 -0.6614
  858MOL0     H15820   3.339   1.235   4.815 -3.0757  1.2667  2.9815
  858MOL0     H15821   3.424   1.402   4.785  1.3290  0.7000 -0.1791
  858MOL0     H15822   3.585   1.202   4.756 -1.1705  0.9860 -1.1843
  858MOL0     H15823   3.571   1.178   4.929 -1.1416  0.8251 -0.5461
  858MOL0     H15824   3.638   1.450   4.928  0.1407 -0.9466 -0.0723
  858MOL0     H15825   3.705   1.408   4.771 -0.7742  0.3951  0.0665
  858MOL0     H15826   3.841   1.241   4.904 -1.0374 -1.5976  1.2212
  858MOL0     H15827   3.768   1.279   5.061  2.6866 -0.6424  0.1412
  858MOL0     H15828   4.058   1.582   4.990 -1.0285  1.3495  1.9235
  858MOL0     H15829   3.314   1.450   5.199 -0.2124 -2.3114 -0.8330
  858MOL0     H15830   3.104   1.535   5.276  0.5929 -0.7018  0.1588
  859MOL0     O15831   8.944   7.955   6.783  0.3952 -1.1060  0.3095
  859MOL0     C15832   9.029   7.929   6.873  0.3294 -0.1189 -0.3134
  859MOL0     O15833   9.004   7.900   7.004  1.1493 -0.4067 -0.2096
  859MOL0     C15834   8.881   7.895   7.066  0.0132 -0.5316 -0.5295
  859MOL0     C15835   8.882   7.859   7.205 -0.0302  0.5300  0.1141
  859MOL0     C15836   8.767   7.875   7.284  0.0583  0.1664  0.4723
  859MOL0     C15837   8.646   7.915   7.233 -0.4800  0.2392 -0.1536
  859MOL0     O15838   8.535   7.910   7.311  0.4172  0.1012 -0.3260
  859MOL0     C15839   8.412   7.877   7.257  0.0221  0.1985  0.2163
  859MOL0     C15840   8.305   7.841   7.367 -0.4176 -0.0524 -0.2524
  859MOL0     C15841   8.320   7.932   7.491  0.3649  0.0692  0.4831
  859MOL0     C15842   8.220   7.897   7.599 -0.6627  0.1129  0.2275
  859MOL0     C15843   8.242   7.979   7.723  0.4074 -0.3562  0.3912
  859MOL0     C15844   8.156   7.958   7.854 -0.6432  0.4383  0.8887
  859MOL0     C15845   8.171   8.066   7.960 -0.0294 -0.5918  0.0614
  859MOL0     C15846   8.138   8.025   8.102  0.0009  0.5404  0.6678
  859MOL0     N15847   7.997   7.987   8.109 -0.1689  0.0260  0.1198
  859MOL0     C15848   7.943   7.874   8.158  0.1202 -0.8263 -0.7092
  859MOL0     C15849   7.811   7.874   8.147 -0.0920 -1.0615 -0.0769
  859MOL0     C15850   7.708   7.775   8.199 -0.0935  0.5487  0.0994
  859MOL0     C15851   7.707   7.646   8.108 -0.2583  0.3875 -0.3391
  859MOL0     C15852   7.639   7.659   7.979  1.1083  0.0578  0.0318
  859MOL0     C15853   7.491   7.675   7.990  0.2060  0.1988  0.0968
  859MOL0     O15854   7.423   7.649   7.868  0.4771  0.2475  1.0930
  859MOL0     C15855   7.304   7.726   7.854 -1.1311 -0.2740  0.9913
  859MOL0     C15856   7.260   7.748   7.724 -0.2174  0.4787 -0.4661
  859MOL0     C15857   7.149   7.822   7.688  0.3086  0.0270 -0.6149
  859MOL0     C15858   7.127   7.851   7.547 -0.1982 -0.1563  0.7431
  859MOL0     C15859   7.060   7.863   7.799 -0.5056 -0.3424  0.1464
  859MOL0     C15860   6.927   7.935   7.785  0.1467  0.0881 -0.4761
  859MOL0     O15861   6.873   7.991   7.902  0.3351 -0.0454 -0.2408
  859MOL0     C15862   6.739   8.011   7.909  0.5452 -0.2952  0.4484
  859MOL0     C15863   6.703   8.107   7.994 -1.3445 -0.2945 -0.3652
  859MOL0     C15864   6.571   8.138   8.016 -0.3851  0.3811 -0.8347
  859MOL0     C15865   6.467   8.061   7.950  0.3049  0.1938 -0.8329
  859MOL0     O15866   6.333   8.080   7.974 -0.3478  0.2456 -0.0747
  859MOL0     C15867   6.229   7.985   7.968  0.5968 -0.3966  0.6200
  859MOL0     C15868   6.251   7.871   8.071  0.4320 -1.2150  0.2814
  859MOL0     C15869   6.195   7.918   8.206  0.3908  0.6708 -0.3347
  859MOL0     C15870   6.214   7.817   8.310 -0.7304 -1.1027  0.8000
  859MOL0     C15871   6.201   7.879   8.453  0.6209 -0.8559  0.1750
  859MOL0     C15872   6.230   7.778   8.564  0.6029  0.0378  0.5315
  859MOL0     C15873   6.235   7.831   8.702  0.6087 -0.2673 -0.6358
  859MOL0     C15874   6.365   7.906   8.731 -0.5893  0.5887 -0.0019
  859MOL0    Cl15875   6.350   7.955   8.904  0.3075 -0.2706  0.3677
  859MOL0     C15876   6.507   7.973   7.856 -0.8941  0.5672 -0.0156
  859MOL0     C15877   6.640   7.929   7.844 -0.5612 -0.0535 -0.8572
  859MOL0     O15878   6.879   7.949   7.678  0.8020 -0.6653 -0.4596
  859MOL0     C15879   7.106   7.823   7.933 -0.1728 -0.2061 -0.5851
  859MOL0     C15880   7.226   7.763   7.959  0.3468 -1.2617  0.4573
  859MOL0     N15881   7.782   7.998   8.096 -0.2805  0.1527  0.1818
  859MOL0     N15882   7.894   8.063   8.062  0.2803 -0.6597  0.0658
  859MOL0     C15883   8.637   7.952   7.095 -0.6291 -0.3749 -0.5388
  859MOL0     C15884   8.758   7.953   7.024  0.6286  0.0353  0.9203
  859MOL0     C15885   9.176   7.923   6.823 -0.3139  0.1792  0.3419
  859MOL0     C15886   9.273   7.843   6.891  1.1498  0.2129  0.3370
  859MOL0     C15887   9.398   7.816   6.835 -0.6057 -0.5098  0.1804
  859MOL0     C15888   9.432   7.895   6.723 -0.9898 -0.1509 -0.5114
  859MOL0     O15889   9.552   7.886   6.665  0.4988 -0.2861  0.2473
  859MOL0     C15890   9.584   7.782   6.579  0.8725  0.3559  0.3065
  859MOL0     C15891   9.726   7.742   6.600 -0.0730  0.5528  0.3260
  859MOL0     C15892   9.768   7.625   6.508  0.0186 -1.1579 -0.2928
  859MOL0     C15893   9.907   7.579   6.543 -0.5868 -0.5913 -0.8026
  859MOL0     C15894  10.017   7.662   6.484 -0.4229 -0.1713 -0.0063
  859MOL0     C15895  10.097   7.737   6.437 -0.4445 -0.0626 -0.1000
  859MOL0     C15896   9.348   7.981   6.658 -0.2578 -0.5259  0.2097
  859MOL0     C15897   9.218   7.985   6.702 -0.4263 -0.3773  0.3774
  859MOL0     H15898   8.967   7.801   7.241 -0.6240 -0.3200  0.1904
  859MOL0     H15899   8.775   7.840   7.386  0.7899  1.0865  0.7463
  859MOL0     H15900   8.381   7.967   7.202  0.3169  1.3957  1.9320
  859MOL0     H15901   8.417   7.803   7.177 -0.4311  1.9431 -1.5174
  859MOL0     H15902   8.199   7.843   7.337 -1.3767 -0.4219  2.7722
  859MOL0     H15903   8.334   7.740   7.395  0.1297  1.1646  4.3907
  859MOL0     H15904   8.419   7.927   7.537  1.2473  3.0522 -0.8340
  859MOL0     H15905   8.320   8.032   7.447  0.8450  0.5216  1.4745
  859MOL0     H15906   8.117   7.897   7.562 -0.0212  4.6516 -2.3201
  859MOL0     H15907   8.243   7.795   7.634  1.8692  0.7067  0.5378
  859MOL0     H15908   8.348   7.968   7.746  0.9423 -0.6950 -1.9743
  859MOL0     H15909   8.230   8.081   7.683 -4.0444 -0.7329  0.2676
  859MOL0     H15910   8.049   7.944   7.833 -1.0154  1.2168  2.1220
  859MOL0     H15911   8.204   7.865   7.884 -0.8170  0.2066  0.4653
  859MOL0     H15912   8.274   8.104   7.956  0.0758 -0.9497 -1.5825
  859MOL0     H15913   8.111   8.153   7.933  0.5757 -0.5449 -1.2367
  859MOL0     H15914   8.166   8.094   8.182 -0.7430 -0.5241  1.8812
  859MOL0     H15915   8.207   7.944   8.127  0.9572  2.1757  3.9450
  859MOL0     H15916   8.005   7.790   8.187  0.8889  0.2225  0.8644
  859MOL0     H15917   7.733   7.738   8.298 -0.0717 -0.4792 -0.2830
  859MOL0     H15918   7.609   7.822   8.205  0.2655  1.2840  0.4757
  859MOL0     H15919   7.662   7.561   8.159  1.8130 -1.6414 -1.6836
  859MOL0     H15920   7.811   7.616   8.092 -0.8394 -1.6028 -0.6240
  859MOL0     H15921   7.671   7.581   7.910  2.5529  0.2126  0.4945
  859MOL0     H15922   7.677   7.746   7.925 -0.2055  1.0828  0.6823
  859MOL0     H15923   7.459   7.769   8.035 -0.4936 -0.3826  0.8458
  859MOL0     H15924   7.459   7.598   8.061  2.3519 -1.6242 -0.7961
  859MOL0     H15925   7.321   7.712   7.642  2.0296 -0.2614  1.3915
  859MOL0     H15926   7.029   7.810   7.523 -0.0264 -0.8329  1.1771
  859MOL0     H15927   7.140   7.959   7.532 -0.0153  0.3244  3.6814
  859MOL0     H15928   7.209   7.814   7.485  0.1866  2.8242 -0.6944
  859MOL0     H15929   6.782   8.148   8.056 -1.4923 -2.0987  1.0906
  859MOL0     H15930   6.546   8.202   8.100 -2.6271 -2.1179  0.5725
  859MOL0     H15931   6.129   8.027   7.967  1.1929  1.0842 -0.0272
  859MOL0     H15932   6.234   7.941   7.868 -2.3115 -0.1392  0.2942
  859MOL0     H15933   6.235   7.769   8.037  2.3318 -0.6028 -2.8642
  859MOL0     H15934   6.359   7.878   8.088  0.1275  1.8498  1.5669
  859MOL0     H15935   6.089   7.930   8.183  1.0210 -1.0653 -5.3005
  859MOL0     H15936   6.235   8.017   8.233  0.7505  1.1430 -2.3886
  859MOL0     H15937   6.133   7.745   8.294 -0.2411 -1.3843 -0.5279
  859MOL0     H15938   6.307   7.761   8.299 -0.3066 -0.0653 -1.4255
  859MOL0     H15939   6.103   7.930   8.454  1.0856  0.2389 -2.4582
  859MOL0     H15940   6.280   7.954   8.463  2.0953 -2.5834  2.6845
  859MOL0     H15941   6.157   7.699   8.543  2.7710 -2.1612  0.7938
  859MOL0     H15942   6.329   7.735   8.546  0.5902 -0.2103  1.0565
  859MOL0     H15943   6.236   7.746   8.771 -1.3557  0.5601  0.4914
  859MOL0     H15944   6.144   7.889   8.718 -2.6705 -5.1621  0.6065
  859MOL0     H15945   6.374   7.995   8.667  1.7164 -0.0333 -0.6548
  859MOL0     H15946   6.452   7.843   8.709 -0.6037 -0.2538  2.0962
  859MOL0     H15947   6.432   7.915   7.803 -1.0989 -1.3590  2.1982
  859MOL0     H15948   6.658   7.846   7.777  1.2866 -2.5528  2.4442
  859MOL0     H15949   7.036   7.846   8.013 -1.3152 -1.9775 -1.0176
  859MOL0     H15950   7.240   7.731   8.061 -2.1390  0.8740  1.5825
  859MOL0     H15951   8.539   7.967   7.049 -0.6585 -1.5732 -0.9003
  859MOL0     H15952   8.748   7.998   6.926  2.2099 -0.0282  0.6893
  859MOL0     H15953   9.233   7.806   6.985 -2.6098  2.3721 -0.2259
  859MOL0     H15954   9.466   7.751   6.889 -0.5547  0.3194  1.1649
  859MOL0     H15955   9.514   7.698   6.585  0.2981 -0.0686 -5.6876
  859MOL0     H15956   9.560   7.824   6.481 -0.8551  0.1369  0.5934
  859MOL0     H15957   9.740   7.718   6.706 -1.6189  1.8119  0.8513
  859MOL0     H15958   9.788   7.831   6.585  0.4841  0.1173 -0.0092
  859MOL0     H15959   9.761   7.659   6.404  0.3533 -1.4919 -0.4289
  859MOL0     H15960   9.708   7.536   6.527  0.4646 -1.1393  1.3684
  859MOL0     H15961   9.922   7.482   6.493  1.2019 -0.2971 -0.9212
  859MOL0     H15962   9.913   7.564   6.651 -0.8472 -2.8412 -1.0508
  859MOL0     H15963  10.151   7.818   6.390  1.3446 -1.8539 -1.3124
  859MOL0     H15964   9.364   8.037   6.566 -1.5890  0.5854  0.6243
  859MOL0     H15965   9.151   8.046   6.643  2.3200  2.6156  0.0922
  860MOL0     O15966   0.314   1.906   4.737  0.1279 -0.6472 -0.1732
  860MOL0     C15967   0.250   2.007   4.707 -0.5634  0.0684  0.4650
  860MOL0     O15968   0.304   2.130   4.676 -0.1262 -0.3311 -0.4395
  860MOL0     C15969   0.441   2.136   4.662 -0.5411  0.9261  0.0650
  860MOL0     C15970   0.520   2.109   4.778 -0.4745 -0.5318  0.7616
  860MOL0     C15971   0.659   2.127   4.780 -0.1192  0.0964  0.2396
  860MOL0     C15972   0.726   2.157   4.656 -0.0433  0.4229  0.5697
  860MOL0     O15973   0.866   2.169   4.637  0.2162 -0.2562 -0.4217
  860MOL0     C15974   0.931   2.046   4.663 -0.5470 -0.1000  0.3290
  860MOL0     C15975   1.049   2.074   4.756  0.7599 -0.3487 -0.6607
  860MOL0     C15976   1.142   2.183   4.701 -0.5391  0.4443  0.1467
  860MOL0     C15977   1.280   2.197   4.789 -0.4307  0.4719 -0.6069
  860MOL0     C15978   1.359   2.067   4.805 -0.6822  0.3340  0.3984
  860MOL0     C15979   1.505   2.095   4.842 -0.1519 -0.6404  0.7472
  860MOL0     C15980   1.558   1.962   4.896  0.0602  0.0822  0.3464
  860MOL0     C15981   1.708   1.971   4.927 -0.1044 -0.7229 -0.4798
  860MOL0     N15982   1.750   1.843   4.979  0.0153 -0.5511  0.7064
  860MOL0     C15983   1.830   1.763   4.912 -0.3808 -0.8918 -0.3849
  860MOL0     C15984   1.854   1.662   5.006 -0.7011 -0.4845 -0.4036
  860MOL0     C15985   1.964   1.563   4.976  0.7642  0.2505  0.7516
  860MOL0     C15986   2.091   1.622   4.939  0.6211 -0.3731  0.6062
  860MOL0     C15987   2.211   1.521   4.927  0.0542 -1.3866 -0.4351
  860MOL0     C15988   2.204   1.443   4.795 -0.6645 -0.0350 -0.5022
  860MOL0     O15989   2.186   1.540   4.688 -0.1787  0.4196 -0.7993
  860MOL0     C15990   2.071   1.527   4.611 -0.3014  1.2939  0.1007
  860MOL0     C15991   2.016   1.408   4.561 -0.6641 -0.1145  0.2265
  860MOL0     C15992   1.913   1.413   4.467  0.5453  0.1877 -0.2037
  860MOL0     C15993   1.847   1.283   4.449  0.7051 -0.2462  0.6846
  860MOL0     C15994   1.879   1.525   4.396 -0.7443 -0.9965  0.9549
  860MOL0     C15995   1.779   1.535   4.283  0.7181  0.2680 -0.4726
  860MOL0     O15996   1.766   1.658   4.232  0.5242  0.6663 -0.6751
  860MOL0     C15997   1.670   1.695   4.136  0.4158  0.0901  0.1806
  860MOL0     C15998   1.671   1.820   4.079  0.6847  0.2670 -0.4477
  860MOL0     C15999   1.564   1.875   4.007 -0.3007 -0.3442  0.6966
  860MOL0     C16000   1.452   1.803   3.977  0.0310  0.1178  0.9494
  860MOL0     O16001   1.347   1.865   3.916  0.0756 -0.4923 -0.5712
  860MOL0     C16002   1.226   1.798   3.889 -0.5896 -0.1041  0.7334
  860MOL0     C16003   1.138   1.784   4.013 -0.7328 -0.0327 -0.8534
  860MOL0     C16004   1.006   1.686   3.996  0.3129  0.3506  0.0796
  860MOL0     C16005   0.905   1.771   3.922  0.4035 -0.5973  0.1125
  860MOL0     C16006   0.791   1.687   3.875  0.5017 -0.2512  0.5302
  860MOL0     C16007   0.819   1.596   3.755  0.4497 -0.2561  0.2186
  860MOL0     C16008   0.859   1.678   3.629  0.5630 -0.3076  0.8847
  860MOL0     C16009   0.934   1.593   3.524 -0.7787 -0.4021 -0.0019
  860MOL0    Cl16010   0.879   1.424   3.516  0.0856 -0.0864 -0.1972
  860MOL0     C16011   1.456   1.660   4.018  0.2086 -0.4097  0.4982
  860MOL0     C16012   1.556   1.615   4.101 -1.2265  0.1933  0.4391
  860MOL0     O16013   1.731   1.434   4.231 -0.0566  0.2440 -0.1992
  860MOL0     C16014   1.941   1.646   4.443  0.2658  0.0019 -0.1557
  860MOL0     C16015   2.032   1.648   4.551  0.1626  0.4805 -0.2490
  860MOL0     N16016   1.791   1.684   5.121 -0.2660 -0.4591 -0.3263
  860MOL0     N16017   1.713   1.782   5.091 -0.9116 -0.3160  0.0798
  860MOL0     C16018   0.648   2.188   4.538  0.5656  1.3053 -0.2163
  860MOL0     C16019   0.505   2.169   4.547  0.5434  0.2001  0.2004
  860MOL0     C16020   0.108   1.996   4.708  0.4057  0.3939  0.3574
  860MOL0     C16021   0.051   1.874   4.721  0.8206  0.3005  0.9339
  860MOL0     C16022  -0.087   1.858   4.715 -0.0094  0.1972 -0.0936
  860MOL0     C16023  -0.171   1.965   4.722  0.8531 -0.6760 -0.7691
  860MOL0     O16024  -0.310   1.951   4.740  0.0894  0.4814  1.0085
  860MOL0     C16025  -0.387   1.937   4.617  0.2713 -0.1905  0.7909
  860MOL0     C16026  -0.513   1.838   4.629 -0.2341 -0.3495  0.1471
  860MOL0     C16027  -0.604   1.842   4.505 -0.5990  0.8653  0.2465
  860MOL0     C16028  -0.708   1.728   4.517  0.7163 -0.7946 -0.0735
  860MOL0     C16029  -0.817   1.736   4.614  0.4203  0.4191  0.3659
  860MOL0     C16030  -0.899   1.762   4.699  0.3013 -0.0836 -0.3145
  860MOL0     C16031  -0.120   2.087   4.702 -0.0955 -0.5975 -0.7514
  860MOL0     C16032   0.021   2.105   4.689 -0.7502 -0.4203 -0.1069
  860MOL0     H16033   0.484   2.085   4.877  1.3437 -3.4088  0.8396
  860MOL0     H16034   0.717   2.121   4.872  1.6497 -1.8670 -0.8889
  860MOL0     H16035   0.869   1.968   4.707 -3.3968 -0.4068 -3.6593
  860MOL0     H16036   0.958   2.011   4.563 -1.5968 -1.0071  0.3571
  860MOL0     H16037   1.005   2.106   4.851  2.0590 -0.0372 -0.1303
  860MOL0     H16038   1.103   1.979   4.769  0.7274 -0.2370  0.3289
  860MOL0     H16039   1.173   2.157   4.600 -2.5359 -1.7340  0.0140
  860MOL0     H16040   1.089   2.279   4.696 -2.6212 -0.5493  1.6078
  860MOL0     H16041   1.353   2.264   4.742  0.4898  1.3871  1.9424
  860MOL0     H16042   1.257   2.230   4.891  4.3926 -0.8020  1.1984
  860MOL0     H16043   1.310   2.006   4.882 -1.3855  1.2660  0.7022
  860MOL0     H16044   1.354   2.012   4.710 -1.0868  0.1367  0.5298
  860MOL0     H16045   1.557   2.126   4.750 -1.5252  0.2522  0.2367
  860MOL0     H16046   1.520   2.178   4.911  0.2637 -1.5722  1.8109
  860MOL0     H16047   1.511   1.925   4.988  0.8846  0.3237  0.8832
  860MOL0     H16048   1.548   1.886   4.819  0.8157  0.3798 -0.0545
  860MOL0     H16049   1.732   2.046   5.003  0.8242 -1.7150  0.2366
  860MOL0     H16050   1.760   1.991   4.833  0.1143  0.3916 -0.1363
  860MOL0     H16051   1.878   1.788   4.818  0.0904  0.3180  0.1448
  860MOL0     H16052   1.979   1.501   5.065  0.1461  1.1805  1.5209
  860MOL0     H16053   1.938   1.504   4.888 -1.7002  0.6515  1.1508
  860MOL0     H16054   2.125   1.691   5.017  0.6300  0.6770 -0.3100
  860MOL0     H16055   2.074   1.678   4.847  1.2684 -2.6639 -1.0104
  860MOL0     H16056   2.220   1.460   5.017 -0.8170 -1.0630 -0.1235
  860MOL0     H16057   2.309   1.571   4.927 -0.1736 -0.7345  3.0865
  860MOL0     H16058   2.121   1.371   4.798  0.1516 -0.9952 -0.2951
  860MOL0     H16059   2.297   1.387   4.782 -1.1297 -1.3833  1.4409
  860MOL0     H16060   2.045   1.314   4.606 -1.1487 -0.8359 -0.9210
  860MOL0     H16061   1.885   1.203   4.514 -1.5516 -0.2790  2.1145
  860MOL0     H16062   1.737   1.278   4.448  0.5888  1.6425  0.0122
  860MOL0     H16063   1.864   1.259   4.344  1.2649  3.1271 -0.1076
  860MOL0     H16064   1.758   1.879   4.106  1.1333 -1.6120  2.8230
  860MOL0     H16065   1.569   1.980   3.981  1.7102 -0.7157 -0.6634
  860MOL0     H16066   1.181   1.859   3.811 -0.1514 -0.5210  0.1372
  860MOL0     H16067   1.242   1.703   3.836 -0.1289  2.0744 -3.4244
  860MOL0     H16068   1.191   1.748   4.102 -2.4924  2.2468  1.2408
  860MOL0     H16069   1.117   1.884   4.049  1.2162  0.8826 -2.0402
  860MOL0     H16070   0.966   1.660   4.094 -2.3778 -3.6294 -1.8317
  860MOL0     H16071   1.039   1.591   3.952 -1.8064 -0.1259 -0.6013
  860MOL0     H16072   0.858   1.840   3.993  0.9270  2.4532 -2.3149
  860MOL0     H16073   0.951   1.837   3.849 -0.0030 -1.3625 -0.8601
  860MOL0     H16074   0.714   1.763   3.863  2.8667  2.4040  1.0971
  860MOL0     H16075   0.750   1.630   3.959  0.3397  0.1435  0.7236
  860MOL0     H16076   0.902   1.538   3.796  1.3129  1.3010  0.7506
  860MOL0     H16077   0.736   1.526   3.742  0.3116 -0.0146 -0.2335
  860MOL0     H16078   0.925   1.761   3.657  1.1102 -0.6887  0.7385
  860MOL0     H16079   0.764   1.711   3.588 -0.3865 -1.2562  2.2444
  860MOL0     H16080   1.036   1.589   3.563 -0.0187 -0.3853 -1.8693
  860MOL0     H16081   0.934   1.645   3.427  0.4166  0.1482  0.2681
  860MOL0     H16082   1.376   1.592   3.991 -0.8860 -0.1074  2.7240
  860MOL0     H16083   1.548   1.510   4.124  0.3646 -0.0823 -0.2002
  860MOL0     H16084   1.919   1.746   4.406  2.1523  0.4199 -0.2447
  860MOL0     H16085   2.075   1.741   4.585  0.2955  0.0214  0.8774
  860MOL0     H16086   0.704   2.223   4.452  1.0427  3.8204  1.0074
  860MOL0     H16087   0.446   2.193   4.460 -1.6900 -0.7425  1.3837
  860MOL0     H16088   0.105   1.780   4.723  2.5295  1.2563  1.8221
  860MOL0     H16089  -0.124   1.757   4.727 -1.7308  0.8203  0.0674
  860MOL0     H16090  -0.430   2.033   4.588 -1.8807 -1.0771  0.8748
  860MOL0     H16091  -0.332   1.894   4.533 -1.6982 -1.8542  0.2723
  860MOL0     H16092  -0.565   1.856   4.724  1.4852  1.0624  0.8756
  860MOL0     H16093  -0.468   1.738   4.635 -0.3569 -0.4848 -0.9032
  860MOL0     H16094  -0.546   1.825   4.414 -0.0671  0.3326  0.6784
  860MOL0     H16095  -0.649   1.941   4.497 -0.0469  0.9765 -2.2198
  860MOL0     H16096  -0.665   1.629   4.535  1.7480 -0.3427  0.0318
  860MOL0     H16097  -0.760   1.718   4.421  0.1561  1.1914 -0.0268
  860MOL0     H16098  -0.966   1.808   4.768  0.3974 -0.3944 -0.0106
  860MOL0     H16099  -0.176   2.180   4.698 -0.3527 -0.7842 -2.5251
  860MOL0     H16100   0.068   2.203   4.686  0.7013 -1.0402  1.4234
  861MOL0     O16101   6.055   9.992   3.058  0.0567 -1.1053 -0.4073
  861MOL0     C16102   6.106   9.905   3.126 -0.2207 -0.1479  0.7004
  861MOL0     O16103   6.057   9.786   3.156  0.1900 -0.0108  0.3957
  861MOL0     C16104   5.921   9.780   3.154 -0.0482 -0.1170  0.2004
  861MOL0     C16105   5.851   9.766   3.029 -0.1578 -0.4150 -0.0537
  861MOL0     C16106   5.710   9.777   3.026  1.0185  0.4208  0.5567
  861MOL0     C16107   5.646   9.813   3.147 -0.2865  1.3197  0.6751
  861MOL0     O16108   5.515   9.855   3.150 -0.3958 -0.7966  0.2310
  861MOL0     C16109   5.416   9.762   3.115 -0.9388 -0.2083  0.0077
  861MOL0     C16110   5.293   9.844   3.126 -0.3995 -0.9540  0.3589
  861MOL0     C16111   5.178   9.748   3.096 -0.2299  0.2988  0.8949
  861MOL0     C16112   5.063   9.818   3.043 -0.9502  0.0081 -0.4357
  861MOL0     C16113   4.952   9.711   3.008 -0.3630 -0.2108  0.7365
  861MOL0     C16114   4.848   9.767   2.905 -0.7984  0.0702 -0.4654
  861MOL0     C16115   4.725   9.667   2.906 -0.1798  0.4674  0.0908
  861MOL0     C16116   4.617   9.728   2.815 -0.0710  0.0877  0.1960
  861MOL0     N16117   4.501   9.641   2.835 -0.2331 -0.4562 -0.3483
  861MOL0     C16118   4.459   9.539   2.761 -0.0213  0.3382  0.4441
  861MOL0     C16119   4.345   9.497   2.821 -0.8028 -0.0349  1.1015
  861MOL0     C16120   4.285   9.373   2.770 -0.4758  0.1009 -0.0742
  861MOL0     C16121   4.230   9.376   2.632  0.0063  0.4469  0.0002
  861MOL0     C16122   4.110   9.474   2.609  0.1647 -0.4341 -0.0631
  861MOL0     C16123   4.092   9.494   2.455 -0.6706 -0.5328 -0.4149
  861MOL0     O16124   4.058   9.379   2.375 -0.2210 -0.5323 -0.0616
  861MOL0     C16125   3.945   9.314   2.403  0.5470 -0.0219  0.2889
  861MOL0     C16126   3.945   9.173   2.370  0.3514  0.1720  0.1206
  861MOL0     C16127   3.841   9.088   2.398  0.3768  0.1066  0.0103
  861MOL0     C16128   3.844   8.942   2.367 -0.0984  0.1067  0.0407
  861MOL0     C16129   3.725   9.137   2.464 -0.0544  0.3198 -0.5970
  861MOL0     C16130   3.613   9.058   2.528 -0.4160  0.9009  0.5696
  861MOL0     O16131   3.492   9.112   2.526 -0.0425 -0.0974  0.2256
  861MOL0     C16132   3.391   9.050   2.576  0.4378  0.0473 -0.5412
  861MOL0     C16133   3.390   9.007   2.708  1.1778 -0.0254  0.2435
  861MOL0     C16134   3.286   8.921   2.746  0.1079  0.1947  0.3794
  861MOL0     C16135   3.183   8.880   2.667 -0.1292 -1.3052 -0.0816
  861MOL0     O16136   3.088   8.786   2.704  0.4670 -0.4975  0.0765
  861MOL0     C16137   3.046   8.779   2.838  0.8187 -0.4403 -0.0745
  861MOL0     C16138   3.107   8.670   2.915 -0.0711  0.1807 -0.5423
  861MOL0     C16139   3.039   8.652   3.052  0.5129  1.0998  0.8835
  861MOL0     C16140   3.121   8.553   3.142  0.9781 -0.1427 -0.1777
  861MOL0     C16141   3.086   8.554   3.285  0.9210  0.5934 -1.3544
  861MOL0     C16142   3.183   8.448   3.360  0.5929 -0.5466 -0.4911
  861MOL0     C16143   3.163   8.435   3.511  0.3393 -0.2834  1.0671
  861MOL0     C16144   3.178   8.293   3.576  0.0891 -0.0134  0.3654
  861MOL0    Cl16145   3.092   8.297   3.732  0.2496 -0.0226 -0.4778
  861MOL0     C16146   3.194   8.927   2.534  0.2393 -0.7681 -0.4487
  861MOL0     C16147   3.291   9.012   2.486 -0.2801 -0.3062  0.2801
  861MOL0     O16148   3.646   8.950   2.586  0.4714  0.7883  0.0480
  861MOL0     C16149   3.721   9.273   2.494 -0.2009 -0.9573  0.0477
  861MOL0     C16150   3.830   9.361   2.463  0.2184 -0.0279 -0.4844
  861MOL0     N16151   4.318   9.579   2.935  0.9560 -0.0911  0.3852
  861MOL0     N16152   4.409   9.675   2.935 -1.1261  1.3287 -0.1551
  861MOL0     C16153   5.717   9.838   3.263 -0.4178 -1.0222 -0.1375
  861MOL0     C16154   5.851   9.819   3.265 -0.1304 -0.4167 -0.0501
  861MOL0     C16155   6.243   9.928   3.180  0.4345  0.0060  0.5242
  861MOL0     C16156   6.325   9.816   3.214  0.7406  0.8257 -1.1711
  861MOL0     C16157   6.457   9.834   3.255  0.2365  0.4142 -0.5570
  861MOL0     C16158   6.503   9.962   3.275 -0.8668  0.5806  0.1696
  861MOL0     O16159   6.641   9.971   3.289 -0.3233  0.0306 -0.0769
  861MOL0     C16160   6.705  10.077   3.372  0.5550 -0.7505  0.1986
  861MOL0     C16161   6.765  10.182   3.264 -0.0309  0.1865  0.6101
  861MOL0     C16162   6.863  10.278   3.335  0.3305  1.0407 -0.5034
  861MOL0     C16163   6.961  10.329   3.230  0.1343 -0.1219  0.1100
  861MOL0     C16164   6.896  10.410   3.126  0.0204 -0.7109 -0.2782
  861MOL0     C16165   6.833  10.467   3.041 -0.3902  0.5638 -0.1497
  861MOL0     C16166   6.428  10.074   3.234  0.3547 -0.3306  0.3008
  861MOL0     C16167   6.299  10.066   3.182 -0.6346 -0.3365 -0.0916
  861MOL0     H16168   5.906   9.738   2.940  1.2672  0.8082  0.4080
  861MOL0     H16169   5.649   9.766   2.937  1.2357 -1.4394  0.5967
  861MOL0     H16170   5.418   9.725   3.012 -2.6811 -0.6203  0.0774
  861MOL0     H16171   5.419   9.673   3.179 -2.8282 -0.6845 -0.4986
  861MOL0     H16172   5.279   9.873   3.230 -2.9913  0.0268 -0.2105
  861MOL0     H16173   5.294   9.924   3.051 -1.3680 -0.5268  0.7920
  861MOL0     H16174   5.208   9.675   3.020  0.7963  0.7021  0.8997
  861MOL0     H16175   5.150   9.685   3.181  1.0246 -0.8598  0.4803
  861MOL0     H16176   5.013   9.882   3.117  0.1802  2.3810 -1.6085
  861MOL0     H16177   5.093   9.885   2.962  1.9977 -0.6542  0.0140
  861MOL0     H16178   5.009   9.627   2.966 -0.3213  0.2715 -0.1882
  861MOL0     H16179   4.908   9.673   3.101 -2.3240 -3.1857 -1.2216
  861MOL0     H16180   4.821   9.868   2.937 -0.4135  0.4583 -1.3470
  861MOL0     H16181   4.890   9.763   2.804  1.1989  0.0087  0.3317
  861MOL0     H16182   4.749   9.564   2.877  3.7529  1.1708  0.3166
  861MOL0     H16183   4.683   9.659   3.007 -0.0234  1.2027  0.2156
  861MOL0     H16184   4.647   9.719   2.710 -0.8753  0.6179 -0.0890
  861MOL0     H16185   4.590   9.833   2.832 -1.2753 -0.5602  2.5886
  861MOL0     H16186   4.496   9.483   2.676  0.4823  0.9243  0.2675
  861MOL0     H16187   4.352   9.286   2.773 -0.5411 -0.0408 -1.7879
  861MOL0     H16188   4.207   9.338   2.837  1.7939 -3.3358  1.0129
  861MOL0     H16189   4.210   9.270   2.616  3.0854  0.1624 -3.2156
  861MOL0     H16190   4.314   9.396   2.564  0.2805  0.7117  0.4100
  861MOL0     H16191   4.137   9.564   2.664 -0.3583 -0.5426  0.3856
  861MOL0     H16192   4.017   9.436   2.651  1.2539 -1.5888  1.4364
  861MOL0     H16193   4.181   9.538   2.409 -1.3151  0.8153 -0.4231
  861MOL0     H16194   4.014   9.570   2.451 -0.5649 -0.1339  2.5100
  861MOL0     H16195   4.029   9.128   2.319 -1.3569 -2.0774 -0.8532
  861MOL0     H16196   3.835   8.881   2.458 -1.8072  2.5726  1.6624
  861MOL0     H16197   3.758   8.912   2.307 -0.8756  1.3152  0.5312
  861MOL0     H16198   3.925   8.918   2.297 -0.9386 -0.9246 -0.6042
  861MOL0     H16199   3.478   9.015   2.772  1.6068  1.6141 -0.4784
  861MOL0     H16200   3.286   8.887   2.849 -4.1001  1.1718  0.8804
  861MOL0     H16201   3.061   8.872   2.894 -1.1987 -0.2423  0.2286
  861MOL0     H16202   2.938   8.759   2.841  0.1969  2.4995 -0.0702
  861MOL0     H16203   3.106   8.585   2.845  0.4460  1.7022 -2.4946
  861MOL0     H16204   3.211   8.700   2.931 -0.8700  3.6876 -1.1752
  861MOL0     H16205   2.943   8.603   3.030  1.4097 -0.7633  0.8910
  861MOL0     H16206   3.019   8.752   3.092 -1.6085  1.1782 -0.1913
  861MOL0     H16207   3.105   8.451   3.106  1.2020  0.3804 -1.8253
  861MOL0     H16208   3.227   8.573   3.125  1.5885 -3.5384 -1.2699
  861MOL0     H16209   2.982   8.526   3.303  1.7034 -1.8122 -0.1884
  861MOL0     H16210   3.102   8.654   3.326  2.3563  0.0846 -0.5915
  861MOL0     H16211   3.155   8.356   3.308 -0.2951 -1.5282  1.5894
  861MOL0     H16212   3.287   8.478   3.347  0.4706  0.7676  1.2341
  861MOL0     H16213   3.067   8.478   3.540 -0.6786  0.0808 -2.3483
  861MOL0     H16214   3.239   8.494   3.563  0.2554 -1.0035  2.0388
  861MOL0     H16215   3.282   8.261   3.588 -0.6710 -2.6235  0.5583
  861MOL0     H16216   3.132   8.214   3.515 -1.1131 -0.6562  2.0241
  861MOL0     H16217   3.132   8.891   2.453  0.1285  0.1435 -0.7817
  861MOL0     H16218   3.304   9.031   2.380 -2.0922 -0.2952  0.0320
  861MOL0     H16219   3.626   9.306   2.533 -0.0181 -1.4300  0.9390
  861MOL0     H16220   3.818   9.463   2.496  1.8340  0.8059 -2.2184
  861MOL0     H16221   5.653   9.877   3.341 -1.8826 -0.5021 -1.5334
  861MOL0     H16222   5.904   9.848   3.355 -0.3627 -1.6557  0.4991
  861MOL0     H16223   6.290   9.714   3.215 -0.0590  1.0591  0.8866
  861MOL0     H16224   6.513   9.745   3.282 -3.6203 -2.1501 -0.3862
  861MOL0     H16225   6.637  10.119   3.446  2.2523 -1.2725  2.1534
  861MOL0     H16226   6.791  10.034   3.424 -1.0617 -2.6352  1.4667
  861MOL0     H16227   6.693  10.236   3.202  0.3852  0.4975  0.3899
  861MOL0     H16228   6.805  10.112   3.191 -1.4145  3.1110 -3.2717
  861MOL0     H16229   6.924  10.230   3.413 -2.2205 -0.7778  0.4914
  861MOL0     H16230   6.804  10.356   3.384  0.4547  0.8916 -0.1126
  861MOL0     H16231   7.004  10.240   3.184 -0.6061  0.0953 -1.0368
  861MOL0     H16232   7.047  10.378   3.277  2.0361 -1.9287 -1.3120
  861MOL0     H16233   6.776  10.516   2.965  0.2816 -1.3436 -1.9710
  861MOL0     H16234   6.459  10.178   3.244 -1.0172  0.0790  0.4976
  861MOL0     H16235   6.251  10.159   3.152  3.1966  0.7369 -3.8899
  862MOL0     O16236  10.332   5.283   6.415 -0.2923 -0.5918 -1.3417
  862MOL0     C16237  10.306   5.265   6.537 -0.5244 -0.4565  0.6584
  862MOL0     O16238  10.201   5.199   6.585 -0.6187  0.2630 -0.0254
  862MOL0     C16239  10.103   5.167   6.490 -0.0658  0.5900 -0.0449
  862MOL0     C16240  10.020   5.252   6.422 -0.0446 -0.3482  0.5726
  862MOL0     C16241   9.911   5.213   6.347 -0.4305  0.2396 -0.1044
  862MOL0     C16242   9.862   5.079   6.357 -0.6932 -1.3945  0.2989
  862MOL0     O16243   9.743   5.032   6.305  0.2256 -0.4075 -0.0065
  862MOL0     C16244   9.658   5.117   6.224  0.6320 -0.1330 -1.0739
  862MOL0     C16245   9.723   5.144   6.091 -0.6765 -0.3939 -0.3555
  862MOL0     C16246   9.611   5.199   5.999  0.0009  0.2415  0.6967
  862MOL0     C16247   9.654   5.231   5.855 -0.1550 -0.6915 -0.6895
  862MOL0     C16248   9.550   5.188   5.748 -0.2098  0.0812 -0.0601
  862MOL0     C16249   9.417   5.265   5.762  0.2355 -0.3979  0.2318
  862MOL0     C16250   9.316   5.224   5.668  0.0210  0.3038 -1.0238
  862MOL0     C16251   9.179   5.277   5.703 -0.1469 -0.4442 -0.8702
  862MOL0     N16252   9.090   5.244   5.603 -0.3250  0.4726  1.2399
  862MOL0     C16253   8.977   5.313   5.586  0.0713  0.4143  0.0844
  862MOL0     C16254   8.900   5.231   5.514  0.2733 -0.2320  0.9729
  862MOL0     C16255   8.763   5.268   5.482  0.5855 -0.1597  0.1625
  862MOL0     C16256   8.671   5.249   5.607 -0.3312  0.3089  0.0744
  862MOL0     C16257   8.526   5.210   5.569 -0.6458 -0.8477 -0.0191
  862MOL0     C16258   8.450   5.152   5.691  0.0144  0.6325 -0.4418
  862MOL0     O16259   8.317   5.118   5.649 -0.5718  0.0198  0.1851
  862MOL0     C16260   8.233   5.215   5.602 -0.6646 -0.5927  0.4020
  862MOL0     C16261   8.129   5.169   5.518 -0.6031  0.5527 -0.2168
  862MOL0     C16262   8.032   5.260   5.472  0.2773 -0.8725  0.3288
  862MOL0     C16263   7.916   5.209   5.391  0.7520  0.0061 -0.8654
  862MOL0     C16264   8.047   5.401   5.493 -0.0983  0.3887 -0.0258
  862MOL0     C16265   7.947   5.494   5.432 -1.5179 -0.5834  0.2868
  862MOL0     O16266   7.927   5.492   5.296 -0.4740  0.4381 -0.2358
  862MOL0     C16267   7.832   5.577   5.236 -0.0206 -0.3223 -0.0875
  862MOL0     C16268   7.720   5.638   5.294 -0.2585  1.1020  0.1877
  862MOL0     C16269   7.631   5.721   5.223 -0.4681  0.2844  0.8264
  862MOL0     C16270   7.651   5.735   5.082  0.0693 -0.3539 -0.2007
  862MOL0     O16271   7.556   5.813   5.012 -0.0850  0.1792 -0.1245
  862MOL0     C16272   7.571   5.838   4.869 -0.5768 -0.0490 -0.2670
  862MOL0     C16273   7.442   5.900   4.819 -0.2052  0.9563  0.2514
  862MOL0     C16274   7.456   6.046   4.869  1.1388  0.3403 -1.2210
  862MOL0     C16275   7.325   6.125   4.843  0.2676  0.1643  0.4331
  862MOL0     C16276   7.313   6.256   4.927  0.3439  0.6911  0.4525
  862MOL0     C16277   7.181   6.320   4.889  0.0147 -0.0473  0.5563
  862MOL0     C16278   7.149   6.437   4.971 -0.0379 -0.1613 -0.1164
  862MOL0     C16279   7.242   6.560   4.936  0.7317  0.1922 -0.1917
  862MOL0    Cl16280   7.213   6.704   5.037  0.2372  0.0480  0.5283
  862MOL0     C16281   7.755   5.674   5.024  0.1382  0.0597  1.3119
  862MOL0     C16282   7.844   5.595   5.099 -0.4261 -0.5571  0.1299
  862MOL0     O16283   7.913   5.589   5.512  0.1504 -1.1006 -0.2875
  862MOL0     C16284   8.153   5.443   5.572 -0.2921 -0.4311  0.4208
  862MOL0     C16285   8.248   5.355   5.624 -1.1781  0.4624 -0.0355
  862MOL0     N16286   8.960   5.116   5.473  0.4076  0.4275  0.1128
  862MOL0     N16287   9.083   5.133   5.523  0.0015 -0.5853 -0.0777
  862MOL0     C16288   9.929   5.001   6.443 -0.7494 -0.4236  0.5404
  862MOL0     C16289  10.051   5.041   6.506 -0.1146  0.6889 -0.2592
  862MOL0     C16290  10.399   5.327   6.628 -0.1516 -0.1480  0.2052
  862MOL0     C16291  10.352   5.367   6.752 -0.2288  0.3026  0.2424
  862MOL0     C16292  10.433   5.433   6.843  0.6388  0.4318  0.3910
  862MOL0     C16293  10.563   5.469   6.811 -0.5696  0.0999  0.4880
  862MOL0     O16294  10.650   5.531   6.899  0.8737 -0.8058  0.2669
  862MOL0     C16295  10.613   5.578   7.030  0.6841  0.2910  0.4306
  862MOL0     C16296  10.739   5.602   7.113  0.2160  0.2261 -0.0730
  862MOL0     C16297  10.816   5.468   7.136 -0.1290 -0.1249 -0.1674
  862MOL0     C16298  10.805   5.414   7.275 -0.5892  0.6341 -0.7456
  862MOL0     C16299  10.670   5.390   7.317  0.6288 -0.3320 -0.1803
  862MOL0     C16300  10.554   5.372   7.343  0.2032  0.8746 -0.5844
  862MOL0     C16301  10.619   5.429   6.689  1.1187 -0.0797  0.2935
  862MOL0     C16302  10.530   5.362   6.594  0.1887 -0.1610  0.2082
  862MOL0     H16303  10.046   5.356   6.408 -0.4052 -0.3229  0.0434
  862MOL0     H16304   9.865   5.294   6.291 -4.5410 -1.7002  0.1001
  862MOL0     H16305   9.564   5.065   6.208 -0.7401  1.4100  1.4155
  862MOL0     H16306   9.634   5.209   6.278 -0.5946 -3.2588  4.4023
  862MOL0     H16307   9.802   5.220   6.096 -0.1765 -0.7157 -2.3343
  862MOL0     H16308   9.761   5.047   6.057  1.0963  0.1174  0.0767
  862MOL0     H16309   9.532   5.123   5.994  3.5173 -3.6867 -0.8887
  862MOL0     H16310   9.579   5.294   6.044  0.5547  0.0375  1.5414
  862MOL0     H16311   9.684   5.336   5.849  0.4505 -0.8179 -0.0616
  862MOL0     H16312   9.743   5.171   5.834  1.4982  1.6155 -0.7226
  862MOL0     H16313   9.602   5.208   5.654  0.6989 -0.7386  0.2485
  862MOL0     H16314   9.520   5.084   5.759  0.4600  0.0401  1.7227
  862MOL0     H16315   9.374   5.233   5.858 -1.8366 -1.0032 -0.8380
  862MOL0     H16316   9.434   5.372   5.756  1.0279 -0.4258  1.4451
  862MOL0     H16317   9.346   5.256   5.567 -2.3616 -1.2581 -2.3240
  862MOL0     H16318   9.304   5.116   5.672 -0.9308  0.3682 -1.7803
  862MOL0     H16319   9.203   5.383   5.709  1.2641 -0.5848  7.3074
  862MOL0     H16320   9.141   5.259   5.804  0.3624  1.1376 -0.3789
  862MOL0     H16321   8.958   5.410   5.631 -0.2170 -0.6992  2.5368
  862MOL0     H16322   8.750   5.367   5.438  0.2899 -0.1606  0.2395
  862MOL0     H16323   8.740   5.197   5.402 -1.2281  0.2241  0.3064
  862MOL0     H16324   8.671   5.345   5.660  1.4450  1.1982 -1.3971
  862MOL0     H16325   8.719   5.170   5.665  0.8340  0.3266 -0.8205
  862MOL0     H16326   8.522   5.130   5.494  0.5205  0.1668 -1.2092
  862MOL0     H16327   8.478   5.298   5.526 -1.3451 -1.1618  0.0988
  862MOL0     H16328   8.438   5.229   5.768 -1.0065  1.4230 -1.3560
  862MOL0     H16329   8.497   5.063   5.734  0.6168  0.0925 -2.1607
  862MOL0     H16330   8.126   5.062   5.505 -0.4198  0.4217  0.7461
  862MOL0     H16331   7.880   5.114   5.433  0.5988 -0.7242 -2.5654
  862MOL0     H16332   7.830   5.276   5.400  0.3665 -0.6515  0.9722
  862MOL0     H16333   7.947   5.194   5.288 -3.2099 -0.5122 -2.1783
  862MOL0     H16334   7.693   5.614   5.397 -1.3454 -1.5550 -0.6597
  862MOL0     H16335   7.553   5.779   5.271 -0.8260 -0.0913  0.7036
  862MOL0     H16336   7.653   5.906   4.845 -1.1175  1.5095  1.9982
  862MOL0     H16337   7.591   5.748   4.810 -0.6079 -0.3415  0.1577
  862MOL0     H16338   7.438   5.902   4.709 -2.8235  0.2126  0.2577
  862MOL0     H16339   7.359   5.844   4.863 -0.5346  0.9191 -0.3943
  862MOL0     H16340   7.541   6.095   4.821  1.8694 -0.9382 -1.2929
  862MOL0     H16341   7.480   6.050   4.976  2.9032  0.5877 -1.5864
  862MOL0     H16342   7.328   6.156   4.738  1.9078 -0.8979  0.1341
  862MOL0     H16343   7.234   6.066   4.858 -0.3306  0.1335 -2.6783
  862MOL0     H16344   7.399   6.321   4.907  1.5321 -0.8652  0.2556
  862MOL0     H16345   7.318   6.226   5.032  3.3202 -5.2389 -0.9369
  862MOL0     H16346   7.173   6.354   4.785  1.3619  3.3579  1.4663
  862MOL0     H16347   7.101   6.247   4.908  2.1046 -2.4385  0.6299
  862MOL0     H16348   7.158   6.408   5.076 -2.6156 -0.2979  0.1381
  862MOL0     H16349   7.044   6.460   4.950 -0.5256 -3.2470 -1.6495
  862MOL0     H16350   7.222   6.585   4.831  1.5536 -0.2157 -0.4478
  862MOL0     H16351   7.346   6.530   4.950  0.8564  0.5789 -0.2730
  862MOL0     H16352   7.772   5.679   4.917 -0.3829  1.2228  1.2624
  862MOL0     H16353   7.919   5.538   5.045  0.5379 -0.6238  1.4903
  862MOL0     H16354   8.171   5.548   5.593  1.3235 -0.1216 -2.1186
  862MOL0     H16355   8.325   5.393   5.690 -2.2110  0.1187  1.4266
  862MOL0     H16356   9.895   4.899   6.462  1.7396 -2.4155 -4.0160
  862MOL0     H16357  10.100   4.969   6.569  1.1588 -0.7901 -2.7803
  862MOL0     H16358  10.248   5.342   6.767  0.1663 -0.4293  1.9810
  862MOL0     H16359  10.404   5.448   6.947  3.5638 -3.4960  2.0399
  862MOL0     H16360  10.562   5.675   7.024  0.0716  0.0637  1.6665
  862MOL0     H16361  10.538   5.517   7.080 -2.2200  2.2610 -1.2316
  862MOL0     H16362  10.723   5.645   7.213  0.6172 -0.1070  0.1374
  862MOL0     H16363  10.805   5.664   7.052 -1.1568 -0.3198 -2.1864
  862MOL0     H16364  10.922   5.479   7.108 -0.3055 -0.2171 -0.8930
  862MOL0     H16365  10.776   5.390   7.070  1.2264 -0.3127 -0.8088
  862MOL0     H16366  10.843   5.478   7.355 -1.2597  3.6849 -2.6489
  862MOL0     H16367  10.858   5.320   7.285 -1.8294 -0.3596 -2.8427
  862MOL0     H16368  10.459   5.353   7.390  0.7725  1.9883  1.1010
  862MOL0     H16369  10.725   5.444   6.673  0.5873  2.7937 -1.1183
  862MOL0     H16370  10.575   5.349   6.496  2.1611  1.4172  0.8252
  863MOL0     O16371   9.055   9.877   8.036 -0.1510  0.0450 -0.1523
  863MOL0     C16372   9.042   9.862   7.917 -0.1796 -0.5996 -0.5245
  863MOL0     O16373   9.116   9.778   7.836 -0.4919  0.1019 -0.5274
  863MOL0     C16374   9.189   9.684   7.901  0.2924  0.4214  0.2255
  863MOL0     C16375   9.120   9.557   7.926 -0.1529 -0.8480  0.2951
  863MOL0     C16376   9.194   9.448   7.974 -0.1594 -0.0001 -0.1461
  863MOL0     C16377   9.330   9.459   7.990  0.3870 -0.3844 -0.0214
  863MOL0     O16378   9.407   9.354   8.019 -0.2696 -0.2548  0.5054
  863MOL0     C16379   9.493   9.368   8.134  0.9386  0.0978 -1.2278
  863MOL0     C16380   9.528   9.228   8.199 -0.3300  0.2980  0.7019
  863MOL0     C16381   9.641   9.220   8.308  0.0873  0.9591  0.5471
  863MOL0     C16382   9.598   9.158   8.448  1.1565  0.4583  0.3624
  863MOL0     C16383   9.723   9.147   8.539 -0.2723 -0.3032 -0.2119
  863MOL0     C16384   9.697   9.078   8.668 -0.2322  0.4153  0.9156
  863MOL0     C16385   9.811   9.070   8.760 -0.4796 -0.4850  0.1243
  863MOL0     C16386   9.932   8.998   8.688  0.6354  0.0963 -0.2420
  863MOL0     N16387  10.035   8.955   8.775 -0.0421 -0.5417  0.2125
  863MOL0     C16388  10.106   9.041   8.852  0.0113  0.7237 -0.3073
  863MOL0     C16389  10.206   8.971   8.900 -0.8079  0.8529 -0.3716
  863MOL0     C16390  10.335   9.028   8.971  0.3850  0.3138 -0.3610
  863MOL0     C16391  10.441   9.051   8.868  0.6443 -0.1942 -0.0110
  863MOL0     C16392  10.417   9.189   8.798  0.3855 -0.2773  0.1720
  863MOL0     C16393  10.355   9.187   8.660  0.1087  0.0110  0.2412
  863MOL0     O16394  10.355   9.318   8.605 -0.1483 -1.0143 -1.1143
  863MOL0     C16395  10.234   9.366   8.555 -0.3845  0.0526 -0.7927
  863MOL0     C16396  10.234   9.427   8.436  0.6038  1.3872  0.8136
  863MOL0     C16397  10.128   9.495   8.384  0.1844 -0.1562  1.0158
  863MOL0     C16398  10.152   9.555   8.245 -0.5696 -0.1229  0.8967
  863MOL0     C16399  10.005   9.502   8.463 -0.4798 -0.7511  0.6488
  863MOL0     C16400   9.884   9.566   8.407  0.5381 -0.6751 -0.5290
  863MOL0     O16401   9.886   9.652   8.291 -0.5695 -0.0719  0.6506
  863MOL0     C16402   9.767   9.713   8.241 -1.1059 -0.3347  0.2921
  863MOL0     C16403   9.789   9.821   8.158  0.0084  0.7143 -0.1291
  863MOL0     C16404   9.692   9.903   8.102  0.2142  0.3222 -0.0233
  863MOL0     C16405   9.553   9.881   8.138 -0.1667  0.4675 -0.0108
  863MOL0     O16406   9.450   9.938   8.074  0.3002  0.0248  0.6777
  863MOL0     C16407   9.434  10.077   8.097 -0.5359  0.0906  0.0675
  863MOL0     C16408   9.296  10.121   8.052 -0.5171  0.1330 -0.5154
  863MOL0     C16409   9.269  10.264   8.114 -0.5747 -0.0725 -0.5004
  863MOL0     C16410   9.117  10.292   8.119  0.2041 -0.1985 -0.1353
  863MOL0     C16411   9.096  10.438   8.138 -0.0164  0.0933 -0.2003
  863MOL0     C16412   8.958  10.485   8.163  1.0705  0.7386  0.7055
  863MOL0     C16413   8.912  10.626   8.123  0.4701  0.1845  0.0957
  863MOL0     C16414   8.816  10.636   8.005  0.2463 -0.8397 -0.1054
  863MOL0    Cl16415   8.924  10.623   7.856  0.1133 -0.0517  0.1924
  863MOL0     C16416   9.527   9.771   8.226 -1.4729 -0.0663  0.1539
  863MOL0     C16417   9.631   9.686   8.273 -0.2935 -0.3670 -0.6559
  863MOL0     O16418   9.783   9.537   8.470 -0.0060 -0.3430 -0.3563
  863MOL0     C16419  10.007   9.442   8.593  0.3082 -0.1588 -0.4764
  863MOL0     C16420  10.122   9.368   8.635  0.2534 -0.0104 -0.1399
  863MOL0     N16421  10.209   8.842   8.848 -0.9826  0.5447  0.4731
  863MOL0     N16422  10.099   8.834   8.765 -0.4254  0.2154 -0.4811
  863MOL0     C16423   9.394   9.583   7.957 -0.8917 -0.2013 -0.4628
  863MOL0     C16424   9.325   9.691   7.910  0.1911  0.6498 -0.2444
  863MOL0     C16425   8.971   9.965   7.849  0.1081 -0.1807  0.9030
  863MOL0     C16426   9.002   9.989   7.709  0.7088  0.9350 -0.2894
  863MOL0     C16427   8.955  10.095   7.632 -0.0459  0.3476 -0.3384
  863MOL0     C16428   8.860  10.177   7.696  0.8166  0.7219 -0.1509
  863MOL0     O16429   8.799  10.278   7.638  0.6736  0.1567  1.0427
  863MOL0     C16430   8.817  10.324   7.502  0.0959 -0.0797  0.1485
  863MOL0     C16431   8.749  10.462   7.491  0.4322 -0.2181 -0.7826
  863MOL0     C16432   8.594  10.433   7.509 -0.3320  1.2459  0.0258
  863MOL0     C16433   8.514  10.564   7.495  0.1092  0.2033  1.1237
  863MOL0     C16434   8.380  10.553   7.549 -0.3385 -0.0310 -0.0356
  863MOL0     C16435   8.273  10.548   7.593 -0.2096 -0.0539  0.2509
  863MOL0     C16436   8.815  10.157   7.831  0.2984  0.8583 -0.7154
  863MOL0     C16437   8.875  10.056   7.901 -0.1014 -0.2995  1.3120
  863MOL0     H16438   9.012   9.548   7.925 -0.1103 -1.4454 -1.2302
  863MOL0     H16439   9.135   9.358   7.990 -0.0264 -0.1185 -0.3156
  863MOL0     H16440   9.581   9.420   8.095  0.0068  0.6963 -2.5983
  863MOL0     H16441   9.440   9.438   8.200 -0.3629  0.0102 -2.1453
  863MOL0     H16442   9.432   9.199   8.243  0.8142 -0.7269  2.7247
  863MOL0     H16443   9.552   9.154   8.122 -1.5225  1.2589 -0.6323
  863MOL0     H16444   9.732   9.168   8.275  0.6496  0.3753  2.8437
  863MOL0     H16445   9.675   9.321   8.332 -0.5116  1.0684  0.9675
  863MOL0     H16446   9.527   9.223   8.500  1.2045  0.9057 -0.1234
  863MOL0     H16447   9.560   9.057   8.429  2.3140 -0.6496  3.2181
  863MOL0     H16448   9.802   9.104   8.477  0.7978  2.0633 -0.6069
  863MOL0     H16449   9.746   9.252   8.558  1.7203 -0.6089 -0.7246
  863MOL0     H16450   9.609   9.125   8.713 -0.0932  0.6753  0.9235
  863MOL0     H16451   9.671   8.973   8.655  0.5965  0.4330 -1.3710
  863MOL0     H16452   9.831   9.176   8.779  1.7438 -0.3903 -2.1262
  863MOL0     H16453   9.786   9.012   8.849  0.2878  0.2351  0.8288
  863MOL0     H16454   9.969   9.069   8.614  2.0741  0.6356  0.9509
  863MOL0     H16455   9.898   8.909   8.636  2.7727 -0.5674 -0.5672
  863MOL0     H16456  10.083   9.147   8.857 -4.5363  0.0466 -2.1492
  863MOL0     H16457  10.318   9.117   9.032  4.9308  0.3108  1.2612
  863MOL0     H16458  10.378   8.951   9.035 -0.7742 -0.0163  0.0410
  863MOL0     H16459  10.455   8.970   8.795  1.1004  0.1012 -0.2588
  863MOL0     H16460  10.535   9.068   8.920 -0.0991  2.9154  0.4965
  863MOL0     H16461  10.518   9.232   8.793 -0.2169  1.1761 -0.1736
  863MOL0     H16462  10.358   9.258   8.859  0.1601  0.5258 -0.9287
  863MOL0     H16463  10.256   9.145   8.681  1.9330 -3.9356  1.8175
  863MOL0     H16464  10.402   9.111   8.597 -0.6018 -2.1839  2.2405
  863MOL0     H16465  10.328   9.429   8.382  0.3533  0.1612  0.2919
  863MOL0     H16466  10.247   9.527   8.198 -0.7544 -0.5244  0.7504
  863MOL0     H16467  10.072   9.520   8.179  1.2455  0.0738 -1.5596
  863MOL0     H16468  10.151   9.664   8.254 -0.3592 -0.1122  0.8037
  863MOL0     H16469   9.897   9.831   8.156  0.2996 -0.4067  3.3149
  863MOL0     H16470   9.716   9.987   8.038 -0.0527  0.8567  0.5651
  863MOL0     H16471   9.438  10.082   8.207 -0.9035  0.7578  0.0546
  863MOL0     H16472   9.512  10.142   8.057  0.7839 -0.9608  0.8506
  863MOL0     H16473   9.289  10.109   7.944 -0.4304 -1.1092 -0.4004
  863MOL0     H16474   9.221  10.060   8.102  0.8968 -0.3424  1.1439
  863MOL0     H16475   9.305  10.339   8.043 -0.6817  1.6239  1.1733
  863MOL0     H16476   9.317  10.291   8.208 -2.7666  0.7915  0.4258
  863MOL0     H16477   9.078  10.272   8.018  1.2649  0.5885 -0.7229
  863MOL0     H16478   9.062  10.235   8.194  1.4675 -0.2509  0.7880
  863MOL0     H16479   9.141  10.503   8.063 -1.4612  3.1046  1.3819
  863MOL0     H16480   9.152  10.457   8.230  1.5173 -0.3637 -1.0076
  863MOL0     H16481   8.886  10.413   8.123  0.9456 -0.0464  2.2545
  863MOL0     H16482   8.939  10.479   8.271  0.1013 -0.6647  0.4957
  863MOL0     H16483   8.998  10.692   8.116 -0.2226  1.1769  0.6114
  863MOL0     H16484   8.853  10.656   8.211 -1.1663 -0.0446 -0.8743
  863MOL0     H16485   8.768  10.734   7.997  0.1408 -0.6958  1.8531
  863MOL0     H16486   8.736  10.561   8.017 -4.0495  3.5063  1.7788
  863MOL0     H16487   9.424   9.744   8.247 -1.5663 -0.7178 -1.0734
  863MOL0     H16488   9.595   9.607   8.337 -2.4731  0.3764 -0.8791
  863MOL0     H16489   9.924   9.458   8.661  1.0288  0.3737  0.2963
  863MOL0     H16490  10.117   9.329   8.736  3.0071  2.7104  1.2169
  863MOL0     H16491   9.502   9.580   7.958 -0.8912 -1.9423  1.4496
  863MOL0     H16492   9.371   9.787   7.887  0.0516  0.2958 -2.1981
  863MOL0     H16493   9.079   9.928   7.663 -0.2082 -1.5873  1.3156
  863MOL0     H16494   8.986  10.120   7.531  0.1301  2.2081  0.1406
  863MOL0     H16495   8.926  10.334   7.495  0.0543 -0.6656 -2.5700
  863MOL0     H16496   8.785  10.254   7.424  1.5919 -3.1107  2.0670
  863MOL0     H16497   8.766  10.512   7.396 -0.6249  0.2731 -0.7292
  863MOL0     H16498   8.789  10.520   7.575  0.8420 -0.4730 -0.7985
  863MOL0     H16499   8.577  10.365   7.593  0.4497  1.9281  0.7554
  863MOL0     H16500   8.570  10.377   7.417  1.3702  1.5791 -0.6575
  863MOL0     H16501   8.516  10.584   7.388  0.4172 -0.7213  0.9457
  863MOL0     H16502   8.566  10.647   7.544  1.0446  0.5689 -0.4266
  863MOL0     H16503   8.173  10.555   7.632 -1.0758 -0.1354 -1.8504
  863MOL0     H16504   8.732  10.210   7.876 -0.5230 -0.7290 -0.2607
  863MOL0     H16505   8.840  10.034   8.002 -0.1078 -1.9724  0.9600
  864MOL0     O16506   6.977   3.226   4.319  0.2488  0.0359 -0.3072
  864MOL0     C16507   7.046   3.148   4.254 -0.0043 -0.3374 -0.7319
  864MOL0     O16508   7.008   3.036   4.191  0.6165  0.3593  0.2478
  864MOL0     C16509   6.883   2.980   4.215  0.0849  0.9659  0.7031
  864MOL0     C16510   6.771   3.041   4.267  0.9322  0.0461  0.2273
  864MOL0     C16511   6.655   2.969   4.276  0.7541  0.6387  0.6333
  864MOL0     C16512   6.655   2.831   4.244  0.5732 -0.1204  0.5022
  864MOL0     O16513   6.550   2.745   4.261 -0.1909  0.0152  0.2490
  864MOL0     C16514   6.437   2.782   4.343 -0.2618 -0.4417 -0.2818
  864MOL0     C16515   6.328   2.832   4.247  0.4563  0.5005 -0.2320
  864MOL0     C16516   6.300   2.740   4.128  0.8060 -0.1674 -0.5654
  864MOL0     C16517   6.227   2.605   4.159  0.0774  0.4864  0.2023
  864MOL0     C16518   6.085   2.637   4.172 -0.1831 -0.0545  0.4699
  864MOL0     C16519   5.983   2.525   4.143  0.1703 -0.4439 -0.3309
  864MOL0     C16520   5.840   2.582   4.156 -0.4258 -0.1837  0.0209
  864MOL0     C16521   5.755   2.579   4.035  0.1554  0.8134  0.3869
  864MOL0     N16522   5.631   2.512   4.054  0.2707  0.3196  0.1661
  864MOL0     C16523   5.619   2.380   4.078 -0.6816  1.2667  0.7492
  864MOL0     C16524   5.486   2.366   4.079 -0.0559  0.0847 -0.4378
  864MOL0     C16525   5.402   2.236   4.106  0.6213 -0.7682 -0.5120
  864MOL0     C16526   5.247   2.259   4.131 -0.1520  0.2608 -0.5566
  864MOL0     C16527   5.167   2.125   4.143 -0.7201 -0.8473  0.0293
  864MOL0     C16528   5.018   2.130   4.166  0.2545  0.5483  1.0396
  864MOL0     O16529   4.981   2.240   4.256  0.1487 -0.5204 -0.2856
  864MOL0     C16530   4.853   2.247   4.303 -0.2351 -0.6338 -0.3615
  864MOL0     C16531   4.833   2.348   4.398 -0.7260 -0.8331  1.1383
  864MOL0     C16532   4.711   2.364   4.467 -0.2605 -0.6692 -0.5102
  864MOL0     C16533   4.690   2.469   4.575 -0.2442  0.2705 -0.2888
  864MOL0     C16534   4.602   2.291   4.419  0.0345  0.6689  0.1791
  864MOL0     C16535   4.471   2.309   4.481  0.5099  0.9593 -0.9101
  864MOL0     O16536   4.406   2.431   4.472  0.5125  0.1410 -0.7245
  864MOL0     C16537   4.291   2.445   4.532  0.5545 -0.4327  0.2225
  864MOL0     C16538   4.193   2.504   4.460  0.3138 -0.0356  0.4896
  864MOL0     C16539   4.063   2.530   4.508 -0.5426 -0.4005 -1.0218
  864MOL0     C16540   4.036   2.503   4.640 -0.4017  0.2641  0.7023
  864MOL0     O16541   3.920   2.529   4.701 -0.0422 -0.4146 -0.1492
  864MOL0     C16542   3.821   2.619   4.635 -0.8034 -0.4573 -0.1039
  864MOL0     C16543   3.673   2.606   4.689 -0.4388  0.0182  0.6501
  864MOL0     C16544   3.616   2.729   4.739  0.1430 -1.5202 -0.1060
  864MOL0     C16545   3.474   2.703   4.795 -0.1400  0.6491 -0.1667
  864MOL0     C16546   3.425   2.830   4.866 -0.0212  0.0736  0.2454
  864MOL0     C16547   3.274   2.840   4.868  0.1933 -0.5865 -0.8348
  864MOL0     C16548   3.198   2.745   4.951  0.6947  0.3764  0.6493
  864MOL0     C16549   3.046   2.756   4.933  0.7081  0.0515 -0.6820
  864MOL0    Cl16550   2.978   2.883   5.036 -0.1426  0.2800 -0.2686
  864MOL0     C16551   4.138   2.451   4.720 -0.2311  0.6153 -0.7229
  864MOL0     C16552   4.268   2.422   4.666  0.7246  0.9347  0.6219
  864MOL0     O16553   4.422   2.206   4.522  0.3622  0.7450 -0.5487
  864MOL0     C16554   4.620   2.192   4.320  0.1032  0.1509  0.0951
  864MOL0     C16555   4.748   2.170   4.265  1.5877 -0.7013  0.0011
  864MOL0     N16556   5.421   2.490   4.067  0.0120  0.0201 -0.1739
  864MOL0     N16557   5.512   2.577   4.044  0.0628  0.4083  0.3833
  864MOL0     C16558   6.765   2.766   4.185  1.3264 -0.1494  0.4007
  864MOL0     C16559   6.882   2.842   4.181  0.1118 -0.3875  0.2922
  864MOL0     C16560   7.197   3.163   4.270  0.2199 -0.2576 -0.4976
  864MOL0     C16561   7.283   3.058   4.233  0.1029 -0.0999  0.3375
  864MOL0     C16562   7.420   3.079   4.231 -0.8536 -0.1468 -0.6123
  864MOL0     C16563   7.480   3.203   4.260 -0.5196  0.3150 -0.5479
  864MOL0     O16564   7.611   3.199   4.241 -0.3585 -0.2253 -0.0612
  864MOL0     C16565   7.683   3.324   4.253  0.1679 -0.4422  0.8899
  864MOL0     C16566   7.836   3.297   4.235  0.4128  0.5788 -0.2763
  864MOL0     C16567   7.892   3.220   4.353 -0.3917 -0.6431 -0.2930
  864MOL0     C16568   8.016   3.300   4.395 -0.8930 -0.9419 -0.2498
  864MOL0     C16569   8.119   3.219   4.460 -1.0937  0.1865  0.6669
  864MOL0     C16570   8.211   3.171   4.523 -0.0484 -0.4220 -0.4601
  864MOL0     C16571   7.391   3.305   4.287 -0.1900  0.5844  0.4844
  864MOL0     C16572   7.253   3.284   4.302  0.1976  0.7116 -0.4441
  864MOL0     H16573   6.772   3.147   4.287 -1.6055 -0.1647  1.9191
  864MOL0     H16574   6.565   3.016   4.314 -0.3596 -0.1374 -0.9625
  864MOL0     H16575   6.401   2.690   4.390 -1.0355 -0.8067 -1.5352
  864MOL0     H16576   6.466   2.854   4.421 -2.4580 -1.1732  1.3296
  864MOL0     H16577   6.234   2.842   4.301  0.6226 -0.1014  0.1786
  864MOL0     H16578   6.359   2.929   4.208 -1.2669  1.8359  1.5636
  864MOL0     H16579   6.236   2.789   4.054 -2.5242  0.0042  2.1819
  864MOL0     H16580   6.390   2.706   4.075 -1.2557 -3.0417 -2.5898
  864MOL0     H16581   6.258   2.532   4.084  4.0067  3.7666 -1.7523
  864MOL0     H16582   6.267   2.555   4.248 -0.9080 -0.4328  0.1453
  864MOL0     H16583   6.059   2.679   4.270  1.1266 -1.2573  1.3710
  864MOL0     H16584   6.058   2.717   4.103 -1.5746 -0.0873  0.9387
  864MOL0     H16585   6.002   2.478   4.046  0.4903  0.1147 -0.5370
  864MOL0     H16586   6.007   2.452   4.222 -1.2569  2.1551  2.7236
  864MOL0     H16587   5.791   2.526   4.236 -0.3336 -0.3430 -0.0347
  864MOL0     H16588   5.835   2.685   4.191  2.2636 -0.2939  0.9870
  864MOL0     H16589   5.815   2.531   3.958 -2.2815  1.0586 -1.8243
  864MOL0     H16590   5.737   2.679   3.994  3.2369  1.1827 -0.2726
  864MOL0     H16591   5.708   2.318   4.090 -0.7564  1.0480  0.1796
  864MOL0     H16592   5.385   2.179   4.015 -0.9219  0.7537 -1.2337
  864MOL0     H16593   5.438   2.183   4.195 -0.8138  0.4562  0.8702
  864MOL0     H16594   5.199   2.320   4.053 -2.2354  1.1022  1.2582
  864MOL0     H16595   5.238   2.307   4.228 -0.8877  0.3423 -0.6526
  864MOL0     H16596   5.203   2.062   4.225 -3.6920 -0.6349  1.6496
  864MOL0     H16597   5.179   2.082   4.043 -2.6021  1.5238 -1.3247
  864MOL0     H16598   4.975   2.037   4.205  1.3078  0.5919  2.3810
  864MOL0     H16599   4.968   2.148   4.070  4.2788  0.8577 -1.2095
  864MOL0     H16600   4.919   2.410   4.425  1.3372 -2.1380 -1.8059
  864MOL0     H16601   4.615   2.545   4.549 -1.3932 -0.1506  1.5702
  864MOL0     H16602   4.659   2.428   4.672  0.3325  0.7733  0.1147
  864MOL0     H16603   4.779   2.524   4.607 -1.3282  1.9730 -0.0156
  864MOL0     H16604   4.224   2.538   4.362 -0.2485  2.7008  1.1579
  864MOL0     H16605   3.983   2.570   4.447  0.7622  1.3928 -1.6507
  864MOL0     H16606   3.850   2.725   4.634 -2.0710 -0.0750  1.0561
  864MOL0     H16607   3.812   2.610   4.526 -0.0631  0.4517 -0.2613
  864MOL0     H16608   3.609   2.571   4.607  0.4194 -2.5573  0.9629
  864MOL0     H16609   3.664   2.531   4.768 -0.4241 -1.8003 -0.9877
  864MOL0     H16610   3.614   2.798   4.654  0.0661 -2.9891 -1.3384
  864MOL0     H16611   3.665   2.782   4.821 -3.5680  1.2420  0.5880
  864MOL0     H16612   3.416   2.664   4.711  3.0074  2.1098 -3.2523
  864MOL0     H16613   3.481   2.627   4.874 -0.6843  1.4904  0.7227
  864MOL0     H16614   3.455   2.913   4.801 -0.4045 -1.6578 -2.2928
  864MOL0     H16615   3.473   2.831   4.964 -0.3001  1.9500  0.3958
  864MOL0     H16616   3.258   2.937   4.917 -1.0872 -0.2369 -1.8811
  864MOL0     H16617   3.231   2.843   4.767 -2.1223 -0.9993  0.0800
  864MOL0     H16618   3.226   2.752   5.057 -1.4272  2.4615  1.1458
  864MOL0     H16619   3.228   2.648   4.910  0.2943  0.9200 -1.0079
  864MOL0     H16620   2.989   2.665   4.954  1.2067 -0.3495 -1.0167
  864MOL0     H16621   3.023   2.774   4.828  0.8458 -2.4528 -1.2252
  864MOL0     H16622   4.134   2.441   4.827 -1.5262  2.5087 -0.5549
  864MOL0     H16623   4.344   2.389   4.735  0.0036 -1.1152  0.5282
  864MOL0     H16624   4.532   2.147   4.275 -3.3962  1.0808  5.1587
  864MOL0     H16625   4.762   2.083   4.201 -0.8489  1.2899 -3.5941
  864MOL0     H16626   6.744   2.672   4.135 -0.9334  0.7606 -0.5236
  864MOL0     H16627   6.971   2.792   4.143 -0.8807 -1.0064 -1.2921
  864MOL0     H16628   7.254   2.955   4.219 -3.6221  0.9432 -0.8169
  864MOL0     H16629   7.477   2.990   4.204 -3.1426 -1.2789 -2.0847
  864MOL0     H16630   7.653   3.403   4.184 -1.6628  0.0930  2.1991
  864MOL0     H16631   7.656   3.373   4.347 -1.0318  1.9624 -0.5850
  864MOL0     H16632   7.871   3.400   4.224 -2.6530  1.5314 -2.4678
  864MOL0     H16633   7.857   3.242   4.142  1.6889 -1.1681  0.9848
  864MOL0     H16634   7.925   3.120   4.324  0.6729  0.2904 -2.5677
  864MOL0     H16635   7.819   3.226   4.434  0.3300  1.3321  0.2528
  864MOL0     H16636   7.993   3.388   4.456  0.5362  0.8907 -2.2094
  864MOL0     H16637   8.067   3.334   4.304  1.1194  0.5674  1.3341
  864MOL0     H16638   8.293   3.127   4.576  0.0244 -0.2836 -0.4585
  864MOL0     H16639   7.432   3.400   4.321 -1.0959  0.9045  0.7231
  864MOL0     H16640   7.185   3.366   4.323  1.2655  1.4102  0.4110
  865MOL0     O16641   3.012   5.451   4.801 -0.1364  0.2233 -0.8139
  865MOL0     C16642   3.113   5.496   4.759  0.5131  0.1951  0.3169
  865MOL0     O16643   3.236   5.462   4.804 -0.3504  0.3098 -0.3465
  865MOL0     C16644   3.252   5.381   4.910  1.2655 -0.0052 -0.0239
  865MOL0     C16645   3.352   5.279   4.916  0.1059  0.5443  0.0370
  865MOL0     C16646   3.358   5.196   5.028  0.0552  0.4894 -0.4183
  865MOL0     C16647   3.282   5.215   5.143 -0.4569  0.5263  0.3371
  865MOL0     O16648   3.300   5.136   5.252  0.4648 -0.2500  0.2704
  865MOL0     C16649   3.195   5.038   5.277  0.7321  0.6184 -0.2403
  865MOL0     C16650   3.260   4.917   5.328  0.0600 -0.1770 -0.7202
  865MOL0     C16651   3.163   4.820   5.384  0.1452 -0.0400 -0.1818
  865MOL0     C16652   3.220   4.696   5.434  0.3039 -0.5235  0.8638
  865MOL0     C16653   3.286   4.717   5.568 -0.2196  0.1650 -0.6431
  865MOL0     C16654   3.345   4.589   5.631  0.5802 -1.2264 -0.2487
  865MOL0     C16655   3.224   4.506   5.677 -0.3782  0.0407 -0.3594
  865MOL0     C16656   3.274   4.376   5.733 -0.8374  0.1591  0.2066
  865MOL0     N16657   3.353   4.397   5.861  0.6282 -0.2550 -0.5868
  865MOL0     C16658   3.485   4.390   5.875 -0.2863 -0.0080 -0.3758
  865MOL0     C16659   3.508   4.404   6.013  0.3175  0.1468 -0.0746
  865MOL0     C16660   3.640   4.445   6.077  0.2326  0.3985  0.0985
  865MOL0     C16661   3.629   4.575   6.157  0.0520 -1.1101  0.0165
  865MOL0     C16662   3.568   4.697   6.074  0.0043  0.6170 -0.0131
  865MOL0     C16663   3.498   4.809   6.160  0.1999  0.4456  0.8202
  865MOL0     O16664   3.435   4.906   6.071  0.3901 -1.1725  0.3085
  865MOL0     C16665   3.318   4.880   5.997  0.2914 -0.0657  0.1048
  865MOL0     C16666   3.279   4.983   5.899 -0.3795 -0.3398  0.0246
  865MOL0     C16667   3.160   4.967   5.817 -0.1796 -0.7554 -0.3770
  865MOL0     C16668   3.134   5.089   5.725 -0.5745 -0.1319 -0.4750
  865MOL0     C16669   3.073   4.860   5.841  0.3315 -0.1475  0.1364
  865MOL0     C16670   2.928   4.850   5.799  0.4558  0.8023  0.7361
  865MOL0     O16671   2.861   4.732   5.814 -0.1308 -0.1589  1.0636
  865MOL0     C16672   2.740   4.724   5.747 -0.6609 -0.1442  0.1073
  865MOL0     C16673   2.744   4.691   5.607 -0.5460  1.1350 -0.1511
  865MOL0     C16674   2.624   4.654   5.538  0.3849 -0.1907 -0.5094
  865MOL0     C16675   2.509   4.671   5.615 -0.2831  0.0418 -0.4730
  865MOL0     O16676   2.398   4.632   5.552 -0.2273  0.0307 -0.2204
  865MOL0     C16677   2.274   4.667   5.610  0.3644  0.8300 -0.2467
  865MOL0     C16678   2.162   4.621   5.521 -0.6557  0.8027  0.6720
  865MOL0     C16679   2.024   4.638   5.592  0.1714  1.2340 -0.0332
  865MOL0     C16680   1.902   4.550   5.529  0.1230  0.8399 -0.2489
  865MOL0     C16681   1.776   4.598   5.606 -0.0352 -0.5184 -0.4631
  865MOL0     C16682   1.654   4.508   5.570  0.5281 -0.3510 -0.5855
  865MOL0     C16683   1.526   4.578   5.628 -0.0036 -0.2339 -0.3510
  865MOL0     C16684   1.413   4.485   5.575  0.4267  0.6312 -0.3615
  865MOL0    Cl16685   1.258   4.550   5.623 -0.0569  0.0333 -0.2234
  865MOL0     C16686   2.503   4.718   5.751  0.0561 -0.0336 -0.0181
  865MOL0     C16687   2.628   4.739   5.813  0.5060 -0.4003 -0.3742
  865MOL0     O16688   2.879   4.955   5.758  0.3503  1.0306  0.4753
  865MOL0     C16689   3.118   4.758   5.932  0.6364 -1.4413 -0.7733
  865MOL0     C16690   3.233   4.769   6.009  0.3328  0.5309 -0.1746
  865MOL0     N16691   3.389   4.404   6.078 -0.5129  0.1675 -0.2854
  865MOL0     N16692   3.292   4.398   5.990  0.1039  0.3152  0.9457
  865MOL0     C16693   3.194   5.320   5.149 -0.6391 -0.5673 -0.7057
  865MOL0     C16694   3.183   5.405   5.033  0.1720 -0.7775 -0.3882
  865MOL0     C16695   3.108   5.595   4.648  0.5301  0.3933 -0.6900
  865MOL0     C16696   3.225   5.648   4.601  0.3161 -0.3904 -0.9538
  865MOL0     C16697   3.223   5.729   4.489 -0.1158  0.5035 -0.8524
  865MOL0     C16698   3.105   5.770   4.420 -0.9620  0.4126  0.2011
  865MOL0     O16699   3.107   5.838   4.298 -0.2891 -0.1598  0.2062
  865MOL0     C16700   3.231   5.877   4.242  0.8074 -0.1869 -0.4844
  865MOL0     C16701   3.272   6.007   4.308 -0.0339  0.0661 -0.0574
  865MOL0     C16702   3.407   6.060   4.251  0.9293 -0.0778  0.8011
  865MOL0     C16703   3.399   6.088   4.101 -0.1471  0.4791 -0.6456
  865MOL0     C16704   3.519   6.154   4.056 -0.3727 -0.0638  0.0931
  865MOL0     C16705   3.614   6.219   4.018  0.0280 -0.3155  0.6120
  865MOL0     C16706   2.987   5.717   4.475  0.7644 -0.2123 -0.0060
  865MOL0     C16707   2.983   5.627   4.585 -0.5217 -0.6518  0.2241
  865MOL0     H16708   3.422   5.270   4.833 -0.1201 -3.4576  0.1185
  865MOL0     H16709   3.434   5.118   5.028  0.5252  0.9257 -1.3901
  865MOL0     H16710   3.116   5.070   5.346  0.4761 -1.2979  0.4208
  865MOL0     H16711   3.138   5.023   5.185 -2.0732 -0.1769  1.4970
  865MOL0     H16712   3.307   4.867   5.243  0.2992  0.2222 -0.8239
  865MOL0     H16713   3.339   4.938   5.400  0.8506 -3.0895 -0.6286
  865MOL0     H16714   3.107   4.873   5.462 -1.5388 -1.3670 -0.4236
  865MOL0     H16715   3.091   4.795   5.306  1.1019 -0.7576 -0.8469
  865MOL0     H16716   3.143   4.620   5.449  1.0754 -1.5754 -0.2551
  865MOL0     H16717   3.298   4.662   5.364  3.2281  3.2318  1.9221
  865MOL0     H16718   3.363   4.794   5.565 -2.1295  2.1782 -0.7602
  865MOL0     H16719   3.202   4.741   5.634  1.0934 -0.7298  1.4476
  865MOL0     H16720   3.411   4.537   5.561  0.9863 -2.9414  1.3476
  865MOL0     H16721   3.402   4.617   5.720  1.1067 -2.2607 -0.2482
  865MOL0     H16722   3.168   4.558   5.755  0.0709  0.0635 -0.0514
  865MOL0     H16723   3.156   4.477   5.596  1.5595  1.0119 -2.4360
  865MOL0     H16724   3.333   4.322   5.659  0.1884  0.8213  0.5254
  865MOL0     H16725   3.187   4.312   5.752 -2.6361  1.2256 -3.4666
  865MOL0     H16726   3.567   4.384   5.805  0.1863  3.0492 -0.2121
  865MOL0     H16727   3.673   4.364   6.143 -2.9442 -1.1452 -0.0191
  865MOL0     H16728   3.713   4.459   5.997  0.4817  2.5959  0.6587
  865MOL0     H16729   3.726   4.618   6.184 -0.6015  1.5091 -1.4738
  865MOL0     H16730   3.586   4.558   6.257  2.6882 -1.5737  1.1726
  865MOL0     H16731   3.487   4.652   6.016  1.2588  0.7804 -1.9719
  865MOL0     H16732   3.645   4.731   6.004  1.4569 -0.9487  0.7369
  865MOL0     H16733   3.565   4.869   6.223 -0.6690  2.0578  0.2782
  865MOL0     H16734   3.427   4.752   6.220  1.0906  0.3939  1.8546
  865MOL0     H16735   3.347   5.064   5.874 -1.5572  0.3525 -1.0511
  865MOL0     H16736   3.221   5.137   5.677  0.2016 -1.4653 -0.4487
  865MOL0     H16737   3.076   5.065   5.635  0.3719  0.7597 -1.3575
  865MOL0     H16738   3.092   5.157   5.800 -0.8133 -0.3509 -0.4123
  865MOL0     H16739   2.836   4.671   5.552 -0.4477 -2.0610  0.9412
  865MOL0     H16740   2.625   4.608   5.440  1.2117  0.8577 -1.0098
  865MOL0     H16741   2.275   4.614   5.706  2.9851 -1.2056 -1.2486
  865MOL0     H16742   2.266   4.775   5.622 -0.9542  0.7521 -0.2921
  865MOL0     H16743   2.160   4.661   5.419  0.2660 -2.6632 -0.8410
  865MOL0     H16744   2.186   4.518   5.497  1.0315  1.3898 -0.3423
  865MOL0     H16745   1.991   4.741   5.579 -2.7929  0.8829  3.1548
  865MOL0     H16746   2.026   4.618   5.700 -1.0373 -2.5692 -0.5553
  865MOL0     H16747   1.903   4.550   5.419 -1.9422 -1.3845 -0.3234
  865MOL0     H16748   1.912   4.444   5.553 -2.3018 -0.2255 -3.2910
  865MOL0     H16749   1.764   4.706   5.592  1.9324 -0.1978 -0.1030
  865MOL0     H16750   1.796   4.596   5.714 -2.5185  5.4329  0.5204
  865MOL0     H16751   1.658   4.497   5.461  2.2162  2.7528 -0.9445
  865MOL0     H16752   1.666   4.410   5.617 -0.2069  1.7405  4.6182
  865MOL0     H16753   1.510   4.678   5.586  0.4899 -0.0055 -0.0080
  865MOL0     H16754   1.525   4.577   5.737  2.6232  0.5735 -0.2442
  865MOL0     H16755   1.428   4.384   5.613  2.9176  0.9556 -0.3028
  865MOL0     H16756   1.426   4.474   5.467  2.1855 -1.5947  0.0033
  865MOL0     H16757   2.422   4.741   5.820  0.7534 -0.8376  1.1103
  865MOL0     H16758   2.630   4.776   5.915  2.9476 -1.0585 -0.1379
  865MOL0     H16759   3.061   4.667   5.951 -0.3750 -0.3029  2.2313
  865MOL0     H16760   3.270   4.692   6.077 -1.7086  0.4828  0.9668
  865MOL0     H16761   3.138   5.339   5.240 -0.6427 -2.5701 -0.2434
  865MOL0     H16762   3.122   5.495   5.043  1.9699  0.4036  0.4887
  865MOL0     H16763   3.319   5.636   4.653 -0.5479 -1.9642  0.3599
  865MOL0     H16764   3.323   5.753   4.454 -0.5368  0.4766 -2.1097
  865MOL0     H16765   3.314   5.808   4.259  1.5890  0.8028 -0.1856
  865MOL0     H16766   3.206   5.891   4.137 -1.8738  2.3283  0.3436
  865MOL0     H16767   3.286   5.988   4.415  0.9831  4.5277  0.8070
  865MOL0     H16768   3.200   6.087   4.295 -0.0514  0.5018  2.3085
  865MOL0     H16769   3.484   5.986   4.274  1.3132  0.3808  1.0216
  865MOL0     H16770   3.425   6.158   4.298 -2.4686  1.1472 -0.1287
  865MOL0     H16771   3.312   6.149   4.076  0.0945  0.3499 -1.8755
  865MOL0     H16772   3.376   5.991   4.055 -2.1489  0.4370  0.3634
  865MOL0     H16773   3.690   6.276   3.968 -1.0193 -0.8140 -1.6642
  865MOL0     H16774   2.893   5.754   4.435  0.0817 -0.5302  1.2545
  865MOL0     H16775   2.898   5.578   4.631  0.9736  0.6859  5.0147
  866MOL0     O16776  11.167   3.954  10.320 -0.5088  0.1597  0.1125
  866MOL0     C16777  11.219   3.859  10.387  0.6174  0.1484 -0.3530
  866MOL0     O16778  11.175   3.729  10.389  0.1399  0.1625 -0.1551
  866MOL0     C16779  11.065   3.673  10.316 -0.2616 -0.8021  0.5445
  866MOL0     C16780  11.036   3.533  10.333  0.0815 -0.9350  0.0481
  866MOL0     C16781  10.936   3.473  10.248 -0.3755  0.4962  0.8664
  866MOL0     C16782  10.862   3.558  10.166  1.1100 -0.2325 -0.4282
  866MOL0     O16783  10.764   3.499  10.082  0.3831  0.7079 -0.0783
  866MOL0     C16784  10.623   3.546  10.099  0.7977  0.8361 -0.0896
  866MOL0     C16785  10.523   3.437  10.048 -1.1888 -0.2203 -0.3673
  866MOL0     C16786  10.379   3.490  10.058 -0.4772  0.3220 -0.1798
  866MOL0     C16787  10.290   3.371  10.073  0.5539  0.1861 -0.3481
  866MOL0     C16788  10.150   3.419  10.097  0.7792 -0.9239 -0.4777
  866MOL0     C16789  10.051   3.300  10.124  0.5603 -0.0292  0.5665
  866MOL0     C16790   9.910   3.361  10.139  0.1656  0.0711  0.4830
  866MOL0     C16791   9.785   3.265  10.119  0.3900 -0.0328  0.6798
  866MOL0     N16792   9.783   3.160  10.218 -0.5605 -0.4829 -0.3805
  866MOL0     C16793   9.820   3.034  10.194  0.9043  0.0331 -0.6599
  866MOL0     C16794   9.808   2.977  10.322 -0.1082 -0.3291  0.2764
  866MOL0     C16795   9.848   2.837  10.337 -0.7607 -0.3368  0.6406
  866MOL0     C16796   9.745   2.745  10.293  0.1352 -0.3157  0.0726
  866MOL0     C16797   9.782   2.604  10.336 -0.6055  0.2094 -0.0219
  866MOL0     C16798   9.684   2.496  10.294 -0.3896 -0.4121  0.3971
  866MOL0     O16799   9.567   2.510  10.368  0.2773 -0.0557  0.3049
  866MOL0     C16800   9.453   2.453  10.320  0.2709  0.2529 -0.5510
  866MOL0     C16801   9.436   2.353  10.216  0.2905 -0.1001  0.1878
  866MOL0     C16802   9.312   2.308  10.181  0.8622  0.6247 -0.6895
  866MOL0     C16803   9.306   2.208  10.070  0.0561 -0.0720 -0.1657
  866MOL0     C16804   9.195   2.351  10.260 -0.0265 -0.1923  0.1364
  866MOL0     C16805   9.061   2.301  10.251 -0.2533  0.2104 -0.2300
  866MOL0     O16806   8.963   2.362  10.327  0.1372  0.3430  0.6020
  866MOL0     C16807   8.832   2.316  10.311 -0.8708 -0.4775  0.4001
  866MOL0     C16808   8.759   2.347  10.190 -0.3368 -0.1272 -1.2366
  866MOL0     C16809   8.623   2.309  10.185  0.1432 -0.6570  0.3054
  866MOL0     C16810   8.562   2.255  10.294  0.5238 -0.3161  0.0815
  866MOL0     O16811   8.429   2.229  10.277  0.4050 -0.3276  0.4475
  866MOL0     C16812   8.360   2.169  10.387 -0.0111 -0.0613 -0.7025
  866MOL0     C16813   8.207   2.159  10.356 -0.8532 -0.5408 -1.0929
  866MOL0     C16814   8.118   2.092  10.465 -0.1762 -0.0097 -0.0009
  866MOL0     C16815   7.979   2.105  10.411 -0.0860  0.3790 -0.5263
  866MOL0     C16816   7.942   2.033  10.280  0.4967  0.4392  0.2311
  866MOL0     C16817   7.964   1.882  10.288 -0.4131 -0.4369 -0.0400
  866MOL0     C16818   7.916   1.813  10.154 -0.0963  0.5004  0.4195
  866MOL0     C16819   8.009   1.851  10.033  0.1278 -0.2584  0.3798
  866MOL0    Cl16820   8.180   1.842  10.065 -0.1210  0.2387  0.0120
  866MOL0     C16821   8.634   2.226  10.412  0.1129 -0.7661  0.0950
  866MOL0     C16822   8.767   2.262  10.421 -0.2084  0.4015 -0.4950
  866MOL0     O16823   9.039   2.210  10.175  0.0429  0.4160 -0.1923
  866MOL0     C16824   9.219   2.451  10.358 -0.4091 -0.5802 -0.0082
  866MOL0     C16825   9.345   2.499  10.388 -1.0549 -0.4850 -0.6224
  866MOL0     N16826   9.764   3.079  10.412  0.3400 -0.2148 -0.5934
  866MOL0     N16827   9.751   3.184  10.345 -0.1621  0.0977  0.1175
  866MOL0     C16828  10.889   3.693  10.152 -0.0280 -0.3421 -0.2244
  866MOL0     C16829  10.986   3.751  10.233  0.4347 -0.0126  0.2003
  866MOL0     C16830  11.332   3.889  10.477  1.2615  0.1420 -0.2501
  866MOL0     C16831  11.400   3.783  10.548 -0.8579  0.2582 -0.6505
  866MOL0     C16832  11.496   3.809  10.643  0.3603  0.0628  0.1476
  866MOL0     C16833  11.550   3.941  10.653  0.3221 -0.1359  1.3315
  866MOL0     O16834  11.658   3.980  10.720 -0.4531 -0.2057 -0.5628
  866MOL0     C16835  11.739   3.869  10.768  0.1135 -0.0151  0.1790
  866MOL0     C16836  11.863   3.920  10.833 -0.5652  0.3202  0.3470
  866MOL0     C16837  11.946   4.010  10.742 -0.7206 -0.1933 -0.0941
  866MOL0     C16838  11.931   4.157  10.797  0.5506  0.2816 -0.4221
  866MOL0     C16839  12.004   4.237  10.710 -0.7487  0.1421  0.3372
  866MOL0     C16840  12.066   4.298  10.630 -1.0199  0.5330  0.8957
  866MOL0     C16841  11.482   4.049  10.579  1.1926  0.0157  0.1498
  866MOL0     C16842  11.369   4.021  10.499 -0.5371  0.0745 -0.2780
  866MOL0     H16843  11.100   3.463  10.388 -0.7116 -3.3528 -1.9148
  866MOL0     H16844  10.911   3.367  10.245 -3.4338  1.1601 -1.2063
  866MOL0     H16845  10.599   3.553  10.206  0.9177  0.8752 -0.0648
  866MOL0     H16846  10.597   3.644  10.057 -1.3247 -0.0947 -1.1035
  866MOL0     H16847  10.547   3.430   9.941 -3.5681  2.7087 -1.2288
  866MOL0     H16848  10.540   3.345  10.105 -2.6399  0.1020  0.6421
  866MOL0     H16849  10.373   3.541  10.155  2.0419 -1.5543  1.0509
  866MOL0     H16850  10.346   3.556   9.977 -1.2334  1.7619  1.2386
  866MOL0     H16851  10.298   3.308   9.984 -3.1355 -1.4698  0.2948
  866MOL0     H16852  10.328   3.323  10.164  2.7613 -0.0101 -1.3077
  866MOL0     H16853  10.154   3.482  10.186 -2.3911 -3.2633  1.5576
  866MOL0     H16854  10.127   3.474  10.005  0.3637 -0.2791  0.0047
  866MOL0     H16855  10.052   3.236  10.035 -0.8832  0.8839 -0.1514
  866MOL0     H16856  10.075   3.241  10.213 -0.4726  0.0796  0.9345
  866MOL0     H16857   9.916   3.399  10.241  0.6103 -2.4668  1.4719
  866MOL0     H16858   9.888   3.442  10.069  0.9676  0.7456  0.9922
  866MOL0     H16859   9.766   3.226  10.019 -0.0044  0.1573  0.6780
  866MOL0     H16860   9.705   3.332  10.152  2.1895  2.0913  0.9678
  866MOL0     H16861   9.842   2.984  10.100  0.4305  1.7809 -1.7374
  866MOL0     H16862   9.940   2.813  10.283 -0.7068  0.7004  0.2451
  866MOL0     H16863   9.875   2.828  10.443 -2.1995  0.0695  1.0653
  866MOL0     H16864   9.737   2.735  10.184 -4.7519 -0.0234  0.1781
  866MOL0     H16865   9.646   2.776  10.327 -0.4412 -3.0710  1.1330
  866MOL0     H16866   9.794   2.598  10.445  0.8450 -1.1969 -0.2349
  866MOL0     H16867   9.880   2.582  10.294 -0.6399 -1.1076  0.5427
  866MOL0     H16868   9.736   2.402  10.316 -0.8947 -0.1589  3.0676
  866MOL0     H16869   9.664   2.500  10.187 -0.9553 -0.7518  0.4861
  866MOL0     H16870   9.525   2.315  10.166  0.9648  0.7679  0.6956
  866MOL0     H16871   9.281   2.108  10.106  1.4633 -0.3469  0.1195
  866MOL0     H16872   9.223   2.239  10.006 -0.2266  1.4486  0.8747
  866MOL0     H16873   9.398   2.202  10.011 -0.0924 -2.3666 -0.2418
  866MOL0     H16874   8.814   2.397  10.111  2.1632  1.2449  1.1948
  866MOL0     H16875   8.559   2.325  10.099  0.8290  0.6481  0.0157
  866MOL0     H16876   8.389   2.067  10.416  4.1224 -0.1449 -4.0052
  866MOL0     H16877   8.371   2.228  10.478  0.1088  1.0637 -1.4296
  866MOL0     H16878   8.172   2.259  10.326  2.1027  0.9964  0.1646
  866MOL0     H16879   8.198   2.106  10.262  1.8066 -3.2392  0.0291
  866MOL0     H16880   8.121   2.137  10.565 -0.5134 -1.9779  0.9389
  866MOL0     H16881   8.153   1.989  10.476  2.9825  0.5003 -3.3741
  866MOL0     H16882   7.903   2.065  10.480  0.7428 -0.3658 -0.0290
  866MOL0     H16883   7.938   2.206  10.403 -0.6085  0.0928 -1.5349
  866MOL0     H16884   8.009   2.070  10.202  3.6557 -0.5297  2.2870
  866MOL0     H16885   7.836   2.053  10.259  0.5899  1.6217  0.7652
  866MOL0     H16886   8.071   1.861  10.296 -0.9563 -3.0537  1.0206
  866MOL0     H16887   7.916   1.839  10.376  1.7049 -2.9258  0.0124
  866MOL0     H16888   7.813   1.841  10.131 -0.5714 -2.3818 -1.4014
  866MOL0     H16889   7.916   1.705  10.166 -1.6149  0.1510 -2.0355
  866MOL0     H16890   7.973   1.946   9.992 -1.9655 -2.1171 -2.4948
  866MOL0     H16891   7.982   1.788   9.948  0.7614  2.3120 -1.8622
  866MOL0     H16892   8.586   2.203  10.507  0.5510  2.0731  1.1167
  866MOL0     H16893   8.820   2.243  10.514 -0.4085  2.6840  0.1462
  866MOL0     H16894   9.141   2.492  10.421 -0.9351 -0.7868 -0.5183
  866MOL0     H16895   9.359   2.567  10.471  0.6360 -0.4577 -0.8904
  866MOL0     H16896  10.831   3.750  10.080 -0.4618 -1.1980 -0.5749
  866MOL0     H16897  11.006   3.854  10.207 -2.5066  1.0421  1.6299
  866MOL0     H16898  11.371   3.678  10.546 -1.1374  0.3292 -0.3691
  866MOL0     H16899  11.537   3.717  10.682 -3.1289 -2.9830 -2.6527
  866MOL0     H16900  11.685   3.819  10.849  1.2985 -0.6950  0.5743
  866MOL0     H16901  11.769   3.797  10.692  0.3867  0.6951 -0.3969
  866MOL0     H16902  11.921   3.833  10.865 -0.6543 -0.2761 -1.0612
  866MOL0     H16903  11.820   3.979  10.915 -1.2204  0.9236 -0.4236
  866MOL0     H16904  11.918   3.995  10.637 -2.5140 -1.5132  0.5265
  866MOL0     H16905  12.053   3.989  10.752 -0.2079  2.1418  0.0233
  866MOL0     H16906  11.977   4.159  10.896 -1.6300 -1.3705  0.6969
  866MOL0     H16907  11.825   4.180  10.813  1.0441  0.0738  4.4145
  866MOL0     H16908  12.118   4.361  10.562  0.8313 -0.7984  0.9935
  866MOL0     H16909  11.524   4.148  10.589  0.3668  0.4550 -0.6273
  866MOL0     H16910  11.318   4.104  10.451  1.1816  1.0291 -0.5194
  867MOL0     O16911   8.055   0.353   9.133  0.6772 -0.4605 -0.2121
  867MOL0     C16912   8.075   0.407   9.019  0.7106 -0.2796 -1.2858
  867MOL0     O16913   7.991   0.495   8.953 -0.3863  0.7400 -1.0950
  867MOL0     C16914   7.868   0.510   9.020 -0.0932  0.6373 -0.2502
  867MOL0     C16915   7.844   0.581   9.138 -0.6047  0.6131 -0.3540
  867MOL0     C16916   7.718   0.596   9.192 -0.3714 -0.6023 -0.1445
  867MOL0     C16917   7.602   0.548   9.113 -0.2727 -0.4289 -1.0109
  867MOL0     O16918   7.471   0.573   9.148 -0.0457  0.0360 -0.8872
  867MOL0     C16919   7.444   0.544   9.283 -0.6047 -0.1307  0.1564
  867MOL0     C16920   7.292   0.549   9.305  0.0290  0.1228 -0.3106
  867MOL0     C16921   7.219   0.443   9.223 -0.7193  0.5324 -0.0760
  867MOL0     C16922   7.085   0.406   9.285 -0.5630 -0.8679  0.1601
  867MOL0     C16923   6.982   0.330   9.201  0.1007 -0.1734 -0.9072
  867MOL0     C16924   7.029   0.216   9.116  0.1135 -0.1853 -0.3089
  867MOL0     C16925   7.103   0.098   9.193  0.0296 -0.1267  0.1707
  867MOL0     C16926   7.158  -0.002   9.098  0.0899  0.0289  0.0440
  867MOL0     N16927   7.287   0.014   9.022  0.0486  0.3505 -0.0825
  867MOL0     C16928   7.400   0.073   9.066 -0.3830 -0.8382  0.6120
  867MOL0     C16929   7.492   0.053   8.972  0.7518  0.0150  1.1295
  867MOL0     C16930   7.631   0.107   8.965  0.3321  0.0301 -0.2394
  867MOL0     C16931   7.730   0.045   9.068 -0.0923 -0.2526 -0.1764
  867MOL0     C16932   7.876   0.097   9.058  0.2501  0.0971  0.0488
  867MOL0     C16933   7.964   0.025   9.148 -0.7981  0.4528  0.1181
  867MOL0     O16934   7.981  -0.109   9.104  0.0422 -0.2469 -0.7682
  867MOL0     C16935   8.066  -0.195   9.166 -0.9559 -0.6370 -0.3385
  867MOL0     C16936   8.133  -0.177   9.287  0.7140 -0.9375 -0.4018
  867MOL0     C16937   8.214  -0.276   9.353  0.4872  0.9327  0.6885
  867MOL0     C16938   8.269  -0.238   9.482 -0.1089  0.1517 -0.5013
  867MOL0     C16939   8.229  -0.403   9.291 -0.5486 -0.1857 -0.0803
  867MOL0     C16940   8.309  -0.516   9.343  0.2126 -0.2774  0.9194
  867MOL0     O16941   8.405  -0.485   9.432 -0.0001  0.3707 -0.4285
  867MOL0     C16942   8.490  -0.580   9.462 -0.6925  0.3863  0.1694
  867MOL0     C16943   8.611  -0.589   9.391  0.7270  0.1933 -0.8050
  867MOL0     C16944   8.708  -0.680   9.430  0.7119  0.1198 -0.2185
  867MOL0     C16945   8.681  -0.770   9.532  0.6611  1.2726  0.9369
  867MOL0     O16946   8.790  -0.853   9.567 -0.0825  0.5339  0.7279
  867MOL0     C16947   8.779  -0.954   9.668  0.0743 -0.0922  0.8786
  867MOL0     C16948   8.890  -1.058   9.652 -0.4206  0.2903 -0.0311
  867MOL0     C16949   9.031  -1.006   9.589  0.2116 -0.3223  0.5115
  867MOL0     C16950   9.139  -1.102   9.618  0.2276  0.6707  0.0664
  867MOL0     C16951   9.270  -1.052   9.566 -0.9681  0.4976  0.5666
  867MOL0     C16952   9.380  -1.160   9.559  1.5782 -0.2257  0.2794
  867MOL0     C16953   9.501  -1.106   9.493  0.0658 -0.2756  0.0825
  867MOL0     C16954   9.614  -1.210   9.495  0.3205 -0.2786  0.4429
  867MOL0    Cl16955   9.594  -1.345   9.363 -0.0436  0.3397 -0.0029
  867MOL0     C16956   8.561  -0.760   9.602  0.1686 -0.5245  0.0707
  867MOL0     C16957   8.457  -0.672   9.563 -0.0246 -0.0851  0.7652
  867MOL0     O16958   8.283  -0.629   9.304 -0.1271  0.1409  0.7508
  867MOL0     C16959   8.170  -0.422   9.158  0.4330 -0.5983 -0.2372
  867MOL0     C16960   8.087  -0.320   9.099  0.6595  0.2245  0.4792
  867MOL0     N16961   7.431  -0.025   8.871 -1.0387 -0.1485  0.0849
  867MOL0     N16962   7.317  -0.054   8.900  0.5042 -0.6976  0.6374
  867MOL0     C16963   7.637   0.498   8.985  0.8726 -0.0925 -0.7518
  867MOL0     C16964   7.764   0.480   8.937  0.4352 -0.0345 -0.5889
  867MOL0     C16965   8.206   0.385   8.952  0.6014 -0.1353 -0.5682
  867MOL0     C16966   8.221   0.403   8.816  0.2788 -0.1611 -0.4363
  867MOL0     C16967   8.338   0.355   8.754  0.1489 -0.1934  0.0281
  867MOL0     C16968   8.440   0.308   8.833  0.4576 -0.3489  0.1829
  867MOL0     O16969   8.558   0.306   8.760  0.4349  0.1812  0.3150
  867MOL0     C16970   8.682   0.270   8.819 -0.5331 -0.2599 -0.4631
  867MOL0     C16971   8.720   0.137   8.748 -0.0722 -0.5332  0.1555
  867MOL0     C16972   8.784   0.039   8.841 -0.4899 -0.0897  0.3370
  867MOL0     C16973   8.917   0.108   8.908 -0.4611  0.0399  0.6616
  867MOL0     C16974   9.014   0.155   8.804 -0.2140  0.5336 -1.2735
  867MOL0     C16975   9.087   0.200   8.717  0.2907  0.3777 -0.3626
  867MOL0     C16976   8.426   0.280   8.968  0.7734  0.0144  0.6509
  867MOL0     C16977   8.306   0.325   9.023  0.3349 -0.4920 -0.0704
  867MOL0     H16978   7.927   0.624   9.194  0.7508  1.2229 -2.6766
  867MOL0     H16979   7.694   0.663   9.274 -0.9429 -0.9996  0.0260
  867MOL0     H16980   7.482   0.443   9.296 -1.0897 -0.4371 -0.7180
  867MOL0     H16981   7.478   0.621   9.353  0.3992  1.4921 -1.9666
  867MOL0     H16982   7.272   0.535   9.412  2.5175 -2.3241 -0.0507
  867MOL0     H16983   7.270   0.649   9.267  0.7084  0.2653 -0.3346
  867MOL0     H16984   7.208   0.492   9.126  0.1599  2.2915  0.6543
  867MOL0     H16985   7.278   0.352   9.211 -0.7191  0.5032  0.1433
  867MOL0     H16986   7.101   0.347   9.376  2.9673  0.3880  0.5021
  867MOL0     H16987   7.033   0.495   9.322  1.0191 -0.5019  1.6487
  867MOL0     H16988   6.918   0.280   9.275 -1.0090  1.9262 -0.3788
  867MOL0     H16989   6.920   0.399   9.143 -0.1677  0.8284  0.5115
  867MOL0     H16990   6.943   0.162   9.074  2.1116 -4.2254  0.2299
  867MOL0     H16991   7.099   0.251   9.039  3.0269 -1.5427  1.5282
  867MOL0     H16992   7.184   0.138   9.254  1.1318 -1.9803 -0.0357
  867MOL0     H16993   7.042   0.044   9.266  2.2502 -2.8768  0.1327
  867MOL0     H16994   7.093  -0.031   9.015  1.0275  0.8268 -0.9913
  867MOL0     H16995   7.176  -0.092   9.158  0.6519  1.2947  1.8742
  867MOL0     H16996   7.403   0.126   9.161 -1.8354 -1.7282  1.1833
  867MOL0     H16997   7.668   0.081   8.865  1.9334 -3.9644  1.1759
  867MOL0     H16998   7.628   0.214   8.986 -2.7968 -0.1153  0.5352
  867MOL0     H16999   7.730  -0.061   9.041  1.9910  0.4571 -3.6409
  867MOL0     H17000   7.688   0.057   9.168  0.0762  3.0050 -0.4108
  867MOL0     H17001   7.861   0.203   9.078 -1.0235  0.3892 -2.1226
  867MOL0     H17002   7.915   0.098   8.956  1.5566  2.9241  0.4900
  867MOL0     H17003   7.920   0.023   9.248  1.1394 -3.0082  1.0635
  867MOL0     H17004   8.054   0.084   9.162 -0.5403  0.8210 -2.6028
  867MOL0     H17005   8.114  -0.083   9.336 -1.5926 -0.8488 -1.3181
  867MOL0     H17006   8.214  -0.162   9.538 -0.2110 -1.4434  1.6880
  867MOL0     H17007   8.260  -0.326   9.546 -3.6945 -1.8645 -3.3395
  867MOL0     H17008   8.373  -0.209   9.467 -0.3410 -0.0920 -3.0879
  867MOL0     H17009   8.633  -0.507   9.323  1.5868  1.7266  1.2061
  867MOL0     H17010   8.813  -0.677   9.403  1.4178 -1.5633  2.0469
  867MOL0     H17011   8.793  -0.905   9.765  0.7014  0.3434  0.5744
  867MOL0     H17012   8.682  -1.005   9.665  0.5246 -0.8953 -0.7863
  867MOL0     H17013   8.909  -1.101   9.751 -0.7187  1.7694  0.7062
  867MOL0     H17014   8.845  -1.138   9.592  0.5685 -0.0721 -0.3016
  867MOL0     H17015   9.058  -0.917   9.647 -0.5898  0.3986 -0.1792
  867MOL0     H17016   9.033  -0.982   9.482  3.1784 -0.8780  0.3846
  867MOL0     H17017   9.156  -1.126   9.723  1.4176 -0.9228 -0.4592
  867MOL0     H17018   9.115  -1.196   9.568 -0.8748  0.1570  1.5027
  867MOL0     H17019   9.307  -0.961   9.613  1.1947  0.9834 -1.8045
  867MOL0     H17020   9.251  -1.020   9.463 -0.7757 -0.5036  0.2042
  867MOL0     H17021   9.414  -1.179   9.662 -0.7060  1.6822  1.5007
  867MOL0     H17022   9.344  -1.247   9.504 -1.9857  1.0013  0.4405
  867MOL0     H17023   9.537  -1.013   9.536  1.9110 -0.4167 -1.0695
  867MOL0     H17024   9.475  -1.079   9.390  0.5910 -0.3074 -0.0616
  867MOL0     H17025   9.623  -1.264   9.590 -0.7287 -0.9336  0.1828
  867MOL0     H17026   9.711  -1.158   9.496  0.4934 -0.5647 -0.5047
  867MOL0     H17027   8.542  -0.827   9.686 -2.2109  0.9542  0.8054
  867MOL0     H17028   8.361  -0.667   9.613 -1.2620  0.5362 -1.5572
  867MOL0     H17029   8.175  -0.518   9.108 -0.4793 -0.5359 -0.4555
  867MOL0     H17030   8.021  -0.331   9.014 -2.9182  0.3250  2.9866
  867MOL0     H17031   7.548   0.465   8.930  0.2647  0.6633 -0.2399
  867MOL0     H17032   7.782   0.438   8.839 -0.1120  0.2866 -0.8356
  867MOL0     H17033   8.145   0.454   8.758  0.1923 -0.7015 -0.8037
  867MOL0     H17034   8.333   0.362   8.645  2.3734  1.5677 -0.0276
  867MOL0     H17035   8.745   0.356   8.796 -1.9032  0.7696 -0.5039
  867MOL0     H17036   8.681   0.252   8.927  2.0404  3.3859  0.3237
  867MOL0     H17037   8.776   0.161   8.657  0.0578  1.0518  0.6168
  867MOL0     H17038   8.622   0.098   8.720 -1.4623  3.1567 -0.6503
  867MOL0     H17039   8.810  -0.047   8.778 -0.1915  1.8028 -2.2726
  867MOL0     H17040   8.717   0.014   8.924  0.6857  0.7108  1.5593
  867MOL0     H17041   8.962   0.029   8.968 -0.7562 -0.3919  0.3195
  867MOL0     H17042   8.888   0.192   8.972  2.4282 -0.5317  2.8978
  867MOL0     H17043   9.154   0.241   8.644 -0.4262  2.2352 -0.0191
  867MOL0     H17044   8.507   0.240   9.028  0.0297 -0.6968  1.2241
  867MOL0     H17045   8.287   0.317   9.129  0.7849  0.1309  0.0602
  868MOL0     O17046   7.036   6.836   5.785 -0.0051 -0.6627 -0.1302
  868MOL0     C17047   7.101   6.938   5.825 -0.7408  0.0892  0.0833
  868MOL0     O17048   7.073   7.071   5.825  0.1024 -0.3955  0.8736
  868MOL0     C17049   6.952   7.113   5.773 -0.2343  0.2390  0.3936
  868MOL0     C17050   6.875   7.201   5.844 -0.1803 -1.2083 -0.5235
  868MOL0     C17051   6.759   7.262   5.793 -0.3101 -0.1541  0.5067
  868MOL0     C17052   6.713   7.229   5.664  1.2276  0.1365 -0.0349
  868MOL0     O17053   6.605   7.294   5.610  0.8375  0.3317  0.6386
  868MOL0     C17054   6.593   7.295   5.464  1.1162 -0.1762 -0.6692
  868MOL0     C17055   6.467   7.363   5.412  0.0049 -0.1394  0.3123
  868MOL0     C17056   6.337   7.316   5.488  0.3784  0.3979  0.9540
  868MOL0     C17057   6.212   7.318   5.392 -0.1500  0.1467 -0.4855
  868MOL0     C17058   6.084   7.265   5.465  0.5972 -0.3722 -0.4371
  868MOL0     C17059   6.096   7.117   5.513  0.1114 -0.0147  0.5877
  868MOL0     C17060   6.146   7.012   5.416  0.2066 -0.4473  0.1790
  868MOL0     C17061   6.112   6.868   5.467  0.0502 -0.5355  1.1728
  868MOL0     N17062   6.199   6.845   5.585  0.0449  0.0061  0.8180
  868MOL0     C17063   6.335   6.835   5.590  0.8254  1.0483  0.4322
  868MOL0     C17064   6.359   6.806   5.719 -0.0116 -0.8050  0.5963
  868MOL0     C17065   6.497   6.790   5.776  0.0017 -0.2258 -0.4880
  868MOL0     C17066   6.543   6.918   5.846  0.7268 -0.3842 -0.8520
  868MOL0     C17067   6.450   6.943   5.964  0.2384  0.2334 -1.0097
  868MOL0     C17068   6.522   7.000   6.088 -0.0948  0.1111  0.0644
  868MOL0     O17069   6.446   6.969   6.204  0.4745 -0.2789 -0.3166
  868MOL0     C17070   6.459   7.054   6.308  0.5249  0.1351  0.2724
  868MOL0     C17071   6.572   7.139   6.335  0.0942  0.6873  0.4570
  868MOL0     C17072   6.566   7.222   6.450 -0.4973  0.3116  0.0324
  868MOL0     C17073   6.696   7.286   6.495  0.5845 -0.4332 -0.0931
  868MOL0     C17074   6.447   7.224   6.529  0.0430 -0.4024 -0.1788
  868MOL0     C17075   6.420   7.304   6.650  0.0828 -0.2955 -0.1820
  868MOL0     O17076   6.511   7.302   6.754 -0.6939  0.2582 -0.1779
  868MOL0     C17077   6.503   7.393   6.857  0.5236  1.0733 -0.8891
  868MOL0     C17078   6.568   7.515   6.843 -0.9555  0.7545 -0.2290
  868MOL0     C17079   6.590   7.603   6.950 -0.5448 -0.9455 -0.1118
  868MOL0     C17080   6.547   7.576   7.084  0.1968 -0.6263  0.6057
  868MOL0     O17081   6.581   7.653   7.185 -0.6029 -0.6571  0.3491
  868MOL0     C17082   6.530   7.788   7.183  0.1761  0.2123  0.1956
  868MOL0     C17083   6.541   7.837   7.332  0.2531  0.5654  0.1182
  868MOL0     C17084   6.479   7.973   7.359  0.4859 -0.0797  0.8254
  868MOL0     C17085   6.517   8.023   7.499  0.4132 -0.1677 -0.1223
  868MOL0     C17086   6.442   8.142   7.553 -0.1419 -0.4530  0.2148
  868MOL0     C17087   6.290   8.113   7.556 -0.7654 -0.2243  0.5209
  868MOL0     C17088   6.222   8.226   7.624 -0.1300 -0.5933 -0.0871
  868MOL0     C17089   6.075   8.241   7.583  0.3556 -0.7292  0.1096
  868MOL0    Cl17090   5.995   8.088   7.639  0.0886  0.5380  0.0054
  868MOL0     C17091   6.467   7.460   7.095  0.3266 -1.0964 -0.1409
  868MOL0     C17092   6.450   7.368   6.984 -0.4705  0.5772  0.0536
  868MOL0     O17093   6.313   7.371   6.642 -1.5761  0.9241 -0.7188
  868MOL0     C17094   6.348   7.135   6.499 -0.4151 -0.8688  0.6141
  868MOL0     C17095   6.358   7.051   6.393  0.3259 -1.1001  0.3290
  868MOL0     N17096   6.247   6.785   5.787  0.1879  0.9721  0.5791
  868MOL0     N17097   6.150   6.811   5.703 -0.0477  0.1524 -0.2413
  868MOL0     C17098   6.792   7.131   5.590 -0.7368  0.1546 -0.3413
  868MOL0     C17099   6.904   7.070   5.646 -0.2412  0.2807  0.3235
  868MOL0     C17100   7.238   6.903   5.855 -0.3495  0.3102  0.2043
  868MOL0     C17101   7.287   6.772   5.843 -0.1333 -0.4467 -0.0086
  868MOL0     C17102   7.404   6.737   5.904  0.4711  0.1714  0.1383
  868MOL0     C17103   7.498   6.827   5.949 -1.0372  0.4200 -0.8098
  868MOL0     O17104   7.608   6.776   6.007 -0.9068  0.5006 -1.0879
  868MOL0     C17105   7.707   6.867   6.058 -0.3139 -0.2076  0.7086
  868MOL0     C17106   7.680   6.892   6.209 -0.1911  0.7248 -0.0933
  868MOL0     C17107   7.768   7.016   6.248  0.1724  1.2098 -0.2609
  868MOL0     C17108   7.712   7.154   6.216  0.5147  0.0131 -0.0384
  868MOL0     C17109   7.565   7.181   6.236  0.1988  0.0203 -0.2759
  868MOL0     C17110   7.447   7.197   6.246 -0.5845 -0.2100  0.2897
  868MOL0     C17111   7.465   6.967   5.943  0.3388 -0.5538 -0.4542
  868MOL0     C17112   7.339   7.000   5.899  0.2317 -0.2116 -0.3913
  868MOL0     H17113   6.901   7.231   5.945 -0.4583 -0.0520 -0.7829
  868MOL0     H17114   6.704   7.337   5.849 -1.6861 -1.4481  0.9535
  868MOL0     H17115   6.674   7.356   5.423 -1.5739  2.6186 -2.3082
  868MOL0     H17116   6.605   7.197   5.416  0.3316 -0.5447 -0.1336
  868MOL0     H17117   6.469   7.467   5.446 -2.4019 -0.6379  2.3806
  868MOL0     H17118   6.459   7.353   5.303  0.2236 -1.4259  0.4084
  868MOL0     H17119   6.356   7.216   5.528 -1.9605 -1.2740 -1.7422
  868MOL0     H17120   6.314   7.382   5.573 -1.4885 -1.9662  2.4268
  868MOL0     H17121   6.195   7.417   5.350  4.1103  0.1620 -2.6829
  868MOL0     H17122   6.226   7.257   5.303  0.3052  1.5317 -1.3927
  868MOL0     H17123   6.038   7.331   5.539 -3.5947 -0.8068 -2.3578
  868MOL0     H17124   6.002   7.277   5.393 -1.1020  4.1917  1.8508
  868MOL0     H17125   6.154   7.122   5.605 -3.1176 -3.1979  3.0407
  868MOL0     H17126   5.992   7.088   5.529 -1.9337  5.4528 -0.4754
  868MOL0     H17127   6.098   7.023   5.318 -0.3856 -0.3628  0.4737
  868MOL0     H17128   6.254   7.027   5.411  0.4326 -2.0608 -3.2077
  868MOL0     H17129   6.137   6.791   5.394 -1.6578 -1.3529  1.4210
  868MOL0     H17130   6.007   6.862   5.498 -0.3752 -1.8344 -0.3960
  868MOL0     H17131   6.415   6.838   5.517  0.3493 -1.3734 -0.3097
  868MOL0     H17132   6.501   6.707   5.847  0.0229 -1.4079 -1.8239
  868MOL0     H17133   6.572   6.762   5.703  1.4071 -1.9459  1.5181
  868MOL0     H17134   6.545   7.002   5.776  0.6443 -0.8603 -1.4344
  868MOL0     H17135   6.640   6.888   5.886  1.0182 -1.8478 -2.5263
  868MOL0     H17136   6.401   6.848   5.987 -0.4279 -0.0816 -3.4637
  868MOL0     H17137   6.371   7.002   5.917  0.4658  1.4726  0.1096
  868MOL0     H17138   6.536   7.107   6.071 -1.1236 -0.1090 -2.4424
  868MOL0     H17139   6.620   6.950   6.090 -0.1667 -0.0551 -0.5808
  868MOL0     H17140   6.660   7.129   6.273  0.8493  0.0101  1.6051
  868MOL0     H17141   6.674   7.393   6.496  3.0183  0.1440 -0.9653
  868MOL0     H17142   6.723   7.246   6.593 -2.8986  0.8861  1.5718
  868MOL0     H17143   6.792   7.271   6.445  1.2423  0.3190  0.8977
  868MOL0     H17144   6.597   7.546   6.743 -0.8312  1.9970  0.1806
  868MOL0     H17145   6.644   7.695   6.931 -0.9711 -1.1571 -2.7637
  868MOL0     H17146   6.598   7.850   7.125  1.9245 -1.9720 -0.2631
  868MOL0     H17147   6.429   7.795   7.143  1.1897 -1.9348 -3.1960
  868MOL0     H17148   6.484   7.762   7.388  3.0719 -1.9987 -0.2219
  868MOL0     H17149   6.644   7.838   7.368  0.2797 -0.4230  0.0854
  868MOL0     H17150   6.371   7.955   7.351  0.6601 -0.8703  0.1247
  868MOL0     H17151   6.502   8.044   7.279 -0.1042  1.1477  1.7172
  868MOL0     H17152   6.494   7.949   7.576  1.2983  2.4528  2.8726
  868MOL0     H17153   6.623   8.048   7.508  0.5901 -0.4869 -1.0857
  868MOL0     H17154   6.466   8.231   7.493  0.9314 -0.8769  0.0007
  868MOL0     H17155   6.470   8.160   7.657 -1.7405  2.4686  0.2388
  868MOL0     H17156   6.244   8.106   7.457 -0.1829  1.0306  0.1307
  868MOL0     H17157   6.266   8.023   7.612 -1.2327  0.4013  1.3602
  868MOL0     H17158   6.271   8.319   7.597  1.6329 -0.8714  1.8626
  868MOL0     H17159   6.231   8.215   7.733 -3.6750  3.2365  0.8628
  868MOL0     H17160   6.063   8.251   7.474  1.2480  3.5182  0.2187
  868MOL0     H17161   6.032   8.329   7.632 -1.2171  2.5919 -6.0973
  868MOL0     H17162   6.423   7.447   7.193 -0.5049 -0.8628 -0.4795
  868MOL0     H17163   6.396   7.277   7.012 -1.9027  0.9216 -1.4593
  868MOL0     H17164   6.265   7.129   6.568  0.0809 -0.7425  1.2299
  868MOL0     H17165   6.276   6.980   6.393  0.3405 -1.2264  2.8629
  868MOL0     H17166   6.767   7.095   5.491 -0.3050  1.3134 -0.8953
  868MOL0     H17167   6.966   7.004   5.587 -3.0326  0.6119 -3.3341
  868MOL0     H17168   7.226   6.690   5.806 -2.0294  1.0653 -0.4091
  868MOL0     H17169   7.432   6.634   5.926  1.0889  0.1635 -0.6465
  868MOL0     H17170   7.805   6.820   6.048  0.0814  0.7259  0.0609
  868MOL0     H17171   7.712   6.964   6.008 -2.0566 -1.5020 -2.1984
  868MOL0     H17172   7.698   6.803   6.270  1.3256  1.4105  0.4967
  868MOL0     H17173   7.576   6.922   6.222  0.0466  4.5153 -4.4174
  868MOL0     H17174   7.869   7.013   6.206  0.8767 -1.2987  1.3780
  868MOL0     H17175   7.773   7.025   6.357 -0.2936  1.5753 -0.2630
  868MOL0     H17176   7.725   7.175   6.109 -0.1553  1.9971  0.2139
  868MOL0     H17177   7.772   7.232   6.263 -1.4370  1.5716 -0.0032
  868MOL0     H17178   7.341   7.190   6.261 -0.9001 -2.1794 -2.1392
  868MOL0     H17179   7.535   7.045   5.974 -1.0110  0.2865  0.6329
  868MOL0     H17180   7.302   7.101   5.908 -3.3144 -1.4239  0.5807
  869MOL0     O17181   2.884   1.632   8.887 -0.6846 -0.3786 -0.8431
  869MOL0     C17182   2.893   1.740   8.940 -0.3160  0.0473 -0.3719
  869MOL0     O17183   2.966   1.849   8.897  0.4927  0.4052  0.1903
  869MOL0     C17184   3.036   1.816   8.782 -0.0959 -0.2259 -0.5101
  869MOL0     C17185   3.174   1.805   8.788  0.0541 -0.1896 -0.3331
  869MOL0     C17186   3.252   1.786   8.673 -0.6891  0.2002  0.0208
  869MOL0     C17187   3.191   1.783   8.551  0.5187 -0.3865 -0.0785
  869MOL0     O17188   3.273   1.764   8.441  0.0641  0.9633  0.0987
  869MOL0     C17189   3.235   1.662   8.342  0.5894 -0.2394 -0.5330
  869MOL0     C17190   3.348   1.599   8.265  0.5328 -0.1601  0.6176
  869MOL0     C17191   3.469   1.691   8.239 -0.2085  0.4122 -0.1637
  869MOL0     C17192   3.445   1.812   8.152 -0.2170 -0.4263  1.0102
  869MOL0     C17193   3.537   1.933   8.172 -0.2473  0.5538 -0.4612
  869MOL0     C17194   3.494   2.053   8.090  0.2375  0.7623 -0.1250
  869MOL0     C17195   3.600   2.159   8.095  0.1406 -0.1639  0.1060
  869MOL0     C17196   3.542   2.299   8.062 -0.0852  0.1921  0.5217
  869MOL0     N17197   3.509   2.311   7.915  0.9151  0.0081 -0.0169
  869MOL0     C17198   3.394   2.259   7.854 -0.3935  0.3408 -0.4489
  869MOL0     C17199   3.415   2.271   7.722  0.7216  0.1615  0.1769
  869MOL0     C17200   3.320   2.243   7.608 -0.0672  0.4867 -0.5862
  869MOL0     C17201   3.172   2.248   7.654 -0.9292  0.1992  0.5410
  869MOL0     C17202   3.132   2.389   7.698  0.2036 -0.1111 -0.1739
  869MOL0     C17203   3.006   2.383   7.783 -0.4596  0.2191  0.0386
  869MOL0     O17204   2.902   2.309   7.719  0.0698  0.1025 -0.7454
  869MOL0     C17205   2.787   2.278   7.788 -0.5721 -0.1407  0.0233
  869MOL0     C17206   2.715   2.163   7.746  0.0207 -0.5310  0.4133
  869MOL0     C17207   2.594   2.124   7.805 -0.5945  0.1156  0.7763
  869MOL0     C17208   2.527   1.994   7.749 -1.2959  0.3788 -0.7322
  869MOL0     C17209   2.549   2.200   7.917  0.6754  0.6960  0.3906
  869MOL0     C17210   2.430   2.160   7.996 -1.3807  1.1096 -0.3163
  869MOL0     O17211   2.397   2.249   8.082  0.6815  0.0544 -0.3357
  869MOL0     C17212   2.307   2.220   8.185 -0.2321  0.0727 -0.2027
  869MOL0     C17213   2.313   2.105   8.260 -0.8411 -0.4426  0.1301
  869MOL0     C17214   2.226   2.084   8.367 -0.6062 -0.0879 -0.0102
  869MOL0     C17215   2.120   2.171   8.395 -0.2915  0.9712  0.1905
  869MOL0     O17216   2.052   2.150   8.509 -0.2360 -0.2210  0.3081
  869MOL0     C17217   2.055   2.020   8.574 -0.4434  0.3450  0.0060
  869MOL0     C17218   1.951   2.002   8.684 -0.0855 -0.3393 -0.1510
  869MOL0     C17219   1.823   2.049   8.624  0.2620 -0.1109  1.3973
  869MOL0     C17220   1.710   2.016   8.714  0.2970  0.3237 -0.2103
  869MOL0     C17221   1.587   1.963   8.643 -0.4301  0.4125  0.8907
  869MOL0     C17222   1.464   1.963   8.732  1.9519 -0.0014 -0.4742
  869MOL0     C17223   1.348   1.891   8.656 -0.4990 -0.1534 -0.5907
  869MOL0     C17224   1.234   1.848   8.750  0.6395  0.6022 -0.7481
  869MOL0    Cl17225   1.126   1.979   8.796 -0.3004  0.4777  0.0661
  869MOL0     C17226   2.110   2.286   8.321  0.3397 -1.1155  0.4110
  869MOL0     C17227   2.203   2.316   8.220  0.1256 -0.0996  0.5837
  869MOL0     O17228   2.363   2.059   7.966 -0.2241 -0.3519 -0.1026
  869MOL0     C17229   2.615   2.318   7.952 -0.2439 -0.3116 -0.6421
  869MOL0     C17230   2.733   2.352   7.896 -0.7838  0.4048 -0.4165
  869MOL0     N17231   3.540   2.325   7.700 -0.1062 -0.7526  0.4718
  869MOL0     N17232   3.596   2.344   7.813  0.0142 -0.1252 -0.3265
  869MOL0     C17233   3.048   1.805   8.546 -0.2461 -0.0356  0.5376
  869MOL0     C17234   2.977   1.813   8.662 -0.0895  0.0428 -0.2923
  869MOL0     C17235   2.809   1.763   9.063 -0.0764  0.0580 -0.7290
  869MOL0     C17236   2.722   1.665   9.117 -0.1792  0.2683  0.4034
  869MOL0     C17237   2.649   1.688   9.227 -0.7297 -0.1165 -0.7713
  869MOL0     C17238   2.656   1.805   9.306 -0.5158 -0.6599  0.3465
  869MOL0     O17239   2.595   1.825   9.425 -0.5879  0.8021 -0.1476
  869MOL0     C17240   2.505   1.729   9.475  0.4391 -0.5222 -0.9768
  869MOL0     C17241   2.357   1.755   9.435  0.2404 -0.2246  1.0564
  869MOL0     C17242   2.262   1.640   9.479 -0.4974 -0.1625  0.3457
  869MOL0     C17243   2.130   1.661   9.414 -0.1287  0.6234 -0.0276
  869MOL0     C17244   2.039   1.579   9.483 -0.1310  0.1111  0.7759
  869MOL0     C17245   1.966   1.513   9.547  0.3657 -0.1795 -0.9086
  869MOL0     C17246   2.740   1.902   9.259 -0.2190  0.2376 -0.0276
  869MOL0     C17247   2.813   1.887   9.138  0.2292  0.5495  0.7559
  869MOL0     H17248   3.219   1.813   8.886 -0.5569 -0.5341 -0.0145
  869MOL0     H17249   3.360   1.781   8.685 -0.5957  0.2564 -0.7584
  869MOL0     H17250   3.184   1.587   8.403 -0.8745  1.1218  0.0091
  869MOL0     H17251   3.166   1.708   8.270  0.9025  0.5167 -0.3638
  869MOL0     H17252   3.390   1.520   8.327  0.6091 -0.6666 -0.0699
  869MOL0     H17253   3.313   1.546   8.176  0.3264 -0.5880  0.9540
  869MOL0     H17254   3.496   1.736   8.335  0.5082  0.2598 -0.2908
  869MOL0     H17255   3.561   1.639   8.212  0.8135  3.4549 -3.2185
  869MOL0     H17256   3.444   1.777   8.048 -0.9490  1.0111  0.4993
  869MOL0     H17257   3.341   1.847   8.155  0.2503  1.4032 -1.5851
  869MOL0     H17258   3.532   1.958   8.278  3.0784 -1.3298  0.2929
  869MOL0     H17259   3.641   1.904   8.154  0.4281  1.0861  2.1661
  869MOL0     H17260   3.480   2.031   7.984  1.2925  2.0613 -0.5601
  869MOL0     H17261   3.405   2.095   8.138  1.4096 -0.6617  3.5833
  869MOL0     H17262   3.635   2.163   8.198 -1.8900  1.9265  0.8139
  869MOL0     H17263   3.675   2.120   8.026 -2.4299 -0.9973 -2.4109
  869MOL0     H17264   3.618   2.376   8.080 -0.7305  1.4428 -1.7468
  869MOL0     H17265   3.456   2.327   8.123 -1.4879  0.7869 -1.6135
  869MOL0     H17266   3.302   2.222   7.898 -0.5292  0.6332 -0.4928
  869MOL0     H17267   3.331   2.305   7.519 -0.8545  0.2431 -0.8653
  869MOL0     H17268   3.338   2.142   7.567  2.6551  0.5362  0.2981
  869MOL0     H17269   3.158   2.171   7.730 -1.9608 -0.1530  0.0105
  869MOL0     H17270   3.116   2.217   7.565 -0.4969  1.0948 -0.0644
  869MOL0     H17271   3.114   2.452   7.610  3.0739 -1.7037 -2.0943
  869MOL0     H17272   3.208   2.439   7.758 -1.8493 -1.2977  3.7595
  869MOL0     H17273   2.973   2.487   7.790 -3.5614 -0.7435  2.4443
  869MOL0     H17274   3.026   2.342   7.883 -0.6150 -2.2764 -0.8780
  869MOL0     H17275   2.733   2.101   7.659 -1.2533  0.1976 -0.3942
  869MOL0     H17276   2.566   1.976   7.648  3.3999  3.5048  0.2069
  869MOL0     H17277   2.568   1.918   7.816 -0.7702  0.3182 -1.1126
  869MOL0     H17278   2.418   1.987   7.747 -1.2492 -0.3589 -1.1540
  869MOL0     H17279   2.395   2.039   8.232 -1.8818 -2.1709  0.9210
  869MOL0     H17280   2.261   2.000   8.426 -2.0855 -1.2547 -0.7406
  869MOL0     H17281   2.039   1.939   8.502 -2.3611 -0.7505  1.5494
  869MOL0     H17282   2.158   2.014   8.612 -0.8105 -3.2556  0.8125
  869MOL0     H17283   1.952   1.896   8.712 -1.3971 -0.2919  0.1708
  869MOL0     H17284   1.981   2.058   8.773  3.2591 -4.1982  1.5061
  869MOL0     H17285   1.813   1.988   8.533  1.6217 -1.5108  2.1338
  869MOL0     H17286   1.813   2.156   8.606  5.1725  0.6414  1.9047
  869MOL0     H17287   1.742   1.937   8.782 -0.1486  0.5239  0.2387
  869MOL0     H17288   1.685   2.107   8.769 -3.9799  1.4783 -3.5886
  869MOL0     H17289   1.604   1.862   8.603  1.2398  0.7404  0.6873
  869MOL0     H17290   1.567   2.029   8.558 -2.1911 -0.0154  0.9389
  869MOL0     H17291   1.478   1.911   8.827 -0.3999  1.8470  1.0006
  869MOL0     H17292   1.446   2.066   8.763  1.8924 -0.1431 -0.0347
  869MOL0     H17293   1.380   1.803   8.600 -1.2709 -1.5464  1.0723
  869MOL0     H17294   1.295   1.962   8.592 -1.8527  2.5758  3.1952
  869MOL0     H17295   1.270   1.804   8.844 -0.9849 -1.6849 -1.1112
  869MOL0     H17296   1.188   1.764   8.698  0.3789  0.7737 -0.7964
  869MOL0     H17297   2.037   2.359   8.356  1.2522 -1.1061  2.4309
  869MOL0     H17298   2.193   2.415   8.177 -2.6240  0.6342  2.6172
  869MOL0     H17299   2.586   2.380   8.036  2.6790  0.0438  0.2095
  869MOL0     H17300   2.795   2.434   7.932 -1.4112  0.5545  0.3348
  869MOL0     H17301   3.006   1.793   8.446 -0.7095  0.6995  0.6301
  869MOL0     H17302   2.870   1.806   8.645  0.2147  0.9033 -3.0111
  869MOL0     H17303   2.724   1.563   9.079  0.0189 -0.4687  2.3160
  869MOL0     H17304   2.574   1.613   9.253 -1.9425  1.0224 -0.9079
  869MOL0     H17305   2.541   1.630   9.446  2.9059  0.1045 -0.2974
  869MOL0     H17306   2.502   1.744   9.584  0.1823  1.9277 -1.2608
  869MOL0     H17307   2.351   1.756   9.326 -0.0746 -0.5236  1.0662
  869MOL0     H17308   2.326   1.852   9.473  0.9369  0.9327 -1.1852
  869MOL0     H17309   2.257   1.648   9.588  1.9529 -2.9283  0.8293
  869MOL0     H17310   2.304   1.542   9.452 -1.2508 -0.4699  0.2759
  869MOL0     H17311   2.135   1.634   9.308  0.4940 -0.0086  0.1559
  869MOL0     H17312   2.095   1.764   9.411 -0.6143  0.4850  0.6509
  869MOL0     H17313   1.904   1.454   9.612  1.3623  1.2172  1.4651
  869MOL0     H17314   2.745   1.994   9.315  2.1629  1.3600 -1.9028
  869MOL0     H17315   2.879   1.955   9.086  2.7633 -2.1571  0.1880
  870MOL0     O17316   0.405   4.940   1.177 -0.2384 -0.4846 -0.0677
  870MOL0     C17317   0.326   5.009   1.230  0.1223  0.1609 -0.1882
  870MOL0     O17318   0.314   5.137   1.203  0.0496  0.3177  0.3943
  870MOL0     C17319   0.409   5.193   1.126 -1.4761 -0.6476 -0.2682
  870MOL0     C17320   0.534   5.241   1.194  0.7136 -0.3604  1.0333
  870MOL0     C17321   0.641   5.283   1.117  0.1479 -0.4867  0.2447
  870MOL0     C17322   0.627   5.291   0.985  0.2704  0.3238 -0.8649
  870MOL0     O17323   0.719   5.327   0.900 -0.1173  0.6297 -0.0518
  870MOL0     C17324   0.849   5.384   0.932  0.0169  0.3259 -0.4368
  870MOL0     C17325   0.874   5.472   0.814  0.4310  0.3555 -0.3830
  870MOL0     C17326   1.010   5.536   0.821 -0.3174 -0.5093  0.0279
  870MOL0     C17327   1.115   5.458   0.744  0.8243 -0.7731  0.1718
  870MOL0     C17328   1.259   5.526   0.764  0.2180  0.8183  0.0971
  870MOL0     C17329   1.272   5.667   0.711  0.2316 -0.5397 -0.1296
  870MOL0     C17330   1.414   5.713   0.714  0.3625 -0.7201  0.6073
  870MOL0     C17331   1.433   5.862   0.657 -0.4801  1.0403 -0.1839
  870MOL0     N17332   1.423   5.861   0.513  0.7520  0.3813  0.4587
  870MOL0     C17333   1.304   5.862   0.442  0.0299 -0.5163 -0.7348
  870MOL0     C17334   1.351   5.872   0.311 -0.5904 -0.3529 -0.8673
  870MOL0     C17335   1.263   5.867   0.189  0.2322 -0.0254 -0.1492
  870MOL0     C17336   1.249   6.004   0.123 -0.4626  0.5359 -0.1638
  870MOL0     C17337   1.201   6.118   0.207  0.3296 -0.7179 -0.2440
  870MOL0     C17338   1.071   6.085   0.285 -0.3173  0.3239  0.1770
  870MOL0     O17339   0.962   6.083   0.178 -0.6443 -0.6427  0.1892
  870MOL0     C17340   0.840   6.042   0.216  0.6054 -0.0940 -0.4295
  870MOL0     C17341   0.798   6.017   0.348  0.5368  0.4286 -0.0187
  870MOL0     C17342   0.666   5.979   0.378  0.4716 -0.6892 -0.6917
  870MOL0     C17343   0.638   5.971   0.523  0.3557  0.7873  0.1312
  870MOL0     C17344   0.566   5.969   0.278  0.9297  0.2921  0.2171
  870MOL0     C17345   0.430   5.916   0.299  0.4657 -0.0792 -0.2373
  870MOL0     O17346   0.380   5.892   0.428  0.0784 -0.5106 -0.1421
  870MOL0     C17347   0.254   5.839   0.458  0.4114 -0.4416 -0.0593
  870MOL0     C17348   0.238   5.795   0.589 -0.2770 -0.6048  0.7808
  870MOL0     C17349   0.125   5.738   0.640  0.8531 -0.6409  0.7453
  870MOL0     C17350   0.010   5.718   0.557 -0.2225  0.3304  0.7296
  870MOL0     O17351  -0.096   5.663   0.623 -0.1631 -0.6908 -0.4156
  870MOL0     C17352  -0.225   5.689   0.560  0.0608 -0.6684  0.0689
  870MOL0     C17353  -0.344   5.643   0.648  0.2831 -0.5706 -0.0907
  870MOL0     C17354  -0.480   5.649   0.565  0.2948 -0.5429 -0.0579
  870MOL0     C17355  -0.599   5.635   0.654 -0.2491  0.6713 -0.6639
  870MOL0     C17356  -0.720   5.676   0.577  0.0719  0.1214  0.1089
  870MOL0     C17357  -0.841   5.671   0.673 -0.2818 -0.5134 -0.3400
  870MOL0     C17358  -0.964   5.748   0.615  0.4280  0.6983 -0.0851
  870MOL0     C17359  -1.080   5.762   0.713 -0.3159 -0.2432  0.1944
  870MOL0    Cl17360  -1.225   5.835   0.640 -0.2843  0.8130 -0.3928
  870MOL0     C17361   0.023   5.762   0.419 -0.1728  0.2135 -0.2577
  870MOL0     C17362   0.141   5.826   0.369 -0.4687 -0.3069 -1.1108
  870MOL0     O17363   0.371   5.879   0.197  0.4802  0.2356 -0.1787
  870MOL0     C17364   0.609   5.998   0.144 -0.0213  0.6279 -0.4806
  870MOL0     C17365   0.748   6.022   0.120 -0.7884  0.1658  0.2383
  870MOL0     N17366   1.488   5.897   0.309  0.3746 -0.9018 -0.8268
  870MOL0     N17367   1.532   5.887   0.431  0.5955  0.0172  0.3418
  870MOL0     C17368   0.506   5.252   0.923  0.6121  0.2998  0.7996
  870MOL0     C17369   0.395   5.197   0.995  0.2378  0.4494 -0.4374
  870MOL0     C17370   0.241   4.958   1.341 -0.3282 -0.2185  0.8582
  870MOL0     C17371   0.152   5.042   1.407 -0.7811 -0.4861 -0.3679
  870MOL0     C17372   0.063   4.993   1.501 -0.0086  0.0256 -0.1429
  870MOL0     C17373   0.060   4.861   1.539 -0.2288 -0.0960  0.1716
  870MOL0     O17374  -0.026   4.812   1.628  0.4101 -0.4915 -0.1637
  870MOL0     C17375  -0.018   4.850   1.760 -0.2655 -0.2315 -0.4473
  870MOL0     C17376  -0.156   4.817   1.823  0.0018 -0.1645  0.2172
  870MOL0     C17377  -0.168   4.871   1.967 -0.2479 -0.0712 -0.5997
  870MOL0     C17378  -0.311   4.896   2.009 -0.1015  0.0766 -0.3619
  870MOL0     C17379  -0.384   4.768   2.039  0.1273  0.6680  0.1574
  870MOL0     C17380  -0.437   4.655   2.048 -0.5529 -0.1001 -0.2635
  870MOL0     C17381   0.143   4.773   1.475  0.6488  0.4151 -0.4245
  870MOL0     C17382   0.236   4.824   1.381 -0.5660 -0.1240 -0.1445
  870MOL0     H17383   0.534   5.237   1.302  3.0260  0.0395  1.0861
  870MOL0     H17384   0.727   5.322   1.172 -1.0602  0.8412  1.2720
  870MOL0     H17385   0.863   5.425   1.032 -1.0694  0.9106 -0.5042
  870MOL0     H17386   0.929   5.310   0.933  0.5543  0.8387  2.2754
  870MOL0     H17387   0.852   5.410   0.727 -1.3504 -1.6127  1.3836
  870MOL0     H17388   0.802   5.554   0.808 -3.0137 -2.3372  1.1656
  870MOL0     H17389   0.997   5.630   0.768  1.9419 -0.5234 -0.6313
  870MOL0     H17390   1.045   5.562   0.922  0.0305 -0.4215 -0.1146
  870MOL0     H17391   1.112   5.359   0.791 -2.7089 -2.0877 -2.4327
  870MOL0     H17392   1.081   5.453   0.640  2.5174  0.8780 -0.5299
  870MOL0     H17393   1.275   5.517   0.872  0.2153 -3.2284 -0.0746
  870MOL0     H17394   1.327   5.461   0.709 -1.6911 -3.0474  1.9030
  870MOL0     H17395   1.249   5.667   0.604  0.5928 -0.7267 -0.2097
  870MOL0     H17396   1.205   5.738   0.759 -0.3095 -1.1549  0.0419
  870MOL0     H17397   1.447   5.705   0.817  1.6514  2.8445  0.6149
  870MOL0     H17398   1.484   5.646   0.664  3.6943 -0.3857  4.3557
  870MOL0     H17399   1.537   5.892   0.675 -0.0935 -0.1990 -0.2664
  870MOL0     H17400   1.367   5.930   0.710 -0.6323  0.3936  0.4676
  870MOL0     H17401   1.205   5.853   0.486  1.3149 -0.2404  2.4180
  870MOL0     H17402   1.301   5.795   0.116  1.0802  0.6115 -0.3398
  870MOL0     H17403   1.163   5.830   0.215 -0.2933  1.1325 -0.4580
  870MOL0     H17404   1.177   6.006   0.041 -0.6735  1.7237  0.0241
  870MOL0     H17405   1.347   6.018   0.075 -0.0683 -1.1996  0.0811
  870MOL0     H17406   1.182   6.209   0.148  0.9160 -0.0998  0.4916
  870MOL0     H17407   1.279   6.151   0.277 -1.5023  0.6272  1.2674
  870MOL0     H17408   1.047   6.150   0.369 -0.4069 -0.8845  1.1203
  870MOL0     H17409   1.073   5.985   0.330 -1.1135 -0.3034 -1.1192
  870MOL0     H17410   0.866   6.036   0.430 -1.3060  3.7322  0.8980
  870MOL0     H17411   0.544   6.023   0.544 -0.6133 -1.0145  0.4483
  870MOL0     H17412   0.631   5.867   0.556 -0.7872  1.3470  1.7625
  870MOL0     H17413   0.716   6.025   0.577  2.3593 -0.1884 -1.6349
  870MOL0     H17414   0.337   5.800   0.635  1.8398  0.2949 -3.3639
  870MOL0     H17415   0.121   5.696   0.740  0.6440 -2.6307 -0.0396
  870MOL0     H17416  -0.246   5.790   0.526 -1.3262 -1.1103 -0.4650
  870MOL0     H17417  -0.231   5.631   0.468 -2.6479 -0.2973 -0.0703
  870MOL0     H17418  -0.322   5.538   0.666  0.3211 -0.5204  0.1513
  870MOL0     H17419  -0.351   5.699   0.742  1.2963  1.1973 -1.0021
  870MOL0     H17420  -0.481   5.577   0.483 -1.1060  0.8413 -1.3218
  870MOL0     H17421  -0.487   5.740   0.506 -1.6933  0.5330  1.6689
  870MOL0     H17422  -0.604   5.533   0.693  1.0396  0.4754 -0.9729
  870MOL0     H17423  -0.590   5.696   0.744 -0.7775 -4.0539  3.0223
  870MOL0     H17424  -0.733   5.622   0.483  0.8512  2.8826 -1.7208
  870MOL0     H17425  -0.708   5.780   0.545  2.9001 -0.6351 -1.6182
  870MOL0     H17426  -0.863   5.567   0.699 -0.0556 -0.4479  0.1106
  870MOL0     H17427  -0.811   5.731   0.759 -2.0453  0.2542 -0.2209
  870MOL0     H17428  -1.014   5.707   0.527 -1.1315  2.5587 -0.1402
  870MOL0     H17429  -0.937   5.851   0.590 -0.7343  1.6489  2.1849
  870MOL0     H17430  -1.051   5.816   0.804  0.7853 -2.4189  1.2413
  870MOL0     H17431  -1.104   5.662   0.750 -0.7750  0.4152  1.7478
  870MOL0     H17432  -0.063   5.739   0.356  0.2053 -1.0758 -0.3441
  870MOL0     H17433   0.145   5.865   0.267  1.3296  0.4297 -0.7940
  870MOL0     H17434   0.535   5.993   0.064  0.4407  1.7545 -1.0102
  870MOL0     H17435   0.777   6.038   0.016  0.2480  0.5554  0.5734
  870MOL0     H17436   0.521   5.256   0.815 -1.6939 -1.9912  0.3047
  870MOL0     H17437   0.305   5.169   0.941  1.4008  0.3839 -2.4309
  870MOL0     H17438   0.156   5.147   1.378 -1.3575 -0.0026  1.2081
  870MOL0     H17439  -0.009   5.060   1.546 -1.3986  0.0495 -2.2827
  870MOL0     H17440   0.048   4.787   1.821 -0.4165 -0.0247 -0.0673
  870MOL0     H17441  -0.001   4.957   1.772 -2.5107 -0.0546  2.2890
  870MOL0     H17442  -0.162   4.708   1.811 -1.0694  0.0355 -1.2942
  870MOL0     H17443  -0.238   4.859   1.764  1.6298  1.4449 -1.0473
  870MOL0     H17444  -0.114   4.967   1.974 -2.8430  1.6574 -2.4998
  870MOL0     H17445  -0.127   4.799   2.038 -4.4994  0.7784  3.1335
  870MOL0     H17446  -0.363   4.944   1.926 -3.9962 -0.0576  1.7690
  870MOL0     H17447  -0.309   4.969   2.090 -2.1999 -0.1686 -0.0338
  870MOL0     H17448  -0.489   4.562   2.062 -1.1123  0.3200  0.5471
  870MOL0     H17449   0.130   4.668   1.502 -1.0207  1.2864  2.5528
  870MOL0     H17450   0.304   4.754   1.333 -2.8955 -1.9267 -1.0082
  871MOL0     O17451   4.854   6.374   2.615 -0.0443 -0.6931 -0.6778
  871MOL0     C17452   4.920   6.473   2.636 -0.3212 -0.4126  0.5549
  871MOL0     O17453   4.885   6.598   2.595  0.2187 -0.3760  0.2912
  871MOL0     C17454   4.763   6.619   2.541 -0.0125 -0.8173  0.4920
  871MOL0     C17455   4.665   6.690   2.620  0.3999  0.5201  0.1586
  871MOL0     C17456   4.537   6.718   2.572 -1.0451 -0.1916  0.6082
  871MOL0     C17457   4.510   6.686   2.435 -0.5022  0.1794 -1.5181
  871MOL0     O17458   4.387   6.720   2.387  0.5406  0.2747 -0.3213
  871MOL0     C17459   4.388   6.776   2.254  1.0117  0.0788  0.1928
  871MOL0     C17460   4.244   6.829   2.217  0.5593 -0.3156 -0.0008
  871MOL0     C17461   4.248   6.879   2.064 -0.5973  0.4020 -0.9404
  871MOL0     C17462   4.270   6.759   1.971 -0.6002 -0.3457 -0.5750
  871MOL0     C17463   4.257   6.807   1.835  0.7966  0.2453  0.2202
  871MOL0     C17464   4.298   6.701   1.736 -0.3086 -0.4447  0.0874
  871MOL0     C17465   4.257   6.755   1.592 -0.2245 -0.0987  0.4566
  871MOL0     C17466   4.340   6.678   1.490  0.6132 -0.8099 -0.1942
  871MOL0     N17467   4.305   6.535   1.502  0.2857  0.6123  0.3574
  871MOL0     C17468   4.192   6.481   1.448  0.7969 -0.4054  0.3946
  871MOL0     C17469   4.208   6.347   1.456 -0.8428 -0.0456 -0.0644
  871MOL0     C17470   4.121   6.234   1.400 -0.5205  0.5119  0.2250
  871MOL0     C17471   4.173   6.103   1.448  0.7430 -0.9134  0.0440
  871MOL0     C17472   4.094   5.998   1.383  0.7176  1.0515 -0.6997
  871MOL0     C17473   4.145   5.864   1.438  0.4675 -0.9079  0.6752
  871MOL0     O17474   4.060   5.756   1.390  0.2464 -0.2310  0.4401
  871MOL0     C17475   3.947   5.710   1.457 -0.6106 -0.4082 -0.8046
  871MOL0     C17476   3.882   5.776   1.560 -0.2410  0.4990  0.1534
  871MOL0     C17477   3.767   5.727   1.621 -0.5567 -0.3800 -0.8165
  871MOL0     C17478   3.695   5.815   1.723  0.4137 -1.5484  0.3287
  871MOL0     C17479   3.720   5.603   1.578  0.0179  0.0705  0.2061
  871MOL0     C17480   3.593   5.545   1.635  0.1985  0.4880  0.1563
  871MOL0     O17481   3.587   5.403   1.625 -0.2265 -0.4268 -0.1659
  871MOL0     C17482   3.483   5.332   1.672 -0.7504 -0.2631  1.7104
  871MOL0     C17483   3.450   5.209   1.615 -0.9509  0.0930  1.1651
  871MOL0     C17484   3.352   5.127   1.667 -0.5933  0.4912 -0.3185
  871MOL0     C17485   3.263   5.175   1.767  0.4235  0.0917  0.2451
  871MOL0     O17486   3.160   5.090   1.819 -0.6499  0.4369 -0.0569
  871MOL0     C17487   3.046   5.142   1.899 -0.1745  0.1528  0.1585
  871MOL0     C17488   2.940   5.030   1.866  0.2153  0.0679  0.3888
  871MOL0     C17489   2.803   5.092   1.849  0.2575 -0.1118  0.1106
  871MOL0     C17490   2.688   4.989   1.854  1.1552  0.5864  0.9668
  871MOL0     C17491   2.552   5.041   1.811  0.7860 -0.0988  0.2896
  871MOL0     C17492   2.458   4.929   1.800 -0.0007  0.8916  0.5630
  871MOL0     C17493   2.428   4.870   1.938 -0.5502 -0.5104 -1.1555
  871MOL0     C17494   2.303   4.784   1.948 -0.3061 -0.3851  0.2515
  871MOL0    Cl17495   2.252   4.778   2.118  0.4773  0.1695  0.0507
  871MOL0     C17496   3.284   5.298   1.827 -0.3775  0.3020 -0.0495
  871MOL0     C17497   3.393   5.374   1.776 -0.3676  0.9233 -1.1661
  871MOL0     O17498   3.505   5.616   1.671  0.2229 -0.0836 -0.4844
  871MOL0     C17499   3.780   5.538   1.472 -0.7373 -0.0039  0.2403
  871MOL0     C17500   3.896   5.591   1.413  0.7515 -0.4091  0.2750
  871MOL0     N17501   4.324   6.334   1.534 -0.6682  0.1550  0.4890
  871MOL0     N17502   4.389   6.444   1.550  0.8577  0.6594 -0.2172
  871MOL0     C17503   4.617   6.624   2.359 -0.5490 -0.6008  0.7088
  871MOL0     C17504   4.738   6.587   2.409  0.4553 -0.1903 -0.4769
  871MOL0     C17505   5.053   6.457   2.704  1.0084 -0.1211 -0.1636
  871MOL0     C17506   5.087   6.326   2.738  0.6312  0.4910 -0.4739
  871MOL0     C17507   5.201   6.286   2.805  0.3864 -0.6547 -0.7789
  871MOL0     C17508   5.286   6.392   2.847 -1.0894 -0.8031  0.8566
  871MOL0     O17509   5.397   6.363   2.923 -0.2435  0.0454 -0.0071
  871MOL0     C17510   5.485   6.461   2.974 -0.4764 -0.1214 -1.4098
  871MOL0     C17511   5.599   6.387   3.045 -0.0337 -0.0466 -0.0429
  871MOL0     C17512   5.706   6.491   3.090 -0.2290  0.5034  0.0987
  871MOL0     C17513   5.814   6.424   3.188 -0.4916  0.2159  0.2468
  871MOL0     C17514   5.923   6.370   3.102  0.6453  0.0801  0.8971
  871MOL0     C17515   6.000   6.314   3.032 -1.0205 -0.1678 -0.5321
  871MOL0     C17516   5.255   6.526   2.817  0.6258  0.4245 -0.0498
  871MOL0     C17517   5.145   6.565   2.744  0.8887  0.4000  0.0040
  871MOL0     H17518   4.681   6.708   2.726 -1.2505 -1.3405  0.7852
  871MOL0     H17519   4.470   6.777   2.633 -0.6086  2.5335 -1.3946
  871MOL0     H17520   4.452   6.865   2.249 -0.0369  0.8077 -0.8163
  871MOL0     H17521   4.411   6.691   2.190 -2.1536 -1.5817  1.0482
  871MOL0     H17522   4.172   6.747   2.223 -1.8747  1.2140 -4.1150
  871MOL0     H17523   4.207   6.906   2.286 -0.5566 -1.1040  0.3239
  871MOL0     H17524   4.158   6.930   2.028 -0.2492  1.9217  0.2765
  871MOL0     H17525   4.331   6.950   2.064 -0.6073  0.4177  0.1334
  871MOL0     H17526   4.369   6.718   1.993 -0.5768 -0.1684 -0.3489
  871MOL0     H17527   4.203   6.676   1.996 -3.0736  1.8337  0.4194
  871MOL0     H17528   4.151   6.829   1.818 -0.0548 -3.5897 -0.2460
  871MOL0     H17529   4.322   6.895   1.822  2.2557 -0.9950 -1.5116
  871MOL0     H17530   4.401   6.668   1.757  0.1995 -1.4366 -3.3546
  871MOL0     H17531   4.246   6.605   1.746  0.5098 -0.9772 -0.5820
  871MOL0     H17532   4.155   6.745   1.554  0.0717  2.8540 -1.4504
  871MOL0     H17533   4.287   6.860   1.578  4.4274 -1.4080 -1.2414
  871MOL0     H17534   4.442   6.696   1.525  0.7922 -2.3934  0.1876
  871MOL0     H17535   4.321   6.726   1.394  1.1152  1.3985  0.7405
  871MOL0     H17536   4.106   6.529   1.403  0.4914 -0.1606  1.2311
  871MOL0     H17537   4.021   6.243   1.443 -0.8587  1.0667 -0.6413
  871MOL0     H17538   4.116   6.242   1.291 -1.8596  1.8765  0.3571
  871MOL0     H17539   4.176   6.091   1.556  3.0915  1.6056  0.3723
  871MOL0     H17540   4.279   6.097   1.421  1.2880 -0.6974  2.0123
  871MOL0     H17541   4.102   6.000   1.273  0.0150 -3.5282 -1.0203
  871MOL0     H17542   3.987   6.008   1.402  0.5722  0.5320 -1.2007
  871MOL0     H17543   4.146   5.870   1.547  0.5689 -1.8596  0.7311
  871MOL0     H17544   4.251   5.848   1.414  1.4074  2.4395  1.9954
  871MOL0     H17545   3.929   5.863   1.606 -1.1398  0.9455  0.2556
  871MOL0     H17546   3.765   5.897   1.739  2.4518 -2.7368 -1.6765
  871MOL0     H17547   3.591   5.840   1.705 -0.2091 -2.6252  2.1641
  871MOL0     H17548   3.706   5.773   1.823  2.3799  2.0529  1.8054
  871MOL0     H17549   3.503   5.167   1.530 -2.3032  1.3729 -0.3590
  871MOL0     H17550   3.335   5.027   1.629 -1.4037 -0.1023  1.4968
  871MOL0     H17551   3.065   5.140   2.006  0.0192  0.3948  0.1286
  871MOL0     H17552   3.004   5.239   1.871 -1.7923 -0.2484  1.0293
  871MOL0     H17553   2.955   4.965   1.779 -3.7943 -1.8183  0.8594
  871MOL0     H17554   2.934   4.959   1.948  0.8302 -0.2367  0.1722
  871MOL0     H17555   2.809   5.148   1.754  1.8517 -1.3022 -0.5392
  871MOL0     H17556   2.779   5.160   1.931  0.5178  0.6948 -0.4610
  871MOL0     H17557   2.723   4.907   1.791 -0.4005 -0.6863  1.7103
  871MOL0     H17558   2.697   4.949   1.955 -0.6873 -1.8361  0.2532
  871MOL0     H17559   2.561   5.098   1.719 -0.1934 -2.2764 -1.2448
  871MOL0     H17560   2.512   5.104   1.891 -0.5254 -3.1313  2.2455
  871MOL0     H17561   2.367   4.969   1.754  1.3311  2.2352 -1.0080
  871MOL0     H17562   2.492   4.853   1.728 -2.0678  0.4284  0.0129
  871MOL0     H17563   2.404   4.954   2.004 -0.8489  0.0544 -1.9786
  871MOL0     H17564   2.513   4.812   1.976 -0.0540 -0.7931 -2.6506
  871MOL0     H17565   2.320   4.687   1.901 -1.0425 -0.3531 -0.0917
  871MOL0     H17566   2.224   4.826   1.886  0.7495  1.3889  0.0536
  871MOL0     H17567   3.251   5.332   1.925 -0.0653 -0.5980  0.3799
  871MOL0     H17568   3.421   5.457   1.840  0.1650 -1.3219  1.7034
  871MOL0     H17569   3.758   5.435   1.447 -0.9249  0.1845 -0.3902
  871MOL0     H17570   3.942   5.542   1.329  0.5576 -0.3602  0.1408
  871MOL0     H17571   4.607   6.612   2.251 -1.6259 -1.6686  0.9115
  871MOL0     H17572   4.821   6.543   2.355  3.0393  2.9734  0.5778
  871MOL0     H17573   5.026   6.239   2.714  2.0772 -1.1329  1.4191
  871MOL0     H17574   5.224   6.186   2.839  0.5958  0.0612  1.3000
  871MOL0     H17575   5.533   6.523   2.897  2.2121 -0.1216  0.1192
  871MOL0     H17576   5.435   6.522   3.050 -0.6823 -0.4881 -1.2507
  871MOL0     H17577   5.640   6.312   2.977  2.2497 -0.9860  2.2037
  871MOL0     H17578   5.543   6.338   3.125  0.0133  1.6155  1.0447
  871MOL0     H17579   5.676   6.581   3.145  0.3972  0.7431  0.0591
  871MOL0     H17580   5.759   6.524   3.000 -1.5693  2.1058 -0.1541
  871MOL0     H17581   5.763   6.339   3.235  1.5876 -0.2708  1.7666
  871MOL0     H17582   5.860   6.488   3.264  0.6794 -2.5121  1.9893
  871MOL0     H17583   6.078   6.261   2.982  1.6084  0.8618  2.1882
  871MOL0     H17584   5.326   6.606   2.835 -0.8464  1.7136  0.3439
  871MOL0     H17585   5.141   6.667   2.708  0.0596  0.1227 -0.7257
  872MOL0     O17586   4.732   0.434   1.319  0.4743  0.2704  0.0391
  872MOL0     C17587   4.793   0.409   1.206 -0.5296 -0.4014 -0.7407
  872MOL0     O17588   4.756   0.332   1.102  0.5097  0.3133 -0.3987
  872MOL0     C17589   4.622   0.299   1.096  0.1144  0.1676  0.1255
  872MOL0     C17590   4.542   0.357   0.994  0.8597 -0.5097 -0.0949
  872MOL0     C17591   4.406   0.325   0.992 -0.0768  0.2356 -0.1439
  872MOL0     C17592   4.338   0.232   1.080 -0.2071 -0.6888 -0.3678
  872MOL0     O17593   4.210   0.195   1.050  0.8033 -0.4315  0.3095
  872MOL0     C17594   4.169   0.060   1.082  0.3279  0.0762 -0.4589
  872MOL0     C17595   4.034   0.038   1.012 -0.8913 -0.3769  0.3514
  872MOL0     C17596   3.924   0.019   1.113  0.1341 -0.3832  0.1631
  872MOL0     C17597   3.788   0.035   1.055  1.0047 -0.4620  0.6576
  872MOL0     C17598   3.681   0.008   1.158  0.3506 -0.2465  0.4356
  872MOL0     C17599   3.545   0.046   1.107 -0.1694  0.3910  0.9365
  872MOL0     C17600   3.422  -0.020   1.185  0.0630  0.3888  0.3495
  872MOL0     C17601   3.394  -0.160   1.134 -0.3243  0.7102  0.0938
  872MOL0     N17602   3.265  -0.208   1.178  0.1787  0.5622  0.8307
  872MOL0     C17603   3.139  -0.162   1.143  1.0298 -0.3735  0.8660
  872MOL0     C17604   3.049  -0.262   1.184 -0.2217 -0.2819 -0.0742
  872MOL0     C17605   2.896  -0.257   1.183  0.1761  0.8514 -0.1309
  872MOL0     C17606   2.835  -0.357   1.279  0.1657 -0.6031  0.4601
  872MOL0     C17607   2.692  -0.318   1.298 -0.8034  0.2572  0.7419
  872MOL0     C17608   2.606  -0.419   1.359 -0.4278 -0.5331  0.4619
  872MOL0     O17609   2.469  -0.367   1.386  0.6654  0.0014  0.0750
  872MOL0     C17610   2.376  -0.460   1.439 -0.0938 -0.7060 -0.4911
  872MOL0     C17611   2.241  -0.422   1.449  0.2165  0.0386 -0.0620
  872MOL0     C17612   2.146  -0.515   1.506  0.5844  0.5132 -0.2447
  872MOL0     C17613   2.007  -0.468   1.532  0.5776 -0.7152  0.1540
  872MOL0     C17614   2.189  -0.650   1.538  0.1729  0.0590  0.2516
  872MOL0     C17615   2.098  -0.750   1.612 -0.3077 -0.0093 -0.2802
  872MOL0     O17616   2.137  -0.875   1.608  0.0088 -0.2140  0.2023
  872MOL0     C17617   2.106  -0.964   1.703 -0.0493  0.1804 -0.6406
  872MOL0     C17618   1.981  -1.038   1.699 -0.0320 -0.2176 -0.6242
  872MOL0     C17619   1.953  -1.149   1.785  0.3926 -0.2820  0.2558
  872MOL0     C17620   2.051  -1.184   1.876  0.3230  0.7610 -0.1699
  872MOL0     O17621   2.026  -1.291   1.960  0.1993  0.7378  0.4945
  872MOL0     C17622   1.979  -1.259   2.089  0.5797  0.1001 -0.0961
  872MOL0     C17623   1.899  -1.371   2.155  0.8809 -0.0242  0.4091
  872MOL0     C17624   1.781  -1.411   2.069 -0.0717 -0.0716  0.3376
  872MOL0     C17625   1.668  -1.485   2.138  0.0705 -0.1446 -0.6444
  872MOL0     C17626   1.547  -1.525   2.047 -0.9677 -0.3348  0.5844
  872MOL0     C17627   1.454  -1.405   2.031  0.6409  0.2154  0.3673
  872MOL0     C17628   1.322  -1.417   2.117 -0.1431 -0.8304 -0.3652
  872MOL0     C17629   1.203  -1.329   2.068  0.8971  0.5091  0.2459
  872MOL0    Cl17630   1.178  -1.353   1.892  0.2344 -0.1061  0.2653
  872MOL0     C17631   2.174  -1.115   1.878 -0.3560  0.3965 -0.0786
  872MOL0     C17632   2.203  -1.008   1.794 -0.2553  0.1904 -0.1925
  872MOL0     O17633   2.005  -0.710   1.683 -0.0976  0.2099  0.2869
  872MOL0     C17634   2.321  -0.688   1.513 -0.2956 -0.5638 -0.9209
  872MOL0     C17635   2.413  -0.593   1.466  0.6295  0.4297 -0.3092
  872MOL0     N17636   3.131  -0.355   1.246 -0.0198  0.7006  0.4080
  872MOL0     N17637   3.251  -0.328   1.233 -1.7700 -0.2811  0.0046
  872MOL0     C17638   4.426   0.186   1.180 -0.8622  0.4925 -0.8136
  872MOL0     C17639   4.554   0.223   1.200 -0.4514 -0.1386  0.3090
  872MOL0     C17640   4.895   0.511   1.182  0.3088 -0.1334 -0.4318
  872MOL0     C17641   4.926   0.552   1.057 -0.4655 -1.3523  0.2413
  872MOL0     C17642   5.033   0.642   1.030  0.4325 -0.5753  0.9494
  872MOL0     C17643   5.113   0.687   1.129 -0.4125  0.4242  0.2165
  872MOL0     O17644   5.218   0.768   1.083  0.1964  0.6934  0.7259
  872MOL0     C17645   5.331   0.777   1.172  0.0571 -0.2834  0.2573
  872MOL0     C17646   5.431   0.662   1.147 -0.6639  0.0445 -0.4315
  872MOL0     C17647   5.542   0.653   1.249  0.7241 -0.3378 -0.4413
  872MOL0     C17648   5.617   0.518   1.229 -0.4009  0.1471 -0.7046
  872MOL0     C17649   5.728   0.492   1.321  0.5905  0.8520 -0.3062
  872MOL0     C17650   5.833   0.472   1.393  1.1257  0.3967  0.6094
  872MOL0     C17651   5.085   0.650   1.260  0.2839  0.0090  0.2071
  872MOL0     C17652   4.972   0.569   1.287 -0.4550  0.7979  0.1490
  872MOL0     H17653   4.589   0.421   0.921  2.9138 -0.0688  1.5018
  872MOL0     H17654   4.353   0.372   0.910  2.3678  1.4150 -1.1482
  872MOL0     H17655   4.233  -0.017   1.037  1.1684  0.1948  0.4957
  872MOL0     H17656   4.169   0.033   1.188 -0.9498 -1.7051 -0.8607
  872MOL0     H17657   4.011   0.127   0.953 -0.4599  0.1736  0.9967
  872MOL0     H17658   4.047  -0.055   0.956  3.6392 -0.0576  0.5121
  872MOL0     H17659   3.931  -0.080   1.157  1.0229 -0.6911 -0.6512
  872MOL0     H17660   3.933   0.104   1.181 -3.5005  1.3932 -1.2730
  872MOL0     H17661   3.779   0.139   1.022  0.5820 -0.3386  1.1596
  872MOL0     H17662   3.770  -0.024   0.966  0.6845  1.6859 -0.7886
  872MOL0     H17663   3.674  -0.098   1.182  0.7946  0.3070  3.3649
  872MOL0     H17664   3.699   0.051   1.257  0.7063  3.1225 -0.9296
  872MOL0     H17665   3.530   0.154   1.114 -0.4517  0.5945 -1.7421
  872MOL0     H17666   3.538   0.023   1.000  1.0558  3.6835  0.0261
  872MOL0     H17667   3.448  -0.030   1.290  0.8137  0.0812  0.1380
  872MOL0     H17668   3.335   0.046   1.171  1.9114  2.9680  0.2940
  872MOL0     H17669   3.466  -0.230   1.178 -2.4679  0.2272  3.1972
  872MOL0     H17670   3.399  -0.167   1.025 -0.4332 -0.7487  0.1644
  872MOL0     H17671   3.109  -0.069   1.096  0.1298 -0.4457  1.2604
  872MOL0     H17672   2.860  -0.156   1.203  0.9447  0.8084  1.5802
  872MOL0     H17673   2.859  -0.293   1.087 -0.1454  0.3490  0.1800
  872MOL0     H17674   2.893  -0.346   1.371  2.3456 -0.6740 -0.8521
  872MOL0     H17675   2.842  -0.454   1.230  0.1295  0.7114 -2.3247
  872MOL0     H17676   2.653  -0.281   1.203 -0.8811 -1.5805  0.0163
  872MOL0     H17677   2.693  -0.224   1.354 -0.0864 -0.9749  2.9115
  872MOL0     H17678   2.650  -0.461   1.450 -0.9796 -0.3528  0.8188
  872MOL0     H17679   2.609  -0.492   1.278 -0.0097 -0.6230  0.5574
  872MOL0     H17680   2.201  -0.322   1.433  0.2215  0.1837  0.7833
  872MOL0     H17681   2.004  -0.363   1.501 -1.8372 -0.8471 -0.2567
  872MOL0     H17682   1.934  -0.522   1.471 -0.4014 -1.8475  2.2358
  872MOL0     H17683   1.977  -0.475   1.636 -0.1241 -1.0996 -0.0673
  872MOL0     H17684   1.905  -1.020   1.625 -0.4949 -2.0098 -0.6376
  872MOL0     H17685   1.865  -1.209   1.765 -0.0420  0.8765 -1.5115
  872MOL0     H17686   2.064  -1.229   2.151 -1.9530  2.3339  2.5743
  872MOL0     H17687   1.911  -1.173   2.082  0.2279 -0.1345  0.3841
  872MOL0     H17688   1.950  -1.466   2.170 -1.3550 -1.1061  1.5582
  872MOL0     H17689   1.857  -1.348   2.253  0.6830 -0.5073  0.4374
  872MOL0     H17690   1.828  -1.461   1.983  1.3642 -0.5089  1.3502
  872MOL0     H17691   1.736  -1.316   2.036  0.7414  0.1834 -0.0640
  872MOL0     H17692   1.717  -1.576   2.173  0.0652  0.0416 -0.1396
  872MOL0     H17693   1.628  -1.436   2.228 -2.0473 -0.5140 -1.3321
  872MOL0     H17694   1.492  -1.617   2.071 -0.7418 -0.7445 -0.4147
  872MOL0     H17695   1.600  -1.545   1.953  0.4734  3.8819  0.2670
  872MOL0     H17696   1.500  -1.306   2.040 -0.7587  1.2009 -2.1383
  872MOL0     H17697   1.426  -1.428   1.927  2.3405  0.7969 -0.2595
  872MOL0     H17698   1.350  -1.377   2.216 -1.0802  2.2182 -1.2210
  872MOL0     H17699   1.290  -1.521   2.121  1.9055 -1.5144 -0.6102
  872MOL0     H17700   1.216  -1.224   2.092 -0.0464  0.3705  1.5263
  872MOL0     H17701   1.107  -1.347   2.118  2.0418  1.1057  2.8208
  872MOL0     H17702   2.251  -1.157   1.942 -1.6262  1.8299  2.5121
  872MOL0     H17703   2.305  -0.972   1.787 -0.2823  0.0760 -1.3754
  872MOL0     H17704   2.357  -0.790   1.517  0.8587 -0.3058 -3.0821
  872MOL0     H17705   2.511  -0.636   1.454  0.6014 -0.7706  2.7801
  872MOL0     H17706   4.390   0.114   1.254  1.2367  0.7394  0.5303
  872MOL0     H17707   4.608   0.180   1.284  1.2177 -2.3751 -1.7662
  872MOL0     H17708   4.876   0.515   0.967 -2.7540  0.7488  0.5488
  872MOL0     H17709   5.056   0.663   0.926  0.5045 -0.4401  0.9917
  872MOL0     H17710   5.386   0.865   1.136 -0.7070  0.3154  0.5233
  872MOL0     H17711   5.309   0.786   1.279 -2.3310 -1.4840 -0.0727
  872MOL0     H17712   5.476   0.667   1.047  0.0159 -1.3555 -0.2138
  872MOL0     H17713   5.369   0.572   1.138 -0.5925  0.1822 -3.0786
  872MOL0     H17714   5.499   0.663   1.349 -1.1143  1.9879 -1.3630
  872MOL0     H17715   5.609   0.739   1.238  1.7501 -0.9565  0.7431
  872MOL0     H17716   5.661   0.523   1.129 -1.2649 -1.4042 -1.1821
  872MOL0     H17717   5.550   0.434   1.247  1.3875 -1.5877 -1.7016
  872MOL0     H17718   5.923   0.463   1.451 -0.0020  0.5581  2.4882
  872MOL0     H17719   5.150   0.683   1.341  0.5813 -0.4608  0.1609
  872MOL0     H17720   4.955   0.538   1.389 -0.3275 -2.0623 -0.6112
  873MOL0     O17721   7.850  11.044   6.190 -0.2867 -1.3365 -0.7289
  873MOL0     C17722   7.740  11.031   6.236 -0.6904 -0.0121  0.5289
  873MOL0     O17723   7.626  11.090   6.190  0.5264  0.6228 -0.2965
  873MOL0     C17724   7.603  11.158   6.076 -0.0852 -0.5608  0.6186
  873MOL0     C17725   7.472  11.213   6.053  0.4123  0.1278 -0.0182
  873MOL0     C17726   7.448  11.290   5.944  1.0812 -0.3868 -0.1542
  873MOL0     C17727   7.547  11.327   5.855  0.4029 -0.7549  0.3876
  873MOL0     O17728   7.513  11.425   5.768  0.0079  0.0800 -0.4181
  873MOL0     C17729   7.618  11.487   5.696 -0.1244  0.0973 -0.3161
  873MOL0     C17730   7.555  11.571   5.585 -0.3609  0.4367  0.9643
  873MOL0     C17731   7.473  11.682   5.646 -0.5199  0.2086 -0.0751
  873MOL0     C17732   7.383  11.752   5.540 -0.3615 -0.0023  0.0656
  873MOL0     C17733   7.334  11.893   5.584  0.7040 -0.1877  0.7088
  873MOL0     C17734   7.252  11.959   5.474 -0.3381  0.1510 -0.0483
  873MOL0     C17735   7.215  12.108   5.503 -0.1086 -0.4569 -0.7424
  873MOL0     C17736   7.338  12.205   5.509  1.2440  0.3700  0.1232
  873MOL0     N17737   7.400  12.208   5.373  0.5367 -0.3711  0.1455
  873MOL0     C17738   7.330  12.239   5.255 -0.0413  0.9456  0.0809
  873MOL0     C17739   7.426  12.267   5.170 -1.1475  0.7044  0.4929
  873MOL0     C17740   7.418  12.274   5.021  0.3873  0.2299 -0.0611
  873MOL0     C17741   7.341  12.405   4.980  0.0257 -0.6637  0.1295
  873MOL0     C17742   7.341  12.432   4.827 -0.0589 -0.0473 -0.5420
  873MOL0     C17743   7.280  12.318   4.748  0.0633  0.8515 -0.0106
  873MOL0     O17744   7.163  12.252   4.814 -0.5880 -0.2123 -0.4321
  873MOL0     C17745   7.030  12.286   4.801 -0.2832  0.2880  1.1571
  873MOL0     C17746   6.976  12.393   4.728  0.8592  0.0627 -0.5704
  873MOL0     C17747   6.839  12.422   4.711  0.6967  0.8298 -0.2771
  873MOL0     C17748   6.806  12.546   4.632 -0.2846  0.1426  0.5182
  873MOL0     C17749   6.749  12.330   4.758  0.2030  0.5610 -0.5971
  873MOL0     C17750   6.603  12.334   4.728 -0.7426 -0.1178 -1.5351
  873MOL0     O17751   6.528  12.227   4.787 -0.6819 -0.3354 -0.0442
  873MOL0     C17752   6.394  12.230   4.766  0.2499  0.0471  0.9849
  873MOL0     C17753   6.318  12.317   4.827 -0.4873 -0.3668 -0.2380
  873MOL0     C17754   6.180  12.313   4.810 -0.0158 -0.8263  0.4452
  873MOL0     C17755   6.120  12.208   4.740  0.5204 -0.1025  0.3893
  873MOL0     O17756   5.984  12.211   4.726  0.0227 -0.1052  0.0165
  873MOL0     C17757   5.915  12.092   4.675  0.3879 -0.4283 -0.5818
  873MOL0     C17758   5.764  12.117   4.682 -0.1511  0.1114 -0.1479
  873MOL0     C17759   5.725  12.190   4.555 -0.0631 -0.2636 -0.3301
  873MOL0     C17760   5.678  12.094   4.441 -0.6539  0.6192  0.1415
  873MOL0     C17761   5.647  12.165   4.310 -0.1856 -0.5530  0.2307
  873MOL0     C17762   5.617  12.054   4.191  0.3664  0.5687 -0.8774
  873MOL0     C17763   5.527  12.106   4.085  0.8772  0.2833 -0.0971
  873MOL0     C17764   5.593  12.216   4.007 -0.4575 -0.5633  0.7152
  873MOL0    Cl17765   5.498  12.258   3.856 -0.2887 -0.1894 -0.0847
  873MOL0     C17766   6.197  12.104   4.688 -0.0686 -0.5426  0.5886
  873MOL0     C17767   6.336  12.115   4.704  0.1705 -1.4145 -0.1901
  873MOL0     O17768   6.557  12.414   4.650  0.0816  0.2129  0.1734
  873MOL0     C17769   6.796  12.223   4.836 -1.0578 -0.3542  0.1498
  873MOL0     C17770   6.933  12.198   4.852 -0.0592  0.0093 -0.1808
  873MOL0     N17771   7.548  12.263   5.228 -0.9896  0.5425  0.0901
  873MOL0     N17772   7.531  12.228   5.352  0.1069  0.6707  0.0382
  873MOL0     C17773   7.676  11.273   5.874 -0.0738  0.0066  0.4771
  873MOL0     C17774   7.703  11.189   5.976  0.5291  0.7648 -0.2777
  873MOL0     C17775   7.724  10.952   6.358 -0.2790  0.4092  0.1195
  873MOL0     C17776   7.830  10.873   6.408 -0.1662 -0.5844  0.6474
  873MOL0     C17777   7.825  10.806   6.529 -0.1776  0.9306  0.0914
  873MOL0     C17778   7.711  10.816   6.611  0.5939  0.6487 -0.1943
  873MOL0     O17779   7.705  10.732   6.721 -0.0329  0.1652  0.4399
  873MOL0     C17780   7.610  10.764   6.818  0.2672  0.0619 -0.1481
  873MOL0     C17781   7.628  10.693   6.958 -0.0626 -0.4554 -0.1020
  873MOL0     C17782   7.779  10.656   6.981  0.3099  0.6785 -0.0719
  873MOL0     C17783   7.790  10.563   7.105 -0.3365 -0.3325  1.3203
  873MOL0     C17784   7.936  10.537   7.118  0.4135 -0.3343 -0.0457
  873MOL0     C17785   8.054  10.534   7.110  0.6003  0.4871  0.1597
  873MOL0     C17786   7.603  10.900   6.579 -0.5995 -1.0092  0.6212
  873MOL0     C17787   7.611  10.961   6.451 -0.4320  0.4267  0.5601
  873MOL0     H17788   7.392  11.196   6.125 -2.3634  2.9944 -2.1826
  873MOL0     H17789   7.347  11.321   5.921  1.7635  3.0379  0.9173
  873MOL0     H17790   7.678  11.551   5.762  2.0517 -2.1276  0.0364
  873MOL0     H17791   7.692  11.428   5.640 -0.9488  0.5387 -1.9443
  873MOL0     H17792   7.633  11.622   5.529 -1.0889 -0.5736 -1.0930
  873MOL0     H17793   7.487  11.512   5.522 -2.0057  3.1652  0.0382
  873MOL0     H17794   7.407  11.641   5.723  2.0462 -2.7201  0.7885
  873MOL0     H17795   7.541  11.756   5.688  0.4317 -0.0262 -1.1576
  873MOL0     H17796   7.447  11.780   5.456 -2.3189  1.7212 -0.9554
  873MOL0     H17797   7.301  11.690   5.503 -0.2510 -0.0664 -0.0709
  873MOL0     H17798   7.271  11.873   5.671 -0.6465  0.9260  0.0382
  873MOL0     H17799   7.419  11.953   5.617  0.2400  0.9483 -0.0977
  873MOL0     H17800   7.322  11.955   5.389  1.4258  1.2708  1.2842
  873MOL0     H17801   7.163  11.896   5.459 -0.1292  0.3521 -2.7490
  873MOL0     H17802   7.153  12.146   5.422  1.6631  2.9227 -0.6665
  873MOL0     H17803   7.169  12.121   5.601 -0.6439 -2.3365 -0.6952
  873MOL0     H17804   7.407  12.175   5.589  1.1886  0.1808  0.0993
  873MOL0     H17805   7.315  12.308   5.539  1.5285  0.3990  0.2470
  873MOL0     H17806   7.225  12.228   5.233 -0.6147  1.4947  2.3423
  873MOL0     H17807   7.512  12.275   4.966  0.3296  0.7172 -0.1614
  873MOL0     H17808   7.352  12.194   4.986 -0.6857  1.8020 -1.8093
  873MOL0     H17809   7.392  12.493   5.021  0.8889 -1.0087 -0.1953
  873MOL0     H17810   7.238  12.401   5.017 -1.2299  1.7364 -2.6713
  873MOL0     H17811   7.438  12.470   4.794 -0.3805  1.3502  0.0309
  873MOL0     H17812   7.278  12.521   4.825  1.0324  0.7280 -0.8636
  873MOL0     H17813   7.361  12.247   4.733  0.2425  1.1333 -0.3761
  873MOL0     H17814   7.256  12.356   4.648  3.3664  0.7596 -0.9440
  873MOL0     H17815   7.049  12.467   4.698  0.0976  0.3459 -1.7975
  873MOL0     H17816   6.765  12.534   4.531  0.4975  1.2655  0.0489
  873MOL0     H17817   6.740  12.612   4.688 -0.1895 -0.1281  0.9507
  873MOL0     H17818   6.899  12.598   4.608 -0.1293 -0.7765 -1.0776
  873MOL0     H17819   6.359  12.393   4.893  0.4202  0.0156 -1.2182
  873MOL0     H17820   6.120  12.396   4.847  0.2967 -0.4316  0.0830
  873MOL0     H17821   5.939  12.061   4.573  0.2097 -1.9098 -0.1974
  873MOL0     H17822   5.927  12.013   4.750 -0.7498 -1.3783 -1.3837
  873MOL0     H17823   5.717  12.019   4.689  3.0875 -1.6094 -0.4970
  873MOL0     H17824   5.753  12.178   4.772  0.5123 -2.9969  2.2175
  873MOL0     H17825   5.806  12.251   4.514 -1.0853  1.3578 -0.0263
  873MOL0     H17826   5.636  12.249   4.580  0.8657  1.7396 -1.5218
  873MOL0     H17827   5.763  12.030   4.417  0.1248  1.0150  1.6926
  873MOL0     H17828   5.594  12.038   4.484  1.2909 -0.0787  3.3926
  873MOL0     H17829   5.731  12.229   4.284  0.4357 -1.4876 -0.1249
  873MOL0     H17830   5.563  12.234   4.322  1.3379  0.9197  3.6367
  873MOL0     H17831   5.714  12.026   4.148  1.6889  0.1887  2.0755
  873MOL0     H17832   5.561  11.969   4.230  0.1682  1.7376  1.5783
  873MOL0     H17833   5.439  12.142   4.141  1.2517 -0.0800  0.7492
  873MOL0     H17834   5.509  12.032   4.006  2.6383  1.2134 -1.4373
  873MOL0     H17835   5.694  12.187   3.976 -0.7042 -0.3121 -0.3704
  873MOL0     H17836   5.616  12.303   4.070 -0.2994  1.1289 -1.5154
  873MOL0     H17837   6.157  12.028   4.621  0.6707  0.4410 -1.0082
  873MOL0     H17838   6.405  12.044   4.660 -1.1394 -2.5478 -0.4788
  873MOL0     H17839   6.727  12.150   4.875 -1.4219 -0.0796  0.0293
  873MOL0     H17840   6.969  12.108   4.903  0.1909 -1.2670 -2.4961
  873MOL0     H17841   7.754  11.310   5.808  0.7930  1.6260  2.2911
  873MOL0     H17842   7.806  11.153   5.976  0.1569 -0.3343 -0.8214
  873MOL0     H17843   7.917  10.852   6.347  0.9318 -1.4717  2.4331
  873MOL0     H17844   7.903  10.735   6.555  0.0068  2.2469  3.6794
  873MOL0     H17845   7.638  10.865   6.850  0.2199 -0.4450  1.5999
  873MOL0     H17846   7.505  10.760   6.787  0.1671 -1.3896  0.3029
  873MOL0     H17847   7.572  10.599   6.960  2.5645 -2.1214  0.3926
  873MOL0     H17848   7.583  10.757   7.034  0.7153 -0.2702  0.2104
  873MOL0     H17849   7.834  10.751   6.981  0.2348  0.7254 -0.4038
  873MOL0     H17850   7.815  10.608   6.889 -0.0313  1.0704 -0.4179
  873MOL0     H17851   7.737  10.468   7.092 -0.1411 -0.1807 -1.1283
  873MOL0     H17852   7.768  10.614   7.199  0.9166  1.1437  0.8556
  873MOL0     H17853   8.161  10.537   7.109  0.6075  1.2725  1.4976
  873MOL0     H17854   7.518  10.921   6.643 -0.6230  1.2422 -0.0543
  873MOL0     H17855   7.532  11.025   6.414  3.0045  5.0440  0.2471
  874MOL0     O17856   6.408   1.731   4.070 -0.1955 -0.0522 -0.3905
  874MOL0     C17857   6.428   1.813   3.985  0.0559 -0.0367  0.5187
  874MOL0     O17858   6.342   1.836   3.875 -0.3561 -0.2634  0.2919
  874MOL0     C17859   6.220   1.770   3.844  0.2601  0.1471 -0.5571
  874MOL0     C17860   6.186   1.634   3.857  0.1678  0.1847 -0.1987
  874MOL0     C17861   6.060   1.582   3.828  0.8092  0.7732  0.1066
  874MOL0     C17862   5.962   1.668   3.769 -0.6101 -0.0600 -0.7513
  874MOL0     O17863   5.843   1.607   3.737  0.7430  0.5084  0.4850
  874MOL0     C17864   5.730   1.682   3.700 -0.1147  0.2476  0.4555
  874MOL0     C17865   5.623   1.572   3.706 -0.2320 -0.0341  0.2071
  874MOL0     C17866   5.491   1.643   3.698  0.3439 -0.2652 -0.1971
  874MOL0     C17867   5.378   1.567   3.616 -0.2728 -0.1912 -0.0790
  874MOL0     C17868   5.242   1.635   3.631  0.3179  0.0812  0.3816
  874MOL0     C17869   5.120   1.557   3.581  0.0291 -0.1038  0.1506
  874MOL0     C17870   4.991   1.632   3.625  1.1041  0.7097  0.2363
  874MOL0     C17871   4.866   1.563   3.566 -0.3168  0.1730 -0.2017
  874MOL0     N17872   4.766   1.658   3.589  0.1256 -0.5147 -0.2803
  874MOL0     C17873   4.650   1.630   3.654  0.6505  1.1246 -0.3015
  874MOL0     C17874   4.574   1.749   3.644  0.6548 -0.3277  0.4430
  874MOL0     C17875   4.434   1.776   3.706 -0.1605 -0.6377  0.1932
  874MOL0     C17876   4.374   1.662   3.787 -0.5747  0.2627  0.5486
  874MOL0     C17877   4.242   1.703   3.846 -0.2005  1.1080  0.0327
  874MOL0     C17878   4.152   1.759   3.740  0.5374 -0.0683  1.1595
  874MOL0     O17879   4.026   1.806   3.795 -0.2779  0.8154  0.1636
  874MOL0     C17880   3.915   1.733   3.781 -0.0913  0.6875  0.8363
  874MOL0     C17881   3.897   1.611   3.708  0.6140 -0.4518 -0.1073
  874MOL0     C17882   3.767   1.555   3.706 -1.0281 -0.4516  1.2819
  874MOL0     C17883   3.743   1.424   3.635 -0.2543  0.2128 -0.0543
  874MOL0     C17884   3.662   1.605   3.781 -0.0757 -0.4660  0.3811
  874MOL0     C17885   3.527   1.552   3.782  0.5220 -0.0910 -1.4524
  874MOL0     O17886   3.454   1.517   3.669  0.6732 -0.6223 -0.2721
  874MOL0     C17887   3.320   1.496   3.679 -0.5226 -0.4536 -0.4939
  874MOL0     C17888   3.247   1.608   3.665 -0.4490 -0.0842  0.6737
  874MOL0     C17889   3.103   1.589   3.645  0.7350  0.8713  0.4081
  874MOL0     C17890   3.052   1.460   3.673  0.2960  0.3538  0.6100
  874MOL0     O17891   2.914   1.450   3.665  0.3405 -0.0846  0.0088
  874MOL0     C17892   2.839   1.423   3.786 -0.3842  0.9246  0.1164
  874MOL0     C17893   2.695   1.459   3.750  0.1166  0.5731  0.1109
  874MOL0     C17894   2.591   1.395   3.842  0.5193  0.0603  0.2188
  874MOL0     C17895   2.446   1.419   3.793 -1.1100  0.0499  0.4399
  874MOL0     C17896   2.341   1.365   3.896  0.5567 -0.5973  0.8645
  874MOL0     C17897   2.273   1.470   3.992 -0.5456  0.5772  0.8057
  874MOL0     C17898   2.171   1.410   4.104 -0.8353 -0.4561  0.5961
  874MOL0     C17899   2.039   1.386   4.042 -0.6633  0.7121 -0.2705
  874MOL0    Cl17900   1.938   1.530   3.997  0.3330  0.0042 -0.4326
  874MOL0     C17901   3.133   1.349   3.706  0.2198  0.0593  0.3640
  874MOL0     C17902   3.275   1.370   3.702  0.6509  0.1393  0.3965
  874MOL0     O17903   3.480   1.554   3.892  0.8780  0.9474 -0.9889
  874MOL0     C17904   3.680   1.722   3.856  0.0051  0.2132  0.0275
  874MOL0     C17905   3.805   1.788   3.848 -0.1737  0.2638  0.0262
  874MOL0     N17906   4.638   1.830   3.557  0.3086  0.1929 -0.0982
  874MOL0     N17907   4.747   1.772   3.512 -0.1106  0.1336 -0.7569
  874MOL0     C17908   5.998   1.798   3.751  0.0011  0.0665  0.9826
  874MOL0     C17909   6.121   1.848   3.783  0.4201 -0.9510  0.2001
  874MOL0     C17910   6.533   1.910   4.008  0.0089  0.1304 -0.7002
  874MOL0     C17911   6.518   2.041   3.964  0.0637 -0.6814  0.3461
  874MOL0     C17912   6.624   2.130   3.963  0.0746  0.0489  0.0570
  874MOL0     C17913   6.746   2.085   4.026 -0.7378 -0.5020 -0.1670
  874MOL0     O17914   6.849   2.183   4.024 -0.1844 -0.0653 -0.3027
  874MOL0     C17915   6.982   2.145   4.058 -0.5414  0.1520  0.3208
  874MOL0     C17916   7.075   2.269   4.058 -0.4318 -0.2629  0.2288
  874MOL0     C17917   7.052   2.361   4.184 -0.7548  0.4072  0.3075
  874MOL0     C17918   7.087   2.512   4.169 -0.3642  0.1907  0.0943
  874MOL0     C17919   7.125   2.560   4.296  0.0947 -0.1074 -0.0197
  874MOL0     C17920   7.166   2.614   4.396  0.0446  0.1901 -0.0989
  874MOL0     C17921   6.758   1.959   4.083  1.4166  0.3068 -0.5170
  874MOL0     C17922   6.658   1.866   4.068  0.6705 -0.1725  0.5401
  874MOL0     H17923   6.263   1.574   3.905  2.0757  1.2058 -1.8303
  874MOL0     H17924   6.028   1.483   3.859  3.0270  0.4861  1.7079
  874MOL0     H17925   5.703   1.763   3.767  2.2592 -0.0633  1.9052
  874MOL0     H17926   5.729   1.717   3.596  1.0794 -3.9949 -1.2283
  874MOL0     H17927   5.627   1.497   3.626  2.3705 -1.0760  1.1872
  874MOL0     H17928   5.628   1.518   3.801  0.9238 -0.9399 -0.3400
  874MOL0     H17929   5.444   1.641   3.797  3.1559 -1.6290  1.2284
  874MOL0     H17930   5.489   1.748   3.667 -2.7567  0.4428  1.8590
  874MOL0     H17931   5.397   1.569   3.508 -0.6782 -0.1146 -0.1509
  874MOL0     H17932   5.378   1.465   3.653 -0.0076  0.2321  1.1098
  874MOL0     H17933   5.224   1.644   3.738 -1.9554 -1.2178  0.1694
  874MOL0     H17934   5.236   1.730   3.576 -1.7640  1.6309  3.0861
  874MOL0     H17935   5.125   1.554   3.472 -0.2513  1.6569  0.0568
  874MOL0     H17936   5.115   1.457   3.625  0.8496 -1.1657 -2.0399
  874MOL0     H17937   4.977   1.632   3.733  2.1395  1.6962  0.3855
  874MOL0     H17938   5.001   1.734   3.587  1.9079 -0.3918 -2.8567
  874MOL0     H17939   4.852   1.470   3.622  0.7713  0.5888  0.7978
  874MOL0     H17940   4.883   1.532   3.462 -1.2385 -4.3637  0.8011
  874MOL0     H17941   4.617   1.538   3.700 -4.0448  0.0680 -4.7587
  874MOL0     H17942   4.427   1.872   3.758 -2.2733 -0.6145 -0.0335
  874MOL0     H17943   4.390   1.789   3.606  2.2687  0.3618 -0.8271
  874MOL0     H17944   4.444   1.635   3.866  0.0467 -0.0088 -0.0839
  874MOL0     H17945   4.344   1.570   3.735 -0.9654 -1.2150  3.2247
  874MOL0     H17946   4.249   1.770   3.932  2.7925 -1.6877  2.2378
  874MOL0     H17947   4.196   1.615   3.890  0.0091  0.0710 -1.7078
  874MOL0     H17948   4.145   1.708   3.643  0.6921  0.5413  0.8151
  874MOL0     H17949   4.206   1.852   3.723  1.4071 -0.5902  1.0359
  874MOL0     H17950   3.984   1.565   3.661  0.7976  0.3592 -0.5868
  874MOL0     H17951   3.643   1.379   3.632  0.9534 -2.6207 -0.8512
  874MOL0     H17952   3.771   1.452   3.533  1.7855  3.6784  1.2520
  874MOL0     H17953   3.810   1.348   3.676  0.2378  0.3095 -0.6614
  874MOL0     H17954   3.286   1.710   3.663 -1.8004  0.4505 -0.3622
  874MOL0     H17955   3.045   1.678   3.626  0.2124  0.2004 -1.3452
  874MOL0     H17956   2.856   1.315   3.799  0.3145  0.7513 -1.8810
  874MOL0     H17957   2.866   1.469   3.881 -3.8134 -1.4185  2.4491
  874MOL0     H17958   2.696   1.569   3.751 -0.8784  0.5916  0.1141
  874MOL0     H17959   2.667   1.432   3.648  0.2022  1.3883 -0.1340
  874MOL0     H17960   2.600   1.442   3.941 -0.4101  0.9081 -0.0865
  874MOL0     H17961   2.617   1.289   3.851  3.0999  0.4814 -1.2376
  874MOL0     H17962   2.434   1.526   3.779  3.4236  0.7192  0.3154
  874MOL0     H17963   2.435   1.373   3.695 -1.5767  4.4083 -1.7889
  874MOL0     H17964   2.391   1.287   3.953 -0.9596 -0.3410  2.6275
  874MOL0     H17965   2.264   1.311   3.840  1.0805 -0.1616 -0.3160
  874MOL0     H17966   2.347   1.527   4.049 -2.2374  3.4318  0.3063
  874MOL0     H17967   2.231   1.550   3.931  0.1884 -0.2294 -0.7973
  874MOL0     H17968   2.154   1.479   4.187 -0.4242  2.7307 -1.7769
  874MOL0     H17969   2.208   1.312   4.139  2.6796  0.4943 -0.0618
  874MOL0     H17970   1.978   1.320   4.105  1.5196 -2.2759 -1.0324
  874MOL0     H17971   2.049   1.327   3.950 -1.8732 -1.6401  1.0073
  874MOL0     H17972   3.085   1.252   3.706 -0.0217  0.1453 -1.1335
  874MOL0     H17973   3.339   1.283   3.716 -1.1351 -1.0362  1.7518
  874MOL0     H17974   3.604   1.761   3.923  1.1755  1.4299  0.7120
  874MOL0     H17975   3.813   1.871   3.918  0.1423 -1.2710  1.9057
  874MOL0     H17976   5.919   1.856   3.704 -0.8678  0.1485  2.4845
  874MOL0     H17977   6.156   1.948   3.761  2.6300 -2.0989 -1.9603
  874MOL0     H17978   6.423   2.085   3.935 -1.1462 -1.6798  2.5618
  874MOL0     H17979   6.615   2.230   3.921  2.6886  0.4238  0.1741
  874MOL0     H17980   6.992   2.092   4.153  2.9251 -2.8362 -1.4714
  874MOL0     H17981   7.021   2.073   3.985 -1.8229  1.0265 -1.2938
  874MOL0     H17982   7.059   2.322   3.964  2.7720 -0.2265 -0.4287
  874MOL0     H17983   7.179   2.233   4.059  0.1288  1.2693  1.2120
  874MOL0     H17984   7.105   2.319   4.270  2.9263  0.4231 -1.7445
  874MOL0     H17985   6.944   2.355   4.196 -0.9021 -0.2120 -1.1391
  874MOL0     H17986   6.996   2.558   4.131 -0.5214 -1.0724 -1.1724
  874MOL0     H17987   7.168   2.525   4.096  1.3385  1.5562  2.0974
  874MOL0     H17988   7.194   2.671   4.483 -2.6073  3.4122 -1.1233
  874MOL0     H17989   6.842   1.923   4.142 -0.2426 -2.3533  0.4311
  874MOL0     H17990   6.679   1.764   4.098  0.7529 -0.0658  0.8478
  875MOL0     O17991   5.795   6.021   2.979  0.0080  0.5493 -0.1031
  875MOL0     C17992   5.764   5.994   3.097 -0.2204 -0.8364  0.7738
  875MOL0     O17993   5.843   5.946   3.204 -0.6768 -0.0148  0.3362
  875MOL0     C17994   5.968   5.911   3.176  0.0176 -0.6556  0.2790
  875MOL0     C17995   5.976   5.785   3.119 -0.3709  0.5087 -0.3236
  875MOL0     C17996   6.102   5.732   3.095 -0.5922 -0.3493  0.2676
  875MOL0     C17997   6.220   5.797   3.126 -0.5211 -0.9633 -0.7888
  875MOL0     O17998   6.343   5.749   3.083 -0.3533 -0.0655  0.2162
  875MOL0     C17999   6.430   5.717   3.197 -0.1775 -0.0481 -0.1562
  875MOL0     C18000   6.502   5.581   3.179 -0.4566  0.0903  0.9423
  875MOL0     C18001   6.640   5.605   3.122 -0.7459 -0.3746  1.0084
  875MOL0     C18002   6.706   5.481   3.061  0.0337 -0.4018  1.0637
  875MOL0     C18003   6.667   5.465   2.918 -0.4749 -0.4840 -0.0363
  875MOL0     C18004   6.727   5.333   2.863 -0.3064  0.1068 -0.0744
  875MOL0     C18005   6.622   5.228   2.866  0.3471  0.0860 -0.3236
  875MOL0     C18006   6.659   5.095   2.807  0.3854 -0.2855  0.2435
  875MOL0     N18007   6.553   4.994   2.852  0.0820  0.7220 -0.6372
  875MOL0     C18008   6.567   4.878   2.922 -0.7977 -0.6858  0.3007
  875MOL0     C18009   6.448   4.819   2.913  0.7102 -0.1262  0.2993
  875MOL0     C18010   6.430   4.687   2.977 -0.1969  1.3882 -0.1570
  875MOL0     C18011   6.291   4.624   2.956  0.2819  0.0673 -0.2193
  875MOL0     C18012   6.190   4.701   3.039  0.5985  1.2949  0.2036
  875MOL0     C18013   6.055   4.636   3.032 -0.0215  0.2941 -0.2425
  875MOL0     O18014   6.079   4.523   3.109 -0.3169 -0.5104 -0.3357
  875MOL0     C18015   5.975   4.438   3.137 -0.1782 -0.0967 -0.0686
  875MOL0     C18016   5.843   4.471   3.111  0.1264  0.6081  0.4268
  875MOL0     C18017   5.737   4.390   3.164  1.1037  0.5730  0.3944
  875MOL0     C18018   5.594   4.430   3.124  0.2129 -0.2936  0.0044
  875MOL0     C18019   5.775   4.279   3.243 -0.4235  0.6453 -0.3025
  875MOL0     C18020   5.681   4.198   3.324  0.4436 -0.1286 -0.4709
  875MOL0     O18021   5.718   4.070   3.340 -0.4373  0.3860  0.2066
  875MOL0     C18022   5.632   3.979   3.396  0.4792 -0.7115 -0.2716
  875MOL0     C18023   5.492   3.978   3.372  0.2468  0.5111  0.3036
  875MOL0     C18024   5.410   3.873   3.424 -0.1838  0.3546 -0.7615
  875MOL0     C18025   5.461   3.775   3.515 -0.2848  0.1864 -0.4211
  875MOL0     O18026   5.391   3.677   3.579  0.4964  0.0330  0.4703
  875MOL0     C18027   5.271   3.626   3.520  0.8185 -0.4598 -0.3125
  875MOL0     C18028   5.194   3.549   3.638 -0.5839 -0.7820 -0.3189
  875MOL0     C18029   5.043   3.553   3.623 -0.3274  0.3577 -0.5142
  875MOL0     C18030   4.976   3.435   3.699 -0.3992  0.3467  0.3255
  875MOL0     C18031   4.821   3.445   3.712 -0.2236 -0.2970  0.9208
  875MOL0     C18032   4.751   3.427   3.576  0.4603  0.9217  0.9633
  875MOL0     C18033   4.597   3.427   3.599 -0.3096 -0.1605 -0.3595
  875MOL0     C18034   4.516   3.428   3.471  0.3406  0.2394  0.7509
  875MOL0    Cl18035   4.557   3.573   3.384  0.3562  0.0182  0.6758
  875MOL0     C18036   5.603   3.785   3.533  0.0181  0.2517  0.5528
  875MOL0     C18037   5.682   3.885   3.480  0.6870 -0.6386  0.0709
  875MOL0     O18038   5.573   4.249   3.367 -0.2424  0.6901  0.1699
  875MOL0     C18039   5.915   4.242   3.255 -1.2232  0.0246  0.0432
  875MOL0     C18040   6.008   4.324   3.205 -0.8375 -0.7199  0.0074
  875MOL0     N18041   6.360   4.891   2.839 -0.0924 -0.3866 -0.1097
  875MOL0     N18042   6.420   5.006   2.813 -0.6435  0.7861 -0.4073
  875MOL0     C18043   6.204   5.924   3.181 -0.7569  0.1032 -0.5247
  875MOL0     C18044   6.084   5.985   3.204  0.6283  0.2466  0.7096
  875MOL0     C18045   5.624   5.999   3.146 -0.1571 -0.7139  0.2400
  875MOL0     C18046   5.582   5.990   3.280 -0.0539 -0.6247  0.2973
  875MOL0     C18047   5.451   6.008   3.321  0.3269  0.1901  0.5331
  875MOL0     C18048   5.350   6.025   3.223  0.1957 -0.8315 -0.7500
  875MOL0     O18049   5.227   6.055   3.280  0.3527 -0.2620 -0.1878
  875MOL0     C18050   5.116   6.070   3.194 -0.1615 -0.6372 -0.1981
  875MOL0     C18051   5.096   6.218   3.144  0.4032  0.1752 -0.1713
  875MOL0     C18052   5.041   6.313   3.253 -0.2415  0.4954  0.3917
  875MOL0     C18053   5.089   6.452   3.217  0.4275  0.4061  0.5495
  875MOL0     C18054   5.012   6.499   3.099  0.1638  0.3683 -0.5463
  875MOL0     C18055   4.951   6.552   3.005  0.5733  0.0646 -0.3513
  875MOL0     C18056   5.382   6.034   3.091 -0.1757  0.4568  0.1564
  875MOL0     C18057   5.518   6.036   3.055  0.9343 -0.1748  0.1471
  875MOL0     H18058   5.887   5.727   3.097  0.0763 -1.1083  1.7056
  875MOL0     H18059   6.102   5.633   3.050  0.2070 -0.6900  1.0120
  875MOL0     H18060   6.509   5.792   3.202 -0.6073  0.3135  1.6403
  875MOL0     H18061   6.384   5.731   3.295  0.3515  1.9608 -0.1658
  875MOL0     H18062   6.509   5.533   3.277 -1.9785  0.0684  1.0697
  875MOL0     H18063   6.442   5.515   3.116  0.6916 -0.7537  0.7059
  875MOL0     H18064   6.640   5.684   3.045 -2.5747 -0.2596  1.0846
  875MOL0     H18065   6.711   5.635   3.199  2.4996 -0.9337 -1.5478
  875MOL0     H18066   6.815   5.484   3.063  0.0196 -0.4264  2.6351
  875MOL0     H18067   6.679   5.397   3.126 -0.8623 -0.7950  0.2215
  875MOL0     H18068   6.558   5.461   2.910 -0.4393 -2.8069 -0.1127
  875MOL0     H18069   6.700   5.550   2.858 -2.5096 -0.1864 -0.8070
  875MOL0     H18070   6.759   5.347   2.759 -1.9768  1.4521 -0.4634
  875MOL0     H18071   6.813   5.311   2.926  0.6694 -0.8222 -1.6697
  875MOL0     H18072   6.588   5.208   2.968 -0.2711  1.1712 -0.2991
  875MOL0     H18073   6.539   5.272   2.810  0.2928  4.1087  2.4956
  875MOL0     H18074   6.755   5.063   2.848  0.4851 -0.8782 -0.4329
  875MOL0     H18075   6.672   5.104   2.699  1.6370 -0.0259  0.4005
  875MOL0     H18076   6.662   4.846   2.965  0.2111  1.6098 -0.0574
  875MOL0     H18077   6.494   4.611   2.932 -0.2697  0.9721  0.4319
  875MOL0     H18078   6.469   4.692   3.079  2.8160 -0.1708 -1.1170
  875MOL0     H18079   6.295   4.523   2.997 -1.0189  1.1466  2.9235
  875MOL0     H18080   6.266   4.622   2.849  4.0957  1.5838 -1.2905
  875MOL0     H18081   6.180   4.804   3.002  1.8144  0.9452 -1.1870
  875MOL0     H18082   6.218   4.700   3.145  0.0228  1.9510  0.3743
  875MOL0     H18083   6.023   4.607   2.932 -1.0447 -0.9542  0.4206
  875MOL0     H18084   5.976   4.694   3.082 -1.5211 -1.3914 -0.5206
  875MOL0     H18085   5.810   4.566   3.071 -1.0450  0.1001  0.1409
  875MOL0     H18086   5.559   4.518   3.179  2.0510 -1.1894  2.8273
  875MOL0     H18087   5.587   4.454   3.017 -4.2996  4.6430  1.0136
  875MOL0     H18088   5.521   4.349   3.140 -1.3533  0.2584 -3.3755
  875MOL0     H18089   5.441   4.067   3.334 -3.3282 -1.4690  0.0023
  875MOL0     H18090   5.302   3.879   3.413 -0.4561 -3.5467 -1.7307
  875MOL0     H18091   5.208   3.708   3.486 -0.1945 -2.0540 -2.5283
  875MOL0     H18092   5.273   3.567   3.428 -3.3597  0.1783 -1.0231
  875MOL0     H18093   5.220   3.442   3.642  1.4461 -0.3966 -1.7212
  875MOL0     H18094   5.229   3.582   3.736 -0.2788 -0.5562 -0.5020
  875MOL0     H18095   5.021   3.550   3.516  1.3525 -1.5985 -0.8886
  875MOL0     H18096   4.996   3.639   3.671  0.6322  1.4627 -1.5013
  875MOL0     H18097   4.990   3.335   3.657 -0.4381  0.8259 -0.8936
  875MOL0     H18098   5.025   3.429   3.796  3.4155  2.9481 -1.2055
  875MOL0     H18099   4.798   3.547   3.744  1.8355  1.2490 -2.0529
  875MOL0     H18100   4.780   3.374   3.785  0.8857  1.1379  3.0602
  875MOL0     H18101   4.770   3.503   3.499  1.2342 -1.1577 -1.0395
  875MOL0     H18102   4.769   3.324   3.543 -3.3518 -0.6763  3.2126
  875MOL0     H18103   4.576   3.519   3.655  4.5312 -0.5375  2.7427
  875MOL0     H18104   4.573   3.340   3.660  1.9268 -0.9950 -0.5573
  875MOL0     H18105   4.409   3.434   3.495  0.1666 -0.1236  0.0734
  875MOL0     H18106   4.538   3.345   3.404 -0.0699  0.2011  0.6615
  875MOL0     H18107   5.658   3.714   3.594  1.0165  1.8948  1.6470
  875MOL0     H18108   5.786   3.884   3.513  0.9983 -0.0557 -0.8420
  875MOL0     H18109   5.951   4.154   3.307  3.1615  0.4827 -1.7363
  875MOL0     H18110   6.112   4.296   3.218 -0.5484 -0.5293 -1.6994
  875MOL0     H18111   6.301   5.966   3.207 -0.6921 -0.0913 -0.4491
  875MOL0     H18112   6.078   6.088   3.238 -0.4753  0.1719  0.7789
  875MOL0     H18113   5.667   5.983   3.348  3.1551 -0.0062 -3.3019
  875MOL0     H18114   5.431   6.001   3.428 -0.9381  1.4684  0.4003
  875MOL0     H18115   5.130   6.009   3.104  2.0706  1.1772 -1.1706
  875MOL0     H18116   5.022   6.031   3.235 -0.1695  1.3283  1.8149
  875MOL0     H18117   5.029   6.221   3.057  0.4631  0.1470 -0.2182
  875MOL0     H18118   5.195   6.254   3.115 -0.7667  1.8707 -2.3353
  875MOL0     H18119   5.097   6.277   3.339 -0.2047 -0.2677  0.0559
  875MOL0     H18120   4.932   6.307   3.265 -0.8656  1.3257 -3.4173
  875MOL0     H18121   5.197   6.464   3.209  0.3956  0.9314  0.8601
  875MOL0     H18122   5.055   6.513   3.301 -0.1812 -0.7857  1.1978
  875MOL0     H18123   4.903   6.617   2.934 -2.2156 -0.1141  1.2113
  875MOL0     H18124   5.300   6.067   3.027 -0.1446 -0.3923 -0.3283
  875MOL0     H18125   5.532   6.069   2.952 -2.4832 -2.3466 -1.2148
  876MOL0     O18126   6.731   7.577   9.386 -0.4363  0.1205  0.3383
  876MOL0     C18127   6.778   7.681   9.342  0.9097 -0.1246 -0.3920
  876MOL0     O18128   6.703   7.786   9.291 -0.3725  0.3711  0.1048
  876MOL0     C18129   6.572   7.793   9.326  0.4986  0.2493  0.0971
  876MOL0     C18130   6.516   7.771   9.460  0.0522 -0.1462  0.0794
  876MOL0     C18131   6.378   7.766   9.473 -0.6648  0.5842 -0.1729
  876MOL0     C18132   6.300   7.810   9.359 -0.5021 -0.1130  0.7818
  876MOL0     O18133   6.168   7.813   9.347  0.1947  0.0790 -1.3308
  876MOL0     C18134   6.081   7.739   9.432 -1.1681  0.6706 -0.4149
  876MOL0     C18135   5.958   7.821   9.477 -0.4360  1.0233  1.0405
  876MOL0     C18136   5.841   7.741   9.538  0.6040  0.3670 -0.7253
  876MOL0     C18137   5.726   7.834   9.563  0.7019  0.0509  0.0763
  876MOL0     C18138   5.634   7.782   9.670 -0.1468  0.3195 -0.6385
  876MOL0     C18139   5.505   7.861   9.659 -0.0094  0.0107  0.3685
  876MOL0     C18140   5.398   7.819   9.758  0.2646 -0.7783 -0.1727
  876MOL0     C18141   5.267   7.854   9.701  0.3310  0.1467 -0.3959
  876MOL0     N18142   5.226   7.761   9.592  0.7769  0.9025  0.3468
  876MOL0     C18143   5.228   7.780   9.456 -0.2767 -0.4713  0.4218
  876MOL0     C18144   5.163   7.668   9.411 -0.3923  0.7107  0.4001
  876MOL0     C18145   5.124   7.644   9.273 -0.9367 -0.5070 -0.9092
  876MOL0     C18146   5.238   7.586   9.191 -0.1556  0.0868 -0.7900
  876MOL0     C18147   5.187   7.508   9.064 -0.5202 -0.5477 -0.6456
  876MOL0     C18148   5.294   7.452   8.981 -0.0884  0.4846  0.0873
  876MOL0     O18149   5.251   7.458   8.840  0.1560 -0.3501  0.7025
  876MOL0     C18150   5.344   7.423   8.741  0.0989  0.3795  0.7496
  876MOL0     C18151   5.464   7.359   8.765  0.5548  0.5486  0.0807
  876MOL0     C18152   5.550   7.305   8.670  0.4349 -0.1026 -0.8740
  876MOL0     C18153   5.685   7.245   8.726  0.1162  0.0316  0.1521
  876MOL0     C18154   5.516   7.318   8.539  0.4200 -1.0556  0.1929
  876MOL0     C18155   5.600   7.278   8.426 -0.6510  0.5233  0.6115
  876MOL0     O18156   5.587   7.359   8.320  0.0200 -0.7014  1.2444
  876MOL0     C18157   5.653   7.354   8.204  0.4358  0.4258  0.2280
  876MOL0     C18158   5.781   7.299   8.178  0.2830  0.2493  0.5165
  876MOL0     C18159   5.834   7.307   8.047  0.2230  0.3026  0.2557
  876MOL0     C18160   5.771   7.371   7.940  0.2612  0.3737 -0.1734
  876MOL0     O18161   5.830   7.377   7.814  0.0938  0.0747  0.4174
  876MOL0     C18162   5.743   7.344   7.705  0.1187  0.1131 -0.7724
  876MOL0     C18163   5.832   7.261   7.610 -0.7799  0.1885  0.0007
  876MOL0     C18164   5.738   7.180   7.519 -0.2033  1.1701  0.4383
  876MOL0     C18165   5.681   7.268   7.396 -0.5582  0.4598  0.5824
  876MOL0     C18166   5.592   7.188   7.298  0.3443 -0.6265  0.5111
  876MOL0     C18167   5.659   7.079   7.223 -0.9450 -0.8506  1.5759
  876MOL0     C18168   5.580   7.018   7.102  0.1387 -0.2286 -0.0575
  876MOL0     C18169   5.556   7.109   6.979  0.1806 -0.0690  0.4598
  876MOL0    Cl18170   5.714   7.151   6.911 -0.2194 -0.1583  1.0410
  876MOL0     C18171   5.635   7.406   7.962  0.1505  0.3703 -0.3103
  876MOL0     C18172   5.580   7.395   8.088  1.1578  0.1185 -0.2468
  876MOL0     O18173   5.682   7.182   8.437  0.0918  0.4096 -0.1464
  876MOL0     C18174   5.397   7.392   8.510 -0.7706 -0.0278  0.0528
  876MOL0     C18175   5.309   7.440   8.604 -0.0743  0.4726  0.3870
  876MOL0     N18176   5.128   7.588   9.516 -0.5575  1.4337 -0.2003
  876MOL0     N18177   5.176   7.643   9.625 -0.0253  0.3608  0.5343
  876MOL0     C18178   6.356   7.855   9.249 -0.1472 -0.4566 -0.4057
  876MOL0     C18179   6.491   7.843   9.226 -0.0780  0.3568 -0.1643
  876MOL0     C18180   6.927   7.695   9.348 -0.3075 -0.7496 -0.2140
  876MOL0     C18181   6.985   7.817   9.330  0.5550 -0.1415  0.7512
  876MOL0     C18182   7.124   7.833   9.348  0.4251 -0.7671 -0.6171
  876MOL0     C18183   7.208   7.725   9.397  0.4409 -0.4803  0.7900
  876MOL0     O18184   7.341   7.740   9.395  0.3208 -0.5558  0.0708
  876MOL0     C18185   7.433   7.634   9.440  0.7972  0.1382  0.1473
  876MOL0     C18186   7.583   7.677   9.421 -0.0519 -0.6425  0.1067
  876MOL0     C18187   7.649   7.625   9.296  0.3128 -0.2918 -0.0651
  876MOL0     C18188   7.782   7.698   9.254  0.7478 -0.1243  0.4757
  876MOL0     C18189   7.803   7.688   9.105  1.2276  0.0831 -0.2151
  876MOL0     C18190   7.808   7.658   8.987 -0.2987 -0.2638  0.5151
  876MOL0     C18191   7.145   7.604   9.411 -0.1311 -0.1213  0.2573
  876MOL0     C18192   7.010   7.588   9.389  0.5348 -0.0539 -0.1849
  876MOL0     H18193   6.583   7.739   9.539  0.1424 -0.5464 -0.1598
  876MOL0     H18194   6.331   7.735   9.566 -1.3418 -0.6373 -0.9005
  876MOL0     H18195   6.047   7.653   9.374  2.3175  0.4040 -2.3289
  876MOL0     H18196   6.131   7.714   9.527  1.9939  2.9842 -1.2889
  876MOL0     H18197   5.993   7.898   9.546  0.2399  2.5106 -0.8503
  876MOL0     H18198   5.922   7.871   9.386  0.8606  2.1134  1.0961
  876MOL0     H18199   5.812   7.670   9.460  0.9719 -0.7243  0.0917
  876MOL0     H18200   5.867   7.688   9.630 -0.1385 -0.2898 -0.8806
  876MOL0     H18201   5.755   7.938   9.577 -2.9887  1.2457 -0.0518
  876MOL0     H18202   5.664   7.836   9.473  0.3349  1.0026  0.3389
  876MOL0     H18203   5.617   7.675   9.659  1.6103 -0.2761  1.4932
  876MOL0     H18204   5.692   7.806   9.760  0.6781 -1.7237 -0.5849
  876MOL0     H18205   5.513   7.970   9.666  0.5393  0.0445 -0.5672
  876MOL0     H18206   5.466   7.843   9.559  4.3254 -2.1940 -1.1851
  876MOL0     H18207   5.404   7.711   9.776  2.0498 -0.3468  2.3856
  876MOL0     H18208   5.409   7.869   9.855 -0.6251  0.5613 -0.7406
  876MOL0     H18209   5.274   7.956   9.663 -0.4251  0.4288  0.1738
  876MOL0     H18210   5.189   7.866   9.778  0.8705  2.1196 -0.0970
  876MOL0     H18211   5.265   7.870   9.408  0.0893  0.2283  1.9789
  876MOL0     H18212   5.043   7.571   9.280 -1.0964 -0.1993  4.2236
  876MOL0     H18213   5.079   7.732   9.227 -0.4693  0.3470  0.2148
  876MOL0     H18214   5.300   7.525   9.257  1.4328  1.9065 -0.4919
  876MOL0     H18215   5.307   7.663   9.155  0.0554 -0.0196 -0.6210
  876MOL0     H18216   5.125   7.576   9.004 -0.8127 -1.5954 -1.5719
  876MOL0     H18217   5.116   7.429   9.091 -1.0294  0.6822  1.8759
  876MOL0     H18218   5.320   7.353   9.019  0.0261  0.1502 -0.8292
  876MOL0     H18219   5.377   7.524   8.981 -1.6936  2.4334 -0.6022
  876MOL0     H18220   5.488   7.342   8.869 -4.9756  2.0559  1.9877
  876MOL0     H18221   5.762   7.304   8.675 -2.5935  1.6423 -2.3948
  876MOL0     H18222   5.698   7.262   8.833  1.1790  0.7090 -0.0577
  876MOL0     H18223   5.699   7.137   8.715 -1.3512 -0.5943  3.4234
  876MOL0     H18224   5.844   7.262   8.258 -1.2881 -0.5621  1.4374
  876MOL0     H18225   5.938   7.276   8.038  0.0980 -0.3492  0.9988
  876MOL0     H18226   5.669   7.273   7.744  1.2151  0.1632  1.5470
  876MOL0     H18227   5.694   7.432   7.662 -1.7067 -0.9505 -0.9706
  876MOL0     H18228   5.913   7.326   7.575 -0.9142  0.5488  0.3581
  876MOL0     H18229   5.878   7.182   7.670  0.9980  1.0523 -0.1508
  876MOL0     H18230   5.664   7.122   7.574  3.1304 -2.4994  1.5127
  876MOL0     H18231   5.800   7.105   7.469  1.3237  3.7171 -1.7986
  876MOL0     H18232   5.619   7.346   7.440 -1.7205 -0.9946  1.6173
  876MOL0     H18233   5.762   7.320   7.342 -0.9963 -0.2781 -0.8426
  876MOL0     H18234   5.542   7.255   7.227 -1.8629 -0.5337  2.0769
  876MOL0     H18235   5.521   7.145   7.368  3.4651  1.8689  5.8830
  876MOL0     H18236   5.758   7.110   7.189 -2.1895  2.7704  0.8666
  876MOL0     H18237   5.684   6.997   7.292  0.7524 -0.1091  1.8996
  876MOL0     H18238   5.490   6.975   7.147 -0.1651  2.1781  1.8555
  876MOL0     H18239   5.649   6.944   7.059 -1.0513 -0.1774 -2.1769
  876MOL0     H18240   5.511   7.208   6.993  1.1788  0.6104 -0.8679
  876MOL0     H18241   5.496   7.048   6.910 -2.1986  0.0592  2.2930
  876MOL0     H18242   5.584   7.458   7.881  0.7119 -0.0585 -0.9618
  876MOL0     H18243   5.485   7.445   8.105  1.2381 -0.2468  1.4449
  876MOL0     H18244   5.370   7.415   8.408 -1.5590 -1.3161 -0.0529
  876MOL0     H18245   5.215   7.484   8.575  0.1993  0.9562  0.2342
  876MOL0     H18246   6.293   7.890   9.168  0.1708  1.2895  0.0608
  876MOL0     H18247   6.533   7.889   9.137  3.8680  0.8631  1.7458
  876MOL0     H18248   6.925   7.901   9.296 -0.9882 -1.3023  0.4658
  876MOL0     H18249   7.164   7.929   9.318  0.4280 -0.9891 -1.3371
  876MOL0     H18250   7.414   7.629   9.548  3.6145  1.3264  0.7981
  876MOL0     H18251   7.401   7.541   9.393 -0.1633  0.9656 -0.8683
  876MOL0     H18252   7.632   7.637   9.510  0.8738  2.3299  1.0690
  876MOL0     H18253   7.599   7.786   9.418  3.4198 -1.0090  0.8651
  876MOL0     H18254   7.574   7.638   9.218  0.6093  0.6312 -0.2205
  876MOL0     H18255   7.682   7.522   9.308  0.7316  0.0114  1.6919
  876MOL0     H18256   7.865   7.646   9.302 -0.4841 -1.5985  1.1102
  876MOL0     H18257   7.778   7.802   9.288  2.1868  0.1056 -0.0079
  876MOL0     H18258   7.817   7.625   8.885 -1.1533  3.4966 -0.9693
  876MOL0     H18259   7.198   7.514   9.440  0.0232  0.1267  0.7645
  876MOL0     H18260   6.976   7.488   9.413  4.8345 -2.1550 -1.7625
  877MOL0     O18261   7.181   0.345   2.600  0.0159  0.1174  0.3190
  877MOL0     C18262   7.246   0.415   2.522  0.0522  0.0481 -0.1696
  877MOL0     O18263   7.199   0.503   2.428  1.0281  0.1899 -0.2790
  877MOL0     C18264   7.059   0.537   2.436  0.5912  0.0111  0.1762
  877MOL0     C18265   6.987   0.564   2.562  0.4300 -0.0919  0.3910
  877MOL0     C18266   6.852   0.593   2.557  0.4422 -0.0078  0.0575
  877MOL0     C18267   6.783   0.603   2.433  0.6447 -0.2183  1.1270
  877MOL0     O18268   6.652   0.644   2.421  0.3920  0.1361  0.0370
  877MOL0     C18269   6.581   0.689   2.542 -0.4754  0.0900 -0.2401
  877MOL0     C18270   6.439   0.741   2.512  0.8558 -0.4635  0.1285
  877MOL0     C18271   6.343   0.615   2.489 -0.2363 -0.5720  0.3201
  877MOL0     C18272   6.204   0.664   2.477 -0.2355 -0.5023  0.4338
  877MOL0     C18273   6.093   0.568   2.416  0.8590 -0.1515 -0.3086
  877MOL0     C18274   6.068   0.448   2.511 -0.9928 -0.6658  0.0074
  877MOL0     C18275   5.962   0.353   2.477 -0.4986  1.3185  0.1907
  877MOL0     C18276   5.828   0.407   2.504  0.3665 -0.9808 -0.7780
  877MOL0     N18277   5.720   0.306   2.495 -0.1973 -0.4582 -0.3029
  877MOL0     C18278   5.678   0.253   2.383 -0.1028 -0.2406 -0.2516
  877MOL0     C18279   5.585   0.164   2.430 -0.3868 -0.1471  0.5355
  877MOL0     C18280   5.500   0.081   2.341  0.6272 -0.5722 -0.3309
  877MOL0     C18281   5.358   0.079   2.406 -0.2615  0.9382  0.0735
  877MOL0     C18282   5.245   0.073   2.300  0.0668  0.4728  0.2419
  877MOL0     C18283   5.245  -0.039   2.189  0.0794  0.0188 -0.2005
  877MOL0     O18284   5.219  -0.165   2.248  0.6074  0.6277 -0.7268
  877MOL0     C18285   5.086  -0.194   2.279 -0.0392 -0.1283 -0.4311
  877MOL0     C18286   5.064  -0.322   2.331  0.2380 -0.0787  0.1273
  877MOL0     C18287   4.934  -0.375   2.345 -1.2180 -0.4518  0.3134
  877MOL0     C18288   4.927  -0.515   2.382  0.0637  0.0280 -0.0445
  877MOL0     C18289   4.821  -0.290   2.319  0.1115 -0.6810  0.3434
  877MOL0     C18290   4.672  -0.327   2.346 -0.3040  1.0750  0.7428
  877MOL0     O18291   4.577  -0.226   2.317  0.7057  0.1627  0.3749
  877MOL0     C18292   4.438  -0.241   2.339 -0.0041 -0.2961 -0.8654
  877MOL0     C18293   4.364  -0.122   2.321  0.1228  0.4244 -0.6603
  877MOL0     C18294   4.228  -0.114   2.324 -0.3159 -0.0591 -0.1486
  877MOL0     C18295   4.157  -0.233   2.342 -0.3009  0.0097  0.0085
  877MOL0     O18296   4.025  -0.235   2.356  0.1464  0.1482 -0.1026
  877MOL0     C18297   3.963  -0.106   2.385  0.2463  0.3039 -0.9116
  877MOL0     C18298   3.815  -0.130   2.416  0.6546  0.2849  0.1992
  877MOL0     C18299   3.741  -0.176   2.291  0.6355  0.3163  0.1898
  877MOL0     C18300   3.611  -0.251   2.332  0.6813 -0.9705 -0.4962
  877MOL0     C18301   3.521  -0.156   2.418 -0.7624 -0.6980  0.2100
  877MOL0     C18302   3.393  -0.220   2.448  0.5114  0.2493  0.1938
  877MOL0     C18303   3.292  -0.115   2.477 -0.2507 -0.7576 -0.7561
  877MOL0     C18304   3.291  -0.054   2.624 -0.1279  0.5342  0.1105
  877MOL0    Cl18305   3.251  -0.169   2.746  0.0853 -0.4227 -0.1886
  877MOL0     C18306   4.226  -0.354   2.349 -0.9065 -0.3607 -0.0212
  877MOL0     C18307   4.364  -0.369   2.352 -0.0603 -0.2267 -0.3860
  877MOL0     O18308   4.650  -0.439   2.386  0.5760 -0.0003 -0.3329
  877MOL0     C18309   4.853  -0.153   2.284  0.2856  0.3445  0.1521
  877MOL0     C18310   4.979  -0.099   2.257 -0.8109 -0.0660 -0.1703
  877MOL0     N18311   5.581   0.162   2.564 -0.4999 -0.0190 -0.3689
  877MOL0     N18312   5.663   0.249   2.604  0.0512  0.7571  0.3123
  877MOL0     C18313   6.854   0.565   2.317  0.1629 -0.3020  0.5715
  877MOL0     C18314   6.986   0.541   2.320 -0.5763 -0.1565 -1.2262
  877MOL0     C18315   7.396   0.405   2.539 -0.4286 -0.9246  0.6221
  877MOL0     C18316   7.479   0.473   2.440  0.1625  0.4786 -0.2283
  877MOL0     C18317   7.620   0.486   2.459  0.4548 -0.1905 -0.2529
  877MOL0     C18318   7.681   0.433   2.566  0.5636  0.8058  0.2441
  877MOL0     O18319   7.824   0.456   2.591  0.2590 -0.3184 -0.0187
  877MOL0     C18320   7.885   0.369   2.682  0.6342  0.0166 -0.9230
  877MOL0     C18321   8.035   0.347   2.645 -0.6968  0.1338  0.3078
  877MOL0     C18322   8.094   0.457   2.564  0.3909 -0.6333 -0.4071
  877MOL0     C18323   8.240   0.450   2.582  0.2232  0.4443 -0.2859
  877MOL0     C18324   8.288   0.500   2.709 -0.1761  0.6416  0.4914
  877MOL0     C18325   8.338   0.523   2.816 -0.3418 -0.2812 -0.0884
  877MOL0     C18326   7.606   0.349   2.647 -0.6511 -0.0900  0.3254
  877MOL0     C18327   7.467   0.346   2.640  0.1214  0.2561  0.3439
  877MOL0     H18328   7.047   0.558   2.652  1.0796 -1.4092 -0.1038
  877MOL0     H18329   6.813   0.614   2.656 -0.0687 -1.4558  0.1770
  877MOL0     H18330   6.578   0.606   2.613 -0.5330  0.1602 -0.1615
  877MOL0     H18331   6.647   0.765   2.584 -0.3672 -0.0321 -0.1901
  877MOL0     H18332   6.397   0.794   2.598 -0.5252 -3.3074  1.3533
  877MOL0     H18333   6.454   0.810   2.429  2.6861 -0.6067  0.3089
  877MOL0     H18334   6.372   0.552   2.404 -1.9973  0.4558 -1.1161
  877MOL0     H18335   6.348   0.547   2.575 -2.9544  2.5272  3.1819
  877MOL0     H18336   6.179   0.700   2.578  0.7195 -1.3264  0.9795
  877MOL0     H18337   6.208   0.752   2.412  1.9053  0.3368  1.6107
  877MOL0     H18338   5.998   0.620   2.405 -0.9020 -3.4106 -1.9814
  877MOL0     H18339   6.129   0.532   2.319  1.1620 -0.5765 -0.0421
  877MOL0     H18340   6.165   0.398   2.519 -2.0070 -2.8461 -0.4237
  877MOL0     H18341   6.033   0.496   2.602  0.0609  2.0649 -0.9202
  877MOL0     H18342   5.962   0.333   2.370 -2.0690 -1.3805  0.5898
  877MOL0     H18343   5.967   0.261   2.537  1.2134  2.4312  1.8601
  877MOL0     H18344   5.800   0.491   2.439  2.5769  0.0668 -0.4584
  877MOL0     H18345   5.835   0.454   2.602  0.3919 -1.6699 -0.4473
  877MOL0     H18346   5.704   0.264   2.278 -0.7629 -4.1121 -0.9829
  877MOL0     H18347   5.501   0.120   2.239 -0.5544  1.3666  0.3500
  877MOL0     H18348   5.549  -0.017   2.344  0.4626 -0.6374  0.6765
  877MOL0     H18349   5.340   0.176   2.453 -2.5450  2.5595 -3.6801
  877MOL0     H18350   5.350  -0.002   2.480 -0.5085  0.4938 -0.4305
  877MOL0     H18351   5.249   0.165   2.242  1.9234 -0.8445 -1.9418
  877MOL0     H18352   5.154   0.082   2.359  0.4183  2.3179  0.5348
  877MOL0     H18353   5.344  -0.042   2.143 -0.0074  2.6159 -0.7265
  877MOL0     H18354   5.178  -0.010   2.108 -1.2405 -0.5776  0.6432
  877MOL0     H18355   5.151  -0.385   2.346  1.2581  0.1402 -3.6563
  877MOL0     H18356   5.017  -0.563   2.421 -0.2743 -2.1475 -1.7130
  877MOL0     H18357   4.857  -0.537   2.463  1.2748  2.7651  1.8824
  877MOL0     H18358   4.900  -0.577   2.295 -5.3369 -0.2841  1.4902
  877MOL0     H18359   4.411  -0.027   2.297  0.2939  0.4530 -0.2291
  877MOL0     H18360   4.181  -0.016   2.317 -0.7618 -0.1029  1.7495
  877MOL0     H18361   4.003  -0.070   2.480 -0.3677  4.2089 -1.9669
  877MOL0     H18362   3.975  -0.031   2.306  2.1554  0.2612 -0.7193
  877MOL0     H18363   3.804  -0.200   2.500 -3.1292  2.4438  1.7698
  877MOL0     H18364   3.767  -0.040   2.455  0.0583  1.1594 -2.3799
  877MOL0     H18365   3.804  -0.242   2.230 -0.4552  0.4080 -1.0748
  877MOL0     H18366   3.711  -0.094   2.224 -1.2565  1.8843  2.7749
  877MOL0     H18367   3.550  -0.299   2.256 -2.6566  2.8467 -0.5531
  877MOL0     H18368   3.634  -0.328   2.406  2.0736  0.5979  0.8204
  877MOL0     H18369   3.505  -0.067   2.357 -0.5351  1.0695  2.5977
  877MOL0     H18370   3.565  -0.139   2.516  1.7119  3.0211 -1.3044
  877MOL0     H18371   3.369  -0.269   2.354  2.6179  2.0891 -1.4204
  877MOL0     H18372   3.401  -0.298   2.524 -0.0407  0.0122  0.0132
  877MOL0     H18373   3.192  -0.161   2.471  0.7564 -3.0281 -1.3828
  877MOL0     H18374   3.299  -0.031   2.407  1.5863  1.2038  1.6094
  877MOL0     H18375   3.218   0.028   2.624 -1.0568 -0.2700  0.6217
  877MOL0     H18376   3.382   0.001   2.649 -0.8787  1.7477  0.2911
  877MOL0     H18377   4.155  -0.436   2.363 -1.4243 -0.0833 -0.8995
  877MOL0     H18378   4.401  -0.466   2.384 -1.8940 -0.6033  0.7217
  877MOL0     H18379   4.772  -0.082   2.269 -0.0718 -0.2943 -1.0886
  877MOL0     H18380   4.988   0.003   2.222  0.0506 -0.8702 -2.5063
  877MOL0     H18381   6.799   0.560   2.224  1.5031 -3.5635 -0.1690
  877MOL0     H18382   7.040   0.516   2.229 -1.6427 -3.5060 -1.0758
  877MOL0     H18383   7.422   0.513   2.358 -1.2572  3.1720  1.9259
  877MOL0     H18384   7.683   0.545   2.394  2.2976  1.9993  3.2113
  877MOL0     H18385   7.864   0.406   2.783 -2.5036 -0.7403 -1.1844
  877MOL0     H18386   7.837   0.271   2.674 -1.4966  0.9099  0.2154
  877MOL0     H18387   8.041   0.260   2.579 -0.8532  1.0150 -0.9077
  877MOL0     H18388   8.093   0.321   2.734  0.1723 -0.1956 -0.3476
  877MOL0     H18389   8.050   0.554   2.588  1.0562 -0.8174  1.7928
  877MOL0     H18390   8.072   0.440   2.458  0.5011 -1.9451 -0.2372
  877MOL0     H18391   8.273   0.531   2.515 -2.0933  0.8388 -1.0286
  877MOL0     H18392   8.292   0.355   2.564 -0.1326 -0.0033  0.9461
  877MOL0     H18393   8.382   0.535   2.913 -0.4047 -3.3155  0.3862
  877MOL0     H18394   7.656   0.303   2.732 -2.3940 -1.7895  0.5217
  877MOL0     H18395   7.428   0.268   2.705 -1.3477  0.7433  0.0829
  878MOL0     O18396  11.142   2.744   3.327 -0.5206 -0.3305  0.3929
  878MOL0     C18397  11.249   2.733   3.395 -0.1975  0.3933 -0.1454
  878MOL0     O18398  11.255   2.658   3.501 -1.0326  0.4407  0.9331
  878MOL0     C18399  11.163   2.563   3.525 -0.0003 -0.3701  0.0815
  878MOL0     C18400  11.168   2.451   3.441  0.1596 -0.2550 -0.1127
  878MOL0     C18401  11.085   2.339   3.467  0.1353 -0.1988 -0.2740
  878MOL0     C18402  11.012   2.333   3.589  0.9360  0.5684  0.2341
  878MOL0     O18403  10.938   2.222   3.624  0.3309 -0.0216 -0.3352
  878MOL0     C18404  10.914   2.139   3.514  1.3437 -0.1934 -0.5791
  878MOL0     C18405  10.801   2.045   3.546 -1.0000 -0.4259  0.2116
  878MOL0     C18406  10.669   2.096   3.597  0.0813 -0.4713 -0.3250
  878MOL0     C18407  10.569   1.979   3.580  0.1839 -0.5800  0.3310
  878MOL0     C18408  10.438   1.985   3.656  0.1293 -0.5697  0.4117
  878MOL0     C18409  10.359   1.853   3.639  0.1893 -0.1662  0.2800
  878MOL0     C18410  10.240   1.858   3.729 -0.2906 -0.6192  0.0504
  878MOL0     C18411  10.177   1.724   3.726 -0.5207  1.2601  0.4903
  878MOL0     N18412  10.065   1.712   3.818 -0.2624  0.9507  0.4325
  878MOL0     C18413   9.955   1.632   3.798 -0.8851  0.2059  0.1682
  878MOL0     C18414   9.875   1.657   3.910 -0.2228  0.2658 -0.2298
  878MOL0     C18415   9.738   1.618   3.940 -0.3516 -0.2673  0.2255
  878MOL0     C18416   9.716   1.472   3.948 -0.6472  0.7215 -0.4012
  878MOL0     C18417   9.793   1.408   4.059  0.1508 -0.5822 -0.7426
  878MOL0     C18418   9.795   1.256   4.036 -0.7176  0.0347  0.5772
  878MOL0     O18419   9.687   1.190   3.972  0.5713 -1.1164  0.2626
  878MOL0     C18420   9.567   1.176   4.039  0.1230 -0.0360 -0.7309
  878MOL0     C18421   9.529   1.243   4.163 -0.2998  0.5797 -0.1034
  878MOL0     C18422   9.391   1.256   4.197 -0.3924  0.5765 -0.0846
  878MOL0     C18423   9.352   1.338   4.316  0.2757 -0.1256 -0.4296
  878MOL0     C18424   9.281   1.213   4.115 -0.0529 -0.6335 -0.5724
  878MOL0     C18425   9.134   1.218   4.142  0.9964 -0.2487  0.1718
  878MOL0     O18426   9.058   1.101   4.130  0.2625 -0.5920 -0.1601
  878MOL0     C18427   8.918   1.105   4.137  0.2688 -0.2365  0.5743
  878MOL0     C18428   8.849   1.190   4.227  0.1258 -0.4626 -0.1395
  878MOL0     C18429   8.707   1.198   4.224 -0.8146  0.0730  0.7730
  878MOL0     C18430   8.636   1.111   4.144  0.6667  1.1277  0.9658
  878MOL0     O18431   8.494   1.118   4.146  0.0274 -0.2225 -0.4415
  878MOL0     C18432   8.429   0.999   4.179 -0.2632 -0.5197 -0.3225
  878MOL0     C18433   8.277   1.020   4.158 -0.0788  0.4098  0.2628
  878MOL0     C18434   8.241   1.041   4.018  0.0872 -0.2656  0.2354
  878MOL0     C18435   8.090   1.018   3.982  0.9589  0.3473  0.6897
  878MOL0     C18436   8.037   1.092   3.862 -0.1054  0.2885  0.3122
  878MOL0     C18437   7.886   1.080   3.870  0.1276  1.1953  0.7388
  878MOL0     C18438   7.817   1.140   3.749  0.5760  0.5574 -0.4150
  878MOL0     C18439   7.669   1.109   3.759  0.1581 -0.6600  0.5609
  878MOL0    Cl18440   7.650   0.940   3.718  0.5517 -0.1852  0.4098
  878MOL0     C18441   8.701   1.019   4.059 -0.3891 -0.8031  0.5986
  878MOL0     C18442   8.846   1.015   4.055  0.4696  0.4517 -0.2648
  878MOL0     O18443   9.093   1.334   4.159 -0.0670  0.9571 -0.4190
  878MOL0     C18444   9.325   1.145   3.994  0.8188  0.4426  0.3654
  878MOL0     C18445   9.464   1.122   3.961  0.8555  0.0401 -0.0549
  878MOL0     N18446   9.956   1.729   4.002  0.0309 -0.4602  0.0288
  878MOL0     N18447  10.069   1.766   3.942 -0.0005 -0.3603 -0.2948
  878MOL0     C18448  11.005   2.444   3.671 -0.5604  0.0023 -0.0999
  878MOL0     C18449  11.078   2.559   3.637 -0.0343 -0.1983  0.0251
  878MOL0     C18450  11.352   2.844   3.395  0.9376 -1.4592  0.1194
  878MOL0     C18451  11.344   2.955   3.303 -0.9467  0.2011 -0.4344
  878MOL0     C18452  11.434   3.066   3.318 -0.9044  0.2020  0.2949
  878MOL0     C18453  11.543   3.066   3.406 -0.4597  0.0633 -1.0173
  878MOL0     O18454  11.640   3.167   3.394  0.7701  0.0916 -0.1694
  878MOL0     C18455  11.744   3.177   3.499 -0.0621 -0.1724  0.3295
  878MOL0     C18456  11.689   3.224   3.635  0.4935  1.0706  0.9913
  878MOL0     C18457  11.619   3.364   3.630 -0.2214 -0.2873  0.2764
  878MOL0     C18458  11.646   3.462   3.752  0.6284 -0.5581  0.3730
  878MOL0     C18459  11.785   3.518   3.733  0.0350 -0.4931 -0.0891
  878MOL0     C18460  11.894   3.561   3.723  0.5758 -0.6921  0.3215
  878MOL0     C18461  11.560   2.955   3.491 -0.0866 -0.7956  0.1540
  878MOL0     C18462  11.468   2.849   3.484  0.5235 -0.3200  0.8091
  878MOL0     H18463  11.235   2.439   3.357  0.7850 -1.9555  0.5773
  878MOL0     H18464  11.100   2.259   3.394 -0.8249  0.4422 -1.2207
  878MOL0     H18465  10.888   2.191   3.422 -1.9003  0.3391  0.5196
  878MOL0     H18466  11.005   2.083   3.490  1.4374 -1.2826  1.9897
  878MOL0     H18467  10.771   1.990   3.456  2.8247 -2.5364  0.0308
  878MOL0     H18468  10.845   1.982   3.624  1.3430  4.2748  3.0813
  878MOL0     H18469  10.683   2.124   3.702 -4.6241 -1.8356  0.9181
  878MOL0     H18470  10.638   2.189   3.547 -1.4429 -0.5448  0.4165
  878MOL0     H18471  10.541   1.965   3.475 -2.2131 -3.2908  1.1926
  878MOL0     H18472  10.617   1.885   3.609  1.3896 -1.1384 -2.9793
  878MOL0     H18473  10.458   2.009   3.761 -0.9007 -1.9802  0.9648
  878MOL0     H18474  10.373   2.059   3.609  1.8864  0.7457 -0.0744
  878MOL0     H18475  10.321   1.837   3.538  0.9723 -2.0539  0.2355
  878MOL0     H18476  10.429   1.772   3.661  0.9968  0.4196 -0.0818
  878MOL0     H18477  10.271   1.870   3.833  1.3056  0.7082 -0.5426
  878MOL0     H18478  10.161   1.925   3.694  0.9710  1.4493  1.0057
  878MOL0     H18479  10.243   1.636   3.731 -2.0308 -0.0522 -1.1713
  878MOL0     H18480  10.141   1.716   3.623  0.7206  1.6523  0.0049
  878MOL0     H18481   9.926   1.576   3.710 -0.7240  0.9397 -0.3572
  878MOL0     H18482   9.698   1.658   4.034 -2.8768 -2.1944  0.0438
  878MOL0     H18483   9.670   1.662   3.866  2.4297  2.2915 -1.0518
  878MOL0     H18484   9.752   1.437   3.851  0.0593  0.4765 -0.0530
  878MOL0     H18485   9.610   1.451   3.967  0.0395 -2.2710  0.5246
  878MOL0     H18486   9.738   1.422   4.152 -1.1939 -3.1655 -1.0684
  878MOL0     H18487   9.895   1.446   4.068 -0.0696 -0.5843  3.3356
  878MOL0     H18488   9.810   1.208   4.133 -3.2535 -1.9763  0.0666
  878MOL0     H18489   9.886   1.239   3.978  0.4255  1.7020  1.7791
  878MOL0     H18490   9.610   1.285   4.222  1.3419  0.3651 -2.1037
  878MOL0     H18491   9.316   1.437   4.286  0.5306  0.5181  1.2994
  878MOL0     H18492   9.283   1.283   4.382 -0.5581 -0.6287 -1.6770
  878MOL0     H18493   9.439   1.361   4.378 -0.7699  1.1016  0.6445
  878MOL0     H18494   8.914   1.250   4.290  0.2377 -0.8641  0.1297
  878MOL0     H18495   8.638   1.259   4.282  0.5020 -0.1545  2.6314
  878MOL0     H18496   8.470   0.913   4.125 -1.0661  0.6265 -2.9635
  878MOL0     H18497   8.442   0.980   4.286  1.2525  0.9912 -0.1933
  878MOL0     H18498   8.220   0.929   4.179  0.7603 -1.0873 -3.3093
  878MOL0     H18499   8.226   1.086   4.229 -0.8667  0.2463 -0.1430
  878MOL0     H18500   8.295   0.964   3.963 -1.8207 -2.2463  0.9881
  878MOL0     H18501   8.265   1.144   3.987  1.0066  0.3183  2.6395
  878MOL0     H18502   8.082   0.911   3.960 -2.1284  1.1150 -3.0179
  878MOL0     H18503   8.021   1.033   4.066 -2.9863 -3.3191 -1.5418
  878MOL0     H18504   8.071   1.039   3.772 -3.7034 -2.8910  0.5639
  878MOL0     H18505   8.056   1.199   3.873 -0.0389  0.6895 -2.7576
  878MOL0     H18506   7.871   0.972   3.876 -3.4367  1.3905 -1.4341
  878MOL0     H18507   7.843   1.121   3.963  0.0301  1.4503  0.5839
  878MOL0     H18508   7.858   1.119   3.650  2.4421  2.9564 -0.2520
  878MOL0     H18509   7.846   1.246   3.747 -3.5098  1.8372 -0.5051
  878MOL0     H18510   7.617   1.177   3.691  0.7357  2.4226  2.9812
  878MOL0     H18511   7.629   1.137   3.857 -0.5011  1.5157 -0.2804
  878MOL0     H18512   8.640   0.952   3.999  0.1946 -1.8174  1.1068
  878MOL0     H18513   8.911   0.960   3.988 -1.2250 -2.8405  0.5500
  878MOL0     H18514   9.251   1.102   3.928 -1.4582  0.5772  2.6575
  878MOL0     H18515   9.477   1.087   3.859 -0.9524  3.7183 -1.7491
  878MOL0     H18516  10.949   2.445   3.764  1.3003  0.3571  1.0662
  878MOL0     H18517  11.071   2.641   3.707  0.0044 -1.2102  1.2399
  878MOL0     H18518  11.252   2.969   3.247 -0.8186 -1.1362 -1.0133
  878MOL0     H18519  11.427   3.156   3.258 -1.5845  0.8448  1.3214
  878MOL0     H18520  11.795   3.081   3.502  1.6575  0.5831 -1.8819
  878MOL0     H18521  11.817   3.248   3.458 -1.0373 -0.1460 -1.5037
  878MOL0     H18522  11.765   3.234   3.713  0.9607  2.7335  0.3588
  878MOL0     H18523  11.620   3.150   3.676  0.5663 -0.4610 -1.4574
  878MOL0     H18524  11.511   3.347   3.626 -0.2624  0.0287  0.0091
  878MOL0     H18525  11.648   3.416   3.538 -0.7857 -1.1224 -0.3848
  878MOL0     H18526  11.646   3.409   3.847 -4.1671 -2.9871 -0.6841
  878MOL0     H18527  11.570   3.539   3.754  0.2008 -0.8290 -2.1015
  878MOL0     H18528  11.985   3.609   3.692 -0.8085  0.9985 -1.3293
  878MOL0     H18529  11.641   2.935   3.561 -1.0362 -3.4637  0.6056
  878MOL0     H18530  11.479   2.762   3.549 -0.2111  0.6788  2.3236
  879MOL0     O18531   9.100   0.193   9.782 -0.5251 -0.1503 -0.6487
  879MOL0     C18532   9.129   0.260   9.880 -0.6791 -0.6631 -0.0476
  879MOL0     O18533   9.228   0.355   9.884 -0.6076  0.1912 -0.8560
  879MOL0     C18534   9.297   0.386   9.774  0.5010 -0.3583  0.3269
  879MOL0     C18535   9.435   0.356   9.773 -0.3792  0.5816 -0.5753
  879MOL0     C18536   9.510   0.375   9.658 -0.7241  0.2970 -0.5278
  879MOL0     C18537   9.451   0.410   9.540  0.3705  0.7722 -0.0775
  879MOL0     O18538   9.528   0.389   9.430  0.9624 -0.5056 -0.3208
  879MOL0     C18539   9.461   0.397   9.302  0.1119  0.0526  0.1152
  879MOL0     C18540   9.572   0.374   9.193  0.2445  0.6604 -0.1659
  879MOL0     C18541   9.633   0.231   9.181  0.0303 -0.2876 -0.3237
  879MOL0     C18542   9.721   0.227   9.059  0.2086 -0.1921 -0.4032
  879MOL0     C18543   9.805   0.096   9.034 -0.5442  0.6156 -0.2045
  879MOL0     C18544   9.721  -0.033   9.066 -0.2719 -0.6346  0.0509
  879MOL0     C18545   9.794  -0.149   8.982  0.8649 -0.3804 -0.0641
  879MOL0     C18546   9.724  -0.159   8.843  0.4293  0.0950 -0.0685
  879MOL0     N18547   9.782  -0.273   8.783 -0.4127  0.0610 -0.2732
  879MOL0     C18548   9.843  -0.259   8.666 -1.0371  0.2595  0.5616
  879MOL0     C18549   9.864  -0.383   8.610 -1.2546 -0.1201 -0.6911
  879MOL0     C18550   9.943  -0.429   8.492 -0.1993 -0.5230 -0.1068
  879MOL0     C18551   9.874  -0.414   8.352  0.5810 -0.0247 -0.0763
  879MOL0     C18552   9.944  -0.516   8.251 -0.5174 -0.3008  0.4938
  879MOL0     C18553   9.883  -0.494   8.106 -0.5294 -0.3748 -0.4526
  879MOL0     O18554   9.924  -0.363   8.067 -0.4982 -0.3411 -0.8655
  879MOL0     C18555   9.889  -0.323   7.939 -0.1983 -0.1777  0.9656
  879MOL0     C18556   9.825  -0.407   7.844 -1.3065 -0.5996 -0.0288
  879MOL0     C18557   9.795  -0.362   7.715 -0.2128  1.1955 -0.0563
  879MOL0     C18558   9.746  -0.455   7.621 -0.1673  0.1634 -0.4610
  879MOL0     C18559   9.821  -0.224   7.688 -0.7639  0.5056  0.3344
  879MOL0     C18560   9.780  -0.155   7.563  0.4254  0.6136  0.0533
  879MOL0     O18561   9.673  -0.212   7.499  0.0628 -0.8890 -0.5789
  879MOL0     C18562   9.627  -0.162   7.382  0.4504 -0.3544 -1.1044
  879MOL0     C18563   9.718  -0.110   7.287  0.2336 -0.3831 -0.3442
  879MOL0     C18564   9.666  -0.061   7.169 -0.1047 -0.0796  0.3022
  879MOL0     C18565   9.532  -0.052   7.138  0.2325  1.1719  0.2684
  879MOL0     O18566   9.472  -0.003   7.026  0.5839 -0.2716  0.6343
  879MOL0     C18567   9.540   0.095   6.945 -0.2725 -0.3668 -0.9800
  879MOL0     C18568   9.448   0.213   6.903  0.5318  0.7782  0.0315
  879MOL0     C18569   9.336   0.151   6.819  0.5726 -0.6725  0.0252
  879MOL0     C18570   9.299   0.262   6.711  0.0720  0.7608 -0.1837
  879MOL0     C18571   9.164   0.241   6.663  0.4358  0.1970  0.5952
  879MOL0     C18572   9.123   0.358   6.576 -0.5182  0.4437  0.2340
  879MOL0     C18573   8.980   0.344   6.549  0.1310 -0.3033 -0.2812
  879MOL0     C18574   8.877   0.425   6.635  0.0536  0.6098  0.8558
  879MOL0    Cl18575   8.834   0.333   6.778  0.0953 -0.1207 -0.2472
  879MOL0     C18576   9.449  -0.113   7.231  0.3678  0.5803  0.2117
  879MOL0     C18577   9.490  -0.168   7.355  0.2578  0.4375  0.4007
  879MOL0     O18578   9.824  -0.040   7.539  0.2927 -0.0583 -0.0628
  879MOL0     C18579   9.889  -0.135   7.782  0.7789  0.1179 -0.1892
  879MOL0     C18580   9.915  -0.189   7.909 -0.3648 -0.3937  0.3583
  879MOL0     N18581   9.808  -0.477   8.702  0.2842 -1.0054  0.4136
  879MOL0     N18582   9.751  -0.406   8.794  0.0689  0.4679 -0.3149
  879MOL0     C18583   9.316   0.455   9.547 -0.8390 -0.7244  0.1088
  879MOL0     C18584   9.232   0.445   9.659 -0.6556  0.7035 -0.2787
  879MOL0     C18585   9.050   0.244  10.007 -0.4790  0.3498  0.4252
  879MOL0     C18586   9.028   0.354  10.096 -0.6390  0.9232  0.4429
  879MOL0     C18587   8.950   0.345  10.206 -0.2496 -0.7759 -0.6658
  879MOL0     C18588   8.887   0.227  10.251 -0.4008 -0.6875 -0.6123
  879MOL0     O18589   8.818   0.200  10.364  0.2131 -0.2448  0.9753
  879MOL0     C18590   8.773   0.303  10.450  0.1887  0.1335  0.3049
  879MOL0     C18591   8.634   0.351  10.395 -0.5750 -0.7077 -0.8548
  879MOL0     C18592   8.522   0.247  10.383 -1.1317  0.8621  0.2232
  879MOL0     C18593   8.460   0.220  10.520 -0.0288  0.1961 -0.1921
  879MOL0     C18594   8.363   0.113  10.505  0.1862  0.1208 -0.5096
  879MOL0     C18595   8.271   0.031  10.494  0.4586  0.4694  0.2662
  879MOL0     C18596   8.910   0.121  10.157 -0.2392 -0.3878 -0.7481
  879MOL0     C18597   8.986   0.132  10.045 -0.3597  0.5428  0.3207
  879MOL0     H18598   9.487   0.326   9.863 -1.5214  0.3840  0.0365
  879MOL0     H18599   9.615   0.348   9.664 -0.1744  2.2810 -0.6164
  879MOL0     H18600   9.372   0.332   9.303  1.3295 -1.6762  0.8708
  879MOL0     H18601   9.414   0.495   9.287 -1.3250 -0.4112  1.4324
  879MOL0     H18602   9.531   0.396   9.093 -0.8783 -2.2890 -0.4660
  879MOL0     H18603   9.654   0.441   9.217  0.2405  0.3768  0.6556
  879MOL0     H18604   9.692   0.206   9.269  0.9619  2.8302  0.0468
  879MOL0     H18605   9.554   0.157   9.162 -1.0687 -0.0855  2.8420
  879MOL0     H18606   9.662   0.242   8.968 -1.7927  2.3773  1.1559
  879MOL0     H18607   9.798   0.305   9.058  0.9406 -0.9136 -0.9447
  879MOL0     H18608   9.833   0.098   8.929 -2.0756  0.4583 -0.6464
  879MOL0     H18609   9.890   0.088   9.103  0.6076  2.5263 -1.3222
  879MOL0     H18610   9.724  -0.061   9.172  0.8619 -0.2303  0.1477
  879MOL0     H18611   9.620  -0.028   9.025  1.4128  1.0903 -4.5648
  879MOL0     H18612   9.899  -0.120   8.975  0.0636  3.0235  0.4023
  879MOL0     H18613   9.807  -0.242   9.039  0.4482 -0.2056  0.3277
  879MOL0     H18614   9.736  -0.072   8.777 -1.9208 -0.9899 -2.0663
  879MOL0     H18615   9.616  -0.176   8.849  0.3898 -1.8502 -3.6654
  879MOL0     H18616   9.880  -0.165   8.627  0.5901 -1.0981 -1.3914
  879MOL0     H18617  10.040  -0.377   8.485 -0.2767 -0.3917 -0.2024
  879MOL0     H18618   9.957  -0.537   8.503 -0.8251 -0.6026 -0.0876
  879MOL0     H18619   9.869  -0.312   8.315 -2.0272 -0.0217  0.1528
  879MOL0     H18620   9.770  -0.444   8.363  0.8321 -0.6157  0.8711
  879MOL0     H18621   9.948  -0.623   8.277  1.3635 -0.3462  0.1952
  879MOL0     H18622  10.050  -0.492   8.265 -0.5618 -1.7475  4.8505
  879MOL0     H18623   9.774  -0.493   8.098 -0.5670 -0.8219 -0.0013
  879MOL0     H18624   9.936  -0.575   8.054 -1.1258 -1.5635  0.7522
  879MOL0     H18625   9.797  -0.509   7.871 -1.9104 -0.6506 -0.8146
  879MOL0     H18626   9.819  -0.448   7.540  2.0814 -0.7941  1.3835
  879MOL0     H18627   9.747  -0.555   7.665 -2.3110  0.7388  1.0866
  879MOL0     H18628   9.642  -0.429   7.597 -1.0480 -1.2844  1.4922
  879MOL0     H18629   9.825  -0.113   7.305  0.0454 -0.2019  0.9057
  879MOL0     H18630   9.732  -0.029   7.089 -0.6191  1.0088  0.2938
  879MOL0     H18631   9.623   0.133   7.007  0.9651 -1.9599 -1.5859
  879MOL0     H18632   9.589   0.047   6.860  1.7596  1.7135 -1.0982
  879MOL0     H18633   9.410   0.259   6.995  0.5228 -0.6781  0.7859
  879MOL0     H18634   9.503   0.287   6.845  1.4716 -0.9127 -1.3191
  879MOL0     H18635   9.249   0.147   6.885  0.0978  1.1333 -0.4326
  879MOL0     H18636   9.351   0.054   6.771 -3.6698 -0.0948 -3.0597
  879MOL0     H18637   9.295   0.356   6.767 -0.8281  0.0675  0.9669
  879MOL0     H18638   9.372   0.261   6.630  0.8596  0.3411  0.5042
  879MOL0     H18639   9.089   0.238   6.743 -2.0114 -3.1693 -1.5534
  879MOL0     H18640   9.150   0.144   6.613  1.6746 -0.5193  1.5682
  879MOL0     H18641   9.143   0.455   6.623  0.7571 -1.2764  3.5296
  879MOL0     H18642   9.176   0.351   6.481  1.9357  1.3580  1.4530
  879MOL0     H18643   8.943   0.242   6.538  1.0542 -0.7415  0.5588
  879MOL0     H18644   8.981   0.400   6.455 -0.3979 -0.8000 -0.5937
  879MOL0     H18645   8.789   0.436   6.572  0.9237 -2.2011 -1.0499
  879MOL0     H18646   8.903   0.529   6.661 -0.7483  1.1105 -0.2509
  879MOL0     H18647   9.344  -0.121   7.205  0.4029  0.9013 -0.0259
  879MOL0     H18648   9.426  -0.201   7.436  0.2135  2.6755  1.3510
  879MOL0     H18649   9.920  -0.032   7.768 -0.8938  0.3067 -3.8291
  879MOL0     H18650   9.966  -0.136   7.989  0.8979 -0.7208 -0.2158
  879MOL0     H18651   9.264   0.494   9.460 -1.0702  0.9278  0.9407
  879MOL0     H18652   9.127   0.468   9.649 -0.7512 -0.0896 -1.3052
  879MOL0     H18653   9.087   0.443  10.078  1.3626 -0.4616 -0.1609
  879MOL0     H18654   8.944   0.437  10.264  0.2701  0.9087 -3.1512
  879MOL0     H18655   8.769   0.247  10.544 -0.3289 -2.0817 -0.9492
  879MOL0     H18656   8.842   0.387  10.448  2.4543 -1.6232 -0.8393
  879MOL0     H18657   8.655   0.400  10.300 -1.5132  3.6734  0.9345
  879MOL0     H18658   8.607   0.437  10.458 -2.0768 -2.0576  0.4459
  879MOL0     H18659   8.572   0.163  10.334 -0.9611  2.1384 -1.9040
  879MOL0     H18660   8.441   0.275  10.314 -1.0058  0.1999 -0.2045
  879MOL0     H18661   8.405   0.310  10.549 -0.9589 -0.2665 -0.4857
  879MOL0     H18662   8.538   0.198  10.594  1.3823 -2.5094 -2.2917
  879MOL0     H18663   8.196  -0.046  10.495  0.8678 -0.0174 -1.5818
  879MOL0     H18664   8.862   0.028  10.184 -1.2309  0.7333  1.6245
  879MOL0     H18665   8.990   0.037   9.993 -3.2502  0.4576  0.0489
  880MOL0     O18666   6.296   1.245   1.671  0.5572  0.0640 -0.0371
  880MOL0     C18667   6.395   1.242   1.604 -0.5054  0.4897 -0.3611
  880MOL0     O18668   6.399   1.266   1.464 -0.8922 -0.0137 -0.2113
  880MOL0     C18669   6.275   1.305   1.411 -0.3212  0.6109  0.1499
  880MOL0     C18670   6.198   1.211   1.332  0.1540 -0.2404 -0.4051
  880MOL0     C18671   6.077   1.254   1.276  0.0467 -0.0338 -0.2262
  880MOL0     C18672   6.037   1.388   1.292 -0.6015 -0.3252 -0.5278
  880MOL0     O18673   5.915   1.426   1.241 -1.0606  0.1109 -0.0306
  880MOL0     C18674   5.804   1.368   1.306  0.4940 -0.0113 -0.2738
  880MOL0     C18675   5.686   1.467   1.328 -0.2669 -0.5456  0.2556
  880MOL0     C18676   5.653   1.558   1.210 -0.2180 -0.3947 -0.1404
  880MOL0     C18677   5.635   1.496   1.073  0.4306  0.3680 -1.2059
  880MOL0     C18678   5.619   1.599   0.962  1.0572 -0.1137  0.3977
  880MOL0     C18679   5.588   1.523   0.828 -0.3743 -0.0762  0.0628
  880MOL0     C18680   5.529   1.615   0.730  0.3849 -0.2139  0.0436
  880MOL0     C18681   5.378   1.637   0.755 -0.9721 -0.1411 -0.0999
  880MOL0     N18682   5.320   1.711   0.641  0.2514 -0.0910  0.2650
  880MOL0     C18683   5.279   1.844   0.639  0.3164  0.7552 -1.3288
  880MOL0     C18684   5.230   1.865   0.517  0.0912 -0.8440  0.4849
  880MOL0     C18685   5.161   1.989   0.470 -1.2960  0.3490 -0.3695
  880MOL0     C18686   5.017   1.965   0.509  1.1248  0.1340  1.1988
  880MOL0     C18687   4.948   2.084   0.444  0.0766 -0.1790 -0.3142
  880MOL0     C18688   4.798   2.061   0.428  0.8501  0.3336  0.6289
  880MOL0     O18689   4.777   1.961   0.329  0.4451 -0.1605  0.3124
  880MOL0     C18690   4.659   1.897   0.327 -0.4142  0.4907  0.7246
  880MOL0     C18691   4.541   1.928   0.398 -0.4873 -0.3062 -0.3891
  880MOL0     C18692   4.424   1.856   0.387  0.5232  0.3789  0.0947
  880MOL0     C18693   4.308   1.897   0.486 -0.2713  0.1005  0.4705
  880MOL0     C18694   4.411   1.759   0.282  0.6048 -0.1216 -0.7725
  880MOL0     C18695   4.282   1.697   0.253  0.4071  0.6145 -0.2417
  880MOL0     O18696   4.295   1.570   0.200 -0.3938 -0.2455 -0.3526
  880MOL0     C18697   4.195   1.505   0.138 -0.2432 -0.3054  0.4643
  880MOL0     C18698   4.058   1.542   0.129  0.1750  0.7039  0.4236
  880MOL0     C18699   3.954   1.458   0.094 -0.3028  0.1988  1.0161
  880MOL0     C18700   3.983   1.323   0.043 -0.5438  0.0218  0.1614
  880MOL0     O18701   3.890   1.227  -0.001  0.2250  0.3632  0.0839
  880MOL0     C18702   3.750   1.251   0.006 -0.3329 -0.2430 -0.1145
  880MOL0     C18703   3.680   1.129  -0.059 -0.0782  0.0563  0.2004
  880MOL0     C18704   3.534   1.178  -0.073 -0.8657  0.3661 -0.6206
  880MOL0     C18705   3.447   1.067  -0.135  0.1451 -0.2943  0.1927
  880MOL0     C18706   3.308   1.109  -0.125  0.9976  0.5024 -0.6910
  880MOL0     C18707   3.221   0.995  -0.195  0.3620  0.4427 -0.7162
  880MOL0     C18708   3.077   1.014  -0.145  0.1929 -0.1925 -0.5501
  880MOL0     C18709   2.962   0.938  -0.228  0.9244  0.4798 -0.4877
  880MOL0    Cl18710   2.956   0.763  -0.190 -0.1606  0.2546  0.0508
  880MOL0     C18711   4.123   1.292   0.038  0.9639 -0.7679 -0.7579
  880MOL0     C18712   4.229   1.377   0.082 -0.4309 -0.1313  0.6339
  880MOL0     O18713   4.173   1.760   0.267  0.0935  0.5042  0.2905
  880MOL0     C18714   4.533   1.723   0.212 -0.2376 -0.4972 -1.0423
  880MOL0     C18715   4.653   1.787   0.239  0.2113 -0.1375  0.0623
  880MOL0     N18716   5.245   1.754   0.443 -0.0074  0.5835  0.1265
  880MOL0     N18717   5.305   1.661   0.513  0.3155  0.8700  0.9938
  880MOL0     C18718   6.114   1.478   1.371 -1.1856  0.9492  0.3076
  880MOL0     C18719   6.225   1.434   1.428  0.2345 -0.0266 -0.1677
  880MOL0     C18720   6.517   1.226   1.674 -0.1101  0.4614 -0.0194
  880MOL0     C18721   6.554   1.292   1.802  0.0796  1.1940  0.3947
  880MOL0     C18722   6.671   1.255   1.861  0.6172  0.2100  0.2748
  880MOL0     C18723   6.765   1.165   1.810  0.1088 -0.5991  0.7164
  880MOL0     O18724   6.884   1.132   1.863 -0.3690 -0.6815 -0.0451
  880MOL0     C18725   6.947   1.213   1.970  0.1154  0.4834 -0.2904
  880MOL0     C18726   7.099   1.188   1.990 -0.3428  0.5685  1.1427
  880MOL0     C18727   7.119   1.040   2.022  0.0059  0.3599  0.0541
  880MOL0     C18728   7.248   1.020   2.089  0.5133 -0.3670  0.6861
  880MOL0     C18729   7.283   0.874   2.086 -0.1472 -1.0728 -0.5301
  880MOL0     C18730   7.283   0.753   2.093 -0.7297 -0.2524  0.1104
  880MOL0     C18731   6.731   1.104   1.686  0.2858  0.2865  0.0056
  880MOL0     C18732   6.614   1.141   1.618  0.3191  0.3495 -1.2175
  880MOL0     H18733   6.241   1.111   1.324  0.5535  0.0687 -2.8541
  880MOL0     H18734   6.007   1.195   1.218 -0.8611  1.5133 -0.7679
  880MOL0     H18735   5.776   1.278   1.250  1.1485 -0.0875 -0.4847
  880MOL0     H18736   5.841   1.323   1.399  0.7343  0.6385 -0.0514
  880MOL0     H18737   5.604   1.401   1.358  1.8569 -4.3095 -1.4577
  880MOL0     H18738   5.714   1.546   1.398  2.8715  0.5535 -2.0238
  880MOL0     H18739   5.558   1.609   1.228  0.1768  0.5908 -0.7448
  880MOL0     H18740   5.734   1.632   1.209  1.1635 -1.7613  1.7184
  880MOL0     H18741   5.711   1.421   1.050  0.8020  0.5893 -0.7097
  880MOL0     H18742   5.542   1.438   1.079  0.4370  0.3367 -1.3794
  880MOL0     H18743   5.534   1.664   0.987 -0.0259 -1.1601 -0.4701
  880MOL0     H18744   5.708   1.662   0.951 -0.0204  1.2451 -0.9299
  880MOL0     H18745   5.683   1.487   0.787  1.9720  2.1733  3.0078
  880MOL0     H18746   5.524   1.436   0.845 -2.3980  1.6983  2.3228
  880MOL0     H18747   5.590   1.705   0.719 -0.4317  0.5006  1.1473
  880MOL0     H18748   5.534   1.560   0.636 -2.8228 -1.1309  0.2906
  880MOL0     H18749   5.370   1.692   0.849  1.1422  0.0016  0.0570
  880MOL0     H18750   5.325   1.542   0.764  2.6884 -2.4548 -0.6363
  880MOL0     H18751   5.286   1.914   0.722 -1.4025  0.2508 -0.7015
  880MOL0     H18752   5.195   2.081   0.518 -1.3768  1.7342 -2.7806
  880MOL0     H18753   5.184   2.001   0.363 -0.2553 -0.8338 -0.2968
  880MOL0     H18754   5.000   1.977   0.616 -0.6339  2.1783  0.7561
  880MOL0     H18755   4.965   1.873   0.480  0.6678  0.1498  1.9567
  880MOL0     H18756   4.985   2.104   0.344 -0.8932  1.7857 -0.3238
  880MOL0     H18757   4.963   2.173   0.505  0.9243 -0.6744  0.2133
  880MOL0     H18758   4.751   2.147   0.380  0.7389 -0.5018 -0.8181
  880MOL0     H18759   4.749   2.037   0.522  1.2953 -1.2219  0.4960
  880MOL0     H18760   4.542   2.015   0.464  2.1697 -0.4374 -0.1407
  880MOL0     H18761   4.281   1.813   0.551  0.6033  1.2742  2.4309
  880MOL0     H18762   4.352   1.975   0.547 -1.2344  1.0426 -0.0004
  880MOL0     H18763   4.226   1.940   0.428 -0.9596  1.1568  2.1575
  880MOL0     H18764   4.025   1.642   0.153 -1.5461 -0.2521  2.3533
  880MOL0     H18765   3.850   1.490   0.092 -0.1073  0.9279 -1.9697
  880MOL0     H18766   3.722   1.248   0.112 -0.4689  1.1588 -0.0988
  880MOL0     H18767   3.716   1.342  -0.044  0.0157 -0.5130 -0.8546
  880MOL0     H18768   3.732   1.099  -0.150  2.0387  2.6644  0.4197
  880MOL0     H18769   3.668   1.047   0.013  0.6776 -0.6627 -0.4627
  880MOL0     H18770   3.527   1.275  -0.124 -1.9287  0.3038 -0.6162
  880MOL0     H18771   3.493   1.193   0.027 -3.1353 -0.9137 -1.2908
  880MOL0     H18772   3.473   1.050  -0.240 -1.6809 -1.9042 -0.0499
  880MOL0     H18773   3.464   0.971  -0.086  2.2048 -1.3334 -2.3260
  880MOL0     H18774   3.283   1.200  -0.180 -0.8643  1.0511  0.9257
  880MOL0     H18775   3.272   1.125  -0.023  0.8066  0.2142 -0.7103
  880MOL0     H18776   3.222   1.000  -0.304  2.6393  1.4964 -0.6905
  880MOL0     H18777   3.252   0.891  -0.183 -0.0796  0.3418 -0.4213
  880MOL0     H18778   3.045   1.119  -0.145 -2.5870 -0.8910  2.4644
  880MOL0     H18779   3.061   0.974  -0.044 -1.9711 -3.0493 -1.9088
  880MOL0     H18780   2.968   0.947  -0.337 -0.3557  1.1772 -0.5244
  880MOL0     H18781   2.870   0.981  -0.189  0.2764 -0.4431 -0.9335
  880MOL0     H18782   4.135   1.197  -0.012 -2.3914 -1.6643 -0.1304
  880MOL0     H18783   4.334   1.351   0.075 -0.7286 -0.9170 -1.8632
  880MOL0     H18784   4.522   1.642   0.140  1.5097 -2.4876  0.8073
  880MOL0     H18785   4.742   1.755   0.186 -0.6591 -2.9053  0.1232
  880MOL0     H18786   6.067   1.575   1.380 -2.4743  0.7785 -3.0574
  880MOL0     H18787   6.272   1.499   1.500 -0.9269  0.0426  0.5635
  880MOL0     H18788   6.476   1.338   1.862 -0.9181  1.5682 -1.1214
  880MOL0     H18789   6.687   1.295   1.961 -0.2602 -3.1565  1.8980
  880MOL0     H18790   6.915   1.315   1.946 -1.4855 -0.4275 -2.3532
  880MOL0     H18791   6.894   1.192   2.063  0.7875 -0.9733 -0.2075
  880MOL0     H18792   7.134   1.254   2.070 -0.2661  1.0994  0.6805
  880MOL0     H18793   7.140   1.208   1.891 -0.4355  3.3192  1.5714
  880MOL0     H18794   7.124   0.979   1.932 -0.0129 -4.2664  2.8622
  880MOL0     H18795   7.037   1.000   2.081  0.8245  1.1687  1.8369
  880MOL0     H18796   7.253   1.058   2.191 -0.6926 -0.7481  0.8980
  880MOL0     H18797   7.322   1.074   2.029 -0.7972  0.1374 -0.5325
  880MOL0     H18798   7.291   0.648   2.076  0.7738 -0.1383 -0.0755
  880MOL0     H18799   6.798   1.035   1.637  1.7139  2.0835 -0.6737
  880MOL0     H18800   6.589   1.092   1.524  1.9340 -3.4851  0.1565
  881MOL0     O18801   9.727   6.532   0.738  0.6517  0.2900  1.0202
  881MOL0     C18802   9.688   6.575   0.849  0.0590 -0.4888  0.2413
  881MOL0     O18803   9.561   6.566   0.894  0.3815  0.1737  0.3287
  881MOL0     C18804   9.474   6.508   0.801 -0.3737  0.3428 -0.1581
  881MOL0     C18805   9.479   6.366   0.787  0.0479  0.0356 -0.1792
  881MOL0     C18806   9.392   6.305   0.701  0.4689  0.2188  0.9046
  881MOL0     C18807   9.303   6.384   0.634 -0.3332  0.0319 -0.2246
  881MOL0     O18808   9.199   6.337   0.558 -0.0978 -0.0572  0.0019
  881MOL0     C18809   9.094   6.268   0.626 -0.0608 -0.8497 -0.1885
  881MOL0     C18810   8.960   6.308   0.568 -0.5684  0.1243 -0.5516
  881MOL0     C18811   8.917   6.451   0.595 -0.1952 -0.1420  0.3941
  881MOL0     C18812   8.799   6.468   0.699 -0.3974 -0.8732 -0.6697
  881MOL0     C18813   8.754   6.614   0.696  0.0458  0.4926  0.6698
  881MOL0     C18814   8.627   6.639   0.778  0.2958  0.5181  0.5735
  881MOL0     C18815   8.583   6.786   0.773 -0.3727  0.0856 -0.5322
  881MOL0     C18816   8.441   6.811   0.824  0.2885 -0.4756 -0.1947
  881MOL0     N18817   8.346   6.788   0.715  0.7013 -0.5157 -0.2503
  881MOL0     C18818   8.280   6.672   0.693 -0.4940  0.1879  0.0158
  881MOL0     C18819   8.203   6.699   0.586  0.8552  0.4501  0.5382
  881MOL0     C18820   8.109   6.596   0.539  0.3190 -0.1742  0.1877
  881MOL0     C18821   7.959   6.640   0.541  0.1118  0.5037 -0.1737
  881MOL0     C18822   7.918   6.734   0.437 -0.5208 -1.0143 -0.0420
  881MOL0     C18823   7.773   6.778   0.447 -0.2791  0.5804 -0.8718
  881MOL0     O18824   7.737   6.818   0.578 -0.2601  0.7034 -0.4285
  881MOL0     C18825   7.599   6.815   0.596  0.0223  0.6750  0.3422
  881MOL0     C18826   7.514   6.884   0.515  0.5328  0.6949  0.1513
  881MOL0     C18827   7.382   6.853   0.507  0.0067 -0.0819 -0.6077
  881MOL0     C18828   7.310   6.926   0.388 -0.7297  0.6683  0.6115
  881MOL0     C18829   7.319   6.757   0.597  0.0371  0.6699  0.5623
  881MOL0     C18830   7.175   6.722   0.588 -0.2021  1.0190 -0.2816
  881MOL0     O18831   7.082   6.785   0.506 -0.0301 -0.6227  0.4131
  881MOL0     C18832   6.946   6.767   0.493  0.4633  0.0390  0.3293
  881MOL0     C18833   6.858   6.690   0.571 -0.5190 -0.3824 -0.8365
  881MOL0     C18834   6.719   6.697   0.552 -0.6269 -0.6374 -0.5782
  881MOL0     C18835   6.667   6.798   0.463  0.0522  0.0767 -0.5858
  881MOL0     O18836   6.531   6.800   0.441  0.1763 -0.2531 -0.0238
  881MOL0     C18837   6.462   6.671   0.411 -0.0460  0.2184 -0.3153
  881MOL0     C18838   6.326   6.715   0.350  0.5852  0.4081  0.2346
  881MOL0     C18839   6.227   6.765   0.459  0.5985 -1.0726 -0.2941
  881MOL0     C18840   6.089   6.808   0.410 -0.4253  0.2066  0.5231
  881MOL0     C18841   6.015   6.895   0.501  1.3577  0.3568 -0.1716
  881MOL0     C18842   5.866   6.852   0.495  0.0038  0.3242  0.1344
  881MOL0     C18843   5.778   6.958   0.575 -0.4854 -0.1238 -0.7569
  881MOL0     C18844   5.633   6.924   0.557  0.2237 -0.3419  0.3562
  881MOL0    Cl18845   5.590   6.766   0.638 -0.0669  0.1248  0.4944
  881MOL0     C18846   6.761   6.877   0.394  0.0098 -0.1236  0.6761
  881MOL0     C18847   6.899   6.865   0.408  0.4070 -0.3730  0.3238
  881MOL0     O18848   7.146   6.626   0.659 -0.1559  0.9925 -0.0770
  881MOL0     C18849   7.407   6.685   0.688 -0.4094 -0.1077  0.0935
  881MOL0     C18850   7.547   6.712   0.679  0.7249  1.3739 -1.0924
  881MOL0     N18851   8.203   6.836   0.568 -0.3489 -0.3690  0.5988
  881MOL0     N18852   8.298   6.884   0.635  0.1805 -0.5588  0.1781
  881MOL0     C18853   9.294   6.522   0.642 -0.4030 -0.7894  0.0798
  881MOL0     C18854   9.384   6.583   0.735 -0.9042 -0.2699 -0.3071
  881MOL0     C18855   9.785   6.630   0.939 -0.3266 -0.4711 -0.2098
  881MOL0     C18856   9.924   6.608   0.912  0.5396  0.5245  0.5343
  881MOL0     C18857  10.019   6.642   1.012  0.0389  0.3004 -0.1118
  881MOL0     C18858   9.981   6.684   1.139  0.5552  0.0041  0.2060
  881MOL0     O18859  10.086   6.704   1.223 -0.3705  0.3879 -0.3393
  881MOL0     C18860  10.065   6.803   1.322 -0.9354  0.0142  0.4066
  881MOL0     C18861  10.196   6.844   1.393 -0.5106 -0.4829  0.3227
  881MOL0     C18862  10.314   6.894   1.303  1.0030  0.1953 -0.6522
  881MOL0     C18863  10.390   6.788   1.239  0.7499  0.0411  0.6034
  881MOL0     C18864  10.527   6.820   1.208  0.2651 -0.6726  0.1503
  881MOL0     C18865  10.638   6.851   1.162 -0.4200 -0.2439 -0.0403
  881MOL0     C18866   9.846   6.716   1.160  0.2151 -0.3714  0.3801
  881MOL0     C18867   9.750   6.689   1.059  0.1806 -0.1354  0.5456
  881MOL0     H18868   9.541   6.307   0.853 -1.3785 -0.3378  0.8706
  881MOL0     H18869   9.391   6.196   0.697 -3.5231  0.0937 -2.6759
  881MOL0     H18870   9.108   6.161   0.604  0.2315 -0.3163 -3.0233
  881MOL0     H18871   9.095   6.281   0.734  2.0970 -4.0717  0.3479
  881MOL0     H18872   8.974   6.294   0.460 -0.9962  0.0278 -0.5971
  881MOL0     H18873   8.876   6.245   0.596 -2.0724  3.0022  2.0377
  881MOL0     H18874   9.005   6.510   0.624 -0.3481  1.8932 -2.8438
  881MOL0     H18875   8.889   6.501   0.503 -2.0986 -1.4769  0.1904
  881MOL0     H18876   8.721   6.393   0.685 -1.8828  0.8505 -2.2925
  881MOL0     H18877   8.844   6.452   0.797  0.7468 -1.4141 -1.2665
  881MOL0     H18878   8.833   6.681   0.730  1.1480  0.3957 -1.5119
  881MOL0     H18879   8.728   6.648   0.595  0.4998  1.9214  1.0142
  881MOL0     H18880   8.553   6.577   0.726  3.2952 -0.8455 -2.4058
  881MOL0     H18881   8.623   6.603   0.882 -2.1381 -1.7830 -0.1768
  881MOL0     H18882   8.656   6.847   0.827 -2.1727  0.7556  1.2953
  881MOL0     H18883   8.584   6.823   0.670  1.5682 -0.1559 -0.6364
  881MOL0     H18884   8.428   6.913   0.861 -0.9206 -1.6222  2.8824
  881MOL0     H18885   8.428   6.747   0.912 -0.5166  0.3584  0.3105
  881MOL0     H18886   8.291   6.579   0.747 -3.6445 -0.5472 -0.4374
  881MOL0     H18887   8.135   6.566   0.438  0.8770  1.4223 -0.1765
  881MOL0     H18888   8.124   6.512   0.608  1.3658  1.5514  2.1786
  881MOL0     H18889   7.935   6.684   0.638 -2.5965  1.7495 -1.3147
  881MOL0     H18890   7.892   6.554   0.529 -0.3588  0.4582  2.3116
  881MOL0     H18891   7.945   6.683   0.344  1.3301 -1.4267  0.6660
  881MOL0     H18892   7.982   6.824   0.441 -0.8948 -0.7686  0.5335
  881MOL0     H18893   7.717   6.692   0.408  0.4867  0.1250 -1.0069
  881MOL0     H18894   7.756   6.867   0.387  1.8300  1.3345 -0.4492
  881MOL0     H18895   7.562   6.956   0.449  2.2848 -1.7266 -1.3758
  881MOL0     H18896   7.267   6.847   0.325 -1.0740  2.5124 -1.5602
  881MOL0     H18897   7.225   6.988   0.419 -1.0925 -0.5002  2.1290
  881MOL0     H18898   7.376   6.990   0.331  1.9942 -0.3498  2.4338
  881MOL0     H18899   6.895   6.606   0.629 -2.5557 -2.6865 -2.6298
  881MOL0     H18900   6.651   6.638   0.613 -0.2133 -0.7378 -0.2142
  881MOL0     H18901   6.504   6.608   0.332 -0.6301 -0.9306  0.2751
  881MOL0     H18902   6.446   6.623   0.508  2.8696  1.4375  0.8974
  881MOL0     H18903   6.359   6.780   0.268  1.0375  0.2867  0.3187
  881MOL0     H18904   6.277   6.636   0.291  0.3186  0.4541  0.3909
  881MOL0     H18905   6.249   6.856   0.517 -1.8358 -0.6672  0.0967
  881MOL0     H18906   6.213   6.680   0.525  0.0338  0.2525  1.3603
  881MOL0     H18907   6.094   6.853   0.310 -1.6044 -1.8969 -0.5657
  881MOL0     H18908   6.036   6.715   0.387 -0.2957  0.2697 -0.0400
  881MOL0     H18909   6.031   7.001   0.477  0.9158  0.7153  1.0327
  881MOL0     H18910   6.046   6.875   0.604 -0.9104  1.5232  0.8325
  881MOL0     H18911   5.835   6.865   0.391  1.1180  0.1656 -0.2296
  881MOL0     H18912   5.858   6.750   0.533  4.4856 -0.0828  0.5298
  881MOL0     H18913   5.799   7.061   0.544  0.8448  0.0102  0.4872
  881MOL0     H18914   5.796   6.954   0.683 -1.8876  2.3204 -0.3766
  881MOL0     H18915   5.605   6.917   0.452  1.1265 -1.5005  0.1761
  881MOL0     H18916   5.571   7.008   0.590  1.2128  0.6040 -0.1417
  881MOL0     H18917   6.724   6.940   0.314  3.3285  0.1564 -0.8000
  881MOL0     H18918   6.966   6.930   0.353 -2.2839  1.3667 -1.0977
  881MOL0     H18919   7.365   6.611   0.756  0.1588  0.7174  1.3813
  881MOL0     H18920   7.615   6.667   0.750  0.3058  1.8001 -0.4139
  881MOL0     H18921   9.218   6.580   0.592 -0.1957 -1.4524 -1.0276
  881MOL0     H18922   9.366   6.688   0.756  0.0328 -0.0475 -0.5846
  881MOL0     H18923   9.957   6.558   0.822 -0.5095 -1.6453  1.2804
  881MOL0     H18924  10.123   6.618   0.995  0.4728 -0.8075  3.2728
  881MOL0     H18925  10.027   6.896   1.280  3.6640  2.0331  0.0671
  881MOL0     H18926   9.993   6.758   1.392  0.4368  0.0250  1.8951
  881MOL0     H18927  10.227   6.757   1.452 -1.1042 -2.4110 -2.0170
  881MOL0     H18928  10.167   6.927   1.458 -0.5696  1.1292 -1.6777
  881MOL0     H18929  10.377   6.966   1.355  2.1469 -0.8183 -0.5984
  881MOL0     H18930  10.264   6.948   1.222 -1.5927  1.9203  1.9003
  881MOL0     H18931  10.343   6.748   1.148  2.2904 -2.2291  0.7180
  881MOL0     H18932  10.396   6.707   1.312  1.6511  0.6187  1.1910
  881MOL0     H18933  10.729   6.865   1.107  0.2158 -0.6090  0.9017
  881MOL0     H18934   9.815   6.765   1.252  0.4672 -0.8845  0.7451
  881MOL0     H18935   9.646   6.714   1.078  0.1665 -1.1941  1.9976
  882MOL0     O18936  10.721   6.105   3.948 -0.3060 -0.2197 -0.2792
  882MOL0     C18937  10.832   6.156   3.966  0.0198 -0.5676  0.2118
  882MOL0     O18938  10.861   6.296   3.958 -0.1838  0.7059 -0.5397
  882MOL0     C18939  10.773   6.401   3.943  0.4549 -0.1138  0.1868
  882MOL0     C18940  10.635   6.400   3.912  0.0238 -1.0491  0.0840
  882MOL0     C18941  10.571   6.525   3.885 -0.0736  0.6850 -0.2174
  882MOL0     C18942  10.637   6.642   3.887  0.3046 -0.2290 -0.3900
  882MOL0     O18943  10.565   6.751   3.853 -0.3461 -0.2660 -0.0358
  882MOL0     C18944  10.623   6.875   3.810 -0.8835 -0.3124  0.2896
  882MOL0     C18945  10.512   6.987   3.816 -0.9392 -0.1238 -0.9144
  882MOL0     C18946  10.415   6.977   3.701  0.6355 -0.3076 -0.4771
  882MOL0     C18947  10.286   7.054   3.726 -0.3033 -1.2072 -0.5472
  882MOL0     C18948  10.204   7.072   3.597 -0.8317 -0.5675 -0.3513
  882MOL0     C18949  10.109   7.190   3.607 -0.1526  0.3357  0.6973
  882MOL0     C18950   9.992   7.156   3.700  0.1798  0.4692  0.1172
  882MOL0     C18951   9.882   7.252   3.690 -0.1033 -0.3808 -0.0017
  882MOL0     N18952   9.755   7.198   3.737 -0.2607 -0.1232 -0.1251
  882MOL0     C18953   9.680   7.097   3.674  0.6533 -0.4965 -0.3671
  882MOL0     C18954   9.571   7.068   3.754 -0.0562 -0.7451  0.2283
  882MOL0     C18955   9.478   6.951   3.717 -0.4965 -0.2663  0.2172
  882MOL0     C18956   9.397   6.978   3.599  0.4151 -0.6757 -0.1609
  882MOL0     C18957   9.306   6.867   3.569 -0.6686 -0.9897  0.4376
  882MOL0     C18958   9.247   6.778   3.682  0.1148  0.0139 -0.2481
  882MOL0     O18959   9.146   6.690   3.623  0.1516  1.0695 -0.3292
  882MOL0     C18960   9.051   6.625   3.694  0.4815  0.7253  0.7130
  882MOL0     C18961   9.064   6.609   3.833  0.4937 -0.0793 -0.4450
  882MOL0     C18962   8.982   6.527   3.911 -0.0437  0.0310  0.3933
  882MOL0     C18963   9.013   6.520   4.057 -0.3342  0.2742 -0.4206
  882MOL0     C18964   8.884   6.443   3.843  0.3709 -0.3011  0.1723
  882MOL0     C18965   8.798   6.341   3.905  0.4946 -0.6304 -0.9021
  882MOL0     O18966   8.690   6.297   3.834 -0.4975  0.5695  0.4189
  882MOL0     C18967   8.592   6.224   3.892  0.2511 -0.0747  0.0290
  882MOL0     C18968   8.602   6.100   3.953  0.5123  0.3841  0.4110
  882MOL0     C18969   8.504   6.058   4.036  0.2063  0.2619 -0.2024
  882MOL0     C18970   8.382   6.124   4.056  0.4354 -0.7452 -0.0414
  882MOL0     O18971   8.293   6.072   4.147 -0.0832  0.4523 -0.6878
  882MOL0     C18972   8.339   6.056   4.281 -0.1532  1.3263  0.2543
  882MOL0     C18973   8.221   6.028   4.374 -0.0502  0.0096 -0.3282
  882MOL0     C18974   8.167   6.158   4.424  0.4095  0.0521 -0.1623
  882MOL0     C18975   8.026   6.146   4.482 -0.1034  0.0263 -0.4496
  882MOL0     C18976   7.967   6.275   4.525 -0.2190  0.0809 -0.1544
  882MOL0     C18977   7.841   6.262   4.609 -0.9080  0.2825 -0.2719
  882MOL0     C18978   7.775   6.391   4.642 -0.4766  0.4892 -0.3415
  882MOL0     C18979   7.628   6.359   4.689 -0.1980 -0.2339 -0.4986
  882MOL0    Cl18980   7.522   6.355   4.548 -0.3428  0.1454  0.3226
  882MOL0     C18981   8.361   6.243   3.985 -0.7166 -0.1288 -0.8808
  882MOL0     C18982   8.467   6.299   3.896  0.0450 -0.0156 -0.2778
  882MOL0     O18983   8.833   6.292   4.014  0.1051 -0.2218 -0.1542
  882MOL0     C18984   8.872   6.468   3.701 -0.4317  0.1427 -0.6322
  882MOL0     C18985   8.957   6.549   3.630 -0.4220 -0.5415 -0.6894
  882MOL0     N18986   9.587   7.154   3.860 -0.3032  0.0325 -0.1006
  882MOL0     N18987   9.693   7.230   3.852 -0.5224  0.7425  0.0967
  882MOL0     C18988  10.775   6.645   3.914 -0.3565 -0.5145 -1.3115
  882MOL0     C18989  10.839   6.530   3.947 -0.0139 -0.0180  0.2929
  882MOL0     C18990  10.942   6.053   3.984  0.3074 -0.4348 -0.6459
  882MOL0     C18991  11.073   6.095   4.037  0.2155 -1.1151 -0.2945
  882MOL0     C18992  11.178   5.999   4.058  0.4487  0.1607 -0.1951
  882MOL0     C18993  11.154   5.866   4.026 -0.5842 -0.7685 -0.4173
  882MOL0     O18994  11.247   5.764   4.019  0.0825  0.2712 -0.0449
  882MOL0     C18995  11.366   5.774   4.094 -0.0488 -0.1322  0.4595
  882MOL0     C18996  11.435   5.631   4.116  0.2164 -0.9642 -0.1860
  882MOL0     C18997  11.320   5.528   4.141  0.7487  0.7526 -0.3208
  882MOL0     C18998  11.348   5.382   4.098 -0.1019 -0.3153 -0.6508
  882MOL0     C18999  11.225   5.307   4.083 -0.5235 -0.2707  0.5547
  882MOL0     C19000  11.116   5.254   4.072 -0.5352  0.1358  0.2658
  882MOL0     C19001  11.030   5.826   3.986  0.5351  0.4152  0.2948
  882MOL0     C19002  10.921   5.915   3.960 -0.1067 -0.2713 -0.1325
  882MOL0     H19003  10.574   6.313   3.889 -2.4609  1.3683 -3.6362
  882MOL0     H19004  10.466   6.522   3.860  0.0417 -2.0921 -0.6371
  882MOL0     H19005  10.704   6.901   3.880  1.3659  0.5377 -2.4543
  882MOL0     H19006  10.666   6.858   3.711 -0.3131 -3.7574  1.0178
  882MOL0     H19007  10.455   6.989   3.910 -3.0929  0.7638 -2.1806
  882MOL0     H19008  10.554   7.087   3.811 -0.3572 -0.2589  0.5655
  882MOL0     H19009  10.462   7.017   3.611  1.0447 -0.5111 -0.3552
  882MOL0     H19010  10.397   6.871   3.683 -2.2683  0.3958 -2.4541
  882MOL0     H19011  10.233   6.994   3.801 -1.0003 -0.1895 -0.1987
  882MOL0     H19012  10.302   7.148   3.781 -2.1224 -0.3288 -1.4410
  882MOL0     H19013  10.271   7.106   3.518 -1.7104  2.3462  0.0292
  882MOL0     H19014  10.165   6.972   3.573  0.1785 -1.0859  0.1266
  882MOL0     H19015  10.163   7.279   3.640  1.8113 -0.0030 -1.3719
  882MOL0     H19016  10.079   7.205   3.503  2.0802  1.0997  0.1243
  882MOL0     H19017   9.952   7.057   3.674  3.2972 -1.1350  0.9943
  882MOL0     H19018  10.021   7.144   3.805  2.4800 -3.1870 -0.7597
  882MOL0     H19019   9.863   7.297   3.592 -3.3938  1.8782  1.4935
  882MOL0     H19020   9.910   7.340   3.748  0.3406  1.3443 -2.6425
  882MOL0     H19021   9.708   7.035   3.589  0.0494 -1.3691  0.0544
  882MOL0     H19022   9.535   6.861   3.693  0.7921  0.7935 -0.8658
  882MOL0     H19023   9.416   6.934   3.805 -1.8221 -0.8765 -0.7885
  882MOL0     H19024   9.455   6.990   3.507  0.3576 -2.1229 -0.4015
  882MOL0     H19025   9.324   7.057   3.616 -1.4879 -2.2729 -0.5951
  882MOL0     H19026   9.366   6.799   3.508 -1.4564 -2.4990  1.3035
  882MOL0     H19027   9.238   6.920   3.502  1.3272  1.0764 -0.0759
  882MOL0     H19028   9.201   6.839   3.761  1.1190  0.2382  0.1851
  882MOL0     H19029   9.325   6.714   3.724  1.0669  0.8492 -0.6950
  882MOL0     H19030   9.139   6.667   3.886  0.2979 -0.3042  0.0830
  882MOL0     H19031   8.919   6.510   4.111  1.0763  0.3119  2.1759
  882MOL0     H19032   9.069   6.427   4.072  1.4674  1.1064 -1.6108
  882MOL0     H19033   9.062   6.611   4.093 -1.8446  2.4850 -3.4478
  882MOL0     H19034   8.698   6.051   3.966 -0.5459 -1.5027  1.6907
  882MOL0     H19035   8.525   5.967   4.091 -3.3867 -0.5131  0.1695
  882MOL0     H19036   8.408   5.971   4.282 -1.1010  0.5178 -0.5133
  882MOL0     H19037   8.398   6.144   4.309 -0.0748  1.6511 -0.8548
  882MOL0     H19038   8.144   5.970   4.322 -0.6936  0.2696  0.3182
  882MOL0     H19039   8.256   5.968   4.459  1.1973  0.3129 -0.6091
  882MOL0     H19040   8.164   6.230   4.341 -0.2763 -2.5884 -2.5962
  882MOL0     H19041   8.225   6.197   4.508  0.0250 -1.9399  1.0762
  882MOL0     H19042   7.954   6.106   4.410 -0.6802 -1.4283  0.8717
  882MOL0     H19043   8.030   6.076   4.565 -1.6950 -0.2319 -0.5519
  882MOL0     H19044   7.954   6.341   4.439  1.6054  2.9337  1.6096
  882MOL0     H19045   8.042   6.323   4.587 -1.2531 -3.8373  4.7838
  882MOL0     H19046   7.771   6.197   4.555  1.2700 -0.7237 -2.0265
  882MOL0     H19047   7.860   6.209   4.703 -0.0782  0.8280 -0.1220
  882MOL0     H19048   7.776   6.460   4.558  4.1915  1.7516  0.4584
  882MOL0     H19049   7.836   6.432   4.723 -0.2882 -1.6434  0.6796
  882MOL0     H19050   7.589   6.439   4.753  1.7279 -1.0092  1.7880
  882MOL0     H19051   7.604   6.273   4.752 -1.3058 -0.5542 -1.3104
  882MOL0     H19052   8.263   6.290   3.982 -1.2057 -1.0314  0.0950
  882MOL0     H19053   8.449   6.388   3.835 -0.3302  0.4248  0.4643
  882MOL0     H19054   8.808   6.403   3.642 -0.0082  0.8421 -1.9087
  882MOL0     H19055   8.965   6.549   3.521 -2.1862  1.7398 -0.9030
  882MOL0     H19056  10.842   6.729   3.928 -0.3230 -0.9160  1.4928
  882MOL0     H19057  10.947   6.540   3.941  0.4317 -1.8578  3.1700
  882MOL0     H19058  11.084   6.202   4.052 -1.7201 -0.9845  0.4921
  882MOL0     H19059  11.274   6.025   4.102  0.9309 -1.5910 -0.1387
  882MOL0     H19060  11.432   5.844   4.042 -1.5555 -0.6946 -2.3622
  882MOL0     H19061  11.340   5.815   4.192 -1.5797 -0.4934  0.2315
  882MOL0     H19062  11.510   5.632   4.196  0.9615 -1.2022 -0.8615
  882MOL0     H19063  11.489   5.615   4.022  0.1751 -0.9952 -0.2048
  882MOL0     H19064  11.227   5.546   4.086 -3.6295 -3.0021  4.8396
  882MOL0     H19065  11.279   5.523   4.242  0.0145 -2.5487 -0.6846
  882MOL0     H19066  11.416   5.339   4.173 -0.7463 -1.4283 -0.6812
  882MOL0     H19067  11.402   5.398   4.005  0.3010  1.2009 -0.1794
  882MOL0     H19068  11.028   5.194   4.076  1.5270 -3.2186 -0.9342
  882MOL0     H19069  11.014   5.719   3.988 -3.4078  0.8110 -1.0897
  882MOL0     H19070  10.823   5.888   3.923  0.5135  0.3615 -2.4149
  883MOL0     O19071   4.662  10.635   2.780  0.8511 -0.0418 -0.1399
  883MOL0     C19072   4.727  10.567   2.863  0.0483 -0.0338 -0.2523
  883MOL0     O19073   4.673  10.481   2.950 -0.2063 -0.0555 -0.2073
  883MOL0     C19074   4.536  10.462   2.954 -0.1144 -0.1965  0.0606
  883MOL0     C19075   4.429  10.556   2.939 -0.1401  0.1039  0.8369
  883MOL0     C19076   4.291  10.524   2.969 -0.1550 -0.7582 -0.6509
  883MOL0     C19077   4.262  10.393   3.006 -0.5222 -0.4039  0.5224
  883MOL0     O19078   4.130  10.378   3.028  0.1657 -0.3013 -0.4390
  883MOL0     C19079   4.079  10.255   3.078  0.2422  0.4579 -0.1584
  883MOL0     C19080   3.931  10.272   3.130 -0.7706  0.5400 -0.5026
  883MOL0     C19081   3.923  10.377   3.243  0.6505 -0.4625 -0.1449
  883MOL0     C19082   3.782  10.395   3.303 -0.9223 -0.0187  0.2035
  883MOL0     C19083   3.712  10.271   3.370  0.3391  0.3196 -0.2477
  883MOL0     C19084   3.801  10.192   3.460 -0.4285 -0.0804  1.2383
  883MOL0     C19085   3.849  10.267   3.576  0.0229 -0.1440  0.1597
  883MOL0     C19086   3.950  10.193   3.660  1.2391  0.1492  0.0613
  883MOL0     N19087   4.077  10.183   3.595 -0.4567  0.5642 -0.2992
  883MOL0     C19088   4.155  10.282   3.540 -0.4362  0.0835  0.7766
  883MOL0     C19089   4.248  10.215   3.471  0.6550 -0.4318  1.2510
  883MOL0     C19090   4.335  10.280   3.371 -0.5923 -0.2373 -0.1220
  883MOL0     C19091   4.470  10.336   3.428 -0.3973 -0.2650  0.4055
  883MOL0     C19092   4.563  10.403   3.326  0.4502 -0.1394 -0.8775
  883MOL0     C19093   4.692  10.449   3.396  0.2343 -0.3485  0.2008
  883MOL0     O19094   4.671  10.551   3.488  0.5178 -0.4927  0.1820
  883MOL0     C19095   4.696  10.686   3.450  0.2188  0.4554  0.4627
  883MOL0     C19096   4.709  10.780   3.549  0.2782 -0.3795  0.1929
  883MOL0     C19097   4.712  10.920   3.522  0.2668  0.4948 -0.4339
  883MOL0     C19098   4.736  11.005   3.636 -0.5312  0.1776 -0.9316
  883MOL0     C19099   4.709  10.963   3.385  0.6714 -0.1650  0.2291
  883MOL0     C19100   4.723  11.108   3.351  0.4627 -0.0480 -0.5795
  883MOL0     O19101   4.723  11.140   3.220  0.1888 -0.1770 -0.5145
  883MOL0     C19102   4.734  11.274   3.189  0.3191 -0.8825  0.6441
  883MOL0     C19103   4.849  11.354   3.217  0.8337  0.3784  0.2255
  883MOL0     C19104   4.857  11.481   3.179 -0.4521 -0.2295  1.0761
  883MOL0     C19105   4.761  11.542   3.100 -0.1445  0.5061  0.2972
  883MOL0     O19106   4.796  11.665   3.052 -0.3131 -0.9882  0.9523
  883MOL0     C19107   4.700  11.713   2.954 -0.5158  0.3317 -0.3820
  883MOL0     C19108   4.765  11.828   2.876  0.2141  0.4828 -0.2153
  883MOL0     C19109   4.896  11.810   2.805  0.1659 -0.0768 -0.2673
  883MOL0     C19110   4.958  11.943   2.764  1.3264 -0.0919  0.3002
  883MOL0     C19111   5.078  11.915   2.668  0.0779  0.1664  0.9036
  883MOL0     C19112   5.206  11.889   2.746  0.5916  0.0995 -0.3471
  883MOL0     C19113   5.339  11.871   2.670 -0.6981 -0.7071  0.2849
  883MOL0     C19114   5.450  11.881   2.774  0.7300 -0.5958 -0.7163
  883MOL0    Cl19115   5.465  12.061   2.821  0.4478  0.0097  0.1991
  883MOL0     C19116   4.631  11.484   3.100 -0.1342  0.0979  0.0713
  883MOL0     C19117   4.623  11.349   3.142 -0.3031  0.5594 -0.0110
  883MOL0     O19118   4.755  11.179   3.443 -0.2600 -0.3480 -0.4823
  883MOL0     C19119   4.689  10.870   3.288  0.4483  0.2085  0.2922
  883MOL0     C19120   4.693  10.725   3.319 -0.2139 -0.3670 -0.1705
  883MOL0     N19121   4.237  10.076   3.484  0.5500  0.2455  0.1629
  883MOL0     N19122   4.138  10.061   3.559  0.3125 -0.1517  0.4482
  883MOL0     C19123   4.364  10.300   3.025 -0.3435 -0.4513  0.1365
  883MOL0     C19124   4.498  10.333   2.996 -1.0107 -0.2233  1.0743
  883MOL0     C19125   4.869  10.600   2.865 -0.0293 -0.0897  0.0757
  883MOL0     C19126   4.944  10.573   2.979  0.3013  0.2652 -0.3550
  883MOL0     C19127   5.085  10.598   2.983  0.1559  0.0980  0.7009
  883MOL0     C19128   5.149  10.652   2.874 -0.3947 -0.6178  0.1479
  883MOL0     O19129   5.282  10.684   2.870  0.6216 -1.1849 -0.4006
  883MOL0     C19130   5.375  10.656   2.979 -0.3243 -1.1222  0.7822
  883MOL0     C19131   5.354  10.754   3.097  0.0696 -0.6035 -0.7098
  883MOL0     C19132   5.434  10.716   3.218 -0.3813  0.1369  0.1992
  883MOL0     C19133   5.414  10.804   3.347  0.1133 -0.8784  0.2491
  883MOL0     C19134   5.458  10.949   3.332 -0.6285  0.8654  0.3435
  883MOL0     C19135   5.492  11.065   3.345  0.3160 -0.4366  1.6814
  883MOL0     C19136   5.079  10.685   2.761 -0.1595  0.3642  0.4664
  883MOL0     C19137   4.942  10.650   2.752  0.2478  0.4660 -0.1706
  883MOL0     H19138   4.450  10.660   2.919  1.8646  0.1373  2.7737
  883MOL0     H19139   4.221  10.607   2.961 -0.6924 -1.3854 -3.5452
  883MOL0     H19140   4.067  10.174   3.005 -3.2738 -0.8847  1.6580
  883MOL0     H19141   4.146  10.220   3.157 -0.6550 -1.8810 -0.3576
  883MOL0     H19142   3.869  10.311   3.049  0.4949  1.6521 -0.9711
  883MOL0     H19143   3.899  10.172   3.161  1.1626 -0.8946 -2.7834
  883MOL0     H19144   3.994  10.354   3.323  1.1774  4.3484  1.0826
  883MOL0     H19145   3.949  10.474   3.201 -2.2943  0.1741 -0.7362
  883MOL0     H19146   3.782  10.469   3.383  0.8252 -2.1413  2.2931
  883MOL0     H19147   3.715  10.441   3.229 -0.6113 -0.7498 -0.5552
  883MOL0     H19148   3.630  10.303   3.435 -1.5018 -1.9753 -1.2743
  883MOL0     H19149   3.676  10.202   3.293  1.0393 -3.4876  2.5444
  883MOL0     H19150   3.748  10.103   3.497 -0.6347  0.0695  1.3045
  883MOL0     H19151   3.880  10.141   3.403 -0.3500  0.2637  1.0405
  883MOL0     H19152   3.881  10.368   3.548 -1.8599  0.5574  0.3880
  883MOL0     H19153   3.765  10.277   3.645 -1.7097  2.5620 -2.0839
  883MOL0     H19154   3.906  10.100   3.699 -1.5377  1.3494  0.0483
  883MOL0     H19155   3.967  10.250   3.751 -2.3892 -1.4933  1.9758
  883MOL0     H19156   4.127  10.387   3.534 -2.7493 -0.5703 -2.9749
  883MOL0     H19157   4.368  10.202   3.301  0.5567 -0.1888  0.3411
  883MOL0     H19158   4.282  10.351   3.308  0.1830  1.0374  0.6336
  883MOL0     H19159   4.521  10.254   3.478 -3.1594 -2.2848  0.1762
  883MOL0     H19160   4.441  10.412   3.501 -1.3723 -0.5755  0.3572
  883MOL0     H19161   4.520  10.491   3.277 -0.4506  1.0304  1.8307
  883MOL0     H19162   4.587  10.331   3.247 -0.9478 -0.1583 -1.3104
  883MOL0     H19163   4.774  10.477   3.329  0.5869  0.8145  1.0908
  883MOL0     H19164   4.744  10.374   3.456  1.7536  1.6872  1.5888
  883MOL0     H19165   4.710  10.744   3.651 -1.8806  1.2628  0.8807
  883MOL0     H19166   4.721  10.945   3.726  2.6658 -2.1109 -1.7750
  883MOL0     H19167   4.840  11.041   3.633 -1.2527  2.8244  1.2856
  883MOL0     H19168   4.667  11.090   3.642 -0.6427 -0.0029  2.4912
  883MOL0     H19169   4.942  11.308   3.252 -0.9236 -1.7374  2.4926
  883MOL0     H19170   4.951  11.535   3.184 -1.2408  1.3458 -0.2033
  883MOL0     H19171   4.673  11.631   2.887  1.3984 -0.6636  0.0156
  883MOL0     H19172   4.610  11.756   3.000 -0.1474  0.6235  0.0815
  883MOL0     H19173   4.700  11.864   2.796  0.5172  1.7813  0.1010
  883MOL0     H19174   4.782  11.913   2.943 -1.3715 -0.0926  0.9892
  883MOL0     H19175   4.872  11.742   2.723 -0.7573 -0.4872  0.3206
  883MOL0     H19176   4.971  11.771   2.875 -1.5324 -0.0910  1.6294
  883MOL0     H19177   4.879  11.995   2.708  2.0410  1.4793  0.6986
  883MOL0     H19178   4.980  11.998   2.856 -1.1464 -0.1836  1.0029
  883MOL0     H19179   5.108  12.001   2.608  2.2701  0.3818  2.1826
  883MOL0     H19180   5.058  11.834   2.597  1.1159  1.2687 -0.7072
  883MOL0     H19181   5.213  11.972   2.817  0.3764  0.0543 -0.2729
  883MOL0     H19182   5.193  11.797   2.805  0.3209  0.0392 -0.4985
  883MOL0     H19183   5.351  11.954   2.600 -1.3769 -0.3323  0.6079
  883MOL0     H19184   5.355  11.780   2.611  2.4097  0.2161 -0.4613
  883MOL0     H19185   5.544  11.865   2.721  1.6348  2.8469 -0.4152
  883MOL0     H19186   5.422  11.810   2.853 -0.7253  0.3151 -0.3732
  883MOL0     H19187   4.544  11.538   3.065  0.3032  1.0769  0.4555
  883MOL0     H19188   4.529  11.296   3.151 -1.1170  2.1728  1.7702
  883MOL0     H19189   4.692  10.903   3.185 -3.3875  1.4954  0.4518
  883MOL0     H19190   4.689  10.663   3.230  0.7321  3.9160 -3.5163
  883MOL0     H19191   4.342  10.198   3.054 -0.6035 -1.0966 -2.1396
  883MOL0     H19192   4.568  10.252   3.012  0.2321  0.2256 -1.6448
  883MOL0     H19193   4.887  10.549   3.068  1.8861  4.7908  2.1884
  883MOL0     H19194   5.137  10.560   3.071 -0.7629 -0.6447  0.9307
  883MOL0     H19195   5.356  10.550   2.999  0.6751 -1.3470  0.5912
  883MOL0     H19196   5.476  10.669   2.941 -0.4952  2.0899  1.1742
  883MOL0     H19197   5.247  10.760   3.122  0.5479  2.2107  1.1293
  883MOL0     H19198   5.374  10.860   3.077 -1.4998 -0.0694  0.3089
  883MOL0     H19199   5.541  10.714   3.194 -0.9733 -0.0047 -2.8200
  883MOL0     H19200   5.401  10.618   3.251 -1.1625  0.1046 -0.6545
  883MOL0     H19201   5.469  10.757   3.429 -1.1299 -3.4330 -0.2969
  883MOL0     H19202   5.309  10.803   3.377  0.0691 -1.5735  0.0906
  883MOL0     H19203   5.525  11.165   3.362  0.9366 -0.2517 -0.3728
  883MOL0     H19204   5.126  10.746   2.684  0.2540  0.4706  0.7986
  883MOL0     H19205   4.886  10.680   2.663 -0.1015  3.8398  1.0316
  884MOL0     O19206   2.502   6.978   8.415 -0.0909 -0.5825 -0.6990
  884MOL0     C19207   2.565   7.073   8.463  0.1718  0.3077  0.0787
  884MOL0     O19208   2.503   7.204   8.471 -0.0265  0.2556 -0.1428
  884MOL0     C19209   2.372   7.220   8.451  0.1028 -0.7599  0.7064
  884MOL0     C19210   2.293   7.285   8.550 -0.7971 -0.6014  0.4174
  884MOL0     C19211   2.157   7.316   8.524 -0.2826  0.6209 -0.0282
  884MOL0     C19212   2.099   7.293   8.401 -0.0454 -0.2581 -0.8571
  884MOL0     O19213   1.973   7.336   8.384  0.7453 -0.0830 -0.0520
  884MOL0     C19214   1.893   7.261   8.295  0.8205 -0.1269 -0.7792
  884MOL0     C19215   1.745   7.306   8.305 -0.8483 -0.7521 -0.2145
  884MOL0     C19216   1.656   7.199   8.236 -0.1920 -0.7050 -0.6352
  884MOL0     C19217   1.504   7.201   8.278  0.1291 -0.3203  0.0274
  884MOL0     C19218   1.414   7.100   8.208 -0.2400 -0.0790 -0.5173
  884MOL0     C19219   1.384   7.142   8.057  0.2267 -0.0731  0.4682
  884MOL0     C19220   1.330   7.289   8.028 -0.7879 -0.0257 -0.8706
  884MOL0     C19221   1.205   7.318   8.106 -0.5880  0.4546  0.3082
  884MOL0     N19222   1.098   7.233   8.054  0.5108 -0.4749 -0.3160
  884MOL0     C19223   0.986   7.277   7.978  0.0922 -0.3867 -0.5506
  884MOL0     C19224   0.905   7.168   7.956  0.0111 -0.1830  0.3920
  884MOL0     C19225   0.784   7.160   7.871 -0.6964 -0.8680 -0.6429
  884MOL0     C19226   0.656   7.174   7.949  0.1588 -0.2382 -0.1889
  884MOL0     C19227   0.631   7.058   8.052 -0.1909 -0.3213 -0.4480
  884MOL0     C19228   0.622   6.916   7.988 -0.8944 -0.3094 -0.1132
  884MOL0     O19229   0.517   6.916   7.884 -0.3541 -0.3085  0.6371
  884MOL0     C19230   0.388   6.903   7.917  0.0636  1.3453  0.2333
  884MOL0     C19231   0.333   6.897   8.040 -0.0259 -0.0291 -0.1360
  884MOL0     C19232   0.201   6.896   8.059  0.2712 -0.2073  0.4758
  884MOL0     C19233   0.141   6.927   8.191 -0.1143  0.2525  0.3765
  884MOL0     C19234   0.118   6.852   7.951 -0.3939  0.1382 -0.2153
  884MOL0     C19235  -0.018   6.802   7.967  0.3651 -0.3773  0.3370
  884MOL0     O19236  -0.034   6.683   8.034  1.2246  0.2760 -0.7570
  884MOL0     C19237  -0.169   6.654   8.045 -0.1811 -0.7234 -0.8374
  884MOL0     C19238  -0.236   6.590   7.938 -1.0235  0.2033  0.5298
  884MOL0     C19239  -0.359   6.538   7.950 -0.2963 -0.1765 -0.9683
  884MOL0     C19240  -0.431   6.548   8.075  0.5239  1.1049 -0.1336
  884MOL0     O19241  -0.557   6.500   8.085 -0.2584 -0.5175 -0.6440
  884MOL0     C19242  -0.615   6.413   7.989 -0.3089  0.2116 -0.1961
  884MOL0     C19243  -0.731   6.316   8.038  0.3430  0.0065  0.0049
  884MOL0     C19244  -0.875   6.381   8.062  0.1693 -0.7592  0.5765
  884MOL0     C19245  -0.928   6.437   7.931 -0.1361 -0.2790 -0.1716
  884MOL0     C19246  -1.058   6.512   7.952  0.3260  0.0308  0.6476
  884MOL0     C19247  -1.162   6.429   8.023  0.2480  0.4553 -0.0327
  884MOL0     C19248  -1.297   6.494   8.017  0.1292 -0.6564 -0.2088
  884MOL0     C19249  -1.405   6.424   8.103  0.2746  0.3568 -0.1242
  884MOL0    Cl19250  -1.562   6.518   8.106 -0.0625 -0.1465 -0.0083
  884MOL0     C19251  -0.360   6.592   8.184  1.0243  0.7626 -0.2353
  884MOL0     C19252  -0.234   6.655   8.173 -0.0809  0.5605 -0.4529
  884MOL0     O19253  -0.107   6.873   7.920 -0.2627 -0.4538  0.2214
  884MOL0     C19254   0.177   6.840   7.820  0.2610  0.0732 -0.9221
  884MOL0     C19255   0.303   6.879   7.807 -0.5565  0.0072 -0.6009
  884MOL0     N19256   0.967   7.068   8.023  0.1768  0.7099  0.1618
  884MOL0     N19257   1.077   7.102   8.088 -1.0805 -0.2990  0.6257
  884MOL0     C19258   2.179   7.243   8.294 -0.3246  0.1943 -0.2484
  884MOL0     C19259   2.313   7.204   8.320 -1.0631  0.3040 -1.3368
  884MOL0     C19260   2.705   7.070   8.497  0.0884  0.6477  0.6754
  884MOL0     C19261   2.783   6.965   8.444  0.2841  0.1328 -0.4069
  884MOL0     C19262   2.922   6.959   8.468 -0.1088  0.8111  0.0001
  884MOL0     C19263   2.978   7.045   8.562 -0.0684  0.3108 -0.1343
  884MOL0     O19264   3.109   7.035   8.604 -0.3223  0.4679 -0.8620
  884MOL0     C19265   3.209   6.942   8.550  0.0770 -0.0213  0.0411
  884MOL0     C19266   3.248   6.961   8.400 -0.7152 -0.4662  0.3141
  884MOL0     C19267   3.381   7.040   8.377 -0.2889  0.2705  0.5217
  884MOL0     C19268   3.496   6.952   8.435 -0.4280  1.1607  1.0799
  884MOL0     C19269   3.584   7.030   8.520 -0.4022 -0.1900 -1.5751
  884MOL0     C19270   3.650   7.109   8.580 -0.2063  0.9261  0.4789
  884MOL0     C19271   2.911   7.153   8.614  0.5575 -0.3731  0.2403
  884MOL0     C19272   2.770   7.160   8.588  0.3490 -0.2439 -0.5545
  884MOL0     H19273   2.341   7.304   8.645  4.9267 -1.0256 -1.9443
  884MOL0     H19274   2.098   7.362   8.603  2.3689  0.5789  2.1435
  884MOL0     H19275   1.930   7.281   8.194 -0.1547 -1.3167 -1.4025
  884MOL0     H19276   1.900   7.154   8.318 -2.4626  0.2262  2.7922
  884MOL0     H19277   1.711   7.328   8.407 -3.2020  4.6543 -1.7814
  884MOL0     H19278   1.739   7.404   8.255  2.5535 -1.0524 -1.4142
  884MOL0     H19279   1.654   7.233   8.132 -1.6976  2.0023  0.1842
  884MOL0     H19280   1.698   7.097   8.241  1.5408  0.0236  1.6464
  884MOL0     H19281   1.498   7.186   8.387 -1.0055  1.7203  0.2802
  884MOL0     H19282   1.470   7.303   8.258  0.0625  0.0860  1.9547
  884MOL0     H19283   1.466   7.004   8.204  0.4159  0.2977 -3.2646
  884MOL0     H19284   1.319   7.096   8.262  0.0145  2.6390  0.3034
  884MOL0     H19285   1.474   7.126   7.996 -1.1833 -2.5716 -1.1466
  884MOL0     H19286   1.315   7.066   8.019  0.1448  0.6342 -0.8637
  884MOL0     H19287   1.410   7.356   8.058 -0.4510  0.0129 -1.8312
  884MOL0     H19288   1.310   7.309   7.922  0.3132  2.7277 -0.6126
  884MOL0     H19289   1.190   7.424   8.088  2.9617  0.4838 -4.1589
  884MOL0     H19290   1.225   7.294   8.211 -1.0707 -0.5133  0.1940
  884MOL0     H19291   0.984   7.380   7.941 -1.5320  0.3303  1.3764
  884MOL0     H19292   0.785   7.252   7.812  0.1904  0.1150  0.8667
  884MOL0     H19293   0.768   7.070   7.810 -1.1308 -1.2116 -0.0386
  884MOL0     H19294   0.580   7.165   7.871  2.0756 -0.9178 -2.0780
  884MOL0     H19295   0.663   7.273   7.995 -0.2177  0.4494 -1.5518
  884MOL0     H19296   0.531   7.077   8.092 -1.7657  0.9918 -4.4638
  884MOL0     H19297   0.698   7.054   8.138 -1.1935  1.6094  0.4742
  884MOL0     H19298   0.582   6.842   8.058  0.6189 -2.1741 -1.1159
  884MOL0     H19299   0.719   6.887   7.947  0.7169  2.8888  1.0489
  884MOL0     H19300   0.391   6.906   8.131  0.7002 -0.1816 -0.5798
  884MOL0     H19301   0.080   6.846   8.233 -0.6818  1.3787  1.8455
  884MOL0     H19302   0.220   6.947   8.264  0.2363  2.2692 -0.4997
  884MOL0     H19303   0.067   7.006   8.179 -0.9832 -0.7628 -1.3700
  884MOL0     H19304  -0.183   6.579   7.844  0.6310 -4.4947  1.7323
  884MOL0     H19305  -0.414   6.507   7.861  1.3294 -3.5270 -0.9555
  884MOL0     H19306  -0.652   6.470   7.902 -2.2434  0.0062  0.4413
  884MOL0     H19307  -0.535   6.351   7.947 -0.0362  0.5882 -0.2398
  884MOL0     H19308  -0.763   6.244   7.962 -0.9005  1.2832 -0.7330
  884MOL0     H19309  -0.718   6.259   8.130 -0.8009 -1.0540 -0.4560
  884MOL0     H19310  -0.874   6.458   8.140 -0.7047  0.4480 -0.5640
  884MOL0     H19311  -0.945   6.302   8.090  0.8036 -1.9420 -1.0161
  884MOL0     H19312  -0.855   6.503   7.883 -2.0603  0.9864 -1.4913
  884MOL0     H19313  -0.946   6.350   7.868 -2.6921 -1.1272  1.5946
  884MOL0     H19314  -1.088   6.560   7.859  3.6775  0.0970 -0.5427
  884MOL0     H19315  -1.044   6.592   8.025  0.9798 -0.9563  1.6511
  884MOL0     H19316  -1.176   6.331   7.976  0.1909 -0.4392  1.7505
  884MOL0     H19317  -1.143   6.409   8.129 -1.4895 -0.9925  0.0581
  884MOL0     H19318  -1.332   6.505   7.914 -1.4788 -1.9067  0.1633
  884MOL0     H19319  -1.282   6.597   8.049  2.4727 -0.5543 -1.3843
  884MOL0     H19320  -1.372   6.422   8.208  2.1670 -1.0308 -0.6855
  884MOL0     H19321  -1.424   6.323   8.066 -1.4484  0.9787 -1.0357
  884MOL0     H19322  -0.418   6.592   8.276  0.9346  3.5403 -0.2111
  884MOL0     H19323  -0.183   6.696   8.260 -1.8957  0.1459  0.8482
  884MOL0     H19324   0.110   6.826   7.736  0.4032 -0.3165 -0.9701
  884MOL0     H19325   0.344   6.877   7.706 -2.4305  1.2670 -1.4439
  884MOL0     H19326   2.137   7.241   8.194  1.3909  4.1957 -1.2272
  884MOL0     H19327   2.372   7.162   8.239  1.4317 -1.4511  1.1776
  884MOL0     H19328   2.744   6.877   8.395  0.7160 -0.8176  0.9022
  884MOL0     H19329   2.974   6.873   8.425  1.6899  1.4598  0.7886
  884MOL0     H19330   3.302   6.968   8.603 -0.6647  0.9860  0.8822
  884MOL0     H19331   3.181   6.839   8.573 -1.5113  0.1658 -0.9531
  884MOL0     H19332   3.170   7.003   8.336 -1.5712  0.1890  1.7440
  884MOL0     H19333   3.264   6.859   8.363  3.3883  0.1208 -0.0752
  884MOL0     H19334   3.386   7.140   8.422  1.5216  0.9152 -0.9655
  884MOL0     H19335   3.394   7.051   8.269 -0.8206  2.5428  0.6311
  884MOL0     H19336   3.554   6.919   8.348 -2.5399 -1.2369  0.4400
  884MOL0     H19337   3.454   6.863   8.483  0.5596  0.0647 -0.0089
  884MOL0     H19338   3.702   7.176   8.645  0.6824 -0.2444  1.0112
  884MOL0     H19339   2.961   7.227   8.676  0.1905 -1.5306  1.9894
  884MOL0     H19340   2.705   7.232   8.637 -0.5315  0.2500 -2.3647
  885MOL0     O19341   4.140   1.413   0.702 -0.4188 -0.5475 -0.1084
  885MOL0     C19342   4.196   1.456   0.602 -0.0565 -1.0339  0.4975
  885MOL0     O19343   4.167   1.433   0.467  0.4025  0.1790  0.0753
  885MOL0     C19344   4.048   1.362   0.442  0.5722  0.9723  0.0859
  885MOL0     C19345   3.923   1.405   0.469 -0.2723  0.7568 -1.1185
  885MOL0     C19346   3.816   1.328   0.443  1.0925  0.4717 -0.4930
  885MOL0     C19347   3.827   1.194   0.400  0.5620 -0.1747 -0.6591
  885MOL0     O19348   3.719   1.109   0.377  1.0771  0.2324  0.0120
  885MOL0     C19349   3.583   1.161   0.387 -0.1403  0.0061 -0.1218
  885MOL0     C19350   3.493   1.046   0.420  0.1933 -0.6550 -0.2012
  885MOL0     C19351   3.504   0.930   0.316 -0.2572  0.1062  0.2559
  885MOL0     C19352   3.391   0.826   0.332 -0.5305 -0.5671  0.2994
  885MOL0     C19353   3.419   0.718   0.227  0.6842  0.7840 -0.5669
  885MOL0     C19354   3.290   0.637   0.189 -0.2042  0.3194 -0.2907
  885MOL0     C19355   3.182   0.718   0.113  0.2303  0.6723  0.0521
  885MOL0     C19356   3.046   0.646   0.115 -0.0926 -0.6944 -1.3193
  885MOL0     N19357   3.041   0.519   0.041  0.1293 -0.2656  0.2610
  885MOL0     C19358   3.097   0.501  -0.082  0.9570 -0.1513  0.1806
  885MOL0     C19359   3.070   0.370  -0.107  0.2157 -0.0299  0.3788
  885MOL0     C19360   3.101   0.300  -0.235 -0.2804 -0.0850  0.0167
  885MOL0     C19361   2.990   0.286  -0.340 -0.0930 -0.6145 -0.2527
  885MOL0     C19362   2.903   0.164  -0.303 -0.2431 -0.6082 -0.5656
  885MOL0     C19363   2.798   0.133  -0.418 -1.0045  0.1822 -0.6621
  885MOL0     O19364   2.700   0.060  -0.350 -0.5286 -0.4667  0.1306
  885MOL0     C19365   2.592   0.014  -0.417 -0.6111 -0.7392  1.1968
  885MOL0     C19366   2.580  -0.121  -0.437  0.9759  0.1993 -0.7490
  885MOL0     C19367   2.462  -0.185  -0.475  0.1641  0.5125 -0.0551
  885MOL0     C19368   2.462  -0.340  -0.467  0.7672  0.8328 -0.2364
  885MOL0     C19369   2.351  -0.108  -0.504 -0.1227  0.2272  0.4956
  885MOL0     C19370   2.216  -0.149  -0.536 -0.4468  0.5693  0.2595
  885MOL0     O19371   2.119  -0.049  -0.549 -0.7915  0.6333 -0.0516
  885MOL0     C19372   1.989  -0.089  -0.575 -0.2068 -0.2215 -0.5372
  885MOL0     C19373   1.909  -0.016  -0.654 -0.9266  0.5366  0.1946
  885MOL0     C19374   1.778  -0.051  -0.685 -0.5030  0.6923  0.0115
  885MOL0     C19375   1.718  -0.164  -0.639  0.1910 -0.2654  0.0036
  885MOL0     O19376   1.585  -0.173  -0.650 -0.4139 -0.5598  0.1225
  885MOL0     C19377   1.526  -0.305  -0.654 -0.3786 -0.5428  0.7253
  885MOL0     C19378   1.395  -0.300  -0.711  0.8766  0.3046 -0.9648
  885MOL0     C19379   1.329  -0.435  -0.700  0.5200 -0.2161  0.6488
  885MOL0     C19380   1.191  -0.444  -0.772 -0.3369 -0.6816  0.2876
  885MOL0     C19381   1.106  -0.567  -0.727  0.4074 -0.1832 -0.3500
  885MOL0     C19382   0.963  -0.556  -0.751  0.1608  0.1874  0.5467
  885MOL0     C19383   0.908  -0.556  -0.893  0.1776 -0.3201  0.8195
  885MOL0     C19384   0.765  -0.597  -0.903  0.7261  1.0005 -0.0609
  885MOL0    Cl19385   0.659  -0.470  -0.835  0.6916 -0.1091  0.1128
  885MOL0     C19386   1.798  -0.250  -0.558  0.4119 -0.0310 -0.0993
  885MOL0     C19387   1.924  -0.206  -0.519 -0.1511 -0.0032  0.6520
  885MOL0     O19388   2.196  -0.267  -0.566  0.2195 -0.4970 -0.1342
  885MOL0     C19389   2.366   0.028  -0.487 -0.1443 -1.0474  0.0399
  885MOL0     C19390   2.475   0.086  -0.437 -0.7337 -0.0728 -0.0847
  885MOL0     N19391   3.013   0.308  -0.002  0.1408 -0.1292  0.0756
  885MOL0     N19392   2.999   0.398   0.091  0.2196 -0.2804  0.7417
  885MOL0     C19393   3.943   1.152   0.353 -0.1191 -0.6439 -0.3497
  885MOL0     C19394   4.053   1.229   0.377  0.0761  0.2699 -0.3111
  885MOL0     C19395   4.330   1.509   0.636  0.0561  0.3636  0.6080
  885MOL0     C19396   4.352   1.568   0.762 -0.3043 -0.7484 -0.3248
  885MOL0     C19397   4.484   1.607   0.783 -0.1115  0.4550 -1.0102
  885MOL0     C19398   4.590   1.605   0.690  0.0601 -0.5230  0.2696
  885MOL0     O19399   4.706   1.653   0.736  0.3860 -0.2432 -0.4751
  885MOL0     C19400   4.806   1.695   0.644 -0.2342 -0.0894 -0.1269
  885MOL0     C19401   4.917   1.594   0.646  0.0054  0.2270  0.8200
  885MOL0     C19402   4.990   1.583   0.786 -0.2504 -0.2857  0.7714
  885MOL0     C19403   5.031   1.440   0.801  0.2202  0.3177 -0.1280
  885MOL0     C19404   5.092   1.385   0.683  0.5257 -0.3724 -0.1097
  885MOL0     C19405   5.145   1.330   0.591  0.8979  0.9667 -0.3188
  885MOL0     C19406   4.554   1.546   0.567 -0.2775  0.1188 -0.5260
  885MOL0     C19407   4.430   1.500   0.547 -0.0875  0.6228 -0.2116
  885MOL0     H19408   3.921   1.504   0.513  0.0122 -0.3213  1.4482
  885MOL0     H19409   3.726   1.386   0.460  1.1812  0.1984  1.0498
  885MOL0     H19410   3.570   1.236   0.466 -0.2048 -1.9766  1.8564
  885MOL0     H19411   3.557   1.206   0.291  0.9984  0.7774 -0.0919
  885MOL0     H19412   3.510   1.006   0.521  0.3696 -0.0541  0.0139
  885MOL0     H19413   3.392   1.086   0.424 -0.0189 -0.9257 -2.2190
  885MOL0     H19414   3.494   0.971   0.215  1.0829  0.8565  0.4145
  885MOL0     H19415   3.602   0.882   0.316  1.6403  3.3785 -3.2982
  885MOL0     H19416   3.384   0.786   0.434 -2.4564  0.1261  0.4876
  885MOL0     H19417   3.301   0.884   0.310  0.5422  1.2800  0.5932
  885MOL0     H19418   3.469   0.761   0.140  0.3164  0.2972 -1.0190
  885MOL0     H19419   3.485   0.641   0.268  0.2660  1.4868  1.5998
  885MOL0     H19420   3.324   0.561   0.119  1.0467 -0.0746  0.7215
  885MOL0     H19421   3.243   0.581   0.271 -0.3960  0.1796 -0.4951
  885MOL0     H19422   3.164   0.815   0.161  0.2017  1.0883 -0.7915
  885MOL0     H19423   3.211   0.739   0.010 -0.4101 -0.5466 -0.4084
  885MOL0     H19424   2.965   0.699   0.064 -1.4792  1.0230  2.3185
  885MOL0     H19425   3.010   0.628   0.216 -1.8542  1.1316 -1.5581
  885MOL0     H19426   3.150   0.567  -0.150  2.0183 -1.0271  0.1217
  885MOL0     H19427   3.171   0.372  -0.279 -0.4787  0.2822  0.2950
  885MOL0     H19428   3.151   0.203  -0.227 -0.8744 -0.4691 -0.7610
  885MOL0     H19429   3.023   0.285  -0.445 -1.2972  0.8164 -0.6910
  885MOL0     H19430   2.920   0.370  -0.334 -1.1174 -1.5243  4.6420
  885MOL0     H19431   2.859   0.191  -0.206  0.5372  2.2968 -0.9294
  885MOL0     H19432   2.970   0.079  -0.291  1.5924  0.8645  0.1828
  885MOL0     H19433   2.842   0.078  -0.502  0.8436 -1.0698  1.0050
  885MOL0     H19434   2.755   0.222  -0.463 -0.0127  2.7044  2.9207
  885MOL0     H19435   2.671  -0.179  -0.435  1.4416  0.7908 -2.5988
  885MOL0     H19436   2.420  -0.375  -0.562  0.1306  1.5997 -0.2383
  885MOL0     H19437   2.565  -0.376  -0.457  0.8277  0.7543 -1.0840
  885MOL0     H19438   2.402  -0.385  -0.387 -2.8611  1.6453 -2.3002
  885MOL0     H19439   1.950   0.079  -0.687  2.7133 -0.7625  0.5142
  885MOL0     H19440   1.716   0.021  -0.738  0.3651  1.9146  0.6000
  885MOL0     H19441   1.584  -0.374  -0.716 -2.7457 -0.3561 -1.9014
  885MOL0     H19442   1.520  -0.357  -0.558 -2.2633 -0.1709  0.8496
  885MOL0     H19443   1.326  -0.238  -0.652 -0.4930 -1.0205 -1.1238
  885MOL0     H19444   1.398  -0.270  -0.816  1.2948  2.3431 -0.4200
  885MOL0     H19445   1.312  -0.469  -0.597  0.7260 -3.9176 -0.3915
  885MOL0     H19446   1.392  -0.511  -0.747 -1.1697 -0.7458 -0.8610
  885MOL0     H19447   1.132  -0.353  -0.759  1.4630  0.4287  1.0396
  885MOL0     H19448   1.205  -0.446  -0.880  2.4718  0.9178  0.5371
  885MOL0     H19449   1.116  -0.573  -0.618  1.0084 -0.1564 -0.4013
  885MOL0     H19450   1.136  -0.669  -0.753  3.7503  1.2775 -2.9950
  885MOL0     H19451   0.905  -0.626  -0.690 -0.3652  1.6688  1.8190
  885MOL0     H19452   0.923  -0.468  -0.699 -2.4537 -1.5751  1.7518
  885MOL0     H19453   0.966  -0.626  -0.954 -0.7705  0.0445 -0.5346
  885MOL0     H19454   0.922  -0.460  -0.943  0.5502 -1.5311 -1.5536
  885MOL0     H19455   0.759  -0.687  -0.841  1.8358  1.7302  1.1547
  885MOL0     H19456   0.740  -0.616  -1.008  0.7455  0.0274  0.1040
  885MOL0     H19457   1.751  -0.328  -0.500  0.0001 -1.1582 -1.8601
  885MOL0     H19458   1.974  -0.265  -0.443  1.2851  1.8164  1.2021
  885MOL0     H19459   2.292   0.103  -0.514  4.2674  2.9375 -2.5387
  885MOL0     H19460   2.471   0.193  -0.420 -0.1843  0.4030 -2.5905
  885MOL0     H19461   3.945   1.057   0.301 -0.7334  0.2069 -2.0131
  885MOL0     H19462   4.148   1.201   0.333  0.0036  1.6678 -1.3945
  885MOL0     H19463   4.269   1.574   0.832 -1.6608 -2.3850 -1.6720
  885MOL0     H19464   4.505   1.636   0.886  0.1600  1.0542 -1.2262
  885MOL0     H19465   4.770   1.717   0.544  1.7255 -1.5088 -1.2243
  885MOL0     H19466   4.849   1.791   0.672 -0.7358  1.0680 -3.0064
  885MOL0     H19467   4.986   1.630   0.569 -1.5520  2.4512  0.3569
  885MOL0     H19468   4.872   1.497   0.624  0.9337  0.2177 -1.3044
  885MOL0     H19469   4.922   1.618   0.864 -0.8673  2.3399 -0.8116
  885MOL0     H19470   5.082   1.641   0.795 -0.8750  0.7860  0.5876
  885MOL0     H19471   4.942   1.382   0.828 -0.1199  0.4656 -0.9037
  885MOL0     H19472   5.096   1.440   0.889 -2.6205 -0.6529  2.1213
  885MOL0     H19473   5.193   1.277   0.512  1.5336  4.1904 -2.2826
  885MOL0     H19474   4.630   1.542   0.490  2.5069  0.0158  2.0311
  885MOL0     H19475   4.406   1.450   0.453 -3.0776 -0.9291  1.2271
  886MOL0     O19476   4.057   7.815   5.298  0.5435 -0.1287  0.6960
  886MOL0     C19477   4.081   7.869   5.406 -0.3575 -0.5664 -0.1122
  886MOL0     O19478   3.994   7.940   5.486  0.2079  0.5973 -0.2201
  886MOL0     C19479   3.863   7.953   5.438  0.2991 -0.0480  0.9576
  886MOL0     C19480   3.805   8.082   5.415  0.2209 -0.6982  0.3316
  886MOL0     C19481   3.675   8.083   5.370  0.4644 -0.7549  0.0603
  886MOL0     C19482   3.590   7.970   5.340 -0.6813  0.2680  0.5797
  886MOL0     O19483   3.466   7.970   5.306 -0.1881 -0.0136  0.4766
  886MOL0     C19484   3.379   8.078   5.349  0.2482  0.3194 -0.4126
  886MOL0     C19485   3.233   8.031   5.325 -0.9130  1.0115  0.2816
  886MOL0     C19486   3.124   8.134   5.353 -0.0344 -0.8369  0.2002
  886MOL0     C19487   3.015   8.120   5.246  0.4438  0.7316 -0.7847
  886MOL0     C19488   2.886   8.206   5.282  0.6020 -0.2406 -0.8431
  886MOL0     C19489   2.781   8.202   5.174 -0.3547  1.2073 -0.6794
  886MOL0     C19490   2.797   8.311   5.070  0.3036  0.5549 -0.2814
  886MOL0     C19491   2.673   8.309   4.980 -0.0555  0.0783 -0.1440
  886MOL0     N19492   2.673   8.411   4.874 -0.0650 -0.1484 -0.4731
  886MOL0     C19493   2.766   8.425   4.777  0.1040  0.5783 -0.5496
  886MOL0     C19494   2.711   8.513   4.689  0.7387  0.8324  0.4798
  886MOL0     C19495   2.762   8.550   4.551 -0.5830  0.2132 -0.7915
  886MOL0     C19496   2.666   8.504   4.449 -0.6734 -0.6027  0.3484
  886MOL0     C19497   2.720   8.484   4.318  0.0098  0.7398  0.7763
  886MOL0     C19498   2.794   8.598   4.253 -0.1768  0.1506  0.3239
  886MOL0     O19499   2.830   8.552   4.126 -0.0913  0.2447 -0.2407
  886MOL0     C19500   2.919   8.629   4.054  0.4509 -0.5592 -0.5727
  886MOL0     C19501   2.977   8.749   4.094  0.5161 -0.9237  0.7611
  886MOL0     C19502   3.087   8.809   4.035  1.0489 -0.9986 -0.0885
  886MOL0     C19503   3.145   8.923   4.107  0.5638 -0.1874 -0.1161
  886MOL0     C19504   3.146   8.749   3.920  0.1280  0.4839  0.1962
  886MOL0     C19505   3.272   8.787   3.846  0.0033  0.1275  0.2821
  886MOL0     O19506   3.332   8.701   3.755 -0.2952 -0.3101 -0.4069
  886MOL0     C19507   3.435   8.735   3.672  0.9974  0.2266  0.4131
  886MOL0     C19508   3.395   8.723   3.541  0.0358 -0.4066  0.4126
  886MOL0     C19509   3.491   8.750   3.442 -0.7573  0.1763 -0.1204
  886MOL0     C19510   3.628   8.790   3.480 -0.2612 -0.0027  0.3111
  886MOL0     O19511   3.716   8.836   3.379 -1.2496  0.9410  0.4565
  886MOL0     C19512   3.854   8.837   3.412 -0.5276 -0.4794  0.1653
  886MOL0     C19513   3.922   8.839   3.277  0.8132  0.6053 -0.4674
  886MOL0     C19514   4.073   8.867   3.287  0.2574 -0.4203  0.8458
  886MOL0     C19515   4.150   8.739   3.328  0.5565  0.0413 -0.3781
  886MOL0     C19516   4.294   8.745   3.268 -0.1955 -0.7067  0.8207
  886MOL0     C19517   4.388   8.636   3.321  0.8508  0.5810  0.3487
  886MOL0     C19518   4.523   8.661   3.262  0.3153 -0.5884 -0.8501
  886MOL0     C19519   4.597   8.533   3.249  0.3724  0.6770  0.6821
  886MOL0    Cl19520   4.602   8.461   3.404 -0.0204  0.2611 -0.3032
  886MOL0     C19521   3.665   8.780   3.623  0.1008  0.1419 -0.6211
  886MOL0     C19522   3.569   8.750   3.713 -0.8981 -0.0848 -0.2925
  886MOL0     O19523   3.322   8.902   3.869  0.8111 -0.1023 -0.1584
  886MOL0     C19524   3.093   8.631   3.877  0.2213  0.2357 -0.1657
  886MOL0     C19525   2.978   8.576   3.943 -0.5320 -0.1235  0.5734
  886MOL0     N19526   2.593   8.561   4.750 -0.5402  0.1799 -0.4172
  886MOL0     N19527   2.570   8.498   4.860  0.5464 -0.3277  0.0769
  886MOL0     C19528   3.651   7.847   5.354 -0.6363 -0.0838  0.2163
  886MOL0     C19529   3.785   7.839   5.403  0.4493  0.0619 -0.6431
  886MOL0     C19530   4.221   7.862   5.452 -0.3169  0.8667 -0.5911
  886MOL0     C19531   4.273   7.950   5.553 -0.1087  0.4629 -0.3628
  886MOL0     C19532   4.406   7.949   5.586 -0.1069 -0.3980  0.2353
  886MOL0     C19533   4.500   7.863   5.530 -0.2557  0.5739 -0.2826
  886MOL0     O19534   4.623   7.887   5.576  0.1613  0.7681 -0.3836
  886MOL0     C19535   4.718   7.783   5.550 -0.3656 -0.6948 -0.2705
  886MOL0     C19536   4.714   7.675   5.656 -0.0851 -0.7101  0.1165
  886MOL0     C19537   4.709   7.712   5.805 -0.4161 -0.1290  0.7913
  886MOL0     C19538   4.835   7.675   5.881 -0.5908 -0.5144  1.0613
  886MOL0     C19539   4.960   7.742   5.842  0.6655  0.1755  0.3504
  886MOL0     C19540   5.053   7.785   5.779  0.1927  0.8186 -0.6421
  886MOL0     C19541   4.447   7.753   5.448  0.4088 -0.3210 -0.6909
  886MOL0     C19542   4.316   7.764   5.404  0.1542 -0.1439 -0.7800
  886MOL0     H19543   3.863   8.170   5.441 -0.4942 -1.0164  3.4007
  886MOL0     H19544   3.625   8.179   5.360  0.1374 -0.4479  3.4566
  886MOL0     H19545   3.383   8.097   5.456 -0.5027 -5.2890  0.9562
  886MOL0     H19546   3.383   8.168   5.288 -0.8962 -0.2498 -1.3700
  886MOL0     H19547   3.238   7.996   5.222  1.1591 -1.0890  0.9925
  886MOL0     H19548   3.228   7.940   5.385 -0.3536  0.2185 -0.8430
  886MOL0     H19549   3.079   8.106   5.450  0.9671 -1.7776  0.4178
  886MOL0     H19550   3.163   8.235   5.361 -0.3882 -0.8585  3.8361
  886MOL0     H19551   3.052   8.152   5.148  0.9601  0.3609 -0.7176
  886MOL0     H19552   2.986   8.015   5.241 -1.1413  0.9385  2.0453
  886MOL0     H19553   2.844   8.169   5.376  1.8559 -0.5899 -0.4034
  886MOL0     H19554   2.931   8.305   5.291  1.7995 -0.4879 -3.3154
  886MOL0     H19555   2.788   8.103   5.127 -1.1067  0.2440  1.1559
  886MOL0     H19556   2.688   8.200   5.230 -0.1368  1.6123 -0.3011
  886MOL0     H19557   2.799   8.406   5.124  1.1777 -0.1175  0.9129
  886MOL0     H19558   2.888   8.304   5.010 -0.1460 -0.5113 -0.8568
  886MOL0     H19559   2.583   8.306   5.041  0.3706 -4.8017  0.6904
  886MOL0     H19560   2.674   8.211   4.931  2.8749 -0.3489  0.5386
  886MOL0     H19561   2.842   8.356   4.743 -1.3054  0.1080 -3.0485
  886MOL0     H19562   2.782   8.657   4.549  1.3590 -0.0506  0.8247
  886MOL0     H19563   2.852   8.491   4.535 -2.5019 -2.4833 -2.5018
  886MOL0     H19564   2.592   8.582   4.430  1.9432  1.8233 -0.4617
  886MOL0     H19565   2.629   8.407   4.483  1.2315 -1.2567  0.6777
  886MOL0     H19566   2.639   8.463   4.247 -0.4552  1.8188  0.9598
  886MOL0     H19567   2.776   8.391   4.326 -2.6517 -0.9384  1.2625
  886MOL0     H19568   2.882   8.624   4.312 -0.4413 -0.6212  1.0856
  886MOL0     H19569   2.725   8.682   4.239 -0.1037  0.1861  0.1750
  886MOL0     H19570   2.945   8.809   4.179 -0.5927  0.6333 -0.7100
  886MOL0     H19571   3.181   8.999   4.038  0.8920 -1.4954 -1.4220
  886MOL0     H19572   3.073   8.974   4.172  3.0605  2.2594  0.9573
  886MOL0     H19573   3.231   8.883   4.161  0.4423  0.9917  1.0062
  886MOL0     H19574   3.291   8.704   3.519  0.0063 -2.9295  2.2463
  886MOL0     H19575   3.478   8.736   3.335  0.2365  1.6858 -0.4752
  886MOL0     H19576   3.872   8.933   3.463  1.8060 -0.7837  0.0330
  886MOL0     H19577   3.883   8.750   3.471 -4.6744 -2.4223 -0.3023
  886MOL0     H19578   3.906   8.741   3.231  0.3209 -0.4580  1.8024
  886MOL0     H19579   3.876   8.914   3.212 -0.0203 -0.1863 -0.8078
  886MOL0     H19580   4.095   8.950   3.356  2.1310 -1.5188  1.6249
  886MOL0     H19581   4.113   8.896   3.189 -1.0428 -0.3393  0.3207
  886MOL0     H19582   4.162   8.742   3.437 -0.5404 -1.7337 -0.1704
  886MOL0     H19583   4.113   8.639   3.303  0.2871  0.1993 -0.6074
  886MOL0     H19584   4.321   8.847   3.297 -0.3562 -0.4140 -0.0175
  886MOL0     H19585   4.287   8.737   3.159  0.5653 -0.3227  0.7329
  886MOL0     H19586   4.387   8.624   3.430  1.0011 -0.8398  0.2125
  886MOL0     H19587   4.349   8.540   3.285  2.4365 -1.1097  2.8195
  886MOL0     H19588   4.582   8.715   3.337 -1.0386 -2.4586  1.7363
  886MOL0     H19589   4.534   8.707   3.164 -1.3193 -2.2119 -1.8543
  886MOL0     H19590   4.696   8.534   3.203 -0.4739 -0.4721 -1.2581
  886MOL0     H19591   4.536   8.463   3.190  1.8627 -1.2829  1.3733
  886MOL0     H19592   3.764   8.797   3.665 -0.9619  0.1745  2.0072
  886MOL0     H19593   3.586   8.743   3.820 -0.9215 -1.4185 -0.3526
  886MOL0     H19594   3.137   8.572   3.796 -2.5101 -0.7375 -1.0474
  886MOL0     H19595   2.937   8.481   3.912  2.4682 -1.5680  0.6861
  886MOL0     H19596   3.600   7.756   5.322  3.6916 -3.3476  1.7200
  886MOL0     H19597   3.815   7.736   5.415  0.1029  0.1436  1.2672
  886MOL0     H19598   4.202   8.020   5.595  0.8324  0.6617  0.9859
  886MOL0     H19599   4.453   8.020   5.653  2.5552  0.4408 -2.3209
  886MOL0     H19600   4.706   7.750   5.446 -2.0644  1.1117 -0.7263
  886MOL0     H19601   4.809   7.843   5.557  0.7653 -2.4802  0.6999
  886MOL0     H19602   4.798   7.607   5.637 -0.2957 -0.5430 -1.5300
  886MOL0     H19603   4.624   7.615   5.644 -0.4557 -1.5554  5.1250
  886MOL0     H19604   4.624   7.662   5.851  0.3495 -0.1424  2.2296
  886MOL0     H19605   4.693   7.819   5.822  0.9204  0.4184 -1.0863
  886MOL0     H19606   4.863   7.569   5.884  2.3022  0.1828  1.2429
  886MOL0     H19607   4.833   7.703   5.986 -0.0677  0.3212  0.8533
  886MOL0     H19608   5.141   7.827   5.735 -1.1324  1.8102 -2.4539
  886MOL0     H19609   4.510   7.667   5.429  0.0270 -0.5000 -1.1378
  886MOL0     H19610   4.280   7.684   5.341  0.8130 -0.1964 -1.0939
  887MOL0     O19611   1.417   9.492   7.763  0.2004 -0.5306  0.5513
  887MOL0     C19612   1.493   9.447   7.678 -0.2806 -0.1465 -0.4101
  887MOL0     O19613   1.467   9.412   7.549 -0.7125  0.0417  0.3085
  887MOL0     C19614   1.344   9.441   7.498 -0.3986 -1.0307  0.2886
  887MOL0     C19615   1.296   9.354   7.400  0.3412 -0.7760 -0.1822
  887MOL0     C19616   1.164   9.368   7.363  0.9125  0.4185 -0.6285
  887MOL0     C19617   1.075   9.457   7.419  0.6769 -0.2956  0.3090
  887MOL0     O19618   0.936   9.460   7.396  0.0798  0.5639 -0.2754
  887MOL0     C19619   0.874   9.341   7.340  0.4701  0.0178 -0.6779
  887MOL0     C19620   0.722   9.379   7.344 -0.2618  0.2903  0.6723
  887MOL0     C19621   0.645   9.284   7.257 -0.6077  0.4268  0.6434
  887MOL0     C19622   0.652   9.321   7.106 -0.6831 -0.1718 -0.0266
  887MOL0     C19623   0.531   9.270   7.029  0.3525  0.4097 -0.8679
  887MOL0     C19624   0.518   9.123   7.046 -0.1128  0.6102  0.2053
  887MOL0     C19625   0.410   9.062   6.943 -1.0838 -0.1564  0.0130
  887MOL0     C19626   0.285   9.144   6.932 -0.6156  0.4610 -1.4437
  887MOL0     N19627   0.186   9.071   6.851 -0.4609 -0.3535 -0.0266
  887MOL0     C19628   0.143   8.946   6.871  0.3967  0.2565  0.7199
  887MOL0     C19629   0.059   8.916   6.766 -0.2831 -0.1997  0.9292
  887MOL0     C19630  -0.037   8.795   6.748 -0.7636 -0.3813 -0.4114
  887MOL0     C19631  -0.012   8.732   6.617 -0.4621 -0.2208  0.3692
  887MOL0     C19632  -0.072   8.597   6.613  0.4242  0.0286  0.2992
  887MOL0     C19633  -0.226   8.591   6.630  0.2017  0.7345 -0.9048
  887MOL0     O19634  -0.303   8.629   6.516 -0.0014 -0.0689  0.3681
  887MOL0     C19635  -0.437   8.601   6.543 -0.0021 -0.6697 -0.5239
  887MOL0     C19636  -0.494   8.486   6.490 -0.8019  0.1867 -0.8067
  887MOL0     C19637  -0.629   8.449   6.531  0.6259 -0.4352 -0.5721
  887MOL0     C19638  -0.672   8.307   6.493  0.0265 -0.3228  0.6196
  887MOL0     C19639  -0.713   8.531   6.611 -0.2961 -0.6851 -1.3239
  887MOL0     C19640  -0.854   8.502   6.655 -1.1562  0.4713  0.7007
  887MOL0     O19641  -0.937   8.607   6.645 -0.2673  0.1493 -1.6036
  887MOL0     C19642  -1.071   8.577   6.667 -0.0350 -0.8911 -0.7014
  887MOL0     C19643  -1.163   8.641   6.581  0.1557 -0.3314 -1.0195
  887MOL0     C19644  -1.305   8.636   6.608  1.0327  0.5824 -0.0920
  887MOL0     C19645  -1.353   8.564   6.716 -0.1031  0.3437 -0.0485
  887MOL0     O19646  -1.490   8.554   6.732  0.6121 -0.1869  0.1243
  887MOL0     C19647  -1.554   8.566   6.862  0.4715  0.1618 -0.0210
  887MOL0     C19648  -1.545   8.709   6.921  0.4179 -0.6574 -0.1718
  887MOL0     C19649  -1.609   8.838   6.860  0.2135  1.0586 -0.2947
  887MOL0     C19650  -1.639   8.844   6.706  0.1314  0.4628 -0.1683
  887MOL0     C19651  -1.688   8.989   6.678  0.1994  0.0763  0.9868
  887MOL0     C19652  -1.692   9.022   6.528 -0.0445 -0.5524 -0.3792
  887MOL0     C19653  -1.754   9.161   6.513  0.0047  0.5149 -0.6453
  887MOL0     C19654  -1.756   9.221   6.371  0.1523 -0.0025  0.1264
  887MOL0    Cl19655  -1.589   9.248   6.322 -0.3240  0.2978 -0.1570
  887MOL0     C19656  -1.263   8.502   6.802  0.3741 -0.3911 -0.9245
  887MOL0     C19657  -1.128   8.503   6.775 -0.5408 -0.7701 -0.0021
  887MOL0     O19658  -0.887   8.384   6.690  0.0916  0.2880 -0.2326
  887MOL0     C19659  -0.654   8.653   6.646 -0.2217  1.0253  0.1003
  887MOL0     C19660  -0.520   8.679   6.617 -0.8830 -0.0934 -0.3585
  887MOL0     N19661   0.056   9.030   6.687  0.5755 -0.6364 -0.2258
  887MOL0     N19662   0.138   9.119   6.733  1.5265 -0.0407 -0.0438
  887MOL0     C19663   1.127   9.552   7.501  0.0977  0.0526  0.0922
  887MOL0     C19664   1.260   9.555   7.533  0.1138 -0.5902 -0.3189
  887MOL0     C19665   1.627   9.424   7.715 -0.6027  0.1964  0.5967
  887MOL0     C19666   1.654   9.398   7.852 -0.8507  0.4271  0.4589
  887MOL0     C19667   1.793   9.379   7.886  0.8490  0.2382  0.2643
  887MOL0     C19668   1.898   9.392   7.800  0.3930  0.3744 -0.5100
  887MOL0     O19669   2.027   9.371   7.844 -0.1420 -0.7860 -1.1426
  887MOL0     C19670   2.087   9.249   7.804 -0.4008 -0.1485  0.6151
  887MOL0     C19671   2.213   9.276   7.710  0.0214 -1.2551  0.0420
  887MOL0     C19672   2.338   9.329   7.784 -0.3990 -0.1365  0.1556
  887MOL0     C19673   2.454   9.342   7.678 -0.1440 -0.1548 -0.3064
  887MOL0     C19674   2.563   9.421   7.750 -0.5888 -0.6796 -0.0576
  887MOL0     C19675   2.652   9.485   7.814 -0.5974 -0.4009 -0.1420
  887MOL0     C19676   1.866   9.404   7.669 -0.3333  0.4933  0.6520
  887MOL0     C19677   1.739   9.424   7.624  0.2961 -0.5782 -0.2754
  887MOL0     H19678   1.365   9.288   7.349  1.3043 -1.0919  1.4697
  887MOL0     H19679   1.124   9.304   7.284 -0.6044 -2.8750  2.5171
  887MOL0     H19680   0.913   9.327   7.239  3.4595 -0.8289  0.5012
  887MOL0     H19681   0.903   9.250   7.394 -0.3017 -0.8613 -1.6984
  887MOL0     H19682   0.697   9.362   7.449 -1.0622 -0.5167  0.3700
  887MOL0     H19683   0.708   9.484   7.316  2.9832  1.0248  1.4281
  887MOL0     H19684   0.680   9.182   7.275 -0.8355 -0.4554 -3.1266
  887MOL0     H19685   0.540   9.273   7.287 -1.1963 -0.2310 -1.4661
  887MOL0     H19686   0.651   9.428   7.085 -0.8209  0.0041  0.8495
  887MOL0     H19687   0.741   9.274   7.063 -0.6969 -0.4760  0.2642
  887MOL0     H19688   0.448   9.322   7.078  2.2757  2.7272  0.1478
  887MOL0     H19689   0.528   9.289   6.921 -0.7046  0.8109 -0.7845
  887MOL0     H19690   0.607   9.064   7.023 -0.9200 -0.3686 -0.4904
  887MOL0     H19691   0.500   9.109   7.153  2.1463  1.3873  0.7462
  887MOL0     H19692   0.439   9.052   6.838 -1.3537 -0.6140 -0.0216
  887MOL0     H19693   0.391   8.957   6.968 -1.1011  0.0973  1.0888
  887MOL0     H19694   0.297   9.246   6.893 -4.8068  1.6964 -0.0797
  887MOL0     H19695   0.235   9.146   7.029 -3.6393 -1.5075 -2.8044
  887MOL0     H19696   0.157   8.888   6.962  1.1974 -1.2299 -0.3139
  887MOL0     H19697  -0.016   8.716   6.821  0.8538 -2.4000 -2.8935
  887MOL0     H19698  -0.139   8.831   6.759 -0.0572  1.8214 -0.5076
  887MOL0     H19699   0.097   8.734   6.616 -0.4068  2.2895  1.7672
  887MOL0     H19700  -0.039   8.803   6.538 -0.1616  0.5025  0.9049
  887MOL0     H19701  -0.018   8.535   6.685  0.0467 -0.6571  0.0020
  887MOL0     H19702  -0.052   8.547   6.518 -0.7469 -0.0301  0.0619
  887MOL0     H19703  -0.251   8.653   6.717  0.4325  1.6764 -1.5020
  887MOL0     H19704  -0.247   8.486   6.652  1.8130  0.9465  2.1369
  887MOL0     H19705  -0.442   8.412   6.430  1.0005 -0.1905  1.0743
  887MOL0     H19706  -0.592   8.241   6.459 -0.3209 -0.6037  0.3425
  887MOL0     H19707  -0.702   8.251   6.583  0.1714 -1.8630 -0.2540
  887MOL0     H19708  -0.761   8.301   6.431 -0.5459  0.1557  1.3778
  887MOL0     H19709  -1.127   8.687   6.489 -2.9244 -0.8836 -2.6380
  887MOL0     H19710  -1.375   8.689   6.546  0.1141  1.0462  1.3045
  887MOL0     H19711  -1.662   8.551   6.851 -0.1076  2.2869  1.9735
  887MOL0     H19712  -1.516   8.503   6.942 -0.4358 -3.1164 -1.9711
  887MOL0     H19713  -1.583   8.701   7.023 -2.4958  0.4964 -1.0552
  887MOL0     H19714  -1.437   8.727   6.931  0.6325 -1.8610 -0.2514
  887MOL0     H19715  -1.565   8.929   6.903 -0.4810  0.7782  1.0612
  887MOL0     H19716  -1.707   8.837   6.909  1.2210  0.1100  1.8587
  887MOL0     H19717  -1.546   8.817   6.656  1.3669  1.6634  1.3897
  887MOL0     H19718  -1.719   8.772   6.687  2.0212 -1.4867 -1.1807
  887MOL0     H19719  -1.629   9.063   6.731 -1.2369  2.2570 -0.2967
  887MOL0     H19720  -1.792   8.978   6.710 -1.2690 -3.2861 -3.7484
  887MOL0     H19721  -1.594   9.018   6.479 -0.3455 -0.8487 -0.9621
  887MOL0     H19722  -1.757   8.953   6.472 -0.6058 -0.9236  0.7032
  887MOL0     H19723  -1.703   9.235   6.577  1.4343 -0.8035 -0.1846
  887MOL0     H19724  -1.860   9.151   6.536 -0.2069 -2.1126 -2.3362
  887MOL0     H19725  -1.809   9.317   6.374 -0.6747 -0.3892 -1.0878
  887MOL0     H19726  -1.806   9.156   6.297  0.0323 -2.5458  2.2945
  887MOL0     H19727  -1.286   8.446   6.892 -1.4264 -2.2285 -2.4118
  887MOL0     H19728  -1.064   8.446   6.843  1.2796  1.2561  0.1103
  887MOL0     H19729  -0.706   8.735   6.693  2.0926  2.1745  0.8081
  887MOL0     H19730  -0.485   8.778   6.646 -0.4059 -0.3278 -0.1177
  887MOL0     H19731   1.050   9.623   7.531 -2.7816 -3.4916  1.9074
  887MOL0     H19732   1.306   9.627   7.600  1.1538 -0.8380 -0.7423
  887MOL0     H19733   1.569   9.374   7.915  1.0483 -4.2889  1.6815
  887MOL0     H19734   1.820   9.346   7.986 -1.9537  0.8923  1.3210
  887MOL0     H19735   2.111   9.193   7.895  2.9005 -0.5081 -0.3128
  887MOL0     H19736   2.020   9.182   7.749 -2.5694  2.9287 -0.7392
  887MOL0     H19737   2.177   9.351   7.639  3.4731  0.1517 -0.3933
  887MOL0     H19738   2.238   9.185   7.653 -2.2816 -2.4101  0.7328
  887MOL0     H19739   2.367   9.267   7.869  1.2361  2.2112  1.4236
  887MOL0     H19740   2.313   9.427   7.827 -2.2116 -1.2529  1.7605
  887MOL0     H19741   2.422   9.392   7.587  0.5970  0.4360 -0.2479
  887MOL0     H19742   2.489   9.241   7.655 -1.7820 -0.6772 -0.6134
  887MOL0     H19743   2.719   9.526   7.887  0.4255 -1.4988 -0.4385
  887MOL0     H19744   1.946   9.405   7.595  0.5912 -1.0281  1.5866
  887MOL0     H19745   1.720   9.451   7.520 -0.5744 -0.4223 -0.0849
  888MOL0     O19746   6.451   7.449   4.665  0.0685  0.1587 -0.3442
  888MOL0     C19747   6.455   7.344   4.602 -0.3100  0.0198  0.0601
  888MOL0     O19748   6.351   7.267   4.585 -0.3800 -0.2587  0.4192
  888MOL0     C19749   6.238   7.301   4.657  0.3855  0.2569  0.5403
  888MOL0     C19750   6.225   7.262   4.798  0.4161 -1.0719  0.3943
  888MOL0     C19751   6.119   7.313   4.870 -0.5925 -0.2346 -0.1804
  888MOL0     C19752   6.022   7.400   4.815 -0.5271  0.4552 -0.1542
  888MOL0     O19753   5.920   7.430   4.901  0.3012  0.3646 -0.0816
  888MOL0     C19754   5.873   7.563   4.892 -0.0836  0.2935 -0.0350
  888MOL0     C19755   5.969   7.663   4.956  0.4402 -0.1878 -0.6768
  888MOL0     C19756   5.920   7.807   4.948  0.6469 -0.3134  0.5206
  888MOL0     C19757   5.795   7.833   5.040 -0.0365  0.2255 -0.0825
  888MOL0     C19758   5.733   7.971   5.006  0.2475 -0.7679  0.0183
  888MOL0     C19759   5.616   8.004   5.098  0.3614 -0.3347 -0.0502
  888MOL0     C19760   5.558   8.152   5.082  0.0051 -0.0880  0.1065
  888MOL0     C19761   5.525   8.190   4.944 -0.5011  0.2933 -0.9867
  888MOL0     N19762   5.421   8.111   4.872  0.1387 -0.1303  0.4843
  888MOL0     C19763   5.447   8.016   4.774  0.0059  0.2342 -0.3176
  888MOL0     C19764   5.326   7.968   4.741 -0.5675  0.3205 -0.1280
  888MOL0     C19765   5.289   7.851   4.647  0.1253 -0.3965 -0.6120
  888MOL0     C19766   5.324   7.882   4.501  0.4099 -0.4383 -0.1010
  888MOL0     C19767   5.306   7.779   4.395  0.5754  0.3330  0.0008
  888MOL0     C19768   5.170   7.790   4.321 -0.0560  0.3155 -0.0198
  888MOL0     O19769   5.062   7.788   4.419 -0.0505 -0.0832  0.6731
  888MOL0     C19770   4.946   7.850   4.403  0.3513  0.1608  0.3318
  888MOL0     C19771   4.872   7.867   4.523 -0.0875 -0.0581  0.7002
  888MOL0     C19772   4.739   7.924   4.514  0.2383  1.0974 -0.0396
  888MOL0     C19773   4.658   7.922   4.641 -0.1893 -0.0791 -0.1144
  888MOL0     C19774   4.683   7.976   4.386  0.1958  0.8023  0.8877
  888MOL0     C19775   4.545   8.037   4.370 -0.1056  0.3212  0.0195
  888MOL0     O19776   4.470   8.054   4.482  0.0391  0.3659  0.1486
  888MOL0     C19777   4.332   8.073   4.482  0.4042  0.0687  0.2258
  888MOL0     C19778   4.257   8.117   4.376 -0.7212 -0.2552  0.4134
  888MOL0     C19779   4.128   8.156   4.381  0.2360 -0.2801 -0.6293
  888MOL0     C19780   4.057   8.146   4.505 -0.4492 -0.6214 -0.9438
  888MOL0     O19781   3.924   8.163   4.526  0.1694  0.5231 -0.1395
  888MOL0     C19782   3.856   8.208   4.409 -0.8145  0.0866 -0.1141
  888MOL0     C19783   3.718   8.238   4.468 -0.5552  0.1637 -0.1449
  888MOL0     C19784   3.615   8.281   4.359 -0.7786  0.2161 -0.3964
  888MOL0     C19785   3.591   8.180   4.233  0.1811 -0.1654  0.3389
  888MOL0     C19786   3.469   8.213   4.152  0.0409  0.7096 -0.7033
  888MOL0     C19787   3.451   8.368   4.133 -0.3040  0.0503 -0.1557
  888MOL0     C19788   3.336   8.389   4.029  0.3138 -0.1937 -0.1540
  888MOL0     C19789   3.206   8.323   4.064 -0.2487 -0.1324  0.5242
  888MOL0    Cl19790   3.148   8.378   4.220 -0.3809  0.4428  0.2379
  888MOL0     C19791   4.138   8.099   4.617 -0.5324 -0.2443 -0.1342
  888MOL0     C19792   4.266   8.064   4.603 -0.0108 -0.3390 -1.1331
  888MOL0     O19793   4.514   8.061   4.253 -0.4621 -0.4574 -0.4511
  888MOL0     C19794   4.760   7.953   4.267 -0.6909 -0.2159  0.6424
  888MOL0     C19795   4.889   7.890   4.282 -0.0885 -0.1208  0.0493
  888MOL0     N19796   5.230   8.026   4.822 -0.0990 -0.2397  0.0044
  888MOL0     N19797   5.289   8.112   4.899 -0.0323 -0.4772  0.2356
  888MOL0     C19798   6.030   7.427   4.678  0.4106  0.3782  1.0182
  888MOL0     C19799   6.142   7.383   4.599  0.2099 -0.1724  1.1843
  888MOL0     C19800   6.589   7.310   4.539  0.3140  0.3865  0.4714
  888MOL0     C19801   6.714   7.360   4.586 -0.6868 -0.2990  0.2877
  888MOL0     C19802   6.834   7.308   4.539 -1.2583  0.6270 -0.1657
  888MOL0     C19803   6.828   7.213   4.430 -0.0113 -0.9545  0.6422
  888MOL0     O19804   6.936   7.163   4.362 -0.1839 -0.3425  0.0756
  888MOL0     C19805   7.065   7.214   4.401  0.7708 -0.0191  0.8197
  888MOL0     C19806   7.174   7.146   4.313 -0.9469 -0.2037 -0.2026
  888MOL0     C19807   7.308   7.119   4.395 -0.1171 -0.1367 -0.4892
  888MOL0     C19808   7.437   7.083   4.307  0.1776  0.0266  0.0633
  888MOL0     C19809   7.412   6.960   4.227 -0.1471  0.7014 -0.0523
  888MOL0     C19810   7.383   6.867   4.158  0.0122  0.8444  0.3175
  888MOL0     C19811   6.703   7.175   4.378 -0.2005 -0.4941  0.6611
  888MOL0     C19812   6.586   7.214   4.441  0.2860 -0.1667 -0.3970
  888MOL0     H19813   6.301   7.194   4.837  1.7466  0.5827  0.7660
  888MOL0     H19814   6.112   7.284   4.974  0.2119  1.9732  0.5487
  888MOL0     H19815   5.846   7.587   4.788 -3.3553  1.1876  0.8933
  888MOL0     H19816   5.782   7.565   4.953  0.5996 -1.7002  1.1293
  888MOL0     H19817   5.969   7.656   5.065  2.2055  2.3181 -0.4313
  888MOL0     H19818   6.069   7.662   4.912  0.6680 -2.2104 -0.1989
  888MOL0     H19819   5.992   7.883   4.981 -0.7620  0.7496  1.2864
  888MOL0     H19820   5.880   7.828   4.848  0.5566 -1.1798  0.3654
  888MOL0     H19821   5.713   7.761   5.035 -1.1813  1.3510  1.5173
  888MOL0     H19822   5.832   7.826   5.143  0.1745 -4.8322 -0.2340
  888MOL0     H19823   5.814   8.044   5.017 -1.6053  1.4381 -0.3759
  888MOL0     H19824   5.699   7.973   4.902 -0.6644  2.8840  0.2595
  888MOL0     H19825   5.544   7.923   5.089  0.9779 -1.2826  2.6990
  888MOL0     H19826   5.653   7.995   5.201  0.2275  1.5053  0.2079
  888MOL0     H19827   5.464   8.146   5.139 -1.1562 -3.3403 -1.8600
  888MOL0     H19828   5.642   8.207   5.125  1.0832 -1.7107  0.1956
  888MOL0     H19829   5.616   8.186   4.883  2.8976 -1.5304  3.6046
  888MOL0     H19830   5.494   8.294   4.940 -0.9357  0.4260  2.6993
  888MOL0     H19831   5.545   7.995   4.731  1.0851 -0.1903  2.1883
  888MOL0     H19832   5.345   7.765   4.684 -1.6299 -0.6854  1.6178
  888MOL0     H19833   5.182   7.829   4.649 -0.0564  0.4442  0.7170
  888MOL0     H19834   5.430   7.908   4.503  0.9591 -2.4521  1.5450
  888MOL0     H19835   5.263   7.970   4.482 -0.7141 -0.8496  1.3526
  888MOL0     H19836   5.312   7.679   4.438 -0.3654  0.2748  0.0285
  888MOL0     H19837   5.383   7.786   4.317 -0.1968  0.8437 -0.7348
  888MOL0     H19838   5.156   7.716   4.240  1.9334  0.9852 -1.0297
  888MOL0     H19839   5.167   7.885   4.266 -2.9734 -0.3539 -1.2307
  888MOL0     H19840   4.917   7.826   4.613 -0.1162 -0.9307  0.3292
  888MOL0     H19841   4.576   7.852   4.622  0.8323 -0.5529 -3.4146
  888MOL0     H19842   4.714   7.881   4.726 -0.0206  2.5021  1.1000
  888MOL0     H19843   4.617   8.022   4.653  1.4177  0.6261 -0.1612
  888MOL0     H19844   4.293   8.135   4.275 -0.3271 -0.7706  0.4598
  888MOL0     H19845   4.087   8.196   4.289  4.1810  2.4837 -1.4556
  888MOL0     H19846   3.900   8.290   4.351  0.3414 -1.3972 -1.4509
  888MOL0     H19847   3.844   8.128   4.336  0.9910 -1.1770  0.8911
  888MOL0     H19848   3.674   8.155   4.523 -0.2917  0.7698  1.0327
  888MOL0     H19849   3.730   8.322   4.538 -0.0306  0.6059 -0.7503
  888MOL0     H19850   3.651   8.375   4.315  3.0357 -0.5937  0.6814
  888MOL0     H19851   3.516   8.306   4.399 -0.0177  4.2020 -0.5707
  888MOL0     H19852   3.672   8.185   4.160  2.1937  0.0532  2.4712
  888MOL0     H19853   3.580   8.077   4.268 -2.4923  0.4786  1.6482
  888MOL0     H19854   3.382   8.174   4.205 -0.7588 -0.1432 -2.5718
  888MOL0     H19855   3.486   8.158   4.059  1.6210 -0.2553  0.1151
  888MOL0     H19856   3.418   8.419   4.224  1.6681 -0.0734  0.6743
  888MOL0     H19857   3.544   8.415   4.099 -0.2458 -1.1514 -1.8248
  888MOL0     H19858   3.358   8.344   3.932 -1.5427  0.3481 -0.8762
  888MOL0     H19859   3.319   8.497   4.023  1.8306  0.1601  1.3862
  888MOL0     H19860   3.213   8.215   4.051 -1.5835  0.1108 -3.5573
  888MOL0     H19861   3.124   8.359   4.001  0.0564 -0.9992 -0.3868
  888MOL0     H19862   4.074   8.091   4.705 -0.8281  1.7977 -0.1196
  888MOL0     H19863   4.325   8.027   4.687 -2.4063 -1.9424 -0.0442
  888MOL0     H19864   4.721   7.983   4.170  0.6769 -1.8207 -0.4596
  888MOL0     H19865   4.939   7.876   4.187  0.0198 -1.4172  0.2802
  888MOL0     H19866   5.967   7.474   4.603  3.0256 -2.0471 -3.0707
  888MOL0     H19867   6.148   7.398   4.491  0.6410  0.4372  1.2879
  888MOL0     H19868   6.732   7.437   4.661  2.7375 -0.0134 -0.6554
  888MOL0     H19869   6.927   7.348   4.578  0.9740 -0.4694 -3.7762
  888MOL0     H19870   7.063   7.323   4.397 -1.3081 -0.0064  1.1835
  888MOL0     H19871   7.086   7.191   4.506  0.8440  0.7674  0.9834
  888MOL0     H19872   7.213   7.209   4.233  1.0808  0.7293  1.4056
  888MOL0     H19873   7.135   7.051   4.276 -1.3921  0.4342 -1.4366
  888MOL0     H19874   7.276   7.041   4.465 -2.2443 -0.1616 -1.4176
  888MOL0     H19875   7.338   7.206   4.454  0.6058 -3.0521  3.8468
  888MOL0     H19876   7.515   7.054   4.378 -1.2057 -1.6543  0.9631
  888MOL0     H19877   7.464   7.168   4.244  0.4124 -0.4340 -0.4784
  888MOL0     H19878   7.373   6.775   4.105 -0.4917 -0.1934  2.1155
  888MOL0     H19879   6.698   7.109   4.292  0.3872  1.4517 -0.9445
  888MOL0     H19880   6.491   7.184   4.399  0.4477  0.8225 -1.5200
  889MOL0     O19881   4.501   6.854   9.720  0.4419 -0.2978 -0.5269
  889MOL0     C19882   4.545   6.766   9.645 -0.0413 -0.6800 -0.2889
  889MOL0     O19883   4.469   6.671   9.588  0.0194 -0.4971 -0.6330
  889MOL0     C19884   4.328   6.689   9.600 -1.1234 -0.2125 -0.1940
  889MOL0     C19885   4.269   6.806   9.554 -1.2414 -0.4201  0.0983
  889MOL0     C19886   4.132   6.826   9.567  0.3190 -0.1975 -0.4060
  889MOL0     C19887   4.044   6.733   9.629  1.2130  0.5025 -0.0940
  889MOL0     O19888   3.915   6.769   9.652  0.3458 -0.5076 -0.4027
  889MOL0     C19889   3.844   6.696   9.758  1.1248  0.1503 -0.7582
  889MOL0     C19890   3.725   6.783   9.803 -0.0877  0.5804 -0.1359
  889MOL0     C19891   3.633   6.682   9.878  0.2248 -0.1119 -0.6656
  889MOL0     C19892   3.493   6.740   9.905  0.5416 -0.6302  1.0552
  889MOL0     C19893   3.407   6.648   9.990 -0.4402 -0.6514 -0.8732
  889MOL0     C19894   3.265   6.714  10.008 -0.1396 -0.3727  0.3575
  889MOL0     C19895   3.153   6.620  10.056 -0.2339 -0.7693  0.0042
  889MOL0     C19896   3.018   6.662   9.991  0.1531 -0.4229 -0.2146
  889MOL0     N19897   2.934   6.549  10.038  0.1797 -0.8459 -0.0352
  889MOL0     C19898   2.909   6.440   9.963  0.5344 -0.0981  0.1762
  889MOL0     C19899   2.861   6.342  10.050  0.2057  0.0942  0.0309
  889MOL0     C19900   2.832   6.194  10.028  1.6948  0.9899  0.6380
  889MOL0     C19901   2.688   6.153  10.082  0.0001  0.2300  1.1918
  889MOL0     C19902   2.581   6.196   9.975 -0.3800 -0.0586  0.3249
  889MOL0     C19903   2.438   6.146  10.018  0.0649 -0.4123  0.4559
  889MOL0     O19904   2.420   6.025   9.956  0.4856  0.2243  0.0702
  889MOL0     C19905   2.302   5.958   9.964  0.3290  0.7711 -0.2780
  889MOL0     C19906   2.313   5.815   9.955  0.1549  0.2438 -0.5644
  889MOL0     C19907   2.200   5.739   9.976  0.0957  1.0857 -0.0346
  889MOL0     C19908   2.231   5.589   9.987 -0.2695  0.0002 -0.7240
  889MOL0     C19909   2.079   5.794  10.011  0.1743  0.3634 -0.1533
  889MOL0     C19910   1.966   5.716  10.049  0.1103 -1.0017 -0.1694
  889MOL0     O19911   1.842   5.749   9.994  0.3965 -0.4265  0.4149
  889MOL0     C19912   1.723   5.698  10.034 -0.3940 -0.1156 -1.1048
  889MOL0     C19913   1.693   5.617  10.152 -0.8704 -0.1177 -0.9358
  889MOL0     C19914   1.554   5.603  10.171 -0.7505 -1.3303 -0.1643
  889MOL0     C19915   1.453   5.650  10.089 -0.2782  0.3768 -0.4100
  889MOL0     O19916   1.325   5.617  10.124 -0.0343 -0.3833  0.3394
  889MOL0     C19917   1.243   5.721  10.187  0.0652  0.3499  0.1864
  889MOL0     C19918   1.312   5.772  10.315  0.6813 -0.6629  0.7004
  889MOL0     C19919   1.234   5.892  10.365  0.8805  0.7310 -0.1453
  889MOL0     C19920   1.308   5.963  10.475  0.1883 -0.9861 -0.4583
  889MOL0     C19921   1.220   6.076  10.548  0.5849 -0.6770  0.6530
  889MOL0     C19922   1.286   6.129  10.682 -0.2287 -0.8939  0.3755
  889MOL0     C19923   1.230   6.267  10.731 -0.7438  0.1375 -0.6940
  889MOL0     C19924   1.220   6.387  10.642 -0.0255 -1.1191 -0.1372
  889MOL0    Cl19925   1.141   6.523  10.718  0.1108  0.0935  0.2585
  889MOL0     C19926   1.489   5.738   9.990 -0.4665  0.0966 -0.0132
  889MOL0     C19927   1.628   5.760   9.961  0.7154 -1.1661 -0.5374
  889MOL0     O19928   1.985   5.665  10.161  0.5300 -0.2109 -0.7675
  889MOL0     C19929   2.073   5.928  10.001  0.5460  0.1147 -0.3992
  889MOL0     C19930   2.179   6.013   9.979  0.5155  0.1366 -0.8016
  889MOL0     N19931   2.832   6.414  10.168 -0.0055  0.4356 -0.3280
  889MOL0     N19932   2.878   6.533  10.160 -0.0536 -0.0385 -0.5537
  889MOL0     C19933   4.111   6.612   9.672 -0.2352  0.2252  0.2870
  889MOL0     C19934   4.248   6.592   9.653 -0.6000  0.0008 -0.5714
  889MOL0     C19935   4.692   6.763   9.627 -0.3377 -0.4910  0.4523
  889MOL0     C19936   4.758   6.882   9.658 -0.4380 -0.1207  0.0362
  889MOL0     C19937   4.899   6.885   9.660  0.7315 -0.1250  0.1027
  889MOL0     C19938   4.974   6.775   9.620 -0.3712 -0.6718  0.2294
  889MOL0     O19939   5.111   6.781   9.626 -0.0247 -0.5994  0.1631
  889MOL0     C19940   5.177   6.907   9.621 -0.6203 -0.5209  0.0534
  889MOL0     C19941   5.328   6.904   9.661 -0.5166 -0.3284 -0.1606
  889MOL0     C19942   5.406   6.811   9.567  0.1983  0.4098 -0.8790
  889MOL0     C19943   5.548   6.838   9.526  0.1001 -0.3176  0.3404
  889MOL0     C19944   5.627   6.712   9.488  0.6836  0.5104 -0.0897
  889MOL0     C19945   5.684   6.603   9.480  0.6584 -0.0702 -0.1124
  889MOL0     C19946   4.905   6.657   9.575 -0.3372 -0.2109 -0.7014
  889MOL0     C19947   4.770   6.659   9.579  0.6669  0.6304  0.0146
  889MOL0     H19948   4.330   6.877   9.500 -1.6723  1.3212  1.7633
  889MOL0     H19949   4.093   6.912   9.514 -0.0532  1.1027  1.8651
  889MOL0     H19950   3.807   6.604   9.712  0.9167  0.6959 -1.7047
  889MOL0     H19951   3.904   6.673   9.847 -0.3952 -0.0227  0.2705
  889MOL0     H19952   3.772   6.853   9.873  0.2716  1.1703 -0.9433
  889MOL0     H19953   3.677   6.832   9.717  1.5675  0.6323 -1.0621
  889MOL0     H19954   3.634   6.582   9.834  1.8272 -0.1289 -0.6740
  889MOL0     H19955   3.681   6.671   9.976  0.2268  0.9666 -0.5332
  889MOL0     H19956   3.509   6.838   9.951  2.2516  1.5740 -3.6105
  889MOL0     H19957   3.447   6.765   9.809 -0.5437  0.3644  1.8055
  889MOL0     H19958   3.401   6.549   9.943 -1.6984  0.6268 -3.6141
  889MOL0     H19959   3.455   6.636  10.087 -0.8999  0.7017 -0.4618
  889MOL0     H19960   3.270   6.803  10.071 -1.5897  0.7718 -1.0471
  889MOL0     H19961   3.241   6.748   9.906  0.9343 -0.0152  0.2127
  889MOL0     H19962   3.174   6.518  10.022 -4.3925 -2.5327  1.9435
  889MOL0     H19963   3.139   6.623  10.164 -0.3422  2.4754 -0.0029
  889MOL0     H19964   3.033   6.672   9.883  0.7124 -0.4873 -0.1482
  889MOL0     H19965   2.977   6.754  10.032  0.7659 -0.5858  0.8030
  889MOL0     H19966   2.955   6.420   9.866  1.7934  0.4288  0.6349
  889MOL0     H19967   2.839   6.181   9.920 -0.7455 -1.8264  0.6781
  889MOL0     H19968   2.909   6.134  10.078  1.6056 -0.9401 -1.3892
  889MOL0     H19969   2.669   6.196  10.181  1.3449 -1.9325  2.4842
  889MOL0     H19970   2.682   6.044  10.095  1.2837 -0.3019 -1.8201
  889MOL0     H19971   2.610   6.175   9.872 -0.3442  2.5489 -0.2701
  889MOL0     H19972   2.573   6.305   9.984 -3.2272 -0.1760  0.1154
  889MOL0     H19973   2.376   6.225   9.976  1.6068 -0.6404 -2.5492
  889MOL0     H19974   2.421   6.143  10.126 -1.9444 -0.7475  0.1679
  889MOL0     H19975   2.397   5.762   9.912 -0.8921 -0.2598 -2.0498
  889MOL0     H19976   2.293   5.563   9.901  0.7040  0.1940 -0.1021
  889MOL0     H19977   2.282   5.565  10.081 -0.3606  1.7254 -0.1883
  889MOL0     H19978   2.139   5.530   9.983 -1.0460  1.0622  0.5884
  889MOL0     H19979   1.766   5.557  10.207 -0.8396  1.1736  0.5072
  889MOL0     H19980   1.517   5.540  10.251 -0.8923 -0.6180  0.3357
  889MOL0     H19981   1.241   5.812  10.125 -1.2913  0.0338 -0.2717
  889MOL0     H19982   1.140   5.687  10.199 -0.9003  3.3000  1.1480
  889MOL0     H19983   1.304   5.683  10.379 -0.7504 -0.4170  0.8856
  889MOL0     H19984   1.417   5.799  10.303  0.0749  2.5711  1.7107
  889MOL0     H19985   1.137   5.859  10.404  1.0732 -0.6040 -0.7197
  889MOL0     H19986   1.216   5.968  10.288 -1.7960 -0.3597 -0.7276
  889MOL0     H19987   1.355   5.893  10.545 -2.0741 -2.7846 -0.6337
  889MOL0     H19988   1.397   6.010  10.432  1.4003 -1.9110  0.9533
  889MOL0     H19989   1.124   6.027  10.571 -0.0722  0.9377  1.5417
  889MOL0     H19990   1.208   6.164  10.484  0.4422  1.1746  3.0702
  889MOL0     H19991   1.268   6.045  10.749 -2.5072 -0.8972 -0.1459
  889MOL0     H19992   1.393   6.147  10.670 -0.5986  0.6809 -1.0689
  889MOL0     H19993   1.280   6.297  10.824 -3.2443  1.3664  0.3438
  889MOL0     H19994   1.129   6.239  10.760 -0.8578  0.6385 -0.6022
  889MOL0     H19995   1.154   6.373  10.556 -0.0831  0.7550 -0.4380
  889MOL0     H19996   1.319   6.421  10.609 -0.4970  1.2739  0.7569
  889MOL0     H19997   1.402   5.787   9.949 -1.9425  0.2717  3.0364
  889MOL0     H19998   1.660   5.832   9.887 -1.2917  1.9860  1.4328
  889MOL0     H19999   1.976   5.971  10.023 -0.1197 -1.2017 -0.7034
  889MOL0     H20000   2.169   6.121   9.975  0.3986  0.1062 -1.3818
  889MOL0     H20001   4.059   6.537   9.731  2.9563 -1.5574  1.0966
  889MOL0     H20002   4.287   6.496   9.687  0.4647  1.3128  2.3117
  889MOL0     H20003   4.713   6.977   9.686  3.6390  1.7917  0.9114
  889MOL0     H20004   4.949   6.978   9.684  0.8785 -0.1686 -0.0341
  889MOL0     H20005   5.164   6.952   9.522 -1.8821  3.5689  1.8668
  889MOL0     H20006   5.147   6.974   9.702  2.1100  1.8954 -0.7111
  889MOL0     H20007   5.346   6.873   9.765  0.8516  0.1297 -0.2365
  889MOL0     H20008   5.364   7.006   9.641 -1.3228  0.1222  0.5948
  889MOL0     H20009   5.349   6.816   9.474 -1.5096  0.5091  0.1418
  889MOL0     H20010   5.404   6.713   9.616  2.4435 -0.9115 -3.1600
  889MOL0     H20011   5.604   6.887   9.606  0.2607  0.7798 -0.4119
  889MOL0     H20012   5.540   6.900   9.436 -6.6705  0.5741  1.0530
  889MOL0     H20013   5.753   6.521   9.482  0.6100 -0.0933  1.0105
  889MOL0     H20014   4.968   6.574   9.546  2.2196  0.9125  1.1440
  889MOL0     H20015   4.715   6.574   9.540 -0.2972  0.3658  1.8470
  890MOL0     O20016   4.736   2.189   7.949 -0.0212 -0.0223 -0.0929
  890MOL0     C20017   4.800   2.091   7.917  0.0381  0.3697  0.1224
  890MOL0     O20018   4.746   1.980   7.872 -0.0641  0.0165 -0.4851
  890MOL0     C20019   4.612   1.959   7.895  0.2955 -0.1018  0.1110
  890MOL0     C20020   4.572   1.839   7.957  0.4549  0.3872 -0.4852
  890MOL0     C20021   4.439   1.810   7.988 -0.0181 -0.0008 -0.6358
  890MOL0     C20022   4.344   1.905   7.952 -0.5024 -0.0699 -0.9632
  890MOL0     O20023   4.212   1.891   7.989  0.3001 -0.3801 -0.5715
  890MOL0     C20024   4.160   1.770   8.053 -0.2704  0.1720  0.8740
  890MOL0     C20025   4.011   1.775   8.056 -0.1584  0.7708 -0.1674
  890MOL0     C20026   3.945   1.693   8.171  0.1898 -0.3644 -0.0510
  890MOL0     C20027   3.898   1.553   8.135  0.4257  0.4804 -0.5729
  890MOL0     C20028   3.850   1.485   8.262 -0.2459 -0.4911  0.3141
  890MOL0     C20029   3.775   1.351   8.235 -0.4269 -0.1621 -0.5263
  890MOL0     C20030   3.743   1.282   8.372  0.0545 -0.1798 -0.9125
  890MOL0     C20031   3.673   1.152   8.331  0.6450  0.2498  0.3730
  890MOL0     N20032   3.555   1.167   8.240  0.4728  0.3916  0.1631
  890MOL0     C20033   3.434   1.219   8.258  0.7121  1.1536  1.0922
  890MOL0     C20034   3.357   1.201   8.149  0.5379 -0.5164 -0.1927
  890MOL0     C20035   3.208   1.229   8.102  0.4966  1.0693 -0.2021
  890MOL0     C20036   3.133   1.281   8.223 -0.0718  0.1642  0.5838
  890MOL0     C20037   2.991   1.277   8.191  0.7224 -0.5442 -0.2461
  890MOL0     C20038   2.914   1.346   8.307 -0.0229  0.8691  0.3532
  890MOL0     O20039   2.889   1.488   8.276  0.2589  0.3962 -0.0734
  890MOL0     C20040   2.808   1.560   8.356  0.4260  0.1394  0.1179
  890MOL0     C20041   2.746   1.666   8.299 -0.0842 -0.6455 -0.1217
  890MOL0     C20042   2.651   1.742   8.377 -0.0422 -0.7291 -0.0936
  890MOL0     C20043   2.591   1.859   8.309 -0.1548 -0.5895 -0.1715
  890MOL0     C20044   2.623   1.716   8.507 -0.4097  0.0864  0.4509
  890MOL0     C20045   2.535   1.797   8.592  0.2960 -0.1753  0.5946
  890MOL0     O20046   2.557   1.788   8.732  0.3670 -0.1837  0.3058
  890MOL0     C20047   2.456   1.833   8.819  0.6869 -0.2804 -1.1663
  890MOL0     C20048   2.506   1.911   8.922 -0.1316  0.5903  0.4810
  890MOL0     C20049   2.426   1.973   9.021  0.0772  0.8335 -0.3779
  890MOL0     C20050   2.291   1.965   9.015 -0.1058  0.8014 -0.2305
  890MOL0     O20051   2.217   2.017   9.123  0.2415  0.4399 -0.1111
  890MOL0     C20052   2.081   2.044   9.097 -0.1847 -0.3059 -0.8054
  890MOL0     C20053   1.984   1.952   9.171 -0.6538  0.1468  0.7420
  890MOL0     C20054   1.846   1.973   9.101 -0.0371 -0.4437  0.1635
  890MOL0     C20055   1.732   1.949   9.206  0.3433 -0.2627 -0.3695
  890MOL0     C20056   1.609   1.963   9.118  1.0681 -0.9030  0.5013
  890MOL0     C20057   1.480   1.994   9.201  1.0218  0.2617 -0.0613
  890MOL0     C20058   1.347   1.985   9.113 -0.2696  0.8478  0.0961
  890MOL0     C20059   1.239   2.060   9.184  1.0163 -0.7361  0.0524
  890MOL0    Cl20060   1.159   1.968   9.315  0.0259 -0.2216 -0.3208
  890MOL0     C20061   2.241   1.885   8.904  0.9441  0.2212 -0.1620
  890MOL0     C20062   2.321   1.819   8.808  0.6167  0.1984  0.4010
  890MOL0     O20063   2.440   1.856   8.537 -0.2991  0.1906  0.7027
  890MOL0     C20064   2.703   1.614   8.573 -0.1199 -0.7464  0.4665
  890MOL0     C20065   2.784   1.538   8.493 -0.5788  0.7803  0.1885
  890MOL0     N20066   3.450   1.135   8.065 -0.4750 -0.4978 -1.2945
  890MOL0     N20067   3.562   1.125   8.119 -0.1872 -0.0419 -0.6185
  890MOL0     C20068   4.376   2.022   7.881  0.1614  1.4473  0.5205
  890MOL0     C20069   4.511   2.054   7.862  0.6502  0.8912 -0.3179
  890MOL0     C20070   4.951   2.108   7.926  0.3596  0.5379  0.4443
  890MOL0     C20071   5.000   2.241   7.957  0.4217  0.6360  1.2504
  890MOL0     C20072   5.141   2.259   7.968  0.8818  0.5454 -0.1977
  890MOL0     C20073   5.233   2.153   7.959 -0.8851 -0.1824 -0.1696
  890MOL0     O20074   5.371   2.174   7.960  0.3819 -0.0471  0.1084
  890MOL0     C20075   5.427   2.315   7.971  0.0818 -0.5185  1.1247
  890MOL0     C20076   5.575   2.313   7.967  0.0927  0.0583 -0.1186
  890MOL0     C20077   5.646   2.227   8.081  0.1041  0.3059 -0.5742
  890MOL0     C20078   5.795   2.247   8.103  0.0402 -0.4297 -0.0513
  890MOL0     C20079   5.813   2.387   8.147  0.0196  0.9585 -0.3808
  890MOL0     C20080   5.847   2.503   8.177  0.8504  0.0754  0.2243
  890MOL0     C20081   5.190   2.021   7.929  0.4008  0.0473 -0.1259
  890MOL0     C20082   5.050   2.011   7.904 -0.5899  0.4952 -0.1192
  890MOL0     H20083   4.648   1.763   7.973 -0.4345 -0.3448  0.3984
  890MOL0     H20084   4.420   1.716   8.038  0.0932  0.0034 -0.5863
  890MOL0     H20085   4.197   1.676   8.011  2.1943  1.4180  0.0398
  890MOL0     H20086   4.200   1.779   8.154  0.9341 -1.6646  0.6043
  890MOL0     H20087   3.983   1.880   8.072 -1.4435  0.0554  2.6654
  890MOL0     H20088   3.980   1.723   7.965 -2.0426 -0.4754  1.1417
  890MOL0     H20089   4.014   1.686   8.256  2.2101  1.8798 -1.3660
  890MOL0     H20090   3.866   1.760   8.203 -1.1830 -0.6650 -2.5368
  890MOL0     H20091   3.813   1.554   8.066  1.0964  1.4844 -1.4164
  890MOL0     H20092   3.973   1.498   8.078 -1.1395 -2.1396 -0.2297
  890MOL0     H20093   3.934   1.482   8.332 -0.4520  4.1606  1.0433
  890MOL0     H20094   3.773   1.552   8.301  1.5159  1.0891  1.2594
  890MOL0     H20095   3.690   1.378   8.172  1.0980  1.2512 -2.0871
  890MOL0     H20096   3.837   1.279   8.181  1.5290 -1.5570  3.2261
  890MOL0     H20097   3.840   1.263   8.419 -0.2822  0.6611  0.1598
  890MOL0     H20098   3.681   1.338   8.443 -1.2617 -2.6137 -0.0309
  890MOL0     H20099   3.635   1.103   8.421  1.1273 -1.4257 -0.2853
  890MOL0     H20100   3.741   1.079   8.285 -1.7859 -2.2500  0.5192
  890MOL0     H20101   3.400   1.247   8.357 -1.1362  2.3382  0.1955
  890MOL0     H20102   3.215   1.300   8.019  1.2991 -0.6484 -1.6677
  890MOL0     H20103   3.157   1.144   8.057  0.2620  0.1056  1.7799
  890MOL0     H20104   3.174   1.382   8.232  0.7981  0.0689 -1.5236
  890MOL0     H20105   3.160   1.225   8.312 -1.7606 -1.4922  0.1150
  890MOL0     H20106   2.960   1.173   8.181  0.2674 -0.1873 -4.0911
  890MOL0     H20107   2.960   1.331   8.101  1.8977  0.2389 -0.2034
  890MOL0     H20108   2.965   1.335   8.403 -1.3380 -0.1347  0.9675
  890MOL0     H20109   2.816   1.299   8.321  0.3740 -1.5218 -3.3679
  890MOL0     H20110   2.768   1.690   8.195  1.5655  1.7942  0.7027
  890MOL0     H20111   2.483   1.844   8.300 -0.0909 -0.9745 -0.2729
  890MOL0     H20112   2.602   1.955   8.361 -1.1871  0.8194 -2.3600
  890MOL0     H20113   2.642   1.889   8.217 -0.9682 -0.0391 -0.4657
  890MOL0     H20114   2.613   1.921   8.938  0.3032  1.4975 -2.4895
  890MOL0     H20115   2.469   2.030   9.104 -1.0746  1.2072 -0.0189
  890MOL0     H20116   2.075   2.151   9.118 -0.2961 -0.3965 -0.3516
  890MOL0     H20117   2.063   2.037   8.990 -0.5606 -3.9657 -0.6540
  890MOL0     H20118   2.000   1.845   9.162 -2.0242 -0.0519  0.4793
  890MOL0     H20119   1.983   1.982   9.276 -0.0310 -1.4599  1.2301
  890MOL0     H20120   1.843   1.914   9.009  3.4587  2.1626 -1.8581
  890MOL0     H20121   1.843   2.077   9.069  0.1366  0.2756  2.3153
  890MOL0     H20122   1.732   1.850   9.253 -1.0377 -0.3214 -0.4399
  890MOL0     H20123   1.740   2.023   9.287  3.2666  0.2083 -0.9790
  890MOL0     H20124   1.601   1.869   9.062 -0.4773 -2.1889  2.6872
  890MOL0     H20125   1.615   2.049   9.051 -0.7096 -1.1703 -0.0756
  890MOL0     H20126   1.463   1.937   9.293 -3.9178 -0.5346 -1.2213
  890MOL0     H20127   1.482   2.095   9.243 -1.7887 -0.1187  1.2489
  890MOL0     H20128   1.322   1.879   9.102  0.6117  0.5063  1.1618
  890MOL0     H20129   1.359   2.040   9.019 -0.0252  2.3698  0.9879
  890MOL0     H20130   1.160   2.083   9.112 -0.9495 -0.6704  2.1240
  890MOL0     H20131   1.271   2.160   9.216  0.2420  0.7000 -3.2645
  890MOL0     H20132   2.136   1.862   8.892  1.5173 -2.4983 -0.4275
  890MOL0     H20133   2.271   1.770   8.725  1.2302 -2.1327  1.3410
  890MOL0     H20134   2.692   1.593   8.678 -3.7661  1.8401  0.7940
  890MOL0     H20135   2.837   1.457   8.542 -1.2004 -0.6235 -1.3790
  890MOL0     H20136   4.294   2.081   7.841 -0.6654  0.4453  0.6885
  890MOL0     H20137   4.548   2.137   7.802  1.2053  1.7164  1.1129
  890MOL0     H20138   4.935   2.327   7.950  2.0562  1.7900 -1.4429
  890MOL0     H20139   5.172   2.362   7.982 -0.7951  0.8108  2.2950
  890MOL0     H20140   5.402   2.371   7.880  2.1830 -0.2623  0.6557
  890MOL0     H20141   5.386   2.368   8.057 -2.9067  0.4669 -0.7575
  890MOL0     H20142   5.595   2.419   7.985 -1.7870  0.4217  0.0275
  890MOL0     H20143   5.612   2.271   7.873  1.3135  1.5268 -0.3301
  890MOL0     H20144   5.621   2.121   8.065 -0.4704  0.2849  0.3615
  890MOL0     H20145   5.600   2.260   8.174 -1.4772  2.0138 -1.8812
  890MOL0     H20146   5.856   2.227   8.014 -2.1243 -0.0123 -1.7147
  890MOL0     H20147   5.823   2.177   8.181  2.2454 -1.6881 -1.8428
  890MOL0     H20148   5.865   2.601   8.214 -1.8545  1.0798 -0.8217
  890MOL0     H20149   5.250   1.932   7.915  2.2363  1.3777 -1.2661
  890MOL0     H20150   5.012   1.916   7.868  2.4048 -0.4590 -1.0326
  891MOL0     O20151   2.555   1.571   6.271 -0.0953  0.4368  0.1355
  891MOL0     C20152   2.599   1.494   6.185  0.1385  0.2506  0.2698
  891MOL0     O20153   2.530   1.454   6.076 -0.4752  0.0833 -0.0729
  891MOL0     C20154   2.404   1.513   6.051 -0.5554  0.3464 -0.3636
  891MOL0     C20155   2.386   1.656   6.055  0.1397  0.5035 -0.2285
  891MOL0     C20156   2.262   1.713   6.027 -0.0613 -0.0581  0.2975
  891MOL0     C20157   2.153   1.632   6.005 -0.5655  0.1807 -0.3734
  891MOL0     O20158   2.033   1.703   5.986  0.2127  0.5019  0.1958
  891MOL0     C20159   1.919   1.615   5.952  0.1056  1.4910  0.6690
  891MOL0     C20160   1.781   1.691   5.962  0.8385 -0.4772 -0.0583
  891MOL0     C20161   1.653   1.638   5.906 -0.5339 -0.0927 -0.7500
  891MOL0     C20162   1.595   1.529   5.987  0.7743  0.5263 -0.9865
  891MOL0     C20163   1.460   1.497   5.930 -0.4115  0.6386 -0.4402
  891MOL0     C20164   1.373   1.408   6.008  0.1982 -0.5763  0.5680
  891MOL0     C20165   1.247   1.383   5.936 -0.3377  0.1550 -0.5371
  891MOL0     C20166   1.157   1.286   6.014 -0.6819 -0.3777  0.4843
  891MOL0     N20167   1.115   1.348   6.146  0.7416  0.3692 -0.7110
  891MOL0     C20168   0.995   1.402   6.174 -0.4382 -0.2977 -0.3618
  891MOL0     C20169   0.998   1.421   6.306 -0.0587 -0.3057 -0.3172
  891MOL0     C20170   0.884   1.487   6.390 -0.9769  0.8525  0.4037
  891MOL0     C20171   0.896   1.639   6.391 -0.5257  0.4477 -0.5670
  891MOL0     C20172   0.864   1.713   6.269  0.1112 -0.2255  0.2959
  891MOL0     C20173   0.715   1.699   6.227 -0.4018  0.0625  0.0220
  891MOL0     O20174   0.704   1.577   6.147  0.2446 -0.1163  0.5016
  891MOL0     C20175   0.583   1.529   6.099 -0.1796 -0.3580 -0.2910
  891MOL0     C20176   0.456   1.553   6.159  0.1079 -0.0381 -0.7800
  891MOL0     C20177   0.330   1.524   6.102 -0.5822 -0.5310 -0.7300
  891MOL0     C20178   0.206   1.577   6.171  0.1230 -0.0833  0.0270
  891MOL0     C20179   0.327   1.461   5.977  0.3101  0.7477  1.0098
  891MOL0     C20180   0.208   1.433   5.890 -0.6433 -1.0205  0.3866
  891MOL0     O20181   0.236   1.355   5.786 -0.4968  0.0147 -0.0143
  891MOL0     C20182   0.149   1.333   5.681  1.2555 -0.1424 -0.6131
  891MOL0     C20183   0.015   1.393   5.654  0.1174  0.2711 -0.6713
  891MOL0     C20184  -0.047   1.374   5.524  0.0400 -0.0585 -0.6563
  891MOL0     C20185   0.015   1.298   5.429 -0.3262  0.0770  0.0628
  891MOL0     O20186  -0.035   1.280   5.302 -0.3964  0.7530 -0.7204
  891MOL0     C20187  -0.163   1.231   5.297  0.7451  0.1467  0.7492
  891MOL0     C20188  -0.180   1.085   5.348  0.5506 -0.2378 -0.1295
  891MOL0     C20189  -0.258   1.065   5.477  0.8141  0.3499  0.1072
  891MOL0     C20190  -0.413   1.058   5.452 -0.3028 -0.3006  0.7274
  891MOL0     C20191  -0.499   1.110   5.565  0.1534  0.6785 -0.3783
  891MOL0     C20192  -0.536   1.256   5.535  0.0107 -0.0480 -0.6038
  891MOL0     C20193  -0.613   1.323   5.649  0.1763 -0.0298 -0.1241
  891MOL0     C20194  -0.536   1.338   5.780  0.1030 -0.2061  0.4147
  891MOL0    Cl20195  -0.646   1.395   5.914  0.0034 -0.1551  0.4891
  891MOL0     C20196   0.133   1.232   5.456  0.0936 -0.0252 -0.5406
  891MOL0     C20197   0.192   1.255   5.579 -0.9896  0.5207  1.2370
  891MOL0     O20198   0.102   1.496   5.916  0.7281  0.2964  0.1262
  891MOL0     C20199   0.452   1.410   5.929  0.0171 -0.4710 -0.5201
  891MOL0     C20200   0.569   1.453   5.989 -0.0165 -0.8358  0.5351
  891MOL0     N20201   1.119   1.370   6.356 -0.1173  0.3231 -0.1401
  891MOL0     N20202   1.185   1.318   6.257 -0.4629 -0.0810 -0.5804
  891MOL0     C20203   2.171   1.486   5.991  0.4876 -1.2015 -0.5496
  891MOL0     C20204   2.293   1.427   6.020 -0.5135  0.3234  0.3285
  891MOL0     C20205   2.731   1.436   6.224  0.2171  0.4346  0.4069
  891MOL0     C20206   2.794   1.344   6.133 -0.4901  0.1661  0.1626
  891MOL0     C20207   2.919   1.288   6.161  0.0976  0.4924 -0.0774
  891MOL0     C20208   2.995   1.329   6.279 -0.5291  0.0515  0.1742
  891MOL0     O20209   3.117   1.277   6.310 -0.3305  0.4637 -0.0696
  891MOL0     C20210   3.159   1.152   6.253  0.3901 -0.2121 -0.3487
  891MOL0     C20211   3.093   1.037   6.333 -0.0334  0.1377  0.3355
  891MOL0     C20212   3.123   1.042   6.482  0.7560  0.1500 -0.3927
  891MOL0     C20213   3.070   0.914   6.551  0.6435  0.2677  0.9122
  891MOL0     C20214   3.100   0.917   6.695  0.1527  0.1344  0.5081
  891MOL0     C20215   3.125   0.923   6.814 -0.7007  0.6547  1.4186
  891MOL0     C20216   2.934   1.425   6.363 -0.0627 -0.1211 -0.0732
  891MOL0     C20217   2.808   1.483   6.334  0.7271  0.3094  0.2529
  891MOL0     H20218   2.467   1.724   6.076  1.1507 -0.7784  0.1257
  891MOL0     H20219   2.246   1.821   6.024 -2.9464 -0.3836  0.7046
  891MOL0     H20220   1.933   1.562   5.857 -1.7392  1.5899  0.3023
  891MOL0     H20221   1.908   1.537   6.028 -0.4289  1.2753  0.3807
  891MOL0     H20222   1.758   1.710   6.067 -4.6640  0.5931 -1.1626
  891MOL0     H20223   1.802   1.793   5.928  0.2980  0.4251  2.1754
  891MOL0     H20224   1.589   1.726   5.897 -1.6006 -0.5990  1.2489
  891MOL0     H20225   1.680   1.599   5.808  0.2234 -1.1917 -0.1174
  891MOL0     H20226   1.668   1.447   5.994  2.4552  1.6979 -3.4400
  891MOL0     H20227   1.596   1.577   6.085  3.1419  0.0742 -0.7255
  891MOL0     H20228   1.409   1.588   5.895  0.3180  1.2748  0.1250
  891MOL0     H20229   1.488   1.437   5.842 -1.2874  1.5764 -1.3895
  891MOL0     H20230   1.421   1.312   6.032 -0.7869 -1.3276 -0.4078
  891MOL0     H20231   1.352   1.449   6.108 -4.1642 -1.2510  0.1078
  891MOL0     H20232   1.191   1.476   5.920 -3.1329 -0.7504  2.7185
  891MOL0     H20233   1.254   1.336   5.838 -2.6545 -2.3470  0.3754
  891MOL0     H20234   1.220   1.198   6.030 -0.4499 -0.2373  0.3540
  891MOL0     H20235   1.072   1.253   5.954  0.8105  0.5871 -2.3438
  891MOL0     H20236   0.902   1.425   6.124 -1.9589  0.0088  2.3699
  891MOL0     H20237   0.791   1.458   6.341  0.3833  1.0480 -2.4968
  891MOL0     H20238   0.887   1.447   6.492  0.7796 -0.1927 -0.0114
  891MOL0     H20239   0.999   1.647   6.427  0.2154 -1.4166 -2.0767
  891MOL0     H20240   0.827   1.685   6.462  0.0343 -0.0373  0.3092
  891MOL0     H20241   0.931   1.686   6.187  1.9414 -0.6036  1.8264
  891MOL0     H20242   0.870   1.820   6.287 -3.4433  0.7476 -3.1254
  891MOL0     H20243   0.682   1.795   6.186 -0.4372  0.5004  1.0376
  891MOL0     H20244   0.663   1.683   6.322  2.0891  1.4128  1.7358
  891MOL0     H20245   0.453   1.634   6.232  2.3428 -1.6637  1.3068
  891MOL0     H20246   0.119   1.514   6.151  2.7831 -4.7461  1.5880
  891MOL0     H20247   0.212   1.573   6.280  0.2644 -1.3764 -0.0117
  891MOL0     H20248   0.177   1.677   6.137  1.4244  0.4945  0.5665
  891MOL0     H20249  -0.023   1.448   5.739 -0.0023 -0.4084 -0.2817
  891MOL0     H20250  -0.147   1.412   5.508  0.7184  2.7670  1.0530
  891MOL0     H20251  -0.240   1.293   5.345 -3.0907 -1.9836 -2.1215
  891MOL0     H20252  -0.196   1.241   5.193  0.8031 -0.4995  0.6671
  891MOL0     H20253  -0.240   1.029   5.275  0.2527 -0.6328  0.4039
  891MOL0     H20254  -0.082   1.037   5.357 -0.2778 -1.6779  1.8166
  891MOL0     H20255  -0.236   1.156   5.533  2.3544  0.0299  0.0611
  891MOL0     H20256  -0.221   0.972   5.521  1.8999  0.5188 -0.4027
  891MOL0     H20257  -0.434   1.107   5.357 -0.5817 -2.6657 -0.5031
  891MOL0     H20258  -0.432   0.953   5.427 -4.4064  0.6781 -1.0568
  891MOL0     H20259  -0.437   1.097   5.654 -0.3647 -1.5918 -0.2909
  891MOL0     H20260  -0.581   1.039   5.580  2.1761 -1.6709  0.3179
  891MOL0     H20261  -0.444   1.313   5.524  0.6513 -1.0787 -0.7621
  891MOL0     H20262  -0.595   1.251   5.443  0.2079 -1.2525 -0.6815
  891MOL0     H20263  -0.704   1.265   5.666 -0.3304  1.5614  3.5309
  891MOL0     H20264  -0.641   1.424   5.618 -0.1022 -0.8078 -2.5762
  891MOL0     H20265  -0.464   1.418   5.760  0.9470 -0.6011  1.7440
  891MOL0     H20266  -0.487   1.245   5.813 -1.6102 -1.7843 -1.2045
  891MOL0     H20267   0.184   1.169   5.383 -0.6064 -2.2752  0.8322
  891MOL0     H20268   0.291   1.214   5.595 -0.2173  2.6996  2.3340
  891MOL0     H20269   0.459   1.344   5.843 -0.0746 -0.2157 -0.7260
  891MOL0     H20270   0.661   1.419   5.942  0.3965 -0.2437  0.8970
  891MOL0     H20271   2.083   1.425   5.973 -0.1723 -0.5665  0.4518
  891MOL0     H20272   2.317   1.322   6.010 -0.7644 -0.0021  2.5989
  891MOL0     H20273   2.756   1.319   6.035  2.0312  0.0290 -0.8534
  891MOL0     H20274   2.946   1.215   6.086 -1.9979  0.2537 -0.6684
  891MOL0     H20275   3.142   1.136   6.146  1.7788  0.5326 -0.6895
  891MOL0     H20276   3.268   1.143   6.256  0.9628  3.7180 -2.7857
  891MOL0     H20277   3.107   0.938   6.289  2.6032  0.3785  0.4694
  891MOL0     H20278   2.985   1.050   6.324  0.0464  0.0413 -0.8797
  891MOL0     H20279   3.074   1.131   6.522  0.5644  0.2409 -0.8249
  891MOL0     H20280   3.229   1.049   6.509  0.6060  1.6286 -0.0663
  891MOL0     H20281   3.129   0.831   6.511  0.7159  1.3175 -1.3406
  891MOL0     H20282   2.964   0.900   6.529  0.9430  1.2478 -1.4150
  891MOL0     H20283   3.155   0.918   6.917  0.2093 -2.3573  1.1004
  891MOL0     H20284   2.970   1.467   6.457  0.3489 -3.0289  1.1628
  891MOL0     H20285   2.768   1.555   6.405 -1.0777 -1.9491  1.6740
  892MOL0     O20286   3.966   9.701   5.404 -0.3372  0.7277 -0.0889
  892MOL0     C20287   3.992   9.814   5.372  0.1700  0.7133  0.5012
  892MOL0     O20288   3.941   9.926   5.441  0.0304  0.6760 -0.1452
  892MOL0     C20289   3.821   9.939   5.503  0.2691 -0.3990 -0.1675
  892MOL0     C20290   3.723   9.844   5.510 -0.0199  0.1255  0.4692
  892MOL0     C20291   3.605   9.867   5.580  0.3964  0.3455  0.1569
  892MOL0     C20292   3.582   9.990   5.635  0.5366  0.0018 -1.0771
  892MOL0     O20293   3.475  10.029   5.724 -0.0330  0.1233  0.0117
  892MOL0     C20294   3.362   9.943   5.755 -0.8240 -1.1446  0.1864
  892MOL0     C20295   3.241   9.995   5.831 -0.2826 -0.1377 -0.7421
  892MOL0     C20296   3.290  10.039   5.971 -0.3290 -0.3110  0.1908
  892MOL0     C20297   3.167  10.093   6.059  0.3165  0.4554  0.2506
  892MOL0     C20298   3.215  10.100   6.197 -0.1865  1.2404  0.1419
  892MOL0     C20299   3.110  10.138   6.304  0.3690  0.4264  0.2327
  892MOL0     C20300   3.004  10.027   6.319 -1.1928 -0.1241  0.0514
  892MOL0     C20301   2.905  10.054   6.424  0.2368  0.0601  0.2574
  892MOL0     N20302   2.795  10.148   6.394 -0.6792 -0.2450 -0.7898
  892MOL0     C20303   2.661  10.132   6.417  0.5275  0.2513  0.1526
  892MOL0     C20304   2.599  10.252   6.405  0.5958 -0.0109  0.9250
  892MOL0     C20305   2.446  10.283   6.412 -0.1894 -0.3412 -0.3371
  892MOL0     C20306   2.385  10.228   6.547  0.4380  0.1633  0.3632
  892MOL0     C20307   2.251  10.306   6.589 -0.3337  0.9973 -0.2638
  892MOL0     C20308   2.146  10.298   6.476  0.4392 -0.5126 -0.5478
  892MOL0     O20309   2.029  10.340   6.549 -0.4165 -0.3299 -0.1051
  892MOL0     C20310   1.919  10.364   6.473 -0.5008  0.0884  0.1598
  892MOL0     C20311   1.900  10.325   6.338 -0.2243 -0.1980  0.0703
  892MOL0     C20312   1.778  10.352   6.271 -0.9820  0.3674 -0.8312
  892MOL0     C20313   1.766  10.305   6.122 -0.2373  0.1761  0.0088
  892MOL0     C20314   1.674  10.416   6.350 -0.3513 -0.4307 -0.8245
  892MOL0     C20315   1.538  10.445   6.301 -0.5000 -0.8016 -0.3393
  892MOL0     O20316   1.449  10.505   6.391 -0.9183 -0.5824 -0.7122
  892MOL0     C20317   1.329  10.544   6.345 -0.0105  0.6664 -0.2135
  892MOL0     C20318   1.210  10.478   6.379 -0.5122  1.1286 -0.0150
  892MOL0     C20319   1.086  10.525   6.344  0.3223 -0.1548 -0.0020
  892MOL0     C20320   1.085  10.655   6.281  0.7186  0.0330 -0.5278
  892MOL0     O20321   0.968  10.715   6.248 -0.0739  0.7443  0.4260
  892MOL0     C20322   0.905  10.662   6.132 -0.6632 -1.2080  1.4968
  892MOL0     C20323   0.798  10.554   6.153 -0.1004 -0.9376  0.6612
  892MOL0     C20324   0.726  10.511   6.022 -0.3775  0.1418 -0.8015
  892MOL0     C20325   0.644  10.619   5.940 -0.2501 -0.0969  0.3531
  892MOL0     C20326   0.605  10.553   5.801 -0.1129  0.4261 -0.7632
  892MOL0     C20327   0.560  10.660   5.701  0.5975  0.9585  0.0604
  892MOL0     C20328   0.441  10.737   5.737 -0.2594  0.3386  0.5560
  892MOL0     C20329   0.403  10.842   5.633 -0.0244 -0.3634 -0.3649
  892MOL0    Cl20330   0.329  10.782   5.481 -0.0843  0.6237  0.2750
  892MOL0     C20331   1.199  10.728   6.264  0.1759  0.6696  0.0341
  892MOL0     C20332   1.326  10.670   6.297 -0.2163 -0.1956  0.0237
  892MOL0     O20333   1.501  10.402   6.192  0.2570 -0.0803 -0.0087
  892MOL0     C20334   1.704  10.451   6.486 -0.0662  0.0216  0.7043
  892MOL0     C20335   1.826  10.421   6.540  0.6664  0.3448 -0.6952
  892MOL0     N20336   2.699  10.348   6.385  0.1992 -0.2912  0.5982
  892MOL0     N20337   2.811  10.284   6.382  1.0154 -1.0655 -0.0817
  892MOL0     C20338   3.678  10.086   5.627  0.2281  0.3972 -0.0904
  892MOL0     C20339   3.796  10.063   5.561 -0.5450  0.1050 -1.0624
  892MOL0     C20340   4.091   9.835   5.263 -0.9719 -0.7066  0.8222
  892MOL0     C20341   4.116   9.971   5.219 -0.0294 -0.9938  0.9693
  892MOL0     C20342   4.188   9.997   5.097  0.8028  0.5575  0.2511
  892MOL0     C20343   4.252   9.888   5.030 -0.0699  0.6390  0.0901
  892MOL0     O20344   4.350   9.896   4.933  0.2536 -0.6896  0.3403
  892MOL0     C20345   4.325   9.999   4.831  1.0556  0.3238 -0.3196
  892MOL0     C20346   4.392  10.138   4.857 -0.1067 -0.4707  0.6814
  892MOL0     C20347   4.547  10.126   4.858  0.7094 -0.3031 -0.1435
  892MOL0     C20348   4.604  10.163   4.730  0.1084 -0.9708 -1.2684
  892MOL0     C20349   4.754  10.144   4.730 -0.4172  0.7713  0.2025
  892MOL0     C20350   4.868  10.113   4.694 -0.3807  0.4371  0.1816
  892MOL0     C20351   4.230   9.756   5.073  0.3727 -0.5316 -0.3684
  892MOL0     C20352   4.150   9.733   5.184  1.2899  0.2084  0.2060
  892MOL0     H20353   3.738   9.749   5.460  1.0056  0.4459  0.1322
  892MOL0     H20354   3.536   9.788   5.606 -1.6815  1.6926 -0.9956
  892MOL0     H20355   3.320   9.903   5.662 -0.0850 -3.7173  0.8980
  892MOL0     H20356   3.396   9.853   5.807  0.8471 -0.7266 -0.1218
  892MOL0     H20357   3.206  10.079   5.770 -2.0769  0.1938  0.6791
  892MOL0     H20358   3.157   9.926   5.842 -0.6823  0.7157  2.9504
  892MOL0     H20359   3.343   9.957   6.020  0.5030 -0.3110 -0.6894
  892MOL0     H20360   3.365  10.117   5.956  0.8591 -1.1702  1.4562
  892MOL0     H20361   3.134  10.188   6.017 -0.2638 -0.3408 -1.2135
  892MOL0     H20362   3.081  10.026   6.052  0.1871  0.5990  0.4718
  892MOL0     H20363   3.253  10.000   6.220 -1.1744  0.9678  0.6381
  892MOL0     H20364   3.293  10.177   6.198  0.3277  0.7240  0.9172
  892MOL0     H20365   3.167  10.167   6.393  1.6669  0.8170 -0.6941
  892MOL0     H20366   3.050  10.224   6.274 -0.6554 -0.0741  0.8023
  892MOL0     H20367   2.958  10.005   6.222 -3.0809  3.1880  0.0379
  892MOL0     H20368   3.061   9.939   6.352 -0.3885  0.5871  0.5976
  892MOL0     H20369   2.951  10.079   6.521  2.0173 -0.5577 -0.3909
  892MOL0     H20370   2.858   9.957   6.442  3.0496 -1.0024  2.8389
  892MOL0     H20371   2.608  10.040   6.438 -3.1383  2.4858  1.6499
  892MOL0     H20372   2.423  10.390   6.413 -1.3590 -0.5787 -0.6153
  892MOL0     H20373   2.386  10.243   6.330 -2.7988 -0.2005  1.3674
  892MOL0     H20374   2.458  10.222   6.628 -0.4469  2.5083  1.4278
  892MOL0     H20375   2.356  10.124   6.528  1.6772 -0.2966  0.8692
  892MOL0     H20376   2.265  10.411   6.619  0.4884  0.9551 -0.4585
  892MOL0     H20377   2.216  10.247   6.674  3.2469 -0.8313  0.1180
  892MOL0     H20378   2.138  10.193   6.449 -6.1779 -1.2093  2.3164
  892MOL0     H20379   2.176  10.364   6.394  2.5915 -1.7919 -0.8847
  892MOL0     H20380   1.975  10.258   6.296 -2.0062 -2.4205  0.2291
  892MOL0     H20381   1.713  10.383   6.068 -0.7599 -1.8552 -2.5909
  892MOL0     H20382   1.866  10.297   6.079 -0.0911  0.6786  0.2495
  892MOL0     H20383   1.711  10.214   6.096 -1.0304  0.7220 -0.2351
  892MOL0     H20384   1.221  10.389   6.440  0.4989  0.2693 -1.3996
  892MOL0     H20385   0.993  10.471   6.362  0.0955  0.8803  2.3178
  892MOL0     H20386   0.866  10.751   6.082  0.7576 -1.3028  0.1350
  892MOL0     H20387   0.981  10.629   6.061 -0.6656  0.2179  0.7934
  892MOL0     H20388   0.851  10.468   6.194  1.6828  0.3041  1.0985
  892MOL0     H20389   0.726  10.585   6.229 -0.5881  0.7822 -0.4314
  892MOL0     H20390   0.659  10.432   6.056 -0.2434  1.6611  3.7654
  892MOL0     H20391   0.793  10.468   5.948 -0.8568  3.9666 -3.7768
  892MOL0     H20392   0.563  10.660   6.001  0.4196  0.9308  0.5775
  892MOL0     H20393   0.702  10.704   5.904  0.0185 -0.8596 -1.1008
  892MOL0     H20394   0.518  10.491   5.824  0.4556  0.5013  1.8639
  892MOL0     H20395   0.690  10.500   5.758 -0.2521 -1.2490  0.9157
  892MOL0     H20396   0.650  10.717   5.678  1.0431 -0.4147 -1.9381
  892MOL0     H20397   0.533  10.612   5.606  0.7878 -0.2786  0.6122
  892MOL0     H20398   0.465  10.791   5.828  1.2078 -0.9404  0.9651
  892MOL0     H20399   0.353  10.673   5.755  0.7696 -1.6483 -0.9934
  892MOL0     H20400   0.496  10.895   5.612 -0.8473  0.6095 -1.7638
  892MOL0     H20401   0.332  10.909   5.682  1.8510 -1.0151  3.6217
  892MOL0     H20402   1.194  10.826   6.217  1.3630  0.0472 -1.4835
  892MOL0     H20403   1.412  10.736   6.292 -0.0151 -0.3776  0.9399
  892MOL0     H20404   1.641  10.509   6.552  0.1801  0.1579  0.8195
  892MOL0     H20405   1.839  10.448   6.644 -1.5949  1.1137 -0.5483
  892MOL0     H20406   3.657  10.178   5.680  0.8105  1.7096 -2.0386
  892MOL0     H20407   3.865  10.147   5.564  0.3379 -0.6206 -0.8221
  892MOL0     H20408   4.074  10.054   5.275  1.9117 -0.3476  1.5199
  892MOL0     H20409   4.214  10.097   5.066 -1.1565  1.9285  2.7028
  892MOL0     H20410   4.356   9.950   4.739 -3.6518 -0.6154 -1.6676
  892MOL0     H20411   4.218  10.019   4.821  0.6521 -1.4096  0.2379
  892MOL0     H20412   4.361  10.184   4.952  1.5978 -0.6607  1.3546
  892MOL0     H20413   4.360  10.210   4.781  0.2855  0.7569  1.6382
  892MOL0     H20414   4.583  10.026   4.884 -0.3171 -0.7860 -0.5476
  892MOL0     H20415   4.585  10.197   4.933  1.8624 -1.5400  0.5055
  892MOL0     H20416   4.577  10.264   4.695 -0.1596  0.1055  1.7184
  892MOL0     H20417   4.556  10.099   4.655  1.6000 -1.1658 -2.0965
  892MOL0     H20418   4.966  10.079   4.669 -0.8421 -1.5759  0.8752
  892MOL0     H20419   4.275   9.678   5.014 -0.9964 -2.5548  1.1222
  892MOL0     H20420   4.130   9.629   5.211 -0.9837  0.2247 -1.1895
  893MOL0     O20421   3.822   4.981   8.922  1.0082 -0.6538 -0.3838
  893MOL0     C20422   3.868   5.022   8.814  0.1301 -1.1752  0.5047
  893MOL0     O20423   3.827   5.128   8.747  0.5369 -0.2557  0.7500
  893MOL0     C20424   3.699   5.181   8.774 -0.4141  0.5902  0.3397
  893MOL0     C20425   3.587   5.097   8.778  0.1066 -0.1367  0.7970
  893MOL0     C20426   3.453   5.151   8.794 -0.2514  0.8310  0.8357
  893MOL0     C20427   3.441   5.283   8.821  0.3282 -0.7707 -0.3333
  893MOL0     O20428   3.309   5.320   8.857  0.1430  0.1137 -0.3677
  893MOL0     C20429   3.290   5.424   8.957 -1.4121 -0.0949  0.7686
  893MOL0     C20430   3.142   5.440   8.986 -0.3449  0.3264 -0.2156
  893MOL0     C20431   3.060   5.311   9.028 -0.2961 -0.6892  0.6405
  893MOL0     C20432   2.909   5.334   9.040  0.1094  0.2745  0.0282
  893MOL0     C20433   2.863   5.433   9.146  0.4182 -0.0892 -0.6843
  893MOL0     C20434   2.879   5.387   9.288 -0.7650  0.1479  0.0556
  893MOL0     C20435   2.797   5.451   9.397 -0.3404 -0.0812 -0.0877
  893MOL0     C20436   2.811   5.598   9.403  0.3912  0.0562  0.1691
  893MOL0     N20437   2.950   5.637   9.428 -0.8159  0.7062  0.4326
  893MOL0     C20438   3.039   5.693   9.336  1.7516  0.6972  0.1797
  893MOL0     C20439   3.160   5.696   9.404 -0.1604  0.4025  0.3611
  893MOL0     C20440   3.284   5.778   9.370  0.5378  0.3906  0.0381
  893MOL0     C20441   3.374   5.711   9.257 -0.6362  0.3895 -0.1611
  893MOL0     C20442   3.439   5.572   9.306 -0.0672 -1.2427  0.1131
  893MOL0     C20443   3.544   5.600   9.414 -0.1391 -0.6402  0.3800
  893MOL0     O20444   3.634   5.695   9.367  0.2021 -1.1582  0.4918
  893MOL0     C20445   3.742   5.659   9.299 -0.5723  0.3392 -0.5350
  893MOL0     C20446   3.749   5.671   9.159 -0.5435  1.0333  0.3402
  893MOL0     C20447   3.862   5.620   9.094  1.0791 -0.1034  0.4164
  893MOL0     C20448   3.865   5.648   8.945  0.6361  1.6588  0.2494
  893MOL0     C20449   3.961   5.556   9.164  0.4316 -0.3502 -0.6868
  893MOL0     C20450   4.079   5.494   9.094 -0.3090 -0.0416  0.7946
  893MOL0     O20451   4.058   5.427   8.987  0.3420  0.6261  0.4977
  893MOL0     C20452   4.168   5.361   8.916 -0.2561 -0.5510 -0.8074
  893MOL0     C20453   4.282   5.429   8.888 -0.8896  0.4327  0.5177
  893MOL0     C20454   4.387   5.378   8.805  0.3120  1.1862  0.1914
  893MOL0     C20455   4.382   5.246   8.769 -0.5367 -0.3184 -0.1582
  893MOL0     O20456   4.486   5.208   8.689 -0.0206  0.1165 -0.7846
  893MOL0     C20457   4.473   5.113   8.586 -0.3732 -0.1367  0.4752
  893MOL0     C20458   4.598   5.108   8.506 -0.2163  0.0254 -0.2052
  893MOL0     C20459   4.721   5.094   8.600  0.6010 -0.2227  0.0651
  893MOL0     C20460   4.848   5.066   8.523  0.3386 -0.4083  0.3629
  893MOL0     C20461   4.898   5.176   8.425  0.1410  0.1003 -0.0135
  893MOL0     C20462   5.017   5.115   8.345 -0.3038 -0.0664 -0.8409
  893MOL0     C20463   5.137   5.061   8.422  0.0572  0.2015  0.8151
  893MOL0     C20464   5.253   5.043   8.322  0.7323 -0.4551  0.3661
  893MOL0    Cl20465   5.360   4.913   8.379  0.1483 -0.2533 -0.1649
  893MOL0     C20466   4.272   5.167   8.817  0.2626 -0.1819  0.5295
  893MOL0     C20467   4.164   5.230   8.887 -0.0369  0.4210 -0.7414
  893MOL0     O20468   4.190   5.500   9.148 -0.3768  0.1788 -0.4894
  893MOL0     C20469   3.964   5.552   9.308  0.5757  0.0223  0.4113
  893MOL0     C20470   3.846   5.598   9.370  0.0695 -0.1656 -0.0836
  893MOL0     N20471   3.141   5.638   9.526  0.6926  0.1817 -0.6702
  893MOL0     N20472   3.016   5.617   9.548 -0.1936 -0.5469 -0.4501
  893MOL0     C20473   3.556   5.367   8.818  0.2906  0.3342  0.1327
  893MOL0     C20474   3.682   5.317   8.796  0.0738  0.6123  0.3527
  893MOL0     C20475   3.973   4.942   8.760 -0.2289  0.2726  0.5886
  893MOL0     C20476   4.026   4.979   8.628  0.2059  0.1806 -0.2090
  893MOL0     C20477   4.143   4.918   8.595 -0.1743 -0.2823  0.0974
  893MOL0     C20478   4.206   4.818   8.671  0.3597 -0.0616  0.0939
  893MOL0     O20479   4.329   4.771   8.624  0.5064 -0.5621 -0.2899
  893MOL0     C20480   4.413   4.683   8.694 -0.1722  0.7120  0.3067
  893MOL0     C20481   4.551   4.710   8.642  0.1759  0.6282  0.0460
  893MOL0     C20482   4.654   4.627   8.722 -0.7458  0.3154 -0.6970
  893MOL0     C20483   4.802   4.675   8.685  0.4889  0.7968  0.1926
  893MOL0     C20484   4.835   4.618   8.559  0.1734  0.2581 -0.4305
  893MOL0     C20485   4.862   4.565   8.452 -0.2257  0.0158  0.1449
  893MOL0     C20486   4.152   4.771   8.789 -0.4183  0.0555 -0.0849
  893MOL0     C20487   4.034   4.836   8.828 -0.4627 -0.3574  0.2584
  893MOL0     H20488   3.608   4.991   8.764  3.0592  0.4746 -0.0250
  893MOL0     H20489   3.376   5.075   8.795 -1.1149  1.6422 -0.8292
  893MOL0     H20490   3.335   5.394   9.052  0.2875 -1.7834 -0.4987
  893MOL0     H20491   3.334   5.517   8.920  2.9930 -2.6450 -1.2123
  893MOL0     H20492   3.148   5.512   9.068  3.0781  0.3675 -0.3477
  893MOL0     H20493   3.100   5.492   8.900 -0.8721  0.4429  0.1102
  893MOL0     H20494   3.084   5.238   8.950  0.6772  0.1178  0.1483
  893MOL0     H20495   3.090   5.263   9.122  1.3549 -1.7142 -0.3534
  893MOL0     H20496   2.890   5.370   8.938 -1.4992  0.8492  0.4990
  893MOL0     H20497   2.852   5.243   9.062  1.4971 -0.9653 -1.2712
  893MOL0     H20498   2.912   5.529   9.126 -0.8511  0.8853  0.6964
  893MOL0     H20499   2.760   5.461   9.123  0.2081  2.7109  2.8431
  893MOL0     H20500   2.858   5.280   9.303  3.1037 -0.5039  1.9490
  893MOL0     H20501   2.987   5.397   9.298 -0.6055 -0.3272 -1.0157
  893MOL0     H20502   2.689   5.432   9.389 -0.5889  1.2157 -0.0865
  893MOL0     H20503   2.817   5.405   9.494 -0.9606 -0.5807 -0.1895
  893MOL0     H20504   2.742   5.648   9.472 -3.1278 -2.4853 -1.1803
  893MOL0     H20505   2.785   5.635   9.303 -1.0000 -1.1270  0.0502
  893MOL0     H20506   3.015   5.739   9.240 -0.2913 -1.1738 -0.2949
  893MOL0     H20507   3.255   5.873   9.325  1.0459  0.9208  0.7875
  893MOL0     H20508   3.348   5.797   9.458  0.8023  0.4683 -0.1698
  893MOL0     H20509   3.455   5.781   9.234  0.8980 -0.9868  0.8482
  893MOL0     H20510   3.318   5.676   9.170  0.3063 -2.8443  0.3941
  893MOL0     H20511   3.490   5.523   9.222  0.9946  0.9672 -0.6030
  893MOL0     H20512   3.373   5.495   9.347 -0.4132 -0.2883  1.3985
  893MOL0     H20513   3.600   5.512   9.448  0.8089 -0.3799 -0.4737
  893MOL0     H20514   3.495   5.635   9.505  0.5544 -0.1449  0.5705
  893MOL0     H20515   3.667   5.703   9.096 -0.6639  0.8638  0.4083
  893MOL0     H20516   3.819   5.562   8.894  2.7047  0.7799 -0.2031
  893MOL0     H20517   3.806   5.737   8.923  0.2584  1.7404  1.4997
  893MOL0     H20518   3.968   5.656   8.911  0.9472 -1.4497  0.1824
  893MOL0     H20519   4.288   5.529   8.931  2.4210 -0.2592  1.9528
  893MOL0     H20520   4.451   5.456   8.765 -0.6995  1.7185 -0.4322
  893MOL0     H20521   4.441   5.015   8.623 -1.9645 -1.0129 -2.7974
  893MOL0     H20522   4.387   5.138   8.522 -3.8720 -3.2159  3.4706
  893MOL0     H20523   4.595   5.029   8.431 -0.4769 -0.5137  0.3602
  893MOL0     H20524   4.614   5.203   8.455  0.4239 -0.6197 -1.2223
  893MOL0     H20525   4.694   5.017   8.673 -3.8464  2.3025  1.5279
  893MOL0     H20526   4.738   5.188   8.654 -1.6618 -1.2446  2.8760
  893MOL0     H20527   4.924   5.048   8.600  0.7533  1.3981  0.4199
  893MOL0     H20528   4.827   4.978   8.461  2.6338 -1.7030  1.2612
  893MOL0     H20529   4.928   5.272   8.468 -0.2556  0.7063 -1.0370
  893MOL0     H20530   4.808   5.186   8.363 -1.7552 -0.4254  2.5254
  893MOL0     H20531   4.995   5.025   8.285  1.5561 -0.9586 -0.2589
  893MOL0     H20532   5.053   5.186   8.270 -0.3751 -0.4449 -1.2382
  893MOL0     H20533   5.113   4.959   8.455  1.9868 -0.9080 -0.9547
  893MOL0     H20534   5.169   5.127   8.503  0.0284 -0.2481  1.1964
  893MOL0     H20535   5.316   5.132   8.329  1.3902 -0.8137 -0.7108
  893MOL0     H20536   5.217   5.016   8.222  0.7650 -1.6419  0.6600
  893MOL0     H20537   4.271   5.059   8.808 -0.8150 -0.2662  1.4074
  893MOL0     H20538   4.077   5.181   8.929 -0.4138  1.5053 -0.2150
  893MOL0     H20539   4.039   5.489   9.354 -1.3555 -3.4473 -0.8058
  893MOL0     H20540   3.857   5.584   9.477 -0.0089 -1.5493 -0.2379
  893MOL0     H20541   3.548   5.473   8.840 -0.5383 -0.0624  1.9382
  893MOL0     H20542   3.768   5.383   8.786 -2.5768  4.2037 -1.0932
  893MOL0     H20543   3.993   5.062   8.566  1.3899  1.4083  0.7421
  893MOL0     H20544   4.205   4.956   8.514  0.1571 -1.1004 -0.0431
  893MOL0     H20545   4.404   4.703   8.801  1.6369 -1.7717  1.0288
  893MOL0     H20546   4.382   4.580   8.676 -1.9234  1.5620 -2.1671
  893MOL0     H20547   4.563   4.818   8.648  0.1724  0.8426 -2.7565
  893MOL0     H20548   4.566   4.685   8.537  0.3878  0.5395  0.0950
  893MOL0     H20549   4.638   4.519   8.710 -4.4849  0.1470  3.1497
  893MOL0     H20550   4.646   4.646   8.830  3.5070 -0.0166 -0.1617
  893MOL0     H20551   4.872   4.644   8.763  2.9174  1.5866 -1.5438
  893MOL0     H20552   4.793   4.784   8.684 -1.5846  0.6783  0.8540
  893MOL0     H20553   4.897   4.524   8.359 -0.4405 -1.4870  0.7094
  893MOL0     H20554   4.193   4.697   8.857  0.2503 -0.5429 -1.1127
  893MOL0     H20555   3.991   4.815   8.926 -1.0690  1.6568  0.4718
  894MOL0     O20556   1.282   3.211   1.035 -0.1586 -0.2082  0.7187
  894MOL0     C20557   1.318   3.317   0.979  0.0719 -0.0993 -0.4496
  894MOL0     O20558   1.234   3.393   0.895 -0.1856 -0.0941 -0.0270
  894MOL0     C20559   1.098   3.354   0.877 -0.0361 -1.0052 -0.6007
  894MOL0     C20560   1.023   3.311   0.990  0.3321  0.1982 -0.9109
  894MOL0     C20561   0.895   3.267   0.983 -0.3821 -0.7088 -0.2181
  894MOL0     C20562   0.837   3.265   0.864  0.6496  0.7464 -0.5022
  894MOL0     O20563   0.703   3.226   0.858 -0.4709  1.1357 -0.6186
  894MOL0     C20564   0.692   3.091   0.808 -0.2194 -0.6358  0.8792
  894MOL0     C20565   0.564   3.071   0.730 -0.7283  0.8351 -0.6185
  894MOL0     C20566   0.445   3.090   0.826  0.0283 -0.6346 -0.7461
  894MOL0     C20567   0.305   3.083   0.760  0.1160  0.0152  0.2976
  894MOL0     C20568   0.182   3.166   0.806  0.4591  0.9844  0.2621
  894MOL0     C20569   0.154   3.150   0.956 -0.1094 -0.7143  0.5335
  894MOL0     C20570   0.019   3.221   0.991  0.6148  0.3026 -0.6691
  894MOL0     C20571  -0.104   3.185   0.890  0.1574  0.1773 -0.6452
  894MOL0     N20572  -0.239   3.211   0.946 -0.0351  0.1999  0.0274
  894MOL0     C20573  -0.290   3.182   1.067  0.0538  1.0333  0.4220
  894MOL0     C20574  -0.415   3.242   1.082 -0.1138 -0.1597  0.0749
  894MOL0     C20575  -0.496   3.196   1.203 -0.2771 -0.9873  0.4346
  894MOL0     C20576  -0.647   3.245   1.190 -1.0850 -0.0206 -0.3159
  894MOL0     C20577  -0.722   3.207   1.320  0.8255  0.2077  0.0584
  894MOL0     C20578  -0.874   3.214   1.321 -1.0992  0.8354  0.1133
  894MOL0     O20579  -0.925   3.146   1.438  0.1184  0.0249 -0.5641
  894MOL0     C20580  -1.057   3.177   1.477  0.1309 -0.4294  0.0579
  894MOL0     C20581  -1.094   3.198   1.610  0.4825 -0.5553  0.1242
  894MOL0     C20582  -1.226   3.230   1.649  0.0227  0.1265  0.2845
  894MOL0     C20583  -1.249   3.245   1.798 -0.2350 -0.5376 -0.2630
  894MOL0     C20584  -1.330   3.256   1.550 -0.1904 -0.0565  0.4883
  894MOL0     C20585  -1.467   3.311   1.577  0.6290 -0.3636 -0.4677
  894MOL0     O20586  -1.556   3.287   1.477 -0.3622  0.0786  0.4876
  894MOL0     C20587  -1.685   3.299   1.503  0.3333 -0.1537  0.2175
  894MOL0     C20588  -1.765   3.382   1.414 -0.0774 -0.1221 -0.2719
  894MOL0     C20589  -1.900   3.386   1.439  0.5995  0.0524  0.2008
  894MOL0     C20590  -1.970   3.299   1.526  0.0147 -0.4373 -0.5189
  894MOL0     O20591  -2.107   3.305   1.536 -0.8770  0.2043 -0.1599
  894MOL0     C20592  -2.171   3.259   1.655  0.3032 -0.5454 -0.4775
  894MOL0     C20593  -2.301   3.338   1.653  0.3823  0.7016  0.7244
  894MOL0     C20594  -2.409   3.296   1.553 -0.4676 -0.0857 -0.4970
  894MOL0     C20595  -2.537   3.379   1.549 -0.4169 -0.5568 -0.2011
  894MOL0     C20596  -2.517   3.517   1.491  0.3453 -0.0396 -0.0005
  894MOL0     C20597  -2.627   3.629   1.498  0.5301  0.7379 -0.0352
  894MOL0     C20598  -2.663   3.663   1.646 -0.0693 -0.6662 -0.2040
  894MOL0     C20599  -2.717   3.805   1.670 -0.0754  0.2436  0.1265
  894MOL0    Cl20600  -2.864   3.844   1.570  0.3070  0.0537 -0.3660
  894MOL0     C20601  -1.888   3.223   1.612 -0.3941 -0.9924  0.3375
  894MOL0     C20602  -1.752   3.230   1.604 -0.4048 -1.0234 -0.0483
  894MOL0     O20603  -1.497   3.366   1.684 -0.3718  0.1207  0.4994
  894MOL0     C20604  -1.292   3.237   1.418 -0.4295  0.4867 -0.0336
  894MOL0     C20605  -1.157   3.204   1.383  1.2030  0.0679 -0.0974
  894MOL0     N20606  -0.444   3.311   0.964 -0.0312  0.2833 -0.6786
  894MOL0     N20607  -0.343   3.286   0.886  0.2630  0.0819 -0.0979
  894MOL0     C20608   0.895   3.307   0.743 -0.4760 -0.0990 -0.4350
  894MOL0     C20609   1.035   3.344   0.755  0.3427 -0.0472  0.4333
  894MOL0     C20610   1.468   3.340   0.983 -0.6928 -0.0858  0.6511
  894MOL0     C20611   1.531   3.414   0.879  0.8442 -0.7149 -0.5537
  894MOL0     C20612   1.667   3.423   0.888  0.0439 -0.7037  0.1876
  894MOL0     C20613   1.743   3.348   0.980  1.2067 -0.5292 -0.3396
  894MOL0     O20614   1.880   3.330   0.987  0.4364 -0.3803  0.6078
  894MOL0     C20615   1.941   3.304   0.855 -0.4803 -0.5693 -0.4704
  894MOL0     C20616   1.996   3.432   0.781  0.2783  1.2696  0.0012
  894MOL0     C20617   2.100   3.385   0.670 -0.6780  0.1225 -0.3374
  894MOL0     C20618   2.168   3.501   0.598  0.2101 -0.1283 -0.8724
  894MOL0     C20619   2.296   3.475   0.542 -0.6688 -0.8434  0.3613
  894MOL0     C20620   2.412   3.452   0.514 -0.2620  0.9383 -0.3855
  894MOL0     C20621   1.676   3.278   1.082 -0.3829  0.5776  0.2695
  894MOL0     C20622   1.543   3.286   1.090  0.0030  0.0166  0.0249
  894MOL0     H20623   1.062   3.314   1.092 -2.5908  2.1145  0.2756
  894MOL0     H20624   0.839   3.250   1.074  1.4018  1.5435  1.4373
  894MOL0     H20625   0.776   3.062   0.744  2.7468  1.3656  3.5604
  894MOL0     H20626   0.682   3.015   0.886 -0.0866 -1.3049  0.2529
  894MOL0     H20627   0.550   3.145   0.652 -3.4735 -0.4252 -1.4476
  894MOL0     H20628   0.559   2.968   0.692 -1.3458  0.6862 -0.1555
  894MOL0     H20629   0.455   3.025   0.914  4.7007 -0.8932 -1.2131
  894MOL0     H20630   0.442   3.188   0.873 -4.9402 -1.7097  1.8632
  894MOL0     H20631   0.302   3.116   0.656  1.4407  2.0640  0.8630
  894MOL0     H20632   0.269   2.980   0.768 -2.3180  0.8268  0.7287
  894MOL0     H20633   0.195   3.268   0.768 -1.7832  0.6050 -1.8274
  894MOL0     H20634   0.097   3.129   0.747  0.4981 -0.7628  1.2412
  894MOL0     H20635   0.139   3.043   0.970 -1.2980 -0.7092 -0.5244
  894MOL0     H20636   0.244   3.179   1.010 -0.7125 -0.4169  1.3898
  894MOL0     H20637  -0.016   3.192   1.091 -1.9933 -0.5443 -1.7444
  894MOL0     H20638   0.033   3.330   0.988 -1.7122  0.6304 -2.6996
  894MOL0     H20639  -0.113   3.083   0.853  2.5158 -0.6411  0.8411
  894MOL0     H20640  -0.103   3.243   0.797 -1.6478  0.2470 -0.6678
  894MOL0     H20641  -0.234   3.125   1.141  0.7633 -0.1470 -0.9600
  894MOL0     H20642  -0.497   3.088   1.221 -0.7226 -1.1073 -0.2561
  894MOL0     H20643  -0.445   3.238   1.290  1.1155 -0.1020 -0.7674
  894MOL0     H20644  -0.685   3.186   1.107  1.7970 -1.5357 -0.6837
  894MOL0     H20645  -0.664   3.353   1.188  1.8373  0.6212  1.7339
  894MOL0     H20646  -0.712   3.276   1.404 -1.2654  0.7012 -0.0383
  894MOL0     H20647  -0.676   3.116   1.362  4.2704  1.8410  0.1922
  894MOL0     H20648  -0.913   3.160   1.235  0.2068 -0.8397  0.5177
  894MOL0     H20649  -0.909   3.317   1.316 -0.8093  1.2092  3.4090
  894MOL0     H20650  -1.009   3.194   1.677  2.7049 -1.2806 -2.6038
  894MOL0     H20651  -1.161   3.213   1.854 -0.0564 -0.8349 -0.7057
  894MOL0     H20652  -1.266   3.348   1.829  0.7265 -0.8109  1.2619
  894MOL0     H20653  -1.338   3.192   1.835 -0.5275  0.4117  0.4172
  894MOL0     H20654  -1.719   3.449   1.342  1.1329 -0.0531  0.5357
  894MOL0     H20655  -1.968   3.441   1.374  1.1789  1.6214  0.8713
  894MOL0     H20656  -2.195   3.152   1.657  2.6191 -1.1272 -1.0368
  894MOL0     H20657  -2.113   3.285   1.744 -1.0162  4.2978 -0.7475
  894MOL0     H20658  -2.350   3.338   1.751  1.1309  2.5009  1.1398
  894MOL0     H20659  -2.272   3.442   1.637  0.6443  0.5746  0.3803
  894MOL0     H20660  -2.441   3.192   1.566 -0.6009 -0.2390 -1.9455
  894MOL0     H20661  -2.369   3.307   1.452  0.4179  0.6290 -0.0781
  894MOL0     H20662  -2.611   3.328   1.486 -2.3270 -0.3991  1.7905
  894MOL0     H20663  -2.577   3.393   1.650  0.5668  3.0907 -0.1944
  894MOL0     H20664  -2.492   3.502   1.385  0.0227 -4.3638  0.3671
  894MOL0     H20665  -2.425   3.561   1.532 -0.1148  0.5414  0.4138
  894MOL0     H20666  -2.587   3.720   1.451  1.1831  0.8032  0.6263
  894MOL0     H20667  -2.715   3.595   1.442  1.2718  2.7988 -2.6691
  894MOL0     H20668  -2.578   3.652   1.714  0.0470  1.5851  0.0817
  894MOL0     H20669  -2.742   3.594   1.678  2.2469 -3.4934 -0.1065
  894MOL0     H20670  -2.636   3.875   1.651  1.1859 -1.3683 -0.6534
  894MOL0     H20671  -2.734   3.813   1.778  3.0024 -1.4184  0.8654
  894MOL0     H20672  -1.934   3.151   1.679  0.3397 -0.7664  1.1030
  894MOL0     H20673  -1.697   3.196   1.691 -2.7202 -0.3288  1.7678
  894MOL0     H20674  -1.360   3.242   1.334 -0.5128  1.3461  0.0725
  894MOL0     H20675  -1.149   3.189   1.276 -5.8022 -4.1939 -0.6092
  894MOL0     H20676   0.838   3.301   0.651 -1.3599 -0.1824  0.1148
  894MOL0     H20677   1.083   3.381   0.665 -0.4237 -1.9486 -0.8172
  894MOL0     H20678   1.470   3.467   0.807  0.8026 -0.5542 -0.4005
  894MOL0     H20679   1.710   3.492   0.816  2.4428  0.5668  2.6572
  894MOL0     H20680   2.029   3.242   0.877  0.5001  0.3646 -1.6130
  894MOL0     H20681   1.883   3.248   0.782 -0.9357 -3.3590  1.8653
  894MOL0     H20682   2.028   3.512   0.848  0.2184  1.3141 -0.0237
  894MOL0     H20683   1.906   3.475   0.737 -0.0008  3.2179  2.2566
  894MOL0     H20684   2.065   3.314   0.595 -0.3785 -0.2399 -0.1382
  894MOL0     H20685   2.186   3.335   0.716  0.1454  1.1980 -0.6431
  894MOL0     H20686   2.193   3.574   0.676  0.7131 -0.9685 -0.2394
  894MOL0     H20687   2.097   3.546   0.527 -1.5849 -1.4355  0.0119
  894MOL0     H20688   2.507   3.428   0.471 -0.3035  3.3889 -2.0450
  894MOL0     H20689   1.735   3.223   1.154  0.3787  3.9191  2.4167
  894MOL0     H20690   1.503   3.245   1.183  2.7684 -0.9131  0.9024
  895MOL0     O20691  10.816   4.686   0.235 -0.5952 -0.3037  0.3434
  895MOL0     C20692  10.853   4.758   0.329  0.6104  0.5172 -0.3290
  895MOL0     O20693  10.777   4.801   0.435  0.6265 -0.2418  0.0664
  895MOL0     C20694  10.643   4.769   0.432 -0.9356 -0.5271 -0.0922
  895MOL0     C20695  10.591   4.751   0.568 -1.4322  0.6402  0.7988
  895MOL0     C20696  10.456   4.747   0.595 -0.1570 -0.9055 -0.7262
  895MOL0     C20697  10.374   4.736   0.480 -0.3180 -0.5439 -0.7002
  895MOL0     O20698  10.239   4.728   0.500 -0.2814 -0.1793 -0.3645
  895MOL0     C20699  10.152   4.685   0.396 -0.1413 -0.1118  0.1310
  895MOL0     C20700  10.006   4.648   0.438  0.3087 -0.3373 -0.8765
  895MOL0     C20701   9.998   4.540   0.539  0.2436 -0.2112 -0.5064
  895MOL0     C20702   9.873   4.456   0.542  0.5491 -0.2622 -0.4775
  895MOL0     C20703   9.741   4.533   0.573 -0.6396  0.9802 -0.3433
  895MOL0     C20704   9.614   4.438   0.563  0.3690  0.8191  0.1194
  895MOL0     C20705   9.495   4.533   0.576 -0.4863  0.6383 -0.0730
  895MOL0     C20706   9.378   4.445   0.600  0.2869 -0.0605 -0.0069
  895MOL0     N20707   9.257   4.517   0.657 -0.9973 -0.7642  0.6135
  895MOL0     C20708   9.239   4.540   0.792  0.5706  0.0301  0.2171
  895MOL0     C20709   9.111   4.599   0.796 -0.4248 -0.2323 -0.0547
  895MOL0     C20710   9.050   4.635   0.922  0.0843 -0.7754  0.4968
  895MOL0     C20711   9.114   4.760   0.984 -0.6964  0.0630 -0.5200
  895MOL0     C20712   9.121   4.877   0.881  0.3246 -0.3039  0.1607
  895MOL0     C20713   8.985   4.913   0.814  0.0869  0.8420 -0.4976
  895MOL0     O20714   8.888   4.967   0.909  0.2142 -0.0348  0.2113
  895MOL0     C20715   8.777   5.038   0.861  0.8296  0.1338 -0.7073
  895MOL0     C20716   8.688   5.077   0.966  0.5680 -0.3160 -0.4743
  895MOL0     C20717   8.577   5.145   0.930  0.6950 -0.1292 -0.2161
  895MOL0     C20718   8.484   5.187   1.041 -0.0437  0.6065 -0.4009
  895MOL0     C20719   8.544   5.175   0.788  0.4250 -0.0820  0.4841
  895MOL0     C20720   8.435   5.260   0.737 -0.4807 -1.5132 -0.6960
  895MOL0     O20721   8.422   5.261   0.599 -0.1910 -0.4059  0.0999
  895MOL0     C20722   8.327   5.337   0.526  0.0148 -0.3349 -0.2484
  895MOL0     C20723   8.370   5.405   0.417 -0.1466  0.0112 -0.0775
  895MOL0     C20724   8.289   5.499   0.360 -1.2408  0.1325  0.5936
  895MOL0     C20725   8.153   5.526   0.391  0.7450 -0.5637  0.1833
  895MOL0     O20726   8.080   5.627   0.326 -0.0291 -0.1991  0.2840
  895MOL0     C20727   7.946   5.665   0.383  0.3682  0.7481 -0.5575
  895MOL0     C20728   7.908   5.799   0.316 -0.1787  1.5198 -0.2257
  895MOL0     C20729   7.757   5.829   0.335 -0.9611  0.1486 -0.7318
  895MOL0     C20730   7.736   5.978   0.318 -0.8348 -0.6280  0.0074
  895MOL0     C20731   7.583   6.013   0.357 -0.0015  0.0347  0.1629
  895MOL0     C20732   7.482   5.937   0.282  0.0804  1.1360 -0.1594
  895MOL0     C20733   7.347   5.973   0.341  0.6804  0.4652  0.3170
  895MOL0     C20734   7.232   5.927   0.258  0.4666  0.2620 -0.0088
  895MOL0    Cl20735   7.078   5.962   0.343  0.6090  0.8241 -0.0873
  895MOL0     C20736   8.101   5.449   0.496 -0.1312 -0.0173  0.2668
  895MOL0     C20737   8.192   5.362   0.562 -0.3814 -0.3639 -0.5056
  895MOL0     O20738   8.365   5.326   0.814 -0.0366  0.2137 -0.5426
  895MOL0     C20739   8.644   5.133   0.695 -0.3444  0.4761  0.5582
  895MOL0     C20740   8.759   5.060   0.723  0.8505  0.2640 -0.0845
  895MOL0     N20741   9.062   4.596   0.662 -0.2025 -0.6491  0.5438
  895MOL0     N20742   9.154   4.558   0.578  0.0909  0.7790  0.0427
  895MOL0     C20743  10.429   4.743   0.350  0.1141 -0.3101 -0.9129
  895MOL0     C20744  10.560   4.768   0.321  0.3364 -0.3085  0.5356
  895MOL0     C20745  11.002   4.786   0.333  1.0620 -0.3832 -0.6789
  895MOL0     C20746  11.053   4.890   0.418  0.3329  0.6614 -0.0369
  895MOL0     C20747  11.188   4.912   0.419 -0.4122  0.4584  0.7964
  895MOL0     C20748  11.280   4.829   0.343  0.2256  0.4081 -0.0800
  895MOL0     O20749  11.418   4.836   0.355  0.6080 -0.2385  0.0076
  895MOL0     C20750  11.477   4.969   0.380 -0.0346  0.3949 -0.8834
  895MOL0     C20751  11.612   4.968   0.322 -0.5645 -0.9428 -0.3464
  895MOL0     C20752  11.707   4.863   0.375 -0.3943  0.0001 -0.5283
  895MOL0     C20753  11.844   4.908   0.416 -0.5324  0.2854  0.9264
  895MOL0     C20754  11.842   4.969   0.547 -0.2984  0.2720  0.3327
  895MOL0     C20755  11.829   5.018   0.659 -0.5071 -0.0398  0.6051
  895MOL0     C20756  11.225   4.729   0.271 -0.3893 -0.5850  1.2034
  895MOL0     C20757  11.091   4.709   0.263  0.3310  0.3402  0.2790
  895MOL0     H20758  10.670   4.753   0.643  1.1008 -0.3079 -1.6380
  895MOL0     H20759  10.417   4.755   0.696 -1.4478  4.6925 -1.3447
  895MOL0     H20760  10.156   4.762   0.319  1.4175  0.8455  1.1141
  895MOL0     H20761  10.196   4.598   0.346 -0.6957 -1.6312  2.1618
  895MOL0     H20762   9.947   4.737   0.461  0.5135 -0.3696 -0.2185
  895MOL0     H20763   9.950   4.603   0.356 -1.6716  1.7200 -0.7457
  895MOL0     H20764  10.080   4.472   0.518 -0.4154 -0.9121 -0.8598
  895MOL0     H20765  10.007   4.583   0.640 -2.5313 -2.3211  0.7830
  895MOL0     H20766   9.860   4.400   0.449  2.2022 -1.5374  0.0124
  895MOL0     H20767   9.893   4.382   0.619  2.1409  0.3290 -0.2962
  895MOL0     H20768   9.753   4.579   0.672  2.8140 -1.8167  0.7606
  895MOL0     H20769   9.728   4.606   0.492  1.7710  0.6116 -1.1620
  895MOL0     H20770   9.614   4.384   0.468  1.2811 -1.8901  1.5434
  895MOL0     H20771   9.611   4.365   0.645  2.0940  1.0012  0.3931
  895MOL0     H20772   9.511   4.581   0.673 -0.8232 -1.1014  0.8943
  895MOL0     H20773   9.485   4.605   0.495  1.6686  1.9044  0.7210
  895MOL0     H20774   9.398   4.366   0.674 -0.5074 -0.0814  0.1932
  895MOL0     H20775   9.354   4.388   0.510 -1.1402 -0.0886  0.3792
  895MOL0     H20776   9.299   4.508   0.877  3.2324  1.6166 -0.9307
  895MOL0     H20777   8.942   4.649   0.909  0.1006 -2.1357 -1.5701
  895MOL0     H20778   9.078   4.547   0.981  1.2171 -2.5662 -2.4985
  895MOL0     H20779   9.217   4.739   1.015 -1.2489 -0.6811  0.9057
  895MOL0     H20780   9.064   4.782   1.079  0.7813  1.5199 -0.0247
  895MOL0     H20781   9.196   4.851   0.806  0.7691 -0.4584  0.6463
  895MOL0     H20782   9.154   4.966   0.936  1.7009 -0.8377  0.2451
  895MOL0     H20783   8.944   4.821   0.771 -1.6748 -0.3317  3.2359
  895MOL0     H20784   9.003   4.979   0.728 -0.9364  0.7909 -0.7683
  895MOL0     H20785   8.722   5.066   1.069  0.1329 -0.8779 -0.3869
  895MOL0     H20786   8.521   5.170   1.143  0.8035  0.7354 -0.6809
  895MOL0     H20787   8.455   5.293   1.040  0.2680  0.6904 -1.3089
  895MOL0     H20788   8.392   5.128   1.033  0.1116  0.2089  0.5808
  895MOL0     H20789   8.472   5.403   0.380  0.1573  2.3791  0.4925
  895MOL0     H20790   8.334   5.556   0.280 -0.0682 -0.5133  0.7693
  895MOL0     H20791   7.869   5.588   0.369  0.6631  0.0887  1.2076
  895MOL0     H20792   7.956   5.678   0.491  1.3233  2.2311 -0.7987
  895MOL0     H20793   7.973   5.877   0.357  2.8689 -1.1485  0.3902
  895MOL0     H20794   7.926   5.796   0.208 -1.8092 -1.5337 -0.5294
  895MOL0     H20795   7.713   5.792   0.428  1.1355 -2.2841 -0.6164
  895MOL0     H20796   7.700   5.763   0.269 -1.9489 -1.0192  1.2242
  895MOL0     H20797   7.789   6.039   0.392 -3.4713  0.9714  0.7366
  895MOL0     H20798   7.761   6.014   0.218  0.3318  1.6330  1.0255
  895MOL0     H20799   7.562   6.120   0.350  1.7313  0.5134  1.5064
  895MOL0     H20800   7.578   5.999   0.466  1.2141  0.3989  0.2819
  895MOL0     H20801   7.473   5.957   0.175 -1.2350  1.2091 -0.0522
  895MOL0     H20802   7.494   5.829   0.297 -2.5455  0.6010 -1.2893
  895MOL0     H20803   7.335   6.079   0.364  3.0068  0.1481  3.6762
  895MOL0     H20804   7.339   5.914   0.433 -1.9143 -1.5331 -1.0347
  895MOL0     H20805   7.247   5.822   0.233  2.7220  0.4531  0.3761
  895MOL0     H20806   7.223   5.987   0.167  1.6215  2.7459  1.4063
  895MOL0     H20807   7.997   5.457   0.527 -0.6485  2.2170 -1.7219
  895MOL0     H20808   8.142   5.299   0.634  1.9686 -0.0940  1.5062
  895MOL0     H20809   8.625   5.145   0.588  0.4435 -0.9251  0.2293
  895MOL0     H20810   8.832   5.025   0.651 -0.3730 -2.5443 -0.0756
  895MOL0     H20811  10.363   4.734   0.264 -0.8021  2.8958 -0.6923
  895MOL0     H20812  10.594   4.792   0.221  1.3407 -0.8010  0.7440
  895MOL0     H20813  10.982   4.947   0.477  0.2592  0.8686 -0.3312
  895MOL0     H20814  11.233   4.995   0.473  0.7657  0.8839 -0.7586
  895MOL0     H20815  11.424   5.054   0.336  0.3147  1.3919  0.5327
  895MOL0     H20816  11.475   4.985   0.488 -0.9176  0.9339 -0.9695
  895MOL0     H20817  11.664   5.060   0.350  1.0167 -1.8148 -0.2496
  895MOL0     H20818  11.613   4.957   0.213 -1.2697 -1.2214 -0.3282
  895MOL0     H20819  11.709   4.790   0.293 -2.8527 -1.1532  0.3341
  895MOL0     H20820  11.678   4.810   0.466  3.8779  1.7709  2.2003
  895MOL0     H20821  11.882   4.983   0.346  0.9446 -1.7194 -0.5356
  895MOL0     H20822  11.909   4.819   0.414  1.5865  1.7090  2.0950
  895MOL0     H20823  11.833   5.036   0.764 -0.2611 -3.5263  1.2832
  895MOL0     H20824  11.275   4.653   0.212  0.1754  0.4947  0.2378
  895MOL0     H20825  11.067   4.626   0.197  0.6584 -0.0362  0.6316
  896MOL0     O20826   8.952   7.146   2.596  0.7714 -0.0567 -0.8871
  896MOL0     C20827   9.060   7.172   2.547 -0.5860  0.0383 -0.3533
  896MOL0     O20828   9.076   7.257   2.445 -0.0696  0.5255  0.3156
  896MOL0     C20829   8.965   7.296   2.373 -0.0309 -0.5217  0.9961
  896MOL0     C20830   8.874   7.385   2.426 -0.7667 -0.3912  0.4391
  896MOL0     C20831   8.763   7.425   2.346  0.4458  0.7226  0.4171
  896MOL0     C20832   8.749   7.378   2.219 -0.0434  0.0222  0.0620
  896MOL0     O20833   8.649   7.437   2.141  0.1618  0.7168 -0.6756
  896MOL0     C20834   8.516   7.405   2.188  0.7219 -0.6591 -0.1791
  896MOL0     C20835   8.406   7.450   2.084 -0.0410  0.1414 -0.2353
  896MOL0     C20836   8.262   7.405   2.109  1.1295 -0.3398 -0.6887
  896MOL0     C20837   8.169   7.452   1.996 -0.1445  0.9610  0.2236
  896MOL0     C20838   8.019   7.409   2.001 -0.3424  0.3621  0.0750
  896MOL0     C20839   7.940   7.507   2.095  0.5502 -0.2078  0.7762
  896MOL0     C20840   7.792   7.484   2.107  0.1618 -0.4643 -0.1106
  896MOL0     C20841   7.753   7.345   2.150 -0.2237  0.2161  0.1442
  896MOL0     N20842   7.613   7.338   2.176 -0.1308 -0.7220 -0.3311
  896MOL0     C20843   7.519   7.328   2.066 -0.2365  0.1949  0.0600
  896MOL0     C20844   7.401   7.368   2.130  0.2437  0.6503 -0.2534
  896MOL0     C20845   7.271   7.408   2.060  0.1414 -0.1834 -0.4673
  896MOL0     C20846   7.166   7.299   2.041 -0.6323 -0.9840  0.2968
  896MOL0     C20847   7.097   7.266   2.171 -0.0629  0.2700  0.2855
  896MOL0     C20848   6.956   7.218   2.158 -0.2163  0.4747  0.4851
  896MOL0     O20849   6.856   7.298   2.086  0.1111 -0.3039 -0.6014
  896MOL0     C20850   6.800   7.410   2.149  1.1659  1.0306 -0.3968
  896MOL0     C20851   6.686   7.474   2.106  0.0066  1.3767 -0.2338
  896MOL0     C20852   6.616   7.573   2.179  0.1840  0.7290  0.5000
  896MOL0     C20853   6.479   7.617   2.122  0.5478 -0.4498  0.7842
  896MOL0     C20854   6.670   7.627   2.299  0.2377 -0.5952 -0.0254
  896MOL0     C20855   6.600   7.728   2.390 -0.0169 -0.1862  0.2634
  896MOL0     O20856   6.668   7.752   2.502 -0.0268  0.1813  0.0097
  896MOL0     C20857   6.613   7.839   2.594 -0.1306  0.5882  0.4642
  896MOL0     C20858   6.618   7.970   2.595 -0.1352  0.3493 -0.0156
  896MOL0     C20859   6.553   8.040   2.697  0.3497 -0.2434  0.6189
  896MOL0     C20860   6.489   7.977   2.806 -0.2606  0.6579 -0.8439
  896MOL0     O20861   6.411   8.046   2.892  0.1762  0.3449  0.2877
  896MOL0     C20862   6.270   8.008   2.890  0.1097 -0.2125 -0.0817
  896MOL0     C20863   6.186   8.114   2.816  0.2047 -0.1436 -1.1735
  896MOL0     C20864   6.040   8.095   2.860  0.1376  0.4662  0.0624
  896MOL0     C20865   5.980   7.954   2.829  0.0978  0.5004 -0.3441
  896MOL0     C20866   5.823   7.935   2.854 -0.2416 -0.0219  0.7945
  896MOL0     C20867   5.772   7.984   2.992 -0.3500 -0.1290 -0.2689
  896MOL0     C20868   5.624   7.989   2.993  0.0129  0.1230 -0.5033
  896MOL0     C20869   5.564   7.857   3.023  0.1202  0.1906  0.4660
  896MOL0    Cl20870   5.383   7.879   3.023  0.1803 -0.3083  0.0475
  896MOL0     C20871   6.503   7.842   2.814 -0.7003 -0.0882  0.5112
  896MOL0     C20872   6.554   7.780   2.705 -0.1179 -0.4918  0.4897
  896MOL0     O20873   6.500   7.782   2.355  0.5626  0.7680 -0.0601
  896MOL0     C20874   6.796   7.579   2.331 -0.1877  0.3192  0.6781
  896MOL0     C20875   6.852   7.468   2.266  0.1886 -0.0228 -0.4712
  896MOL0     N20876   7.426   7.373   2.272  0.7652  0.2066 -1.0043
  896MOL0     N20877   7.551   7.342   2.302 -0.7371  0.4063  0.5073
  896MOL0     C20878   8.843   7.293   2.160 -0.1455  0.4942 -0.2452
  896MOL0     C20879   8.954   7.241   2.243  0.2283 -0.0405  0.2308
  896MOL0     C20880   9.181   7.111   2.610  0.1212 -1.6579  0.2686
  896MOL0     C20881   9.308   7.137   2.564  0.6048  1.1552  0.0156
  896MOL0     C20882   9.418   7.064   2.614 -0.9871  0.0485  0.1908
  896MOL0     C20883   9.403   6.967   2.708 -0.0081  0.8315 -0.5526
  896MOL0     O20884   9.513   6.897   2.751 -0.4897 -0.0239 -0.1670
  896MOL0     C20885   9.600   6.975   2.830 -0.3254  0.6237 -0.0559
  896MOL0     C20886   9.552   6.995   2.974  0.6453 -0.0027  0.5787
  896MOL0     C20887   9.524   6.864   3.035 -0.9691  0.6705 -0.4890
  896MOL0     C20888   9.503   6.857   3.186 -0.5188  0.1090  0.6650
  896MOL0     C20889   9.386   6.941   3.223  0.4017 -0.3640  0.2011
  896MOL0     C20890   9.281   6.995   3.260  0.8347  0.5273  0.0051
  896MOL0     C20891   9.273   6.931   2.749 -0.2198 -0.5698  0.6065
  896MOL0     C20892   9.162   7.013   2.704 -0.6580  0.3361  0.6611
  896MOL0     H20893   8.885   7.429   2.525  0.3689  1.4790 -0.4586
  896MOL0     H20894   8.697   7.496   2.394 -0.9484  0.8539 -1.5965
  896MOL0     H20895   8.514   7.296   2.200 -2.0312 -0.4380  2.5844
  896MOL0     H20896   8.482   7.464   2.273  4.0791  1.7330 -0.2771
  896MOL0     H20897   8.412   7.559   2.088 -0.2716  0.1083  2.3729
  896MOL0     H20898   8.443   7.412   1.988  0.1778 -2.5947  0.8585
  896MOL0     H20899   8.257   7.296   2.109  0.9037 -0.3289 -0.6874
  896MOL0     H20900   8.221   7.426   2.208  0.8469 -3.2465 -0.1189
  896MOL0     H20901   8.192   7.559   1.991  2.6576  0.3718 -3.4244
  896MOL0     H20902   8.205   7.417   1.899 -0.1545  0.6224  0.3407
  896MOL0     H20903   7.978   7.412   1.900  2.5546 -0.3229 -1.2311
  896MOL0     H20904   8.019   7.302   2.025  1.8671 -0.7584 -4.0329
  896MOL0     H20905   7.987   7.515   2.194  1.4006 -0.9447  0.4458
  896MOL0     H20906   7.941   7.610   2.060 -0.4517 -1.0272 -1.8761
  896MOL0     H20907   7.757   7.552   2.185  0.3277 -0.5830  0.0696
  896MOL0     H20908   7.752   7.503   2.007 -1.1409  0.2197  0.5189
  896MOL0     H20909   7.811   7.311   2.236 -2.3030 -2.6749  0.5590
  896MOL0     H20910   7.788   7.276   2.073  1.0448  3.4842 -2.4487
  896MOL0     H20911   7.557   7.328   1.964  2.6923  0.2797  1.0511
  896MOL0     H20912   7.226   7.493   2.113 -2.0027 -0.7146 -1.3289
  896MOL0     H20913   7.309   7.453   1.968  2.0379 -1.0833 -0.1757
  896MOL0     H20914   7.220   7.212   2.002  1.0696  0.4938 -0.7958
  896MOL0     H20915   7.096   7.335   1.965  3.4365  2.0691 -2.3804
  896MOL0     H20916   7.101   7.358   2.229 -3.5095  1.0067 -0.4040
  896MOL0     H20917   7.155   7.191   2.225  3.4806  2.0412 -0.7374
  896MOL0     H20918   6.924   7.193   2.260 -0.1608  3.5294  1.3597
  896MOL0     H20919   6.963   7.122   2.106 -0.0603  1.6746 -1.8569
  896MOL0     H20920   6.641   7.435   2.014  1.9969 -3.6019  0.5519
  896MOL0     H20921   6.399   7.586   2.191  2.3929 -1.1178  2.7259
  896MOL0     H20922   6.477   7.722   2.094  0.7881 -0.9745 -1.4139
  896MOL0     H20923   6.450   7.567   2.029 -2.1646  0.8895  0.8280
  896MOL0     H20924   6.677   8.021   2.519  1.9929  0.4061  1.5624
  896MOL0     H20925   6.544   8.148   2.695  2.0050  0.0345 -3.7687
  896MOL0     H20926   6.244   7.913   2.843 -1.1805  0.5310 -0.9413
  896MOL0     H20927   6.246   8.005   2.996  1.3954  1.9841  0.3247
  896MOL0     H20928   6.219   8.213   2.847 -0.5051  0.5395 -2.5173
  896MOL0     H20929   6.193   8.104   2.707 -2.5021 -0.0273 -1.4385
  896MOL0     H20930   5.968   8.176   2.846 -1.0490 -0.6634 -0.4910
  896MOL0     H20931   6.058   8.099   2.968 -3.1590  1.4083  0.6754
  896MOL0     H20932   5.998   7.929   2.724 -2.3139  0.7124 -0.8583
  896MOL0     H20933   6.016   7.884   2.905 -2.3497 -2.3392 -1.6365
  896MOL0     H20934   5.790   7.832   2.838 -1.3053  0.2074  1.4696
  896MOL0     H20935   5.769   7.993   2.779 -0.6047 -2.1169 -0.6482
  896MOL0     H20936   5.803   7.914   3.071 -1.0621 -0.3819 -0.2114
  896MOL0     H20937   5.815   8.083   3.009 -1.6111  0.5057 -0.6580
  896MOL0     H20938   5.571   8.032   2.907  1.0195  3.4109  0.3802
  896MOL0     H20939   5.595   8.052   3.078 -1.0379 -1.7680  0.6304
  896MOL0     H20940   5.595   7.819   3.120 -0.8003  0.1974  0.7729
  896MOL0     H20941   5.594   7.789   2.943  2.6073 -2.6497  3.5575
  896MOL0     H20942   6.473   7.783   2.901 -1.0778  0.7277  0.9510
  896MOL0     H20943   6.566   7.672   2.712  2.4724 -0.1962  1.3294
  896MOL0     H20944   6.853   7.609   2.419  2.9880  0.4695 -1.2980
  896MOL0     H20945   6.934   7.426   2.325 -0.3466 -0.1563  0.1871
  896MOL0     H20946   8.828   7.258   2.059  1.3892 -0.9046 -0.0396
  896MOL0     H20947   9.030   7.177   2.200 -1.2996 -1.5375 -0.4038
  896MOL0     H20948   9.325   7.202   2.478  0.8268  2.8436  1.2838
  896MOL0     H20949   9.514   7.070   2.565 -2.0267 -0.6459 -2.0888
  896MOL0     H20950   9.700   6.933   2.818 -0.8206 -0.4011 -0.6724
  896MOL0     H20951   9.610   7.077   2.791  1.1632  0.2095 -0.8376
  896MOL0     H20952   9.469   7.066   2.980 -0.2929 -0.3869 -3.9528
  896MOL0     H20953   9.640   7.039   3.021  0.5144  2.4849 -1.2811
  896MOL0     H20954   9.617   6.807   3.020 -0.2033  1.4948  0.9292
  896MOL0     H20955   9.445   6.812   2.980  1.3484 -2.1462 -1.4484
  896MOL0     H20956   9.596   6.899   3.227  0.3686  0.2444 -1.3576
  896MOL0     H20957   9.488   6.753   3.217  1.8586 -0.2199  0.8864
  896MOL0     H20958   9.202   7.046   3.311  1.6641  4.2296 -2.0246
  896MOL0     H20959   9.262   6.851   2.821  2.1284 -0.3768  1.2475
  896MOL0     H20960   9.063   6.981   2.736 -0.2124 -3.1448 -0.9806
  897MOL0     O20961  10.309   6.227   4.091 -0.5891  0.0982 -0.1877
  897MOL0     C20962  10.316   6.130   4.165  0.2188 -0.3309 -0.6790
  897MOL0     O20963  10.208   6.051   4.196  0.4079 -0.1680  0.4741
  897MOL0     C20964  10.079   6.097   4.176 -0.5537 -0.0496  0.1465
  897MOL0     C20965  10.004   6.108   4.287 -0.0815 -0.2030  0.2801
  897MOL0     C20966   9.864   6.132   4.270 -0.5370 -0.8393 -0.0220
  897MOL0     C20967   9.798   6.118   4.141  0.0575  0.2086 -0.1242
  897MOL0     O20968   9.657   6.125   4.132 -0.5348  0.7284  0.2904
  897MOL0     C20969   9.594   6.210   4.223 -0.0521  0.5910 -0.0491
  897MOL0     C20970   9.462   6.252   4.151  0.3154 -0.0039 -0.0081
  897MOL0     C20971   9.473   6.307   4.009 -0.1147  0.7954  0.5495
  897MOL0     C20972   9.342   6.340   3.940 -0.1602 -0.2168  0.3985
  897MOL0     C20973   9.356   6.398   3.796  0.2903  0.3055  0.6054
  897MOL0     C20974   9.428   6.306   3.700  0.0328  0.2755 -0.1477
  897MOL0     C20975   9.394   6.338   3.555  0.8504 -0.5707  0.5998
  897MOL0     C20976   9.464   6.465   3.485  1.4044  0.3050 -1.2086
  897MOL0     N20977   9.409   6.488   3.353 -0.0327 -0.2860 -0.3619
  897MOL0     C20978   9.282   6.540   3.339 -0.5429 -0.4421 -0.1355
  897MOL0     C20979   9.269   6.545   3.196  0.6378  0.2093  0.0272
  897MOL0     C20980   9.142   6.584   3.129  0.0277 -0.6131  0.2721
  897MOL0     C20981   9.121   6.730   3.119 -0.1981  1.0261 -0.2585
  897MOL0     C20982   9.006   6.774   3.032  0.6089  0.0130  0.1559
  897MOL0     C20983   8.976   6.921   3.049 -0.4044  0.3153  0.2699
  897MOL0     O20984   8.899   6.981   2.941  0.2630 -1.3421 -0.2154
  897MOL0     C20985   8.764   6.950   2.940 -0.1867  0.2340 -0.1868
  897MOL0     C20986   8.690   6.917   3.057 -0.5365  0.7908 -0.3285
  897MOL0     C20987   8.547   6.901   3.056 -0.7026  0.2504  0.7284
  897MOL0     C20988   8.465   6.867   3.180  0.2367  0.2387  0.3990
  897MOL0     C20989   8.481   6.921   2.932 -0.2805  0.1149 -0.8172
  897MOL0     C20990   8.337   6.912   2.909 -0.6937  0.0018 -0.0649
  897MOL0     O20991   8.287   6.998   2.821 -0.4176  0.0287  0.6647
  897MOL0     C20992   8.158   6.991   2.790  0.4765 -0.0682  0.2055
  897MOL0     C20993   8.116   6.944   2.667 -1.1576  0.1102  0.2639
  897MOL0     C20994   7.979   6.943   2.630 -1.0125 -0.1694 -0.0933
  897MOL0     C20995   7.888   6.974   2.730  0.8000 -0.8751  0.7117
  897MOL0     O20996   7.761   6.969   2.680  0.3767  0.0479 -0.1575
  897MOL0     C20997   7.661   7.058   2.728  0.3192 -0.0940 -0.0101
  897MOL0     C20998   7.529   6.974   2.707  0.2009  0.2763 -0.3982
  897MOL0     C20999   7.491   6.945   2.562  1.5289 -0.0116  0.0007
  897MOL0     C21000   7.340   6.909   2.538  0.0498  1.1002  0.5409
  897MOL0     C21001   7.295   6.900   2.382 -0.3340 -0.0599  0.3558
  897MOL0     C21002   7.140   6.935   2.376  0.5994 -0.1857 -0.6077
  897MOL0     C21003   7.047   6.847   2.462 -0.0131  0.7588  0.3947
  897MOL0     C21004   6.922   6.809   2.377  0.0423 -0.0527  0.1769
  897MOL0    Cl21005   6.811   6.941   2.390  0.3303  0.3367 -0.0855
  897MOL0     C21006   7.926   7.021   2.854 -0.0563 -0.8064 -0.5110
  897MOL0     C21007   8.061   7.026   2.882 -0.5978 -1.5060  0.1600
  897MOL0     O21008   8.278   6.822   2.967  0.4880 -0.6786 -0.2535
  897MOL0     C21009   8.562   6.947   2.821 -0.4226  0.3157 -1.2736
  897MOL0     C21010   8.697   6.958   2.823  1.0867 -0.7235 -0.4853
  897MOL0     N21011   9.384   6.503   3.138 -0.3787  0.3140  0.2373
  897MOL0     N21012   9.468   6.465   3.230 -0.1375  0.5800  0.2104
  897MOL0     C21013   9.878   6.094   4.031  0.1042  0.8068  0.1374
  897MOL0     C21014  10.022   6.082   4.049 -0.7206  1.1707 -0.6418
  897MOL0     C21015  10.445   6.106   4.227 -0.4479  0.1436  0.0637
  897MOL0     C21016  10.554   6.196   4.226 -0.5078 -0.1521  0.2034
  897MOL0     C21017  10.667   6.165   4.285 -0.3347  0.6957  0.1385
  897MOL0     C21018  10.678   6.045   4.360 -0.4835  0.4486  0.3544
  897MOL0     O21019  10.800   6.023   4.424  0.2368  0.2426 -0.7603
  897MOL0     C21020  10.827   5.885   4.439 -0.2036 -1.1941 -0.4952
  897MOL0     C21021  10.962   5.865   4.502  0.2475  0.3918  0.5468
  897MOL0     C21022  11.074   5.908   4.402 -0.5262  0.2388  0.3081
  897MOL0     C21023  11.181   6.004   4.466  0.7203  0.4491 -0.4867
  897MOL0     C21024  11.121   6.128   4.519 -0.5433 -0.5610  0.1117
  897MOL0     C21025  11.089   6.232   4.570  0.3828 -0.8490  0.5875
  897MOL0     C21026  10.569   5.961   4.372 -0.3229  0.3792 -0.2868
  897MOL0     C21027  10.450   5.992   4.306 -0.0726  0.7181  0.2499
  897MOL0     H21028  10.046   6.110   4.387 -1.5395  1.8342  0.9168
  897MOL0     H21029   9.809   6.172   4.355  1.7186  2.5007  0.0571
  897MOL0     H21030   9.568   6.160   4.317  0.2307 -0.6204 -0.6016
  897MOL0     H21031   9.657   6.297   4.242  0.6692  0.3267 -1.1363
  897MOL0     H21032   9.398   6.163   4.147 -0.2539  0.3911  0.2218
  897MOL0     H21033   9.418   6.321   4.223  1.4688 -1.5301  2.2634
  897MOL0     H21034   9.531   6.399   4.005  1.4372 -0.0657  1.7769
  897MOL0     H21035   9.522   6.236   3.941 -1.6389  0.4697 -0.2450
  897MOL0     H21036   9.273   6.255   3.937 -0.5702  0.0748 -3.0420
  897MOL0     H21037   9.286   6.421   3.987  0.7875 -0.2955  1.7103
  897MOL0     H21038   9.259   6.425   3.754  0.2041  0.7408  1.0694
  897MOL0     H21039   9.413   6.491   3.805  4.3011 -2.0350  2.1762
  897MOL0     H21040   9.537   6.296   3.705  0.2281 -2.3108 -4.5079
  897MOL0     H21041   9.392   6.205   3.721 -1.7739  1.1715  1.3321
  897MOL0     H21042   9.431   6.253   3.498  1.2853 -0.1502  0.2455
  897MOL0     H21043   9.285   6.343   3.549  0.8930 -1.0359 -0.7483
  897MOL0     H21044   9.572   6.450   3.476  1.7557  0.4872  1.7814
  897MOL0     H21045   9.462   6.552   3.551 -1.4558 -0.1940 -0.5302
  897MOL0     H21046   9.207   6.571   3.411 -1.9541 -2.1588 -0.8044
  897MOL0     H21047   9.133   6.534   3.032 -2.4202 -1.2244  0.7339
  897MOL0     H21048   9.055   6.550   3.186 -2.5136  1.1812 -2.2906
  897MOL0     H21049   9.210   6.765   3.065 -0.6141  0.7197 -1.1628
  897MOL0     H21050   9.122   6.769   3.221 -0.9366  2.3111 -0.7152
  897MOL0     H21051   8.917   6.718   3.065  0.9308 -1.2236 -0.9873
  897MOL0     H21052   9.021   6.746   2.928 -0.2989  3.3097 -0.9713
  897MOL0     H21053   9.075   6.968   3.044  0.0746 -0.7002 -0.1108
  897MOL0     H21054   8.948   6.948   3.151  0.0564  0.0872  0.4616
  897MOL0     H21055   8.731   6.885   3.153  0.7911 -1.0666 -1.4514
  897MOL0     H21056   8.410   6.776   3.154  0.5866 -0.3889  1.7421
  897MOL0     H21057   8.526   6.841   3.267  2.1768 -1.7636 -1.4257
  897MOL0     H21058   8.397   6.946   3.211 -0.3060 -0.1149  0.1322
  897MOL0     H21059   8.198   6.932   2.598 -1.5470 -0.7390 -0.0684
  897MOL0     H21060   7.947   6.905   2.534 -0.1364  3.0940 -1.8522
  897MOL0     H21061   7.682   7.084   2.832 -0.8630  1.4104 -0.1144
  897MOL0     H21062   7.658   7.151   2.670 -0.9920 -0.4808 -0.6140
  897MOL0     H21063   7.547   6.881   2.761 -1.6393 -0.0612 -0.2804
  897MOL0     H21064   7.448   7.023   2.763  1.5095  3.0457 -0.7365
  897MOL0     H21065   7.553   6.860   2.532 -0.6021 -1.6255 -0.0551
  897MOL0     H21066   7.509   7.038   2.508 -2.6181 -0.6962 -3.0986
  897MOL0     H21067   7.327   6.810   2.583  0.9464 -0.1279 -1.7172
  897MOL0     H21068   7.278   6.988   2.582  0.5033  2.6520 -1.4473
  897MOL0     H21069   7.318   6.808   2.327 -0.1887  0.6044 -0.7352
  897MOL0     H21070   7.355   6.974   2.329  0.7633  0.2047  1.9052
  897MOL0     H21071   7.133   7.039   2.407  0.1641  0.2501 -2.0882
  897MOL0     H21072   7.115   6.936   2.269 -1.1419 -0.1944 -0.2237
  897MOL0     H21073   7.006   6.907   2.543  0.4089  1.1759  0.3007
  897MOL0     H21074   7.094   6.761   2.511 -0.2419 -0.4114 -1.3393
  897MOL0     H21075   6.875   6.719   2.419 -1.9143  0.6558 -0.4015
  897MOL0     H21076   6.955   6.790   2.274  1.6417  3.9513 -0.2395
  897MOL0     H21077   7.859   7.044   2.937 -0.2449 -0.2341 -0.8086
  897MOL0     H21078   8.093   7.072   2.975 -0.5777  0.0463 -0.5882
  897MOL0     H21079   8.511   6.949   2.725 -1.3659 -0.8944 -0.8301
  897MOL0     H21080   8.751   6.978   2.730  1.2716  2.2108  0.1445
  897MOL0     H21081   9.827   6.081   3.936 -2.8013  2.1153  1.3940
  897MOL0     H21082  10.085   6.063   3.962 -2.2036 -1.6120 -1.2234
  897MOL0     H21083  10.541   6.286   4.167 -2.4112  1.7730  3.2660
  897MOL0     H21084  10.748   6.234   4.268 -0.2632  0.2946 -1.2787
  897MOL0     H21085  10.749   5.840   4.500  0.0337  1.7438  2.2595
  897MOL0     H21086  10.826   5.841   4.339 -0.6971  1.0843 -1.5658
  897MOL0     H21087  10.969   5.758   4.520 -1.3440  0.4894  1.9046
  897MOL0     H21088  10.973   5.912   4.600 -2.5740 -2.9376  2.6585
  897MOL0     H21089  11.040   5.951   4.307  2.1044 -0.1848 -0.9031
  897MOL0     H21090  11.125   5.819   4.364  1.5499  1.5380 -0.1023
  897MOL0     H21091  11.257   6.025   4.390  0.2948 -1.1283 -1.4072
  897MOL0     H21092  11.242   5.949   4.538 -0.3517 -1.0930 -0.6845
  897MOL0     H21093  11.054   6.324   4.614 -0.5075 -1.1780  0.5889
  897MOL0     H21094  10.570   5.878   4.441  1.9944  2.3597  2.2838
  897MOL0     H21095  10.364   5.930   4.330  0.5250  0.0694  0.7907
  898MOL0     O21096  10.505   9.281   5.677 -0.1359  1.1423 -0.7878
  898MOL0     C21097  10.510   9.167   5.629 -0.4878 -0.6667  0.0005
  898MOL0     O21098  10.407   9.083   5.616 -0.4154 -0.2152  0.1819
  898MOL0     C21099  10.280   9.127   5.637 -1.5745  0.5884  0.1235
  898MOL0     C21100  10.194   9.156   5.528 -0.7979 -0.7345  0.2058
  898MOL0     C21101  10.064   9.198   5.558  0.5999  0.3127  0.2032
  898MOL0     C21102  10.019   9.194   5.694  0.4833 -0.0595 -0.2396
  898MOL0     O21103   9.890   9.200   5.745  0.3244  0.0645  0.0737
  898MOL0     C21104   9.793   9.105   5.689 -0.9936 -0.3904 -0.3790
  898MOL0     C21105   9.657   9.132   5.754  0.0240 -0.1157 -0.7386
  898MOL0     C21106   9.595   9.256   5.689  0.6808 -0.2419 -0.6715
  898MOL0     C21107   9.479   9.321   5.764  0.2513 -0.3768 -0.1706
  898MOL0     C21108   9.423   9.454   5.698  0.4421 -0.0745  0.1769
  898MOL0     C21109   9.343   9.447   5.563 -0.7716 -0.0091 -0.7965
  898MOL0     C21110   9.205   9.385   5.578  0.9431 -0.0052  0.5211
  898MOL0     C21111   9.118   9.417   5.459 -0.3745 -0.1773  0.2376
  898MOL0     N21112   9.001   9.321   5.441 -0.2249  1.4026 -0.2142
  898MOL0     C21113   8.883   9.323   5.509  0.6771 -0.0780 -0.5788
  898MOL0     C21114   8.806   9.218   5.476 -0.0546 -0.0646 -0.3894
  898MOL0     C21115   8.674   9.167   5.536  0.2129 -1.2052  0.2307
  898MOL0     C21116   8.570   9.254   5.618  0.1781 -0.4020  0.4158
  898MOL0     C21117   8.476   9.329   5.511 -0.6064  0.8295 -0.2905
  898MOL0     C21118   8.358   9.407   5.561  0.4822 -0.2531 -0.4693
  898MOL0     O21119   8.277   9.316   5.628 -0.3937 -0.5922  0.2024
  898MOL0     C21120   8.190   9.362   5.715  0.8401 -0.5251 -0.0411
  898MOL0     C21121   8.223   9.372   5.850 -0.1564 -0.7251 -1.0047
  898MOL0     C21122   8.134   9.402   5.951  0.6584  0.8032 -0.1415
  898MOL0     C21123   8.193   9.404   6.088 -0.6746 -0.3437 -0.7575
  898MOL0     C21124   7.995   9.430   5.919 -0.1242  0.2245  0.2080
  898MOL0     C21125   7.896   9.484   6.010 -0.0610  0.6751 -0.2497
  898MOL0     O21126   7.922   9.469   6.146 -0.1908  0.4158  0.2220
  898MOL0     C21127   7.829   9.522   6.228 -0.0301 -0.5672 -0.2181
  898MOL0     C21128   7.704   9.462   6.235 -0.3102 -0.5636  0.0663
  898MOL0     C21129   7.601   9.523   6.297 -0.6103 -0.4225 -0.5951
  898MOL0     C21130   7.616   9.632   6.388 -0.5420  0.4901 -0.0036
  898MOL0     O21131   7.503   9.678   6.457 -0.1034 -0.2879  0.8683
  898MOL0     C21132   7.509   9.702   6.600  0.2418 -0.1707 -0.3554
  898MOL0     C21133   7.511   9.852   6.614 -0.9407 -0.1410  0.1614
  898MOL0     C21134   7.375   9.912   6.597  0.4187 -0.3528  0.3591
  898MOL0     C21135   7.393  10.058   6.570  0.3943  0.2574 -0.4547
  898MOL0     C21136   7.268  10.133   6.532  0.2756  0.1139 -0.1518
  898MOL0     C21137   7.175  10.151   6.643 -0.1092  0.1863 -0.1969
  898MOL0     C21138   7.032  10.214   6.595 -0.1128  0.3350  0.9340
  898MOL0     C21139   6.937  10.191   6.713 -0.4923 -0.4949  0.2914
  898MOL0    Cl21140   6.915  10.024   6.753  0.8012 -0.1104 -0.5033
  898MOL0     C21141   7.744   9.691   6.381 -0.7080 -0.3319  0.2424
  898MOL0     C21142   7.851   9.635   6.309 -0.6363 -0.9894  0.5377
  898MOL0     O21143   7.805   9.549   5.968 -0.1801  0.0129  0.6147
  898MOL0     C21144   7.961   9.443   5.779  0.1629 -0.7490  0.8717
  898MOL0     C21145   8.059   9.399   5.689  0.1375  0.4971 -0.2783
  898MOL0     N21146   8.870   9.165   5.367 -0.4804 -0.6135  0.3675
  898MOL0     N21147   8.989   9.218   5.357  0.3883  0.5008  0.2419
  898MOL0     C21148  10.111   9.176   5.792 -0.3882  0.5887  0.3379
  898MOL0     C21149  10.241   9.149   5.763  0.6039 -0.3862 -0.1475
  898MOL0     C21150  10.647   9.130   5.589  0.1558 -0.2466 -0.9905
  898MOL0     C21151  10.751   9.222   5.570 -1.3410 -0.4273  0.1813
  898MOL0     C21152  10.873   9.181   5.513  0.7068 -0.4164  0.3200
  898MOL0     C21153  10.893   9.052   5.480 -0.5101  1.0406  1.1673
  898MOL0     O21154  11.021   9.025   5.421  0.1676 -0.3145  0.3630
  898MOL0     C21155  11.072   8.888   5.416 -0.6799 -1.0620  0.1163
  898MOL0     C21156  11.220   8.903   5.467 -0.1581  0.0940 -0.3562
  898MOL0     C21157  11.308   8.781   5.432  0.4461 -0.6277  0.9875
  898MOL0     C21158  11.404   8.743   5.540 -0.4802  0.5427  0.2980
  898MOL0     C21159  11.514   8.680   5.476  1.2132  0.5770 -1.4178
  898MOL0     C21160  11.608   8.614   5.439 -1.3301 -0.6610 -0.2763
  898MOL0     C21161  10.788   8.959   5.483 -0.1612  0.2032  0.5330
  898MOL0     C21162  10.666   9.000   5.535  1.0154  0.1146 -0.1816
  898MOL0     H21163  10.224   9.158   5.423 -0.0380  4.1092  0.2688
  898MOL0     H21164   9.988   9.219   5.484 -0.0149 -1.5703  0.2552
  898MOL0     H21165   9.784   9.105   5.580  0.1915  1.5464 -0.5231
  898MOL0     H21166   9.835   9.009   5.719  3.4364  0.4187 -3.0818
  898MOL0     H21167   9.588   9.048   5.740 -0.9060  0.4552  0.2757
  898MOL0     H21168   9.676   9.148   5.861  2.5731 -2.9754 -0.5892
  898MOL0     H21169   9.677   9.328   5.683 -0.4474  1.3156  1.2848
  898MOL0     H21170   9.568   9.211   5.593  2.5691  1.4640 -2.0914
  898MOL0     H21171   9.395   9.254   5.782  0.9193 -1.3056 -0.4633
  898MOL0     H21172   9.522   9.357   5.858 -1.2150 -0.5777  0.6143
  898MOL0     H21173   9.355   9.484   5.779  0.2636  0.5163 -0.1816
  898MOL0     H21174   9.497   9.533   5.684 -0.0738  0.4240  0.2340
  898MOL0     H21175   9.331   9.543   5.512  2.0461  1.0970  0.3722
  898MOL0     H21176   9.411   9.381   5.509 -0.4165 -0.7299  0.4968
  898MOL0     H21177   9.220   9.277   5.580  0.6297 -0.0504  0.3618
  898MOL0     H21178   9.161   9.423   5.671 -1.2190 -1.3481  0.1046
  898MOL0     H21179   9.175   9.416   5.366  2.0009  0.0661  1.6042
  898MOL0     H21180   9.088   9.520   5.477  0.9935  0.4610 -0.9846
  898MOL0     H21181   8.860   9.390   5.591  0.5353  0.5146 -1.0920
  898MOL0     H21182   8.618   9.125   5.453 -0.3195 -0.4950  0.2204
  898MOL0     H21183   8.702   9.086   5.604 -2.3185 -4.8184 -2.6768
  898MOL0     H21184   8.621   9.330   5.678  2.0275  1.9038 -3.6769
  898MOL0     H21185   8.511   9.194   5.688 -4.0045 -2.3863 -4.2053
  898MOL0     H21186   8.434   9.252   5.444 -2.3377  1.9382 -0.5365
  898MOL0     H21187   8.549   9.397   5.465 -0.1918  0.4217 -0.2393
  898MOL0     H21188   8.307   9.462   5.481 -1.9626 -1.2055  0.3305
  898MOL0     H21189   8.398   9.486   5.625 -1.7527  0.2425  0.4327
  898MOL0     H21190   8.330   9.356   5.865  0.0420  1.4129  0.2978
  898MOL0     H21191   8.142   9.333   6.154 -1.1332 -1.9766 -2.7550
  898MOL0     H21192   8.295   9.365   6.085 -1.1725 -2.1525  1.9793
  898MOL0     H21193   8.183   9.505   6.128 -1.2070 -1.4872  2.2529
  898MOL0     H21194   7.673   9.384   6.167 -2.7714 -0.6288  1.1893
  898MOL0     H21195   7.504   9.476   6.310 -1.7028  2.2409  2.1343
  898MOL0     H21196   7.424   9.656   6.651  0.0105 -1.4166 -1.7867
  898MOL0     H21197   7.600   9.652   6.636  0.2970  1.1708  1.4810
  898MOL0     H21198   7.555   9.872   6.712  1.7241 -2.0837 -0.5411
  898MOL0     H21199   7.586   9.888   6.543 -1.1380  0.8121  0.4203
  898MOL0     H21200   7.311   9.899   6.684 -1.6164 -0.9934 -1.1651
  898MOL0     H21201   7.312   9.864   6.522 -0.8763  1.6248  0.1082
  898MOL0     H21202   7.438  10.094   6.663 -0.9824  1.4018 -0.1895
  898MOL0     H21203   7.460  10.074   6.485 -1.9381  1.2059 -2.2212
  898MOL0     H21204   7.223  10.062   6.462  0.9411 -0.9525  0.4560
  898MOL0     H21205   7.304  10.229   6.494  0.7404 -0.3743 -0.9979
  898MOL0     H21206   7.155  10.055   6.692 -2.8368  0.4290 -0.6469
  898MOL0     H21207   7.224  10.218   6.713 -1.2119 -0.8582  1.6644
  898MOL0     H21208   6.995  10.165   6.504  0.0644 -0.5712  1.3327
  898MOL0     H21209   7.043  10.319   6.568 -1.6326 -0.1751 -2.1887
  898MOL0     H21210   6.839  10.240   6.705 -2.1517 -3.2455  1.8980
  898MOL0     H21211   6.990  10.238   6.796  2.2717  0.2434 -1.7764
  898MOL0     H21212   7.763   9.778   6.444 -2.3012 -1.4437  2.3786
  898MOL0     H21213   7.944   9.690   6.298 -1.4344  0.4488  0.6530
  898MOL0     H21214   7.863   9.467   5.740  0.0501 -0.9749  1.0151
  898MOL0     H21215   8.041   9.395   5.582  3.3161  3.2282 -1.1061
  898MOL0     H21216  10.085   9.204   5.893  1.1561 -2.2838  1.6388
  898MOL0     H21217  10.311   9.135   5.844 -1.9947 -3.2064  1.8655
  898MOL0     H21218  10.752   9.322   5.613 -0.5125 -1.0211  1.6258
  898MOL0     H21219  10.956   9.245   5.483 -0.2077  0.6003 -0.0936
  898MOL0     H21220  11.011   8.821   5.476 -1.8709  1.3367  1.7707
  898MOL0     H21221  11.077   8.847   5.315  0.3808 -3.6486  1.1362
  898MOL0     H21222  11.226   8.927   5.574 -0.0259  2.3278 -0.8030
  898MOL0     H21223  11.261   8.998   5.429 -0.4879  1.4281  2.3743
  898MOL0     H21224  11.352   8.795   5.333 -1.0062 -4.0732 -0.2927
  898MOL0     H21225  11.248   8.694   5.403  2.4632 -2.0054  0.7365
  898MOL0     H21226  11.358   8.678   5.615  0.7912 -0.7476  0.0024
  898MOL0     H21227  11.450   8.826   5.594  1.1164 -0.1040 -0.0205
  898MOL0     H21228  11.695   8.560   5.407  2.1232  2.5824  2.6138
  898MOL0     H21229  10.791   8.863   5.433  0.4738  0.0744  0.7976
  898MOL0     H21230  10.591   8.922   5.529  0.8891  0.2395 -0.2133
  899MOL0     O21231   0.356   3.504   5.343 -0.3430  0.2811 -0.5065
  899MOL0     C21232   0.423   3.491   5.236 -0.7492 -0.4332 -0.2813
  899MOL0     O21233   0.376   3.507   5.111 -0.0481 -0.2307  0.2959
  899MOL0     C21234   0.238   3.526   5.105  0.3908  0.2143  0.8276
  899MOL0     C21235   0.148   3.422   5.093  0.4545  0.2389  0.2105
  899MOL0     C21236   0.007   3.432   5.076 -0.0588  0.1747 -0.0399
  899MOL0     C21237  -0.052   3.560   5.062  0.0427  0.4456 -0.1709
  899MOL0     O21238  -0.186   3.587   5.035 -0.1571 -0.6173  0.5154
  899MOL0     C21239  -0.284   3.504   5.099  0.6650  0.0983 -0.2764
  899MOL0     C21240  -0.320   3.568   5.233 -0.0080 -0.4160 -0.3084
  899MOL0     C21241  -0.215   3.571   5.348 -0.7100 -0.0621  0.2427
  899MOL0     C21242  -0.174   3.439   5.397 -0.1264  0.7652  0.1946
  899MOL0     C21243  -0.065   3.449   5.516 -0.4861  0.0062  0.4005
  899MOL0     C21244  -0.026   3.310   5.563 -0.2219 -0.5139  0.4910
  899MOL0     C21245  -0.142   3.228   5.617 -0.3728 -0.5923 -0.1041
  899MOL0     C21246  -0.122   3.120   5.721 -0.1154 -0.6032  0.8728
  899MOL0     N21247  -0.237   3.046   5.770 -0.4773 -0.0348 -0.1810
  899MOL0     C21248  -0.247   3.023   5.905 -0.1193  0.5978 -0.3249
  899MOL0     C21249  -0.332   2.921   5.907  0.0886  0.2093 -0.3176
  899MOL0     C21250  -0.383   2.853   6.034 -0.8679 -0.3367  0.5888
  899MOL0     C21251  -0.529   2.895   6.054  0.3207 -0.3291 -0.6963
  899MOL0     C21252  -0.594   2.845   6.186  0.3627  0.4531  0.2720
  899MOL0     C21253  -0.748   2.867   6.203 -0.6887  0.6957  0.4906
  899MOL0     O21254  -0.812   2.809   6.321  0.3809  1.2002  0.0460
  899MOL0     C21255  -0.787   2.859   6.451 -0.0270  0.0001  0.6905
  899MOL0     C21256  -0.857   2.802   6.563 -0.1590 -0.4647  1.1283
  899MOL0     C21257  -0.843   2.849   6.694  0.7111 -1.3359  0.3233
  899MOL0     C21258  -0.923   2.789   6.798  0.0777 -0.1751 -0.2151
  899MOL0     C21259  -0.739   2.942   6.718 -0.5287  0.0424  0.0711
  899MOL0     C21260  -0.678   2.977   6.858  0.7573  0.8869 -0.1321
  899MOL0     O21261  -0.712   2.899   6.970 -0.1652 -0.2241  0.1489
  899MOL0     C21262  -0.664   2.916   7.097  0.3172  0.1310  0.8500
  899MOL0     C21263  -0.558   2.996   7.140 -0.4601 -0.3686 -0.5698
  899MOL0     C21264  -0.543   3.014   7.279 -1.4469  0.9383  0.1618
  899MOL0     C21265  -0.631   2.960   7.375 -0.5722 -0.4121 -0.1591
  899MOL0     O21266  -0.604   2.977   7.512 -0.0454  0.2987  0.6090
  899MOL0     C21267  -0.718   2.975   7.603  0.1088 -0.1235  0.3065
  899MOL0     C21268  -0.807   3.090   7.578 -0.3381  0.3850  0.0905
  899MOL0     C21269  -0.935   3.070   7.663  0.0273 -0.4772  0.3097
  899MOL0     C21270  -1.056   3.149   7.611  0.1613 -0.1750 -0.9457
  899MOL0     C21271  -1.189   3.129   7.687 -0.3632 -0.1886  0.0319
  899MOL0     C21272  -1.298   3.194   7.603  0.3648 -0.1691  0.2371
  899MOL0     C21273  -1.361   3.107   7.493 -0.9523  0.4686 -0.1083
  899MOL0     C21274  -1.488   3.173   7.431  0.3468 -0.0393  0.7269
  899MOL0    Cl21275  -1.624   3.178   7.543  0.1837 -0.0647  0.1591
  899MOL0     C21276  -0.728   2.864   7.324 -0.6885 -0.6868  0.2691
  899MOL0     C21277  -0.754   2.854   7.188  0.8437 -0.4068  0.2159
  899MOL0     O21278  -0.608   3.079   6.867  0.2824 -0.1586  0.2312
  899MOL0     C21279  -0.683   3.007   6.608  0.2070 -0.0711  0.2892
  899MOL0     C21280  -0.707   2.968   6.476  0.6532 -0.4436 -0.2876
  899MOL0     N21281  -0.361   2.870   5.783 -0.2531 -0.6121 -0.3270
  899MOL0     N21282  -0.303   2.953   5.706  1.4158  0.5577 -0.0998
  899MOL0     C21283   0.042   3.661   5.062 -0.5589  0.8068 -0.2950
  899MOL0     C21284   0.181   3.648   5.072  0.9482 -0.0769 -0.6731
  899MOL0     C21285   0.565   3.442   5.246 -0.0512  0.4482 -0.3692
  899MOL0     C21286   0.657   3.512   5.331  0.3177 -0.0689  0.2695
  899MOL0     C21287   0.790   3.471   5.358 -0.6685  0.2533  0.8509
  899MOL0     C21288   0.838   3.378   5.260 -0.4998 -0.4410 -0.5141
  899MOL0     O21289   0.966   3.332   5.283  0.3477  0.4720  0.5151
  899MOL0     C21290   1.025   3.222   5.202 -0.1019 -0.1919  0.3127
  899MOL0     C21291   1.101   3.273   5.078  0.5960  0.3763  0.1696
  899MOL0     C21292   1.248   3.305   5.118 -0.2973  0.7546  0.4445
  899MOL0     C21293   1.320   3.343   4.995  0.1592 -0.2672 -0.0565
  899MOL0     C21294   1.464   3.371   5.012 -0.3388  1.0124 -0.0559
  899MOL0     C21295   1.580   3.399   5.035  0.3485 -0.5817  1.0742
  899MOL0     C21296   0.752   3.324   5.157 -0.0093 -0.0113 -1.2774
  899MOL0     C21297   0.622   3.359   5.155  0.9619  0.8057 -0.0897
  899MOL0     H21298   0.206   3.331   5.103 -3.9956 -3.1114 -1.3884
  899MOL0     H21299  -0.051   3.340   5.070 -0.8266  0.4978  1.7511
  899MOL0     H21300  -0.377   3.507   5.041  0.3593 -0.4098  0.1735
  899MOL0     H21301  -0.250   3.401   5.107 -3.6620 -1.9312 -3.5924
  899MOL0     H21302  -0.336   3.673   5.206  1.4289 -0.2469 -0.5538
  899MOL0     H21303  -0.414   3.528   5.272 -1.5047  1.6578 -1.5943
  899MOL0     H21304  -0.125   3.620   5.311 -0.4329 -0.3799  0.4889
  899MOL0     H21305  -0.252   3.633   5.430  1.8672  0.2661  1.2641
  899MOL0     H21306  -0.254   3.371   5.429  1.5981 -1.3357  0.2840
  899MOL0     H21307  -0.117   3.383   5.323  2.2921  3.6335 -0.2843
  899MOL0     H21308   0.020   3.510   5.484 -2.0275  2.4999  0.8281
  899MOL0     H21309  -0.105   3.509   5.598 -0.1431 -0.2554  0.7625
  899MOL0     H21310   0.017   3.269   5.471 -0.7366  0.9493 -0.4353
  899MOL0     H21311   0.042   3.325   5.648 -2.1788 -0.3358  2.1119
  899MOL0     H21312  -0.223   3.296   5.643 -1.0842 -0.4123 -2.5111
  899MOL0     H21313  -0.185   3.181   5.528 -1.1755 -1.5798  0.7751
  899MOL0     H21314  -0.071   3.173   5.802 -1.0078 -0.7107  1.5285
  899MOL0     H21315  -0.053   3.048   5.677 -0.9733 -1.4380  0.8595
  899MOL0     H21316  -0.190   3.075   5.981  1.4940  0.1758 -1.2021
  899MOL0     H21317  -0.373   2.745   6.029  2.1699 -0.2000  1.6936
  899MOL0     H21318  -0.316   2.876   6.118  2.8620  1.0170 -2.4630
  899MOL0     H21319  -0.590   2.848   5.976  0.3204 -0.7193 -0.4633
  899MOL0     H21320  -0.542   3.003   6.048 -1.5380 -0.4156  0.8264
  899MOL0     H21321  -0.555   2.890   6.278 -0.5878  2.0909 -0.0876
  899MOL0     H21322  -0.565   2.740   6.197 -1.5544 -0.1224  0.0694
  899MOL0     H21323  -0.797   2.822   6.117  0.3802  0.8546 -0.2196
  899MOL0     H21324  -0.771   2.974   6.206 -1.8137  0.4496  0.9727
  899MOL0     H21325  -0.926   2.720   6.543 -3.2234  1.9575  0.9608
  899MOL0     H21326  -1.023   2.757   6.770  0.6076 -1.5600 -0.6116
  899MOL0     H21327  -0.872   2.703   6.843 -3.7989 -1.8273  1.4787
  899MOL0     H21328  -0.936   2.864   6.876 -2.1144  0.0980 -0.7926
  899MOL0     H21329  -0.499   3.051   7.067  0.5802 -0.6466  0.0419
  899MOL0     H21330  -0.463   3.074   7.320 -0.1888 -1.2413  1.0637
  899MOL0     H21331  -0.769   2.878   7.601 -1.5148  0.3686  5.0685
  899MOL0     H21332  -0.683   2.986   7.706 -2.0798  2.1417  0.9024
  899MOL0     H21333  -0.767   3.190   7.600  0.0754 -0.5393  4.2313
  899MOL0     H21334  -0.831   3.089   7.471 -0.2857  4.5098 -0.1219
  899MOL0     H21335  -0.909   3.103   7.764  0.5350  1.9024 -0.5377
  899MOL0     H21336  -0.969   2.966   7.672 -1.3311  0.0124  1.0323
  899MOL0     H21337  -1.040   3.257   7.617  1.9446 -0.4711  0.3756
  899MOL0     H21338  -1.079   3.118   7.509 -3.3810 -1.2199  0.0385
  899MOL0     H21339  -1.175   3.181   7.782  1.2160 -0.3358 -0.0855
  899MOL0     H21340  -1.182   3.022   7.708  5.2360  0.1790  1.8409
  899MOL0     H21341  -1.379   3.224   7.670  0.5366 -0.4730  0.5855
  899MOL0     H21342  -1.257   3.284   7.556  1.5573 -0.7941  0.0475
  899MOL0     H21343  -1.390   3.008   7.529  3.0228 -1.4343 -1.5514
  899MOL0     H21344  -1.281   3.088   7.420 -0.9133 -1.2310  0.3382
  899MOL0     H21345  -1.508   3.111   7.344  2.7713 -1.5441  1.1515
  899MOL0     H21346  -1.463   3.270   7.386  1.7429 -0.4604  0.5640
  899MOL0     H21347  -0.785   2.808   7.397  0.0794 -0.8384  0.7650
  899MOL0     H21348  -0.846   2.800   7.168  0.5063  0.4836 -0.7273
  899MOL0     H21349  -0.619   3.094   6.620 -1.1636  0.9220  0.5902
  899MOL0     H21350  -0.656   3.014   6.392 -3.2797  0.3188 -2.5211
  899MOL0     H21351   0.014   3.760   5.028 -0.9001  0.4347 -1.1368
  899MOL0     H21352   0.250   3.731   5.066 -0.2434  1.2801  2.3054
  899MOL0     H21353   0.618   3.590   5.396  2.3887  1.1315  0.1662
  899MOL0     H21354   0.849   3.512   5.439  0.9657 -1.3393  0.5579
  899MOL0     H21355   1.093   3.160   5.259 -3.1853 -0.5092  4.0336
  899MOL0     H21356   0.950   3.146   5.181 -0.8690  0.5173  0.4052
  899MOL0     H21357   1.052   3.359   5.032 -2.5097 -0.3785  1.7527
  899MOL0     H21358   1.099   3.180   5.021  2.7713  1.1679 -1.3324
  899MOL0     H21359   1.290   3.217   5.167 -0.1008 -1.0190 -2.6551
  899MOL0     H21360   1.242   3.388   5.189  0.4514  2.4398 -1.3633
  899MOL0     H21361   1.271   3.432   4.954 -0.7158 -1.6846 -2.2698
  899MOL0     H21362   1.310   3.268   4.916  1.5930  0.2586 -0.7686
  899MOL0     H21363   1.681   3.428   5.057  0.5065 -0.8344  0.7111
  899MOL0     H21364   0.782   3.258   5.077  3.8648 -1.4699  1.0668
  899MOL0     H21365   0.561   3.309   5.080 -0.8289 -0.5635  2.1350
  900MOL0     O21366   3.541  10.059   0.035 -0.2342  0.2480 -0.1892
  900MOL0     C21367   3.600   9.997  -0.051 -0.1177  0.2541  0.3681
  900MOL0     O21368   3.542   9.896  -0.137  0.1123  0.3431 -0.1197
  900MOL0     C21369   3.405   9.881  -0.144 -0.0671 -0.3625  0.2157
  900MOL0     C21370   3.319   9.885  -0.038  1.0664  0.4794  1.0018
  900MOL0     C21371   3.176   9.864  -0.051 -0.3575  0.5429 -0.4019
  900MOL0     C21372   3.120   9.863  -0.176  0.2967  0.6181 -0.7815
  900MOL0     O21373   2.980   9.849  -0.190 -0.0440  0.0130 -0.5816
  900MOL0     C21374   2.930   9.829  -0.318  0.1812 -1.0765  0.8064
  900MOL0     C21375   2.777   9.838  -0.325 -1.3860  0.0915  0.2112
  900MOL0     C21376   2.721   9.742  -0.219 -1.3688  0.7870 -0.1952
  900MOL0     C21377   2.564   9.745  -0.220 -0.3740 -0.6237 -0.4209
  900MOL0     C21378   2.527   9.650  -0.323 -0.3949 -0.5573  0.4066
  900MOL0     C21379   2.373   9.651  -0.344 -0.2337 -0.1874  0.1772
  900MOL0     C21380   2.332   9.795  -0.396  0.1554  0.4123  0.0007
  900MOL0     C21381   2.204   9.773  -0.493  0.1148  0.7592 -1.0338
  900MOL0     N21382   2.078   9.774  -0.423 -0.0184 -0.0131  0.1505
  900MOL0     C21383   2.023   9.670  -0.365 -0.1182 -0.2617  0.0941
  900MOL0     C21384   1.905   9.713  -0.309  0.2668  1.0709 -0.1179
  900MOL0     C21385   1.801   9.617  -0.259 -0.6735 -0.5247  0.1100
  900MOL0     C21386   1.661   9.680  -0.248  0.2038  0.9732  0.0740
  900MOL0     C21387   1.563   9.592  -0.178  0.6961  0.2363 -0.1026
  900MOL0     C21388   1.426   9.667  -0.175  0.0349 -0.3203  0.1315
  900MOL0     O21389   1.322   9.579  -0.115 -0.6884 -0.2980 -0.3561
  900MOL0     C21390   1.207   9.582  -0.179  0.9834 -0.3967 -0.6349
  900MOL0     C21391   1.096   9.655  -0.126 -0.1115  0.9973  1.2512
  900MOL0     C21392   0.968   9.646  -0.192 -0.6396  0.4314 -0.8965
  900MOL0     C21393   0.864   9.723  -0.119 -0.0868 -0.0157  0.7758
  900MOL0     C21394   0.961   9.602  -0.326 -0.0507 -0.1992 -0.0356
  900MOL0     C21395   0.840   9.619  -0.407  1.1106  0.7946  0.9134
  900MOL0     O21396   0.829   9.538  -0.525  0.3021 -0.0160  0.4310
  900MOL0     C21397   0.707   9.521  -0.584 -0.7668  0.5527 -0.0611
  900MOL0     C21398   0.677   9.542  -0.714 -0.2846 -0.6103  0.2797
  900MOL0     C21399   0.556   9.510  -0.765  0.0663  1.2262 -0.8850
  900MOL0     C21400   0.451   9.456  -0.692 -1.3060  0.2780 -0.4005
  900MOL0     O21401   0.325   9.427  -0.742 -0.1117  0.3804 -0.2106
  900MOL0     C21402   0.305   9.438  -0.880  0.6405 -0.2796 -0.0367
  900MOL0     C21403   0.161   9.446  -0.919 -0.1265  0.5030  0.5577
  900MOL0     C21404   0.096   9.582  -0.894  0.0782  0.5654  0.2653
  900MOL0     C21405  -0.055   9.581  -0.934 -0.2419 -0.1666 -0.4427
  900MOL0     C21406  -0.110   9.725  -0.918  0.2563  0.3204  0.1209
  900MOL0     C21407  -0.229   9.740  -1.003  0.5065 -0.5145 -0.9411
  900MOL0     C21408  -0.283   9.881  -1.009  0.3616 -0.3868  0.8258
  900MOL0     C21409  -0.392   9.900  -1.119 -0.8616  0.6441  0.4471
  900MOL0    Cl21410  -0.542   9.783  -1.106  0.5754 -0.1913  0.4068
  900MOL0     C21411   0.482   9.430  -0.558 -0.0642 -0.0453 -0.2444
  900MOL0     C21412   0.608   9.462  -0.506 -0.6182  0.7931 -0.2840
  900MOL0     O21413   0.759   9.703  -0.375 -0.2954  0.5594 -0.2279
  900MOL0     C21414   1.066   9.531  -0.370 -1.1470 -0.3827 -0.5190
  900MOL0     C21415   1.188   9.524  -0.301 -0.4872  0.7068 -0.4764
  900MOL0     N21416   1.898   9.849  -0.340  0.6317 -0.1192  0.5890
  900MOL0     N21417   2.008   9.886  -0.400  0.1372 -0.8752  0.2442
  900MOL0     C21418   3.207   9.851  -0.283  0.6797  0.4399  0.1410
  900MOL0     C21419   3.344   9.867  -0.269  0.2261  0.2598 -0.6436
  900MOL0     C21420   3.747  10.016  -0.057 -0.1430 -0.4066  0.1532
  900MOL0     C21421   3.832   9.916  -0.120 -0.2381 -0.2544 -0.5897
  900MOL0     C21422   3.970   9.927  -0.135 -0.9751  0.0453 -1.0355
  900MOL0     C21423   4.041  10.036  -0.070  0.3309 -0.9301  0.3222
  900MOL0     O21424   4.177  10.057  -0.064 -0.1457 -0.0840  0.3612
  900MOL0     C21425   4.244  10.049  -0.189 -0.8028  1.0863  0.9626
  900MOL0     C21426   4.348   9.940  -0.163 -0.1736 -0.9550  0.5648
  900MOL0     C21427   4.390   9.846  -0.271  0.0637 -0.8459  0.4581
  900MOL0     C21428   4.408   9.901  -0.419 -0.1864  0.4518  0.4302
  900MOL0     C21429   4.484  10.030  -0.440  0.1297  0.3108 -0.4321
  900MOL0     C21430   4.548  10.124  -0.434  0.1387 -0.4866 -0.1888
  900MOL0     C21431   3.958  10.128   0.001  0.9005 -0.5427 -0.6297
  900MOL0     C21432   3.809  10.127   0.000  0.5511  0.8362 -0.4975
  900MOL0     H21433   3.356   9.896   0.064  3.8457 -1.1996  0.2812
  900MOL0     H21434   3.104   9.860   0.031 -1.3087 -0.4350 -1.2479
  900MOL0     H21435   2.968   9.892  -0.400  0.9260 -0.1349  1.8483
  900MOL0     H21436   2.954   9.725  -0.345  2.9295 -0.1058 -0.9699
  900MOL0     H21437   2.756   9.942  -0.299  1.4485  0.4351  1.4058
  900MOL0     H21438   2.738   9.811  -0.423 -0.2248  0.4971 -0.3744
  900MOL0     H21439   2.761   9.641  -0.214  0.2164  1.4443  1.3994
  900MOL0     H21440   2.758   9.784  -0.125 -0.7220 -0.1505 -0.0218
  900MOL0     H21441   2.520   9.723  -0.122 -2.7051 -1.2262 -1.5305
  900MOL0     H21442   2.538   9.850  -0.235  1.8630  0.1054  0.3571
  900MOL0     H21443   2.574   9.685  -0.415 -1.8350  0.6580  0.1054
  900MOL0     H21444   2.557   9.549  -0.293 -3.3028 -2.2499 -1.8458
  900MOL0     H21445   2.339   9.562  -0.397  2.5663 -2.1402  1.4023
  900MOL0     H21446   2.330   9.636  -0.244 -0.4845  0.4290  0.1656
  900MOL0     H21447   2.304   9.856  -0.310 -0.3888  0.6374 -0.3299
  900MOL0     H21448   2.413   9.854  -0.439  0.2428  2.1304  2.2954
  900MOL0     H21449   2.203   9.676  -0.544 -3.2577 -0.1000  0.3740
  900MOL0     H21450   2.204   9.856  -0.564  0.2259  1.9187  0.2840
  900MOL0     H21451   2.066   9.570  -0.367 -1.2692 -0.7943  0.7317
  900MOL0     H21452   1.791   9.533  -0.328 -1.6049 -1.3340  1.1973
  900MOL0     H21453   1.839   9.579  -0.164  1.8928 -0.7576 -0.9074
  900MOL0     H21454   1.623   9.709  -0.346 -0.8837 -0.9226 -0.1171
  900MOL0     H21455   1.671   9.770  -0.186 -2.0806 -1.1504  3.9395
  900MOL0     H21456   1.595   9.551  -0.082 -1.5871 -2.1371 -0.2309
  900MOL0     H21457   1.557   9.504  -0.242  2.0303  1.6023 -2.2466
  900MOL0     H21458   1.400   9.703  -0.275  1.3508 -0.7890 -0.4082
  900MOL0     H21459   1.429   9.753  -0.107 -1.6862 -1.7916  2.2108
  900MOL0     H21460   1.099   9.717  -0.037  1.9095  0.2603  1.7583
  900MOL0     H21461   0.768   9.671  -0.125 -0.3824  0.5391  0.5484
  900MOL0     H21462   0.871   9.736  -0.010 -0.6444 -0.4783  0.8695
  900MOL0     H21463   0.856   9.827  -0.153 -0.8142 -0.1623  0.4775
  900MOL0     H21464   0.744   9.602  -0.774 -1.3709  1.2828  0.8646
  900MOL0     H21465   0.537   9.537  -0.868  1.6814 -1.2241 -1.9154
  900MOL0     H21466   0.358   9.521  -0.928  3.0275 -2.2225 -0.9875
  900MOL0     H21467   0.337   9.340  -0.918 -2.0391 -1.0265 -0.5825
  900MOL0     H21468   0.159   9.418  -1.025  1.5577  1.4817  0.2211
  900MOL0     H21469   0.105   9.365  -0.873 -0.0219  1.0956  1.7558
  900MOL0     H21470   0.147   9.658  -0.953 -1.2557  1.8395  0.6981
  900MOL0     H21471   0.099   9.600  -0.786 -0.5893 -0.0683  0.4007
  900MOL0     H21472  -0.070   9.554  -1.039  0.3985  0.3961 -0.6850
  900MOL0     H21473  -0.111   9.511  -0.870  0.6516  0.0935  0.6653
  900MOL0     H21474  -0.040   9.802  -0.951  2.2243 -0.3002  2.5381
  900MOL0     H21475  -0.130   9.740  -0.811  0.6347  0.4245  0.1786
  900MOL0     H21476  -0.221   9.694  -1.101 -2.0227  0.9503 -1.9393
  900MOL0     H21477  -0.313   9.679  -0.966 -0.1792  2.1395  2.4418
  900MOL0     H21478  -0.208   9.960  -1.012 -1.2747  1.4911  3.8455
  900MOL0     H21479  -0.344   9.888  -0.918 -1.4399  1.2946 -0.4157
  900MOL0     H21480  -0.322   9.891  -1.203  2.1204  2.6452  2.5385
  900MOL0     H21481  -0.433  10.002  -1.114 -1.2209  0.5974 -1.0008
  900MOL0     H21482   0.406   9.383  -0.497 -0.9767  2.7952  0.9915
  900MOL0     H21483   0.620   9.427  -0.404 -0.2760 -1.2062 -0.9581
  900MOL0     H21484   1.063   9.489  -0.470 -0.0887  1.6968 -1.5020
  900MOL0     H21485   1.273   9.479  -0.350  0.9130  2.8579 -0.1591
  900MOL0     H21486   3.170   9.856  -0.385 -1.2772 -2.6676  0.5680
  900MOL0     H21487   3.404   9.871  -0.359  1.0921 -0.2227 -0.1000
  900MOL0     H21488   3.789   9.829  -0.169  3.5077 -1.6122 -1.8728
  900MOL0     H21489   4.024   9.846  -0.182 -0.6498 -0.7089  0.5455
  900MOL0     H21490   4.179  10.010  -0.268 -1.5802  2.1109  1.0785
  900MOL0     H21491   4.297  10.141  -0.216  1.0925 -0.3115 -0.3427
  900MOL0     H21492   4.311   9.875  -0.083  0.1823  1.3664  2.7213
  900MOL0     H21493   4.439   9.985  -0.123 -1.4176 -0.5346  3.1029
  900MOL0     H21494   4.310   9.772  -0.275 -2.4761  1.3612  4.1039
  900MOL0     H21495   4.483   9.800  -0.236 -0.4801 -2.2275  0.1543
  900MOL0     H21496   4.307   9.923  -0.455  0.3094  0.4396 -1.0455
  900MOL0     H21497   4.444   9.821  -0.484 -2.6052 -0.5888  0.2502
  900MOL0     H21498   4.608  10.211  -0.415 -1.9957  1.0246  0.0314
  900MOL0     H21499   4.025  10.188   0.062 -0.9343 -0.8286  1.8218
  900MOL0     H21500   3.760  10.209   0.053  0.1593  0.8751 -0.9174
  901MOL0     O21501   7.794   9.875   1.324  0.1408 -0.3034  0.3925
  901MOL0     C21502   7.870   9.969   1.315 -0.2458 -0.8215 -0.5330
  901MOL0     O21503   7.834  10.096   1.273 -0.6823 -0.2937 -0.4146
  901MOL0     C21504   7.705  10.135   1.281 -0.2194 -0.5992 -0.0043
  901MOL0     C21505   7.632  10.130   1.400  0.2647 -0.8508  0.7691
  901MOL0     C21506   7.508  10.192   1.414 -0.8895  0.6300 -0.1558
  901MOL0     C21507   7.459  10.258   1.303 -0.0372  0.3126  0.7458
  901MOL0     O21508   7.343  10.323   1.330  0.0995 -0.6918  0.0340
  901MOL0     C21509   7.270  10.357   1.210 -0.5837  0.2269  0.3900
  901MOL0     C21510   7.139  10.437   1.248 -0.3952 -0.2508 -0.1295
  901MOL0     C21511   7.061  10.371   1.356  0.0363  0.3235 -0.2119
  901MOL0     C21512   6.922  10.429   1.393  0.5722  0.0632  0.6917
  901MOL0     C21513   6.858  10.388   1.526 -0.2498 -0.2731  0.1834
  901MOL0     C21514   6.817  10.236   1.537 -0.7368  0.4964  0.6829
  901MOL0     C21515   6.671  10.211   1.480  0.8605  1.7277 -0.4835
  901MOL0     C21516   6.632  10.055   1.498 -0.7625 -0.1029 -0.0657
  901MOL0     N21517   6.488  10.053   1.464 -0.4989  0.1762 -0.8062
  901MOL0     C21518   6.440  10.082   1.339  1.3619 -0.3132 -0.2589
  901MOL0     C21519   6.305  10.091   1.358 -0.8566  0.1418 -0.2553
  901MOL0     C21520   6.211  10.102   1.246 -0.2619  0.8616 -0.1144
  901MOL0     C21521   6.166   9.967   1.198  1.3111  0.7938  0.1931
  901MOL0     C21522   6.068   9.977   1.077  0.1773  0.4702  0.0087
  901MOL0     C21523   6.008   9.843   1.036 -0.0501 -0.7659  0.2058
  901MOL0     O21524   5.881   9.859   0.968 -0.2029 -0.3483 -0.0018
  901MOL0     C21525   5.765   9.869   1.033  0.6519 -0.0335 -1.0704
  901MOL0     C21526   5.748   9.870   1.171  0.7661  0.1443 -0.4070
  901MOL0     C21527   5.622   9.874   1.235  0.1304  1.0561 -0.0996
  901MOL0     C21528   5.621   9.848   1.380 -0.4470  0.6262 -0.1230
  901MOL0     C21529   5.498   9.893   1.158  0.0815  0.5220 -0.2342
  901MOL0     C21530   5.355   9.897   1.218 -0.0402 -0.3538 -0.7121
  901MOL0     O21531   5.346   9.971   1.334  0.0527  0.2214  0.5477
  901MOL0     C21532   5.229  10.010   1.394  0.0054 -0.4847  0.1060
  901MOL0     C21533   5.119  10.054   1.316  0.1815 -0.0035  0.1499
  901MOL0     C21534   5.007  10.112   1.385  0.0835 -0.6946  0.0978
  901MOL0     C21535   5.016  10.126   1.522  0.2233  0.4184 -0.2055
  901MOL0     O21536   4.903  10.191   1.569 -0.3718 -0.2158  0.3417
  901MOL0     C21537   4.952  10.306   1.633  0.6852  0.1340  0.4955
  901MOL0     C21538   4.834  10.379   1.697 -0.0062 -0.2475  0.2558
  901MOL0     C21539   4.704  10.369   1.615 -1.4144 -0.2075  0.1692
  901MOL0     C21540   4.608  10.475   1.669  0.3468  0.4696 -0.0209
  901MOL0     C21541   4.491  10.513   1.579 -0.3700 -0.2886  0.0693
  901MOL0     C21542   4.397  10.610   1.650  0.1885  0.0030 -0.3075
  901MOL0     C21543   4.313  10.689   1.547 -0.5394 -0.7609  0.3050
  901MOL0     C21544   4.209  10.605   1.485 -0.1220 -0.6901 -0.3662
  901MOL0    Cl21545   4.070  10.539   1.583 -0.6977 -0.0481  0.1095
  901MOL0     C21546   5.110  10.072   1.599 -0.3877  0.2550 -0.3557
  901MOL0     C21547   5.222  10.022   1.534  0.0014 -0.4384  0.0392
  901MOL0     O21548   5.268   9.832   1.163  0.1544 -0.6726  0.3169
  901MOL0     C21549   5.516   9.892   1.020  0.0425  0.0572 -0.5721
  901MOL0     C21550   5.641   9.878   0.958  0.2063  1.1798 -1.1867
  901MOL0     N21551   6.284  10.091   1.492 -0.1151  0.7241  0.7227
  901MOL0     N21552   6.395  10.068   1.555  0.4587 -0.3724 -0.2469
  901MOL0     C21553   7.522  10.248   1.176 -0.1464 -0.3133  0.1266
  901MOL0     C21554   7.641  10.189   1.160 -0.5114  0.1275 -0.3974
  901MOL0     C21555   8.011   9.935   1.330 -0.5532 -0.5103 -0.7421
  901MOL0     C21556   8.119  10.033   1.373  0.5059 -0.0254 -0.3029
  901MOL0     C21557   8.241   9.988   1.414  0.7359 -0.0802 -0.2852
  901MOL0     C21558   8.282   9.856   1.376  0.4950  0.7301  0.3883
  901MOL0     O21559   8.405   9.818   1.400  0.4249  0.0607 -0.6071
  901MOL0     C21560   8.481   9.735   1.316 -0.0608 -0.3166  0.5153
  901MOL0     C21561   8.550   9.632   1.404 -0.0607  0.0681  0.9397
  901MOL0     C21562   8.681   9.577   1.333 -0.2252 -0.6403  0.2911
  901MOL0     C21563   8.740   9.457   1.406 -0.3340  0.6449  0.2710
  901MOL0     C21564   8.890   9.442   1.388  0.8189  0.1799  0.6472
  901MOL0     C21565   9.002   9.414   1.362  0.3489  0.6528 -0.2592
  901MOL0     C21566   8.183   9.769   1.326  0.1076  0.6796  0.0769
  901MOL0     C21567   8.052   9.803   1.314  0.6646 -0.5061 -0.4084
  901MOL0     H21568   7.667  10.080   1.489  1.0868  1.3750  1.7524
  901MOL0     H21569   7.456  10.197   1.509 -0.7450  2.4789 -0.1370
  901MOL0     H21570   7.328  10.411   1.134  0.3008 -0.9085  0.2219
  901MOL0     H21571   7.246  10.261   1.163  2.2733 -0.7540  0.7252
  901MOL0     H21572   7.164  10.541   1.271  1.8516 -1.0771  1.5511
  901MOL0     H21573   7.078  10.423   1.158 -0.6348  0.0353 -0.0112
  901MOL0     H21574   7.046  10.269   1.319 -2.2121  0.3584  0.4620
  901MOL0     H21575   7.122  10.362   1.446  0.8117  0.2337 -0.7365
  901MOL0     H21576   6.925  10.538   1.388 -0.9017  0.1947  1.9552
  901MOL0     H21577   6.860  10.392   1.311  3.5238 -2.4310 -0.6081
  901MOL0     H21578   6.930  10.422   1.601  2.0965 -0.9808 -1.6048
  901MOL0     H21579   6.759  10.432   1.539 -1.1363 -1.3854 -2.2737
  901MOL0     H21580   6.882  10.166   1.482  0.2329  1.8704  0.0256
  901MOL0     H21581   6.814  10.209   1.643 -2.9165  0.8946  0.7504
  901MOL0     H21582   6.591  10.260   1.537 -0.6980 -1.9080  0.7721
  901MOL0     H21583   6.670  10.241   1.375 -0.2583 -1.8482 -1.6218
  901MOL0     H21584   6.633  10.024   1.604 -2.4868  0.5626  0.1801
  901MOL0     H21585   6.693   9.990   1.434  0.5963  1.0743 -0.0092
  901MOL0     H21586   6.485  10.080   1.241 -2.0298 -0.9098 -1.9505
  901MOL0     H21587   6.131  10.165   1.286 -0.9977  0.2723 -0.6109
  901MOL0     H21588   6.255  10.159   1.164  2.0687  0.3659  0.7114
  901MOL0     H21589   6.113   9.910   1.274  0.1839  2.6780  0.8973
  901MOL0     H21590   6.248   9.910   1.155 -0.2004 -0.3264 -1.3265
  901MOL0     H21591   6.129  10.018   0.996 -1.3555  0.8725 -0.9797
  901MOL0     H21592   5.995  10.051   1.111  1.5888  1.2156  1.5460
  901MOL0     H21593   5.991   9.791   1.131  0.4191  0.8847  1.2287
  901MOL0     H21594   6.074   9.788   0.969  0.7445  0.7749 -0.3160
  901MOL0     H21595   5.836   9.865   1.235 -0.4274 -1.4089  1.1865
  901MOL0     H21596   5.530   9.798   1.415  0.2494 -2.1744 -2.0552
  901MOL0     H21597   5.699   9.777   1.410 -1.8612 -0.2041  1.8568
  901MOL0     H21598   5.632   9.940   1.439  0.7076 -1.7253  3.6698
  901MOL0     H21599   5.120  10.052   1.208 -2.3595  0.4816  0.0567
  901MOL0     H21600   4.927  10.146   1.319 -1.1388 -0.0146  1.8632
  901MOL0     H21601   5.021  10.281   1.714  0.3368  2.0646  1.4672
  901MOL0     H21602   5.002  10.375   1.564  1.7957 -0.2826  0.8499
  901MOL0     H21603   4.814  10.337   1.796 -2.0891 -1.2010 -0.5069
  901MOL0     H21604   4.864  10.483   1.713  1.5991 -0.5717 -0.4683
  901MOL0     H21605   4.659  10.270   1.626 -2.7052  0.3390  0.0358
  901MOL0     H21606   4.722  10.399   1.512 -0.1609  3.2162  1.2548
  901MOL0     H21607   4.573  10.430   1.762 -0.6444  2.2305  0.5070
  901MOL0     H21608   4.653  10.570   1.701 -3.4271  1.8892  1.7259
  901MOL0     H21609   4.427  10.429   1.550 -1.4820  0.8962 -1.0326
  901MOL0     H21610   4.528  10.563   1.489 -1.0745  1.0371  0.4817
  901MOL0     H21611   4.330  10.557   1.718  0.6389 -0.4763 -0.2350
  901MOL0     H21612   4.452  10.683   1.711 -2.1987  0.8029  1.0102
  901MOL0     H21613   4.382  10.724   1.469 -2.1815 -1.4406 -1.5390
  901MOL0     H21614   4.257  10.770   1.594  0.7183 -0.0001  0.5346
  901MOL0     H21615   4.263  10.522   1.438  1.0565 -0.1787  0.0407
  901MOL0     H21616   4.168  10.670   1.407  5.8354  4.3846 -0.1128
  901MOL0     H21617   5.101  10.076   1.707 -1.0103 -0.9245 -0.3439
  901MOL0     H21618   5.307   9.991   1.595 -2.1743 -2.2069  2.4435
  901MOL0     H21619   5.429   9.896   0.956 -0.2951 -0.8057 -0.1730
  901MOL0     H21620   5.661   9.869   0.852 -0.1893 -1.6568 -1.1047
  901MOL0     H21621   7.484  10.283   1.081 -2.7055  0.7036  1.4123
  901MOL0     H21622   7.694  10.192   1.065 -3.1082  2.0435 -1.8996
  901MOL0     H21623   8.083  10.134   1.393 -2.3341 -0.4739 -2.4981
  901MOL0     H21624   8.318  10.055   1.453  1.4402 -0.4053 -1.0928
  901MOL0     H21625   8.426   9.681   1.239  0.2683 -0.1355  0.1519
  901MOL0     H21626   8.557   9.796   1.265  0.9452 -0.3250  1.9372
  901MOL0     H21627   8.486   9.544   1.412  3.3608 -3.0144 -1.8759
  901MOL0     H21628   8.570   9.680   1.500  1.0469 -0.6318  1.0779
  901MOL0     H21629   8.755   9.656   1.349 -0.4912 -0.5777  1.2825
  901MOL0     H21630   8.654   9.565   1.228 -1.3418  4.0603 -0.2114
  901MOL0     H21631   8.683   9.377   1.358  0.2387  2.6902 -4.4610
  901MOL0     H21632   8.732   9.450   1.515  1.4432  0.5710  0.4210
  901MOL0     H21633   9.109   9.405   1.350  0.6065  0.9139  1.5444
  901MOL0     H21634   8.213   9.667   1.306  0.1161  0.8387 -0.7601
  901MOL0     H21635   7.994   9.722   1.270  0.8368 -0.3610 -0.9139
  902MOL0     O21636   9.769   7.715   9.659 -0.1246 -0.0282 -0.5069
  902MOL0     C21637   9.832   7.786   9.741 -0.9768  0.2859 -0.5044
  902MOL0     O21638   9.773   7.865   9.844  0.0465 -0.4222 -0.0839
  902MOL0     C21639   9.636   7.888   9.825  0.1538 -0.4815 -0.3325
  902MOL0     C21640   9.592   7.991   9.735 -0.4074  0.2623  0.0436
  902MOL0     C21641   9.461   8.029   9.727 -0.0851 -0.1667 -0.6969
  902MOL0     C21642   9.357   7.966   9.796 -0.0160  0.0807  0.3851
  902MOL0     O21643   9.227   7.999   9.773  0.2200  0.4312  0.0017
  902MOL0     C21644   9.189   8.058   9.651 -0.2250 -0.8775  0.2178
  902MOL0     C21645   9.177   8.214   9.675 -0.0155 -0.0015 -0.4141
  902MOL0     C21646   9.124   8.269   9.802  0.6263  0.2358 -0.1614
  902MOL0     C21647   8.982   8.225   9.824 -0.4189 -0.4778 -0.8225
  902MOL0     C21648   8.940   8.297   9.955 -0.0450 -0.6796  0.1716
  902MOL0     C21649   8.856   8.203  10.042  0.1454 -0.5850  0.3508
  902MOL0     C21650   8.796   8.277  10.172 -0.3847  0.0080 -0.2136
  902MOL0     C21651   8.702   8.173  10.247 -0.1788  0.9912  0.4668
  902MOL0     N21652   8.597   8.239  10.312  0.2238  0.0955 -0.9822
  902MOL0     C21653   8.553   8.235  10.444 -1.0519  0.5214  0.4237
  902MOL0     C21654   8.431   8.293  10.445 -0.7569  0.5958 -0.5509
  902MOL0     C21655   8.355   8.297  10.573 -0.3150  0.3321  0.3534
  902MOL0     C21656   8.207   8.259  10.549 -0.3606  0.3415  1.0532
  902MOL0     C21657   8.120   8.230  10.679  0.5287 -0.2745 -0.1198
  902MOL0     C21658   7.976   8.262  10.652 -0.9815  0.7845  0.8527
  902MOL0     O21659   7.897   8.279  10.760 -0.3070 -0.1089  0.3687
  902MOL0     C21660   7.760   8.277  10.747  0.1020  0.1878 -0.0601
  902MOL0     C21661   7.692   8.280  10.867  0.9092 -0.3615  0.4429
  902MOL0     C21662   7.554   8.300  10.856  0.6112  0.5331  0.5573
  902MOL0     C21663   7.477   8.318  10.983 -0.3005  0.9741  0.3797
  902MOL0     C21664   7.487   8.301  10.724  0.4352 -0.3829 -0.2231
  902MOL0     C21665   7.336   8.315  10.702  0.4035 -0.1253  1.2062
  902MOL0     O21666   7.256   8.362  10.805 -0.7307 -0.0468 -0.6832
  902MOL0     C21667   7.123   8.366  10.785 -0.0441 -0.6394  1.3364
  902MOL0     C21668   7.055   8.452  10.691  0.9011  0.0189 -0.0127
  902MOL0     C21669   6.916   8.458  10.682  0.5351  0.3016  0.7422
  902MOL0     C21670   6.842   8.382  10.767  0.2600  0.3115 -0.4487
  902MOL0     O21671   6.705   8.390  10.743  0.3821  0.1518  0.5385
  902MOL0     C21672   6.647   8.476  10.840 -1.3983  0.3678  0.4537
  902MOL0     C21673   6.533   8.549  10.777 -0.3619 -0.1059  0.0983
  902MOL0     C21674   6.572   8.656  10.676 -0.8461  0.3901  0.1424
  902MOL0     C21675   6.452   8.732  10.619 -0.4373  0.1648 -0.2242
  902MOL0     C21676   6.483   8.848  10.522  0.2953  1.1229 -0.4068
  902MOL0     C21677   6.508   8.789  10.380  0.4421 -0.1025  0.4577
  902MOL0     C21678   6.586   8.891  10.281 -0.1781 -0.3606  0.6279
  902MOL0     C21679   6.734   8.886  10.294 -0.8158  0.0432 -0.5681
  902MOL0    Cl21680   6.806   8.768  10.175  0.0515 -0.4548  0.0939
  902MOL0     C21681   6.904   8.287  10.851 -0.0350 -0.3585  0.7328
  902MOL0     C21682   7.043   8.284  10.857 -0.1156  0.0854  0.3871
  902MOL0     O21683   7.290   8.282  10.593 -0.0910 -0.1584  1.0741
  902MOL0     C21684   7.560   8.281  10.606 -0.7838 -0.4180  0.5595
  902MOL0     C21685   7.694   8.270  10.620 -0.0072  0.0167  0.0907
  902MOL0     N21686   8.413   8.350  10.320 -0.0679  0.2273 -0.8828
  902MOL0     N21687   8.498   8.308  10.239 -0.0316 -0.2300 -0.9401
  902MOL0     C21688   9.402   7.871   9.884 -0.3058  0.0802 -0.3817
  902MOL0     C21689   9.539   7.832   9.904  0.0523  0.4625  0.3320
  902MOL0     C21690   9.978   7.786   9.750  0.6618 -0.8807  0.1954
  902MOL0     C21691  10.062   7.749   9.643  0.6241 -0.6179 -0.0976
  902MOL0     C21692  10.204   7.755   9.666  0.6770 -0.8457 -0.1885
  902MOL0     C21693  10.269   7.788   9.782 -0.3241  0.0084  0.7971
  902MOL0     O21694  10.409   7.774   9.798 -0.1136  0.1225 -1.0453
  902MOL0     C21695  10.501   7.756   9.688  0.2958  0.4386 -0.5882
  902MOL0     C21696  10.516   7.865   9.587  0.1902 -0.4003  0.4682
  902MOL0     C21697  10.534   8.011   9.651  0.0871 -0.2177 -0.2490
  902MOL0     C21698  10.660   8.017   9.732 -0.8287  0.3285 -0.1986
  902MOL0     C21699  10.789   7.995   9.662  1.6834  1.3021 -0.8531
  902MOL0     C21700  10.888   7.979   9.591  0.2303 -0.6014 -0.5582
  902MOL0     C21701  10.185   7.831   9.878 -0.2207 -0.0361  0.3021
  902MOL0     C21702  10.040   7.824   9.870 -0.4104  0.4419  0.4370
  902MOL0     H21703   9.653   8.049   9.668 -3.2743  2.4878 -0.8403
  902MOL0     H21704   9.430   8.109   9.661  1.6109  1.7390  0.7285
  902MOL0     H21705   9.258   8.036   9.569  1.5050  2.2784  0.6792
  902MOL0     H21706   9.090   8.025   9.619  0.3290  0.1343 -2.8930
  902MOL0     H21707   9.279   8.250   9.659  1.2587 -2.4420  1.4875
  902MOL0     H21708   9.118   8.256   9.593 -0.4086  1.2156  0.4719
  902MOL0     H21709   9.192   8.237   9.882 -0.9352  2.8637  2.4230
  902MOL0     H21710   9.132   8.377   9.785  1.5725 -0.0864 -2.1438
  902MOL0     H21711   8.923   8.243   9.733 -4.2139  0.1803  1.5526
  902MOL0     H21712   8.970   8.117   9.833 -1.6128 -0.4897 -2.2342
  902MOL0     H21713   9.031   8.322  10.010  1.2018  0.4704 -2.2579
  902MOL0     H21714   8.886   8.389   9.930  0.4531 -0.1718  0.9226
  902MOL0     H21715   8.776   8.157   9.983  1.6440 -0.5729 -1.8432
  902MOL0     H21716   8.918   8.121  10.076  1.4241  1.0501  2.1485
  902MOL0     H21717   8.879   8.294  10.242  0.1706 -3.7241  0.2416
  902MOL0     H21718   8.742   8.369  10.149 -4.3107 -1.6142  1.5138
  902MOL0     H21719   8.757   8.112  10.320 -3.6638 -1.2343  1.4557
  902MOL0     H21720   8.654   8.106  10.175 -0.8848  0.6542  1.2306
  902MOL0     H21721   8.608   8.187  10.524  0.0688  1.1124  0.0399
  902MOL0     H21722   8.398   8.225  10.643 -2.5079 -1.6410 -0.2120
  902MOL0     H21723   8.361   8.399  10.613 -0.1769 -0.0788  1.3992
  902MOL0     H21724   8.210   8.162  10.499 -2.7087  0.6181  0.2510
  902MOL0     H21725   8.163   8.320  10.471 -2.0119 -1.0762  0.8186
  902MOL0     H21726   8.166   8.286  10.761  0.0475 -1.5214  1.0313
  902MOL0     H21727   8.129   8.126  10.711  0.8246  0.7443  3.5683
  902MOL0     H21728   7.942   8.171  10.602  1.4569 -0.4667  1.3294
  902MOL0     H21729   7.975   8.348  10.584 -1.4598 -0.0675 -0.2564
  902MOL0     H21730   7.748   8.283  10.960  1.4198  1.4691  0.1112
  902MOL0     H21731   7.536   8.294  11.072 -0.4240  1.1842  0.5205
  902MOL0     H21732   7.435   8.419  10.994 -2.1562  0.2755  0.0233
  902MOL0     H21733   7.391   8.251  10.978  0.2560 -0.0324  2.9023
  902MOL0     H21734   7.103   8.515  10.617 -1.9682  2.1262 -0.2374
  902MOL0     H21735   6.861   8.506  10.602  2.7384  0.2647 -0.8846
  902MOL0     H21736   6.618   8.405  10.918  0.4169  0.7388  1.5009
  902MOL0     H21737   6.715   8.550  10.883  1.1231 -1.5899  0.0854
  902MOL0     H21738   6.474   8.468  10.732  1.9035 -1.5628 -0.4039
  902MOL0     H21739   6.474   8.603  10.851  1.9755  3.2058 -0.2556
  902MOL0     H21740   6.632   8.619  10.592 -3.1775 -0.1590 -1.3845
  902MOL0     H21741   6.629   8.734  10.729 -0.5165 -0.1241  0.5472
  902MOL0     H21742   6.389   8.665  10.559 -0.6954  1.9462 -2.0278
  902MOL0     H21743   6.395   8.774  10.702 -1.6152  0.6316 -1.2445
  902MOL0     H21744   6.567   8.904  10.564  0.4538  1.1352 -0.7379
  902MOL0     H21745   6.391   8.906  10.516 -1.1997 -1.0174  0.5448
  902MOL0     H21746   6.574   8.701  10.380 -0.7207 -1.0069  0.6979
  902MOL0     H21747   6.405   8.774  10.345 -0.0256 -0.3038  1.8810
  902MOL0     H21748   6.546   8.993  10.292 -1.1537 -0.3452 -2.3185
  902MOL0     H21749   6.568   8.874  10.175  2.5007  0.5800 -0.0552
  902MOL0     H21750   6.765   8.859  10.395  0.0299  1.9126 -0.2750
  902MOL0     H21751   6.777   8.984  10.270 -1.9086  0.8107  0.4870
  902MOL0     H21752   6.842   8.218  10.908 -2.7432  0.8872 -0.5243
  902MOL0     H21753   7.090   8.221  10.931  2.1748  2.1564  0.8170
  902MOL0     H21754   7.510   8.276  10.510 -0.8664  0.2528  0.5582
  902MOL0     H21755   7.736   8.247  10.522 -1.7089  0.4611 -0.7779
  902MOL0     H21756   9.325   7.806   9.923 -0.8244 -0.5983 -2.4134
  902MOL0     H21757   9.568   7.750   9.968 -0.7591  0.8911  1.2802
  902MOL0     H21758  10.010   7.731   9.550  2.9910 -0.7908 -1.4508
  902MOL0     H21759  10.261   7.708   9.586 -0.0801  1.4356 -2.2057
  902MOL0     H21760  10.602   7.733   9.722 -0.1684 -0.7824  0.0183
  902MOL0     H21761  10.471   7.668   9.631  4.0371 -0.0780 -2.0210
  902MOL0     H21762  10.431   7.870   9.519 -1.7618  1.5231  2.8468
  902MOL0     H21763  10.597   7.847   9.517 -0.2631  1.9814 -0.7668
  902MOL0     H21764  10.450   8.041   9.714  0.6775  0.8912  0.0401
  902MOL0     H21765  10.543   8.088   9.574 -0.5860  0.9552  0.7990
  902MOL0     H21766  10.638   7.929   9.795 -0.8338 -0.9048 -1.8544
  902MOL0     H21767  10.666   8.109   9.791  3.8043  0.2368 -0.2023
  902MOL0     H21768  10.980   7.969   9.537  1.0749 -0.6514  0.8346
  902MOL0     H21769  10.240   7.854   9.969 -1.4781  0.1462  1.0334
  902MOL0     H21770   9.976   7.852   9.954 -0.7325 -0.4879  0.5087
  903MOL0     O21771   4.423   9.333  11.012 -0.2317  0.0509 -0.6249
  903MOL0     C21772   4.475   9.437  10.968  0.3646 -0.1299  0.2557
  903MOL0     O21773   4.413   9.542  10.917 -0.3561 -0.5790 -0.0726
  903MOL0     C21774   4.270   9.550  10.922  0.2703 -0.6002  0.9794
  903MOL0     C21775   4.210   9.601  10.808  0.9651  0.0174 -0.5331
  903MOL0     C21776   4.069   9.627  10.802  0.6724 -0.0878 -0.2406
  903MOL0     C21777   3.985   9.582  10.902  0.0047  0.0932 -0.1642
  903MOL0     O21778   3.843   9.601  10.903 -0.4575 -0.2931 -0.0948
  903MOL0     C21779   3.767   9.619  10.782  0.2485 -0.0934 -0.6167
  903MOL0     C21780   3.771   9.760  10.723 -0.0094  0.0263 -0.0549
  903MOL0     C21781   3.701   9.757  10.584 -0.6796 -0.3336 -0.6501
  903MOL0     C21782   3.553   9.730  10.589 -1.0787 -0.7895  0.0930
  903MOL0     C21783   3.497   9.687  10.456  0.1519 -0.6270 -0.1292
  903MOL0     C21784   3.349   9.664  10.466  0.0183  0.1941  0.1335
  903MOL0     C21785   3.277   9.793  10.507  0.6441  0.7083 -0.4197
  903MOL0     C21786   3.125   9.766  10.511  0.1045 -0.2973  0.5334
  903MOL0     N21787   3.080   9.676  10.621  0.2741 -0.9486 -0.6783
  903MOL0     C21788   3.065   9.536  10.633 -0.1425 -0.8252  0.0809
  903MOL0     C21789   2.992   9.510  10.741  0.9874  0.4702  0.1575
  903MOL0     C21790   2.953   9.371  10.790  0.2592  0.4696 -0.2976
  903MOL0     C21791   2.891   9.281  10.685 -0.2461  0.6865  0.0341
  903MOL0     C21792   2.938   9.139  10.689 -0.3834 -1.0374 -0.1885
  903MOL0     C21793   2.859   9.018  10.633  1.2310 -0.5237  0.0154
  903MOL0     O21794   2.718   9.043  10.663  0.4340 -0.1175  0.0497
  903MOL0     C21795   2.619   9.050  10.561  0.3247 -0.5068  0.1039
  903MOL0     C21796   2.636   9.060  10.421 -0.4355  0.6969 -0.6729
  903MOL0     C21797   2.531   9.058  10.334 -0.4538 -0.5432 -0.2765
  903MOL0     C21798   2.561   9.058  10.182  0.0594 -0.0255  0.6728
  903MOL0     C21799   2.399   9.066  10.387  0.8822  0.4593 -0.6268
  903MOL0     C21800   2.283   9.076  10.300  0.1211 -0.4011  0.7228
  903MOL0     O21801   2.168   9.008  10.334 -0.3896 -0.1892 -0.2101
  903MOL0     C21802   2.057   9.031  10.256 -0.5643 -0.9090 -0.4180
  903MOL0     C21803   2.048   9.002  10.121  0.5781 -0.2417  0.4105
  903MOL0     C21804   1.929   9.039  10.052 -0.5367  0.6281 -0.1818
  903MOL0     C21805   1.818   9.098  10.114  0.5777 -0.0595 -0.4827
  903MOL0     O21806   1.721   9.146  10.025 -0.0113 -0.0988 -0.4327
  903MOL0     C21807   1.594   9.183  10.079 -0.1961  0.4564 -0.7036
  903MOL0     C21808   1.494   9.203   9.975  0.9841 -0.5773 -0.6179
  903MOL0     C21809   1.444   9.081   9.915 -0.2237 -0.1618  0.1774
  903MOL0     C21810   1.323   9.098   9.817 -0.4939  0.4393  0.4884
  903MOL0     C21811   1.316   8.976   9.729 -0.4958 -0.4012  0.3094
  903MOL0     C21812   1.176   8.915   9.732  0.5412  0.1086  0.0363
  903MOL0     C21813   1.155   8.790   9.646  0.2340 -0.5874  0.8658
  903MOL0     C21814   1.031   8.794   9.555 -0.4389  0.6412  0.2879
  903MOL0    Cl21815   0.990   8.626   9.498 -0.2505  0.0602  0.3974
  903MOL0     C21816   1.817   9.097  10.254  0.1470 -0.6980  0.1572
  903MOL0     C21817   1.936   9.067  10.322 -0.6346  0.2684  0.2201
  903MOL0     O21818   2.294   9.148  10.203 -0.2814  0.1164  0.2721
  903MOL0     C21819   2.381   9.070  10.527 -0.1530  0.3049 -0.0592
  903MOL0     C21820   2.491   9.059  10.612 -0.2454  0.6740  0.0412
  903MOL0     N21821   2.947   9.633  10.788 -0.1123 -0.2863  0.0109
  903MOL0     N21822   3.006   9.725  10.720  0.3294  0.3111  0.4794
  903MOL0     C21823   4.047   9.521  11.011 -0.0882  0.1104 -0.3189
  903MOL0     C21824   4.188   9.501  11.025 -0.7935 -0.1830  0.2500
  903MOL0     C21825   4.623   9.437  10.975  0.6753 -0.0627  1.0323
  903MOL0     C21826   4.688   9.551  10.908 -0.1692 -0.0328 -0.2895
  903MOL0     C21827   4.827   9.564  10.907  0.5723 -0.4050  0.3190
  903MOL0     C21828   4.914   9.463  10.963  0.3066  0.1542  0.4509
  903MOL0     O21829   5.053   9.464  10.947 -0.2476 -0.1915 -0.5842
  903MOL0     C21830   5.129   9.543  10.849  0.3923 -0.5295 -0.1095
  903MOL0     C21831   5.255   9.474  10.796 -0.2794  0.3657 -1.1494
  903MOL0     C21832   5.224   9.370  10.681 -0.4435 -0.4679 -0.4469
  903MOL0     C21833   5.152   9.244  10.722  0.0642  0.4616  0.1292
  903MOL0     C21834   5.146   9.136  10.620 -0.0104 -0.8910  0.1998
  903MOL0     C21835   5.151   9.035  10.561  0.1888  0.1886  0.1020
  903MOL0     C21836   4.850   9.350  11.018 -0.8650  0.1700  0.1488
  903MOL0     C21837   4.707   9.335  11.027  0.1805  0.0222  0.0627
  903MOL0     H21838   4.260   9.626  10.715  1.4924 -0.1115 -0.2861
  903MOL0     H21839   4.034   9.677  10.712 -0.2471 -1.5857 -0.7529
  903MOL0     H21840   3.791   9.542  10.708 -0.0326  1.0449 -1.9500
  903MOL0     H21841   3.663   9.592  10.802 -0.5088  1.1862 -2.5068
  903MOL0     H21842   3.719   9.843  10.771 -3.6121 -1.0766 -1.6591
  903MOL0     H21843   3.876   9.787  10.710 -0.2099  1.2877  0.8067
  903MOL0     H21844   3.712   9.852  10.531 -1.8668  0.5684  0.6738
  903MOL0     H21845   3.751   9.683  10.521  0.0897 -0.8526  0.5372
  903MOL0     H21846   3.546   9.641  10.652 -0.1387 -1.1485 -0.2892
  903MOL0     H21847   3.514   9.821  10.635  0.7728  0.4424 -0.6376
  903MOL0     H21848   3.518   9.756  10.374 -0.8721 -1.6644 -1.2974
  903MOL0     H21849   3.553   9.597  10.428  2.1657  1.0998 -1.9721
  903MOL0     H21850   3.314   9.633  10.367  1.5088 -1.9754  0.2314
  903MOL0     H21851   3.336   9.588  10.544 -0.5797  1.2229  1.0799
  903MOL0     H21852   3.304   9.811  10.611  1.1742 -1.1477 -0.1875
  903MOL0     H21853   3.299   9.878  10.443 -2.6607  1.3721 -0.8617
  903MOL0     H21854   3.101   9.734  10.409 -1.8980  2.0293  0.2002
  903MOL0     H21855   3.082   9.865  10.527  2.0830  0.4596  1.5859
  903MOL0     H21856   3.109   9.463  10.565 -1.7713 -2.5784  0.8017
  903MOL0     H21857   3.047   9.330  10.826 -0.8835 -2.2421 -0.1432
  903MOL0     H21858   2.878   9.386  10.868  0.1385  0.6804 -0.4507
  903MOL0     H21859   2.920   9.319  10.587  1.1641  3.9116  1.5611
  903MOL0     H21860   2.782   9.275  10.693 -0.4902  3.8123  0.2990
  903MOL0     H21861   2.955   9.109  10.793  0.8568  1.0823  0.2933
  903MOL0     H21862   3.041   9.133  10.652 -1.1022 -2.6174 -2.1387
  903MOL0     H21863   2.890   8.926  10.684  2.8552  0.8628  1.6685
  903MOL0     H21864   2.882   9.000  10.528 -0.0015 -0.0148 -0.3594
  903MOL0     H21865   2.736   9.074  10.382  2.1029 -2.8107  3.6319
  903MOL0     H21866   2.488   9.011  10.116  2.0936 -1.6415 -0.5349
  903MOL0     H21867   2.591   9.152  10.134 -2.0695  1.0050  1.2492
  903MOL0     H21868   2.646   8.990  10.172 -1.5872 -2.0773  0.0435
  903MOL0     H21869   2.136   8.961  10.072 -0.0647 -2.5638  1.0705
  903MOL0     H21870   1.936   9.036   9.943 -0.7359  1.0287 -0.2040
  903MOL0     H21871   1.547   9.107  10.143 -1.4639  1.4994 -0.3591
  903MOL0     H21872   1.602   9.276  10.136 -1.3988  1.0180 -1.4247
  903MOL0     H21873   1.409   9.260  10.014  0.0471 -1.7703 -0.8552
  903MOL0     H21874   1.533   9.279   9.906  0.9042 -0.2026 -0.2560
  903MOL0     H21875   1.422   9.000   9.986  1.6027 -0.4455  0.4808
  903MOL0     H21876   1.524   9.028   9.862  0.0147  0.3202  0.0465
  903MOL0     H21877   1.227   9.104   9.869  0.5949 -0.2116  2.7155
  903MOL0     H21878   1.349   9.183   9.753  3.3025 -0.6443  0.3515
  903MOL0     H21879   1.386   8.897   9.758 -0.3420 -1.5151 -2.8026
  903MOL0     H21880   1.328   8.997   9.623 -0.0318 -3.4798 -0.3321
  903MOL0     H21881   1.157   8.888   9.836  0.3303  0.1828  0.0181
  903MOL0     H21882   1.093   8.980   9.702 -1.5159 -2.0545  0.7374
  903MOL0     H21883   1.159   8.698   9.706 -0.1363 -0.8788  0.4498
  903MOL0     H21884   1.241   8.789   9.578 -0.7845  0.9438 -0.5163
  903MOL0     H21885   1.053   8.846   9.461 -3.0568  1.9925  0.3265
  903MOL0     H21886   0.945   8.850   9.592 -0.2306  1.1666 -0.0037
  903MOL0     H21887   1.733   9.126  10.315  1.6196  2.8636  0.7862
  903MOL0     H21888   1.929   9.072  10.430 -0.7425  2.2877  0.1659
  903MOL0     H21889   2.281   9.065  10.568 -0.3463  1.1990 -0.3913
  903MOL0     H21890   2.482   9.054  10.720 -1.8966  1.2218 -0.0424
  903MOL0     H21891   3.995   9.495  11.102 -0.3996 -0.7585 -0.7371
  903MOL0     H21892   4.224   9.459  11.119  0.4836  0.5835  0.1302
  903MOL0     H21893   4.626   9.630  10.867 -1.9556 -0.3419  1.6538
  903MOL0     H21894   4.859   9.654  10.856  1.9937 -0.6208  0.7695
  903MOL0     H21895   5.067   9.552  10.760  1.9135 -1.7375 -1.3734
  903MOL0     H21896   5.166   9.641  10.882 -0.8168  0.0757 -0.5045
  903MOL0     H21897   5.306   9.432  10.883 -3.6888 -1.6938  0.0690
  903MOL0     H21898   5.317   9.545  10.741  0.6040  0.2101 -0.3820
  903MOL0     H21899   5.317   9.343  10.631 -0.2915  3.6568 -2.8274
  903MOL0     H21900   5.154   9.415  10.610  0.1928 -0.2388 -0.9309
  903MOL0     H21901   5.046   9.267  10.737  0.7100  3.1917  1.1462
  903MOL0     H21902   5.199   9.195  10.807  1.4136  1.2880 -0.1116
  903MOL0     H21903   5.139   8.961  10.485 -0.4079 -1.6454  1.8917
  903MOL0     H21904   4.905   9.265  11.056 -1.2276  0.4884  1.4301
  903MOL0     H21905   4.667   9.243  11.069  5.2175 -3.7462 -2.2952
  904MOL0     O21906   7.828   3.617   9.595 -0.5716  0.7718 -0.4342
  904MOL0     C21907   7.939   3.660   9.615 -0.6653  1.0820  0.5828
  904MOL0     O21908   8.019   3.719   9.519  0.0201 -0.2744 -0.2673
  904MOL0     C21909   8.014   3.676   9.386 -0.1507 -0.2649  0.1852
  904MOL0     C21910   8.088   3.752   9.294  0.0261  0.8803  1.0624
  904MOL0     C21911   8.083   3.715   9.154 -0.4384 -0.1391  0.5625
  904MOL0     C21912   8.025   3.597   9.111  0.1627  0.2914 -0.2784
  904MOL0     O21913   8.031   3.547   8.983  0.6155 -1.0639 -0.2923
  904MOL0     C21914   8.072   3.631   8.871  0.7281  0.3084  0.4034
  904MOL0     C21915   8.221   3.615   8.838  0.5997  0.2198  0.1054
  904MOL0     C21916   8.291   3.710   8.736  0.3975 -0.3025  0.4015
  904MOL0     C21917   8.446   3.686   8.728 -0.3628 -0.0699 -0.6324
  904MOL0     C21918   8.495   3.592   8.616  0.6135  0.6812 -0.1041
  904MOL0     C21919   8.645   3.568   8.620 -0.3613 -0.6067 -0.0169
  904MOL0     C21920   8.681   3.456   8.515  0.1199  0.2022  0.0604
  904MOL0     C21921   8.837   3.458   8.486  0.8282 -0.4440 -0.4634
  904MOL0     N21922   8.876   3.340   8.406 -0.0055  0.8243  0.6407
  904MOL0     C21923   8.825   3.308   8.282  0.2372  0.1029  0.7182
  904MOL0     C21924   8.882   3.183   8.255  1.1855 -0.3962  0.1724
  904MOL0     C21925   8.853   3.091   8.139 -0.3496  0.1590  0.2362
  904MOL0     C21926   8.818   3.178   8.011 -0.1014  0.7029  0.5849
  904MOL0     C21927   8.775   3.073   7.909  0.2839 -0.1869  0.1739
  904MOL0     C21928   8.620   3.043   7.908  0.5794  0.8831 -0.3084
  904MOL0     O21929   8.546   3.163   7.909 -0.3255 -0.0365  0.3939
  904MOL0     C21930   8.416   3.152   7.884  0.3909  0.2464  0.1682
  904MOL0     C21931   8.359   3.266   7.834  0.6916 -0.0147 -0.5631
  904MOL0     C21932   8.224   3.275   7.797 -0.5890 -0.7533  0.3891
  904MOL0     C21933   8.177   3.414   7.767  0.7852  1.2285 -0.4157
  904MOL0     C21934   8.146   3.156   7.804 -0.9346 -0.9909 -0.4318
  904MOL0     C21935   8.006   3.149   7.773  0.3021 -0.5116 -0.1016
  904MOL0     O21936   7.946   3.023   7.777 -0.3778 -0.3200  0.1709
  904MOL0     C21937   7.819   3.021   7.732  0.0122 -0.0337 -0.2615
  904MOL0     C21938   7.716   3.062   7.816  1.1820 -0.4355  0.2397
  904MOL0     C21939   7.585   3.050   7.771 -0.1790 -0.3060 -0.2358
  904MOL0     C21940   7.548   3.012   7.641 -0.2531 -0.1359  0.0688
  904MOL0     O21941   7.417   3.007   7.587 -0.4842  0.1087 -0.2114
  904MOL0     C21942   7.301   3.021   7.672 -0.2829  0.8812  1.0421
  904MOL0     C21943   7.180   3.051   7.574 -0.4630  0.0254 -0.5289
  904MOL0     C21944   7.043   3.034   7.643 -0.3752 -0.5377 -0.0431
  904MOL0     C21945   6.927   3.019   7.543 -0.0356 -0.2195 -0.8946
  904MOL0     C21946   6.796   2.984   7.616 -0.2705 -0.2909 -0.8650
  904MOL0     C21947   6.676   2.974   7.527 -0.3478 -0.5351 -0.5386
  904MOL0     C21948   6.555   2.936   7.611 -0.1072 -0.7485 -0.4975
  904MOL0     C21949   6.421   2.941   7.528 -0.7655 -0.5307  0.6820
  904MOL0    Cl21950   6.279   2.908   7.637 -0.0317 -0.0780 -0.4286
  904MOL0     C21951   7.656   2.968   7.554 -0.3730 -0.1109  0.4432
  904MOL0     C21952   7.788   2.963   7.604  0.6462  0.6338  0.4890
  904MOL0     O21953   7.939   3.251   7.748  0.0524 -0.0633  1.2175
  904MOL0     C21954   8.215   3.036   7.846  0.3450 -0.6062  0.0923
  904MOL0     C21955   8.342   3.038   7.890 -0.5339  0.3266  0.7733
  904MOL0     N21956   8.962   3.154   8.357 -0.2893 -0.0238 -0.6553
  904MOL0     N21957   8.964   3.245   8.445  1.1247 -0.2220 -0.4317
  904MOL0     C21958   7.956   3.529   9.201  0.5353  0.2970 -0.4779
  904MOL0     C21959   7.942   3.567   9.333 -1.2758  0.1484 -0.4699
  904MOL0     C21960   7.989   3.676   9.749 -0.5474 -0.0268  0.0767
  904MOL0     C21961   7.907   3.649   9.859 -0.5730 -0.1363  0.1968
  904MOL0     C21962   7.949   3.691   9.991  0.7984 -0.1508 -0.2287
  904MOL0     C21963   8.069   3.746  10.016  0.6326 -0.6319 -0.1337
  904MOL0     O21964   8.103   3.773  10.144 -0.5781  0.3439  0.5952
  904MOL0     C21965   8.238   3.828  10.170 -0.9179 -0.0977 -0.7129
  904MOL0     C21966   8.247   3.873  10.324  0.1922 -0.4568 -0.0348
  904MOL0     C21967   8.295   3.762  10.418 -0.4295 -1.0137  0.3034
  904MOL0     C21968   8.282   3.800  10.568 -1.3104  0.1846  0.2820
  904MOL0     C21969   8.146   3.830  10.604 -0.2340 -0.1959  0.1317
  904MOL0     C21970   8.035   3.876  10.634 -0.3107 -0.0037 -0.3944
  904MOL0     C21971   8.155   3.754   9.912  0.0782 -0.0884 -0.0349
  904MOL0     C21972   8.119   3.725   9.778 -0.3546 -0.0378  0.6346
  904MOL0     H21973   8.153   3.833   9.327  0.6708  0.4548  0.8579
  904MOL0     H21974   8.143   3.776   9.087 -2.5701 -0.2903 -1.6135
  904MOL0     H21975   8.022   3.590   8.783  0.4955  1.1821  0.1146
  904MOL0     H21976   8.038   3.735   8.879  4.1396  1.6343 -0.3459
  904MOL0     H21977   8.275   3.612   8.934  0.5869  0.7650  0.1358
  904MOL0     H21978   8.229   3.513   8.799  0.1176  0.8244 -1.6596
  904MOL0     H21979   8.242   3.681   8.643 -0.1821 -0.0144  0.6071
  904MOL0     H21980   8.255   3.811   8.760  2.0181  0.0215  1.6337
  904MOL0     H21981   8.493   3.781   8.702 -1.1093  0.3655 -0.4076
  904MOL0     H21982   8.490   3.659   8.825 -0.6812  2.1348  0.1795
  904MOL0     H21983   8.429   3.504   8.613 -0.4038  1.4233 -0.0569
  904MOL0     H21984   8.476   3.642   8.520  1.6723  0.9123 -0.2054
  904MOL0     H21985   8.692   3.666   8.602  1.0095 -1.3359 -0.5385
  904MOL0     H21986   8.685   3.543   8.719  0.1654  1.6212  0.4002
  904MOL0     H21987   8.661   3.363   8.570 -0.1189  0.4138  0.3377
  904MOL0     H21988   8.618   3.471   8.427 -0.3299 -0.5008  0.2444
  904MOL0     H21989   8.889   3.470   8.581  2.7369  0.8211 -1.6182
  904MOL0     H21990   8.853   3.544   8.421  1.4583 -0.3884 -0.2387
  904MOL0     H21991   8.744   3.360   8.232 -0.1992 -0.4871  0.7926
  904MOL0     H21992   8.929   3.012   8.127 -0.6730 -0.5420  2.5078
  904MOL0     H21993   8.767   3.033   8.171 -1.7580  1.5311 -0.8985
  904MOL0     H21994   8.907   3.230   7.973 -1.8527  2.0179 -1.9600
  904MOL0     H21995   8.747   3.257   8.038 -1.5071 -0.6362  0.8783
  904MOL0     H21996   8.840   2.985   7.903 -1.4278 -1.4623 -0.6387
  904MOL0     H21997   8.787   3.117   7.809  0.9879  0.4092  0.5189
  904MOL0     H21998   8.597   2.994   8.003  2.3076 -1.1929 -0.8724
  904MOL0     H21999   8.595   2.978   7.824  0.7380  0.2612  0.1169
  904MOL0     H22000   8.422   3.354   7.824 -2.3229  2.3143 -0.7423
  904MOL0     H22001   8.131   3.451   7.860  1.3410 -0.2286  0.4759
  904MOL0     H22002   8.262   3.482   7.758 -0.8590  4.0185  2.7841
  904MOL0     H22003   8.118   3.434   7.677  1.7217  2.5596 -0.7594
  904MOL0     H22004   7.740   3.088   7.919  2.7982 -0.8664  0.0073
  904MOL0     H22005   7.514   3.107   7.831  1.9520  2.4909 -0.1603
  904MOL0     H22006   7.308   2.924   7.720  0.9781  0.2641 -0.3019
  904MOL0     H22007   7.319   3.105   7.740  1.7295  0.9669  0.4587
  904MOL0     H22008   7.199   3.147   7.527 -1.0236  0.2318 -0.3477
  904MOL0     H22009   7.174   2.972   7.499 -2.9686  0.1551 -0.5702
  904MOL0     H22010   7.031   3.122   7.707  4.5855  0.0359  0.5108
  904MOL0     H22011   7.057   2.942   7.700 -0.0169 -1.4811 -1.5997
  904MOL0     H22012   6.925   3.117   7.494 -0.4864  0.7174  0.9253
  904MOL0     H22013   6.948   2.945   7.465 -0.8010 -0.7934 -0.5667
  904MOL0     H22014   6.759   3.053   7.692 -1.4588 -1.4099 -0.3883
  904MOL0     H22015   6.818   2.888   7.664 -1.6246  0.3237  1.1080
  904MOL0     H22016   6.653   3.069   7.479 -0.6441  0.1416  0.8966
  904MOL0     H22017   6.691   2.887   7.462 -0.2629 -1.4713  0.6944
  904MOL0     H22018   6.539   3.007   7.693  0.5511 -0.4991 -0.5763
  904MOL0     H22019   6.574   2.839   7.657  1.4691  0.1097  0.7734
  904MOL0     H22020   6.430   2.871   7.445  0.3587 -0.1769  0.4846
  904MOL0     H22021   6.405   3.041   7.486 -1.6765 -0.5595  0.9450
  904MOL0     H22022   7.618   2.937   7.457 -0.6141 -0.0248  0.5100
  904MOL0     H22023   7.871   2.921   7.547  1.3696  1.0685  1.2125
  904MOL0     H22024   8.156   2.945   7.856 -1.5821  0.6020  0.1973
  904MOL0     H22025   8.390   2.954   7.940 -0.5528 -0.8576 -1.1046
  904MOL0     H22026   7.884   3.459   9.160  0.1560  0.0499  0.5683
  904MOL0     H22027   7.879   3.502   9.393  0.0392  1.3480  2.4213
  904MOL0     H22028   7.810   3.602   9.843 -0.6340 -0.0515  0.3229
  904MOL0     H22029   7.890   3.659  10.077  0.0331  0.4406 -0.5304
  904MOL0     H22030   8.326   3.766  10.148 -0.6757  0.3085 -0.8874
  904MOL0     H22031   8.247   3.920  10.113 -1.8790  0.7443  0.4342
  904MOL0     H22032   8.162   3.934  10.356 -1.8625 -1.3674 -3.2684
  904MOL0     H22033   8.327   3.946  10.333  0.6882 -0.8972 -0.8092
  904MOL0     H22034   8.404   3.756  10.405 -0.1661  0.5804  1.4202
  904MOL0     H22035   8.260   3.663  10.386  0.7634 -0.9824 -1.1969
  904MOL0     H22036   8.354   3.880  10.590  0.2824 -1.5699  1.7326
  904MOL0     H22037   8.320   3.716  10.625 -1.2976  0.3392  0.5031
  904MOL0     H22038   7.931   3.880  10.659 -0.4219  0.0246 -0.8546
  904MOL0     H22039   8.251   3.804   9.925  0.0113  0.2363 -0.7213
  904MOL0     H22040   8.179   3.747   9.690 -0.3113 -2.9289 -0.1626
  905MOL0     O22041   3.174   8.172  10.860  1.2327  0.6535 -0.2249
  905MOL0     C22042   3.191   8.069  10.788  0.3783 -0.4560  0.2312
  905MOL0     O22043   3.089   7.983  10.753  0.0379  0.1639 -1.0002
  905MOL0     C22044   2.962   7.992  10.798 -0.3261  0.8430 -0.4470
  905MOL0     C22045   2.860   7.975  10.706  0.2936  0.0372 -0.2145
  905MOL0     C22046   2.728   7.973  10.752  0.7675 -0.5478 -0.0655
  905MOL0     C22047   2.702   7.971  10.892 -0.6507 -0.6332  0.2635
  905MOL0     O22048   2.580   7.965  10.952  0.0762  0.2370 -0.4793
  905MOL0     C22049   2.460   7.962  10.873  0.4814 -0.8821  1.1309
  905MOL0     C22050   2.345   7.950  10.963  0.8466  0.1922 -0.4733
  905MOL0     C22051   2.205   7.932  10.883  0.1502  0.0290 -0.4730
  905MOL0     C22052   2.091   7.967  10.971  0.1231  0.4686  0.0230
  905MOL0     C22053   1.956   7.902  10.934 -0.0099  0.1235  0.3597
  905MOL0     C22054   1.844   7.966  11.018  0.6808 -0.0314  0.2529
  905MOL0     C22055   1.702   7.948  10.953 -0.2663  0.2125 -0.3727
  905MOL0     C22056   1.590   7.956  11.059 -1.2865 -0.8487 -0.5086
  905MOL0     N22057   1.614   7.865  11.171 -0.4049  0.6151  0.0468
  905MOL0     C22058   1.619   7.726  11.158  0.2260  0.3217  0.3161
  905MOL0     C22059   1.654   7.686  11.282  0.0883 -0.3430  0.0470
  905MOL0     C22060   1.676   7.543  11.312 -0.9427  0.2031  0.0764
  905MOL0     C22061   1.821   7.484  11.265  0.5775 -0.8267 -0.1185
  905MOL0     C22062   1.945   7.553  11.326 -0.2447  0.5604  0.0009
  905MOL0     C22063   1.996   7.660  11.228  0.6591  0.6241  0.0162
  905MOL0     O22064   2.106   7.614  11.150 -0.4008  0.4877 -0.1571
  905MOL0     C22065   2.239   7.643  11.191  0.4496 -0.1431  0.3769
  905MOL0     C22066   2.281   7.725  11.302 -0.6360  0.5690  0.4174
  905MOL0     C22067   2.415   7.749  11.336  0.3200  0.1642  0.1343
  905MOL0     C22068   2.445   7.846  11.452 -0.0335 -0.4891 -0.3889
  905MOL0     C22069   2.514   7.685  11.260 -0.6340  0.0446 -0.7189
  905MOL0     C22070   2.663   7.717  11.288  0.1006  0.1323  0.6699
  905MOL0     O22071   2.753   7.611  11.269  0.8979 -0.0880 -0.3943
  905MOL0     C22072   2.883   7.629  11.248 -0.6194  0.4699  0.1515
  905MOL0     C22073   2.967   7.676  11.348  1.1003 -0.2783 -0.1327
  905MOL0     C22074   3.101   7.689  11.315 -0.7799  0.4524 -0.4341
  905MOL0     C22075   3.147   7.649  11.189 -0.3946  0.0815 -0.2766
  905MOL0     O22076   3.278   7.652  11.166 -0.5548 -0.2568 -0.0631
  905MOL0     C22077   3.330   7.720  11.049  0.2015  0.0829 -0.1895
  905MOL0     C22078   3.466   7.751  11.099 -0.3228 -0.4538 -0.5183
  905MOL0     C22079   3.543   7.828  10.997 -0.2772  0.1789 -0.3230
  905MOL0     C22080   3.687   7.822  11.033 -0.3805 -0.2285 -0.5125
  905MOL0     C22081   3.772   7.837  10.908  0.1922 -0.5072  0.3960
  905MOL0     C22082   3.912   7.849  10.950 -1.0575  0.3780 -0.4472
  905MOL0     C22083   4.012   7.854  10.841 -0.2445  0.7895  0.3112
  905MOL0     C22084   4.161   7.863  10.892  0.7593  0.2241 -0.5612
  905MOL0    Cl22085   4.203   8.024  10.950 -0.0224 -0.3934 -0.1008
  905MOL0     C22086   3.069   7.606  11.086  0.1088  1.2518 -0.0685
  905MOL0     C22087   2.934   7.594  11.121  0.8447 -0.7738 -1.0520
  905MOL0     O22088   2.700   7.831  11.315  0.4951  0.2162  0.1832
  905MOL0     C22089   2.484   7.603  11.157  0.0495  0.3557  0.4267
  905MOL0     C22090   2.346   7.589  11.115  0.0941 -0.0093 -0.2052
  905MOL0     N22091   1.652   7.794  11.368  0.5462  0.1447 -0.0438
  905MOL0     N22092   1.626   7.901  11.294 -0.0208  0.3630 -0.2569
  905MOL0     C22093   2.809   7.968  10.984  0.6413  0.3596  0.0490
  905MOL0     C22094   2.940   7.985  10.940  0.9186 -0.6884 -0.1519
  905MOL0     C22095   3.315   8.050  10.717  1.1839 -0.2667 -0.2043
  905MOL0     C22096   3.365   7.919  10.700  0.2127 -0.1233 -0.3153
  905MOL0     C22097   3.491   7.910  10.641 -0.3050  0.1645  0.1752
  905MOL0     C22098   3.567   8.021  10.608  0.4822  0.7046  0.0383
  905MOL0     O22099   3.699   7.999  10.566  0.5689 -0.5298 -0.4487
  905MOL0     C22100   3.791   8.112  10.575 -0.0947 -0.8580 -0.3263
  905MOL0     C22101   3.923   8.104  10.504  0.3502 -0.3375 -0.1683
  905MOL0     C22102   4.019   8.214  10.559 -0.5646 -0.8333  1.0899
  905MOL0     C22103   4.167   8.201  10.514  0.1876 -0.3806 -1.0172
  905MOL0     C22104   4.185   8.244  10.374  0.2367 -0.0854 -0.2156
  905MOL0     C22105   4.216   8.295  10.270 -0.9239 -0.2376  0.1311
  905MOL0     C22106   3.513   8.148  10.626  0.7168  0.6730 -0.4965
  905MOL0     C22107   3.387   8.161  10.684  0.5604 -0.1161  0.8228
  905MOL0     H22108   2.889   7.970  10.602  5.4693  0.3925  0.9335
  905MOL0     H22109   2.651   7.968  10.675  0.6329 -0.1528  0.0418
  905MOL0     H22110   2.448   8.059  10.824  1.2827 -1.3846 -0.1221
  905MOL0     H22111   2.462   7.883  10.798  0.0098 -0.3245  0.5265
  905MOL0     H22112   2.358   7.859  11.023 -2.3456  0.6635  1.0966
  905MOL0     H22113   2.341   8.024  11.043 -1.8957 -0.0440 -0.3031
  905MOL0     H22114   2.213   7.987  10.788  1.0823  1.2937  0.3134
  905MOL0     H22115   2.207   7.825  10.861  2.4551 -0.5080  1.8936
  905MOL0     H22116   2.113   7.947  11.076 -1.1938  0.0483  0.2358
  905MOL0     H22117   2.091   8.076  10.962  1.5331  0.4257 -0.8902
  905MOL0     H22118   1.923   7.922  10.832 -0.3135  0.4659  0.5253
  905MOL0     H22119   1.964   7.795  10.956 -1.9172 -0.0053  0.5318
  905MOL0     H22120   1.839   7.935  11.123  0.0893 -4.1440 -0.8193
  905MOL0     H22121   1.857   8.074  11.026 -1.2178  0.5230 -2.6373
  905MOL0     H22122   1.689   8.014  10.867 -1.8578 -0.8854 -1.0206
  905MOL0     H22123   1.708   7.850  10.904  0.0619 -0.2176  0.5094
  905MOL0     H22124   1.489   7.928  11.025 -2.0058 -2.5752  2.7164
  905MOL0     H22125   1.582   8.060  11.092  2.2662 -0.6760  0.2019
  905MOL0     H22126   1.586   7.661  11.077  2.4296 -1.0567  0.4509
  905MOL0     H22127   1.663   7.533  11.420 -0.1589 -0.5947  0.1083
  905MOL0     H22128   1.595   7.479  11.276  1.9018 -1.2825 -4.6010
  905MOL0     H22129   1.826   7.499  11.157  1.5626 -0.2082 -0.0075
  905MOL0     H22130   1.821   7.378  11.290  3.0858 -0.8907 -0.1166
  905MOL0     H22131   2.029   7.485  11.345 -0.2364  0.2244 -1.1649
  905MOL0     H22132   1.937   7.596  11.427 -0.6650 -0.6533  0.5106
  905MOL0     H22133   2.037   7.750  11.275 -0.0740  1.4796 -0.9264
  905MOL0     H22134   1.919   7.691  11.158 -0.0414 -0.6705  0.1860
  905MOL0     H22135   2.207   7.776  11.363  1.1648  0.5097  2.8097
  905MOL0     H22136   2.463   7.947  11.415 -0.9649 -0.0984  0.1913
  905MOL0     H22137   2.361   7.851  11.522 -1.3892  0.6284 -2.0286
  905MOL0     H22138   2.533   7.807  11.504  0.7625  0.1989 -1.1902
  905MOL0     H22139   2.930   7.709  11.445  1.8740  1.1372 -0.2887
  905MOL0     H22140   3.173   7.724  11.389 -0.9299 -2.7619  1.4350
  905MOL0     H22141   3.333   7.647  10.968  0.9723 -0.2725  0.1444
  905MOL0     H22142   3.281   7.814  11.024  3.5072  1.6714 -1.1838
  905MOL0     H22143   3.463   7.822  11.183 -3.6852  2.5638 -2.8320
  905MOL0     H22144   3.514   7.659  11.134 -3.1744 -0.9772  2.6175
  905MOL0     H22145   3.528   7.934  10.974  2.6208  0.4170 -1.6174
  905MOL0     H22146   3.519   7.787  10.898  0.1697 -1.1943  0.1199
  905MOL0     H22147   3.699   7.903  11.105 -2.5729  2.2120 -2.6672
  905MOL0     H22148   3.707   7.731  11.090 -2.1454  0.0979  0.7376
  905MOL0     H22149   3.738   7.927  10.854 -2.6476 -1.7721 -0.1179
  905MOL0     H22150   3.773   7.749  10.844 -4.1367 -1.6871  1.6314
  905MOL0     H22151   3.927   7.938  11.012  0.7978 -2.1453  3.0479
  905MOL0     H22152   3.934   7.771  11.022  1.4494  3.2318  2.1695
  905MOL0     H22153   3.982   7.932  10.770 -1.0096 -0.9454 -1.3754
  905MOL0     H22154   4.003   7.758  10.789  0.9764  0.4736  0.6581
  905MOL0     H22155   4.216   7.841  10.800 -0.3994 -0.3231 -1.1565
  905MOL0     H22156   4.172   7.790  10.973 -1.1530 -1.1398 -1.4380
  905MOL0     H22157   3.104   7.588  10.984  0.5417 -0.0741  0.2879
  905MOL0     H22158   2.871   7.565  11.038  3.8301  0.0938 -3.8487
  905MOL0     H22159   2.560   7.551  11.100 -0.7564 -2.3558  1.6483
  905MOL0     H22160   2.327   7.529  11.026 -0.3337 -0.5039  0.2182
  905MOL0     H22161   2.792   7.957  11.090  0.3911  0.8896  0.0686
  905MOL0     H22162   3.008   7.997  11.024 -1.9624  2.1147  2.0530
  905MOL0     H22163   3.302   7.835  10.727 -1.9727  1.6907  0.5948
  905MOL0     H22164   3.537   7.812  10.634 -0.3819 -0.1816  3.1757
  905MOL0     H22165   3.745   8.196  10.522 -4.6549 -1.5925  2.0098
  905MOL0     H22166   3.815   8.143  10.676  0.1770  2.9313 -1.4099
  905MOL0     H22167   3.910   8.115  10.396 -2.2502 -2.2427 -0.1441
  905MOL0     H22168   3.962   8.002  10.513 -1.7645 -1.1178  0.5511
  905MOL0     H22169   4.027   8.205  10.668  0.7008  4.0167  1.6625
  905MOL0     H22170   3.984   8.311  10.522  0.9670 -1.0459 -1.1030
  905MOL0     H22171   4.195   8.095  10.522 -3.4746 -1.5184 -1.0302
  905MOL0     H22172   4.229   8.271  10.571 -0.6583  0.5219 -1.1821
  905MOL0     H22173   4.226   8.317  10.166 -2.1998  0.4078  0.1194
  905MOL0     H22174   3.580   8.232  10.608  2.0326  0.2617  2.0199
  905MOL0     H22175   3.355   8.264  10.702 -1.1476 -0.3250 -0.6767
  906MOL0     O22176   9.827   9.695   0.778  0.3023 -0.2095 -1.1336
  906MOL0     C22177   9.883   9.601   0.731  0.3653  0.0383  0.5381
  906MOL0     O22178   9.834   9.522   0.633  0.4363  0.6304  0.0999
  906MOL0     C22179   9.710   9.553   0.586  0.3532 -0.0651 -0.5899
  906MOL0     C22180   9.689   9.587   0.446 -0.3729  0.1819  0.5955
  906MOL0     C22181   9.567   9.628   0.394 -0.2974  0.1851  0.7761
  906MOL0     C22182   9.460   9.616   0.481  0.5663 -0.5173 -0.9079
  906MOL0     O22183   9.330   9.629   0.435 -0.4322 -1.0901 -0.5570
  906MOL0     C22184   9.294   9.770   0.435 -0.7833  0.8417 -0.0391
  906MOL0     C22185   9.149   9.778   0.369 -0.6463 -0.0739  0.0212
  906MOL0     C22186   9.079   9.906   0.405  0.3934  0.6339 -1.0842
  906MOL0     C22187   8.951   9.926   0.316 -0.3754 -0.1164  0.3653
  906MOL0     C22188   8.828   9.882   0.384  0.6771  0.7933 -0.1451
  906MOL0     C22189   8.711   9.871   0.279  0.0738 -0.1307  0.4091
  906MOL0     C22190   8.731   9.768   0.167 -0.1003  0.2132  0.6429
  906MOL0     C22191   8.696   9.626   0.208 -0.1774  0.1924  0.0609
  906MOL0     N22192   8.674   9.544   0.086 -0.1715  0.0992  0.4133
  906MOL0     C22193   8.773   9.492   0.008 -0.1591 -0.4250  0.1067
  906MOL0     C22194   8.712   9.439  -0.102 -0.6561 -1.4788 -0.3316
  906MOL0     C22195   8.773   9.368  -0.222  0.1180  0.1339  0.0252
  906MOL0     C22196   8.776   9.452  -0.349  0.8760 -0.7542 -0.9754
  906MOL0     C22197   8.855   9.577  -0.344 -0.0899  1.1839 -0.1165
  906MOL0     C22198   9.004   9.552  -0.316  0.5806  0.1697 -0.8021
  906MOL0     O22199   9.054   9.477  -0.423 -0.1134 -0.1506 -0.0502
  906MOL0     C22200   9.187   9.446  -0.427 -0.2758  0.9636 -0.7179
  906MOL0     C22201   9.227   9.376  -0.542 -1.0944  0.7291 -0.6375
  906MOL0     C22202   9.361   9.323  -0.544  0.7378  0.3820  0.7102
  906MOL0     C22203   9.384   9.230  -0.655 -0.2874  1.1803 -0.7540
  906MOL0     C22204   9.457   9.361  -0.446  0.4969  0.0244  0.1662
  906MOL0     C22205   9.596   9.321  -0.446  0.0279 -0.7079  0.4307
  906MOL0     O22206   9.685   9.407  -0.373  0.0728  0.0118  0.4914
  906MOL0     C22207   9.824   9.394  -0.376  0.0168  0.6104 -0.0833
  906MOL0     C22208   9.898   9.475  -0.285 -1.0213  1.1419 -0.5323
  906MOL0     C22209  10.038   9.477  -0.294 -0.0121  0.0143  0.9267
  906MOL0     C22210  10.107   9.416  -0.401  0.7609  0.1147 -0.2766
  906MOL0     O22211  10.242   9.423  -0.378 -0.7452  0.3392  0.0345
  906MOL0     C22212  10.321   9.347  -0.468 -0.6500 -0.2426 -0.1179
  906MOL0     C22213  10.464   9.354  -0.416  0.6664 -0.5050 -0.5070
  906MOL0     C22214  10.572   9.278  -0.497  0.1377  0.2163  0.4594
  906MOL0     C22215  10.710   9.284  -0.439 -0.2613 -0.2506 -0.1135
  906MOL0     C22216  10.800   9.184  -0.494  0.1220  0.4800 -0.0338
  906MOL0     C22217  10.945   9.200  -0.440  0.5068  0.1362 -0.1577
  906MOL0     C22218  11.035   9.096  -0.494  0.3076  0.2634  0.0028
  906MOL0     C22219  10.997   8.952  -0.438  0.7828  0.4530 -0.0674
  906MOL0    Cl22220  11.129   8.856  -0.502 -0.1400 -0.1354 -0.2336
  906MOL0     C22221  10.032   9.325  -0.475 -0.2278  0.3481  0.0275
  906MOL0     C22222   9.894   9.319  -0.466 -0.1160 -0.3535  0.2545
  906MOL0     O22223   9.631   9.220  -0.512 -0.0072 -0.0488  0.0838
  906MOL0     C22224   9.409   9.420  -0.330 -0.3267 -0.0465 -0.3718
  906MOL0     C22225   9.275   9.457  -0.324  0.3161 -0.7284 -1.3524
  906MOL0     N22226   8.573   9.469  -0.088  0.0543  0.0589 -0.9422
  906MOL0     N22227   8.556   9.526   0.022 -0.7322  0.0748  0.5532
  906MOL0     C22228   9.470   9.572   0.620 -1.2024 -0.1782 -0.2226
  906MOL0     C22229   9.599   9.541   0.673 -0.2196 -0.1431  0.9989
  906MOL0     C22230  10.025   9.589   0.764 -0.0456  0.2340  0.0268
  906MOL0     C22231  10.103   9.487   0.699  0.2447 -0.7568  0.3385
  906MOL0     C22232  10.244   9.499   0.693 -0.4374  0.2769 -0.1520
  906MOL0     C22233  10.311   9.601   0.750 -0.1807 -0.2156 -0.3911
  906MOL0     O22234  10.438   9.629   0.716 -0.3332  0.6677  0.4655
  906MOL0     C22235  10.504   9.587   0.594 -0.0935  0.1711  0.3641
  906MOL0     C22236  10.577   9.451   0.616 -0.1702 -0.4631  0.0739
  906MOL0     C22237  10.678   9.414   0.494  0.1684 -0.0881 -0.6837
  906MOL0     C22238  10.771   9.297   0.533 -0.1731 -0.1690  0.4023
  906MOL0     C22239  10.910   9.355   0.568  0.5248  0.2901 -0.1783
  906MOL0     C22240  11.011   9.408   0.609  0.7682  0.1892 -0.5136
  906MOL0     C22241  10.241   9.698   0.813 -0.6842 -0.7746 -0.6361
  906MOL0     C22242  10.098   9.694   0.822 -0.6357  0.1891 -0.0001
  906MOL0     H22243   9.766   9.608   0.372 -3.2780 -0.7427 -2.9395
  906MOL0     H22244   9.540   9.663   0.295 -2.8418 -2.5514  0.3704
  906MOL0     H22245   9.273   9.795   0.540 -0.4826  0.4195  0.1243
  906MOL0     H22246   9.367   9.845   0.405 -1.1764  1.2686  0.0579
  906MOL0     H22247   9.149   9.771   0.260 -0.4933  1.2159 -0.0762
  906MOL0     H22248   9.089   9.690   0.396 -2.1410  0.7958 -0.3740
  906MOL0     H22249   9.055   9.903   0.512 -0.2428  3.0728 -1.0928
  906MOL0     H22250   9.150   9.989   0.399  0.6034  0.4374 -1.3245
  906MOL0     H22251   8.934  10.030   0.286  0.9144  0.6968  2.2337
  906MOL0     H22252   8.970   9.873   0.222 -2.8251  1.9844 -1.4634
  906MOL0     H22253   8.839   9.781   0.425  1.1916  0.5402 -0.8697
  906MOL0     H22254   8.818   9.948   0.470  1.7707 -1.7183  2.0536
  906MOL0     H22255   8.625   9.838   0.339 -0.6822  0.9439 -0.0314
  906MOL0     H22256   8.688   9.967   0.232  1.4762  0.2246  0.4298
  906MOL0     H22257   8.663   9.811   0.093 -1.0666  0.2703  1.5348
  906MOL0     H22258   8.829   9.772   0.120 -0.3824  0.0298  0.0270
  906MOL0     H22259   8.604   9.625   0.268  0.5600  1.0049  1.2539
  906MOL0     H22260   8.770   9.590   0.281 -2.8058 -2.0348  1.8277
  906MOL0     H22261   8.881   9.486   0.019  0.0217  2.0158  0.1429
  906MOL0     H22262   8.875   9.335  -0.201  0.7524  1.4218 -0.8853
  906MOL0     H22263   8.707   9.284  -0.245 -0.6306  0.6479  0.2683
  906MOL0     H22264   8.680   9.481  -0.393  2.5066 -0.4946 -4.7604
  906MOL0     H22265   8.802   9.384  -0.431  2.0500 -2.0411  0.4172
  906MOL0     H22266   8.807   9.644  -0.272  0.1591  0.2393  0.9715
  906MOL0     H22267   8.853   9.630  -0.439  4.7339  2.8800  0.4610
  906MOL0     H22268   9.011   9.515  -0.214 -2.1231  1.4764 -0.0349
  906MOL0     H22269   9.056   9.648  -0.303 -0.8010  0.6397  1.7163
  906MOL0     H22270   9.159   9.356  -0.624 -3.7188  0.0644  1.5221
  906MOL0     H22271   9.299   9.160  -0.662  1.4793 -1.8075  3.2079
  906MOL0     H22272   9.405   9.288  -0.744 -2.2630 -0.2962 -2.2786
  906MOL0     H22273   9.461   9.155  -0.638 -0.3598  0.4401 -3.3262
  906MOL0     H22274   9.837   9.537  -0.221 -2.7485 -1.2011  0.2457
  906MOL0     H22275  10.109   9.525  -0.226 -0.2502  3.0940 -0.8060
  906MOL0     H22276  10.295   9.241  -0.461  0.8388 -0.7138 -1.1917
  906MOL0     H22277  10.321   9.383  -0.572  0.5617  0.2214  0.0326
  906MOL0     H22278  10.493   9.460  -0.413  3.0831 -1.1189 -0.0416
  906MOL0     H22279  10.463   9.319  -0.313  2.2818  0.5531 -0.0815
  906MOL0     H22280  10.584   9.328  -0.594  2.5327 -0.0856  0.5519
  906MOL0     H22281  10.543   9.172  -0.503  3.8644 -1.0140  1.5688
  906MOL0     H22282  10.748   9.385  -0.456  0.4781 -0.6087 -0.6003
  906MOL0     H22283  10.703   9.264  -0.331  0.0638  1.1701  0.1932
  906MOL0     H22284  10.792   9.175  -0.602 -0.9505 -3.1165  0.2383
  906MOL0     H22285  10.758   9.087  -0.466 -0.7452  0.8679  0.0457
  906MOL0     H22286  10.984   9.301  -0.458  1.2161 -0.4963 -2.6034
  906MOL0     H22287  10.924   9.191  -0.334  0.8050  1.7924  0.0646
  906MOL0     H22288  11.141   9.114  -0.472  0.7041 -0.4374 -1.2594
  906MOL0     H22289  11.031   9.090  -0.603  2.0476 -0.0598 -0.0788
  906MOL0     H22290  10.908   8.916  -0.490  0.5463  1.4082 -0.3345
  906MOL0     H22291  11.002   8.941  -0.329  0.4395 -2.8220 -0.2820
  906MOL0     H22292  10.082   9.264  -0.550  0.1736 -0.8159  1.1963
  906MOL0     H22293   9.851   9.247  -0.535 -0.9466  1.4367 -1.1933
  906MOL0     H22294   9.474   9.428  -0.243 -3.1914 -1.4457  2.0554
  906MOL0     H22295   9.245   9.483  -0.224  2.3028 -3.3906  0.0728
  906MOL0     H22296   9.377   9.563   0.676 -2.4172 -0.1277 -2.1233
  906MOL0     H22297   9.604   9.508   0.777  1.2749 -0.0587  0.9724
  906MOL0     H22298  10.057   9.409   0.639  1.5224 -0.8918 -0.5167
  906MOL0     H22299  10.304   9.439   0.626 -1.1350  1.4774 -1.9167
  906MOL0     H22300  10.426   9.574   0.518 -2.5925 -1.8732  3.0331
  906MOL0     H22301  10.585   9.655   0.569  1.5681 -0.8441  2.6380
  906MOL0     H22302  10.498   9.375   0.615 -3.6985  2.8096 -3.5329
  906MOL0     H22303  10.634   9.453   0.710  0.8400 -6.9195  0.0220
  906MOL0     H22304  10.738   9.502   0.469 -2.0259  1.1113 -1.9972
  906MOL0     H22305  10.613   9.394   0.409 -0.6993  1.0829 -0.3167
  906MOL0     H22306  10.772   9.226   0.450  0.0070 -0.6450  0.8070
  906MOL0     H22307  10.734   9.238   0.617 -1.4356 -2.0998 -1.4165
  906MOL0     H22308  11.100   9.464   0.631  2.2641 -1.5039 -1.9148
  906MOL0     H22309  10.297   9.788   0.838 -2.1478  0.8137 -2.6671
  906MOL0     H22310  10.045   9.786   0.845 -0.0663  0.7360 -0.8119
  907MOL0     O22311   9.412  10.381   5.815 -0.4462 -0.2525  0.7800
  907MOL0     C22312   9.433  10.482   5.887  1.0634  0.0147  0.2906
  907MOL0     O22313   9.553  10.557   5.895 -0.2486 -0.0642 -0.4695
  907MOL0     C22314   9.658  10.539   5.808 -0.4632  0.6402 -0.4613
  907MOL0     C22315   9.749  10.647   5.790  0.0330 -0.8372 -0.1104
  907MOL0     C22316   9.863  10.639   5.708  0.4365 -0.0324  0.5743
  907MOL0     C22317   9.881  10.518   5.630 -0.3523 -0.2234 -0.3973
  907MOL0     O22318   9.992  10.531   5.547  0.2131  0.1649 -0.3084
  907MOL0     C22319  10.065  10.414   5.528 -0.8963  0.4755  0.2247
  907MOL0     C22320  10.173  10.435   5.424 -0.4249  0.3259 -0.0049
  907MOL0     C22321  10.112  10.402   5.279  0.2716  1.4010 -0.1173
  907MOL0     C22322  10.215  10.383   5.169  0.1216 -0.5840 -0.8759
  907MOL0     C22323  10.157  10.361   5.027 -0.4755  0.0373 -0.6800
  907MOL0     C22324  10.252  10.365   4.911  0.4616  0.5603 -0.3861
  907MOL0     C22325  10.288  10.508   4.876  0.1815 -1.4326 -0.7085
  907MOL0     C22326  10.427  10.571   4.923  0.7259  0.7469 -0.0611
  907MOL0     N22327  10.540  10.502   4.855 -1.1394  0.2459 -0.4926
  907MOL0     C22328  10.580  10.372   4.873 -0.1254 -0.4106  0.0858
  907MOL0     C22329  10.673  10.354   4.785 -0.7425 -1.1471  0.0505
  907MOL0     C22330  10.757  10.228   4.766 -0.0967 -0.1595  0.3178
  907MOL0     C22331  10.696  10.127   4.673 -0.0740 -0.4237  0.3027
  907MOL0     C22332  10.567  10.062   4.713  0.0898 -0.4763 -0.4332
  907MOL0     C22333  10.560   9.990   4.843 -0.7343  0.4763 -0.4950
  907MOL0     O22334  10.430   9.999   4.907 -0.2292  0.4874 -0.2645
  907MOL0     C22335  10.408  10.021   5.042 -0.3998 -0.0067 -0.5233
  907MOL0     C22336  10.281  10.006   5.092  0.5615  0.3008  0.1905
  907MOL0     C22337  10.256  10.023   5.231  0.2801 -0.3290 -0.1044
  907MOL0     C22338  10.099  10.006   5.270 -0.5360 -0.3439 -0.3296
  907MOL0     C22339  10.359  10.062   5.320 -0.1590 -0.0786 -0.0351
  907MOL0     C22340  10.339  10.093   5.469 -0.8876 -0.5240  0.4332
  907MOL0     O22341  10.453  10.140   5.536 -0.4633  0.2821 -0.4722
  907MOL0     C22342  10.452  10.144   5.671  0.0276  0.2796 -0.5815
  907MOL0     C22343  10.458  10.018   5.732 -0.0428 -0.4181  0.1375
  907MOL0     C22344  10.471  10.009   5.878 -0.7055 -0.0011 -0.6854
  907MOL0     C22345  10.484  10.127   5.957  0.2304  0.6725 -0.4002
  907MOL0     O22346  10.483  10.137   6.097 -0.3689 -0.3288  0.1853
  907MOL0     C22347  10.504  10.022   6.178  0.2093 -0.5433 -0.3935
  907MOL0     C22348  10.640   9.950   6.163 -0.0223 -0.1855 -0.1415
  907MOL0     C22349  10.767  10.043   6.171 -0.0619 -0.3626  0.0829
  907MOL0     C22350  10.882   9.967   6.110  0.2200  0.4093  0.2321
  907MOL0     C22351  11.015  10.029   6.111 -0.1599  0.6678  0.3057
  907MOL0     C22352  11.117   9.927   6.057  1.7452  0.0903 -0.1668
  907MOL0     C22353  11.257   9.983   6.054  0.3716 -0.1620 -0.2537
  907MOL0     C22354  11.344   9.898   5.962 -0.3830  0.5219  0.2329
  907MOL0    Cl22355  11.383   9.738   6.028  0.2763 -0.2637  0.2707
  907MOL0     C22356  10.484  10.248   5.887 -0.0744  0.3168 -0.5192
  907MOL0     C22357  10.467  10.261   5.751  0.5438 -0.0416  0.2832
  907MOL0     O22358  10.229  10.093   5.521  0.4714 -0.5031 -0.0769
  907MOL0     C22359  10.488  10.069   5.273  0.8927 -1.0038 -0.5007
  907MOL0     C22360  10.511  10.055   5.136  0.4902  0.2141 -0.4097
  907MOL0     N22361  10.695  10.466   4.714 -0.0035  0.0847 -0.0770
  907MOL0     N22362  10.622  10.559   4.761  0.1405 -0.1176  0.3224
  907MOL0     C22363   9.793  10.408   5.646  0.2344 -0.0808  0.2599
  907MOL0     C22364   9.687  10.425   5.733 -0.7715  1.0997  1.5482
  907MOL0     C22365   9.316  10.534   5.965  0.6797 -0.4847  1.0555
  907MOL0     C22366   9.328  10.654   6.029 -0.3102  0.3077  0.1942
  907MOL0     C22367   9.222  10.719   6.089 -0.5336  0.3099 -0.8930
  907MOL0     C22368   9.086  10.658   6.097  0.1176  0.3531  0.5464
  907MOL0     O22369   8.980  10.722   6.160 -0.5429 -0.7281 -0.1364
  907MOL0     C22370   8.852  10.659   6.172 -0.5657  0.1854 -0.7946
  907MOL0     C22371   8.759  10.766   6.236 -0.3474 -1.1652  0.6763
  907MOL0     C22372   8.618  10.734   6.188  0.0365 -0.4859 -0.6401
  907MOL0     C22373   8.577  10.587   6.227 -0.7146  0.6889 -0.1874
  907MOL0     C22374   8.592  10.538   6.365  0.3865  0.2304  0.3174
  907MOL0     C22375   8.579  10.512   6.486  0.1547  0.4719  0.3449
  907MOL0     C22376   9.080  10.526   6.042  0.0666  0.1311 -0.4368
  907MOL0     C22377   9.190  10.468   5.978 -0.0986  0.2308 -0.7632
  907MOL0     H22378   9.722  10.738   5.842 -2.5994 -1.9036  0.5381
  907MOL0     H22379   9.925  10.728   5.710  1.4418 -0.6988 -0.0336
  907MOL0     H22380  10.120  10.375   5.613  1.6119 -2.1722 -2.3713
  907MOL0     H22381  10.004  10.332   5.489  0.3032  0.6735 -2.2860
  907MOL0     H22382  10.214  10.536   5.431 -1.8039  0.7879  2.8228
  907MOL0     H22383  10.256  10.371   5.454 -2.3460 -2.2328  0.2012
  907MOL0     H22384  10.048  10.313   5.284  0.3083  1.4325  1.7147
  907MOL0     H22385  10.042  10.482   5.254  0.3205  1.5245  0.1339
  907MOL0     H22386  10.283  10.468   5.172  0.5795 -0.9085 -1.7861
  907MOL0     H22387  10.270  10.293   5.198 -2.0797 -1.6695  0.1988
  907MOL0     H22388  10.117  10.260   5.032  2.6162 -1.4784 -2.9716
  907MOL0     H22389  10.080  10.436   5.004 -1.1328 -0.5952 -0.5832
  907MOL0     H22390  10.330  10.290   4.925 -1.2646 -1.2070  0.2086
  907MOL0     H22391  10.190  10.338   4.826  0.9438  2.4473 -1.3896
  907MOL0     H22392  10.306  10.514   4.768 -0.1351  1.1805 -0.6705
  907MOL0     H22393  10.209  10.579   4.902 -1.2252 -3.5481  1.1074
  907MOL0     H22394  10.417  10.551   5.030  0.2424 -1.5676 -0.4827
  907MOL0     H22395  10.437  10.679   4.909 -3.1767  1.5176  1.9098
  907MOL0     H22396  10.542  10.291   4.935  1.7493 -1.0631  0.4421
  907MOL0     H22397  10.853  10.259   4.726 -0.2254 -0.3510 -0.1539
  907MOL0     H22398  10.773  10.192   4.868 -1.4458 -1.5242  0.0922
  907MOL0     H22399  10.768  10.048   4.647  0.0269  0.5684 -2.9372
  907MOL0     H22400  10.674  10.177   4.578 -2.2116 -1.2987  0.2750
  907MOL0     H22401  10.536   9.983   4.644  0.7543 -3.1954  2.1716
  907MOL0     H22402  10.490  10.139   4.721 -0.9865 -1.6350  0.8705
  907MOL0     H22403  10.634  10.029   4.914 -1.4654 -1.5183  1.4637
  907MOL0     H22404  10.588   9.885   4.835 -1.0582  0.2573  1.0670
  907MOL0     H22405  10.201  10.009   5.019 -2.4144  1.7653  3.2325
  907MOL0     H22406  10.034  10.066   5.205 -0.8570  0.8188  1.0111
  907MOL0     H22407  10.055   9.912   5.233 -1.5732  0.6355 -1.6664
  907MOL0     H22408  10.074  10.027   5.374  2.5771  0.0319  0.4173
  907MOL0     H22409  10.445   9.922   5.684 -0.8572 -0.6620  0.8089
  907MOL0     H22410  10.455   9.913   5.927 -0.8500 -0.0535 -0.8343
  907MOL0     H22411  10.497  10.050   6.283 -0.9246  1.4666 -0.9508
  907MOL0     H22412  10.423   9.950   6.161  0.6524 -2.1181  3.3288
  907MOL0     H22413  10.648   9.876   6.243  0.9135 -0.3936 -0.4146
  907MOL0     H22414  10.642   9.892   6.069 -1.3614  0.1075 -0.3772
  907MOL0     H22415  10.783  10.054   6.279 -1.9375  3.5827  0.1674
  907MOL0     H22416  10.758  10.145   6.130  3.5068  1.1111  2.4807
  907MOL0     H22417  10.890   9.870   6.160  1.8428  1.5332  2.3375
  907MOL0     H22418  10.846   9.945   6.009  1.0975 -1.6225  0.3101
  907MOL0     H22419  11.047  10.064   6.210  1.0978  0.7519 -0.1253
  907MOL0     H22420  11.017  10.122   6.053  0.7135  1.3302  1.3485
  907MOL0     H22421  11.120   9.832   6.110  1.4683 -0.2774 -0.7889
  907MOL0     H22422  11.083   9.901   5.956  0.7302  1.9659 -0.3530
  907MOL0     H22423  11.308   9.997   6.150 -1.2220  3.2081  0.2218
  907MOL0     H22424  11.248  10.080   6.005  1.7068  0.3330  0.4287
  907MOL0     H22425  11.436   9.954   5.947 -0.4513  0.7559  0.6910
  907MOL0     H22426  11.295   9.878   5.866  0.4721 -0.3050 -0.0485
  907MOL0     H22427  10.497  10.337   5.947 -0.4852  0.0331 -0.0039
  907MOL0     H22428  10.452  10.359   5.708  0.1324 -0.0484  0.4127
  907MOL0     H22429  10.570  10.078   5.343  0.3522  0.0963  0.0068
  907MOL0     H22430  10.610  10.071   5.094  1.0526 -1.3153  0.2465
  907MOL0     H22431   9.795  10.310   5.599  1.5967  1.3503 -2.9595
  907MOL0     H22432   9.625  10.336   5.739 -1.5377  1.6232  1.5217
  907MOL0     H22433   9.426  10.700   6.028  1.3078 -2.9197  0.4961
  907MOL0     H22434   9.234  10.809   6.149 -1.3276  1.4240 -2.3308
  907MOL0     H22435   8.820  10.630   6.071  2.4941  0.5154 -1.9670
  907MOL0     H22436   8.853  10.574   6.241 -1.7586  1.5406  0.9707
  907MOL0     H22437   8.791  10.860   6.191 -2.2048 -0.9496 -0.2802
  907MOL0     H22438   8.770  10.775   6.345 -1.0108 -1.6081  0.7911
  907MOL0     H22439   8.607  10.746   6.080 -1.6888  0.6812 -0.3895
  907MOL0     H22440   8.562  10.813   6.240  1.6991 -0.0109  0.4953
  907MOL0     H22441   8.631  10.517   6.162  0.1933  3.2589 -2.3867
  907MOL0     H22442   8.474  10.582   6.190 -0.7583 -0.5886  0.0606
  907MOL0     H22443   8.575  10.504   6.593 -0.1711 -1.3361  0.2259
  907MOL0     H22444   8.992  10.467   6.062  1.5219 -0.8493  4.6533
  907MOL0     H22445   9.172  10.371   5.934  1.4170  0.1715 -1.3211
  908MOL0     O22446   6.861   2.436   0.376 -0.2082  0.3119 -0.0859
  908MOL0     C22447   6.811   2.376   0.291 -1.4951  0.0333  0.2063
  908MOL0     O22448   6.689   2.397   0.246 -0.4393  0.7543 -0.2552
  908MOL0     C22449   6.596   2.446   0.336 -0.0308  0.3640  0.7181
  908MOL0     C22450   6.476   2.378   0.333 -0.7666 -0.0096  0.0951
  908MOL0     C22451   6.370   2.438   0.403 -0.5653 -0.3468  1.0822
  908MOL0     C22452   6.380   2.561   0.477 -0.9482  0.1650  0.5209
  908MOL0     O22453   6.273   2.627   0.545 -0.8750 -0.1438 -0.1698
  908MOL0     C22454   6.144   2.604   0.475 -0.3313 -1.4286  0.5130
  908MOL0     C22455   6.042   2.715   0.518  0.5034 -0.6876 -0.7960
  908MOL0     C22456   6.028   2.738   0.669 -0.9421  1.5558 -0.1486
  908MOL0     C22457   5.938   2.862   0.700  0.9161 -0.4234 -0.8859
  908MOL0     C22458   5.787   2.844   0.666  0.4827  0.3139 -0.3978
  908MOL0     C22459   5.695   2.952   0.708  0.6023 -0.2346  0.4786
  908MOL0     C22460   5.552   2.910   0.681  0.4045  0.5600  0.5901
  908MOL0     C22461   5.457   3.024   0.715 -0.1834 -0.7444  0.9230
  908MOL0     N22462   5.318   2.988   0.689 -0.1510 -0.8130  0.1998
  908MOL0     C22463   5.256   2.903   0.780  0.4236  1.0926 -0.5319
  908MOL0     C22464   5.136   2.879   0.724 -0.5993  0.2684 -0.3762
  908MOL0     C22465   5.024   2.805   0.780 -0.2644 -0.3535  0.7993
  908MOL0     C22466   4.913   2.902   0.819  0.3427  0.0388  0.8267
  908MOL0     C22467   4.803   2.845   0.910  0.2191  0.3289 -0.0080
  908MOL0     C22468   4.679   2.783   0.840 -0.4071 -0.8478  0.0753
  908MOL0     O22469   4.608   2.889   0.782 -0.0184 -0.8981  1.4387
  908MOL0     C22470   4.492   2.863   0.703 -0.0444 -0.0590  0.0095
  908MOL0     C22471   4.437   2.967   0.622  0.5457 -0.0229 -0.4169
  908MOL0     C22472   4.317   2.946   0.553 -0.1154  1.3993  0.2619
  908MOL0     C22473   4.242   3.066   0.496 -0.5412  0.0312 -0.4544
  908MOL0     C22474   4.263   2.818   0.530 -0.3869  0.0698 -1.2706
  908MOL0     C22475   4.132   2.781   0.470  0.5661  0.1589 -0.6339
  908MOL0     O22476   4.034   2.870   0.457 -0.1868  0.5387 -0.2405
  908MOL0     C22477   3.910   2.823   0.415 -0.1289  0.6185  0.0700
  908MOL0     C22478   3.876   2.868   0.288 -0.0763  0.2113 -0.5807
  908MOL0     C22479   3.756   2.822   0.229 -0.4256 -0.0070  1.1870
  908MOL0     C22480   3.660   2.756   0.305 -0.5257 -0.0590  0.3159
  908MOL0     O22481   3.541   2.729   0.241  1.1314 -0.5826  0.3796
  908MOL0     C22482   3.437   2.652   0.308 -0.7124 -0.5731 -0.0346
  908MOL0     C22483   3.316   2.599   0.214 -0.5303 -0.2174 -1.2891
  908MOL0     C22484   3.245   2.715   0.136  0.7695  0.9454  0.4617
  908MOL0     C22485   3.119   2.662   0.066  0.3246  0.8812 -0.3318
  908MOL0     C22486   3.048   2.762  -0.024 -0.1144 -0.2150 -0.2804
  908MOL0     C22487   3.003   2.882   0.056  0.0137 -0.5064 -0.6396
  908MOL0     C22488   2.917   2.960  -0.044 -0.3607 -0.3945 -0.4938
  908MOL0     C22489   2.842   3.063   0.042 -0.1804 -0.0269 -0.6091
  908MOL0    Cl22490   2.950   3.191   0.100  0.5604  0.1568 -0.0367
  908MOL0     C22491   3.703   2.719   0.437  1.6153  0.0544  0.2261
  908MOL0     C22492   3.820   2.752   0.486 -0.2963 -0.0739 -0.5383
  908MOL0     O22493   4.123   2.662   0.435 -0.4107 -0.1499 -0.0504
  908MOL0     C22494   4.332   2.713   0.588 -0.6121 -0.2216 -0.0008
  908MOL0     C22495   4.437   2.732   0.681 -0.2177 -0.1344 -0.4461
  908MOL0     N22496   5.141   2.931   0.599  0.2986  0.1408  0.3494
  908MOL0     N22497   5.248   2.995   0.581  0.1833  0.6323  0.5951
  908MOL0     C22498   6.509   2.603   0.487 -0.4382  0.1553 -0.2181
  908MOL0     C22499   6.617   2.561   0.413  0.8567  0.0282  0.1304
  908MOL0     C22500   6.883   2.262   0.217  0.1471  0.1609  0.0697
  908MOL0     C22501   6.817   2.148   0.185 -0.0203  0.5658  0.2837
  908MOL0     C22502   6.876   2.052   0.111 -0.5295 -0.0912 -1.6293
  908MOL0     C22503   7.008   2.058   0.081  1.0584 -0.5343 -0.2634
  908MOL0     O22504   7.051   1.967  -0.006  0.1421  0.1119 -0.3609
  908MOL0     C22505   7.191   1.976  -0.046 -0.3078 -0.1205  0.3261
  908MOL0     C22506   7.230   1.845  -0.127  0.5709  0.5395  0.7405
  908MOL0     C22507   7.361   1.869  -0.189 -0.1985  0.0604 -0.7262
  908MOL0     C22508   7.388   1.775  -0.310  0.6501  0.1386  0.6627
  908MOL0     C22509   7.355   1.629  -0.290 -0.0735  0.3616 -0.4860
  908MOL0     C22510   7.349   1.511  -0.283  0.3313  0.4355  0.3706
  908MOL0     C22511   7.089   2.174   0.119  0.0071 -0.8231 -0.0710
  908MOL0     C22512   7.020   2.279   0.192 -0.3469 -0.4834  0.1975
  908MOL0     H22513   6.461   2.289   0.273  1.6037 -1.7503  1.8466
  908MOL0     H22514   6.276   2.385   0.393 -0.2999 -0.4193 -2.1137
  908MOL0     H22515   6.150   2.602   0.366 -0.1643  1.2299  0.4171
  908MOL0     H22516   6.107   2.510   0.517  0.4476 -1.9893 -0.0328
  908MOL0     H22517   6.078   2.812   0.481 -0.7424  0.4181  0.7522
  908MOL0     H22518   5.942   2.694   0.480 -0.9864 -1.4209  3.0708
  908MOL0     H22519   5.998   2.643   0.714  0.9748 -0.3244 -2.5363
  908MOL0     H22520   6.125   2.753   0.719 -0.9348 -0.6917  0.6386
  908MOL0     H22521   5.954   2.886   0.805 -0.2713  3.6442 -1.4342
  908MOL0     H22522   5.979   2.951   0.650 -0.6492  0.6249 -0.3860
  908MOL0     H22523   5.769   2.826   0.560  0.2684 -2.6198  0.0557
  908MOL0     H22524   5.747   2.762   0.727 -2.4366  2.3889  0.7329
  908MOL0     H22525   5.719   2.973   0.813  1.2142 -1.0247  0.5092
  908MOL0     H22526   5.723   3.041   0.650  1.4360 -0.6665  0.2033
  908MOL0     H22527   5.545   2.883   0.576  1.1753  0.9955  0.4148
  908MOL0     H22528   5.530   2.831   0.753 -1.4065  1.3122  0.9029
  908MOL0     H22529   5.479   3.117   0.661 -0.4053 -0.5323  1.1971
  908MOL0     H22530   5.460   3.054   0.820  1.6297  0.3133  0.6101
  908MOL0     H22531   5.285   2.864   0.877  1.7509  0.9395 -0.9692
  908MOL0     H22532   4.998   2.724   0.710  1.0802  0.2873 -0.4963
  908MOL0     H22533   5.063   2.749   0.865  1.4874 -3.1777 -1.6646
  908MOL0     H22534   4.870   2.940   0.726  0.5920  0.0008  0.6945
  908MOL0     H22535   4.961   2.987   0.868 -1.9884  0.5633  2.3456
  908MOL0     H22536   4.771   2.921   0.981  0.8616  1.4456 -0.8908
  908MOL0     H22537   4.845   2.764   0.971 -0.2599  0.2233  0.1809
  908MOL0     H22538   4.615   2.744   0.920 -0.9818  4.9932  3.0352
  908MOL0     H22539   4.707   2.708   0.766  0.8101  0.3960 -0.7937
  908MOL0     H22540   4.489   3.063   0.625  2.8390 -1.1712 -1.3269
  908MOL0     H22541   4.298   3.160   0.503 -1.1021  0.2843  0.9512
  908MOL0     H22542   4.207   3.063   0.393  1.3894  1.1393 -1.2021
  908MOL0     H22543   4.157   3.081   0.563  0.6615  0.3789  1.0458
  908MOL0     H22544   3.961   2.914   0.240  0.2634  1.2435  0.9222
  908MOL0     H22545   3.742   2.857   0.127 -1.0597 -1.9901  0.5585
  908MOL0     H22546   3.484   2.567   0.358  0.4558 -0.1112 -0.3169
  908MOL0     H22547   3.394   2.718   0.384  2.0320  0.4987  0.7164
  908MOL0     H22548   3.366   2.521   0.157  3.9627  0.8189  0.7369
  908MOL0     H22549   3.242   2.542   0.270 -0.3391  1.3113  0.6577
  908MOL0     H22550   3.317   2.752   0.062  0.3419  0.4220 -0.2304
  908MOL0     H22551   3.227   2.798   0.205  3.8021  2.7920 -0.7676
  908MOL0     H22552   3.140   2.566   0.017 -1.6534  0.5706 -0.6682
  908MOL0     H22553   3.053   2.634   0.148 -1.2541 -1.3015 -2.2004
  908MOL0     H22554   2.962   2.710  -0.066 -0.1353 -0.4368  0.0319
  908MOL0     H22555   3.114   2.784  -0.108 -1.6498  1.1058 -1.1961
  908MOL0     H22556   2.958   2.843   0.148 -1.2184 -0.6142 -1.2679
  908MOL0     H22557   3.085   2.943   0.094 -1.9428 -0.4176  4.1592
  908MOL0     H22558   2.848   2.904  -0.106 -0.2409 -0.9354 -0.1420
  908MOL0     H22559   2.989   3.001  -0.115  1.7132 -1.1980  1.0302
  908MOL0     H22560   2.783   3.022   0.124 -2.6252  0.7919 -1.8680
  908MOL0     H22561   2.767   3.108  -0.024 -3.4059 -1.3324  1.9096
  908MOL0     H22562   3.628   2.671   0.500 -0.6957  1.1715 -1.5603
  908MOL0     H22563   3.851   2.730   0.588 -1.1433 -1.1017 -0.4776
  908MOL0     H22564   4.309   2.608   0.571  0.6498 -0.4695 -0.2853
  908MOL0     H22565   4.482   2.635   0.698 -3.0008 -2.0800 -3.0230
  908MOL0     H22566   6.521   2.693   0.547 -0.6858 -1.4533  2.3921
  908MOL0     H22567   6.709   2.618   0.421 -0.3694  2.1047  0.2528
  908MOL0     H22568   6.712   2.139   0.212 -0.3282  0.8130 -0.7969
  908MOL0     H22569   6.831   1.961   0.072  0.6029 -0.3911 -2.2748
  908MOL0     H22570   7.205   2.066  -0.106  0.5431  0.4634  1.3603
  908MOL0     H22571   7.262   1.986   0.037  0.7527  0.5561 -0.6327
  908MOL0     H22572   7.159   1.815  -0.205  3.5601 -1.0647 -1.5582
  908MOL0     H22573   7.225   1.761  -0.057  0.6888 -0.0753  0.0254
  908MOL0     H22574   7.443   1.857  -0.118  0.9956 -0.9653 -2.2235
  908MOL0     H22575   7.366   1.971  -0.229 -2.0396  0.4680 -0.0240
  908MOL0     H22576   7.497   1.772  -0.319  0.5650  0.9583 -1.2526
  908MOL0     H22577   7.333   1.818  -0.395  3.2175 -1.8804 -2.2224
  908MOL0     H22578   7.351   1.404  -0.293  2.7531  0.4073  0.6922
  908MOL0     H22579   7.196   2.179   0.102 -0.3609 -0.6597 -2.8299
  908MOL0     H22580   7.069   2.369   0.227 -0.7820 -1.2213  3.0109
  909MOL0     O22581   6.729   6.874   6.341  0.3803  0.3613 -0.5608
  909MOL0     C22582   6.676   6.759   6.333 -0.5979 -0.5590 -0.2018
  909MOL0     O22583   6.601   6.693   6.437  0.8882 -0.5959 -0.4497
  909MOL0     C22584   6.549   6.770   6.547 -0.1725 -0.1353 -0.5442
  909MOL0     C22585   6.445   6.702   6.614 -1.3321  0.0469  0.6103
  909MOL0     C22586   6.379   6.757   6.719 -1.4876  0.4739 -0.1114
  909MOL0     C22587   6.417   6.881   6.765  0.5465 -0.1189 -0.6604
  909MOL0     O22588   6.352   6.944   6.871 -0.8003  0.0872 -0.3008
  909MOL0     C22589   6.225   6.895   6.906  0.2403 -0.0002 -0.4903
  909MOL0     C22590   6.152   6.978   7.014 -1.2077  0.2245  0.4673
  909MOL0     C22591   6.122   7.112   6.969  0.3791 -0.6324  0.4289
  909MOL0     C22592   6.082   7.194   7.084 -0.3154  0.0775 -0.1893
  909MOL0     C22593   6.062   7.333   7.025  0.4372 -0.5420  0.0446
  909MOL0     C22594   6.011   7.446   7.130 -0.6507  0.2222 -0.3131
  909MOL0     C22595   6.114   7.499   7.235 -0.0965  0.2932  0.0684
  909MOL0     C22596   6.061   7.575   7.356 -0.8640  0.5934  0.0433
  909MOL0     N22597   6.036   7.713   7.304  0.5258 -0.0777 -0.5572
  909MOL0     C22598   5.965   7.761   7.198 -0.0185  0.0936 -0.2883
  909MOL0     C22599   5.962   7.897   7.211 -0.3029  0.2738  0.2508
  909MOL0     C22600   5.900   7.996   7.113 -0.0560  0.7197  0.1863
  909MOL0     C22601   5.837   8.115   7.180 -0.1391 -0.2578 -0.3446
  909MOL0     C22602   5.710   8.065   7.261 -0.1338  0.4486  1.3239
  909MOL0     C22603   5.628   8.175   7.300  0.5057 -0.0079  0.3195
  909MOL0     O22604   5.536   8.149   7.399  0.7527  0.1677 -0.6928
  909MOL0     C22605   5.421   8.084   7.365 -0.0288  0.2832 -0.9879
  909MOL0     C22606   5.336   8.059   7.481  0.1518 -0.1492  0.7259
  909MOL0     C22607   5.212   8.002   7.482  1.2911 -0.2748 -1.1975
  909MOL0     C22608   5.147   7.996   7.616  0.0991 -0.3811  0.0476
  909MOL0     C22609   5.157   7.948   7.363 -0.4680 -0.6560 -0.0535
  909MOL0     C22610   5.027   7.889   7.345  0.7941  0.9057 -0.5779
  909MOL0     O22611   4.994   7.864   7.213 -0.2509  0.4738 -0.1055
  909MOL0     C22612   4.888   7.789   7.184  0.2216 -0.2478 -0.1746
  909MOL0     C22613   4.830   7.818   7.056  0.5044  0.2992  0.2320
  909MOL0     C22614   4.759   7.708   6.990  0.6266  0.0858  0.5948
  909MOL0     C22615   4.725   7.588   7.055  0.4192  0.8015 -0.0065
  909MOL0     O22616   4.650   7.500   6.980 -0.0062 -0.1919 -0.1012
  909MOL0     C22617   4.514   7.539   6.978 -0.0565 -1.1727  0.3509
  909MOL0     C22618   4.439   7.465   6.872 -0.3110  0.5759  0.1192
  909MOL0     C22619   4.292   7.475   6.860  0.4109 -0.0225 -0.7576
  909MOL0     C22620   4.237   7.390   6.752  0.1696  0.0893  0.3450
  909MOL0     C22621   4.085   7.391   6.764 -0.3085  0.8926  0.6011
  909MOL0     C22622   4.020   7.306   6.660 -0.2123  0.4875  1.1767
  909MOL0     C22623   3.869   7.293   6.657  0.5113 -0.2899 -0.4783
  909MOL0     C22624   3.808   7.242   6.533 -1.1224 -0.7867 -0.1767
  909MOL0    Cl22625   3.635   7.239   6.539  0.0136  0.2707  0.1480
  909MOL0     C22626   4.770   7.572   7.187 -0.3785 -0.4919  0.4388
  909MOL0     C22627   4.859   7.662   7.244 -0.7494 -0.0861 -0.0333
  909MOL0     O22628   4.948   7.872   7.438 -0.7162 -0.3290 -0.3369
  909MOL0     C22629   5.245   7.959   7.250 -0.2271 -0.3001 -0.2952
  909MOL0     C22630   5.372   8.016   7.248  0.1597 -1.3896 -0.6325
  909MOL0     N22631   6.036   7.928   7.318  0.2982  0.9160 -0.5118
  909MOL0     N22632   6.076   7.819   7.377 -0.9451  0.1306 -1.0539
  909MOL0     C22633   6.532   6.941   6.715  0.3900 -0.8891 -0.2771
  909MOL0     C22634   6.598   6.897   6.603 -0.2489  0.7721  0.1635
  909MOL0     C22635   6.679   6.684   6.203 -0.9646 -0.2611  0.0965
  909MOL0     C22636   6.596   6.577   6.175 -0.8112 -0.1561  0.1166
  909MOL0     C22637   6.602   6.504   6.056 -1.2718  0.6437 -0.5728
  909MOL0     C22638   6.701   6.530   5.957  0.4731 -0.8788  0.5842
  909MOL0     O22639   6.730   6.458   5.844 -0.3130 -0.3972 -0.2841
  909MOL0     C22640   6.656   6.342   5.817 -0.5418 -0.3199  0.0426
  909MOL0     C22641   6.706   6.267   5.690  0.6355  0.6867 -0.1730
  909MOL0     C22642   6.728   6.364   5.581  0.7613  0.2237  0.5552
  909MOL0     C22643   6.802   6.304   5.458 -0.1499  0.6975 -0.3656
  909MOL0     C22644   6.745   6.184   5.401 -0.3051 -0.2595  0.8532
  909MOL0     C22645   6.699   6.076   5.365  0.7506  0.3916  0.3748
  909MOL0     C22646   6.780   6.641   5.987  0.0301  0.8963 -0.2277
  909MOL0     C22647   6.770   6.720   6.102  0.4296  0.9471  0.0487
  909MOL0     H22648   6.416   6.606   6.573 -2.5000  1.1305 -1.2427
  909MOL0     H22649   6.308   6.694   6.771  3.5470 -2.5279  4.1706
  909MOL0     H22650   6.162   6.894   6.817  1.1910  1.0034 -1.1998
  909MOL0     H22651   6.227   6.793   6.944 -3.4842 -0.5290 -1.3516
  909MOL0     H22652   6.058   6.929   7.041 -0.9521 -0.8027 -0.4187
  909MOL0     H22653   6.225   6.971   7.096  0.4965  2.1743 -0.7866
  909MOL0     H22654   6.203   7.156   6.910 -1.1758  0.8852 -0.6722
  909MOL0     H22655   6.047   7.113   6.890 -0.1327 -0.5300  0.9120
  909MOL0     H22656   5.988   7.163   7.131 -0.0274 -1.5320 -0.6153
  909MOL0     H22657   6.156   7.199   7.164 -3.3427  3.4621  2.7508
  909MOL0     H22658   6.155   7.367   6.979  0.4415  2.1116  1.8014
  909MOL0     H22659   5.981   7.323   6.952 -0.9301 -4.0895  1.7520
  909MOL0     H22660   5.967   7.529   7.073 -3.8105 -0.3142  1.1290
  909MOL0     H22661   5.923   7.414   7.186  0.0195  0.7818  1.0895
  909MOL0     H22662   6.159   7.406   7.270 -0.0454  0.3067  0.0387
  909MOL0     H22663   6.195   7.555   7.188 -0.0966  0.7675  0.6319
  909MOL0     H22664   6.143   7.573   7.428 -0.4838  0.7551 -0.3863
  909MOL0     H22665   5.969   7.530   7.396 -0.2843 -1.7425 -1.0441
  909MOL0     H22666   5.909   7.712   7.119  2.1641 -2.5193 -0.3673
  909MOL0     H22667   5.976   8.036   7.045  1.0649  0.7699  1.4418
  909MOL0     H22668   5.831   7.941   7.048  0.0145 -0.1672  0.8443
  909MOL0     H22669   5.807   8.193   7.109  3.0992 -0.1756 -1.7716
  909MOL0     H22670   5.912   8.159   7.246 -1.0633  2.7607 -1.1362
  909MOL0     H22671   5.738   8.029   7.361  1.1387  2.2779  1.6734
  909MOL0     H22672   5.674   7.989   7.191  1.1833  1.1200 -0.1297
  909MOL0     H22673   5.576   8.199   7.207 -0.4823  0.6971  1.0307
  909MOL0     H22674   5.686   8.262   7.333 -0.8761  0.6533  1.1124
  909MOL0     H22675   5.379   8.088   7.576 -0.7511  1.8660  0.5866
  909MOL0     H22676   5.049   8.044   7.618 -1.1561 -2.7067 -1.1388
  909MOL0     H22677   5.137   7.891   7.646  0.8273 -0.5716 -0.3389
  909MOL0     H22678   5.204   8.048   7.693 -0.9248  0.3188  0.3507
  909MOL0     H22679   4.855   7.912   7.008  0.5104  0.5971  0.7993
  909MOL0     H22680   4.725   7.732   6.890  1.6209  1.4376  0.5537
  909MOL0     H22681   4.460   7.514   7.070 -3.1459 -0.5631 -1.1790
  909MOL0     H22682   4.505   7.646   6.959  1.6438 -1.1492 -0.5387
  909MOL0     H22683   4.484   7.487   6.775 -3.3966 -0.2890 -1.6263
  909MOL0     H22684   4.445   7.357   6.892 -0.6167  0.4526 -0.4561
  909MOL0     H22685   4.269   7.582   6.854  1.1539  0.2056  0.2154
  909MOL0     H22686   4.242   7.448   6.954 -0.5988 -1.2172 -1.6038
  909MOL0     H22687   4.275   7.435   6.660  0.2053  0.4270  0.5257
  909MOL0     H22688   4.269   7.285   6.741 -1.8186 -0.4480 -0.6970
  909MOL0     H22689   4.047   7.493   6.756 -2.4918  0.0598 -0.5304
  909MOL0     H22690   4.056   7.346   6.859 -0.6992 -2.8364 -1.1180
  909MOL0     H22691   4.053   7.340   6.561  1.4965 -0.5973  1.3293
  909MOL0     H22692   4.062   7.205   6.671  0.2155  0.3355 -1.3142
  909MOL0     H22693   3.826   7.388   6.690 -0.2270  0.6486 -3.7891
  909MOL0     H22694   3.837   7.227   6.738 -4.1635  1.5210 -0.5479
  909MOL0     H22695   3.845   7.142   6.506 -0.5274 -0.6440  0.1017
  909MOL0     H22696   3.854   7.290   6.447  3.5194 -1.0578  1.8419
  909MOL0     H22697   4.747   7.478   7.237 -2.3682 -0.2085  0.1694
  909MOL0     H22698   4.914   7.629   7.331  3.1130 -2.0849 -2.9269
  909MOL0     H22699   5.223   7.901   7.161  0.6871 -1.9721  0.5278
  909MOL0     H22700   5.429   8.029   7.157  1.2081 -2.0271 -0.0811
  909MOL0     H22701   6.572   7.028   6.766  1.5841 -0.6249 -1.5949
  909MOL0     H22702   6.685   6.940   6.555 -0.3078 -0.2611 -0.8961
  909MOL0     H22703   6.529   6.549   6.256 -2.6464  0.2950 -1.1690
  909MOL0     H22704   6.544   6.414   6.045 -0.8849  0.2305  0.6288
  909MOL0     H22705   6.654   6.282   5.909  1.7647 -0.0386  0.3333
  909MOL0     H22706   6.558   6.384   5.794 -0.2205  1.5660  1.8568
  909MOL0     H22707   6.632   6.195   5.653  0.6395  0.2529  0.6304
  909MOL0     H22708   6.798   6.214   5.716  0.8967  1.0013 -0.4428
  909MOL0     H22709   6.782   6.455   5.608  2.6681 -1.0118  1.1130
  909MOL0     H22710   6.635   6.407   5.542  2.2236  0.8876 -2.5308
  909MOL0     H22711   6.904   6.292   5.497  1.0605  1.6013 -3.0220
  909MOL0     H22712   6.819   6.382   5.383 -0.8686  0.8221 -0.4003
  909MOL0     H22713   6.652   5.990   5.322  1.2189 -0.2484  1.1226
  909MOL0     H22714   6.857   6.653   5.912 -1.3571  1.2261 -1.6401
  909MOL0     H22715   6.834   6.806   6.119  1.7693 -0.1325  0.6211
  910MOL0     O22716  10.664   1.251   6.441 -0.0551  0.0791 -0.4668
  910MOL0     C22717  10.664   1.197   6.333 -1.0367 -0.0607 -0.2974
  910MOL0     O22718  10.558   1.192   6.249 -0.3447 -0.6123  0.2259
  910MOL0     C22719  10.434   1.223   6.288 -0.0126 -0.0494 -0.1431
  910MOL0     C22720  10.328   1.133   6.263 -0.4125 -0.3246  0.9497
  910MOL0     C22721  10.192   1.164   6.302  0.1299  0.4677  0.2077
  910MOL0     C22722  10.165   1.289   6.365 -1.1926  1.0464 -0.5052
  910MOL0     O22723  10.028   1.316   6.403  0.2280  0.2150  0.3782
  910MOL0     C22724   9.977   1.442   6.461 -0.8229 -0.5519  1.0457
  910MOL0     C22725   9.827   1.429   6.463  1.0351 -0.2065  0.3013
  910MOL0     C22726   9.765   1.578   6.479  0.5812  0.8755 -0.0667
  910MOL0     C22727   9.613   1.580   6.515 -0.2138  0.5177  1.0645
  910MOL0     C22728   9.531   1.542   6.382 -0.1045 -0.6771  0.2177
  910MOL0     C22729   9.380   1.562   6.401  0.3613 -0.1660  0.2320
  910MOL0     C22730   9.337   1.709   6.394  0.2948 -0.4920  0.0581
  910MOL0     C22731   9.212   1.738   6.304  0.3848  0.8671  0.4439
  910MOL0     N22732   9.154   1.861   6.341  0.4782 -0.6600 -0.0880
  910MOL0     C22733   9.216   1.978   6.309  1.0837 -0.5850 -0.2245
  910MOL0     C22734   9.135   2.065   6.377 -0.2431  0.2810 -0.1222
  910MOL0     C22735   9.151   2.215   6.355 -0.3330  0.1387 -0.0449
  910MOL0     C22736   9.108   2.274   6.214 -0.5414 -0.4667 -0.2425
  910MOL0     C22737   8.967   2.232   6.171  0.2059 -0.0055  0.7288
  910MOL0     C22738   8.918   2.300   6.044  0.1007  0.1119 -0.3081
  910MOL0     O22739   8.784   2.249   6.016 -0.0597  1.0995  0.2358
  910MOL0     C22740   8.699   2.316   5.933 -0.4730 -0.5710 -0.0429
  910MOL0     C22741   8.735   2.420   5.842  0.4632 -0.8103 -1.2242
  910MOL0     C22742   8.637   2.480   5.765 -0.1946 -0.8244  0.9659
  910MOL0     C22743   8.692   2.550   5.645 -0.7098 -0.0300 -0.1885
  910MOL0     C22744   8.506   2.462   5.794  0.1320  1.0999 -0.4318
  910MOL0     C22745   8.402   2.513   5.712  1.3882  0.3351 -0.7752
  910MOL0     O22746   8.319   2.422   5.651  0.2689  0.4325  0.2828
  910MOL0     C22747   8.214   2.473   5.578 -0.1402  0.6088  0.1400
  910MOL0     C22748   8.123   2.577   5.618 -0.7833  0.4580  0.1383
  910MOL0     C22749   8.021   2.614   5.536  0.8338  0.5473 -0.9484
  910MOL0     C22750   7.994   2.547   5.423  0.3181  0.3245  0.1542
  910MOL0     O22751   7.886   2.579   5.341  0.2981 -0.4902 -0.3467
  910MOL0     C22752   7.925   2.681   5.257  0.0376 -0.8239  0.1242
  910MOL0     C22753   7.805   2.706   5.169  0.5981  0.2643 -0.1672
  910MOL0     C22754   7.804   2.836   5.088  0.5456  0.1485 -0.5434
  910MOL0     C22755   7.664   2.870   5.029 -0.0704  0.2474 -0.6401
  910MOL0     C22756   7.645   3.015   4.990 -0.6235  0.3516  0.5740
  910MOL0     C22757   7.510   3.021   4.919 -0.4022  0.6092 -0.1857
  910MOL0     C22758   7.482   3.165   4.880 -0.3684 -0.2966  0.3919
  910MOL0     C22759   7.380   3.172   4.766  0.1977  0.0832 -0.4609
  910MOL0    Cl22760   7.454   3.129   4.610  0.0467 -0.2360  0.7995
  910MOL0     C22761   8.077   2.446   5.380 -0.8121 -0.1214 -0.5870
  910MOL0     C22762   8.188   2.405   5.455  0.9299 -0.1270  0.5737
  910MOL0     O22763   8.398   2.634   5.703 -0.8401  0.4161 -0.3525
  910MOL0     C22764   8.474   2.368   5.898 -0.7121  0.7081 -0.2657
  910MOL0     C22765   8.565   2.300   5.964 -0.5581  0.4273  0.8252
  910MOL0     N22766   9.036   2.003   6.453  0.1111  0.8176  0.3215
  910MOL0     N22767   9.050   1.876   6.431  0.1424 -0.7008  0.7721
  910MOL0     C22768  10.265   1.384   6.369  0.8808  0.0096 -0.4225
  910MOL0     C22769  10.395   1.346   6.341  0.6673 -0.3425 -0.7916
  910MOL0     C22770  10.786   1.129   6.290  0.0116  0.7367  0.4416
  910MOL0     C22771  10.777   1.035   6.183 -0.7206 -0.7748 -0.0966
  910MOL0     C22772  10.888   0.964   6.145 -0.7061  0.2409 -0.3835
  910MOL0     C22773  11.014   0.982   6.210  0.0947 -0.3393 -0.1763
  910MOL0     O22774  11.121   0.907   6.165  0.6457  0.1872 -0.0870
  910MOL0     C22775  11.247   0.927   6.222  0.1670  0.1253  0.6090
  910MOL0     C22776  11.319   1.038   6.140  1.1129  0.5756 -0.0979
  910MOL0     C22777  11.466   1.071   6.176 -0.0381 -0.4215 -0.0577
  910MOL0     C22778  11.570   0.991   6.104 -0.6081 -0.1681  0.2333
  910MOL0     C22779  11.614   1.038   5.973  0.2659  0.6766  0.0767
  910MOL0     C22780  11.668   1.048   5.864 -0.2314 -0.6500  0.7019
  910MOL0     C22781  11.022   1.079   6.313  0.0776  0.1445  0.6840
  910MOL0     C22782  10.910   1.150   6.352  0.4216 -0.3538  0.5383
  910MOL0     H22783  10.365   1.035   6.237  0.5535  0.4895 -0.9048
  910MOL0     H22784  10.116   1.091   6.275  1.9940 -1.9520  1.0553
  910MOL0     H22785  10.017   1.448   6.562 -0.0110 -2.1315  0.8448
  910MOL0     H22786  10.000   1.526   6.394 -0.1483  0.5208  2.5784
  910MOL0     H22787   9.806   1.406   6.358  0.7316  0.6986  0.1570
  910MOL0     H22788   9.796   1.353   6.536 -2.6652 -0.5280 -1.3737
  910MOL0     H22789   9.817   1.623   6.565 -1.9824 -0.9228  2.6280
  910MOL0     H22790   9.778   1.641   6.391 -1.7117 -0.2849 -1.3269
  910MOL0     H22791   9.592   1.505   6.591  3.9738 -1.7187  0.3068
  910MOL0     H22792   9.580   1.681   6.543 -1.7791  0.8793 -1.7322
  910MOL0     H22793   9.572   1.603   6.301  0.6567 -1.2282  0.1739
  910MOL0     H22794   9.543   1.435   6.363  0.1485 -0.6693  0.3209
  910MOL0     H22795   9.337   1.514   6.312  2.0143  0.7930 -1.1471
  910MOL0     H22796   9.333   1.514   6.488  0.5429  0.5116  0.7111
  910MOL0     H22797   9.321   1.754   6.492 -2.0383  2.6823 -1.5547
  910MOL0     H22798   9.418   1.769   6.350 -1.9856  2.4298 -0.5081
  910MOL0     H22799   9.139   1.661   6.330 -0.3250  1.0616 -0.8954
  910MOL0     H22800   9.234   1.736   6.196 -1.5963 -0.9129 -0.0003
  910MOL0     H22801   9.298   1.978   6.239  1.2614 -1.1448 -0.0213
  910MOL0     H22802   9.087   2.261   6.431  0.7892 -0.8043  1.5177
  910MOL0     H22803   9.256   2.238   6.376  1.0611 -2.1223 -3.5092
  910MOL0     H22804   9.168   2.231   6.133 -0.5165 -0.3084 -0.3085
  910MOL0     H22805   9.108   2.383   6.212 -1.6483 -0.4470  0.2225
  910MOL0     H22806   8.892   2.245   6.250 -0.6872 -1.6573  0.2065
  910MOL0     H22807   8.970   2.126   6.146 -3.1351  0.1387 -0.8537
  910MOL0     H22808   8.986   2.273   5.963  0.5800 -3.1396  1.0434
  910MOL0     H22809   8.912   2.409   6.056 -0.0181  0.2038 -1.1172
  910MOL0     H22810   8.839   2.440   5.818  0.5563 -0.3116 -0.4435
  910MOL0     H22811   8.617   2.559   5.566 -1.5918 -0.7613  0.5255
  910MOL0     H22812   8.740   2.646   5.661  1.3375 -1.2357  1.3950
  910MOL0     H22813   8.763   2.479   5.603 -0.5011 -0.7222  1.2762
  910MOL0     H22814   8.134   2.618   5.717 -2.7193 -0.3378  0.7239
  910MOL0     H22815   7.969   2.702   5.574 -0.0792 -1.4451  2.8839
  910MOL0     H22816   7.945   2.778   5.305 -0.6837 -1.4812  1.8454
  910MOL0     H22817   8.009   2.651   5.195  0.8930 -3.1406  2.2319
  910MOL0     H22818   7.799   2.628   5.092 -1.2337  0.4671 -0.2918
  910MOL0     H22819   7.714   2.690   5.227  0.3512  0.0547 -0.6025
  910MOL0     H22820   7.875   2.831   5.005  1.0233  3.2208 -0.4445
  910MOL0     H22821   7.837   2.910   5.161  0.4500 -0.6901  0.3721
  910MOL0     H22822   7.648   2.805   4.943  2.1048 -3.0713  1.1816
  910MOL0     H22823   7.588   2.843   5.103  1.0958 -0.3465  0.3822
  910MOL0     H22824   7.728   3.036   4.922 -0.8381 -1.5624 -0.3412
  910MOL0     H22825   7.660   3.078   5.078  1.4106 -1.8961  1.9595
  910MOL0     H22826   7.523   2.963   4.828  0.4983  1.1805 -0.4299
  910MOL0     H22827   7.433   2.978   4.984  1.3348  1.5368  2.6804
  910MOL0     H22828   7.575   3.213   4.848 -0.7343  0.1109 -0.0817
  910MOL0     H22829   7.452   3.225   4.966  0.5727  1.5281 -0.4978
  910MOL0     H22830   7.336   3.272   4.756 -0.3484 -0.1673 -0.5495
  910MOL0     H22831   7.298   3.102   4.777  0.5522  0.0290  2.8816
  910MOL0     H22832   8.051   2.400   5.285 -1.6336 -0.2637 -0.3008
  910MOL0     H22833   8.252   2.325   5.418  1.1109  1.3326 -2.5746
  910MOL0     H22834   8.371   2.345   5.925 -1.5254  1.6119 -2.3243
  910MOL0     H22835   8.538   2.231   6.044  1.2552 -1.2435  0.1054
  910MOL0     H22836  10.251   1.489   6.389  0.7617 -0.2430  0.9484
  910MOL0     H22837  10.473   1.422   6.337  0.1315  0.1782 -1.7810
  910MOL0     H22838  10.679   1.016   6.139 -1.2094 -1.2091  1.1222
  910MOL0     H22839  10.876   0.895   6.062 -0.9336 -1.4903  1.0106
  910MOL0     H22840  11.243   0.943   6.330  2.3758  1.3097  0.5862
  910MOL0     H22841  11.308   0.837   6.207  0.3061  0.4388 -0.8679
  910MOL0     H22842  11.265   1.134   6.145 -1.0035 -0.4164 -1.8702
  910MOL0     H22843  11.321   1.014   6.033 -1.1793  0.2307 -0.1264
  910MOL0     H22844  11.481   1.038   6.279 -0.2823  0.3614  0.2368
  910MOL0     H22845  11.482   1.179   6.169 -5.4777  0.6922  0.1966
  910MOL0     H22846  11.532   0.889   6.104  0.8542 -0.7948  2.8867
  910MOL0     H22847  11.660   0.981   6.165 -0.9920 -0.3209  0.7812
  910MOL0     H22848  11.729   1.052   5.776 -1.3778 -2.3244 -0.2342
  910MOL0     H22849  11.109   1.104   6.374 -0.1290 -1.1373  1.5516
  910MOL0     H22850  10.911   1.229   6.426 -2.0780 -1.3133  1.7002
  911MOL0     O22851   0.373   5.601  11.284 -0.5612 -0.0275 -0.1934
  911MOL0     C22852   0.347   5.713  11.235 -0.5366 -0.0775 -0.2168
  911MOL0     O22853   0.228   5.761  11.191  0.2543 -0.3134  0.7195
  911MOL0     C22854   0.105   5.702  11.214  0.4858  0.1936  0.0309
  911MOL0     C22855   0.082   5.604  11.306 -0.3546  0.2206  0.0511
  911MOL0     C22856  -0.042   5.537  11.316 -0.3428 -0.4728 -0.9380
  911MOL0     C22857  -0.142   5.570  11.234 -0.1436 -0.0369  1.0109
  911MOL0     O22858  -0.260   5.503  11.234  0.5390  0.1179 -0.6968
  911MOL0     C22859  -0.374   5.562  11.172 -0.1634  0.3113  0.6823
  911MOL0     C22860  -0.486   5.492  11.248 -0.9366  0.0355 -0.2394
  911MOL0     C22861  -0.615   5.548  11.192 -0.8933  0.0896 -0.1624
  911MOL0     C22862  -0.739   5.468  11.253 -0.2999 -0.4725 -0.0438
  911MOL0     C22863  -0.872   5.502  11.185 -0.0615 -0.7767  0.3229
  911MOL0     C22864  -0.914   5.655  11.203 -0.4323  1.5192 -0.4292
  911MOL0     C22865  -1.033   5.691  11.113  1.0723  0.9079  0.3824
  911MOL0     C22866  -1.175   5.666  11.177  0.9900 -0.3684  1.3065
  911MOL0     N22867  -1.211   5.522  11.179 -0.9158  0.4643  0.1352
  911MOL0     C22868  -1.250   5.456  11.068  0.9971  1.0514  0.2562
  911MOL0     C22869  -1.307   5.337  11.113  0.1708 -0.4051  0.5751
  911MOL0     C22870  -1.354   5.220  11.024 -0.8835  0.0625  0.3325
  911MOL0     C22871  -1.448   5.120  11.100  0.3450  1.2580 -0.0234
  911MOL0     C22872  -1.464   4.986  11.013 -0.4607 -0.0356 -0.2117
  911MOL0     C22873  -1.573   5.006  10.904 -0.5143 -0.0947  0.5096
  911MOL0     O22874  -1.564   4.906  10.803  0.1678 -0.9134  0.7036
  911MOL0     C22875  -1.681   4.876  10.734 -1.1304  0.3213 -0.6023
  911MOL0     C22876  -1.795   4.956  10.742 -0.3948 -0.1302  0.2341
  911MOL0     C22877  -1.901   4.937  10.656 -0.2183 -0.4038  0.3552
  911MOL0     C22878  -2.008   5.041  10.659 -0.0409 -0.4262  0.5772
  911MOL0     C22879  -1.901   4.826  10.560  0.7636  0.8495 -0.8057
  911MOL0     C22880  -2.019   4.789  10.474  0.8946 -0.3744  0.3871
  911MOL0     O22881  -2.026   4.658  10.432 -0.3477  0.5843  0.1103
  911MOL0     C22882  -2.108   4.616  10.331  0.1205 -0.3849  0.5563
  911MOL0     C22883  -2.045   4.588  10.203  0.5372 -0.4648 -0.6379
  911MOL0     C22884  -2.132   4.560  10.094  0.1930 -0.4633  0.5626
  911MOL0     C22885  -2.270   4.564  10.103  0.9406  0.1562 -0.2758
  911MOL0     O22886  -2.348   4.544   9.990 -0.1991  0.3506  0.0013
  911MOL0     C22887  -2.427   4.656   9.955  0.7294 -0.1212  0.4401
  911MOL0     C22888  -2.528   4.619   9.847  1.0971 -0.1529  0.1631
  911MOL0     C22889  -2.630   4.506   9.891  0.2663 -0.6939 -0.6506
  911MOL0     C22890  -2.719   4.454   9.774  0.1120  0.0640  0.3148
  911MOL0     C22891  -2.764   4.312   9.804 -0.9446 -1.0711  0.6730
  911MOL0     C22892  -2.906   4.292   9.746  0.1430  0.8804 -0.5826
  911MOL0     C22893  -2.983   4.179   9.820 -0.1579 -0.5088  0.2294
  911MOL0     C22894  -3.108   4.136   9.745 -0.1453  0.6463  0.0691
  911MOL0    Cl22895  -3.065   4.068   9.580 -0.2061  0.3326  0.8820
  911MOL0     C22896  -2.328   4.589  10.231  0.6036 -0.4811 -0.0120
  911MOL0     C22897  -2.253   4.624  10.343  0.4924  0.3672  0.3409
  911MOL0     O22898  -2.103   4.875  10.450  0.0584  0.5187 -0.3304
  911MOL0     C22899  -1.793   4.734  10.568 -0.5332 -0.2203 -1.5563
  911MOL0     C22900  -1.680   4.764  10.645  0.1499 -0.3942 -0.1080
  911MOL0     N22901  -1.317   5.357  11.254  0.3004  0.1429 -0.2374
  911MOL0     N22902  -1.260   5.466  11.289 -0.6016  0.0467  0.6227
  911MOL0     C22903  -0.120   5.674  11.138 -0.6513 -0.3796 -1.3715
  911MOL0     C22904   0.005   5.743  11.126 -0.4993 -0.5768  1.0602
  911MOL0     C22905   0.473   5.794  11.215 -0.4610  0.0845  1.2797
  911MOL0     C22906   0.475   5.912  11.138  0.1384 -0.3726 -0.4266
  911MOL0     C22907   0.595   5.965  11.097  0.5905 -1.1039  0.2941
  911MOL0     C22908   0.714   5.926  11.158  0.2419 -0.3781  0.0858
  911MOL0     O22909   0.836   5.965  11.104 -0.6032 -0.3671  0.0098
  911MOL0     C22910   0.838   6.000  10.967 -0.0892 -0.2953  0.0308
  911MOL0     C22911   0.974   5.988  10.884 -0.0743 -0.2365 -0.3317
  911MOL0     C22912   1.041   5.846  10.896 -0.0360  0.4925 -0.0758
  911MOL0     C22913   1.019   5.756  10.769 -0.6773 -0.6228  0.2007
  911MOL0     C22914   0.876   5.727  10.756  0.1170  0.0627 -0.0370
  911MOL0     C22915   0.756   5.723  10.746 -0.4106 -0.5803  0.0415
  911MOL0     C22916   0.719   5.822  11.243  0.6294 -0.8678  0.3379
  911MOL0     C22917   0.603   5.746  11.263 -0.2232  0.1227  0.1070
  911MOL0     H22918   0.156   5.567  11.377 -0.1226 -0.4278 -0.5135
  911MOL0     H22919  -0.072   5.452  11.377  0.9754 -2.0846 -2.4106
  911MOL0     H22920  -0.379   5.666  11.206 -0.8824 -0.5276  3.3941
  911MOL0     H22921  -0.379   5.535  11.066 -1.5881 -0.1500  0.8469
  911MOL0     H22922  -0.487   5.383  11.239  1.5943  0.1051 -2.8834
  911MOL0     H22923  -0.485   5.525  11.352  4.0820  0.2798 -0.1316
  911MOL0     H22924  -0.627   5.655  11.208 -0.9353 -0.1029  1.2363
  911MOL0     H22925  -0.620   5.528  11.085 -0.5040 -4.2259  0.4302
  911MOL0     H22926  -0.715   5.362  11.254  3.6289  0.2474  0.4995
  911MOL0     H22927  -0.760   5.492  11.358  0.0903 -0.2106 -0.0218
  911MOL0     H22928  -0.861   5.484  11.078 -3.2086  0.6592 -0.3488
  911MOL0     H22929  -0.950   5.430  11.210 -0.5533 -0.4740 -0.3196
  911MOL0     H22930  -0.930   5.683  11.308  3.3184  1.2397  0.3732
  911MOL0     H22931  -0.834   5.723  11.172  2.4781 -0.1152  2.8146
  911MOL0     H22932  -1.025   5.798  11.092 -1.1678  1.0643  0.1083
  911MOL0     H22933  -1.034   5.651  11.011 -2.0355  0.2680  0.5659
  911MOL0     H22934  -1.244   5.719  11.110 -1.8785 -1.7754  2.9611
  911MOL0     H22935  -1.185   5.712  11.276 -1.7897  1.4866  0.2914
  911MOL0     H22936  -1.222   5.477  10.965 -0.7157 -0.3326 -0.5539
  911MOL0     H22937  -1.399   5.258  10.932 -0.4124 -0.9822 -0.3505
  911MOL0     H22938  -1.258   5.179  10.992 -1.8199 -0.6204 -1.7557
  911MOL0     H22939  -1.548   5.159  11.119 -0.5885 -1.3708  0.9112
  911MOL0     H22940  -1.401   5.088  11.194  1.1746 -2.0174 -1.4100
  911MOL0     H22941  -1.490   4.900  11.076  0.8169  0.3425  0.8856
  911MOL0     H22942  -1.366   4.959  10.973  1.2321  3.8904  0.7208
  911MOL0     H22943  -1.578   5.105  10.858 -0.6423  0.5194  1.7970
  911MOL0     H22944  -1.660   4.988  10.968  0.9293 -0.2050  2.5262
  911MOL0     H22945  -1.804   5.043  10.806 -0.1146  0.4617 -0.5138
  911MOL0     H22946  -2.107   5.003  10.686 -1.2251  0.9892 -1.4992
  911MOL0     H22947  -1.975   5.121  10.726  0.0103  1.5888 -1.6908
  911MOL0     H22948  -2.022   5.082  10.558 -0.6357 -2.3277 -0.1530
  911MOL0     H22949  -1.939   4.587  10.184  0.3819  0.4296 -1.6456
  911MOL0     H22950  -2.083   4.532  10.002 -1.6429 -2.8174  0.2041
  911MOL0     H22951  -2.473   4.706  10.040  1.0748  0.0464  0.5302
  911MOL0     H22952  -2.358   4.717   9.897  3.1215 -3.8591 -1.0868
  911MOL0     H22953  -2.583   4.707   9.812  0.8125 -1.6810 -3.7016
  911MOL0     H22954  -2.468   4.588   9.761 -1.2418  1.3762 -2.1614
  911MOL0     H22955  -2.691   4.534   9.977  3.0933  1.4266  0.8328
  911MOL0     H22956  -2.572   4.420   9.926  0.1392 -0.8003 -0.6977
  911MOL0     H22957  -2.798   4.528   9.756  0.3357  0.1700 -0.2445
  911MOL0     H22958  -2.666   4.441   9.680  0.9009 -1.3336  0.9262
  911MOL0     H22959  -2.757   4.288   9.910  1.7980  0.2550  0.8952
  911MOL0     H22960  -2.697   4.248   9.746 -0.9247  0.2758 -0.9017
  911MOL0     H22961  -2.961   4.386   9.756  1.0774  1.5297 -1.3881
  911MOL0     H22962  -2.886   4.268   9.641 -0.1882 -1.4658 -0.1540
  911MOL0     H22963  -3.013   4.215   9.919 -1.2994 -2.7798  0.7735
  911MOL0     H22964  -2.924   4.087   9.830 -1.4839 -1.5727 -1.2992
  911MOL0     H22965  -3.185   4.211   9.723 -2.2831 -1.7249 -1.0955
  911MOL0     H22966  -3.161   4.057   9.800  0.5836 -0.7618 -1.1793
  911MOL0     H22967  -2.436   4.577  10.242  0.5219 -0.2525 -0.5245
  911MOL0     H22968  -2.304   4.655  10.434 -1.6185  1.1992 -1.0501
  911MOL0     H22969  -1.796   4.641  10.512 -3.4359 -2.5727  2.0393
  911MOL0     H22970  -1.594   4.698  10.646 -1.0914 -2.0862 -0.7316
  911MOL0     H22971  -0.203   5.713  11.080 -1.5526 -0.6586 -0.3071
  911MOL0     H22972   0.019   5.833  11.068  0.0730  0.7476  3.1631
  911MOL0     H22973   0.378   5.947  11.103  0.0221 -1.5173 -1.3088
  911MOL0     H22974   0.581   6.046  11.026 -0.7903 -1.4440  0.1517
  911MOL0     H22975   0.765   5.932  10.921 -1.9665 -1.2056  3.9302
  911MOL0     H22976   0.799   6.102  10.962 -3.5899 -1.3381  2.3688
  911MOL0     H22977   1.046   6.053  10.934  1.7958 -1.3912 -1.3985
  911MOL0     H22978   0.952   6.021  10.782 -1.0362 -1.0327 -0.3979
  911MOL0     H22979   1.001   5.799  10.986  1.4898  1.4846  1.1735
  911MOL0     H22980   1.149   5.860  10.901  0.1185 -0.6138 -0.1175
  911MOL0     H22981   1.057   5.654  10.774 -0.2265 -0.5885 -1.8396
  911MOL0     H22982   1.066   5.805  10.683  3.0609  0.1026  2.4440
  911MOL0     H22983   0.648   5.723  10.745 -0.6147 -0.4926  4.4072
  911MOL0     H22984   0.815   5.802  11.290 -0.0820 -0.1073  2.2024
  911MOL0     H22985   0.605   5.662  11.331  0.0790  1.4024  1.7750
  912MOL0     O22986   4.089   3.738   6.122  0.1479  0.3417 -0.1841
  912MOL0     C22987   4.078   3.684   6.011  0.4351 -0.0837  0.4664
  912MOL0     O22988   3.959   3.660   5.952 -0.1394  0.0844  0.3913
  912MOL0     C22989   3.836   3.687   6.014  0.6736 -0.3048  0.5044
  912MOL0     C22990   3.801   3.734   6.145 -0.2644 -0.5385  0.5744
  912MOL0     C22991   3.670   3.760   6.181  0.6014  0.2996  0.3504
  912MOL0     C22992   3.565   3.729   6.090  0.3318  0.0225  0.4002
  912MOL0     O22993   3.436   3.754   6.122 -0.7177  0.1849  0.4917
  912MOL0     C22994   3.401   3.799   6.252 -0.0805 -0.0598 -0.9044
  912MOL0     C22995   3.401   3.685   6.353  0.8460  1.0779 -0.1247
  912MOL0     C22996   3.328   3.561   6.315  0.2499 -0.8634  0.1441
  912MOL0     C22997   3.169   3.572   6.293 -0.1449 -0.4904  0.7243
  912MOL0     C22998   3.109   3.440   6.253 -0.2771  0.0416  0.5644
  912MOL0     C22999   2.955   3.441   6.260 -0.7792  0.5379 -0.3196
  912MOL0     C23000   2.886   3.310   6.234  0.6416 -0.2889 -0.0348
  912MOL0     C23001   2.928   3.193   6.319  0.2840  0.0630 -0.0698
  912MOL0     N23002   2.867   3.212   6.459  0.2305  0.1732  0.1586
  912MOL0     C23003   2.933   3.234   6.573 -0.7771 -0.3152 -0.0796
  912MOL0     C23004   2.844   3.241   6.675 -0.9368 -0.1927 -0.6305
  912MOL0     C23005   2.889   3.236   6.826 -0.5394  0.0662 -0.2731
  912MOL0     C23006   2.842   3.112   6.904 -0.4718 -1.0094 -0.2704
  912MOL0     C23007   2.689   3.092   6.920 -0.2506 -0.4782  0.1880
  912MOL0     C23008   2.670   2.954   6.991 -0.8766  0.5928  0.2089
  912MOL0     O23009   2.710   2.943   7.126  0.4596  0.1476 -0.1880
  912MOL0     C23010   2.626   2.985   7.231  0.3754  0.1330  0.4821
  912MOL0     C23011   2.508   3.055   7.207 -0.0752  0.9403 -0.0789
  912MOL0     C23012   2.421   3.095   7.315 -0.4019  0.2372  0.3925
  912MOL0     C23013   2.288   3.160   7.289 -0.4561 -0.4364  0.1628
  912MOL0     C23014   2.466   3.077   7.443 -0.2997  0.5478 -0.3990
  912MOL0     C23015   2.386   3.097   7.563 -0.5063 -0.4024  0.2578
  912MOL0     O23016   2.454   3.137   7.676  0.4431  0.0836  0.5346
  912MOL0     C23017   2.384   3.154   7.786  0.1563 -0.0423  0.0156
  912MOL0     C23018   2.445   3.114   7.907 -0.6780 -0.5512 -0.1838
  912MOL0     C23019   2.378   3.135   8.020 -0.8328 -0.4304 -0.9757
  912MOL0     C23020   2.249   3.174   8.019  0.2872  0.0608 -0.7857
  912MOL0     O23021   2.194   3.172   8.148 -0.4734 -0.0432  0.2020
  912MOL0     C23022   2.056   3.136   8.149  0.5351 -0.1494  0.8737
  912MOL0     C23023   2.017   3.147   8.299 -0.2863 -1.0327  0.7948
  912MOL0     C23024   1.874   3.134   8.325 -0.0360 -0.3604  0.7673
  912MOL0     C23025   1.859   3.162   8.471 -0.5471 -0.5783 -0.0856
  912MOL0     C23026   1.712   3.171   8.515 -1.0700  0.0300 -0.3536
  912MOL0     C23027   1.690   3.223   8.656  0.7875 -0.1607 -0.6952
  912MOL0     C23028   1.713   3.372   8.657  0.4677  0.3969  0.3821
  912MOL0     C23029   1.694   3.434   8.795  0.7318  0.1856 -0.6873
  912MOL0    Cl23030   1.515   3.452   8.828 -0.1493 -0.0050  0.0688
  912MOL0     C23031   2.188   3.213   7.903 -0.0120 -0.6414  0.4004
  912MOL0     C23032   2.258   3.208   7.784 -0.2131  0.2330 -0.1111
  912MOL0     O23033   2.274   3.048   7.556 -0.4544  0.6583 -0.1775
  912MOL0     C23034   2.594   3.012   7.469  0.4777 -1.1221 -0.6099
  912MOL0     C23035   2.667   2.966   7.363  0.1014 -0.2022  0.4878
  912MOL0     N23036   2.721   3.250   6.615  0.5664 -0.5061  0.9242
  912MOL0     N23037   2.732   3.225   6.488  0.3015 -0.2876 -0.1227
  912MOL0     C23038   3.599   3.693   5.951 -0.0178 -0.1552  0.3840
  912MOL0     C23039   3.729   3.665   5.920 -0.2590  0.1956 -0.2211
  912MOL0     C23040   4.209   3.658   5.936  0.4733  0.4911  0.0377
  912MOL0     C23041   4.217   3.601   5.808 -0.6721 -1.0391  0.6836
  912MOL0     C23042   4.337   3.576   5.738  0.3835 -0.2503  0.6443
  912MOL0     C23043   4.456   3.612   5.796 -0.5688  0.2644 -0.4368
  912MOL0     O23044   4.572   3.586   5.731 -0.4479  0.2246 -0.0724
  912MOL0     C23045   4.691   3.546   5.801  0.1739  0.2213  0.4050
  912MOL0     C23046   4.669   3.444   5.901 -0.2101  0.4335 -0.1868
  912MOL0     C23047   4.788   3.353   5.939  0.1094 -0.1705 -0.1265
  912MOL0     C23048   4.758   3.267   6.064  0.2859  1.4571  0.0474
  912MOL0     C23049   4.645   3.180   6.044  0.3426 -0.0881 -0.3882
  912MOL0     C23050   4.542   3.123   6.029  0.7643  0.4419  0.2830
  912MOL0     C23051   4.454   3.674   5.919  0.4674 -0.5073  0.6685
  912MOL0     C23052   4.330   3.703   5.991 -0.5346  0.5904 -0.0211
  912MOL0     H23053   3.882   3.769   6.209 -0.2359  4.3972 -1.7878
  912MOL0     H23054   3.661   3.805   6.279  2.1534 -0.7309  0.9883
  912MOL0     H23055   3.463   3.877   6.296  0.6500 -1.4975  0.7402
  912MOL0     H23056   3.302   3.844   6.236 -0.9830 -2.1304 -1.5622
  912MOL0     H23057   3.499   3.648   6.382 -0.3683 -0.8960  1.7747
  912MOL0     H23058   3.361   3.720   6.448  0.4163  1.5573 -0.4725
  912MOL0     H23059   3.372   3.514   6.226  1.1820  1.9278 -0.9735
  912MOL0     H23060   3.358   3.485   6.387  0.0619  0.5650  1.7860
  912MOL0     H23061   3.122   3.618   6.380 -0.2076  1.3143 -0.2134
  912MOL0     H23062   3.151   3.645   6.213  4.2926  0.3206  0.1956
  912MOL0     H23063   3.152   3.429   6.153 -0.7434 -0.9265  0.4651
  912MOL0     H23064   3.142   3.365   6.325 -0.0678 -0.0941  0.3282
  912MOL0     H23065   2.926   3.460   6.364  0.8528  0.6136  0.1471
  912MOL0     H23066   2.908   3.518   6.199 -0.3537  0.2786 -0.9842
  912MOL0     H23067   2.778   3.317   6.252  0.8456 -1.2764  1.8471
  912MOL0     H23068   2.885   3.284   6.128  1.6763 -1.9740  0.3442
  912MOL0     H23069   3.035   3.174   6.308 -0.0876 -2.7477  0.4869
  912MOL0     H23070   2.873   3.104   6.287 -0.8348  1.3914 -2.0439
  912MOL0     H23071   3.039   3.237   6.595 -0.9829 -0.1223  0.9289
  912MOL0     H23072   2.998   3.236   6.818 -0.5215 -1.3975 -0.2200
  912MOL0     H23073   2.859   3.330   6.874  1.9014 -0.2181  1.9839
  912MOL0     H23074   2.888   3.123   7.003  0.0415  2.9948 -0.7831
  912MOL0     H23075   2.886   3.028   6.849  4.7326  2.6844 -2.5272
  912MOL0     H23076   2.651   3.079   6.818  3.1143  0.8140 -1.4150
  912MOL0     H23077   2.640   3.170   6.979  0.6748 -0.7141  1.3007
  912MOL0     H23078   2.727   2.880   6.935 -0.6550  1.0515 -0.1878
  912MOL0     H23079   2.567   2.918   6.984 -0.6220 -0.6294  2.1957
  912MOL0     H23080   2.476   3.072   7.105 -1.1462  0.1677  0.1182
  912MOL0     H23081   2.303   3.223   7.200  5.3226  0.9296  1.7341
  912MOL0     H23082   2.219   3.076   7.275 -1.0675 -0.2339  1.7820
  912MOL0     H23083   2.249   3.230   7.363 -2.3833  0.1176 -1.2718
  912MOL0     H23084   2.548   3.082   7.895 -0.0948  1.2068 -0.1444
  912MOL0     H23085   2.419   3.115   8.119  0.7826 -4.2292 -2.1912
  912MOL0     H23086   2.004   3.209   8.086  1.2930  1.7803  2.3757
  912MOL0     H23087   2.038   3.038   8.106  2.0265  0.1819 -0.6038
  912MOL0     H23088   2.073   3.076   8.360 -0.2304 -0.2755  1.6477
  912MOL0     H23089   2.054   3.240   8.344 -0.2720 -1.6132  1.9926
  912MOL0     H23090   1.834   3.036   8.297 -0.9885  0.0057  0.8332
  912MOL0     H23091   1.816   3.208   8.269 -2.9258 -1.4741  2.0770
  912MOL0     H23092   1.910   3.086   8.531  0.9239  1.7767  1.8534
  912MOL0     H23093   1.912   3.253   8.501  0.1713 -0.2141 -2.2971
  912MOL0     H23094   1.673   3.069   8.513  0.2580 -0.4917 -0.7138
  912MOL0     H23095   1.651   3.223   8.441 -3.4420 -1.2714  0.5898
  912MOL0     H23096   1.583   3.221   8.681  0.8670  0.0798 -0.3260
  912MOL0     H23097   1.752   3.174   8.732  0.7748  0.4610 -0.2784
  912MOL0     H23098   1.643   3.425   8.591  1.8044  1.1917 -0.4375
  912MOL0     H23099   1.811   3.405   8.623  0.7450 -0.2204  0.5732
  912MOL0     H23100   1.749   3.529   8.798  3.7743 -1.4399 -0.9997
  912MOL0     H23101   1.746   3.387   8.879  0.9542 -0.2546 -1.0704
  912MOL0     H23102   2.096   3.270   7.904  1.4911  2.0969  3.7021
  912MOL0     H23103   2.217   3.240   7.689 -2.0757 -0.7093  0.3311
  912MOL0     H23104   2.619   3.004   7.575  0.1033  1.4421 -0.2622
  912MOL0     H23105   2.767   2.927   7.376  0.4545  0.3282 -0.5503
  912MOL0     H23106   3.533   3.689   5.865 -0.5681 -1.6612  0.8446
  912MOL0     H23107   3.762   3.623   5.826  2.4505  1.3190  0.1377
  912MOL0     H23108   4.125   3.579   5.755 -0.8780  1.7519 -0.3053
  912MOL0     H23109   4.325   3.527   5.642 -0.7140  0.5171  0.3738
  912MOL0     H23110   4.763   3.511   5.727 -0.5195  0.4910 -0.4108
  912MOL0     H23111   4.734   3.637   5.845  1.7578 -0.7590  0.9748
  912MOL0     H23112   4.590   3.382   5.858 -0.4824  1.0415 -0.5731
  912MOL0     H23113   4.619   3.480   5.991 -0.8387  0.4505 -0.5407
  912MOL0     H23114   4.877   3.413   5.957 -2.1359  2.6510  3.0116
  912MOL0     H23115   4.811   3.282   5.859  0.6356 -2.4326  1.9323
  912MOL0     H23116   4.737   3.322   6.156 -0.0841 -0.7908  1.3770
  912MOL0     H23117   4.842   3.202   6.089  0.7286  2.2203  0.6180
  912MOL0     H23118   4.448   3.077   6.007  1.5050 -2.6685  2.8848
  912MOL0     H23119   4.542   3.715   5.967  1.2344 -1.9335  0.5026
  912MOL0     H23120   4.321   3.754   6.086 -3.6314  0.2284 -0.0242
  913MOL0     O23121   0.163   7.659  10.266 -0.1998 -0.0415 -0.0749
  913MOL0     C23122   0.223   7.742  10.346  0.1764  0.3632  1.0378
  913MOL0     O23123   0.198   7.876  10.355 -0.3460  0.7195  0.0329
  913MOL0     C23124   0.100   7.924  10.277  0.2487 -0.8527 -1.1018
  913MOL0     C23125  -0.026   7.942  10.333  0.4611 -0.0368  0.7133
  913MOL0     C23126  -0.131   7.992  10.268  0.0260  0.5975 -0.8742
  913MOL0     C23127  -0.113   8.035  10.135  0.5792 -0.5603 -0.1098
  913MOL0     O23128  -0.224   8.087  10.070  0.6698 -0.5776  0.4001
  913MOL0     C23129  -0.219   8.126   9.923  0.2745  0.0744 -0.6009
  913MOL0     C23130  -0.212   8.274   9.900 -1.2322  0.8111 -0.0532
  913MOL0     C23131  -0.342   8.350   9.938 -0.0022 -0.3374  0.4039
  913MOL0     C23132  -0.343   8.497   9.913 -0.5138 -0.7943 -0.2400
  913MOL0     C23133  -0.455   8.570   9.978  0.5285  0.0003  0.5111
  913MOL0     C23134  -0.459   8.719   9.972  0.4784  0.3145 -0.4415
  913MOL0     C23135  -0.586   8.768  10.036 -0.4471  0.4896 -0.4639
  913MOL0     C23136  -0.578   8.918  10.062  0.9612 -0.7278  0.2159
  913MOL0     N23137  -0.708   8.964  10.112  0.0390  0.1075 -0.8601
  913MOL0     C23138  -0.795   9.053  10.054 -0.1245 -0.6296 -0.6447
  913MOL0     C23139  -0.910   9.047  10.119 -0.3321 -0.1206 -0.0965
  913MOL0     C23140  -1.031   9.126  10.086 -0.2237 -0.3257  0.5908
  913MOL0     C23141  -1.014   9.251   9.991  1.2973  1.1639 -0.3505
  913MOL0     C23142  -1.144   9.332   9.966 -1.2097 -0.5447 -0.4037
  913MOL0     C23143  -1.227   9.243   9.869 -0.5664 -0.1194 -0.4007
  913MOL0     O23144  -1.334   9.169   9.932 -0.3323  0.6643  0.4388
  913MOL0     C23145  -1.434   9.229  10.000 -0.2521  0.1222 -0.5063
  913MOL0     C23146  -1.519   9.137  10.071 -0.6118  0.4483 -0.6691
  913MOL0     C23147  -1.643   9.184  10.121 -0.1065 -0.7119 -0.1841
  913MOL0     C23148  -1.735   9.085  10.175  0.1650  0.0491 -1.1464
  913MOL0     C23149  -1.677   9.323  10.093 -0.3513  0.9537  0.1579
  913MOL0     C23150  -1.811   9.383  10.116 -0.2360  0.3621 -0.7166
  913MOL0     O23151  -1.914   9.296  10.109  0.0224  0.5733 -0.2131
  913MOL0     C23152  -2.045   9.335  10.120  0.4755 -0.9414 -0.8947
  913MOL0     C23153  -2.133   9.232  10.170 -1.0447 -0.8908 -0.6967
  913MOL0     C23154  -2.272   9.255  10.168 -0.3397  0.6173 -0.2725
  913MOL0     C23155  -2.317   9.383  10.142  0.4971  0.6848 -0.0602
  913MOL0     O23156  -2.449   9.414  10.130  0.0120 -0.2107  0.4460
  913MOL0     C23157  -2.537   9.334  10.211 -0.3444 -0.7778 -0.9297
  913MOL0     C23158  -2.687   9.367  10.205 -0.0086 -0.6207 -0.2779
  913MOL0     C23159  -2.725   9.514  10.225 -0.0855 -0.3192 -0.6238
  913MOL0     C23160  -2.872   9.539  10.192 -0.6739  1.0806 -0.1594
  913MOL0     C23161  -2.895   9.691  10.178 -0.6973  0.8305 -0.3158
  913MOL0     C23162  -3.039   9.736  10.177 -0.1138 -0.0130 -0.2074
  913MOL0     C23163  -3.115   9.709  10.309  0.1023  0.0898  0.5249
  913MOL0     C23164  -3.259   9.767  10.312  0.3265  0.2607  0.0510
  913MOL0    Cl23165  -3.367   9.668  10.203  0.3239 -0.0906 -0.4951
  913MOL0     C23166  -2.241   9.483  10.106 -0.2095 -0.1952  1.5264
  913MOL0     C23167  -2.101   9.460  10.090 -0.2479 -0.1574  0.7125
  913MOL0     O23168  -1.824   9.502  10.141 -0.8802 -0.4114 -0.0148
  913MOL0     C23169  -1.589   9.410  10.030  0.7363 -0.4864  0.3419
  913MOL0     C23170  -1.465   9.362   9.983  0.6383 -0.2295 -0.8511
  913MOL0     N23171  -0.898   8.964  10.229 -0.7966  0.3415  0.3086
  913MOL0     N23172  -0.776   8.907  10.220  0.5883 -0.4576  0.6681
  913MOL0     C23173   0.012   8.033  10.085  0.6852 -0.1951  0.7615
  913MOL0     C23174   0.123   7.978  10.152 -0.3456  0.1178  1.1396
  913MOL0     C23175   0.314   7.686  10.447  0.1909 -0.5358  0.0342
  913MOL0     C23176   0.380   7.761  10.550 -0.1177 -0.2034  0.1503
  913MOL0     C23177   0.454   7.698  10.653 -0.0834 -0.4633  0.0875
  913MOL0     C23178   0.496   7.564  10.630  0.5826  0.1160 -0.2627
  913MOL0     O23179   0.583   7.491  10.702  0.3096 -0.3083 -0.0991
  913MOL0     C23180   0.646   7.543  10.818  0.5441 -0.9165  0.2002
  913MOL0     C23181   0.694   7.425  10.903  0.3111  0.3637 -1.0761
  913MOL0     C23182   0.827   7.364  10.856  0.3051 -0.0684  0.5701
  913MOL0     C23183   0.940   7.460  10.890 -0.1398 -0.3439 -0.2176
  913MOL0     C23184   1.067   7.405  10.851  0.0705  0.1598 -0.7388
  913MOL0     C23185   1.161   7.345  10.806  0.6169 -0.6906  0.5386
  913MOL0     C23186   0.433   7.496  10.524  0.6374  0.4591 -0.3859
  913MOL0     C23187   0.348   7.552  10.434  0.2967 -0.0729 -0.3459
  913MOL0     H23188  -0.021   7.918  10.438  2.7520  2.2591  1.2470
  913MOL0     H23189  -0.223   7.996  10.325  0.0749  0.7280 -0.8036
  913MOL0     H23190  -0.144   8.077   9.860 -0.6350  0.7260 -2.2829
  913MOL0     H23191  -0.312   8.089   9.879  1.6098 -2.3984 -1.4955
  913MOL0     H23192  -0.119   8.313   9.941 -0.4527  2.9309 -3.3617
  913MOL0     H23193  -0.208   8.299   9.793 -0.2120 -2.1342 -0.7967
  913MOL0     H23194  -0.430   8.310   9.886 -0.9429  2.0293  0.0548
  913MOL0     H23195  -0.380   8.330  10.038 -0.5909 -0.1763  0.2179
  913MOL0     H23196  -0.248   8.544   9.943 -1.9184  1.6874  0.6079
  913MOL0     H23197  -0.350   8.516   9.806  1.3676  2.7165  0.0804
  913MOL0     H23198  -0.544   8.523   9.936  0.6459 -1.1230  1.4655
  913MOL0     H23199  -0.456   8.541  10.084 -4.5065 -1.5035  0.3023
  913MOL0     H23200  -0.366   8.757  10.015  0.1636  2.0185 -1.2051
  913MOL0     H23201  -0.452   8.750   9.867  0.4092 -2.4942 -1.3793
  913MOL0     H23202  -0.673   8.746   9.972 -1.5022  1.0023  0.7433
  913MOL0     H23203  -0.604   8.717  10.130 -0.9917  1.3860 -0.0596
  913MOL0     H23204  -0.558   8.985   9.978 -0.5526 -0.1281  0.3074
  913MOL0     H23205  -0.497   8.927  10.135  0.5491  0.8059  0.5008
  913MOL0     H23206  -0.765   9.113   9.968 -0.7829  0.0146 -0.4318
  913MOL0     H23207  -1.108   9.057  10.050 -0.0372  0.6663 -1.9524
  913MOL0     H23208  -1.061   9.168  10.183 -1.7544 -0.1594  0.0808
  913MOL0     H23209  -0.965   9.229   9.896 -0.5361  0.0074 -1.0795
  913MOL0     H23210  -0.940   9.319  10.033 -1.3367  4.4049 -0.5481
  913MOL0     H23211  -1.138   9.432   9.921  1.9496 -0.3018  0.3055
  913MOL0     H23212  -1.176   9.344  10.070  2.0884  0.7831  0.6044
  913MOL0     H23213  -1.167   9.176   9.806  0.4852 -1.3712  1.7988
  913MOL0     H23214  -1.278   9.312   9.802  2.1501  1.9850 -0.4697
  913MOL0     H23215  -1.484   9.035  10.079  2.4299  1.2651 -2.0522
  913MOL0     H23216  -1.818   9.063  10.108 -0.2622  0.4372 -0.7475
  913MOL0     H23217  -1.686   8.992  10.206 -0.9124 -1.2795 -3.2162
  913MOL0     H23218  -1.782   9.118  10.268  0.8712 -0.8747 -0.4364
  913MOL0     H23219  -2.096   9.136  10.206 -0.2967  0.0231  1.0672
  913MOL0     H23220  -2.330   9.169  10.200  2.3843 -1.1662  0.2089
  913MOL0     H23221  -2.543   9.228  10.184 -2.0908 -0.7603 -0.7476
  913MOL0     H23222  -2.515   9.343  10.318 -2.9417 -1.0361 -0.2931
  913MOL0     H23223  -2.728   9.341  10.107 -1.6561  1.0832 -0.0997
  913MOL0     H23224  -2.749   9.311  10.276 -0.5156  0.7648  0.4037
  913MOL0     H23225  -2.668   9.590  10.170 -1.3864  2.4210  1.5276
  913MOL0     H23226  -2.702   9.543  10.328  0.6924 -1.7389 -0.3801
  913MOL0     H23227  -2.903   9.479  10.106  1.4666  1.0878 -0.9865
  913MOL0     H23228  -2.929   9.489  10.271  0.8163 -0.3689  0.0443
  913MOL0     H23229  -2.844   9.712  10.083 -0.7924 -1.8706 -1.0655
  913MOL0     H23230  -2.851   9.749  10.260 -0.4737  0.8363 -0.4373
  913MOL0     H23231  -3.044   9.843  10.158  1.4689  0.5815  2.3196
  913MOL0     H23232  -3.097   9.672  10.109  1.6672 -2.2489  0.2395
  913MOL0     H23233  -3.057   9.753  10.391 -0.2717  3.2118 -0.7394
  913MOL0     H23234  -3.113   9.602  10.331 -1.1696  0.4116  2.5139
  913MOL0     H23235  -3.265   9.874  10.289 -2.8712 -0.4854 -3.7541
  913MOL0     H23236  -3.300   9.749  10.412 -0.1602 -1.6294 -0.4588
  913MOL0     H23237  -2.276   9.575  10.059  1.1531 -1.8324 -3.3474
  913MOL0     H23238  -2.059   9.554  10.059 -3.5526  1.2169 -0.0395
  913MOL0     H23239  -1.632   9.505  10.001 -2.0111 -2.1751 -1.6352
  913MOL0     H23240  -1.395   9.434   9.941  0.5104 -0.0557 -0.7683
  913MOL0     H23241   0.025   8.072   9.984 -1.5296  1.8158  1.1666
  913MOL0     H23242   0.217   7.968  10.099 -0.1671  0.6637  1.3443
  913MOL0     H23243   0.352   7.866  10.559 -1.4183 -0.4978 -0.1869
  913MOL0     H23244   0.482   7.756  10.740 -1.5651  1.3990 -0.5924
  913MOL0     H23245   0.730   7.605  10.783  0.1064 -0.7511 -0.5926
  913MOL0     H23246   0.579   7.603  10.880 -0.4501 -1.5833 -0.2119
  913MOL0     H23247   0.604   7.362  10.902  1.3376 -1.1451 -2.1417
  913MOL0     H23248   0.710   7.462  11.005  1.4258 -0.3571 -0.9765
  913MOL0     H23249   0.838   7.351  10.748  0.5987  0.4289  0.5384
  913MOL0     H23250   0.841   7.272  10.913 -2.7581 -0.0519  1.5414
  913MOL0     H23251   0.939   7.482  10.997  0.6989 -2.7160  0.3277
  913MOL0     H23252   0.926   7.556  10.839 -1.5499 -0.2326  0.3448
  913MOL0     H23253   1.235   7.292  10.750 -0.5102 -2.2489  0.4545
  913MOL0     H23254   0.468   7.395  10.506  1.8828  0.4494  1.6919
  913MOL0     H23255   0.315   7.493  10.348  1.3336  0.2120 -0.9568
  914MOL0     O23256   5.203   6.899   6.053 -0.1852 -0.0293 -0.7678
  914MOL0     C23257   5.118   6.975   6.091 -0.5050 -0.2123 -0.7541
  914MOL0     O23258   5.140   7.081   6.164 -0.1617  0.5576 -0.6179
  914MOL0     C23259   5.269   7.112   6.201 -0.0512  0.9177 -0.0067
  914MOL0     C23260   5.338   7.225   6.146 -0.0221 -0.0035  0.6905
  914MOL0     C23261   5.477   7.245   6.161  0.7149 -0.7981 -0.4287
  914MOL0     C23262   5.543   7.162   6.240  0.2126  0.0417 -0.1695
  914MOL0     O23263   5.679   7.186   6.253 -0.0946  0.8182 -0.5102
  914MOL0     C23264   5.762   7.094   6.181 -0.6586  0.3406 -0.5240
  914MOL0     C23265   5.881   7.070   6.274 -0.1191 -0.0540  0.0417
  914MOL0     C23266   5.857   6.970   6.386  0.4276  0.5612  0.0190
  914MOL0     C23267   5.969   6.949   6.484  0.2827  0.2002  0.5541
  914MOL0     C23268   5.960   6.806   6.551 -0.6984  0.1430 -0.3177
  914MOL0     C23269   5.831   6.795   6.630  0.3650 -0.1826  0.3815
  914MOL0     C23270   5.837   6.670   6.724  0.1943 -0.0629 -0.2399
  914MOL0     C23271   5.724   6.680   6.836 -0.8979  0.2143 -0.4368
  914MOL0     N23272   5.593   6.685   6.789  0.0086 -0.2955 -0.5537
  914MOL0     C23273   5.509   6.581   6.755  0.3120  0.1586 -0.7139
  914MOL0     C23274   5.386   6.639   6.730  0.2209 -0.9872  0.6151
  914MOL0     C23275   5.267   6.569   6.703  0.2513  0.5142 -0.5913
  914MOL0     C23276   5.199   6.511   6.830  1.7215 -0.0322 -0.3657
  914MOL0     C23277   5.132   6.611   6.920  0.9513 -0.5701 -0.0769
  914MOL0     C23278   5.033   6.693   6.841 -0.3604  0.8461  0.0338
  914MOL0     O23279   4.936   6.728   6.936  0.3460 -0.2027 -0.8954
  914MOL0     C23280   4.817   6.773   6.883  0.4229  1.1414 -0.7488
  914MOL0     C23281   4.729   6.690   6.811  0.3928 -0.4031  0.2258
  914MOL0     C23282   4.605   6.729   6.755 -0.0271  0.0899  0.1810
  914MOL0     C23283   4.535   6.625   6.662 -0.2738  0.2010 -0.0881
  914MOL0     C23284   4.558   6.858   6.791 -0.0492  0.0800  0.6211
  914MOL0     C23285   4.418   6.905   6.754 -0.3573  0.5550  1.2000
  914MOL0     O23286   4.345   6.828   6.670  0.0025 -0.4977  0.0702
  914MOL0     C23287   4.207   6.839   6.668 -0.5095 -0.7972  0.5640
  914MOL0     C23288   4.132   6.866   6.788  0.3144  0.4614  0.6522
  914MOL0     C23289   3.993   6.851   6.789  0.4514 -0.0244  0.2722
  914MOL0     C23290   3.926   6.819   6.666 -0.2896 -0.2943 -1.1759
  914MOL0     O23291   3.791   6.815   6.677  0.1767  0.6090  0.7492
  914MOL0     C23292   3.716   6.833   6.558  1.4133 -0.5533  0.4209
  914MOL0     C23293   3.651   6.702   6.501 -0.2779 -0.6237  0.0678
  914MOL0     C23294   3.521   6.687   6.573 -0.3122  0.9334  0.9020
  914MOL0     C23295   3.467   6.542   6.564 -0.7061  0.9542 -0.7079
  914MOL0     C23296   3.317   6.532   6.609 -0.6807  0.2890  0.0622
  914MOL0     C23297   3.206   6.588   6.515 -0.7951 -0.3775  0.8872
  914MOL0     C23298   3.080   6.605   6.595  0.2847  0.0719 -0.5716
  914MOL0     C23299   2.958   6.667   6.514  0.3946 -0.2537 -0.3027
  914MOL0    Cl23300   2.818   6.680   6.626  0.3345 -0.3659 -0.3695
  914MOL0     C23301   4.001   6.785   6.561 -0.7584  0.2686 -0.6210
  914MOL0     C23302   4.140   6.797   6.555  0.6771  0.1770  0.1274
  914MOL0     O23303   4.384   7.011   6.810 -0.6296  0.7062  0.0641
  914MOL0     C23304   4.643   6.937   6.866  1.0174 -0.2215 -0.2028
  914MOL0     C23305   4.773   6.900   6.907 -0.1437 -0.6780 -0.0599
  914MOL0     N23306   5.397   6.783   6.733 -0.6979  0.2535 -0.2454
  914MOL0     N23307   5.522   6.803   6.777 -0.4767 -0.1693  0.4204
  914MOL0     C23308   5.477   7.055   6.308  0.2529 -0.3496  1.2267
  914MOL0     C23309   5.344   7.030   6.288 -0.6644  0.2243 -0.4091
  914MOL0     C23310   4.986   6.940   6.092 -0.7469 -0.1744 -0.3104
  914MOL0     C23311   4.899   6.981   6.195  0.1588 -0.6749  0.1801
  914MOL0     C23312   4.769   6.964   6.193  1.2032 -0.2954 -0.2583
  914MOL0     C23313   4.705   6.892   6.092  1.1795  0.4747 -1.3983
  914MOL0     O23314   4.568   6.862   6.109 -0.0394  1.1197  0.2399
  914MOL0     C23315   4.502   6.770   6.015 -0.9120  0.3472 -0.0765
  914MOL0     C23316   4.484   6.834   5.880  0.5264 -0.0339  1.1128
  914MOL0     C23317   4.356   6.925   5.863  0.3058 -0.1704 -0.1111
  914MOL0     C23318   4.221   6.878   5.916  0.2393 -0.7308  0.4959
  914MOL0     C23319   4.204   6.730   5.915 -0.9539  0.1335  0.2447
  914MOL0     C23320   4.207   6.611   5.944 -1.0253  0.0319  0.4483
  914MOL0     C23321   4.789   6.841   5.988 -0.3277  0.2122  0.5222
  914MOL0     C23322   4.923   6.872   5.989 -0.7080  0.0374 -0.6141
  914MOL0     H23323   5.288   7.291   6.077 -0.7067 -1.1054  0.1102
  914MOL0     H23324   5.510   7.326   6.098 -0.0777 -0.8554 -0.9341
  914MOL0     H23325   5.710   7.005   6.145 -1.9885  0.6736  0.4815
  914MOL0     H23326   5.795   7.151   6.094 -1.4839  0.4048 -0.8046
  914MOL0     H23327   5.969   7.038   6.216 -0.7845 -1.0116 -0.4627
  914MOL0     H23328   5.901   7.165   6.324 -1.6888  0.2457  0.1534
  914MOL0     H23329   5.770   7.009   6.441 -0.7552 -1.0027 -0.6533
  914MOL0     H23330   5.827   6.869   6.357  0.3596  0.0424  1.7748
  914MOL0     H23331   6.071   6.960   6.447  0.4727  2.1744  1.5413
  914MOL0     H23332   5.945   7.025   6.559 -4.2198  0.5755 -0.9651
  914MOL0     H23333   5.973   6.732   6.471  2.3806  1.3033 -1.0158
  914MOL0     H23334   6.043   6.800   6.621 -0.8863  0.1522 -0.0946
  914MOL0     H23335   5.818   6.885   6.691 -1.8477 -0.0970 -0.1121
  914MOL0     H23336   5.744   6.792   6.563  1.8633 -0.2729 -1.6484
  914MOL0     H23337   5.828   6.575   6.671 -2.8844  0.0428 -0.0737
  914MOL0     H23338   5.936   6.667   6.770  0.1894  0.7970 -0.1592
  914MOL0     H23339   5.739   6.769   6.898 -0.6367 -1.0639  1.4143
  914MOL0     H23340   5.741   6.590   6.894  1.1621 -2.2539 -4.4062
  914MOL0     H23341   5.516   6.473   6.743 -3.2929 -0.1513 -1.0305
  914MOL0     H23342   5.191   6.624   6.646 -1.7969 -0.3993  1.1462
  914MOL0     H23343   5.293   6.487   6.635  0.4669  1.2883 -1.4694
  914MOL0     H23344   5.262   6.452   6.897 -1.5645 -0.7316  2.3574
  914MOL0     H23345   5.124   6.445   6.787  1.9155 -0.8672  0.5537
  914MOL0     H23346   5.204   6.672   6.974  1.4788 -0.5041 -0.8357
  914MOL0     H23347   5.071   6.561   6.996 -0.4731 -0.1037 -0.8742
  914MOL0     H23348   4.995   6.635   6.756  2.1432 -1.0553  0.0533
  914MOL0     H23349   5.080   6.785   6.804 -0.5442  1.2062  0.6820
  914MOL0     H23350   4.758   6.587   6.789 -1.5185 -1.2756  1.5972
  914MOL0     H23351   4.604   6.547   6.627 -0.5026  0.6640 -1.6348
  914MOL0     H23352   4.450   6.585   6.718  0.4501 -0.4114  0.6106
  914MOL0     H23353   4.502   6.654   6.562 -2.9902 -4.1169 -0.6851
  914MOL0     H23354   4.184   6.894   6.879  0.0173  0.3714  0.8564
  914MOL0     H23355   3.930   6.860   6.877 -0.6360 -0.0464 -0.4838
  914MOL0     H23356   3.631   6.900   6.576  0.9507 -0.1044 -2.8183
  914MOL0     H23357   3.774   6.887   6.483 -3.8213  1.4559 -2.7974
  914MOL0     H23358   3.635   6.721   6.395  0.1356  3.0091  0.5299
  914MOL0     H23359   3.714   6.613   6.514  0.5878 -0.1442 -0.7131
  914MOL0     H23360   3.450   6.767   6.547 -1.2741 -0.6154 -1.5198
  914MOL0     H23361   3.536   6.700   6.681 -0.9860 -2.6365  1.5536
  914MOL0     H23362   3.481   6.510   6.460  2.3477  1.6006 -0.6029
  914MOL0     H23363   3.519   6.471   6.629 -0.3014  0.3271 -1.6836
  914MOL0     H23364   3.298   6.582   6.705  0.7671 -1.2963  1.2318
  914MOL0     H23365   3.296   6.427   6.628  3.1992 -0.4246  1.2950
  914MOL0     H23366   3.248   6.680   6.475 -1.6347  0.8210  2.6280
  914MOL0     H23367   3.191   6.509   6.440 -0.8778 -0.5657  1.0987
  914MOL0     H23368   3.094   6.680   6.673  1.1696 -1.4425  0.7836
  914MOL0     H23369   3.064   6.506   6.639  3.1558 -1.1061 -1.9199
  914MOL0     H23370   2.931   6.604   6.428 -1.1028 -0.8056  0.5402
  914MOL0     H23371   2.991   6.763   6.472  0.5998  0.4783  1.4721
  914MOL0     H23372   3.955   6.760   6.465 -0.8389 -3.6262  0.2852
  914MOL0     H23373   4.191   6.805   6.460  0.0058  0.0444 -0.2569
  914MOL0     H23374   4.628   7.043   6.882  0.2205 -0.1597 -1.2793
  914MOL0     H23375   4.844   6.968   6.955  1.1333 -0.6296 -1.9044
  914MOL0     H23376   5.539   6.983   6.360  0.9979  0.0618  0.9154
  914MOL0     H23377   5.294   6.947   6.338 -1.3064  0.0440 -1.3090
  914MOL0     H23378   4.936   7.036   6.281  0.1234  0.8370 -0.7446
  914MOL0     H23379   4.724   6.998   6.285 -0.2508  2.9322 -1.9864
  914MOL0     H23380   4.570   6.686   6.001  1.3081  2.0351 -0.0146
  914MOL0     H23381   4.406   6.751   6.064 -0.4314 -2.9946 -0.2284
  914MOL0     H23382   4.467   6.767   5.795 -2.4681  1.7513  0.1457
  914MOL0     H23383   4.575   6.892   5.859 -0.2473  0.6007 -0.7768
  914MOL0     H23384   4.351   6.937   5.755  3.1448  4.8357  0.0359
  914MOL0     H23385   4.371   7.017   5.921 -1.7836 -1.6344  3.0352
  914MOL0     H23386   4.141   6.922   5.855  0.8691  3.5799  2.4058
  914MOL0     H23387   4.213   6.906   6.021 -2.2145 -0.6254  0.3440
  914MOL0     H23388   4.203   6.508   5.975 -0.9126  0.7261  2.9787
  914MOL0     H23389   4.746   6.766   5.922 -0.6428 -0.2471  1.2350
  914MOL0     H23390   4.992   6.832   5.916 -0.0141 -0.3339  0.2251
  915MOL0     O23391   4.463   3.962   6.594 -0.2556  0.0463  0.3838
  915MOL0     C23392   4.514   4.073   6.568 -0.6298  0.3487  0.4000
  915MOL0     O23393   4.441   4.195   6.549  0.7142 -0.5486  0.1266
  915MOL0     C23394   4.319   4.215   6.619 -0.1303  1.2320 -0.4704
  915MOL0     C23395   4.324   4.236   6.758  0.8470  0.4076 -0.2246
  915MOL0     C23396   4.207   4.263   6.831 -0.3350  0.2046  0.6812
  915MOL0     C23397   4.089   4.267   6.756  0.3142 -0.1779 -0.8685
  915MOL0     O23398   3.973   4.294   6.817  0.3696  0.0267 -0.3680
  915MOL0     C23399   3.943   4.225   6.943 -0.3677  0.0279 -0.0575
  915MOL0     C23400   3.794   4.192   6.924  0.2668 -0.4117  0.7613
  915MOL0     C23401   3.730   4.141   7.058 -0.3663 -0.5401  0.0228
  915MOL0     C23402   3.585   4.200   7.078 -0.2050 -1.2965  0.4671
  915MOL0     C23403   3.506   4.169   7.206  0.1285  0.3983  0.3517
  915MOL0     C23404   3.381   4.258   7.218  1.2724  0.0682 -0.0245
  915MOL0     C23405   3.327   4.253   7.355  0.6890 -0.0208  0.0096
  915MOL0     C23406   3.221   4.356   7.384 -0.3875 -0.3629  0.1921
  915MOL0     N23407   3.112   4.350   7.281  0.7609  0.0418 -1.2236
  915MOL0     C23408   2.999   4.279   7.293 -0.5411  0.2462  0.0933
  915MOL0     C23409   2.929   4.289   7.174 -0.2303 -0.1999  0.0347
  915MOL0     C23410   2.793   4.232   7.128 -0.0737 -0.0797  0.0553
  915MOL0     C23411   2.695   4.243   7.249 -0.5626 -0.0962  0.1062
  915MOL0     C23412   2.679   4.390   7.291  0.2145 -0.6032 -0.6493
  915MOL0     C23413   2.557   4.408   7.390  0.3454 -0.4677 -0.6091
  915MOL0     O23414   2.441   4.400   7.311  0.9917 -0.4979  0.2518
  915MOL0     C23415   2.329   4.442   7.376  0.4382  0.2463 -0.6518
  915MOL0     C23416   2.310   4.456   7.518  1.1481  0.1656 -0.7373
  915MOL0     C23417   2.192   4.517   7.579  0.3584  0.2571  1.0891
  915MOL0     C23418   2.185   4.509   7.730 -0.0666 -0.4688 -0.2093
  915MOL0     C23419   2.094   4.577   7.490  0.2905 -0.9529  0.4918
  915MOL0     C23420   1.971   4.647   7.539 -0.4139 -0.2408  0.0183
  915MOL0     O23421   1.877   4.676   7.443  0.3275  0.4574 -0.6355
  915MOL0     C23422   1.765   4.726   7.497 -0.0315 -0.1902 -0.9451
  915MOL0     C23423   1.728   4.860   7.497 -0.3256  0.3372  0.0327
  915MOL0     C23424   1.603   4.906   7.560  0.0838  0.2792  0.1123
  915MOL0     C23425   1.510   4.805   7.600  0.0042  0.6678  0.4104
  915MOL0     O23426   1.390   4.843   7.643  0.0836 -0.2379  0.1330
  915MOL0     C23427   1.319   4.770   7.732 -0.0922 -1.1934 -0.9113
  915MOL0     C23428   1.186   4.843   7.768  0.3948 -0.8540 -0.2241
  915MOL0     C23429   1.068   4.784   7.696  0.4903  0.5988 -0.0795
  915MOL0     C23430   0.930   4.851   7.709  0.3694 -0.2859 -0.7608
  915MOL0     C23431   0.824   4.806   7.619 -0.5345  1.0332 -0.3271
  915MOL0     C23432   0.858   4.844   7.480 -0.4942  0.7899  0.3104
  915MOL0     C23433   0.736   4.826   7.383  0.6833  0.3983  0.7275
  915MOL0     C23434   0.783   4.811   7.237  0.5652  0.2310  0.4956
  915MOL0    Cl23435   0.637   4.833   7.125 -0.0821 -0.0751  0.1747
  915MOL0     C23436   1.546   4.670   7.590 -0.2363  0.2316  0.3608
  915MOL0     C23437   1.668   4.636   7.538 -0.4550 -0.0578  0.4368
  915MOL0     O23438   1.958   4.667   7.660 -0.6917 -0.1790 -0.1369
  915MOL0     C23439   2.117   4.567   7.351  0.1244 -0.6755  0.1131
  915MOL0     C23440   2.230   4.503   7.294  0.0058 -0.2303 -0.2238
  915MOL0     N23441   2.995   4.376   7.098  0.1448 -0.0351  1.4196
  915MOL0     N23442   3.091   4.425   7.167 -0.4392  0.2253  0.4143
  915MOL0     C23443   4.083   4.247   6.624  1.2713  1.1258 -0.6783
  915MOL0     C23444   4.193   4.222   6.552 -0.2007 -0.1522  0.9800
  915MOL0     C23445   4.664   4.093   6.564  0.0987  0.8339  0.6176
  915MOL0     C23446   4.733   4.216   6.540 -0.4474  0.7065  0.1904
  915MOL0     C23447   4.878   4.223   6.520 -0.0017 -1.1353  0.7447
  915MOL0     C23448   4.953   4.101   6.527  0.5921 -0.3811 -0.0327
  915MOL0     O23449   5.085   4.116   6.511 -0.5928 -0.0924  1.0504
  915MOL0     C23450   5.166   4.009   6.551 -0.8751  0.9324 -0.2115
  915MOL0     C23451   5.316   4.052   6.541  0.1636 -0.5587  0.0203
  915MOL0     C23452   5.359   4.098   6.398  0.4471 -0.3404 -0.2925
  915MOL0     C23453   5.498   4.162   6.393  0.0013 -0.3942  0.0494
  915MOL0     C23454   5.589   4.053   6.358  0.4537 -0.5452 -0.8765
  915MOL0     C23455   5.660   3.956   6.338  0.8437  0.1423 -0.3427
  915MOL0     C23456   4.878   3.982   6.537 -0.5321 -0.6348 -0.6892
  915MOL0     C23457   4.740   3.976   6.564 -0.7294  0.3417  0.8741
  915MOL0     H23458   4.413   4.225   6.819 -0.2296  1.1275  1.5696
  915MOL0     H23459   4.228   4.271   6.937  1.2551  2.0053  0.2776
  915MOL0     H23460   4.006   4.140   6.969 -2.0381 -1.3193 -0.2558
  915MOL0     H23461   3.967   4.296   7.023  1.0931  0.2745 -0.6722
  915MOL0     H23462   3.737   4.281   6.894  0.9702  1.2434  3.8636
  915MOL0     H23463   3.778   4.116   6.848 -0.2377 -0.2935  0.7456
  915MOL0     H23464   3.712   4.035   7.037  0.2291 -1.2584  2.8226
  915MOL0     H23465   3.786   4.144   7.152 -1.7324 -2.3666  0.9580
  915MOL0     H23466   3.600   4.308   7.069 -0.0540 -1.2896  0.7825
  915MOL0     H23467   3.533   4.166   6.988  1.7208 -2.9705 -0.0889
  915MOL0     H23468   3.465   4.067   7.210  0.9478  0.0936  1.8159
  915MOL0     H23469   3.571   4.192   7.291  1.0967  0.7036 -0.4693
  915MOL0     H23470   3.417   4.359   7.195  4.2133 -1.7337 -4.8730
  915MOL0     H23471   3.309   4.217   7.147  0.0098 -1.4080  2.0149
  915MOL0     H23472   3.282   4.157   7.385  2.2455 -1.5238 -2.1309
  915MOL0     H23473   3.412   4.270   7.421  0.0055 -0.2856  0.9906
  915MOL0     H23474   3.272   4.452   7.375 -1.4737  0.3841  1.5650
  915MOL0     H23475   3.197   4.348   7.491  2.0520 -0.9728  0.7605
  915MOL0     H23476   2.970   4.218   7.378  0.9336 -0.3822  0.1748
  915MOL0     H23477   2.751   4.281   7.040 -1.2247 -0.5636  0.3165
  915MOL0     H23478   2.818   4.128   7.106  2.6662  0.1823  1.4418
  915MOL0     H23479   2.733   4.176   7.326 -1.3321  0.3303  0.8799
  915MOL0     H23480   2.597   4.201   7.224  0.1511 -1.3962 -0.6133
  915MOL0     H23481   2.674   4.452   7.201 -0.5821  1.6157  0.8333
  915MOL0     H23482   2.774   4.419   7.336 -0.4789  1.2109 -0.2862
  915MOL0     H23483   2.564   4.498   7.451  2.2211 -0.9690 -0.0124
  915MOL0     H23484   2.553   4.325   7.462 -2.2650  0.1268  0.0379
  915MOL0     H23485   2.373   4.404   7.590  1.9235  1.9718 -0.0520
  915MOL0     H23486   2.097   4.450   7.755  0.3943 -1.6553 -1.2556
  915MOL0     H23487   2.275   4.462   7.769  1.6396  1.6952 -1.2879
  915MOL0     H23488   2.181   4.610   7.771 -0.1254 -0.4020 -0.3760
  915MOL0     H23489   1.803   4.928   7.459 -0.9318 -0.3427 -2.5461
  915MOL0     H23490   1.573   5.010   7.570 -0.9102 -0.2213  3.2924
  915MOL0     H23491   1.314   4.666   7.697 -0.7441 -1.6332  0.4118
  915MOL0     H23492   1.372   4.781   7.827 -1.7546  2.2561 -0.2627
  915MOL0     H23493   1.165   4.836   7.875  1.8108 -2.4023 -0.0064
  915MOL0     H23494   1.202   4.951   7.758  0.6903 -0.9481 -0.7875
  915MOL0     H23495   1.060   4.680   7.729 -0.3173 -0.6209 -3.6415
  915MOL0     H23496   1.096   4.786   7.590 -1.7680  1.6811 -0.7270
  915MOL0     H23497   0.907   4.837   7.815  0.7506  0.2067 -0.6062
  915MOL0     H23498   0.953   4.958   7.698 -0.8784  0.1854  0.7347
  915MOL0     H23499   0.727   4.836   7.659 -1.4557 -2.5436  0.4226
  915MOL0     H23500   0.819   4.698   7.631  1.8228  0.9923  1.0614
  915MOL0     H23501   0.899   4.945   7.483  0.5534  0.3615  2.1095
  915MOL0     H23502   0.933   4.773   7.443 -0.4439  0.3067  1.2966
  915MOL0     H23503   0.674   4.916   7.396  0.4710  0.3228  0.2837
  915MOL0     H23504   0.672   4.738   7.397  0.3171 -0.4584 -4.2935
  915MOL0     H23505   0.819   4.710   7.215  0.4572  0.3320 -0.1626
  915MOL0     H23506   0.866   4.871   7.198 -1.9111  2.0924 -2.4500
  915MOL0     H23507   1.478   4.587   7.604 -1.2783  1.0917  0.5551
  915MOL0     H23508   1.690   4.530   7.539 -2.1482 -0.4838 -1.3365
  915MOL0     H23509   2.050   4.612   7.278  1.5784  1.7689  0.1752
  915MOL0     H23510   2.250   4.499   7.188  2.7594 -2.5010  0.2636
  915MOL0     H23511   3.991   4.251   6.567  2.9240  0.2928 -3.5963
  915MOL0     H23512   4.187   4.216   6.443 -1.8374  0.8613  0.9786
  915MOL0     H23513   4.677   4.309   6.540 -1.5526  0.0607 -0.6304
  915MOL0     H23514   4.929   4.314   6.492 -0.9400 -0.1668  2.0691
  915MOL0     H23515   5.142   3.991   6.656 -0.3255  0.8342 -0.1016
  915MOL0     H23516   5.141   3.920   6.492  1.0603  1.7235 -2.3494
  915MOL0     H23517   5.374   3.964   6.570  1.9051  1.1847  2.1535
  915MOL0     H23518   5.338   4.134   6.610  3.6149 -1.0920 -0.2752
  915MOL0     H23519   5.283   4.167   6.362  0.0940 -1.0797 -0.9927
  915MOL0     H23520   5.347   4.012   6.332  1.3203 -0.8178  0.1494
  915MOL0     H23521   5.530   4.222   6.479 -0.9964 -0.8934  0.7997
  915MOL0     H23522   5.501   4.237   6.313  0.8491 -0.0514  0.3870
  915MOL0     H23523   5.729   3.876   6.318 -0.2241 -0.5937 -1.2198
  915MOL0     H23524   4.941   3.895   6.520  1.4538  0.4894  0.5503
  915MOL0     H23525   4.686   3.882   6.579  0.5326 -0.3746  1.0801
  916MOL0     O23526   7.538   7.479   4.412  0.4185  0.5256  0.4337
  916MOL0     C23527   7.550   7.388   4.495 -0.3347  0.8683 -0.9702
  916MOL0     O23528   7.477   7.366   4.613 -0.0521  0.2279 -0.1342
  916MOL0     C23529   7.365   7.444   4.636 -0.2108  0.2435  0.4744
  916MOL0     C23530   7.269   7.484   4.535  0.2245 -0.1677 -0.0935
  916MOL0     C23531   7.142   7.543   4.566  0.2643  0.0202 -0.8680
  916MOL0     C23532   7.103   7.550   4.705  0.3225 -0.5266  0.1645
  916MOL0     O23533   6.985   7.598   4.758 -0.2315 -0.2799 -0.2040
  916MOL0     C23534   6.910   7.697   4.688  0.5580 -0.4732  0.0577
  916MOL0     C23535   6.793   7.748   4.785 -0.0198  0.5851  0.3408
  916MOL0     C23536   6.853   7.811   4.902  0.2790  1.0310 -0.1648
  916MOL0     C23537   6.753   7.887   4.984  0.3817  0.3938 -0.0925
  916MOL0     C23538   6.818   7.936   5.116 -0.1336 -2.4925 -0.4817
  916MOL0     C23539   6.723   8.021   5.203  0.1784 -0.1747 -0.4918
  916MOL0     C23540   6.789   8.057   5.334 -0.0717 -0.0003  0.1199
  916MOL0     C23541   6.708   8.094   5.458 -0.4227 -0.8331  0.2651
  916MOL0     N23542   6.597   8.187   5.427  0.6522  0.2721 -0.7157
  916MOL0     C23543   6.600   8.311   5.372 -0.0827  0.1063  0.5582
  916MOL0     C23544   6.468   8.348   5.372  0.7189  0.1951 -0.3513
  916MOL0     C23545   6.418   8.481   5.301  0.3107 -0.3103 -0.9930
  916MOL0     C23546   6.298   8.545   5.352 -0.5865 -0.3041  0.4668
  916MOL0     C23547   6.164   8.477   5.328  0.4563 -0.6081 -0.4648
  916MOL0     C23548   6.056   8.570   5.404  0.0788  0.2324 -0.4941
  916MOL0     O23549   6.069   8.711   5.371  0.3058 -0.2116 -0.8180
  916MOL0     C23550   5.960   8.800   5.387  0.0350  0.4012 -0.0899
  916MOL0     C23551   5.832   8.757   5.409  0.2512 -0.0462 -0.5937
  916MOL0     C23552   5.722   8.839   5.444 -0.1998  0.0464 -0.0031
  916MOL0     C23553   5.593   8.772   5.482 -0.2661  0.0188 -0.0979
  916MOL0     C23554   5.741   8.981   5.443 -0.3157  0.4829 -0.2934
  916MOL0     C23555   5.641   9.086   5.477 -0.0122  0.2128 -0.8767
  916MOL0     O23556   5.672   9.210   5.430 -0.1029 -0.8447 -0.6741
  916MOL0     C23557   5.589   9.313   5.476  0.5256  0.0847  0.2048
  916MOL0     C23558   5.466   9.337   5.414  0.1144 -0.3809  0.6605
  916MOL0     C23559   5.381   9.437   5.467 -0.9551  0.4088 -0.2892
  916MOL0     C23560   5.415   9.511   5.579 -0.8459 -0.1354 -0.2102
  916MOL0     O23561   5.325   9.599   5.632 -0.2612  0.7863  0.6291
  916MOL0     C23562   5.357   9.663   5.752  0.4669  0.7749  0.2326
  916MOL0     C23563   5.224   9.726   5.799  0.8197  0.0450 -0.2311
  916MOL0     C23564   5.249   9.814   5.930 -0.0154  1.1628 -0.8973
  916MOL0     C23565   5.267   9.710   6.051 -0.3622 -0.0567  0.4961
  916MOL0     C23566   5.295   9.779   6.182  0.3614 -0.2778 -0.8409
  916MOL0     C23567   5.427   9.853   6.193 -0.6742 -1.3458  1.3040
  916MOL0     C23568   5.459   9.910   6.330  0.3494  0.4208  0.8358
  916MOL0     C23569   5.356   9.998   6.404  0.2251 -0.1437  0.3227
  916MOL0    Cl23570   5.294  10.122   6.292  0.0448  0.3016 -0.5664
  916MOL0     C23571   5.546   9.493   5.625 -0.2847 -0.4631 -0.5178
  916MOL0     C23572   5.633   9.397   5.579  0.6729  0.1941 -0.4988
  916MOL0     O23573   5.553   9.062   5.555 -0.3135 -0.0542 -0.0791
  916MOL0     C23574   5.876   9.026   5.408  0.5010  0.3634 -0.2837
  916MOL0     C23575   5.978   8.937   5.384  0.0491  0.1511  0.5912
  916MOL0     N23576   6.389   8.248   5.423 -0.0768  0.0540  0.0650
  916MOL0     N23577   6.471   8.153   5.446  0.6406 -0.1528  0.8133
  916MOL0     C23578   7.197   7.503   4.799  0.4231 -0.1745 -0.6572
  916MOL0     C23579   7.327   7.465   4.767 -0.4312  0.0113  1.1916
  916MOL0     C23580   7.659   7.294   4.473  0.9119 -0.4588  0.1424
  916MOL0     C23581   7.710   7.281   4.345 -0.2979  0.2289 -0.0403
  916MOL0     C23582   7.830   7.202   4.332 -0.6837 -0.1751 -0.1180
  916MOL0     C23583   7.884   7.123   4.437 -0.7941 -0.1547 -0.0529
  916MOL0     O23584   7.998   7.054   4.413 -0.5618  0.3763 -0.8013
  916MOL0     C23585   8.058   6.982   4.524 -0.0190 -0.0908  0.0950
  916MOL0     C23586   8.187   6.923   4.460  0.2926  0.0985 -0.5362
  916MOL0     C23587   8.253   7.021   4.357 -0.0075  0.1755  0.2063
  916MOL0     C23588   8.392   6.984   4.325  0.8726  0.7080  0.3768
  916MOL0     C23589   8.390   6.851   4.265  0.9186  0.3348 -0.2628
  916MOL0     C23590   8.414   6.748   4.200 -0.1049 -1.1731  0.5761
  916MOL0     C23591   7.835   7.144   4.560  0.5626 -0.7907  0.0574
  916MOL0     C23592   7.721   7.223   4.579 -0.6989 -0.9661 -0.7754
  916MOL0     H23593   7.282   7.460   4.431 -0.5476 -2.0741  0.2070
  916MOL0     H23594   7.066   7.566   4.492  0.8582  2.2708 -0.8273
  916MOL0     H23595   6.968   7.785   4.659 -0.0703 -0.2666 -0.5911
  916MOL0     H23596   6.865   7.653   4.599  1.6373 -0.5166 -0.4720
  916MOL0     H23597   6.726   7.811   4.726 -1.0835 -0.7457  0.0620
  916MOL0     H23598   6.726   7.674   4.831 -0.6864  0.0661 -1.3787
  916MOL0     H23599   6.891   7.731   4.967  1.7941  1.8738  0.0153
  916MOL0     H23600   6.940   7.867   4.867  1.4048 -0.9357 -0.6641
  916MOL0     H23601   6.721   7.978   4.932  0.0053  0.1490 -0.2901
  916MOL0     H23602   6.669   7.824   5.016  2.6989 -1.6583  2.4859
  916MOL0     H23603   6.864   7.854   5.171  2.3687 -0.7982  0.1352
  916MOL0     H23604   6.905   7.993   5.082 -1.1970 -0.7221 -0.3988
  916MOL0     H23605   6.682   8.108   5.151  0.1235  1.1772  1.7282
  916MOL0     H23606   6.633   7.965   5.227 -0.6188  1.4355  0.4144
  916MOL0     H23607   6.841   7.965   5.363 -1.2732 -0.6579  0.2654
  916MOL0     H23608   6.864   8.134   5.312  2.8320 -2.6743 -0.1063
  916MOL0     H23609   6.776   8.130   5.535  0.8417 -1.6774 -0.4158
  916MOL0     H23610   6.656   8.009   5.503 -2.2072  1.2721  2.4454
  916MOL0     H23611   6.684   8.373   5.342  1.4023 -2.3570 -0.6665
  916MOL0     H23612   6.502   8.545   5.329  0.6571 -0.6079 -1.3341
  916MOL0     H23613   6.425   8.469   5.192  0.8331  0.2217 -1.0189
  916MOL0     H23614   6.301   8.648   5.315 -1.8842  0.4217  2.2352
  916MOL0     H23615   6.318   8.551   5.460  0.0530 -0.5336  0.3651
  916MOL0     H23616   6.154   8.372   5.357 -0.9783 -0.2820  0.3014
  916MOL0     H23617   6.130   8.474   5.224 -3.3717  1.3391  0.5359
  916MOL0     H23618   6.071   8.551   5.511  0.9006 -1.9624 -0.9340
  916MOL0     H23619   5.964   8.527   5.362  1.0904 -2.6738 -0.0233
  916MOL0     H23620   5.806   8.652   5.424  0.5836  0.1855  2.1681
  916MOL0     H23621   5.515   8.828   5.431  2.8197  1.1942 -3.9540
  916MOL0     H23622   5.574   8.669   5.451  0.1114 -0.3745  0.9119
  916MOL0     H23623   5.585   8.774   5.592  0.4202 -0.1066 -0.0410
  916MOL0     H23624   5.439   9.274   5.330 -1.1797  0.5062  0.3713
  916MOL0     H23625   5.282   9.454   5.425 -0.7521  0.8146 -0.6099
  916MOL0     H23626   5.385   9.589   5.827 -1.1051 -1.9799 -1.7144
  916MOL0     H23627   5.433   9.740   5.734  1.4234 -0.9863 -5.0787
  916MOL0     H23628   5.187   9.799   5.726 -0.0346 -1.3476 -1.2376
  916MOL0     H23629   5.151   9.648   5.823 -0.7430  1.7758  0.9494
  916MOL0     H23630   5.166   9.882   5.950 -0.4983  0.3081  0.0883
  916MOL0     H23631   5.341   9.873   5.924  0.9396  0.1659  2.2321
  916MOL0     H23632   5.181   9.645   6.063  0.4555 -0.9589  1.6884
  916MOL0     H23633   5.357   9.651   6.031  0.1511  1.5189 -2.3882
  916MOL0     H23634   5.311   9.704   6.260  2.3823  1.0655  0.1259
  916MOL0     H23635   5.210   9.846   6.199 -0.4208 -0.7968 -2.4861
  916MOL0     H23636   5.509   9.784   6.171 -0.3092 -0.5141 -0.0822
  916MOL0     H23637   5.431   9.933   6.118  0.8392 -1.3201  1.3942
  916MOL0     H23638   5.545   9.977   6.314 -0.3068  0.7674 -1.5588
  916MOL0     H23639   5.493   9.829   6.396  0.3187 -0.1429  0.1667
  916MOL0     H23640   5.393  10.061   6.485  1.5630  0.5357 -0.7712
  916MOL0     H23641   5.269   9.945   6.444  0.3802  0.3260  1.3073
  916MOL0     H23642   5.570   9.547   5.716 -3.0360  1.3441 -0.7449
  916MOL0     H23643   5.734   9.378   5.614  1.2597  1.8705 -1.1504
  916MOL0     H23644   5.898   9.131   5.390  1.7723 -0.1610 -1.9995
  916MOL0     H23645   6.072   8.982   5.353 -1.0313  3.1992  1.4321
  916MOL0     H23646   7.171   7.500   4.904 -2.3570  0.8265 -1.2288
  916MOL0     H23647   7.402   7.456   4.844 -1.2701  0.4900  2.0838
  916MOL0     H23648   7.653   7.324   4.263 -2.4280 -1.4515  0.4639
  916MOL0     H23649   7.884   7.185   4.240 -2.2901 -2.8378 -0.6610
  916MOL0     H23650   8.080   7.058   4.600 -1.0993  1.9887 -1.5688
  916MOL0     H23651   8.009   6.895   4.569  0.5358 -0.9239 -0.8739
  916MOL0     H23652   8.175   6.825   4.413  2.8191 -0.8126  0.5392
  916MOL0     H23653   8.257   6.917   4.544 -2.3694  2.9771  2.1786
  916MOL0     H23654   8.256   7.127   4.383  2.2775  0.1502  0.2827
  916MOL0     H23655   8.197   7.008   4.264  3.6469  2.6445 -2.6305
  916MOL0     H23656   8.455   6.986   4.414 -0.3893  2.3532  1.2937
  916MOL0     H23657   8.451   7.048   4.259  0.2784 -1.5286 -2.5190
  916MOL0     H23658   8.447   6.666   4.141 -1.0266  0.1847 -1.9745
  916MOL0     H23659   7.881   7.091   4.643  1.8722 -3.2087 -2.0744
  916MOL0     H23660   7.669   7.221   4.675  0.7329 -1.4208  0.0226
  917MOL0     O23661   9.727   7.571   0.514 -0.0044  0.3766  0.1969
  917MOL0     C23662   9.787   7.538   0.612  0.5416 -0.5567 -0.1896
  917MOL0     O23663   9.726   7.502   0.730  0.2339 -0.0824  0.0563
  917MOL0     C23664   9.591   7.480   0.728  0.0479 -0.9016 -0.7013
  917MOL0     C23665   9.540   7.360   0.684 -0.0671 -0.1738  0.2395
  917MOL0     C23666   9.398   7.335   0.678  0.3422  0.6788 -0.1569
  917MOL0     C23667   9.315   7.448   0.715  0.6817  1.5255 -0.1183
  917MOL0     O23668   9.182   7.444   0.700  0.9921  0.0804 -0.5110
  917MOL0     C23669   9.105   7.335   0.736  0.7916  0.4237 -0.3220
  917MOL0     C23670   8.958   7.381   0.724  0.1758  1.5760  0.0418
  917MOL0     C23671   8.926   7.477   0.843  0.4281 -0.3683  0.9466
  917MOL0     C23672   8.774   7.503   0.847  1.1709  0.2127  0.1794
  917MOL0     C23673   8.725   7.626   0.761 -0.6478 -0.1166 -0.2987
  917MOL0     C23674   8.594   7.670   0.820 -0.0897 -0.0633  0.0627
  917MOL0     C23675   8.544   7.813   0.781  0.1969 -0.3570  0.7881
  917MOL0     C23676   8.459   7.820   0.654 -0.2868 -0.6651  0.7109
  917MOL0     N23677   8.400   7.956   0.645 -0.8529 -0.3420  0.4618
  917MOL0     C23678   8.471   8.064   0.576  0.1921 -0.4047  0.5706
  917MOL0     C23679   8.390   8.170   0.595  1.1959 -0.0891  0.2095
  917MOL0     C23680   8.427   8.297   0.525  0.8858  0.2901 -0.2675
  917MOL0     C23681   8.366   8.418   0.588 -0.3132 -0.2044 -0.3194
  917MOL0     C23682   8.246   8.476   0.519 -0.0473 -0.4024  0.1804
  917MOL0     C23683   8.129   8.370   0.525 -0.4387 -0.4012 -0.0002
  917MOL0     O23684   8.042   8.423   0.425 -0.3570  0.0039 -0.0733
  917MOL0     C23685   7.906   8.418   0.439 -0.0662 -0.3241 -0.1822
  917MOL0     C23686   7.849   8.316   0.517  0.4169  0.5206 -0.6387
  917MOL0     C23687   7.708   8.303   0.524  0.5432 -0.1422  0.2692
  917MOL0     C23688   7.650   8.180   0.587  0.1382  0.4237  0.5536
  917MOL0     C23689   7.623   8.403   0.461 -0.1533  0.6271  0.4341
  917MOL0     C23690   7.484   8.406   0.466  0.9241 -0.3622 -0.6691
  917MOL0     O23691   7.420   8.299   0.520 -0.2124 -0.5673 -1.0040
  917MOL0     C23692   7.300   8.332   0.577  0.1145 -1.2663  0.0848
  917MOL0     C23693   7.178   8.307   0.512 -0.7651  0.5943  0.6888
  917MOL0     C23694   7.062   8.312   0.583 -0.1889 -0.5981 -0.4056
  917MOL0     C23695   7.062   8.367   0.711 -0.2119 -0.2550 -0.2256
  917MOL0     O23696   6.945   8.382   0.772  0.7991  0.2600  0.4958
  917MOL0     C23697   6.918   8.482   0.872  0.4903  0.5595 -0.3353
  917MOL0     C23698   6.923   8.619   0.813  0.5605 -0.0011  0.3117
  917MOL0     C23699   6.800   8.641   0.713 -0.3365 -0.1673 -0.9674
  917MOL0     C23700   6.846   8.644   0.569 -0.1943  0.3227  1.0471
  917MOL0     C23701   6.732   8.696   0.473 -0.7630  0.4079 -0.1366
  917MOL0     C23702   6.684   8.829   0.525 -0.4039  0.3841  1.2841
  917MOL0     C23703   6.617   8.902   0.405  0.2347  0.2728  0.0257
  917MOL0     C23704   6.484   8.838   0.358  0.1797  0.4913 -0.5211
  917MOL0    Cl23705   6.429   8.929   0.209 -0.5980 -0.0640 -0.2038
  917MOL0     C23706   7.181   8.419   0.772  1.0680  0.0363  0.7332
  917MOL0     C23707   7.305   8.402   0.705 -0.4404  0.9999  0.1223
  917MOL0     O23708   7.430   8.512   0.441 -0.0386  0.0240  0.0398
  917MOL0     C23709   7.687   8.504   0.385 -0.0548 -0.0392  0.2419
  917MOL0     C23710   7.831   8.513   0.371  0.4198  0.4935 -0.3078
  917MOL0     N23711   8.285   8.130   0.668 -0.0792 -0.4217  0.0167
  917MOL0     N23712   8.283   8.000   0.694 -0.4317  0.4231 -0.1698
  917MOL0     C23713   9.368   7.570   0.762  0.1381  0.2927 -0.7727
  917MOL0     C23714   9.510   7.582   0.778 -0.1238  0.6232 -0.6311
  917MOL0     C23715   9.937   7.539   0.595  0.2258  0.6283 -0.8995
  917MOL0     C23716  10.010   7.580   0.490 -0.0558 -0.2056  0.1678
  917MOL0     C23717  10.149   7.570   0.477 -0.3208  0.0372  0.0315
  917MOL0     C23718  10.215   7.508   0.582  0.0387 -0.7891 -0.1089
  917MOL0     O23719  10.350   7.498   0.600 -0.3154  0.1139  0.5663
  917MOL0     C23720  10.436   7.538   0.486 -0.2004 -0.2228 -0.3147
  917MOL0     C23721  10.575   7.487   0.523 -0.8341  0.0590 -0.1803
  917MOL0     C23722  10.628   7.574   0.635 -0.5380 -0.8102 -0.8349
  917MOL0     C23723  10.764   7.532   0.692  0.1235  0.1268  0.2111
  917MOL0     C23724  10.856   7.480   0.585 -0.1622 -0.4477  0.2131
  917MOL0     C23725  10.933   7.473   0.492  0.3384  0.6887  0.6567
  917MOL0     C23726  10.145   7.468   0.691  0.3217 -0.5904 -0.1997
  917MOL0     C23727  10.006   7.475   0.694  1.0149 -0.4259 -0.2067
  917MOL0     H23728   9.609   7.284   0.650 -2.2517 -0.2070 -5.1759
  917MOL0     H23729   9.361   7.243   0.635  0.8758 -0.9732  2.6775
  917MOL0     H23730   9.126   7.247   0.674  0.4726 -2.1366  2.8988
  917MOL0     H23731   9.142   7.297   0.832 -0.6158  0.2032  0.1606
  917MOL0     H23732   8.933   7.428   0.628  1.2139  3.3346  0.5780
  917MOL0     H23733   8.886   7.300   0.734 -0.1421  1.4208 -2.7804
  917MOL0     H23734   8.962   7.448   0.942 -2.8985  0.4367  2.5492
  917MOL0     H23735   8.970   7.576   0.829 -0.0055 -0.6585 -4.8714
  917MOL0     H23736   8.724   7.410   0.817 -0.6909  1.7077 -1.6055
  917MOL0     H23737   8.747   7.511   0.953  1.3760 -0.9480  0.3299
  917MOL0     H23738   8.795   7.709   0.765 -0.6153 -0.0396 -1.9557
  917MOL0     H23739   8.707   7.592   0.659 -0.3332  3.8786 -1.8760
  917MOL0     H23740   8.515   7.598   0.797 -0.0669 -0.1471  0.2434
  917MOL0     H23741   8.592   7.669   0.930 -3.4147  2.9456  0.2246
  917MOL0     H23742   8.479   7.848   0.862 -4.7398  2.8890 -3.8409
  917MOL0     H23743   8.625   7.886   0.772  0.9607 -1.3986 -1.3125
  917MOL0     H23744   8.380   7.746   0.639  0.1309 -0.5973 -2.5505
  917MOL0     H23745   8.512   7.804   0.560 -1.3028  3.5821 -0.7916
  917MOL0     H23746   8.564   8.065   0.519 -1.7393  1.3496 -2.9307
  917MOL0     H23747   8.536   8.290   0.527  0.9563  1.1779  2.0755
  917MOL0     H23748   8.403   8.293   0.418 -1.0331  2.7853 -0.0238
  917MOL0     H23749   8.445   8.494   0.580 -0.6814  0.5053  2.0020
  917MOL0     H23750   8.347   8.394   0.693 -0.1908  0.3379 -0.1651
  917MOL0     H23751   8.262   8.504   0.415 -2.3742  1.6245  0.2888
  917MOL0     H23752   8.215   8.569   0.567 -2.7571 -2.5214  2.9699
  917MOL0     H23753   8.100   8.372   0.631  0.1457  1.6430  0.1698
  917MOL0     H23754   8.145   8.269   0.488 -3.0731 -0.9925  0.2567
  917MOL0     H23755   7.914   8.239   0.558 -0.8859 -0.6282 -0.6792
  917MOL0     H23756   7.728   8.106   0.606 -0.8139 -0.3088  1.8488
  917MOL0     H23757   7.599   8.210   0.679 -4.3546 -0.3578 -1.3895
  917MOL0     H23758   7.577   8.138   0.517 -0.3898  1.9320  0.1576
  917MOL0     H23759   7.186   8.283   0.406  1.5415 -2.8751  1.4648
  917MOL0     H23760   6.975   8.263   0.538  0.5381 -1.8815 -0.4662
  917MOL0     H23761   6.814   8.469   0.905  0.8619  1.6502  1.3866
  917MOL0     H23762   6.982   8.473   0.960 -2.5626 -0.9900  1.9112
  917MOL0     H23763   6.910   8.690   0.895  0.5894 -0.3871  0.6546
  917MOL0     H23764   7.012   8.650   0.758  1.0026 -2.4510 -0.4593
  917MOL0     H23765   6.742   8.727   0.744 -0.7978 -0.9880  0.5268
  917MOL0     H23766   6.736   8.553   0.730 -0.5639  0.1654 -0.0700
  917MOL0     H23767   6.927   8.716   0.557 -2.3796  2.5031 -2.7162
  917MOL0     H23768   6.881   8.546   0.535 -2.2796 -0.4774  1.0905
  917MOL0     H23769   6.645   8.629   0.475 -0.6071  0.2046 -0.1311
  917MOL0     H23770   6.765   8.707   0.370  0.1973  3.4532  0.3878
  917MOL0     H23771   6.607   8.818   0.603 -1.7845 -2.0713 -0.2943
  917MOL0     H23772   6.762   8.897   0.560 -0.1508  0.3120  0.8619
  917MOL0     H23773   6.687   8.924   0.324  0.2931 -0.7621 -0.2172
  917MOL0     H23774   6.576   8.995   0.447 -3.7335 -0.0045 -2.6720
  917MOL0     H23775   6.411   8.823   0.439  0.5633  0.0973 -0.2430
  917MOL0     H23776   6.516   8.738   0.327  1.0516  0.0896  1.5191
  917MOL0     H23777   7.184   8.456   0.874  0.1638  2.3882 -0.0184
  917MOL0     H23778   7.390   8.424   0.770 -0.2509  0.8960 -0.0908
  917MOL0     H23779   7.635   8.568   0.315  0.8323 -1.7545 -2.0836
  917MOL0     H23780   7.884   8.585   0.310 -0.7306  0.5997 -1.2174
  917MOL0     H23781   9.305   7.652   0.796 -2.2256 -1.0106 -1.7040
  917MOL0     H23782   9.562   7.666   0.822  1.8614 -0.7365 -0.2629
  917MOL0     H23783   9.963   7.625   0.403  1.9465 -0.1922 -0.9598
  917MOL0     H23784  10.208   7.614   0.397 -0.6687  0.2661 -0.1050
  917MOL0     H23785  10.404   7.496   0.390 -0.5066 -1.5421  0.3340
  917MOL0     H23786  10.436   7.647   0.483  2.5797 -0.0416  1.8431
  917MOL0     H23787  10.643   7.476   0.438  1.0030  1.4163  1.0560
  917MOL0     H23788  10.564   7.382   0.554 -1.3866 -0.3006 -1.5117
  917MOL0     H23789  10.560   7.579   0.721 -0.6673 -1.6969 -0.8816
  917MOL0     H23790  10.630   7.676   0.596 -0.4794 -0.4190  0.1610
  917MOL0     H23791  10.747   7.459   0.771  0.5660  2.4742  2.6300
  917MOL0     H23792  10.818   7.619   0.731  1.2085 -2.0616  4.1909
  917MOL0     H23793  10.999   7.472   0.408 -0.2877 -0.7024  0.1553
  917MOL0     H23794  10.189   7.426   0.781  0.5964  1.5237  0.7211
  917MOL0     H23795   9.956   7.441   0.784 -0.2907 -0.3703 -0.8986
  918MOL0     O23796  10.004   8.308   7.109  0.3893 -0.2521 -0.8702
  918MOL0     C23797   9.993   8.205   7.040  0.0802 -0.9049 -0.5024
  918MOL0     O23798   9.874   8.143   6.996  1.1097  0.1899  0.3449
  918MOL0     C23799   9.748   8.198   7.013  1.1169 -0.6079 -0.9517
  918MOL0     C23800   9.706   8.266   7.130  0.1913 -0.5230  0.2014
  918MOL0     C23801   9.568   8.291   7.152  0.4208  0.4076  1.0033
  918MOL0     C23802   9.471   8.241   7.065 -0.7909 -0.5218  0.3134
  918MOL0     O23803   9.336   8.270   7.101 -0.1675 -0.2429  0.6523
  918MOL0     C23804   9.228   8.187   7.052  0.4776 -0.0115  0.3985
  918MOL0     C23805   9.102   8.224   7.120  0.0417 -0.5662 -0.4907
  918MOL0     C23806   9.095   8.197   7.268 -0.4595  0.0687  0.2719
  918MOL0     C23807   8.958   8.211   7.329  0.6824 -0.3885  0.4622
  918MOL0     C23808   8.950   8.206   7.480 -0.2604  0.2232 -0.0879
  918MOL0     C23809   8.823   8.261   7.540 -0.2962 -0.1161 -0.0159
  918MOL0     C23810   8.688   8.186   7.492 -0.9765 -0.0155 -0.1789
  918MOL0     C23811   8.582   8.254   7.580  0.9609 -0.0038 -0.2769
  918MOL0     N23812   8.551   8.396   7.546 -0.5733 -0.4056  0.3702
  918MOL0     C23813   8.477   8.444   7.437  0.4974  0.2795 -0.4129
  918MOL0     C23814   8.458   8.577   7.447  0.0598 -0.0632 -0.5515
  918MOL0     C23815   8.371   8.671   7.375  0.2190  0.3790  0.0892
  918MOL0     C23816   8.244   8.708   7.465 -0.8486 -0.8583 -0.3706
  918MOL0     C23817   8.164   8.834   7.400  0.8175 -0.0384 -0.0107
  918MOL0     C23818   8.038   8.892   7.477 -1.0257  0.5092 -0.6521
  918MOL0     O23819   8.084   8.952   7.603 -0.4501  0.5017 -0.1146
  918MOL0     C23820   8.000   9.033   7.673  0.4712 -0.3255 -0.3859
  918MOL0     C23821   7.882   9.097   7.632 -0.0653 -0.8351  0.2249
  918MOL0     C23822   7.801   9.172   7.726 -0.1773  0.7755  0.0971
  918MOL0     C23823   7.657   9.206   7.687  0.5790  0.7848  0.0905
  918MOL0     C23824   7.865   9.208   7.851  1.1541 -0.9031  0.0932
  918MOL0     C23825   7.801   9.294   7.957  0.1216  0.3954  0.6702
  918MOL0     O23826   7.868   9.297   8.084  0.5765 -0.0369 -0.1671
  918MOL0     C23827   7.822   9.377   8.188 -0.0548 -0.3812  0.0437
  918MOL0     C23828   7.686   9.401   8.203 -0.9148  0.4383 -0.3196
  918MOL0     C23829   7.639   9.471   8.308 -0.5268 -0.0604 -0.7124
  918MOL0     C23830   7.730   9.508   8.415  0.0523 -0.3021  0.0592
  918MOL0     O23831   7.683   9.547   8.539  0.0766 -0.4880 -0.0356
  918MOL0     C23832   7.636   9.438   8.623 -0.6714 -0.2251 -0.8452
  918MOL0     C23833   7.482   9.424   8.608 -0.7299 -0.0533  0.5023
  918MOL0     C23834   7.419   9.355   8.727  0.5928 -0.6512  0.2721
  918MOL0     C23835   7.401   9.440   8.851  0.1115  0.1435 -0.0843
  918MOL0     C23836   7.333   9.368   8.960 -0.0259 -0.1190 -0.5610
  918MOL0     C23837   7.287   9.447   9.073 -0.3450 -0.5894 -0.0873
  918MOL0     C23838   7.252   9.355   9.192  0.8925 -0.2793  0.0499
  918MOL0     C23839   7.194   9.434   9.309  0.3986 -0.6013 -0.5007
  918MOL0    Cl23840   7.025   9.500   9.279 -0.2271 -0.1895 -0.2534
  918MOL0     C23841   7.866   9.493   8.397  0.5864  0.0318  0.0075
  918MOL0     C23842   7.910   9.428   8.281  0.8916  0.1915 -0.0317
  918MOL0     O23843   7.711   9.366   7.920 -0.2140 -0.1374  0.5155
  918MOL0     C23844   7.991   9.164   7.879 -0.0183  0.1583  0.6021
  918MOL0     C23845   8.059   9.078   7.798 -0.0474 -0.3464  0.4716
  918MOL0     N23846   8.523   8.604   7.569  1.1317 -0.7597  0.7432
  918MOL0     N23847   8.584   8.505   7.619  0.0070  0.0947  0.6080
  918MOL0     C23848   9.511   8.157   6.957 -0.9852  0.5185 -0.0489
  918MOL0     C23849   9.648   8.139   6.936  0.0760  0.0387  0.8620
  918MOL0     C23850  10.114   8.140   6.988 -0.1277  0.0567 -0.7432
  918MOL0     C23851  10.112   8.017   6.928  0.7854  0.4217  0.4425
  918MOL0     C23852  10.213   7.961   6.857  0.0077 -0.0130 -0.2207
  918MOL0     C23853  10.333   8.025   6.839  0.3967 -0.6265 -0.4798
  918MOL0     O23854  10.432   7.987   6.760  0.2815  0.1010 -0.1309
  918MOL0     C23855  10.433   7.854   6.688 -0.1248 -0.3621 -0.3250
  918MOL0     C23856  10.485   7.761   6.787  0.2293  0.4384 -0.2793
  918MOL0     C23857  10.550   7.646   6.714  0.2050  0.0853  0.3716
  918MOL0     C23858  10.475   7.576   6.596 -1.2568  0.7979  0.1912
  918MOL0     C23859  10.358   7.499   6.649 -0.2609 -0.0849  0.6501
  918MOL0     C23860  10.244   7.465   6.667 -1.0127 -0.3243 -0.4189
  918MOL0     C23861  10.346   8.145   6.913 -0.1887 -0.2556  0.0778
  918MOL0     C23862  10.242   8.198   6.988  0.2213  0.1604  0.6228
  918MOL0     H23863   9.773   8.287   7.212  2.4653 -2.6305 -0.9768
  918MOL0     H23864   9.532   8.334   7.245  0.1487 -1.9104  2.0324
  918MOL0     H23865   9.216   8.202   6.945  0.7311 -3.5590 -0.2651
  918MOL0     H23866   9.258   8.082   7.056  0.6649  0.0595  0.9759
  918MOL0     H23867   9.093   8.332   7.107  0.7235 -0.6128 -1.5467
  918MOL0     H23868   9.017   8.171   7.076 -1.4886  1.6985 -0.4116
  918MOL0     H23869   9.124   8.096   7.299 -2.6567 -0.2875  1.3712
  918MOL0     H23870   9.160   8.274   7.311 -2.0564  1.1987  0.7520
  918MOL0     H23871   8.927   8.311   7.298 -2.0253 -1.6777 -1.3295
  918MOL0     H23872   8.885   8.145   7.283  2.3443 -1.3047 -0.9619
  918MOL0     H23873   8.959   8.099   7.503  2.0123 -0.0433 -1.9168
  918MOL0     H23874   9.038   8.260   7.517  1.3273 -1.3881 -1.3348
  918MOL0     H23875   8.832   8.258   7.649  0.9833 -1.9245 -0.1129
  918MOL0     H23876   8.819   8.365   7.508 -0.1157 -0.4737 -1.2871
  918MOL0     H23877   8.664   8.205   7.387 -0.6135  2.3564  0.0970
  918MOL0     H23878   8.680   8.081   7.521  0.2706  0.1780  0.9808
  918MOL0     H23879   8.613   8.257   7.685  1.6705 -0.9708 -0.4449
  918MOL0     H23880   8.490   8.196   7.569  2.8804 -3.0519 -1.4383
  918MOL0     H23881   8.429   8.376   7.368  1.4468  0.4852 -1.2962
  918MOL0     H23882   8.424   8.761   7.343  1.8613 -0.8704 -0.8001
  918MOL0     H23883   8.335   8.614   7.290  0.9786  0.2315 -0.1355
  918MOL0     H23884   8.276   8.739   7.564  0.9153 -3.1966 -0.1136
  918MOL0     H23885   8.185   8.616   7.467  0.2933 -1.6286 -0.7105
  918MOL0     H23886   8.135   8.823   7.295 -0.9548  1.6848  0.2478
  918MOL0     H23887   8.239   8.914   7.403  0.2393  0.6870 -2.3626
  918MOL0     H23888   7.958   8.818   7.489 -0.1591 -0.8304 -2.5631
  918MOL0     H23889   8.000   8.970   7.409  0.6680 -0.5248 -2.9294
  918MOL0     H23890   7.849   9.079   7.530 -0.4104  2.1744 -0.2803
  918MOL0     H23891   7.617   9.140   7.609 -0.0858  2.2679 -0.8855
  918MOL0     H23892   7.580   9.192   7.764  0.8053 -1.2873 -0.0030
  918MOL0     H23893   7.656   9.312   7.659  0.4787  1.4995  2.5678
  918MOL0     H23894   7.610   9.353   8.142 -1.4734  0.3979  0.4093
  918MOL0     H23895   7.533   9.489   8.317  0.0336  2.8487  1.4029
  918MOL0     H23896   7.685   9.340   8.622 -0.1375 -0.0777 -4.5355
  918MOL0     H23897   7.651   9.465   8.727  0.0612 -0.6835 -0.8319
  918MOL0     H23898   7.431   9.520   8.597 -1.1838 -0.2552  0.8098
  918MOL0     H23899   7.462   9.375   8.512  0.8371 -0.2286  0.2445
  918MOL0     H23900   7.478   9.267   8.754  0.4625 -1.0516 -0.7203
  918MOL0     H23901   7.324   9.315   8.691  0.5542  0.1868 -0.6021
  918MOL0     H23902   7.496   9.487   8.877 -1.5305  3.4331  0.5033
  918MOL0     H23903   7.340   9.530   8.837  4.0499  2.9058 -1.1456
  918MOL0     H23904   7.395   9.288   9.001 -2.1519 -0.3807  2.4221
  918MOL0     H23905   7.250   9.314   8.914  0.3609  0.5394 -2.1103
  918MOL0     H23906   7.354   9.529   9.103 -1.6021  1.1583 -1.7805
  918MOL0     H23907   7.199   9.498   9.033 -1.3476 -2.0715  0.1566
  918MOL0     H23908   7.338   9.297   9.227  1.4983  1.0532  0.8262
  918MOL0     H23909   7.186   9.278   9.150 -0.1007  1.4791 -1.7299
  918MOL0     H23910   7.267   9.505   9.349 -0.1442 -0.4334  0.1996
  918MOL0     H23911   7.183   9.362   9.390 -0.8466 -0.6403 -0.6882
  918MOL0     H23912   7.932   9.528   8.476  0.6729 -0.1631  0.0243
  918MOL0     H23913   8.017   9.417   8.266  0.9808  0.1995  0.5786
  918MOL0     H23914   8.045   9.184   7.972 -0.9386 -0.8364  1.3689
  918MOL0     H23915   8.154   9.040   7.834  0.1770  0.6288  0.9515
  918MOL0     H23916   9.430   8.113   6.899  0.3949  2.1426 -3.4023
  918MOL0     H23917   9.672   8.063   6.861 -0.8715 -0.1208  0.7048
  918MOL0     H23918  10.022   7.958   6.931  1.8125 -1.2611 -0.6114
  918MOL0     H23919  10.211   7.867   6.802  0.8332  0.1222 -0.4967
  918MOL0     H23920  10.337   7.820   6.650  0.1366 -2.1027  0.4926
  918MOL0     H23921  10.503   7.862   6.604 -0.8479 -1.2000 -1.0302
  918MOL0     H23922  10.404   7.738   6.857  0.6421  0.5934  0.2582
  918MOL0     H23923  10.566   7.813   6.841  1.6315 -3.9264  2.3683
  918MOL0     H23924  10.582   7.571   6.786  1.0567 -0.2972 -0.3853
  918MOL0     H23925  10.643   7.681   6.670 -0.0747 -0.6708 -0.8866
  918MOL0     H23926  10.549   7.515   6.542  0.2630  2.7036  0.0046
  918MOL0     H23927  10.455   7.661   6.530  0.5835  1.3933  0.3393
  918MOL0     H23928  10.144   7.427   6.669 -1.5746  1.0004 -1.3140
  918MOL0     H23929  10.446   8.187   6.903 -0.7107  1.1390  0.5315
  918MOL0     H23930  10.269   8.287   7.044  3.4229 -1.0945  1.2547
  919MOL0     O23931   5.376   6.713   0.371 -0.6993 -0.1262 -0.0286
  919MOL0     C23932   5.411   6.787   0.287  0.1358 -0.0089 -1.3241
  919MOL0     O23933   5.341   6.894   0.249 -0.0331  0.3806  0.7446
  919MOL0     C23934   5.212   6.897   0.288  0.7830  0.1149  0.7158
  919MOL0     C23935   5.179   6.947   0.416 -0.1697  0.2440  0.0168
  919MOL0     C23936   5.049   6.934   0.469 -0.8709  0.4899 -0.9946
  919MOL0     C23937   4.943   6.872   0.392  0.2964 -0.0654 -0.3422
  919MOL0     O23938   4.813   6.845   0.423  0.1519  0.1657 -0.1996
  919MOL0     C23939   4.767   6.892   0.552  0.7043 -0.1773 -0.6061
  919MOL0     C23940   4.625   6.858   0.588 -0.0501  0.1353  0.1039
  919MOL0     C23941   4.569   6.742   0.503 -0.3041  0.5734  0.2004
  919MOL0     C23942   4.442   6.673   0.555 -0.2531  0.1216 -0.1072
  919MOL0     C23943   4.391   6.563   0.457 -0.4998  0.1011 -0.6377
  919MOL0     C23944   4.255   6.504   0.501 -0.4993 -0.8864 -1.1179
  919MOL0     C23945   4.142   6.609   0.502 -0.5959  0.3093  0.6147
  919MOL0     C23946   4.014   6.535   0.533 -0.3310  0.1441  0.5371
  919MOL0     N23947   3.953   6.466   0.417 -0.2556  0.1056 -0.4176
  919MOL0     C23948   3.908   6.518   0.301  0.4790 -1.1180  0.2378
  919MOL0     C23949   3.874   6.413   0.225  0.2986  0.1249  0.3796
  919MOL0     C23950   3.819   6.436   0.082  0.8843  1.0406 -0.4618
  919MOL0     C23951   3.685   6.511   0.062  0.2538  0.0819 -0.4890
  919MOL0     C23952   3.573   6.484   0.170 -0.6944  0.3467 -0.4006
  919MOL0     C23953   3.524   6.332   0.190  0.4056  0.2812 -0.4425
  919MOL0     O23954   3.489   6.278   0.061 -0.3326  0.9069 -1.6290
  919MOL0     C23955   3.364   6.292   0.014  0.2857  0.0971  0.6198
  919MOL0     C23956   3.268   6.391   0.049  0.0066 -0.3135  0.1357
  919MOL0     C23957   3.136   6.391  -0.011 -0.3657  0.0836  0.6693
  919MOL0     C23958   3.057   6.511   0.029 -1.1076  0.3456  0.4024
  919MOL0     C23959   3.100   6.292  -0.107 -0.1957  0.1634  0.5380
  919MOL0     C23960   2.961   6.278  -0.150 -0.0893  0.7273  0.4645
  919MOL0     O23961   2.863   6.359  -0.093 -0.2923 -0.3328  0.3779
  919MOL0     C23962   2.732   6.333  -0.131  0.9587  1.0004 -0.1718
  919MOL0     C23963   2.686   6.375  -0.260 -0.5142 -0.8952 -0.0345
  919MOL0     C23964   2.563   6.334  -0.309 -0.1768  0.1738 -0.0002
  919MOL0     C23965   2.488   6.244  -0.227  0.3461 -0.2321  0.1901
  919MOL0     O23966   2.365   6.205  -0.284 -1.0598  0.8820  0.1389
  919MOL0     C23967   2.249   6.264  -0.228 -0.4350  0.2940 -0.4719
  919MOL0     C23968   2.205   6.393  -0.279 -0.3833 -0.2261 -0.1834
  919MOL0     C23969   2.071   6.422  -0.228  0.9785  1.0203 -0.4325
  919MOL0     C23970   2.017   6.547  -0.296 -0.1589 -0.6727  0.1841
  919MOL0     C23971   1.894   6.595  -0.225  0.7876  1.1985  0.2332
  919MOL0     C23972   1.829   6.723  -0.286  1.1810  0.0507 -0.5586
  919MOL0     C23973   1.698   6.769  -0.212  0.7010 -0.0748 -0.1219
  919MOL0     C23974   1.715   6.802  -0.069  0.3364  0.5628  0.0757
  919MOL0    Cl23975   1.553   6.832   0.016 -0.0691  0.0679  0.0621
  919MOL0     C23976   2.523   6.211  -0.093  0.0612 -0.6534  0.6317
  919MOL0     C23977   2.653   6.248  -0.047  1.1620 -1.0669  0.2141
  919MOL0     O23978   2.940   6.179  -0.220  0.4723  0.1133  0.1094
  919MOL0     C23979   3.204   6.195  -0.139  0.2205 -0.1723 -0.2043
  919MOL0     C23980   3.324   6.202  -0.085 -1.2498  0.8070 -0.5323
  919MOL0     N23981   3.910   6.293   0.289  0.3972  0.0141  0.7114
  919MOL0     N23982   3.944   6.328   0.406 -0.4187 -0.7774  0.4740
  919MOL0     C23983   4.978   6.836   0.260 -0.1925 -0.1755  0.0042
  919MOL0     C23984   5.109   6.836   0.208 -0.8436 -0.6217  0.4018
  919MOL0     C23985   5.539   6.749   0.213  0.0425 -0.1461  0.0410
  919MOL0     C23986   5.570   6.810   0.087  0.0686  0.5171 -0.6619
  919MOL0     C23987   5.696   6.783   0.025  0.3071 -0.9602 -0.5216
  919MOL0     C23988   5.793   6.701   0.085 -0.0696  0.5757 -1.2460
  919MOL0     O23989   5.915   6.671   0.026 -0.2191 -0.2123  0.3405
  919MOL0     C23990   5.917   6.675  -0.114 -0.1505 -0.5257 -0.0155
  919MOL0     C23991   6.040   6.595  -0.153 -0.3146 -0.8138  0.8322
  919MOL0     C23992   6.182   6.625  -0.078  0.1324  0.5857 -0.5667
  919MOL0     C23993   6.271   6.509  -0.116  0.2320 -0.2458  0.3067
  919MOL0     C23994   6.401   6.497  -0.044  0.5468 -0.8024 -0.6277
  919MOL0     C23995   6.508   6.508   0.014  0.3849 -0.6903 -0.4372
  919MOL0     C23996   5.760   6.643   0.215 -0.4238  0.5838  0.0856
  919MOL0     C23997   5.647   6.677   0.281  0.8780 -0.1357 -0.2866
  919MOL0     H23998   5.264   6.992   0.466  2.0133  0.1280 -3.3104
  919MOL0     H23999   5.020   6.971   0.567  0.1215 -2.9081  0.7405
  919MOL0     H24000   4.831   6.841   0.625  3.5356 -0.1937 -2.8934
  919MOL0     H24001   4.783   7.001   0.545  2.7070 -0.2315  1.7168
  919MOL0     H24002   4.607   6.816   0.687 -0.1443 -1.5914 -0.6116
  919MOL0     H24003   4.567   6.949   0.570  0.1432 -0.0601 -1.7084
  919MOL0     H24004   4.544   6.773   0.400 -0.6244  2.0069  0.6752
  919MOL0     H24005   4.645   6.664   0.501 -0.8002 -0.0417  2.7948
  919MOL0     H24006   4.469   6.617   0.645 -0.7131  1.0479  0.6228
  919MOL0     H24007   4.364   6.747   0.575 -1.9278 -0.9057 -2.4000
  919MOL0     H24008   4.373   6.604   0.357 -1.8006 -0.8625 -0.8243
  919MOL0     H24009   4.460   6.478   0.456  0.2760  0.7212 -0.9133
  919MOL0     H24010   4.226   6.417   0.442 -2.3029 -0.7929 -0.4288
  919MOL0     H24011   4.268   6.458   0.600  1.3225  1.6935 -0.0411
  919MOL0     H24012   4.165   6.695   0.566  0.2919 -0.6923  1.6738
  919MOL0     H24013   4.127   6.652   0.402 -2.4206  0.9926  1.1423
  919MOL0     H24014   3.948   6.619   0.555  2.6164  3.2516 -1.6010
  919MOL0     H24015   4.024   6.474   0.624 -0.1105  0.8244  0.9707
  919MOL0     H24016   3.905   6.626   0.290  1.8483 -1.1111 -0.3053
  919MOL0     H24017   3.892   6.486   0.018 -0.9693  1.5182 -2.3296
  919MOL0     H24018   3.815   6.337   0.035 -0.8080  1.9449 -2.3876
  919MOL0     H24019   3.656   6.501  -0.043 -2.5248 -0.6827  0.2872
  919MOL0     H24020   3.704   6.618   0.065 -0.6202  0.3459 -2.7310
  919MOL0     H24021   3.485   6.540   0.136  0.8850  2.2999 -1.4172
  919MOL0     H24022   3.602   6.519   0.270 -2.0650  1.9520 -0.5238
  919MOL0     H24023   3.448   6.325   0.269  0.7053 -1.2488 -0.2552
  919MOL0     H24024   3.612   6.282   0.229 -0.1761 -1.0487 -0.7630
  919MOL0     H24025   3.292   6.457   0.132 -1.3910 -0.1610  0.4395
  919MOL0     H24026   3.136   6.585   0.038  0.2265 -0.4608 -3.1706
  919MOL0     H24027   2.995   6.546  -0.054 -1.4714  1.2521  1.0362
  919MOL0     H24028   2.995   6.498   0.119 -2.6676 -4.1535 -1.0034
  919MOL0     H24029   2.752   6.442  -0.314  0.1816 -1.5997 -0.0782
  919MOL0     H24030   2.523   6.361  -0.406 -1.2187  0.4621  0.4993
  919MOL0     H24031   2.165   6.196  -0.244 -0.8654  0.7227 -0.0448
  919MOL0     H24032   2.261   6.256  -0.120 -0.8962  0.7625 -0.3797
  919MOL0     H24033   2.275   6.475  -0.258  0.7237 -0.6689 -1.9423
  919MOL0     H24034   2.199   6.394  -0.388  1.0491 -1.7499 -0.3161
  919MOL0     H24035   2.074   6.430  -0.119 -3.5315  0.1124 -0.0245
  919MOL0     H24036   1.999   6.343  -0.253 -0.9666  2.5495  0.1127
  919MOL0     H24037   2.095   6.624  -0.291 -1.4283  0.6854 -0.2138
  919MOL0     H24038   2.000   6.532  -0.403  1.2978 -0.3593 -0.1211
  919MOL0     H24039   1.927   6.608  -0.121  1.9740 -1.4700  0.2746
  919MOL0     H24040   1.817   6.517  -0.222  0.8722  1.1383  2.2780
  919MOL0     H24041   1.900   6.804  -0.262  1.4798 -0.8498  1.9676
  919MOL0     H24042   1.801   6.726  -0.391 -0.4523  0.5241 -0.1285
  919MOL0     H24043   1.630   6.684  -0.217 -0.6487  0.9675 -0.1037
  919MOL0     H24044   1.661   6.863  -0.253  3.4128  2.3412  2.4393
  919MOL0     H24045   1.772   6.895  -0.064 -3.0532  2.8190  0.2205
  919MOL0     H24046   1.760   6.721  -0.012 -0.9561 -0.9364 -0.9403
  919MOL0     H24047   2.456   6.151  -0.032  1.2222 -2.2866  0.3768
  919MOL0     H24048   2.703   6.216   0.044  1.1997  0.7501  0.8895
  919MOL0     H24049   3.195   6.119  -0.216 -0.5898 -0.6003  0.3009
  919MOL0     H24050   3.393   6.120  -0.103 -4.1034 -2.3458  1.6259
  919MOL0     H24051   4.890   6.805   0.205  1.0597 -1.1654 -1.5106
  919MOL0     H24052   5.125   6.789   0.111 -0.8621  1.3935 -0.6409
  919MOL0     H24053   5.487   6.863   0.043 -1.0873 -1.0550 -0.4496
  919MOL0     H24054   5.712   6.837  -0.067 -0.7236  0.4327  0.0860
  919MOL0     H24055   5.825   6.638  -0.159 -1.0819 -0.1782  1.5454
  919MOL0     H24056   5.927   6.780  -0.141 -3.3105 -0.0771  0.2280
  919MOL0     H24057   6.052   6.606  -0.262  0.4454 -5.9366  0.1813
  919MOL0     H24058   6.015   6.492  -0.128  2.3120 -1.7143  0.1238
  919MOL0     H24059   6.170   6.626   0.030  1.6702  0.5201 -0.3742
  919MOL0     H24060   6.225   6.721  -0.109 -2.3009  2.6494  1.9836
  919MOL0     H24061   6.298   6.519  -0.222 -0.1436 -1.1578  0.1149
  919MOL0     H24062   6.214   6.418  -0.096 -0.5379 -0.1239 -1.1938
  919MOL0     H24063   6.602   6.534   0.059 -0.2648  1.7341 -0.3670
  919MOL0     H24064   5.825   6.573   0.267  0.0422  0.1088 -1.1013
  919MOL0     H24065   5.634   6.649   0.385  2.2341 -0.4961 -0.1977
  920MOL0     O24066   8.031   9.860   8.854  0.3469  0.1372 -0.2012
  920MOL0     C24067   8.002   9.885   8.736 -0.5439  0.1362  0.5110
  920MOL0     O24068   7.892   9.944   8.691  0.0309 -0.0656 -0.4220
  920MOL0     C24069   7.786   9.918   8.775 -0.2796 -0.4324 -1.0763
  920MOL0     C24070   7.698   9.813   8.743  0.1266  0.1730 -0.2809
  920MOL0     C24071   7.579   9.795   8.822 -0.5080  0.7691 -1.1314
  920MOL0     C24072   7.553   9.882   8.936  0.9020 -0.0855  0.2134
  920MOL0     O24073   7.435   9.880   9.010 -0.5711 -0.5140  0.1385
  920MOL0     C24074   7.322   9.798   8.979 -1.0626 -0.7714 -0.7704
  920MOL0     C24075   7.210   9.860   9.070  0.4414 -0.8205 -0.0975
  920MOL0     C24076   7.169   9.997   9.013 -0.6827 -0.2717 -0.6911
  920MOL0     C24077   7.063  10.068   9.098  0.1704  0.4232  1.0274
  920MOL0     C24078   7.014  10.202   9.042 -0.2146  0.0949  0.5151
  920MOL0     C24079   6.890  10.179   8.946 -0.9140 -0.0859  0.0830
  920MOL0     C24080   6.808  10.304   8.922 -0.5452  0.0377  0.3253
  920MOL0     C24081   6.699  10.297   8.809  0.0863 -1.1365  0.8893
  920MOL0     N24082   6.665  10.433   8.774  0.6110 -0.1577 -0.6617
  920MOL0     C24083   6.546  10.475   8.735  0.6002  0.4688 -0.0688
  920MOL0     C24084   6.547  10.601   8.687 -0.8177  0.1292  1.0729
  920MOL0     C24085   6.441  10.696   8.640  0.2532  0.2649  0.1121
  920MOL0     C24086   6.381  10.789   8.746  0.1760  0.2525  0.1402
  920MOL0     C24087   6.332  10.727   8.882  0.0116  0.1787  1.1157
  920MOL0     C24088   6.193  10.659   8.883  0.2772  1.1819  0.3535
  920MOL0     O24089   6.197  10.540   8.795 -0.2282  0.2743 -0.2896
  920MOL0     C24090   6.091  10.482   8.735 -0.9588 -0.0044 -0.5487
  920MOL0     C24091   5.958  10.496   8.768  0.5069 -0.4345 -0.5522
  920MOL0     C24092   5.851  10.420   8.712 -0.6791 -0.5888  0.5737
  920MOL0     C24093   5.709  10.450   8.744 -0.1409  0.7164  0.1862
  920MOL0     C24094   5.888  10.319   8.621  0.1158 -0.4153  0.6284
  920MOL0     C24095   5.798  10.215   8.561  0.2857 -0.7133  0.0988
  920MOL0     O24096   5.658  10.232   8.537 -0.4414  0.1433 -1.0134
  920MOL0     C24097   5.579  10.125   8.501 -0.2473  0.1781 -0.5277
  920MOL0     C24098   5.586  10.084   8.367  0.3802  0.1978  0.1058
  920MOL0     C24099   5.494   9.990   8.321 -0.6371  0.5981 -0.2418
  920MOL0     C24100   5.413   9.915   8.414 -0.1864 -0.2911 -0.1511
  920MOL0     O24101   5.329   9.815   8.377 -0.0384  0.8588 -0.8118
  920MOL0     C24102   5.263   9.818   8.247  0.1127 -0.0897  0.3881
  920MOL0     C24103   5.346   9.738   8.143  0.6292 -1.1322  0.3960
  920MOL0     C24104   5.414   9.609   8.181  0.2456 -1.2986 -0.4649
  920MOL0     C24105   5.409   9.508   8.074  0.1018 -0.3880  0.3212
  920MOL0     C24106   5.510   9.387   8.090  0.2824 -0.6394  0.9742
  920MOL0     C24107   5.479   9.284   8.198 -0.0386 -0.0243 -0.3216
  920MOL0     C24108   5.344   9.216   8.183  0.0187  0.5202 -0.7473
  920MOL0     C24109   5.341   9.134   8.063 -0.0941 -0.2087  0.0753
  920MOL0    Cl24110   5.189   9.040   8.060 -0.3503 -0.7461 -0.2019
  920MOL0     C24111   5.423   9.944   8.552 -0.7671  0.5134 -0.1778
  920MOL0     C24112   5.504  10.050   8.596 -0.3195  1.0610 -0.2363
  920MOL0     O24113   5.861  10.122   8.535  0.5164  1.0061  0.3403
  920MOL0     C24114   6.028  10.302   8.600 -0.1705  0.3139  0.6815
  920MOL0     C24115   6.120  10.378   8.653  0.3308  0.7848 -0.0844
  920MOL0     N24116   6.681  10.643   8.688 -1.3037  0.6424  0.6568
  920MOL0     N24117   6.745  10.546   8.750 -0.5010 -1.4187  0.4358
  920MOL0     C24118   7.638   9.983   8.963 -0.2864 -0.3696 -0.1484
  920MOL0     C24119   7.757   9.993   8.890  0.0188  0.4636  0.3248
  920MOL0     C24120   8.108   9.850   8.642 -0.2067  0.8235 -0.0753
  920MOL0     C24121   8.233   9.794   8.679 -0.7415  0.9437  1.5514
  920MOL0     C24122   8.326   9.754   8.578 -0.2725  0.3696  0.4380
  920MOL0     C24123   8.304   9.771   8.441  0.1634  0.2195 -0.4810
  920MOL0     O24124   8.393   9.742   8.344  0.0793 -0.0248  0.5169
  920MOL0     C24125   8.450   9.611   8.359 -0.4698 -0.0280 -0.3936
  920MOL0     C24126   8.436   9.557   8.219 -0.8329  0.0656  0.2490
  920MOL0     C24127   8.292   9.509   8.196 -0.3266 -0.4027  0.4349
  920MOL0     C24128   8.271   9.454   8.054 -0.6104 -0.7787  0.3401
  920MOL0     C24129   8.327   9.313   8.041 -0.1162 -0.0614 -0.0797
  920MOL0     C24130   8.372   9.201   8.048  0.1845 -0.7767  0.4316
  920MOL0     C24131   8.182   9.841   8.413  0.5413  0.2270  0.0525
  920MOL0     C24132   8.088   9.871   8.506 -0.3741 -0.9162 -0.3407
  920MOL0     H24133   7.721   9.754   8.655 -0.9965 -1.0538  0.2208
  920MOL0     H24134   7.504   9.718   8.812 -0.8371  0.8168  0.7284
  920MOL0     H24135   7.295   9.804   8.873  1.9279 -0.1607 -1.5890
  920MOL0     H24136   7.347   9.697   9.012 -1.8607 -0.5128  0.6963
  920MOL0     H24137   7.121   9.797   9.075  0.2007 -0.3802  2.9361
  920MOL0     H24138   7.256   9.868   9.168  2.4903  0.3174 -1.0850
  920MOL0     H24139   7.258  10.061   8.999 -1.4206  0.5368 -1.9511
  920MOL0     H24140   7.122   9.987   8.915 -1.6643 -0.1859 -0.2428
  920MOL0     H24141   6.987   9.991   9.115 -1.6093  1.6957 -0.6574
  920MOL0     H24142   7.107  10.095   9.194  3.6717  1.9655 -0.8416
  920MOL0     H24143   6.986  10.267   9.125  0.7888 -0.9012  1.6786
  920MOL0     H24144   7.090  10.254   8.983 -1.3893  1.7788  0.4157
  920MOL0     H24145   6.927  10.155   8.846  0.3652  1.4795  0.1470
  920MOL0     H24146   6.824  10.106   8.994  1.4488 -1.6151  1.1818
  920MOL0     H24147   6.754  10.326   9.015 -1.1398  2.9059 -0.5997
  920MOL0     H24148   6.875  10.387   8.899 -0.2000 -0.7438 -1.7265
  920MOL0     H24149   6.616  10.235   8.845 -0.7095 -2.7551 -3.1409
  920MOL0     H24150   6.730  10.252   8.714 -0.8959  1.8376 -0.9861
  920MOL0     H24151   6.454  10.419   8.750  1.6205 -2.0073 -2.2331
  920MOL0     H24152   6.482  10.757   8.559 -0.0084 -0.7981 -0.8500
  920MOL0     H24153   6.361  10.628   8.608 -0.7005  2.2895 -2.0016
  920MOL0     H24154   6.294  10.834   8.697 -0.2367 -0.7380 -0.0465
  920MOL0     H24155   6.455  10.864   8.775  0.5155 -0.0781  0.1404
  920MOL0     H24156   6.316  10.815   8.945  0.8888  1.0235  0.2036
  920MOL0     H24157   6.412  10.668   8.927 -0.1105 -0.2098  0.8312
  920MOL0     H24158   6.116  10.730   8.850  1.7423  3.2018  1.0601
  920MOL0     H24159   6.160  10.630   8.984 -0.0782  2.2695  0.5614
  920MOL0     H24160   5.938  10.576   8.838 -1.2156  0.2876 -1.7999
  920MOL0     H24161   5.686  10.396   8.837  0.3845 -1.0670 -0.6756
  920MOL0     H24162   5.703  10.558   8.758  3.0092  1.2851 -1.9642
  920MOL0     H24163   5.646  10.427   8.658  0.9143 -1.5599 -0.0706
  920MOL0     H24164   5.650  10.145   8.304  0.0317  0.6622  0.1971
  920MOL0     H24165   5.488   9.966   8.216 -2.8405  2.0064 -0.4894
  920MOL0     H24166   5.165   9.773   8.260 -0.0546  0.6257  1.7615
  920MOL0     H24167   5.254   9.923   8.217 -1.4971 -0.2530  0.2615
  920MOL0     H24168   5.275   9.722   8.061  0.6515  3.8262 -0.9086
  920MOL0     H24169   5.424   9.805   8.105 -1.8697  2.4727  1.0743
  920MOL0     H24170   5.378   9.564   8.274  1.5723  0.3801  0.9342
  920MOL0     H24171   5.520   9.634   8.190 -0.4283  1.3251  1.4612
  920MOL0     H24172   5.307   9.470   8.066 -0.0220  0.2835 -2.6724
  920MOL0     H24173   5.429   9.561   7.980 -1.7724 -0.3883 -0.1247
  920MOL0     H24174   5.614   9.417   8.103  1.8735 -4.4898 -1.2037
  920MOL0     H24175   5.512   9.335   7.994 -1.7335  1.4309 -0.2914
  920MOL0     H24176   5.553   9.204   8.198 -2.4240 -2.4969  2.4502
  920MOL0     H24177   5.486   9.332   8.296  2.7047 -1.6343  0.3433
  920MOL0     H24178   5.261   9.288   8.181 -0.4690 -0.0035  0.1699
  920MOL0     H24179   5.327   9.149   8.267  0.1088  2.2509  0.7130
  920MOL0     H24180   5.417   9.056   8.054 -0.8299 -1.0547  0.8691
  920MOL0     H24181   5.333   9.199   7.975 -0.3585  0.0507  0.2873
  920MOL0     H24182   5.378   9.878   8.626  0.1047 -1.6687 -1.4984
  920MOL0     H24183   5.504  10.066   8.703  3.0217 -1.9986  0.3906
  920MOL0     H24184   6.060  10.234   8.522  3.7795  2.9844 -0.3604
  920MOL0     H24185   6.224  10.366   8.623 -0.6435  1.2554 -4.2921
  920MOL0     H24186   7.613  10.050   9.044 -0.3013 -0.4212 -0.1097
  920MOL0     H24187   7.822  10.077   8.911  0.7825 -0.1257  0.3712
  920MOL0     H24188   8.262   9.783   8.783  0.4527  0.0954  1.1530
  920MOL0     H24189   8.419   9.706   8.607 -0.2563 -1.3015 -2.0979
  920MOL0     H24190   8.556   9.619   8.385  0.4533 -3.0329 -2.7184
  920MOL0     H24191   8.394   9.546   8.427  1.2981 -0.7060  0.4689
  920MOL0     H24192   8.496   9.466   8.211  0.7037  0.9032  1.5979
  920MOL0     H24193   8.457   9.632   8.142 -0.4261  1.0668  1.2967
  920MOL0     H24194   8.237   9.603   8.202  1.5857  0.8294 -0.2428
  920MOL0     H24195   8.267   9.435   8.273  1.3912  0.7481  2.2051
  920MOL0     H24196   8.315   9.521   7.979 -1.8840 -1.6860 -1.2732
  920MOL0     H24197   8.166   9.448   8.025 -0.9997  0.8857  1.2488
  920MOL0     H24198   8.400   9.098   8.062  1.0127 -0.7078 -0.6228
  920MOL0     H24199   8.168   9.882   8.313  1.3319  0.7806  0.1525
  920MOL0     H24200   8.001   9.924   8.470  0.1331 -0.8238 -1.4811
  921MOL0     O24201   0.623   7.408   1.438 -0.2839  0.1341 -0.6552
  921MOL0     C24202   0.647   7.383   1.324 -0.7147 -0.2994  0.1742
  921MOL0     O24203   0.551   7.387   1.225  0.1052 -0.1996  0.8599
  921MOL0     C24204   0.424   7.413   1.263  0.3576 -0.3694  0.5952
  921MOL0     C24205   0.355   7.521   1.207 -0.3219 -0.9446 -1.0419
  921MOL0     C24206   0.222   7.534   1.234 -0.2622 -1.0137 -0.5178
  921MOL0     C24207   0.143   7.440   1.295 -0.5400  0.2569 -0.1623
  921MOL0     O24208   0.018   7.451   1.327  0.1467 -0.8883  0.7944
  921MOL0     C24209  -0.068   7.525   1.246  0.3376  0.8135 -0.1037
  921MOL0     C24210  -0.202   7.522   1.319  0.4019  0.2615  0.3177
  921MOL0     C24211  -0.307   7.601   1.242  0.6216 -0.4886  0.2448
  921MOL0     C24212  -0.427   7.626   1.322  0.1931 -0.0164 -0.5133
  921MOL0     C24213  -0.552   7.643   1.237 -0.0111  0.1387  0.9122
  921MOL0     C24214  -0.653   7.708   1.327  1.3270 -0.4256 -0.8590
  921MOL0     C24215  -0.786   7.717   1.266 -0.6754 -0.6239  0.0902
  921MOL0     C24216  -0.886   7.780   1.360 -0.1720  0.6714 -0.1044
  921MOL0     N24217  -1.017   7.793   1.303 -0.1043 -0.3717  0.3626
  921MOL0     C24218  -1.121   7.707   1.331 -0.2234 -0.0327 -0.4361
  921MOL0     C24219  -1.231   7.761   1.275 -0.0135 -0.4787 -0.1378
  921MOL0     C24220  -1.371   7.712   1.261 -0.1237 -0.8188  0.1665
  921MOL0     C24221  -1.388   7.599   1.171 -0.7517 -0.1860  0.3143
  921MOL0     C24222  -1.526   7.529   1.178 -0.1749 -0.5609  0.1575
  921MOL0     C24223  -1.648   7.619   1.136  0.2338  0.2008  1.5063
  921MOL0     O24224  -1.654   7.733   1.224  0.2191 -0.1865  0.2964
  921MOL0     C24225  -1.769   7.762   1.290  0.2049 -0.3877 -0.0717
  921MOL0     C24226  -1.770   7.782   1.429  0.3082  0.0294  1.5131
  921MOL0     C24227  -1.888   7.792   1.501 -0.6886 -1.2862  0.4258
  921MOL0     C24228  -1.871   7.815   1.642  0.0606  0.5327 -0.9748
  921MOL0     C24229  -2.009   7.805   1.434 -0.2482  0.3211 -0.8574
  921MOL0     C24230  -2.147   7.842   1.504 -0.0099 -1.0442  1.1393
  921MOL0     O24231  -2.147   7.934   1.601  0.1458  0.1295  0.0757
  921MOL0     C24232  -2.260   8.017   1.624  0.7165  0.0321 -0.1703
  921MOL0     C24233  -2.368   7.971   1.705  0.5056 -0.4256 -0.7542
  921MOL0     C24234  -2.484   8.043   1.715  0.6644 -0.2693  1.0806
  921MOL0     C24235  -2.499   8.163   1.637 -0.5415  0.3533 -0.3357
  921MOL0     O24236  -2.617   8.221   1.635  0.1284 -0.0605 -0.2262
  921MOL0     C24237  -2.712   8.150   1.556 -0.8442  0.1730 -0.1159
  921MOL0     C24238  -2.840   8.230   1.556  0.4401 -0.7739 -0.0140
  921MOL0     C24239  -2.961   8.174   1.477  0.8713 -0.5345  0.2207
  921MOL0     C24240  -3.074   8.280   1.475  0.1420 -0.4152  0.4828
  921MOL0     C24241  -3.208   8.241   1.412 -0.0866 -0.1034  0.9001
  921MOL0     C24242  -3.316   8.339   1.437 -0.1440 -0.4241  0.3368
  921MOL0     C24243  -3.311   8.456   1.332  0.6837  0.3335  0.2169
  921MOL0     C24244  -3.406   8.581   1.367  0.0679 -0.5814  0.2412
  921MOL0    Cl24245  -3.580   8.526   1.389  0.1643 -0.4946 -0.0902
  921MOL0     C24246  -2.381   8.216   1.577  0.3444  0.4435  0.2264
  921MOL0     C24247  -2.265   8.145   1.568 -0.9871  0.8596 -0.6092
  921MOL0     O24248  -2.247   7.785   1.460  0.2276  0.0759  0.2558
  921MOL0     C24249  -2.007   7.779   1.293  0.3314 -0.7973 -0.5257
  921MOL0     C24250  -1.885   7.755   1.221  0.2252 -0.2191 -0.5390
  921MOL0     N24251  -1.184   7.868   1.202  0.0263 -0.1769 -0.8556
  921MOL0     N24252  -1.060   7.881   1.212 -0.1982 -0.2877 -0.4654
  921MOL0     C24253   0.213   7.328   1.343 -0.3054 -0.3732  0.2260
  921MOL0     C24254   0.347   7.316   1.321 -0.6176 -0.2095  0.5294
  921MOL0     C24255   0.789   7.369   1.280  0.1392 -0.0533  0.2574
  921MOL0     C24256   0.888   7.362   1.380 -0.0961 -0.6613  0.2456
  921MOL0     C24257   1.023   7.354   1.348  0.5000  0.2315 -0.2742
  921MOL0     C24258   1.064   7.361   1.215  0.5850  0.3111 -0.7282
  921MOL0     O24259   1.195   7.358   1.182  0.3151 -0.0578 -0.0956
  921MOL0     C24260   1.248   7.466   1.110  0.4687  0.3392  1.1980
  921MOL0     C24261   1.393   7.467   1.146  0.8282  0.0419 -0.1645
  921MOL0     C24262   1.419   7.560   1.269  0.4377  0.7185 -0.2232
  921MOL0     C24263   1.563   7.611   1.269  0.2870 -0.7288  0.2924
  921MOL0     C24264   1.567   7.724   1.182 -0.4941 -1.2910 -0.6749
  921MOL0     C24265   1.571   7.823   1.098 -0.2104  0.4401 -0.3945
  921MOL0     C24266   0.969   7.371   1.115  0.0954  0.6351 -0.6627
  921MOL0     C24267   0.825   7.377   1.142 -0.0080 -0.0627  0.8691
  921MOL0     H24268   0.427   7.593   1.168 -0.1392 -0.1844  0.6158
  921MOL0     H24269   0.189   7.633   1.205 -4.5118 -2.4401 -1.3406
  921MOL0     H24270  -0.028   7.626   1.235 -0.7385  1.5248  1.9326
  921MOL0     H24271  -0.080   7.480   1.147  0.0447 -0.9375  0.6846
  921MOL0     H24272  -0.227   7.416   1.326  0.2998  0.3120  0.8109
  921MOL0     H24273  -0.188   7.561   1.421  1.0587  1.6584 -0.2721
  921MOL0     H24274  -0.273   7.694   1.194  0.1195 -1.7371 -2.7959
  921MOL0     H24275  -0.340   7.531   1.164 -1.1796 -0.7350  1.1787
  921MOL0     H24276  -0.442   7.546   1.396  0.5310  1.1031  0.8037
  921MOL0     H24277  -0.416   7.715   1.384 -0.8918 -1.6028  2.1516
  921MOL0     H24278  -0.544   7.714   1.154 -1.7414 -0.7291 -0.0424
  921MOL0     H24279  -0.582   7.549   1.190 -2.3414  1.8031 -1.2155
  921MOL0     H24280  -0.652   7.651   1.420  4.9781 -0.3657 -0.7163
  921MOL0     H24281  -0.611   7.807   1.347  1.4975 -0.4699 -0.9924
  921MOL0     H24282  -0.788   7.779   1.175  0.8242 -0.5215  0.1094
  921MOL0     H24283  -0.816   7.617   1.234  2.0190 -2.3126  2.3934
  921MOL0     H24284  -0.839   7.876   1.383  0.6935 -0.3903  3.1065
  921MOL0     H24285  -0.886   7.733   1.459 -1.3563  1.8595  0.4873
  921MOL0     H24286  -1.118   7.617   1.391  0.5235  0.1060 -0.2488
  921MOL0     H24287  -1.403   7.681   1.361  1.6023  1.1515  1.4486
  921MOL0     H24288  -1.435   7.795   1.230 -0.7150 -1.6714 -0.9540
  921MOL0     H24289  -1.310   7.523   1.179 -0.9347 -1.0865 -3.8358
  921MOL0     H24290  -1.374   7.636   1.069  2.8565 -2.0175 -0.0129
  921MOL0     H24291  -1.554   7.485   1.274 -0.7989 -0.2111  0.1386
  921MOL0     H24292  -1.523   7.443   1.110 -3.1285 -0.4011 -0.3035
  921MOL0     H24293  -1.738   7.558   1.146 -1.6365  1.9514 -2.3623
  921MOL0     H24294  -1.650   7.648   1.030 -4.4511 -2.1580  0.6571
  921MOL0     H24295  -1.671   7.781   1.474  0.3006 -1.1225  1.5221
  921MOL0     H24296  -1.927   7.905   1.667  1.7627  2.0038 -2.1994
  921MOL0     H24297  -1.893   7.724   1.699  2.4048  1.3000  1.3637
  921MOL0     H24298  -1.766   7.823   1.670  0.7510 -4.4337 -1.1503
  921MOL0     H24299  -2.359   7.879   1.761 -0.3481 -1.2793 -1.9639
  921MOL0     H24300  -2.562   8.005   1.780 -0.7309 -0.7462 -0.7946
  921MOL0     H24301  -2.677   8.148   1.453 -0.1805  0.3886  0.1021
  921MOL0     H24302  -2.729   8.049   1.596 -0.2108  0.9440  2.2781
  921MOL0     H24303  -2.877   8.230   1.659  0.2853 -2.0608 -0.0551
  921MOL0     H24304  -2.814   8.331   1.522 -1.2218  0.7159  2.7774
  921MOL0     H24305  -3.003   8.087   1.528  1.3353 -1.4804 -0.9648
  921MOL0     H24306  -2.938   8.136   1.377  1.8389 -3.7953  1.5553
  921MOL0     H24307  -3.093   8.321   1.574  0.2155 -3.8598  2.0472
  921MOL0     H24308  -3.030   8.359   1.413  1.2241 -0.3583  1.3137
  921MOL0     H24309  -3.230   8.146   1.463  0.2970  1.0727  3.3981
  921MOL0     H24310  -3.188   8.224   1.306 -0.3198 -2.3649  1.1674
  921MOL0     H24311  -3.412   8.285   1.439 -1.6687  2.0946 -0.2556
  921MOL0     H24312  -3.309   8.381   1.538 -1.4226 -2.3085  1.2801
  921MOL0     H24313  -3.348   8.421   1.235  3.2825  1.2046 -1.1842
  921MOL0     H24314  -3.205   8.484   1.329  0.8304  0.1222  2.1301
  921MOL0     H24315  -3.401   8.657   1.288  2.9127 -0.3771  0.5351
  921MOL0     H24316  -3.371   8.620   1.463 -4.4748  1.5333  1.3082
  921MOL0     H24317  -2.378   8.307   1.518  3.1513 -0.6059 -1.3983
  921MOL0     H24318  -2.181   8.195   1.521  0.3778  0.6106  1.4264
  921MOL0     H24319  -2.100   7.767   1.239 -0.6118 -0.2815  0.9394
  921MOL0     H24320  -1.890   7.740   1.114  0.7164  1.2951 -0.8033
  921MOL0     H24321   0.154   7.254   1.397  0.0287 -0.6632  0.1919
  921MOL0     H24322   0.385   7.218   1.347 -1.7032 -1.4712 -2.2391
  921MOL0     H24323   0.857   7.356   1.484  1.1082 -0.5915  0.6223
  921MOL0     H24324   1.090   7.342   1.432 -2.7541 -1.6762  2.3234
  921MOL0     H24325   1.238   7.445   1.003  1.9989  0.5459  0.9839
  921MOL0     H24326   1.199   7.562   1.129  3.1282  1.6186  2.1371
  921MOL0     H24327   1.444   7.504   1.057  2.3005 -0.9503  0.2368
  921MOL0     H24328   1.420   7.367   1.180 -4.0966 -2.1172 -1.5754
  921MOL0     H24329   1.400   7.500   1.358 -1.1575  1.0141 -0.3417
  921MOL0     H24330   1.349   7.644   1.276 -1.0229 -0.4210 -0.6104
  921MOL0     H24331   1.638   7.539   1.234 -0.6485 -0.4868 -2.4872
  921MOL0     H24332   1.588   7.639   1.371 -1.3412 -1.8240  1.0276
  921MOL0     H24333   1.581   7.908   1.033  0.0459  0.9550  0.3106
  921MOL0     H24334   1.004   7.372   1.012  0.7290  0.0219 -0.4559
  921MOL0     H24335   0.749   7.381   1.065  1.8842 -4.0694 -1.5361
  922MOL0     O24336  10.607   2.300   2.162 -0.4033  0.3185 -0.0852
  922MOL0     C24337  10.701   2.379   2.200  0.2494  0.6972 -0.0858
  922MOL0     O24338  10.683   2.494   2.269  0.1422 -0.7846 -0.4019
  922MOL0     C24339  10.557   2.540   2.308 -0.2349 -0.1565  0.5648
  922MOL0     C24340  10.541   2.612   2.431 -0.5795  0.2697 -0.4940
  922MOL0     C24341  10.419   2.658   2.479  0.0910  0.0049  0.2760
  922MOL0     C24342  10.298   2.624   2.413  0.3682  0.7345 -0.8348
  922MOL0     O24343  10.172   2.660   2.450 -0.0051 -0.3108 -0.5905
  922MOL0     C24344  10.129   2.597   2.570  0.4448 -0.2965 -0.0063
  922MOL0     C24345  10.027   2.679   2.644  0.6517 -0.4194 -0.3455
  922MOL0     C24346  10.081   2.829   2.659 -0.5539 -0.9390  0.4889
  922MOL0     C24347   9.989   2.930   2.739 -0.1249  0.0941  0.1775
  922MOL0     C24348  10.070   3.054   2.757 -0.4811 -0.9716  0.2164
  922MOL0     C24349  10.007   3.162   2.832 -0.0926  1.1494  0.7246
  922MOL0     C24350   9.924   3.264   2.757 -0.0030  0.3179 -0.1831
  922MOL0     C24351   9.813   3.327   2.830  0.9282 -0.3223  0.5300
  922MOL0     N24352   9.714   3.241   2.893  0.3522  0.0005 -0.8205
  922MOL0     C24353   9.614   3.167   2.826 -0.3749 -0.4120 -0.1038
  922MOL0     C24354   9.560   3.104   2.930 -0.6471  0.6765 -0.2837
  922MOL0     C24355   9.462   2.992   2.927  0.1141  1.0312 -0.0156
  922MOL0     C24356   9.349   2.994   2.827  0.9680  0.2938  0.6797
  922MOL0     C24357   9.271   3.128   2.816  0.1178 -0.0457  0.4157
  922MOL0     C24358   9.147   3.119   2.725  0.5029 -0.3110 -0.1172
  922MOL0     O24359   9.064   3.237   2.731  0.0370 -0.0495  0.8244
  922MOL0     C24360   8.956   3.234   2.647  0.4030 -0.6888  0.0299
  922MOL0     C24361   8.867   3.339   2.676 -0.0385 -0.0422 -0.2669
  922MOL0     C24362   8.744   3.353   2.606 -0.1119 -0.5356 -0.3255
  922MOL0     C24363   8.637   3.450   2.646 -0.9795  0.2862 -0.5624
  922MOL0     C24364   8.720   3.276   2.492  1.4662 -0.0495  0.3152
  922MOL0     C24365   8.607   3.304   2.400  1.0133 -0.6445 -0.0560
  922MOL0     O24366   8.542   3.187   2.355 -0.2244 -0.0437 -0.0323
  922MOL0     C24367   8.444   3.198   2.267 -0.2997  0.4216  1.0521
  922MOL0     C24368   8.343   3.293   2.272  0.1204 -0.1955  0.3144
  922MOL0     C24369   8.239   3.293   2.176  0.3152  0.5392 -0.0072
  922MOL0     C24370   8.228   3.195   2.073  0.5002  0.1955 -0.0722
  922MOL0     O24371   8.120   3.214   1.980  0.1126 -0.4186  0.5704
  922MOL0     C24372   8.110   3.119   1.868 -0.3324  0.0606 -0.1774
  922MOL0     C24373   7.994   3.144   1.770 -0.3067 -1.0132  0.8395
  922MOL0     C24374   7.869   3.181   1.840  0.4212  0.6720  0.6636
  922MOL0     C24375   7.756   3.186   1.737 -0.4839 -0.1622 -0.3636
  922MOL0     C24376   7.625   3.252   1.782 -0.0681  0.7462  0.1957
  922MOL0     C24377   7.510   3.243   1.683 -0.3427 -0.8637 -0.9819
  922MOL0     C24378   7.378   3.311   1.745  0.3694 -1.1480  0.1551
  922MOL0     C24379   7.260   3.310   1.652  0.2145 -0.0781  0.8270
  922MOL0    Cl24380   7.131   3.386   1.753  0.0799  0.4803  0.2508
  922MOL0     C24381   8.325   3.089   2.074  0.8257  0.2995  0.0413
  922MOL0     C24382   8.428   3.095   2.173 -0.4105 -0.2440 -0.0739
  922MOL0     O24383   8.584   3.418   2.354  0.1247 -0.6077 -0.6965
  922MOL0     C24384   8.807   3.166   2.459  0.8578 -0.0741  0.3795
  922MOL0     C24385   8.925   3.148   2.537 -0.6982 -0.3054 -0.3297
  922MOL0     N24386   9.603   3.156   3.053  0.0644  0.7911 -0.3882
  922MOL0     N24387   9.700   3.235   3.027  0.3792  0.3401 -0.5644
  922MOL0     C24388  10.309   2.562   2.291  0.3622  0.0013 -0.1738
  922MOL0     C24389  10.433   2.522   2.238 -0.0478 -1.4162  0.0600
  922MOL0     C24390  10.843   2.334   2.169 -0.6221 -0.5212 -1.0511
  922MOL0     C24391  10.950   2.391   2.242 -0.0478 -0.3909 -0.4415
  922MOL0     C24392  11.089   2.352   2.217 -0.0663  0.5923  0.3097
  922MOL0     C24393  11.118   2.271   2.109 -0.4375 -0.2348  0.4391
  922MOL0     O24394  11.241   2.216   2.081 -0.8886 -0.6137  0.3632
  922MOL0     C24395  11.347   2.307   2.110 -0.3527  0.7169 -0.1858
  922MOL0     C24396  11.487   2.249   2.077  0.9074 -0.1556 -0.7027
  922MOL0     C24397  11.529   2.161   2.200 -0.0386  0.6323  0.0248
  922MOL0     C24398  11.659   2.096   2.152 -0.0440 -0.1951  0.2268
  922MOL0     C24399  11.777   2.174   2.198  0.3903  0.0781 -0.0221
  922MOL0     C24400  11.879   2.238   2.217  0.0948 -1.0713  0.4157
  922MOL0     C24401  11.010   2.213   2.043 -0.5274  0.4863 -0.3373
  922MOL0     C24402  10.879   2.249   2.064  0.3590 -0.6692 -0.0783
  922MOL0     H24403  10.631   2.626   2.489 -1.0800 -0.7556  0.5575
  922MOL0     H24404  10.421   2.728   2.562  1.3425 -1.2683  1.3511
  922MOL0     H24405  10.084   2.502   2.540 -0.5882  0.0664  0.3445
  922MOL0     H24406  10.211   2.579   2.640 -0.6795 -0.7689  1.2313
  922MOL0     H24407   9.935   2.676   2.586  1.3920 -0.7798 -1.5319
  922MOL0     H24408   9.998   2.633   2.739 -2.2549  0.4621 -0.7019
  922MOL0     H24409  10.179   2.843   2.706 -0.3613  0.3910 -0.2510
  922MOL0     H24410  10.091   2.871   2.558 -1.1312 -1.6785  0.1154
  922MOL0     H24411   9.888   2.937   2.697  1.8681  2.1246 -5.1368
  922MOL0     H24412   9.981   2.895   2.842  0.0986  2.0883  0.9082
  922MOL0     H24413  10.165   3.024   2.801 -0.5733  0.2050  1.2668
  922MOL0     H24414  10.104   3.083   2.657 -0.3380 -2.5466 -0.2077
  922MOL0     H24415   9.954   3.116   2.916  0.2272  0.9376  0.8103
  922MOL0     H24416  10.093   3.210   2.881  2.2436  1.0424 -2.9323
  922MOL0     H24417   9.985   3.351   2.733  0.3311  0.8865  2.4202
  922MOL0     H24418   9.878   3.211   2.673  1.3334  1.1739 -1.5080
  922MOL0     H24419   9.753   3.377   2.753  0.9681 -0.4899  0.3895
  922MOL0     H24420   9.858   3.403   2.895  2.1865 -1.6937  1.3204
  922MOL0     H24421   9.595   3.157   2.719  1.5793 -0.6144 -0.4874
  922MOL0     H24422   9.522   2.901   2.914 -1.8594 -0.8342  2.7590
  922MOL0     H24423   9.424   2.978   3.029 -2.6608  0.3534 -1.0411
  922MOL0     H24424   9.275   2.917   2.851 -1.2127  2.3917  1.0270
  922MOL0     H24425   9.393   2.978   2.728  1.8577  0.2218  1.0814
  922MOL0     H24426   9.322   3.209   2.763 -1.0551  0.1386 -0.4631
  922MOL0     H24427   9.245   3.160   2.918 -1.3210  0.2855 -0.0352
  922MOL0     H24428   9.084   3.033   2.751  0.8934 -0.3602  0.6975
  922MOL0     H24429   9.184   3.106   2.623 -1.6113 -1.8094 -0.7708
  922MOL0     H24430   8.889   3.411   2.754  2.2999 -1.4287  0.4621
  922MOL0     H24431   8.600   3.436   2.748 -1.2088  0.4330 -0.6262
  922MOL0     H24432   8.677   3.551   2.634 -1.5947  1.0063  2.5240
  922MOL0     H24433   8.543   3.447   2.591 -2.3043 -0.0434  1.5978
  922MOL0     H24434   8.334   3.358   2.359 -1.5403 -0.8763  0.6890
  922MOL0     H24435   8.165   3.371   2.161 -0.3302  0.1543  1.0484
  922MOL0     H24436   8.204   3.124   1.811 -0.1328 -3.1363 -0.2763
  922MOL0     H24437   8.101   3.020   1.911  0.2501  0.4623  0.9007
  922MOL0     H24438   8.022   3.233   1.713  3.3889 -1.4304  1.7751
  922MOL0     H24439   7.973   3.066   1.696 -1.0142 -1.5875  1.6255
  922MOL0     H24440   7.877   3.281   1.883 -1.0685  1.3176 -0.4782
  922MOL0     H24441   7.834   3.110   1.915 -1.2993  1.6801  0.8636
  922MOL0     H24442   7.779   3.254   1.655 -2.0207 -0.6567 -1.2413
  922MOL0     H24443   7.742   3.084   1.702  1.0191 -0.1079 -1.2112
  922MOL0     H24444   7.646   3.354   1.814  0.0717  0.0514  2.5222
  922MOL0     H24445   7.598   3.191   1.869 -0.8310 -1.6939 -1.6485
  922MOL0     H24446   7.523   3.301   1.591  0.4258  0.0384 -0.3227
  922MOL0     H24447   7.500   3.139   1.651  1.4805 -1.2130 -0.5253
  922MOL0     H24448   7.391   3.416   1.772  2.7469 -1.6338  1.2205
  922MOL0     H24449   7.347   3.254   1.832  0.3900 -1.6958 -0.1930
  922MOL0     H24450   7.240   3.206   1.626  2.4581 -0.2311 -0.4498
  922MOL0     H24451   7.276   3.351   1.552  1.4502 -2.0257  0.1763
  922MOL0     H24452   8.320   3.006   2.004 -1.2634 -0.5754  1.1374
  922MOL0     H24453   8.496   3.011   2.183 -0.1722 -0.3972 -2.4757
  922MOL0     H24454   8.795   3.113   2.366  0.9917  0.7331 -0.1100
  922MOL0     H24455   8.980   3.060   2.504 -0.3451 -0.6620  1.1216
  922MOL0     H24456  10.224   2.540   2.227  1.3504 -4.9619 -0.1783
  922MOL0     H24457  10.432   2.475   2.141 -2.9051  0.7112 -1.0870
  922MOL0     H24458  10.935   2.466   2.318 -0.2950  0.2477 -1.1142
  922MOL0     H24459  11.166   2.372   2.290  1.8207 -0.9864 -1.1276
  922MOL0     H24460  11.332   2.401   2.056 -2.9300  0.8535  0.5825
  922MOL0     H24461  11.355   2.317   2.219  0.4259 -1.8801  0.0705
  922MOL0     H24462  11.564   2.327   2.080  0.5665  0.2279  3.2999
  922MOL0     H24463  11.472   2.192   1.985  1.5709 -0.1319 -0.8282
  922MOL0     H24464  11.446   2.094   2.226  0.1682  1.5720  3.6655
  922MOL0     H24465  11.556   2.214   2.292  1.3123  0.8792 -0.4899
  922MOL0     H24466  11.677   2.081   2.045  1.0916 -3.6886  0.7687
  922MOL0     H24467  11.661   1.995   2.195 -0.4510 -0.5616 -0.5911
  922MOL0     H24468  11.960   2.301   2.249 -2.8407  2.2912  1.8964
  922MOL0     H24469  11.032   2.139   1.966 -2.2548  0.9634 -1.3493
  922MOL0     H24470  10.794   2.211   2.009  0.7372  0.9176 -1.8727
  923MOL0     O24471   5.653   9.596  10.838  0.0587 -0.3586  0.8890
  923MOL0     C24472   5.745   9.653  10.891 -0.4597  0.1236 -0.8207
  923MOL0     O24473   5.732   9.749  10.988 -0.0562  0.9993  0.3387
  923MOL0     C24474   5.614   9.771  11.059  0.1384  0.8040 -0.1504
  923MOL0     C24475   5.511   9.841  11.005  0.3655  0.1721  0.2714
  923MOL0     C24476   5.394   9.849  11.078 -0.1351  0.0014 -0.5432
  923MOL0     C24477   5.382   9.801  11.209  0.7320  0.5653  0.6654
  923MOL0     O24478   5.259   9.816  11.273 -0.3685 -0.1703  0.5459
  923MOL0     C24479   5.135   9.842  11.198  0.8387  0.6586  0.2890
  923MOL0     C24480   5.021   9.801  11.296  0.6151  0.0197 -0.2404
  923MOL0     C24481   4.882   9.783  11.228  0.3153  0.8046 -0.2215
  923MOL0     C24482   4.845   9.891  11.116 -0.2752  0.0340 -0.4355
  923MOL0     C24483   4.856  10.031  11.172 -0.4760 -0.7218  0.5324
  923MOL0     C24484   4.747  10.069  11.264  0.2382 -0.2977 -0.1441
  923MOL0     C24485   4.770  10.211  11.320  0.1792  0.5697 -1.0310
  923MOL0     C24486   4.762  10.318  11.219  0.0408  0.0430 -0.1749
  923MOL0     N24487   4.880  10.345  11.142  0.2103 -0.1717  0.6032
  923MOL0     C24488   5.009  10.362  11.179 -0.5970 -0.8957 -0.4737
  923MOL0     C24489   5.078  10.401  11.076 -0.5341 -1.0863  0.3427
  923MOL0     C24490   5.228  10.406  11.077  0.0007  0.0335  0.0467
  923MOL0     C24491   5.284  10.320  10.959  1.0776  0.1487 -1.0143
  923MOL0     C24492   5.250  10.166  10.960 -0.3914  0.3071 -0.0699
  923MOL0     C24493   5.111  10.130  10.906 -0.2468 -1.0489  0.1255
  923MOL0     O24494   5.112  10.010  10.842 -0.0015  0.0246 -0.1937
  923MOL0     C24495   5.004   9.973  10.769 -0.0141 -0.4242 -0.2579
  923MOL0     C24496   5.012   9.860  10.679 -0.9528  0.2066 -0.0690
  923MOL0     C24497   4.911   9.820  10.593  0.2692  0.9244  0.5861
  923MOL0     C24498   4.935   9.703  10.496  0.1660  0.3204 -0.4620
  923MOL0     C24499   4.784   9.872  10.609  0.7611  0.1068  0.4973
  923MOL0     C24500   4.662   9.840  10.535  0.3969  0.0092  0.4933
  923MOL0     O24501   4.550   9.834  10.616  0.0162  0.5951 -0.9737
  923MOL0     C24502   4.423   9.827  10.567 -0.6425 -1.1211  0.5215
  923MOL0     C24503   4.343   9.940  10.556  0.2711 -0.7383 -0.2481
  923MOL0     C24504   4.223   9.937  10.484 -0.8468 -0.0465  0.3711
  923MOL0     C24505   4.184   9.819  10.419  0.1849 -0.5179  0.5423
  923MOL0     O24506   4.069   9.826  10.337 -0.1171 -0.8500  0.3710
  923MOL0     C24507   4.018   9.705  10.285  0.3608  0.1083  0.6827
  923MOL0     C24508   3.891   9.740  10.214  0.8431 -0.6893 -0.7746
  923MOL0     C24509   3.913   9.787  10.064  0.1383  0.3082  0.2296
  923MOL0     C24510   3.939   9.934  10.043 -0.0169  0.0116 -0.1933
  923MOL0     C24511   3.939   9.955   9.890  0.9529 -0.3360  0.3201
  923MOL0     C24512   3.973  10.102   9.843 -1.6051  0.3315  0.2371
  923MOL0     C24513   3.985  10.112   9.696 -0.1046 -0.7034 -0.1510
  923MOL0     C24514   4.124  10.123   9.635 -0.0743 -0.3264 -0.3071
  923MOL0    Cl24515   4.216   9.973   9.671  0.1190 -0.2123  0.3215
  923MOL0     C24516   4.266   9.706  10.427 -0.3805 -2.2202  0.8974
  923MOL0     C24517   4.382   9.715  10.502 -0.0099  0.2110 -0.0523
  923MOL0     O24518   4.662   9.815  10.418  0.1246 -0.7612 -0.2369
  923MOL0     C24519   4.773   9.978  10.698 -0.4200 -0.3240 -0.6291
  923MOL0     C24520   4.876  10.026  10.776  0.2019  0.4173  0.0950
  923MOL0     N24521   4.983  10.423  10.971 -0.7710  0.8707 -0.4706
  923MOL0     N24522   4.871  10.374  11.014 -0.4145 -0.3688  0.3705
  923MOL0     C24523   5.491   9.729  11.268  0.1419  0.1422 -0.5535
  923MOL0     C24524   5.596   9.705  11.182  0.0195 -0.6226 -1.0663
  923MOL0     C24525   5.886   9.626  10.849 -0.0168  0.5342 -0.6135
  923MOL0     C24526   5.909   9.514  10.757  0.8163 -1.0066 -0.8902
  923MOL0     C24527   6.039   9.471  10.720  0.6158 -0.7328 -0.5318
  923MOL0     C24528   6.145   9.533  10.774  0.1655  0.7661 -0.3586
  923MOL0     O24529   6.267   9.499  10.721  0.0175  0.0925 -0.4359
  923MOL0     C24530   6.388   9.530  10.789  0.5062  0.6456 -0.3224
  923MOL0     C24531   6.431   9.431  10.895  0.1943  0.6475 -0.2981
  923MOL0     C24532   6.465   9.296  10.825  0.0700 -0.3178 -1.3351
  923MOL0     C24533   6.403   9.172  10.892 -0.4072 -0.2690  0.4389
  923MOL0     C24534   6.445   9.142  11.030  0.4086 -1.1896 -1.2174
  923MOL0     C24535   6.470   9.142  11.149  0.4347  0.3132 -0.6714
  923MOL0     C24536   6.129   9.645  10.861 -0.2497 -0.8626  0.2170
  923MOL0     C24537   6.000   9.687  10.903  0.5145 -0.4255 -0.2758
  923MOL0     H24538   5.508   9.888  10.907 -0.0533 -1.0531 -0.3326
  923MOL0     H24539   5.314   9.906  11.032  0.1591  0.5937 -0.3223
  923MOL0     H24540   5.122   9.947  11.169  0.8286  1.4631  2.9072
  923MOL0     H24541   5.136   9.781  11.107 -0.8815  1.6252 -0.4336
  923MOL0     H24542   5.041   9.706  11.346 -1.4644 -0.0878  0.4619
  923MOL0     H24543   5.013   9.872  11.379 -0.8646 -1.0031  0.5327
  923MOL0     H24544   4.876   9.681  11.189 -1.0140  0.7775  0.0132
  923MOL0     H24545   4.808   9.789  11.309 -0.1680  1.3279 -0.6983
  923MOL0     H24546   4.914   9.879  11.032  1.2463 -0.7579  0.8719
  923MOL0     H24547   4.743   9.868  11.085  0.1496 -1.5310 -0.7510
  923MOL0     H24548   4.955  10.035  11.218  1.0088  1.1110 -2.4799
  923MOL0     H24549   4.854  10.096  11.084  1.5474 -1.3450 -0.0364
  923MOL0     H24550   4.656  10.069  11.203 -0.1756 -3.3844  0.2849
  923MOL0     H24551   4.726   9.999  11.345  3.3092 -0.9800  0.1675
  923MOL0     H24552   4.696  10.229  11.399 -1.0358  0.0316 -2.0172
  923MOL0     H24553   4.869  10.220  11.365  1.3591  0.8884 -3.5254
  923MOL0     H24554   4.734  10.409  11.274 -0.7232  0.8849 -1.8988
  923MOL0     H24555   4.684  10.287  11.149  0.5613 -0.0423 -0.7274
  923MOL0     H24556   5.048  10.335  11.276  2.9794  1.4967 -1.0575
  923MOL0     H24557   5.262  10.510  11.064 -2.0784  0.4249 -3.4486
  923MOL0     H24558   5.262  10.370  11.175 -1.2175 -4.0256 -0.8732
  923MOL0     H24559   5.392  10.334  10.968  0.8032  2.1252 -0.1701
  923MOL0     H24560   5.260  10.364  10.862  0.5678  0.8036 -0.6010
  923MOL0     H24561   5.262  10.118  11.058 -2.3551 -1.0283 -0.4405
  923MOL0     H24562   5.329  10.118  10.902 -0.9612  0.0304 -0.6265
  923MOL0     H24563   5.072  10.206  10.838  0.7352  0.0111  0.7034
  923MOL0     H24564   5.041  10.118  10.989 -0.6778 -0.5443 -0.1569
  923MOL0     H24565   5.101   9.798  10.670 -0.4118  1.0623 -0.8183
  923MOL0     H24566   5.025   9.645  10.518 -1.3082 -1.0506  2.4737
  923MOL0     H24567   4.850   9.635  10.495 -0.0826  0.4546 -4.0603
  923MOL0     H24568   4.938   9.749  10.396  3.3849  2.5381  0.5085
  923MOL0     H24569   4.374  10.029  10.610  1.3707 -1.8071  0.9789
  923MOL0     H24570   4.163  10.028  10.481 -0.8582 -0.0450  0.6237
  923MOL0     H24571   4.080   9.648  10.215  0.2755  0.4124  0.3577
  923MOL0     H24572   3.994   9.647  10.375 -0.4084 -0.9588 -0.1947
  923MOL0     H24573   3.824   9.654  10.226  0.7895 -0.4763  0.6330
  923MOL0     H24574   3.848   9.822  10.272  1.0261 -1.0059 -0.1881
  923MOL0     H24575   3.826   9.768  10.001  0.9417 -0.4980 -0.6824
  923MOL0     H24576   3.993   9.729  10.016  0.3676  0.4943  0.3824
  923MOL0     H24577   3.889  10.007  10.108  0.5353  0.4163 -0.2180
  923MOL0     H24578   4.043   9.945  10.076 -0.3190 -1.2667  1.2911
  923MOL0     H24579   3.841   9.938   9.844  1.2813  2.1214 -1.4323
  923MOL0     H24580   4.007   9.882   9.845  0.8295 -0.3288  0.1228
  923MOL0     H24581   3.912  10.181   9.889  1.6035  3.4155 -0.4263
  923MOL0     H24582   4.073  10.123   9.882 -1.0741 -1.5431  0.0140
  923MOL0     H24583   3.930  10.203   9.670  1.3529 -0.5354 -3.0973
  923MOL0     H24584   3.920  10.038   9.647  0.6634 -0.8997 -0.8998
  923MOL0     H24585   4.179  10.205   9.683 -1.1477  0.2472 -0.0394
  923MOL0     H24586   4.116  10.148   9.529  1.9999 -0.7011 -0.6044
  923MOL0     H24587   4.243   9.613  10.375 -0.3055 -0.7839 -1.8737
  923MOL0     H24588   4.452   9.632  10.514  0.2213  0.1034 -1.8694
  923MOL0     H24589   4.678  10.030  10.711  1.6398  3.3893  1.2732
  923MOL0     H24590   4.853  10.119  10.829  1.3323  0.1233  1.1287
  923MOL0     H24591   5.475   9.676  11.361 -0.2155 -1.8078 -1.6682
  923MOL0     H24592   5.670   9.632  11.213  0.6854 -0.5281 -2.3284
  923MOL0     H24593   5.820   9.464  10.720  0.9038 -1.5967 -0.3178
  923MOL0     H24594   6.045   9.381  10.660  0.3614 -0.4431 -0.9870
  923MOL0     H24595   6.460   9.541  10.708 -0.4931  1.9037 -1.0667
  923MOL0     H24596   6.390   9.617  10.855  0.8725  0.3992 -0.0030
  923MOL0     H24597   6.355   9.415  10.973  2.2015 -0.3605  1.5719
  923MOL0     H24598   6.516   9.467  10.954  0.1544  2.5232 -1.3307
  923MOL0     H24599   6.573   9.280  10.824 -0.0462 -1.1576 -1.1109
  923MOL0     H24600   6.431   9.296  10.721  0.0239 -0.5016 -1.3196
  923MOL0     H24601   6.434   9.083  10.836 -0.5557  2.1149 -3.8152
  923MOL0     H24602   6.294   9.185  10.893 -0.4053 -0.0796  2.3085
  923MOL0     H24603   6.491   9.128  11.253 -0.1632 -0.0638 -0.5971
  923MOL0     H24604   6.210   9.707  10.897 -1.0170  0.8150 -0.8423
  923MOL0     H24605   5.983   9.772  10.967  0.3386 -0.2645 -0.5304
  924MOL0     O24606   5.001   9.318   4.431 -0.9135 -1.0876 -0.5275
  924MOL0     C24607   4.923   9.226   4.417 -0.9539 -0.0894 -0.4204
  924MOL0     O24608   4.944   9.121   4.337 -0.2699 -0.0494 -0.0315
  924MOL0     C24609   5.067   9.122   4.268  0.1855 -0.0301  0.3917
  924MOL0     C24610   5.068   9.127   4.132  0.2933 -0.2226 -0.2381
  924MOL0     C24611   5.190   9.134   4.062 -0.0531  0.1155  0.0344
  924MOL0     C24612   5.317   9.134   4.132  0.0466  0.3475  0.2213
  924MOL0     O24613   5.438   9.142   4.076 -0.3643 -0.2919 -0.5348
  924MOL0     C24614   5.446   9.132   3.935 -0.4520  0.2411 -0.0968
  924MOL0     C24615   5.582   9.152   3.896 -0.0981  1.1178  0.7528
  924MOL0     C24616   5.672   9.253   3.970 -0.9957 -0.3834  0.0555
  924MOL0     C24617   5.790   9.306   3.877 -0.2068  0.0746 -0.4577
  924MOL0     C24618   5.877   9.417   3.944 -0.4191 -1.0168 -0.2037
  924MOL0     C24619   5.791   9.543   3.980 -0.3822  0.8166 -0.2593
  924MOL0     C24620   5.867   9.673   3.979 -0.5158 -0.8168 -0.0191
  924MOL0     C24621   5.942   9.704   4.109  0.3063  0.1619 -0.7840
  924MOL0     N24622   6.073   9.632   4.127  0.2897 -0.5503  0.0167
  924MOL0     C24623   6.190   9.643   4.049 -0.3717 -0.2109 -0.1459
  924MOL0     C24624   6.277   9.582   4.124 -0.9879  0.0809  0.2484
  924MOL0     C24625   6.425   9.556   4.115  0.2070  0.3515 -0.5734
  924MOL0     C24626   6.458   9.408   4.088  0.1768  0.5092  0.3195
  924MOL0     C24627   6.382   9.361   3.956 -0.0374 -0.6858 -0.7545
  924MOL0     C24628   6.353   9.214   3.957  0.4118  0.4360 -0.1105
  924MOL0     O24629   6.454   9.134   4.022  0.5107  0.8623  0.1538
  924MOL0     C24630   6.581   9.114   3.977 -0.2139 -0.4819  0.2727
  924MOL0     C24631   6.684   9.065   4.053  0.4572  0.2756 -1.0806
  924MOL0     C24632   6.816   9.055   4.002 -1.2271 -0.1497 -0.4506
  924MOL0     C24633   6.910   8.979   4.099  0.6420 -0.8751  0.2594
  924MOL0     C24634   6.849   9.098   3.866 -0.0782 -0.1896  0.0389
  924MOL0     C24635   6.991   9.085   3.799  0.5447  0.4614  0.4698
  924MOL0     O24636   7.098   9.086   3.883  0.1940 -0.4232 -0.1069
  924MOL0     C24637   7.218   9.074   3.824 -0.2647  0.4444  0.7497
  924MOL0     C24638   7.282   9.166   3.721 -0.3175  1.0723 -0.1300
  924MOL0     C24639   7.425   9.158   3.692 -0.5771 -0.7333  0.1350
  924MOL0     C24640   7.511   9.074   3.760  0.3150  0.1646  0.7143
  924MOL0     O24641   7.639   9.077   3.733 -0.5029 -0.2104 -0.0624
  924MOL0     C24642   7.695   9.197   3.668  0.6523 -0.2451  0.4990
  924MOL0     C24643   7.840   9.185   3.681 -1.0995 -0.1802  0.5835
  924MOL0     C24644   7.932   9.260   3.585  0.1473  0.1436  0.4435
  924MOL0     C24645   8.076   9.243   3.632 -0.1010 -0.3040 -0.8113
  924MOL0     C24646   8.163   9.280   3.522  0.6519 -0.0833  1.1092
  924MOL0     C24647   8.304   9.316   3.549 -0.6605 -0.5909 -0.7445
  924MOL0     C24648   8.384   9.202   3.597  0.4224  0.0232 -1.1797
  924MOL0     C24649   8.476   9.145   3.478  0.7742 -0.2472 -0.2551
  924MOL0    Cl24650   8.633   9.234   3.470 -0.0842  0.0217 -0.5347
  924MOL0     C24651   7.447   8.983   3.854  0.0689 -0.3041  0.3736
  924MOL0     C24652   7.309   8.985   3.885 -0.3605 -0.7938  0.3626
  924MOL0     O24653   6.991   9.095   3.678 -0.0005 -0.0411 -0.2441
  924MOL0     C24654   6.749   9.157   3.796 -0.4818 -0.8211 -0.6385
  924MOL0     C24655   6.626   9.166   3.852  0.1310 -0.3105 -0.0605
  924MOL0     N24656   6.218   9.520   4.230 -0.7291  0.1708  0.2772
  924MOL0     N24657   6.095   9.553   4.236  0.1078  0.0989  0.6166
  924MOL0     C24658   5.316   9.125   4.267  0.3562  0.0528 -0.8840
  924MOL0     C24659   5.194   9.110   4.335  0.6871  0.3545 -0.6963
  924MOL0     C24660   4.809   9.228   4.509  1.1782 -0.2400 -0.1321
  924MOL0     C24661   4.812   9.286   4.635 -0.0131  0.3065  0.7784
  924MOL0     C24662   4.694   9.321   4.705 -0.0606  0.1219  0.3347
  924MOL0     C24663   4.571   9.276   4.662 -0.0254 -0.1657  0.0589
  924MOL0     O24664   4.459   9.304   4.734 -0.2121  0.6447 -0.2701
  924MOL0     C24665   4.460   9.257   4.862 -0.7148 -0.6580  0.0683
  924MOL0     C24666   4.313   9.224   4.904 -0.6169  0.8063  0.3149
  924MOL0     C24667   4.291   9.179   5.052  0.8208 -0.4802 -0.1369
  924MOL0     C24668   4.243   9.286   5.150 -0.2217  0.4127 -0.6134
  924MOL0     C24669   4.349   9.376   5.198 -0.0020  0.0471 -0.2254
  924MOL0     C24670   4.443   9.457   5.227 -0.0701  0.0351  0.5191
  924MOL0     C24671   4.575   9.197   4.546  0.2765  0.4353 -0.6687
  924MOL0     C24672   4.686   9.173   4.465  0.1236  1.4207  0.1749
  924MOL0     H24673   4.973   9.101   4.085  0.0793  0.7790 -0.3920
  924MOL0     H24674   5.199   9.130   3.954  2.7656 -0.4915  0.2143
  924MOL0     H24675   5.407   9.034   3.905  0.2849 -0.3689  0.8782
  924MOL0     H24676   5.387   9.202   3.875  1.0859 -0.3004 -2.3676
  924MOL0     H24677   5.625   9.052   3.895 -1.3762  0.5350 -0.8771
  924MOL0     H24678   5.576   9.188   3.792  0.2694  2.3185  1.1263
  924MOL0     H24679   5.622   9.348   3.993 -1.1720 -0.4776  0.0633
  924MOL0     H24680   5.726   9.213   4.056 -0.8609  4.4440  2.5728
  924MOL0     H24681   5.855   9.221   3.855  0.5466  0.9473 -1.8188
  924MOL0     H24682   5.745   9.342   3.784 -1.6200  3.2720  1.2935
  924MOL0     H24683   5.916   9.389   4.042 -0.4995  1.8594  0.7522
  924MOL0     H24684   5.961   9.444   3.879  1.1834 -2.5840  1.1109
  924MOL0     H24685   5.716   9.555   3.901  2.1276 -0.3953 -3.0460
  924MOL0     H24686   5.742   9.532   4.077 -2.5532 -0.2492 -1.4050
  924MOL0     H24687   5.934   9.668   3.893 -1.2858  0.1127 -0.7003
  924MOL0     H24688   5.812   9.763   3.949  4.1251  2.9913  1.5751
  924MOL0     H24689   5.872   9.685   4.192  1.4048 -0.1504  0.1039
  924MOL0     H24690   5.946   9.813   4.114 -1.9928  0.2796 -0.5336
  924MOL0     H24691   6.209   9.682   3.950  3.3750 -0.2114  0.4438
  924MOL0     H24692   6.463   9.615   4.031  3.2311 -0.4681  0.0952
  924MOL0     H24693   6.465   9.589   4.211 -0.2249  0.4511 -0.4290
  924MOL0     H24694   6.419   9.345   4.168 -0.0648 -0.1611 -0.3100
  924MOL0     H24695   6.566   9.392   4.078 -0.3149 -2.3442 -1.8740
  924MOL0     H24696   6.451   9.386   3.875  1.6230  0.0134  0.8109
  924MOL0     H24697   6.285   9.404   3.930  0.6334  0.9286 -0.6840
  924MOL0     H24698   6.326   9.178   3.857  0.2079 -1.1530  0.4741
  924MOL0     H24699   6.257   9.194   4.007 -0.0518  0.6795 -0.8787
  924MOL0     H24700   6.656   9.023   4.149  1.2831 -0.1556 -1.0242
  924MOL0     H24701   6.854   8.920   4.172 -4.0337  1.6732 -0.9137
  924MOL0     H24702   6.974   8.913   4.039 -0.7438 -0.9021 -1.2665
  924MOL0     H24703   6.967   9.053   4.155 -0.4927 -1.3511  2.1176
  924MOL0     H24704   7.214   9.240   3.678  1.2088  3.3945  1.2153
  924MOL0     H24705   7.448   9.220   3.605 -3.3014  0.5987  0.2675
  924MOL0     H24706   7.670   9.192   3.561  0.0633  0.4206  0.5951
  924MOL0     H24707   7.656   9.290   3.711 -0.5319 -0.8355  0.7476
  924MOL0     H24708   7.863   9.221   3.782 -2.1932 -2.2009  1.6170
  924MOL0     H24709   7.870   9.080   3.674  3.8175  1.0730 -1.7769
  924MOL0     H24710   7.906   9.366   3.570 -1.1988 -0.3968 -1.3762
  924MOL0     H24711   7.922   9.209   3.489 -1.1110  0.2152  0.5157
  924MOL0     H24712   8.098   9.301   3.722  4.4733 -1.4230 -0.9506
  924MOL0     H24713   8.095   9.140   3.661 -2.5783 -0.5670  0.1783
  924MOL0     H24714   8.123   9.366   3.468 -0.7138 -1.4783 -0.1921
  924MOL0     H24715   8.170   9.200   3.447 -0.4811 -0.0096  0.9163
  924MOL0     H24716   8.344   9.350   3.453  0.3595 -0.7607 -0.3886
  924MOL0     H24717   8.301   9.399   3.621 -0.5144 -1.3236  0.1128
  924MOL0     H24718   8.319   9.125   3.639 -1.2925  1.6611 -0.6857
  924MOL0     H24719   8.452   9.233   3.677 -3.0734 -3.3235  3.6951
  924MOL0     H24720   8.428   9.158   3.380  1.2279  1.2982 -0.3066
  924MOL0     H24721   8.497   9.038   3.475 -2.4603 -1.0052 -0.4767
  924MOL0     H24722   7.514   8.910   3.899  0.1302 -2.2089 -2.5388
  924MOL0     H24723   7.271   8.921   3.964  1.2569 -0.5689  1.3515
  924MOL0     H24724   6.772   9.195   3.697 -0.0392  0.2649 -0.1433
  924MOL0     H24725   6.551   9.204   3.783  1.3353 -0.8722 -1.7539
  924MOL0     H24726   5.412   9.125   4.317 -0.1915 -0.7668  0.2119
  924MOL0     H24727   5.179   9.106   4.442 -1.8471 -1.8156 -1.0325
  924MOL0     H24728   4.914   9.299   4.667 -0.2762 -1.8995  2.7429
  924MOL0     H24729   4.705   9.376   4.798 -1.3550 -0.0049  0.5854
  924MOL0     H24730   4.533   9.176   4.868  0.9158  0.6872 -0.6415
  924MOL0     H24731   4.481   9.348   4.919 -5.2301  0.5302  0.2179
  924MOL0     H24732   4.279   9.139   4.845 -0.1449  0.9239 -0.1343
  924MOL0     H24733   4.241   9.305   4.892 -0.8697  1.0483  2.7950
  924MOL0     H24734   4.383   9.131   5.086  0.3400  0.0393  2.0077
  924MOL0     H24735   4.226   9.091   5.053 -1.8954  1.4158  0.1793
  924MOL0     H24736   4.192   9.246   5.238  0.2604 -1.7399 -1.2772
  924MOL0     H24737   4.163   9.349   5.108  0.8295  3.1034  1.1759
  924MOL0     H24738   4.519   9.520   5.265 -1.3001  0.7641  1.8518
  924MOL0     H24739   4.482   9.150   4.514  1.4208 -1.3553 -1.5519
  924MOL0     H24740   4.669   9.121   4.372  1.3278  2.4674 -0.6628
  925MOL0     O24741   6.336   8.736   4.156  0.3660  0.4625  0.4128
  925MOL0     C24742   6.340   8.773   4.040  0.1392  0.2790 -0.3205
  925MOL0     O24743   6.232   8.831   3.975  0.6629  0.9551  0.4923
  925MOL0     C24744   6.127   8.884   4.043 -0.0433  0.0500 -0.2607
  925MOL0     C24745   6.148   8.981   4.145 -0.2038  0.1594 -0.5098
  925MOL0     C24746   6.048   9.041   4.220  0.0029 -0.0179  0.5259
  925MOL0     C24747   5.913   8.998   4.194  0.3672  0.7120 -0.3043
  925MOL0     O24748   5.798   9.053   4.251  0.4695 -0.1230 -0.0587
  925MOL0     C24749   5.830   9.117   4.370  0.8686 -0.2850 -0.6364
  925MOL0     C24750   5.702   9.144   4.458  0.1369 -0.2471  0.1726
  925MOL0     C24751   5.619   9.017   4.487 -0.4914  0.0436 -0.5529
  925MOL0     C24752   5.525   9.029   4.605  0.1244  0.2297  0.3415
  925MOL0     C24753   5.466   8.902   4.652  0.4261 -0.1749  0.2108
  925MOL0     C24754   5.356   8.897   4.762  0.2340  0.4795 -0.1613
  925MOL0     C24755   5.230   8.980   4.725  0.3531  0.6226 -0.8372
  925MOL0     C24756   5.124   8.952   4.836  0.2894 -0.0844 -1.0842
  925MOL0     N24757   5.074   8.816   4.825  0.4137 -0.1172  0.1861
  925MOL0     C24758   5.107   8.713   4.911  0.0059 -0.1658  0.0440
  925MOL0     C24759   5.039   8.599   4.875  0.3448 -0.0703 -0.7859
  925MOL0     C24760   5.033   8.467   4.954  0.5450  0.6501  0.0264
  925MOL0     C24761   4.913   8.369   4.931 -0.4238 -0.1366  0.1988
  925MOL0     C24762   4.772   8.443   4.948 -0.2322  0.0629  0.1921
  925MOL0     C24763   4.762   8.546   5.063 -0.6506  0.8109  0.5060
  925MOL0     O24764   4.628   8.585   5.102 -0.0224  0.5035 -0.0378
  925MOL0     C24765   4.542   8.659   5.016  0.4785 -0.7848  0.7250
  925MOL0     C24766   4.579   8.730   4.897  0.6086  0.5945 -0.4418
  925MOL0     C24767   4.492   8.794   4.812  0.0090 -0.5700  0.0550
  925MOL0     C24768   4.551   8.871   4.694 -0.2401  0.0060  0.5001
  925MOL0     C24769   4.354   8.780   4.842 -0.2331 -0.4588 -0.2837
  925MOL0     C24770   4.241   8.850   4.765 -0.4026  0.3817 -0.0497
  925MOL0     O24771   4.120   8.884   4.826 -0.1944  0.3451  0.1940
  925MOL0     C24772   4.019   8.959   4.766 -0.0279  0.6156 -0.0763
  925MOL0     C24773   4.044   9.065   4.677 -0.8311  0.9775 -0.1184
  925MOL0     C24774   3.940   9.118   4.610 -0.6202 -1.0040 -0.6540
  925MOL0     C24775   3.805   9.068   4.612 -0.5864 -0.4105 -0.0389
  925MOL0     O24776   3.715   9.134   4.528  0.4708  0.4360  0.1927
  925MOL0     C24777   3.579   9.118   4.562  0.0597 -0.1265 -1.0520
  925MOL0     C24778   3.500   9.190   4.457  0.8085 -0.5175 -1.0801
  925MOL0     C24779   3.348   9.213   4.488  0.2551 -0.5159 -0.6177
  925MOL0     C24780   3.245   9.191   4.367 -0.0302  0.0367 -0.2233
  925MOL0     C24781   3.127   9.289   4.390  0.1298  0.0354  0.0135
  925MOL0     C24782   3.021   9.247   4.284  0.0674 -0.0645  0.2512
  925MOL0     C24783   2.907   9.345   4.274  0.4434 -0.8791 -0.1041
  925MOL0     C24784   2.799   9.312   4.181  0.5955 -1.0148  0.2380
  925MOL0    Cl24785   2.694   9.191   4.253  0.2233 -0.1045 -0.0178
  925MOL0     C24786   3.782   8.962   4.700 -0.0215 -0.4528 -0.5585
  925MOL0     C24787   3.889   8.914   4.786  0.1161 -0.3683 -0.3657
  925MOL0     O24788   4.264   8.873   4.649 -0.2598 -0.2429 -0.7921
  925MOL0     C24789   4.316   8.715   4.960  0.2273 -0.1561 -0.3506
  925MOL0     C24790   4.407   8.654   5.043  0.1758 -0.3051 -0.2847
  925MOL0     N24791   4.969   8.640   4.759  0.2954  0.5540  0.6108
  925MOL0     N24792   4.986   8.765   4.737 -0.2725 -0.1737  0.3840
  925MOL0     C24793   5.886   8.898   4.100  0.2986 -0.4541  0.0336
  925MOL0     C24794   5.995   8.842   4.030 -0.3399 -0.2543 -0.1187
  925MOL0     C24795   6.472   8.763   3.975 -0.6962  0.4632  0.0450
  925MOL0     C24796   6.590   8.711   4.039 -0.8014  0.0173 -0.7565
  925MOL0     C24797   6.720   8.718   3.978  0.7042  0.0907 -0.5851
  925MOL0     C24798   6.732   8.753   3.840  0.0013 -0.4689  0.7570
  925MOL0     O24799   6.849   8.767   3.762 -0.0690  0.5259  0.1762
  925MOL0     C24800   6.965   8.695   3.811 -0.1609  0.3427  1.7076
  925MOL0     C24801   6.951   8.541   3.787 -0.3210 -0.7241 -0.3940
  925MOL0     C24802   6.934   8.500   3.648  0.1291 -0.0251 -0.2095
  925MOL0     C24803   7.033   8.557   3.549  0.2776  0.9614  0.4341
  925MOL0     C24804   7.159   8.482   3.570 -0.3712 -0.4463  0.4994
  925MOL0     C24805   7.253   8.417   3.571 -0.5632  0.3345 -0.2433
  925MOL0     C24806   6.608   8.795   3.778 -0.6497  0.0194  0.3557
  925MOL0     C24807   6.483   8.806   3.840  0.3229  0.0647  0.2448
  925MOL0     H24808   6.251   9.013   4.157 -0.4049  1.1446 -1.2520
  925MOL0     H24809   6.080   9.114   4.294  0.0013  0.9822 -0.4397
  925MOL0     H24810   5.884   9.062   4.448 -1.3186  0.7110  1.7256
  925MOL0     H24811   5.871   9.216   4.345 -0.4694  0.5896  0.4765
  925MOL0     H24812   5.744   9.192   4.547  1.2912 -1.1267  0.1382
  925MOL0     H24813   5.639   9.215   4.404  0.7492  0.5292  0.4441
  925MOL0     H24814   5.577   8.971   4.397  0.8669  0.8288 -1.6252
  925MOL0     H24815   5.686   8.938   4.521 -1.7785 -2.7842 -3.9388
  925MOL0     H24816   5.591   9.071   4.681 -0.7660  2.5788 -0.1178
  925MOL0     H24817   5.440   9.093   4.580 -0.8550 -1.6835 -1.6650
  925MOL0     H24818   5.429   8.853   4.562 -3.9375  0.6843  1.2937
  925MOL0     H24819   5.550   8.839   4.683  0.7273  0.1192 -0.0052
  925MOL0     H24820   5.342   8.791   4.788  2.9373  0.1920  0.3265
  925MOL0     H24821   5.410   8.949   4.841  1.9983  0.5731 -1.3804
  925MOL0     H24822   5.261   9.085   4.737  2.7214  0.0505 -1.4345
  925MOL0     H24823   5.196   8.962   4.623  0.4762  2.8659 -1.3319
  925MOL0     H24824   5.037   9.018   4.834  0.0361 -0.3253  0.4691
  925MOL0     H24825   5.162   8.970   4.937  0.1857 -0.1847 -1.0264
  925MOL0     H24826   5.165   8.744   4.998 -2.0227  2.5996  0.5498
  925MOL0     H24827   5.126   8.412   4.935  2.3560  3.4127  0.4205
  925MOL0     H24828   5.030   8.494   5.060  1.5209 -2.2874  0.9182
  925MOL0     H24829   4.925   8.285   5.000 -1.5205  0.1728  0.7863
  925MOL0     H24830   4.915   8.335   4.826 -0.6781  0.2923  0.0540
  925MOL0     H24831   4.705   8.357   4.960 -1.2182  1.0452  2.3095
  925MOL0     H24832   4.747   8.493   4.854 -3.0267 -1.2258  0.1386
  925MOL0     H24833   4.819   8.634   5.032  1.0647 -0.2816  0.4399
  925MOL0     H24834   4.807   8.494   5.148 -0.8460 -2.1252 -1.0458
  925MOL0     H24835   4.681   8.726   4.858  1.0932 -2.1407  0.8858
  925MOL0     H24836   4.517   8.974   4.684 -1.0284 -0.4755 -2.6451
  925MOL0     H24837   4.660   8.878   4.691 -0.2643  0.2287 -2.2237
  925MOL0     H24838   4.520   8.820   4.602  0.0205  0.6637  0.0427
  925MOL0     H24839   4.147   9.097   4.663  0.1805 -1.5392  1.0042
  925MOL0     H24840   3.968   9.209   4.558 -0.0664  0.9753  2.7949
  925MOL0     H24841   3.539   9.016   4.568 -2.2105  0.7078 -0.9268
  925MOL0     H24842   3.568   9.162   4.661 -1.1193 -1.0858 -0.7326
  925MOL0     H24843   3.529   9.294   4.439  0.3229 -0.2249 -0.1864
  925MOL0     H24844   3.503   9.129   4.365  1.5657 -3.3921  0.7162
  925MOL0     H24845   3.341   9.308   4.542  0.8581 -0.6822 -0.2249
  925MOL0     H24846   3.319   9.135   4.559 -3.1741 -1.5042 -2.8661
  925MOL0     H24847   3.294   9.218   4.273  1.1964  2.6325  1.0312
  925MOL0     H24848   3.212   9.087   4.359  0.9668 -0.3152  0.0546
  925MOL0     H24849   3.162   9.392   4.387 -0.0855  0.0888 -1.4131
  925MOL0     H24850   3.082   9.275   4.489  2.1826 -0.8475  0.8746
  925MOL0     H24851   3.056   9.255   4.181  0.8974 -1.2542  0.4227
  925MOL0     H24852   2.984   9.146   4.306 -1.5662  1.2422  4.5214
  925MOL0     H24853   2.946   9.445   4.252 -2.7753  1.3093  2.9852
  925MOL0     H24854   2.853   9.356   4.369 -0.2652 -2.6602 -0.2579
  925MOL0     H24855   2.844   9.286   4.085 -0.4684 -0.0819 -0.5414
  925MOL0     H24856   2.746   9.406   4.162  0.6633 -0.9961  0.1454
  925MOL0     H24857   3.681   8.925   4.715 -0.8156  0.9279 -2.1692
  925MOL0     H24858   3.867   8.844   4.866 -2.8352  1.1732  0.3199
  925MOL0     H24859   4.211   8.704   4.983  0.2619 -2.8830 -1.2342
  925MOL0     H24860   4.384   8.599   5.134 -3.1231  1.8120  0.3400
  925MOL0     H24861   5.782   8.877   4.074  1.0347 -1.3714 -2.5434
  925MOL0     H24862   5.987   8.779   3.942  1.9429  1.9484 -2.0614
  925MOL0     H24863   6.580   8.663   4.135  0.1624  0.9227 -0.1781
  925MOL0     H24864   6.811   8.677   4.021  0.9118  0.6122 -0.5123
  925MOL0     H24865   7.054   8.728   3.757 -0.0381  0.5432  2.0298
  925MOL0     H24866   6.993   8.716   3.915  2.5337 -0.1011  1.1511
  925MOL0     H24867   6.864   8.504   3.841  0.4579 -2.0070  0.0353
  925MOL0     H24868   7.038   8.485   3.825  1.0266  0.6603 -1.3110
  925MOL0     H24869   6.836   8.534   3.614 -0.7430  2.6650  4.1945
  925MOL0     H24870   6.931   8.392   3.634  2.8929 -0.5560  2.2137
  925MOL0     H24871   7.040   8.666   3.545  1.9219  0.8459 -1.3817
  925MOL0     H24872   6.997   8.531   3.448  0.3313 -1.8027  1.0310
  925MOL0     H24873   7.330   8.344   3.589 -1.5878 -0.7580 -0.1659
  925MOL0     H24874   6.610   8.815   3.671  0.4752  0.7687  0.5007
  925MOL0     H24875   6.393   8.828   3.783  0.3997 -1.9894 -0.7490
  926MOL0     O24876   2.234   6.082   5.679  0.7332 -0.1985 -0.1113
  926MOL0     C24877   2.325   6.152   5.633 -0.1004  0.7039  0.3066
  926MOL0     O24878   2.315   6.229   5.517  0.2615  1.1098  0.5439
  926MOL0     C24879   2.226   6.185   5.421 -0.2725  0.2459  0.4573
  926MOL0     C24880   2.272   6.118   5.305  0.9452  0.3786  0.0249
  926MOL0     C24881   2.181   6.069   5.213 -0.1022 -0.8341  0.8266
  926MOL0     C24882   2.044   6.092   5.221 -0.3780 -0.8945 -0.4603
  926MOL0     O24883   1.952   6.046   5.129  0.5132  0.0485  0.4634
  926MOL0     C24884   1.995   6.009   4.997 -0.8661  0.4694  0.4982
  926MOL0     C24885   1.889   5.945   4.909  0.8154 -0.5055  0.1751
  926MOL0     C24886   1.773   6.042   4.878 -0.4432 -0.0946  0.0762
  926MOL0     C24887   1.647   5.974   4.824  0.0182 -0.5279 -0.0437
  926MOL0     C24888   1.551   6.086   4.770 -0.1211  0.3824  0.6001
  926MOL0     C24889   1.405   6.036   4.777  0.6524 -0.2045 -0.4216
  926MOL0     C24890   1.341   6.023   4.915 -0.1076  0.3275 -0.2886
  926MOL0     C24891   1.233   5.921   4.922  0.9099 -0.0800 -0.3187
  926MOL0     N24892   1.118   5.945   4.831 -0.0712 -0.0165  0.4718
  926MOL0     C24893   1.014   6.035   4.842  0.1486  0.2989 -0.5192
  926MOL0     C24894   0.953   6.046   4.728  0.3589 -0.1030 -0.2621
  926MOL0     C24895   0.865   6.154   4.678  0.4467  0.3778 -0.9290
  926MOL0     C24896   0.755   6.189   4.767  0.8763 -0.0879  0.5620
  926MOL0     C24897   0.668   6.064   4.800  0.0888 -0.3572  0.1627
  926MOL0     C24898   0.525   6.099   4.837 -0.7786 -0.3706 -0.3141
  926MOL0     O24899   0.486   5.997   4.926 -0.2361  0.8593  0.5432
  926MOL0     C24900   0.353   5.983   4.955 -0.7344 -0.5014 -0.5334
  926MOL0     C24901   0.325   5.880   5.043 -0.3531 -0.0246 -0.5877
  926MOL0     C24902   0.195   5.836   5.079  0.4951  0.2045 -0.9209
  926MOL0     C24903   0.182   5.732   5.189  0.3212  0.3186 -0.0784
  926MOL0     C24904   0.087   5.907   5.019  0.6148  0.8604 -0.2432
  926MOL0     C24905  -0.059   5.877   5.051 -0.0286 -1.0456  0.2336
  926MOL0     O24906  -0.082   5.869   5.189 -0.1958  0.1046  0.4868
  926MOL0     C24907  -0.213   5.831   5.227 -0.9332  0.4278 -0.3266
  926MOL0     C24908  -0.323   5.909   5.202  0.2098  0.6994  0.1185
  926MOL0     C24909  -0.457   5.866   5.229  0.0773  0.0723 -0.4530
  926MOL0     C24910  -0.482   5.753   5.304 -0.4141 -0.0815 -0.6339
  926MOL0     O24911  -0.611   5.721   5.328 -0.1892 -0.5963 -0.7554
  926MOL0     C24912  -0.635   5.596   5.384  0.7261 -0.2677  0.0685
  926MOL0     C24913  -0.784   5.569   5.348 -0.4216 -0.2200  0.5213
  926MOL0     C24914  -0.815   5.562   5.195 -1.7164 -0.5264 -0.9262
  926MOL0     C24915  -0.957   5.603   5.156  0.0911 -0.5093 -0.0036
  926MOL0     C24916  -1.037   5.485   5.103 -0.0938  0.1388  0.8110
  926MOL0     C24917  -1.183   5.506   5.078 -0.1709 -0.0954 -0.1772
  926MOL0     C24918  -1.241   5.374   5.018  0.1709  0.0984 -0.6477
  926MOL0     C24919  -1.382   5.414   4.954 -1.3413  0.6361  0.0363
  926MOL0    Cl24920  -1.509   5.463   5.079  0.3198 -0.0506  0.0101
  926MOL0     C24921  -0.366   5.675   5.345 -0.4388  0.3578 -0.0289
  926MOL0     C24922  -0.240   5.716   5.312  0.1226  0.1143  0.4803
  926MOL0     O24923  -0.148   5.886   4.965 -0.4802  0.5833  0.6749
  926MOL0     C24924   0.115   6.012   4.930 -0.1310  0.3077  0.1191
  926MOL0     C24925   0.247   6.041   4.892  0.9181  0.1332  0.9201
  926MOL0     N24926   1.007   5.950   4.646 -0.2265 -0.6930 -0.3349
  926MOL0     N24927   1.096   5.879   4.713 -0.5645 -0.8187  0.0174
  926MOL0     C24928   1.992   6.164   5.328 -0.0906 -0.3175  0.5709
  926MOL0     C24929   2.086   6.203   5.433  0.6713  0.5373  0.1275
  926MOL0     C24930   2.449   6.150   5.713  0.1474 -0.9088 -0.8789
  926MOL0     C24931   2.546   6.253   5.696  0.3855  0.4395 -0.8017
  926MOL0     C24932   2.667   6.246   5.763  0.0976  0.5133  0.3521
  926MOL0     C24933   2.696   6.142   5.855 -0.2543 -0.1396  0.8400
  926MOL0     O24934   2.815   6.131   5.917 -0.5579 -0.0201  0.0007
  926MOL0     C24935   2.919   6.225   5.896  0.4508 -0.1259  0.0810
  926MOL0     C24936   3.040   6.178   5.986  0.5504  0.8915 -0.8798
  926MOL0     C24937   2.987   6.191   6.134 -0.6889  0.2391  0.2742
  926MOL0     C24938   3.102   6.159   6.233  0.2852 -0.2726  0.2252
  926MOL0     C24939   3.065   6.197   6.363  0.9220  0.3118 -0.7879
  926MOL0     C24940   3.034   6.228   6.474 -0.2946 -0.0256 -0.7308
  926MOL0     C24941   2.597   6.038   5.879  0.2941  0.4538 -0.6502
  926MOL0     C24942   2.467   6.047   5.808 -0.2152 -0.3089 -0.2239
  926MOL0     H24943   2.377   6.095   5.294  0.4391 -1.2405 -1.8182
  926MOL0     H24944   2.229   6.000   5.144  1.8018  1.3318 -0.1403
  926MOL0     H24945   2.032   6.099   4.946 -0.5528 -0.7080 -1.4562
  926MOL0     H24946   2.083   5.945   5.009 -0.2456  0.9645 -1.0757
  926MOL0     H24947   1.948   5.912   4.823  1.2604 -2.5570  1.1912
  926MOL0     H24948   1.841   5.861   4.961  2.1578 -1.3907  0.0254
  926MOL0     H24949   1.757   6.094   4.973  6.7644  3.4803 -0.0134
  926MOL0     H24950   1.818   6.110   4.805  0.0094  2.8899  2.9293
  926MOL0     H24951   1.663   5.904   4.742 -5.1800 -2.0354 -0.1244
  926MOL0     H24952   1.602   5.911   4.901 -1.7227 -0.1600 -0.7152
  926MOL0     H24953   1.554   6.181   4.823 -0.0932  0.3097  0.7288
  926MOL0     H24954   1.573   6.115   4.667  1.6808  1.0460  1.1475
  926MOL0     H24955   1.327   6.097   4.729 -2.5275 -0.0211  4.2442
  926MOL0     H24956   1.398   5.938   4.730 -0.5251  0.0870 -0.9085
  926MOL0     H24957   1.419   5.984   4.981  0.1219  1.2993  0.0330
  926MOL0     H24958   1.310   6.120   4.955  2.4139  0.1011  2.5916
  926MOL0     H24959   1.185   5.918   5.021 -2.5889  1.9098 -1.7722
  926MOL0     H24960   1.281   5.824   4.904 -0.1342 -0.9724  1.3711
  926MOL0     H24961   0.995   6.099   4.928  1.5834 -0.1174  0.1257
  926MOL0     H24962   0.935   6.237   4.666  0.9040  0.1225 -0.1088
  926MOL0     H24963   0.822   6.124   4.582 -0.7163  3.2433 -1.4069
  926MOL0     H24964   0.687   6.253   4.709 -1.9971  0.1913  3.8928
  926MOL0     H24965   0.802   6.240   4.851 -0.1795  0.8451  0.6248
  926MOL0     H24966   0.717   6.011   4.882  0.9920 -0.0377 -0.1658
  926MOL0     H24967   0.665   5.996   4.714  1.1329  2.1958 -2.0397
  926MOL0     H24968   0.469   6.105   4.743 -0.8637  1.6227 -0.1967
  926MOL0     H24969   0.516   6.184   4.906 -0.1475 -2.7767  2.9344
  926MOL0     H24970   0.408   5.836   5.097 -0.9552  2.7025  2.8550
  926MOL0     H24971   0.121   5.656   5.141  2.3669 -0.7203 -1.1681
  926MOL0     H24972   0.281   5.693   5.213  2.0634  2.6005 -2.7635
  926MOL0     H24973   0.128   5.771   5.276 -0.6134 -1.2835  0.0839
  926MOL0     H24974  -0.311   6.002   5.147 -1.8454  0.8375 -0.1919
  926MOL0     H24975  -0.541   5.927   5.199 -1.1597 -2.1347 -1.7606
  926MOL0     H24976  -0.585   5.511   5.338  0.8051 -1.1549  1.7161
  926MOL0     H24977  -0.607   5.611   5.489 -0.2412  0.2730  0.2603
  926MOL0     H24978  -0.818   5.477   5.396  0.4192 -0.1209  1.3273
  926MOL0     H24979  -0.841   5.656   5.383  1.7121  1.8884 -0.9006
  926MOL0     H24980  -0.794   5.465   5.149 -0.4089 -0.1632 -1.1362
  926MOL0     H24981  -0.746   5.630   5.144  0.3901 -1.9041 -0.0651
  926MOL0     H24982  -1.009   5.647   5.242  0.7851  4.2762 -1.7040
  926MOL0     H24983  -0.953   5.677   5.075 -2.1752 -2.1916 -1.7623
  926MOL0     H24984  -1.035   5.407   5.180  1.0388  0.8447  1.5312
  926MOL0     H24985  -0.991   5.453   5.009 -3.5898  0.7028 -1.2627
  926MOL0     H24986  -1.243   5.531   5.166 -0.8457  0.0446 -0.6664
  926MOL0     H24987  -1.188   5.590   5.008 -2.0562 -2.1400 -2.6932
  926MOL0     H24988  -1.255   5.304   5.101  1.5141  1.3629  0.6939
  926MOL0     H24989  -1.174   5.332   4.942  0.0426 -0.3453 -0.5199
  926MOL0     H24990  -1.411   5.327   4.894  1.5225  1.4967 -2.8907
  926MOL0     H24991  -1.361   5.494   4.882 -2.6850 -1.4496 -2.8741
  926MOL0     H24992  -0.362   5.579   5.396  2.8085 -0.6344 -1.8323
  926MOL0     H24993  -0.152   5.656   5.332  1.2580  1.3363 -0.6568
  926MOL0     H24994   0.025   6.062   4.896  0.0795  0.4955 -0.1718
  926MOL0     H24995   0.266   6.119   4.818 -1.5061  1.9677  2.0873
  926MOL0     H24996   1.886   6.187   5.322 -0.5901 -2.4028  0.7948
  926MOL0     H24997   2.051   6.258   5.520 -2.3751 -0.0583 -0.6025
  926MOL0     H24998   2.523   6.340   5.634 -1.6635  0.7785  0.3395
  926MOL0     H24999   2.739   6.327   5.751 -0.4841  0.8200 -1.2761
  926MOL0     H25000   2.952   6.220   5.792  1.8027 -1.4791  0.5360
  926MOL0     H25001   2.879   6.320   5.933  2.1264  1.0873 -1.0877
  926MOL0     H25002   3.120   6.252   5.976 -2.3271  4.3550 -0.3871
  926MOL0     H25003   3.067   6.072   5.973  1.6453  0.4889  3.1390
  926MOL0     H25004   2.899   6.132   6.160  1.1390 -2.9424 -0.3427
  926MOL0     H25005   2.957   6.296   6.143  0.7450  0.4939  3.1245
  926MOL0     H25006   3.197   6.209   6.211 -0.2918  1.3544  1.1898
  926MOL0     H25007   3.127   6.053   6.224  1.0873  0.0307 -1.6814
  926MOL0     H25008   2.990   6.256   6.568 -1.7435  2.5094 -2.0753
  926MOL0     H25009   2.621   5.967   5.957  1.2288 -0.9382 -2.1354
  926MOL0     H25010   2.393   5.968   5.820  1.1610 -1.3542  2.0905
  927MOL0     O25011   6.617  11.358   5.979 -0.3684 -0.5424  0.4802
  927MOL0     C25012   6.701  11.292   6.040  0.5506  1.1483  0.3052
  927MOL0     O25013   6.691  11.156   6.073  0.3882 -0.8157  0.2809
  927MOL0     C25014   6.582  11.081   6.078 -0.0864  0.3883 -0.6254
  927MOL0     C25015   6.457  11.133   6.079 -0.1926  0.9733  0.0622
  927MOL0     C25016   6.351  11.044   6.079 -0.0296  0.1137 -0.2143
  927MOL0     C25017   6.364  10.907   6.083  0.6360  0.9284  0.6186
  927MOL0     O25018   6.246  10.844   6.085 -0.2169 -0.2638  0.4854
  927MOL0     C25019   6.237  10.708   6.072 -0.1048 -0.0521  0.4332
  927MOL0     C25020   6.216  10.647   6.211 -1.0102  0.0961 -0.2226
  927MOL0     C25021   6.308  10.695   6.325 -0.0459 -0.6834 -0.4383
  927MOL0     C25022   6.258  10.651   6.461  0.0808 -0.3140 -0.2650
  927MOL0     C25023   6.337  10.736   6.574  0.5188  0.1581  0.6647
  927MOL0     C25024   6.260  10.738   6.703  0.0155 -0.0101  0.6088
  927MOL0     C25025   6.339  10.673   6.813  0.9831 -0.5449  0.4534
  927MOL0     C25026   6.260  10.658   6.947 -0.7181  0.4733  0.9543
  927MOL0     N25027   6.122  10.598   6.928  0.0936 -0.0366  0.5048
  927MOL0     C25028   6.001  10.650   6.982 -0.5968 -0.0499  0.0762
  927MOL0     C25029   5.922  10.543   6.963  0.1443 -0.0136 -0.0924
  927MOL0     C25030   5.787  10.537   7.019 -1.7992  0.0449  0.9411
  927MOL0     C25031   5.680  10.575   6.921 -0.7011  0.1901 -0.4541
  927MOL0     C25032   5.556  10.502   6.950  0.3651 -0.0295 -0.2348
  927MOL0     C25033   5.472  10.496   6.822 -0.2451  0.5561  0.3986
  927MOL0     O25034   5.370  10.412   6.862  0.1770  0.0237  0.3154
  927MOL0     C25035   5.284  10.369   6.762 -0.3762  0.8505  0.2770
  927MOL0     C25036   5.192  10.263   6.801  0.6244 -0.3464 -0.7218
  927MOL0     C25037   5.105  10.202   6.721  0.2796 -0.7216  0.0771
  927MOL0     C25038   5.011  10.111   6.786 -0.0165  0.7827  0.2271
  927MOL0     C25039   5.104  10.240   6.581  0.1838 -0.2201  0.1208
  927MOL0     C25040   5.000  10.186   6.485 -0.6334  0.4933 -0.4047
  927MOL0     O25041   4.952  10.261   6.376 -0.2804  0.3095  1.2223
  927MOL0     C25042   4.859  10.200   6.292  0.8258  0.3127  1.0937
  927MOL0     C25043   4.876  10.207   6.154  0.6433  0.4268  0.0670
  927MOL0     C25044   4.780  10.160   6.068  0.6569 -0.4096 -0.7567
  927MOL0     C25045   4.671  10.096   6.121 -0.5775 -0.5647 -0.2952
  927MOL0     O25046   4.561  10.064   6.043  0.2199  0.6760  0.4339
  927MOL0     C25047   4.530  10.149   5.933 -1.1149 -0.6486  0.4541
  927MOL0     C25048   4.381  10.131   5.905 -0.5685  0.1115 -0.0697
  927MOL0     C25049   4.343  10.219   5.785 -0.3147 -0.0926 -0.3080
  927MOL0     C25050   4.200  10.186   5.727 -0.5677  0.3436  0.0217
  927MOL0     C25051   4.089  10.190   5.832  0.3180  0.7560  0.2782
  927MOL0     C25052   4.047  10.323   5.871  0.1698  0.9474  0.2889
  927MOL0     C25053   3.946  10.320   5.993 -0.0862 -0.1765 -0.1576
  927MOL0     C25054   4.023  10.320   6.124 -0.1951  1.0268  0.4199
  927MOL0    Cl25055   3.913  10.345   6.264 -0.5009  0.1271 -0.0176
  927MOL0     C25056   4.650  10.088   6.258 -0.1132 -0.2748  0.5280
  927MOL0     C25057   4.744  10.147   6.342  0.2012 -0.3507  0.7950
  927MOL0     O25058   4.982  10.060   6.492 -0.8625 -1.1412  0.2319
  927MOL0     C25059   5.195  10.344   6.535 -0.3199  0.1556 -0.3696
  927MOL0     C25060   5.289  10.394   6.623 -0.4312  0.6975  0.2806
  927MOL0     N25061   5.990  10.440   6.901  0.6221  0.5561 -0.0187
  927MOL0     N25062   6.108  10.469   6.878  0.0682 -0.4525 -0.6568
  927MOL0     C25063   6.490  10.847   6.089 -0.8194  0.0628  0.5290
  927MOL0     C25064   6.608  10.934   6.086  0.6843 -0.6232 -0.3643
  927MOL0     C25065   6.818  11.359   6.083 -0.6363  0.0583  0.3636
  927MOL0     C25066   6.864  11.469   6.007 -0.2244  0.7068 -0.1536
  927MOL0     C25067   6.977  11.538   6.031  0.4610 -0.5962  0.1943
  927MOL0     C25068   7.063  11.479   6.121  0.4440  0.4597 -0.7395
  927MOL0     O25069   7.189  11.520   6.154 -0.5866  0.5846  0.1263
  927MOL0     C25070   7.242  11.644   6.098 -0.3180  0.2062  0.3312
  927MOL0     C25071   7.363  11.684   6.178 -0.2560 -0.9123  0.3031
  927MOL0     C25072   7.484  11.587   6.157  0.7821 -0.3443  0.9601
  927MOL0     C25073   7.579  11.606   6.275 -0.1278  0.8179  0.0754
  927MOL0     C25074   7.662  11.484   6.288  0.3883  0.5611  0.1060
  927MOL0     C25075   7.733  11.382   6.306  0.2244  0.4295  0.0380
  927MOL0     C25076   7.019  11.379   6.209  0.6683  0.6052  0.3393
  927MOL0     C25077   6.899  11.310   6.186 -0.1890 -0.1644  0.1006
  927MOL0     H25078   6.423  11.236   6.086 -1.0076  0.7420 -0.2700
  927MOL0     H25079   6.254  11.092   6.078  0.3226  0.8692 -1.9110
  927MOL0     H25080   6.150  10.694   6.007  0.4897 -2.1516  0.0200
  927MOL0     H25081   6.319  10.669   6.011  0.7467  0.4371  1.2491
  927MOL0     H25082   6.114  10.671   6.240 -0.1315  0.9489  2.4735
  927MOL0     H25083   6.219  10.537   6.203 -1.0247  0.0251  0.7013
  927MOL0     H25084   6.412  10.666   6.312 -0.7128 -2.6067 -1.8504
  927MOL0     H25085   6.329  10.803   6.321  4.4768 -1.3073  0.9380
  927MOL0     H25086   6.153  10.681   6.464  0.1358  0.0442 -1.5866
  927MOL0     H25087   6.265  10.543   6.478  2.5251 -0.7379 -3.1713
  927MOL0     H25088   6.437  10.692   6.581  0.2682 -0.3361  1.1466
  927MOL0     H25089   6.347  10.840   6.540  3.9708 -1.1478 -3.1514
  927MOL0     H25090   6.234  10.843   6.721  1.7969  0.6684 -0.5314
  927MOL0     H25091   6.168  10.679   6.700 -0.7132  1.1037  0.5491
  927MOL0     H25092   6.379  10.574   6.790  3.7866  0.7999 -1.0196
  927MOL0     H25093   6.427  10.736   6.831  0.7584 -0.2404  0.4920
  927MOL0     H25094   6.261  10.756   6.994  1.0171  1.0091 -0.1097
  927MOL0     H25095   6.320  10.593   7.011 -0.6187 -0.1468  0.2552
  927MOL0     H25096   5.989  10.746   7.032  1.0120 -0.7897  2.0158
  927MOL0     H25097   5.775  10.437   7.061 -1.2217 -1.6969 -2.6117
  927MOL0     H25098   5.792  10.616   7.095  1.8339  3.2989 -2.1974
  927MOL0     H25099   5.720  10.539   6.826  1.1890 -1.4535  0.8768
  927MOL0     H25100   5.661  10.683   6.924  1.6556  0.6761  2.8409
  927MOL0     H25101   5.502  10.556   7.028  1.2108 -2.0082  1.8204
  927MOL0     H25102   5.577  10.402   6.989 -5.6953 -1.1365  1.1745
  927MOL0     H25103   5.542  10.460   6.747  3.0179  0.5779  3.2100
  927MOL0     H25104   5.437  10.597   6.795 -1.8990  0.2307  1.1754
  927MOL0     H25105   5.195  10.248   6.909 -0.7335  1.2765 -0.4379
  927MOL0     H25106   5.043  10.012   6.751  1.4428 -0.1420  3.7569
  927MOL0     H25107   5.021  10.119   6.894 -0.1447  0.4132  0.2684
  927MOL0     H25108   4.905  10.121   6.759 -0.3005  1.8788  1.6017
  927MOL0     H25109   4.956  10.271   6.120  0.3830  1.2251  0.9126
  927MOL0     H25110   4.785  10.162   5.960 -0.8374  0.4723 -0.8346
  927MOL0     H25111   4.555  10.253   5.954  0.5704 -0.7655 -0.7465
  927MOL0     H25112   4.583  10.115   5.843  0.4451  0.5192  0.9008
  927MOL0     H25113   4.360  10.023   5.898 -0.3738  0.0215  0.6375
  927MOL0     H25114   4.320  10.165   5.989  1.8078  0.4364  1.6384
  927MOL0     H25115   4.421  10.210   5.708  0.3837  1.2468  0.2167
  927MOL0     H25116   4.348  10.322   5.820 -0.5147  0.3441 -1.4957
  927MOL0     H25117   4.178  10.259   5.649  2.2065 -0.8230 -2.0383
  927MOL0     H25118   4.195  10.086   5.683 -1.2481  0.6600 -0.6431
  927MOL0     H25119   4.113  10.125   5.916 -1.7193 -1.9229 -1.0512
  927MOL0     H25120   4.004  10.133   5.793  0.3962  1.2197 -0.6030
  927MOL0     H25121   4.136  10.383   5.892  0.1141  0.8109  0.9467
  927MOL0     H25122   3.992  10.361   5.784 -1.0624 -1.1727  0.0728
  927MOL0     H25123   3.880  10.232   5.994 -0.6233  0.2012 -1.1741
  927MOL0     H25124   3.886  10.411   5.988 -1.8682 -1.2289  0.7772
  927MOL0     H25125   4.103  10.394   6.117 -0.8552  1.6546 -0.8503
  927MOL0     H25126   4.076  10.225   6.129 -1.4848  0.2422 -0.1471
  927MOL0     H25127   4.561  10.035   6.291 -4.9135  5.8614 -0.6923
  927MOL0     H25128   4.714  10.140   6.446 -0.4042 -0.5177  0.6144
  927MOL0     H25129   5.197  10.383   6.434  0.1828  3.9671  0.9529
  927MOL0     H25130   5.357  10.474   6.597 -1.1631  0.6662 -1.9577
  927MOL0     H25131   6.501  10.740   6.078  0.2408  0.0492  1.4643
  927MOL0     H25132   6.709  10.894   6.080  1.6290  1.4601  0.7821
  927MOL0     H25133   6.804  11.501   5.922  0.2828  0.7991 -0.4791
  927MOL0     H25134   7.012  11.624   5.975  0.0737 -0.0167  0.8370
  927MOL0     H25135   7.282  11.627   5.998  1.8059  2.0898  0.7788
  927MOL0     H25136   7.165  11.721   6.093  0.0590  0.6972  1.6086
  927MOL0     H25137   7.325  11.689   6.280 -2.4934 -0.1904 -0.5123
  927MOL0     H25138   7.395  11.784   6.148 -0.3215 -0.7244  0.8452
  927MOL0     H25139   7.530  11.612   6.061 -1.0791  2.4536  0.6625
  927MOL0     H25140   7.456  11.482   6.159 -1.0241  0.0750 -0.1526
  927MOL0     H25141   7.529  11.629   6.370  1.5185  3.9022  0.3030
  927MOL0     H25142   7.648  11.691   6.271  1.8590 -0.7342 -0.3843
  927MOL0     H25143   7.791  11.292   6.312  2.1181  1.5872 -0.0880
  927MOL0     H25144   7.086  11.343   6.287  1.3923  0.3143 -0.3993
  927MOL0     H25145   6.862  11.234   6.253 -1.0497  0.2186  0.0630
  928MOL0     O25146   1.193   5.162   3.389 -0.0041  0.1389  1.1033
  928MOL0     C25147   1.159   5.223   3.487 -0.2532 -0.7026  0.3362
  928MOL0     O25148   1.036   5.216   3.544  0.6705  0.5350 -0.2964
  928MOL0     C25149   0.934   5.142   3.489 -0.1636 -0.5006 -0.0584
  928MOL0     C25150   0.950   5.020   3.422  0.9491 -0.2065  0.1689
  928MOL0     C25151   0.840   4.972   3.340  0.9035  0.1256  0.1103
  928MOL0     C25152   0.716   5.034   3.344 -0.7095 -0.2688  0.4497
  928MOL0     O25153   0.627   4.981   3.260  0.2919  0.0673  0.2178
  928MOL0     C25154   0.505   4.940   3.334 -0.7165 -0.9234  0.4186
  928MOL0     C25155   0.420   4.875   3.234  0.7387  0.6101 -0.2411
  928MOL0     C25156   0.360   4.970   3.127  0.4530 -0.2569  0.5311
  928MOL0     C25157   0.247   4.895   3.061 -0.2229 -0.6369  0.7040
  928MOL0     C25158   0.183   4.996   2.955 -0.2645  1.0077  0.1298
  928MOL0     C25159   0.045   4.940   2.917 -0.0860  0.5104  0.7337
  928MOL0     C25160   0.028   4.796   2.893  0.3532 -0.7682  0.4545
  928MOL0     C25161  -0.064   4.764   2.769 -0.3088  0.3842  0.2806
  928MOL0     N25162  -0.062   4.624   2.728  0.2172 -0.2000  0.0858
  928MOL0     C25163  -0.113   4.518   2.809 -0.4713  0.3891  0.3801
  928MOL0     C25164  -0.042   4.409   2.766  0.5647 -0.0813  0.6731
  928MOL0     C25165  -0.034   4.275   2.828 -0.3315  0.8986  0.0569
  928MOL0     C25166  -0.119   4.180   2.745  0.0446 -0.3351 -0.8197
  928MOL0     C25167  -0.096   4.028   2.775 -0.2811 -0.8343 -0.5970
  928MOL0     C25168  -0.148   3.959   2.911 -0.3318 -0.7125  0.0614
  928MOL0     O25169  -0.182   3.823   2.902 -0.9775 -0.1162 -0.1638
  928MOL0     C25170  -0.262   3.775   2.999  1.1467 -0.1926  0.4104
  928MOL0     C25171  -0.314   3.845   3.105 -0.8186 -0.3195 -0.5018
  928MOL0     C25172  -0.397   3.779   3.198 -0.0076 -0.7141 -1.0762
  928MOL0     C25173  -0.451   3.864   3.317  0.2367 -0.8287  0.4814
  928MOL0     C25174  -0.435   3.645   3.186 -0.4521  0.7615  0.1858
  928MOL0     C25175  -0.496   3.565   3.295  0.2747 -1.3100 -0.3134
  928MOL0     O25176  -0.591   3.478   3.256  0.2797 -0.3684  0.4114
  928MOL0     C25177  -0.668   3.418   3.343 -0.0183 -1.2671 -1.1057
  928MOL0     C25178  -0.810   3.420   3.327 -0.2067 -0.9463 -0.2113
  928MOL0     C25179  -0.899   3.345   3.405  0.3347  0.7792 -0.4359
  928MOL0     C25180  -0.845   3.252   3.500  0.3561 -0.8235 -0.3880
  928MOL0     O25181  -0.932   3.180   3.575 -0.7249  0.2304  0.0582
  928MOL0     C25182  -0.882   3.073   3.659  0.3922 -0.4994 -0.2487
  928MOL0     C25183  -1.001   3.003   3.733  0.6213  0.7547  0.1750
  928MOL0     C25184  -1.088   2.938   3.630  0.8366  0.2782 -0.4680
  928MOL0     C25185  -1.221   2.894   3.691  0.5066  0.8949 -0.6145
  928MOL0     C25186  -1.287   2.795   3.595 -0.8910  0.2756  0.5311
  928MOL0     C25187  -1.407   2.717   3.654 -0.1921  0.0005  0.1047
  928MOL0     C25188  -1.382   2.652   3.791  0.5145 -0.3226  0.0496
  928MOL0     C25189  -1.266   2.552   3.796 -0.0137 -0.8086 -0.3583
  928MOL0    Cl25190  -1.303   2.414   3.692 -0.1773 -0.0605  0.5102
  928MOL0     C25191  -0.711   3.248   3.515 -0.0154 -0.4762  0.5622
  928MOL0     C25192  -0.620   3.336   3.446 -0.6051  0.0014 -0.2117
  928MOL0     O25193  -0.436   3.578   3.399  0.0965  0.2698 -0.8824
  928MOL0     C25194  -0.389   3.580   3.068 -0.0827 -0.5775 -0.6672
  928MOL0     C25195  -0.310   3.650   2.972  0.7099  0.6382  0.5922
  928MOL0     N25196   0.053   4.459   2.677  0.3915 -0.7151 -0.7879
  928MOL0     N25197   0.030   4.576   2.643 -0.0889  1.2269 -0.3426
  928MOL0     C25198   0.700   5.143   3.433 -0.5680  0.1118 -0.4963
  928MOL0     C25199   0.808   5.199   3.502 -0.3358 -0.0124 -0.0104
  928MOL0     C25200   1.246   5.325   3.546  0.2269  0.2931  0.1645
  928MOL0     C25201   1.381   5.327   3.517  0.0759 -0.0326  0.4866
  928MOL0     C25202   1.470   5.413   3.560  0.0886 -0.0039  0.4464
  928MOL0     C25203   1.422   5.529   3.626  0.4366 -0.1270  0.6022
  928MOL0     O25204   1.496   5.637   3.658  0.9449  0.4001 -0.7164
  928MOL0     C25205   1.436   5.764   3.692 -0.0479 -0.7530 -0.1709
  928MOL0     C25206   1.546   5.868   3.658  0.7758  0.3973 -0.3286
  928MOL0     C25207   1.543   5.902   3.507 -0.8571 -0.4580 -0.0371
  928MOL0     C25208   1.614   5.795   3.414  0.4321 -0.3315 -0.0628
  928MOL0     C25209   1.755   5.815   3.418  0.1844  1.0485  0.6656
  928MOL0     C25210   1.869   5.847   3.443 -0.2464  0.0070  0.8175
  928MOL0     C25211   1.287   5.534   3.664  0.2373  0.3462  0.4510
  928MOL0     C25212   1.196   5.433   3.622 -0.0794  0.6077 -0.2840
  928MOL0     H25213   1.044   4.968   3.407  0.6913 -0.0364 -2.7831
  928MOL0     H25214   0.851   4.893   3.266 -0.1833 -0.7329  0.8373
  928MOL0     H25215   0.520   4.861   3.408 -0.7552 -2.5883 -1.2689
  928MOL0     H25216   0.458   5.026   3.382 -1.5129 -2.5237  2.7025
  928MOL0     H25217   0.482   4.806   3.177  0.2499 -0.1993  0.1915
  928MOL0     H25218   0.339   4.816   3.278  1.6713 -3.5324 -3.4824
  928MOL0     H25219   0.318   5.060   3.172  2.3192  1.4869 -1.0383
  928MOL0     H25220   0.435   5.000   3.054  0.6179 -2.0291 -0.0815
  928MOL0     H25221   0.271   4.802   3.008 -0.5782 -1.0574  1.2681
  928MOL0     H25222   0.176   4.875   3.143  1.9643 -1.3297  2.5311
  928MOL0     H25223   0.171   5.101   2.984 -1.4995  1.5150 -2.0220
  928MOL0     H25224   0.245   5.000   2.866 -2.6005  2.3698 -1.5444
  928MOL0     H25225  -0.029   4.959   2.996  0.9089 -1.8374  2.3373
  928MOL0     H25226   0.013   4.994   2.827 -2.2934 -1.8410 -0.0417
  928MOL0     H25227   0.123   4.745   2.872  1.2714  0.9291  0.3175
  928MOL0     H25228  -0.009   4.741   2.980 -0.3636 -1.3747 -0.2180
  928MOL0     H25229  -0.024   4.832   2.694 -0.8388 -0.5880 -0.9259
  928MOL0     H25230  -0.165   4.803   2.782 -0.6964 -0.6556  0.5181
  928MOL0     H25231  -0.193   4.530   2.882 -2.1689 -1.6838 -1.0016
  928MOL0     H25232   0.067   4.233   2.826 -0.5575  0.3730 -0.8660
  928MOL0     H25233  -0.072   4.276   2.931 -0.2833  0.5283  0.0824
  928MOL0     H25234  -0.089   4.194   2.641 -0.8303  2.6397 -0.7736
  928MOL0     H25235  -0.222   4.213   2.761  0.6735  0.3410  2.9324
  928MOL0     H25236   0.012   4.013   2.774 -0.3117 -3.1593  3.8670
  928MOL0     H25237  -0.151   3.977   2.696 -1.6683  0.6951 -0.6769
  928MOL0     H25238  -0.225   4.023   2.955  0.0917 -1.1444  1.4848
  928MOL0     H25239  -0.068   3.959   2.986 -1.0209  1.5835  0.9041
  928MOL0     H25240  -0.284   3.948   3.122  3.1036 -1.6741  2.2744
  928MOL0     H25241  -0.402   3.831   3.409 -0.9027 -0.3847  1.2702
  928MOL0     H25242  -0.430   3.969   3.294  2.7409 -1.3702  0.0053
  928MOL0     H25243  -0.560   3.871   3.321  0.3093  0.5696  0.6821
  928MOL0     H25244  -0.851   3.488   3.253 -0.2122 -2.3477 -1.5608
  928MOL0     H25245  -1.006   3.359   3.399  0.1755 -0.6208 -1.2387
  928MOL0     H25246  -0.819   2.999   3.608  0.3444  0.4557 -1.7572
  928MOL0     H25247  -0.824   3.116   3.742  1.2630 -0.0869 -1.0590
  928MOL0     H25248  -0.970   2.918   3.795  1.3619 -0.4150 -1.7044
  928MOL0     H25249  -1.057   3.083   3.781 -1.4389 -0.9988  0.8487
  928MOL0     H25250  -1.033   2.861   3.575 -0.6307 -0.8621 -0.4022
  928MOL0     H25251  -1.112   3.011   3.553 -0.7217  0.2429 -0.0460
  928MOL0     H25252  -1.197   2.846   3.786 -2.0278 -1.7726 -1.1562
  928MOL0     H25253  -1.285   2.980   3.710 -0.1244  0.6389 -1.5007
  928MOL0     H25254  -1.216   2.724   3.551  1.0356  0.4077  3.1843
  928MOL0     H25255  -1.325   2.841   3.503 -1.1980 -3.1703 -1.2093
  928MOL0     H25256  -1.493   2.784   3.664 -1.9295 -2.4887  3.9551
  928MOL0     H25257  -1.433   2.637   3.584 -1.6178  1.2469 -0.8498
  928MOL0     H25258  -1.471   2.593   3.817  1.6329 -2.3666 -0.5024
  928MOL0     H25259  -1.372   2.731   3.866  1.1525 -0.9250  0.6166
  928MOL0     H25260  -1.260   2.515   3.899  0.0878  1.9115  0.6840
  928MOL0     H25261  -1.170   2.598   3.772 -0.7401  2.1915  1.9321
  928MOL0     H25262  -0.666   3.183   3.589  0.6806 -0.3584  0.2527
  928MOL0     H25263  -0.513   3.322   3.453 -0.9302 -2.8972  0.2831
  928MOL0     H25264  -0.428   3.479   3.056 -1.4957 -0.9081  4.3274
  928MOL0     H25265  -0.285   3.595   2.882 -1.7687 -3.3833  2.1031
  928MOL0     H25266   0.600   5.184   3.438  0.2439  2.1466 -0.2038
  928MOL0     H25267   0.804   5.285   3.569  1.8794 -0.3167  0.5926
  928MOL0     H25268   1.419   5.235   3.472 -0.2422 -0.4693  1.0941
  928MOL0     H25269   1.574   5.399   3.533 -0.5951 -0.8317 -2.0408
  928MOL0     H25270   1.338   5.780   3.648 -0.4788 -2.4637  0.0849
  928MOL0     H25271   1.426   5.769   3.801  0.8370 -1.6561 -0.0289
  928MOL0     H25272   1.648   5.848   3.694  0.8520  2.9764  1.1232
  928MOL0     H25273   1.530   5.960   3.715  3.2727 -0.2252  1.5563
  928MOL0     H25274   1.583   6.001   3.482 -0.4278 -0.2305  1.4420
  928MOL0     H25275   1.439   5.910   3.476 -1.2698 -0.8000  1.2147
  928MOL0     H25276   1.584   5.815   3.310 -0.9913 -0.3538  0.3155
  928MOL0     H25277   1.589   5.691   3.435 -0.2156 -0.5526 -1.7575
  928MOL0     H25278   1.968   5.885   3.456 -0.2880  1.1633 -1.7138
  928MOL0     H25279   1.235   5.623   3.700 -2.4778  0.8381 -3.8951
  928MOL0     H25280   1.088   5.440   3.630 -0.5200  0.6763 -4.4228
  929MOL0     O25281   4.069   8.172   7.539  0.1648 -0.0019 -0.7925
  929MOL0     C25282   4.080   8.263   7.456  1.0168  0.2164 -0.9297
  929MOL0     O25283   3.990   8.293   7.367 -0.7575  0.1320  0.3635
  929MOL0     C25284   3.864   8.261   7.372  0.4582  0.6984  0.5314
  929MOL0     C25285   3.836   8.128   7.333  0.0471 -0.5712  0.2847
  929MOL0     C25286   3.700   8.079   7.350 -1.6156  1.0252  0.4663
  929MOL0     C25287   3.598   8.161   7.394 -0.2997 -0.1886 -1.1975
  929MOL0     O25288   3.481   8.096   7.410 -0.2781 -0.3737  0.5528
  929MOL0     C25289   3.419   8.104   7.544 -0.4379  0.0916  0.2073
  929MOL0     C25290   3.380   7.966   7.603 -0.1234  0.8497 -0.1567
  929MOL0     C25291   3.473   7.857   7.571 -0.4150 -0.1250 -0.1167
  929MOL0     C25292   3.446   7.738   7.667 -0.2139 -0.3488 -0.7263
  929MOL0     C25293   3.514   7.617   7.633  1.0568 -0.2673  0.5344
  929MOL0     C25294   3.667   7.618   7.643 -0.0029 -0.2388  0.1091
  929MOL0     C25295   3.732   7.479   7.653  0.0567 -0.6872 -1.2318
  929MOL0     C25296   3.780   7.433   7.518 -0.1403  0.8986  0.0460
  929MOL0     N25297   3.677   7.420   7.401 -0.6140  0.0134 -0.5692
  929MOL0     C25298   3.675   7.517   7.310  0.3134 -0.3569  0.1522
  929MOL0     C25299   3.559   7.484   7.240 -0.7887 -0.9376  0.3782
  929MOL0     C25300   3.508   7.567   7.126 -0.5543 -0.1665  0.3987
  929MOL0     C25301   3.443   7.696   7.173  0.2026  0.5745 -0.4129
  929MOL0     C25302   3.336   7.748   7.070 -0.4567  0.1564  0.0859
  929MOL0     C25303   3.219   7.650   7.033  0.0175 -0.2224 -0.4357
  929MOL0     O25304   3.099   7.714   7.014  0.1619  0.1424  0.2555
  929MOL0     C25305   2.996   7.624   6.971  0.2577 -0.0442  0.7071
  929MOL0     C25306   2.990   7.482   6.982 -0.2295 -0.4098 -0.0078
  929MOL0     C25307   2.871   7.408   6.981 -0.2494  0.5264  0.1960
  929MOL0     C25308   2.882   7.259   7.031 -0.0250 -1.1136  0.0961
  929MOL0     C25309   2.747   7.471   6.963 -0.9268 -0.1571 -0.2311
  929MOL0     C25310   2.623   7.406   7.003 -0.7304  0.3637  0.2043
  929MOL0     O25311   2.522   7.503   7.014  0.0588  0.1646 -0.2792
  929MOL0     C25312   2.403   7.466   7.065  0.7269  0.0487 -0.1243
  929MOL0     C25313   2.303   7.421   6.978 -0.4739 -0.0278  0.0013
  929MOL0     C25314   2.187   7.357   7.024 -0.4540 -0.1092  0.4180
  929MOL0     C25315   2.172   7.334   7.166  0.2750 -0.0764  0.3618
  929MOL0     O25316   2.070   7.268   7.225  0.2291 -0.3069  0.0666
  929MOL0     C25317   2.003   7.164   7.153  0.0201  0.5712 -0.4091
  929MOL0     C25318   1.879   7.225   7.075 -0.1629 -0.1951 -0.1148
  929MOL0     C25319   1.765   7.248   7.174 -0.5616  0.5780  0.4943
  929MOL0     C25320   1.658   7.314   7.088 -0.1220  0.2404  0.3349
  929MOL0     C25321   1.525   7.340   7.165 -0.2271 -0.2805  0.1202
  929MOL0     C25322   1.421   7.425   7.086 -0.0091 -0.4396 -0.5587
  929MOL0     C25323   1.331   7.335   6.995 -0.1400  0.2276  0.0142
  929MOL0     C25324   1.264   7.406   6.871 -0.5348  0.0968  0.6166
  929MOL0    Cl25325   1.112   7.489   6.912  0.4616 -0.0123 -0.0041
  929MOL0     C25326   2.273   7.387   7.252 -0.4320 -0.0347 -0.3124
  929MOL0     C25327   2.383   7.448   7.198 -0.5625 -0.6611 -0.0161
  929MOL0     O25328   2.606   7.285   7.017  0.3370  0.1896  0.1634
  929MOL0     C25329   2.756   7.618   6.942  0.4103 -0.2628 -0.5704
  929MOL0     C25330   2.876   7.690   6.938  0.2287 -0.1633 -0.5346
  929MOL0     N25331   3.503   7.371   7.297 -0.2421 -0.4008 -0.0733
  929MOL0     N25332   3.579   7.330   7.390  0.0464 -0.6860  0.1850
  929MOL0     C25333   3.624   8.303   7.431  0.4029  0.3181  0.0117
  929MOL0     C25334   3.758   8.350   7.418  0.1214  0.5024  0.3331
  929MOL0     C25335   4.206   8.335   7.438 -0.2375  0.1672  0.0316
  929MOL0     C25336   4.316   8.300   7.520  0.4915 -0.0186 -0.1614
  929MOL0     C25337   4.442   8.358   7.495  0.4414  0.4546 -0.0701
  929MOL0     C25338   4.450   8.474   7.419 -0.9799  0.0242 -0.4235
  929MOL0     O25339   4.570   8.549   7.417  0.7828  1.2217 -0.1450
  929MOL0     C25340   4.581   8.654   7.324 -0.2227  0.7898  0.6697
  929MOL0     C25341   4.726   8.695   7.315 -0.0269 -0.5116  0.3463
  929MOL0     C25342   4.794   8.747   7.449  0.2930 -0.0399 -0.1941
  929MOL0     C25343   4.925   8.818   7.418  1.0989  0.4143 -0.4864
  929MOL0     C25344   4.987   8.853   7.548  0.2507 -0.2555 -0.4913
  929MOL0     C25345   5.013   8.894   7.657 -0.8327  0.3587 -0.3542
  929MOL0     C25346   4.331   8.522   7.363 -0.0272  0.4237  0.2252
  929MOL0     C25347   4.214   8.450   7.365  0.7730 -0.2961 -0.1521
  929MOL0     H25348   3.915   8.065   7.295 -2.0015 -3.3712  0.3849
  929MOL0     H25349   3.660   7.982   7.324 -0.9938  1.5380 -2.9457
  929MOL0     H25350   3.489   8.152   7.613 -0.7548  1.9241 -0.6785
  929MOL0     H25351   3.333   8.171   7.535 -0.7607 -0.0490  1.9885
  929MOL0     H25352   3.378   7.973   7.712  2.8960  1.3324 -0.0330
  929MOL0     H25353   3.280   7.941   7.567 -0.1484  1.2771 -0.3889
  929MOL0     H25354   3.456   7.823   7.469  2.0887  0.1231 -0.6806
  929MOL0     H25355   3.572   7.899   7.588  0.0246 -1.3537  0.4819
  929MOL0     H25356   3.466   7.765   7.771  0.2228 -0.0034 -0.8988
  929MOL0     H25357   3.338   7.722   7.670 -0.9475  3.7126  1.7376
  929MOL0     H25358   3.472   7.542   7.701 -3.6783  0.5883 -1.0362
  929MOL0     H25359   3.488   7.590   7.530  0.9587  0.5057  0.3466
  929MOL0     H25360   3.720   7.668   7.561  0.7848 -3.3936 -1.4266
  929MOL0     H25361   3.690   7.670   7.737 -0.1781  2.0190 -1.0246
  929MOL0     H25362   3.822   7.482   7.715 -1.1820 -1.6154  0.6930
  929MOL0     H25363   3.664   7.408   7.701 -0.7070  0.1887 -0.9875
  929MOL0     H25364   3.817   7.330   7.527 -0.0960  0.7976 -1.0658
  929MOL0     H25365   3.866   7.488   7.477 -0.4041  0.7950 -0.6720
  929MOL0     H25366   3.734   7.606   7.290  1.8112 -1.3827 -0.0983
  929MOL0     H25367   3.577   7.585   7.043 -0.2774  0.1466  0.6937
  929MOL0     H25368   3.432   7.504   7.078 -0.5279  0.4485 -0.4667
  929MOL0     H25369   3.514   7.777   7.191  0.6929  0.1422 -0.3619
  929MOL0     H25370   3.391   7.681   7.267 -0.9051  2.5675 -0.6580
  929MOL0     H25371   3.395   7.773   6.981  0.6251  0.3282  0.8397
  929MOL0     H25372   3.297   7.845   7.101  1.4031  0.0931  3.0658
  929MOL0     H25373   3.207   7.578   7.114  0.4035  1.4817  1.1792
  929MOL0     H25374   3.257   7.605   6.940  1.5964  0.5867 -0.2137
  929MOL0     H25375   3.073   7.424   7.022 -0.8447 -0.3519  1.4411
  929MOL0     H25376   2.818   7.243   7.118  1.1218 -0.7149  1.0428
  929MOL0     H25377   2.857   7.192   6.948 -0.2363 -0.7871 -0.1046
  929MOL0     H25378   2.982   7.232   7.066 -1.0047 -0.8623  3.3600
  929MOL0     H25379   2.318   7.423   6.871 -0.6403  0.9611 -0.0141
  929MOL0     H25380   2.122   7.312   6.950  1.5515 -1.8459 -0.4089
  929MOL0     H25381   2.073   7.124   7.080 -1.5017 -0.2560 -1.4562
  929MOL0     H25382   1.964   7.079   7.210  1.6821 -1.0495 -1.5758
  929MOL0     H25383   1.907   7.321   7.032 -1.2533  0.9632  1.6562
  929MOL0     H25384   1.850   7.155   6.996  1.0610  1.4902 -2.1507
  929MOL0     H25385   1.797   7.320   7.250 -0.8744  0.5698  0.6327
  929MOL0     H25386   1.720   7.162   7.224  0.0980 -0.2242 -0.2520
  929MOL0     H25387   1.692   7.414   7.062 -0.0729 -0.6538 -3.5589
  929MOL0     H25388   1.653   7.256   6.996 -2.7642 -1.0991  1.1920
  929MOL0     H25389   1.557   7.410   7.243  1.7322  0.3241 -1.1596
  929MOL0     H25390   1.480   7.251   7.211 -1.1814  0.8686  1.5309
  929MOL0     H25391   1.351   7.477   7.152  0.5047 -0.6505  0.1676
  929MOL0     H25392   1.478   7.496   7.025  0.3608 -0.8002 -0.6412
  929MOL0     H25393   1.259   7.280   7.057  0.3315  1.6283  1.8545
  929MOL0     H25394   1.396   7.252   6.964 -0.1594  0.8965 -1.9802
  929MOL0     H25395   1.239   7.331   6.796  3.0604 -2.4988  1.7741
  929MOL0     H25396   1.335   7.472   6.820  0.8921 -1.1866  0.8910
  929MOL0     H25397   2.254   7.400   7.358  0.2872 -3.0158  0.2698
  929MOL0     H25398   2.453   7.508   7.255 -0.9626 -0.0215 -0.1856
  929MOL0     H25399   2.666   7.675   6.925  0.5069  0.0023 -0.2062
  929MOL0     H25400   2.870   7.798   6.926 -0.4122 -0.3372 -1.8993
  929MOL0     H25401   3.554   8.366   7.485  4.0496  0.2973  5.5484
  929MOL0     H25402   3.787   8.447   7.456 -0.4228  0.9392 -0.3400
  929MOL0     H25403   4.306   8.210   7.579  1.7582 -0.4586 -0.5864
  929MOL0     H25404   4.525   8.324   7.556  0.4270  0.2205 -0.1783
  929MOL0     H25405   4.548   8.625   7.225 -2.0967  2.3902  0.7849
  929MOL0     H25406   4.526   8.742   7.358 -1.8805  0.6001 -1.3422
  929MOL0     H25407   4.734   8.768   7.233 -1.1752 -0.7301  0.0257
  929MOL0     H25408   4.792   8.619   7.272  1.7263  1.8261 -1.3930
  929MOL0     H25409   4.816   8.666   7.519 -2.3013 -0.2904  0.4282
  929MOL0     H25410   4.723   8.814   7.497  0.7511  0.1611  0.2162
  929MOL0     H25411   4.918   8.904   7.351 -1.7708 -0.2703 -1.2017
  929MOL0     H25412   4.993   8.745   7.372 -1.7904 -0.8927 -3.0926
  929MOL0     H25413   5.029   8.928   7.758 -1.9782 -1.8683  0.6556
  929MOL0     H25414   4.335   8.616   7.309 -1.3648 -0.7162 -2.0491
  929MOL0     H25415   4.130   8.487   7.308  0.9416 -0.5517 -0.5729
  930MOL0     O25416   7.795   0.578   8.612 -0.6145 -0.1638 -0.0739
  930MOL0     C25417   7.762   0.697   8.598 -0.3628 -0.9790  0.2058
  930MOL0     O25418   7.843   0.802   8.575 -0.2209 -0.1549  0.1274
  930MOL0     C25419   7.980   0.779   8.563  0.4940 -0.1645  0.5878
  930MOL0     C25420   8.041   0.812   8.437  0.8590  0.0379 -0.2107
  930MOL0     C25421   8.182   0.810   8.439 -0.7065  0.8792  0.6433
  930MOL0     C25422   8.256   0.758   8.544 -0.2468 -0.0495 -0.0360
  930MOL0     O25423   8.393   0.751   8.521 -0.1358 -0.7093  0.0400
  930MOL0     C25424   8.431   0.610   8.507 -0.2095  0.1769  0.0043
  930MOL0     C25425   8.583   0.601   8.473  0.1849 -0.1872  0.4219
  930MOL0     C25426   8.629   0.469   8.436  0.4869 -0.5253 -0.7065
  930MOL0     C25427   8.780   0.465   8.427  0.0836  0.1801  0.0463
  930MOL0     C25428   8.833   0.325   8.374  0.4214 -0.3471 -0.5169
  930MOL0     C25429   8.983   0.319   8.373  0.0145 -0.2722  1.0797
  930MOL0     C25430   9.021   0.181   8.313 -0.4329  0.3556  1.0425
  930MOL0     C25431   9.178   0.161   8.334 -0.1751  0.3582 -0.5236
  930MOL0     N25432   9.258   0.261   8.285 -0.3507  0.2509 -0.0158
  930MOL0     C25433   9.303   0.379   8.341  0.5457  0.5589  0.7374
  930MOL0     C25434   9.358   0.449   8.240 -0.2532 -0.7404 -0.0843
  930MOL0     C25435   9.424   0.585   8.239  0.2511 -0.3478  0.4472
  930MOL0     C25436   9.380   0.664   8.117 -0.0577 -0.5854 -0.2264
  930MOL0     C25437   9.428   0.808   8.136  0.1054 -0.9459  0.2992
  930MOL0     C25438   9.578   0.837   8.100  0.0338 -0.4178 -0.2609
  930MOL0     O25439   9.670   0.798   8.202  0.3957 -0.6623  0.4070
  930MOL0     C25440   9.803   0.782   8.158  0.0796 -0.3905  0.4058
  930MOL0     C25441   9.875   0.686   8.214  0.0147  1.2246 -0.4902
  930MOL0     C25442  10.007   0.662   8.178 -0.3910  0.2105  0.2306
  930MOL0     C25443  10.092   0.562   8.253 -0.5818 -0.0490  0.8643
  930MOL0     C25444  10.067   0.751   8.089 -0.6540 -1.0063 -0.0170
  930MOL0     C25445  10.205   0.727   8.027  0.2909 -0.1773  0.1042
  930MOL0     O25446  10.246   0.822   7.954 -0.1751  0.1364 -0.2879
  930MOL0     C25447  10.379   0.858   7.951 -0.5588 -0.3256 -0.5033
  930MOL0     C25448  10.466   0.834   8.060  1.4001  0.7786 -0.3836
  930MOL0     C25449  10.595   0.887   8.058  0.0627 -0.9921  1.0523
  930MOL0     C25450  10.644   0.967   7.950  0.2645  0.3067  0.3547
  930MOL0     O25451  10.762   1.032   7.932 -0.4357 -0.2720 -0.1980
  930MOL0     C25452  10.876   0.950   7.911  0.2505 -0.0823 -0.4783
  930MOL0     C25453  10.987   1.018   7.989 -0.9146 -0.1845 -0.2319
  930MOL0     C25454  11.122   0.943   8.007  0.2976 -0.5060  0.2627
  930MOL0     C25455  11.233   1.034   8.056  0.6432  0.5668  0.1503
  930MOL0     C25456  11.347   0.953   8.121  0.0636 -0.3678  0.4165
  930MOL0     C25457  11.454   1.045   8.186  0.0892 -0.7695 -0.0772
  930MOL0     C25458  11.585   0.972   8.226 -0.4630 -1.0711 -0.3735
  930MOL0     C25459  11.701   0.964   8.122  0.1314 -0.4690  0.3015
  930MOL0    Cl25460  11.843   0.893   8.187 -0.7446  0.0192 -0.2733
  930MOL0     C25461  10.560   0.983   7.839 -0.4475 -0.9243 -0.4617
  930MOL0     C25462  10.425   0.927   7.841 -0.3010 -0.1201 -0.5230
  930MOL0     O25463  10.265   0.622   8.049 -0.5679 -0.0191 -1.0373
  930MOL0     C25464   9.994   0.854   8.032  0.1713 -0.3430 -0.3174
  930MOL0     C25465   9.864   0.874   8.066 -0.7917  0.7616  0.3306
  930MOL0     N25466   9.339   0.381   8.127  0.2199  0.0933 -0.2310
  930MOL0     N25467   9.284   0.269   8.156 -0.3040  0.3670 -0.4601
  930MOL0     C25468   8.200   0.745   8.665 -0.5003 -0.7491 -0.1403
  930MOL0     C25469   8.064   0.759   8.675  0.4396  0.3205 -0.2216
  930MOL0     C25470   7.616   0.730   8.605  0.5475 -0.8633  0.2303
  930MOL0     C25471   7.527   0.622   8.620  0.9921  0.5744  0.3908
  930MOL0     C25472   7.387   0.652   8.599 -1.0181 -0.0572  0.9581
  930MOL0     C25473   7.336   0.776   8.578 -0.1029 -0.2547  0.3313
  930MOL0     O25474   7.192   0.780   8.576  0.0772  0.6250 -0.3142
  930MOL0     C25475   7.130   0.907   8.558  0.0004 -0.9228 -0.4157
  930MOL0     C25476   7.146   1.001   8.683  0.4777 -0.3297  0.2477
  930MOL0     C25477   7.058   1.122   8.675  0.9727  0.7369 -0.6316
  930MOL0     C25478   7.082   1.216   8.803 -0.2647  0.7965  0.8473
  930MOL0     C25479   6.987   1.336   8.790 -0.1077  0.3250  0.1254
  930MOL0     C25480   6.908   1.430   8.783 -0.2172  0.0438 -1.0340
  930MOL0     C25481   7.432   0.879   8.561  0.4336  0.3934 -0.2309
  930MOL0     C25482   7.564   0.857   8.576 -0.1636 -0.3352 -0.9218
  930MOL0     H25483   8.001   0.846   8.342  1.9603  0.2098 -0.6340
  930MOL0     H25484   8.225   0.818   8.340  0.3625  1.0383  1.1047
  930MOL0     H25485   8.413   0.549   8.596 -1.5895 -0.0615 -0.4093
  930MOL0     H25486   8.372   0.561   8.429  3.0750 -0.9282 -1.9622
  930MOL0     H25487   8.602   0.685   8.404 -1.9675  1.4117  1.6349
  930MOL0     H25488   8.637   0.626   8.565  1.7409 -1.4339 -0.1022
  930MOL0     H25489   8.582   0.404   8.510  0.1246  0.2290 -0.2512
  930MOL0     H25490   8.588   0.447   8.338 -1.2635  2.5415 -0.7856
  930MOL0     H25491   8.830   0.536   8.361  3.2192 -0.9382  1.0342
  930MOL0     H25492   8.817   0.482   8.528  1.1952 -0.3473 -0.2558
  930MOL0     H25493   8.797   0.244   8.437  1.5797 -0.8572 -0.4859
  930MOL0     H25494   8.786   0.302   8.278 -0.8023 -1.2009  0.2608
  930MOL0     H25495   9.016   0.400   8.308 -2.0314 -1.3369 -1.4734
  930MOL0     H25496   9.020   0.342   8.474  1.7276  0.8137  0.2468
  930MOL0     H25497   8.975   0.096   8.364  0.0808 -1.0395 -0.7484
  930MOL0     H25498   8.996   0.187   8.207 -0.1576  1.4631  1.0265
  930MOL0     H25499   9.212   0.061   8.306  1.0256 -0.7637  4.1513
  930MOL0     H25500   9.187   0.168   8.443  1.3506  3.7290 -0.7436
  930MOL0     H25501   9.302   0.416   8.443 -1.3075  2.7172  0.0179
  930MOL0     H25502   9.381   0.648   8.317 -2.8149  1.4998 -2.4704
  930MOL0     H25503   9.531   0.583   8.263  0.3612  2.0167  0.3699
  930MOL0     H25504   9.271   0.667   8.105  0.2019  1.2425 -3.2765
  930MOL0     H25505   9.423   0.623   8.025  0.1553 -0.8705 -0.0003
  930MOL0     H25506   9.396   0.839   8.236  1.4471 -1.6540  0.9794
  930MOL0     H25507   9.371   0.870   8.066  0.3108  1.1108  1.8655
  930MOL0     H25508   9.590   0.944   8.081  0.8900  0.6528  4.8731
  930MOL0     H25509   9.598   0.801   7.999 -1.1458  0.8289 -0.9741
  930MOL0     H25510   9.825   0.629   8.293 -0.5163  2.8205  0.3767
  930MOL0     H25511  10.046   0.518   8.342  2.6104 -2.9508  1.2938
  930MOL0     H25512  10.115   0.476   8.189  2.0675 -0.7693  2.5983
  930MOL0     H25513  10.186   0.608   8.288  1.0227 -0.9532 -1.9764
  930MOL0     H25514  10.427   0.779   8.145 -0.0597  1.1359 -0.8035
  930MOL0     H25515  10.665   0.877   8.140  0.5580  2.8877  1.2985
  930MOL0     H25516  10.850   0.850   7.946 -0.7939  0.5472  0.6293
  930MOL0     H25517  10.900   0.935   7.805  4.5259 -1.6373  0.5070
  930MOL0     H25518  11.008   1.117   7.947  1.2610  0.3305  1.8340
  930MOL0     H25519  10.954   1.045   8.090  2.9670  2.3389  0.5744
  930MOL0     H25520  11.149   0.908   7.907  0.7743  1.2821 -0.2727
  930MOL0     H25521  11.123   0.860   8.078 -0.2255 -1.0387 -0.3480
  930MOL0     H25522  11.280   1.085   7.972  1.6578 -1.8501 -0.8481
  930MOL0     H25523  11.189   1.108   8.124  0.0932  2.2429 -1.9343
  930MOL0     H25524  11.400   0.897   8.043 -0.2586  0.5399 -0.4862
  930MOL0     H25525  11.304   0.881   8.191 -2.4872  0.0642 -0.5950
  930MOL0     H25526  11.485   1.126   8.119 -1.3870 -0.3451 -0.2868
  930MOL0     H25527  11.405   1.094   8.270 -3.7306 -3.2122 -0.6085
  930MOL0     H25528  11.558   0.873   8.264 -5.3597  0.1565  0.0682
  930MOL0     H25529  11.624   1.024   8.313  2.8080 -1.2270 -1.5973
  930MOL0     H25530  11.724   1.069   8.102  3.5445 -1.2089 -0.2207
  930MOL0     H25531  11.678   0.911   8.029 -1.0565 -0.3241  0.4888
  930MOL0     H25532  10.600   1.026   7.748  1.3653 -0.8551  0.3430
  930MOL0     H25533  10.357   0.953   7.760 -2.4482  2.1178  1.8109
  930MOL0     H25534  10.036   0.930   7.967 -0.0943  0.4242  0.4069
  930MOL0     H25535   9.811   0.957   8.020 -0.2926  0.1145 -1.4956
  930MOL0     H25536   8.258   0.727   8.756  0.6797  3.3094  0.0833
  930MOL0     H25537   8.026   0.741   8.775  2.3324  1.3391  0.7285
  930MOL0     H25538   7.562   0.524   8.650  1.0430  0.4456 -0.0748
  930MOL0     H25539   7.312   0.578   8.627  0.5757 -2.4100 -0.6120
  930MOL0     H25540   7.166   0.962   8.471 -0.7659  0.3596  0.0565
  930MOL0     H25541   7.022   0.890   8.545 -1.1530  3.9904  0.9169
  930MOL0     H25542   7.249   1.036   8.666  1.3216 -3.3506 -1.5734
  930MOL0     H25543   7.123   0.953   8.778  1.2581  4.2763  3.1078
  930MOL0     H25544   6.959   1.076   8.684  0.9256  0.4281 -2.3879
  930MOL0     H25545   7.077   1.175   8.582 -1.1020  2.6976  0.0012
  930MOL0     H25546   7.186   1.248   8.795 -0.7414  2.0066 -3.6357
  930MOL0     H25547   7.058   1.156   8.891 -4.0951 -3.4614 -2.6264
  930MOL0     H25548   6.842   1.515   8.783  0.3533  0.5020 -0.6357
  930MOL0     H25549   7.401   0.980   8.535  1.4624  0.3705 -1.7039
  930MOL0     H25550   7.634   0.940   8.568  0.0640 -0.3577  0.5703
  931MOL0     O25551   7.327   7.770   3.148  0.4336  0.4549  0.0393
  931MOL0     C25552   7.402   7.849   3.206 -0.0133  0.2411  0.0216
  931MOL0     O25553   7.368   7.967   3.264 -0.3261  0.4534 -0.1688
  931MOL0     C25554   7.240   7.986   3.313 -0.5853 -0.2881 -0.7197
  931MOL0     C25555   7.176   7.905   3.404 -0.3144 -0.0062 -0.0267
  931MOL0     C25556   7.057   7.942   3.451 -0.2301 -0.3270  1.1252
  931MOL0     C25557   6.989   8.058   3.396 -0.3120 -0.0391 -0.0787
  931MOL0     O25558   6.862   8.085   3.451 -0.1543 -0.1590 -0.3358
  931MOL0     C25559   6.785   8.199   3.403 -0.2421  0.1566 -0.7709
  931MOL0     C25560   6.664   8.221   3.501 -1.1621  0.3644  0.8980
  931MOL0     C25561   6.582   8.090   3.507 -0.0468 -0.9995 -0.2893
  931MOL0     C25562   6.466   8.112   3.613 -0.0943  0.4362 -0.4423
  931MOL0     C25563   6.346   8.009   3.612  0.4668  0.7209  0.2358
  931MOL0     C25564   6.400   7.878   3.678  0.5479  0.5982  0.0660
  931MOL0     C25565   6.320   7.753   3.664  0.0474 -0.7255  0.5508
  931MOL0     C25566   6.219   7.750   3.765  0.1078 -0.2696 -0.6425
  931MOL0     N25567   6.151   7.621   3.775  0.8698  0.8259  0.0737
  931MOL0     C25568   6.207   7.509   3.839 -0.1215 -0.3522  0.2080
  931MOL0     C25569   6.110   7.422   3.857 -0.2532 -0.8624 -0.3378
  931MOL0     C25570   6.131   7.284   3.924 -0.0809  0.2113 -0.3965
  931MOL0     C25571   6.016   7.245   4.012 -0.3641  0.2461  0.4922
  931MOL0     C25572   6.042   7.112   4.086  0.0917 -0.4270  0.0821
  931MOL0     C25573   5.917   7.085   4.173 -0.2626 -1.1316 -0.1382
  931MOL0     O25574   5.908   7.179   4.287  0.2458  0.4956  0.7407
  931MOL0     C25575   5.801   7.148   4.362 -0.1191 -0.1849  0.3995
  931MOL0     C25576   5.834   7.129   4.493 -0.1360 -1.0089  0.8484
  931MOL0     C25577   5.725   7.108   4.576 -0.3889 -0.3420  0.2283
  931MOL0     C25578   5.759   7.117   4.724  0.5797  0.2593  0.0015
  931MOL0     C25579   5.598   7.068   4.531  0.0063 -0.0038  0.1166
  931MOL0     C25580   5.494   7.011   4.620  0.8724  0.8748 -0.1614
  931MOL0     O25581   5.529   6.909   4.706 -0.4236  0.1174  0.8576
  931MOL0     C25582   5.427   6.849   4.784 -0.3586 -0.0773  0.6228
  931MOL0     C25583   5.424   6.864   4.918  0.4221 -1.2725 -0.6781
  931MOL0     C25584   5.326   6.805   4.999  0.3767  0.1908 -1.2089
  931MOL0     C25585   5.228   6.720   4.939 -0.3757  0.6573  0.4419
  931MOL0     O25586   5.112   6.670   4.985 -0.5383 -0.2135  0.1028
  931MOL0     C25587   5.094   6.686   5.124 -0.2956  0.4822 -0.3825
  931MOL0     C25588   4.960   6.615   5.153 -0.5003 -0.3672  0.7903
  931MOL0     C25589   4.889   6.671   5.281  0.0659  1.1742  1.2691
  931MOL0     C25590   4.743   6.613   5.281  0.2707 -0.5586 -0.4418
  931MOL0     C25591   4.691   6.624   5.426 -0.4475  0.1969  0.8043
  931MOL0     C25592   4.721   6.496   5.507  0.6972 -0.1742 -0.4541
  931MOL0     C25593   4.671   6.511   5.654 -0.3273  0.4794  0.3240
  931MOL0     C25594   4.517   6.499   5.663  0.1012 -0.0041  0.2009
  931MOL0    Cl25595   4.452   6.347   5.596 -0.0740  0.1814  0.5003
  931MOL0     C25596   5.249   6.693   4.801 -0.3119  0.1451  1.1541
  931MOL0     C25597   5.340   6.765   4.719  1.2298 -0.6674  0.4650
  931MOL0     O25598   5.381   7.058   4.617  0.2917 -0.5023  0.1373
  931MOL0     C25599   5.572   7.096   4.399 -0.0205 -0.7272  0.7282
  931MOL0     C25600   5.671   7.134   4.315  0.4158 -0.2116  0.0778
  931MOL0     N25601   5.994   7.474   3.796  0.4111  0.6270  0.4067
  931MOL0     N25602   6.019   7.590   3.743  0.6947  0.8711 -0.4777
  931MOL0     C25603   7.053   8.133   3.303 -0.4966  0.5509 -0.1366
  931MOL0     C25604   7.180   8.104   3.264 -0.7910 -0.1551 -0.1820
  931MOL0     C25605   7.548   7.825   3.214  0.0461 -1.2361  0.0871
  931MOL0     C25606   7.603   7.737   3.125 -0.1065  0.2478 -0.4972
  931MOL0     C25607   7.742   7.711   3.123  0.1055  1.2490 -0.6737
  931MOL0     C25608   7.830   7.772   3.212 -0.0937  0.2547  0.5480
  931MOL0     O25609   7.956   7.727   3.206 -0.5889 -0.1295 -0.2943
  931MOL0     C25610   8.048   7.746   3.306  0.3122 -0.1505 -0.5098
  931MOL0     C25611   7.998   7.676   3.436 -0.4801 -0.0910  0.0289
  931MOL0     C25612   8.121   7.685   3.524  0.7162 -0.1504 -0.9788
  931MOL0     C25613   8.107   7.630   3.666 -0.8343  0.3771 -0.1750
  931MOL0     C25614   8.096   7.483   3.662  0.6872 -0.1608  0.2203
  931MOL0     C25615   8.091   7.359   3.661 -0.3589  0.2839  0.1400
  931MOL0     C25616   7.773   7.865   3.294 -0.5256 -0.1465 -0.2773
  931MOL0     C25617   7.632   7.899   3.291 -0.2741 -0.0730  0.8345
  931MOL0     H25618   7.223   7.814   3.439  0.6937  0.9807  1.3115
  931MOL0     H25619   7.000   7.885   3.523 -1.3498 -0.6040  0.0621
  931MOL0     H25620   6.847   8.286   3.382 -1.7725  1.0435 -1.7902
  931MOL0     H25621   6.747   8.170   3.305 -0.3921  1.3453 -1.0794
  931MOL0     H25622   6.698   8.248   3.601 -3.0411 -0.8657  1.9281
  931MOL0     H25623   6.597   8.299   3.463 -1.7688 -0.4398  0.2681
  931MOL0     H25624   6.541   8.060   3.410 -0.0433 -1.6396 -0.0981
  931MOL0     H25625   6.640   8.005   3.544  2.3482  0.9237  0.6751
  931MOL0     H25626   6.510   8.129   3.712 -0.5937 -3.2360  0.5768
  931MOL0     H25627   6.418   8.202   3.574 -0.5962 -0.0751 -1.0276
  931MOL0     H25628   6.259   8.054   3.661  0.2441 -0.5069  1.0021
  931MOL0     H25629   6.321   7.992   3.507 -1.9318  1.7989  0.5513
  931MOL0     H25630   6.490   7.851   3.621 -0.5807 -0.0653 -1.4656
  931MOL0     H25631   6.436   7.901   3.779 -0.9770 -0.6089  0.9339
  931MOL0     H25632   6.285   7.747   3.560 -1.0157 -0.8620  0.9081
  931MOL0     H25633   6.378   7.664   3.691  0.6711  0.0978  1.9748
  931MOL0     H25634   6.143   7.830   3.760  0.3469  0.7173  5.0342
  931MOL0     H25635   6.275   7.764   3.858  1.9470 -1.2341 -1.5611
  931MOL0     H25636   6.308   7.494   3.877 -0.5737 -2.3062  0.7433
  931MOL0     H25637   6.153   7.204   3.853  2.2542  0.2304  0.2110
  931MOL0     H25638   6.226   7.280   3.979  0.2045 -1.4114 -0.9556
  931MOL0     H25639   5.924   7.236   3.954  0.9308 -0.3058 -1.5895
  931MOL0     H25640   5.984   7.313   4.091  0.9206  0.5033  0.8094
  931MOL0     H25641   6.126   7.132   4.153  0.1420  2.2720 -0.6858
  931MOL0     H25642   6.071   7.023   4.029  2.0053 -0.5748  1.1986
  931MOL0     H25643   5.923   6.983   4.212  1.9181 -0.0665  2.7270
  931MOL0     H25644   5.828   7.091   4.110 -0.2737 -2.9426 -0.3239
  931MOL0     H25645   5.936   7.148   4.527  0.4605 -1.4851 -0.5885
  931MOL0     H25646   5.669   7.165   4.764  0.0504 -0.1454 -0.6914
  931MOL0     H25647   5.780   7.017   4.763 -2.4383 -1.4763 -2.2951
  931MOL0     H25648   5.845   7.180   4.744 -0.2267  0.6455  2.7413
  931MOL0     H25649   5.505   6.912   4.971 -0.7857 -0.3443  0.3936
  931MOL0     H25650   5.318   6.830   5.104  1.3171  4.3380 -1.9602
  931MOL0     H25651   5.174   6.636   5.178 -1.5234  0.4434  1.5130
  931MOL0     H25652   5.102   6.791   5.154  1.6864  1.0027 -2.4744
  931MOL0     H25653   4.890   6.638   5.072 -0.7458 -1.2286  0.7483
  931MOL0     H25654   4.981   6.508   5.159  3.5249  0.1715 -0.6210
  931MOL0     H25655   4.881   6.780   5.286 -2.6497  1.0903  0.3807
  931MOL0     H25656   4.946   6.644   5.370  3.1882 -0.3340 -0.9665
  931MOL0     H25657   4.672   6.672   5.222  0.7747 -0.2131 -0.7044
  931MOL0     H25658   4.734   6.506   5.258 -1.1990 -1.4624  3.4518
  931MOL0     H25659   4.582   6.629   5.416 -0.2711  0.4714 -1.7172
  931MOL0     H25660   4.730   6.711   5.479  1.8929 -1.8237  2.6208
  931MOL0     H25661   4.687   6.402   5.462 -0.5629  0.4290 -0.7942
  931MOL0     H25662   4.830   6.496   5.503  0.8498  2.6553  1.0384
  931MOL0     H25663   4.700   6.605   5.702  0.4272  0.6014 -0.3367
  931MOL0     H25664   4.707   6.429   5.716  0.1171  0.2924 -0.1698
  931MOL0     H25665   4.477   6.583   5.606 -0.7490 -1.1798 -0.9928
  931MOL0     H25666   4.488   6.505   5.768  3.0287 -0.4013  1.1207
  931MOL0     H25667   5.188   6.620   4.749 -0.0340  0.8684 -0.2379
  931MOL0     H25668   5.339   6.732   4.616 -1.6310 -1.9532  0.8335
  931MOL0     H25669   5.476   7.111   4.351  2.6387  3.1598 -4.3142
  931MOL0     H25670   5.649   7.151   4.210  1.3615  1.6467  0.1575
  931MOL0     H25671   6.991   8.211   3.259  0.0507  2.5318  2.3244
  931MOL0     H25672   7.233   8.168   3.194  0.9236  0.9280  1.9768
  931MOL0     H25673   7.538   7.685   3.055 -2.6061  0.8698  1.1871
  931MOL0     H25674   7.786   7.643   3.051  1.9267 -0.1631  1.6106
  931MOL0     H25675   8.145   7.703   3.277  1.9688  1.4953  2.1673
  931MOL0     H25676   8.072   7.851   3.323  0.4376  0.1710 -2.4443
  931MOL0     H25677   7.963   7.574   3.416  1.0077 -0.2777 -1.9528
  931MOL0     H25678   7.921   7.742   3.476 -3.2731 -3.0313 -0.0581
  931MOL0     H25679   8.138   7.792   3.537  1.4837 -0.2857 -0.8459
  931MOL0     H25680   8.210   7.642   3.477  2.8364  1.0861  1.6619
  931MOL0     H25681   8.020   7.686   3.701 -0.7510  0.8244 -0.6744
  931MOL0     H25682   8.196   7.660   3.721 -0.3858  1.5571 -1.4836
  931MOL0     H25683   8.101   7.252   3.666 -1.2931  0.0577 -1.7862
  931MOL0     H25684   7.843   7.907   3.366 -1.3059 -1.2622  1.1933
  931MOL0     H25685   7.594   7.970   3.365 -1.7947  0.5688 -0.5046
  932MOL0     O25686  11.215   9.440   4.165 -0.6166  0.8824  0.2049
  932MOL0     C25687  11.258   9.482   4.059  0.2066 -0.5334 -0.6058
  932MOL0     O25688  11.200   9.457   3.943  0.5256 -0.1957  0.2285
  932MOL0     C25689  11.084   9.379   3.934  0.0793  0.4368 -0.8158
  932MOL0     C25690  11.092   9.264   3.860 -0.3968  0.2433 -0.1284
  932MOL0     C25691  10.984   9.187   3.836  0.4257 -0.1413  1.0941
  932MOL0     C25692  10.855   9.218   3.881 -0.5008 -0.1974  0.7237
  932MOL0     O25693  10.743   9.151   3.853 -0.1741  0.0296  0.4694
  932MOL0     C25694  10.742   9.056   3.738 -1.3811  0.0448 -0.0943
  932MOL0     C25695  10.594   9.030   3.707 -0.1860 -0.2661  0.1323
  932MOL0     C25696  10.578   8.945   3.585 -1.0092 -0.0161 -0.2981
  932MOL0     C25697  10.461   8.979   3.494  0.0921  0.1701  0.3410
  932MOL0     C25698  10.435   8.887   3.376 -0.1299  0.0469  0.3704
  932MOL0     C25699  10.444   8.735   3.425  0.8680  0.5489 -0.1959
  932MOL0     C25700  10.376   8.647   3.330 -0.6993  0.6342 -0.0328
  932MOL0     C25701  10.375   8.497   3.369  0.6110 -0.2866 -0.6562
  932MOL0     N25702  10.507   8.440   3.358 -0.4666 -0.5076 -0.2443
  932MOL0     C25703  10.608   8.450   3.456  0.7733 -0.4250 -0.2778
  932MOL0     C25704  10.704   8.358   3.420 -0.3313  0.0974 -0.1378
  932MOL0     C25705  10.830   8.331   3.482 -0.5265  0.0476 -0.8788
  932MOL0     C25706  10.942   8.278   3.384 -0.1248  0.1021 -0.5061
  932MOL0     C25707  10.989   8.374   3.277  0.0725  0.1592 -0.2325
  932MOL0     C25708  11.062   8.491   3.331  0.6636 -0.6299 -0.2172
  932MOL0     O25709  11.103   8.593   3.236  0.1150 -0.3317  0.1124
  932MOL0     C25710  11.010   8.686   3.190  0.5902  0.0500  0.9376
  932MOL0     C25711  11.062   8.772   3.095 -0.2342  0.5021  0.6586
  932MOL0     C25712  10.978   8.865   3.036  1.7554  0.0642 -0.3066
  932MOL0     C25713  11.053   8.960   2.947  0.4408 -0.1293  0.2142
  932MOL0     C25714  10.840   8.877   3.082 -0.1309 -0.5251  0.6526
  932MOL0     C25715  10.739   8.976   3.030  0.1332  0.7933  0.3081
  932MOL0     O25716  10.652   9.026   3.115 -0.1179  0.0795 -0.7043
  932MOL0     C25717  10.528   9.076   3.085  0.0343  0.1625  0.0047
  932MOL0     C25718  10.458   9.034   2.968 -1.0376 -0.7753 -0.2886
  932MOL0     C25719  10.331   9.086   2.929 -0.9649 -0.7080  0.0222
  932MOL0     C25720  10.273   9.179   3.017 -0.2466 -0.7515  0.0198
  932MOL0     O25721  10.149   9.205   2.976 -0.4957  0.0992  0.0642
  932MOL0     C25722  10.070   9.311   3.035  0.2678 -0.2149  0.2966
  932MOL0     C25723   9.937   9.255   3.078 -0.1688  0.9550 -0.0397
  932MOL0     C25724   9.935   9.130   3.167  0.1820  0.2075 -0.8200
  932MOL0     C25725   9.989   9.152   3.305 -0.1071 -0.1819 -0.3283
  932MOL0     C25726   9.912   9.254   3.393 -0.1915 -0.2153  0.2042
  932MOL0     C25727   9.776   9.191   3.432 -0.2015 -0.8612  0.5377
  932MOL0     C25728   9.729   9.263   3.553 -0.6578 -0.9162  0.1616
  932MOL0     C25729   9.607   9.187   3.603  0.1991  0.3204  0.1140
  932MOL0    Cl25730   9.472   9.172   3.481 -0.3585  0.0316 -0.3893
  932MOL0     C25731  10.346   9.231   3.132  0.2324 -0.9344  0.1111
  932MOL0     C25732  10.468   9.174   3.166  0.1878  0.6423  0.1485
  932MOL0     O25733  10.731   8.999   2.910 -0.1595  0.4032 -0.1420
  932MOL0     C25734  10.794   8.796   3.184 -0.4941 -0.1517  0.4093
  932MOL0     C25735  10.880   8.695   3.239  0.9026 -0.4032 -0.2571
  932MOL0     N25736  10.659   8.292   3.311  0.0293  0.3124  0.5784
  932MOL0     N25737  10.544   8.336   3.279 -0.1306  0.6631  0.3337
  932MOL0     C25738  10.846   9.333   3.957 -0.8435 -0.4342 -0.5163
  932MOL0     C25739  10.958   9.422   3.985 -1.2674  0.3733 -0.2690
  932MOL0     C25740  11.367   9.584   4.064 -0.2486 -0.2768  0.1400
  932MOL0     C25741  11.393   9.667   3.948 -0.3848  0.3391  0.0270
  932MOL0     C25742  11.503   9.747   3.950 -0.2902  0.6543 -0.3836
  932MOL0     C25743  11.598   9.753   4.051  0.0076 -0.2116  0.1495
  932MOL0     O25744  11.709   9.840   4.030  1.0280 -0.7089 -0.2736
  932MOL0     C25745  11.840   9.795   4.054 -0.4086 -0.6287  0.4754
  932MOL0     C25746  11.924   9.923   4.075 -0.2244 -0.6177 -0.2447
  932MOL0     C25747  11.874   9.991   4.202 -1.2109  0.5563  0.4639
  932MOL0     C25748  11.986  10.075   4.271  0.7760  1.1768  0.0762
  932MOL0     C25749  12.037  10.183   4.184  0.9850 -0.3953 -0.1526
  932MOL0     C25750  12.088  10.277   4.119  0.2176 -0.3850  0.6201
  932MOL0     C25751  11.581   9.669   4.163 -0.1251  0.0482  0.4779
  932MOL0     C25752  11.460   9.587   4.167  0.1467  0.0698  0.4423
  932MOL0     H25753  11.189   9.232   3.823  0.9535 -0.1396  3.3252
  932MOL0     H25754  10.994   9.089   3.790 -0.0893  0.2976 -0.0001
  932MOL0     H25755  10.784   9.092   3.644  0.8255 -1.2360  0.3444
  932MOL0     H25756  10.788   8.965   3.776 -0.2482 -0.5182 -2.6340
  932MOL0     H25757  10.550   8.996   3.801 -1.9014  0.9799 -0.1726
  932MOL0     H25758  10.560   9.134   3.693  1.3915  0.7258  2.7957
  932MOL0     H25759  10.671   8.951   3.529  0.1982 -1.7414  1.3995
  932MOL0     H25760  10.569   8.841   3.619  0.8582  0.4044  1.7077
  932MOL0     H25761  10.366   8.964   3.546 -0.3902 -1.9683 -1.0541
  932MOL0     H25762  10.474   9.085   3.469 -1.0450  0.3268  0.3289
  932MOL0     H25763  10.335   8.915   3.340  1.2412  2.1444 -2.1715
  932MOL0     H25764  10.506   8.903   3.295  0.3543  1.3277  1.0342
  932MOL0     H25765  10.547   8.698   3.431  0.6614 -0.5214 -2.3105
  932MOL0     H25766  10.389   8.735   3.520  2.4144 -2.4902  0.8461
  932MOL0     H25767  10.272   8.684   3.329 -0.7516  0.6118  1.7522
  932MOL0     H25768  10.417   8.663   3.230  1.4867 -0.3657  0.6621
  932MOL0     H25769  10.305   8.431   3.318  2.4473 -4.4502  1.6640
  932MOL0     H25770  10.351   8.490   3.476  1.6451 -2.6520 -0.5222
  932MOL0     H25771  10.614   8.523   3.536  0.0363 -1.4619  0.7429
  932MOL0     H25772  10.867   8.415   3.542  1.1609 -1.7153  0.6923
  932MOL0     H25773  10.811   8.249   3.552  0.2665  1.1448  0.7100
  932MOL0     H25774  10.895   8.193   3.335  1.4141 -0.6001 -0.8202
  932MOL0     H25775  11.023   8.232   3.440 -0.5487  0.2077  0.1967
  932MOL0     H25776  10.904   8.402   3.216 -1.5656  0.5781  2.0939
  932MOL0     H25777  11.064   8.324   3.215  1.4562  2.0544 -0.1870
  932MOL0     H25778  11.156   8.456   3.374  0.7624 -1.2643 -0.9223
  932MOL0     H25779  11.006   8.544   3.409 -0.0589 -2.0578  0.2700
  932MOL0     H25780  11.162   8.755   3.056 -0.2137 -1.7798  1.5647
  932MOL0     H25781  10.998   9.055   2.951 -0.2695 -0.4356 -1.3529
  932MOL0     H25782  11.158   8.964   2.979 -0.2571 -1.3935  2.9476
  932MOL0     H25783  11.047   8.929   2.842  1.0290 -0.0113  0.1416
  932MOL0     H25784  10.487   8.952   2.902 -2.4149  0.2519 -2.2639
  932MOL0     H25785  10.281   9.048   2.841 -1.4677 -0.1050  0.0441
  932MOL0     H25786  10.105   9.362   3.125 -1.7196  1.6123  0.1310
  932MOL0     H25787  10.058   9.388   2.958  0.2562 -0.6607 -0.1551
  932MOL0     H25788   9.876   9.335   3.122 -0.4317  0.2341  0.9510
  932MOL0     H25789   9.884   9.213   2.992  3.1795 -1.1022 -1.2828
  932MOL0     H25790   9.969   9.040   3.114 -2.9907 -0.9254 -1.1600
  932MOL0     H25791   9.829   9.105   3.177  0.3697 -0.5602 -0.6812
  932MOL0     H25792   9.990   9.052   3.349  2.1631 -0.4922 -0.9495
  932MOL0     H25793  10.095   9.179   3.299 -0.4234  2.4235  2.8561
  932MOL0     H25794   9.905   9.351   3.344  2.9695  0.0030 -0.0268
  932MOL0     H25795   9.975   9.267   3.481 -1.2157  0.8057  0.8181
  932MOL0     H25796   9.711   9.196   3.345  0.9319  0.5128 -0.2726
  932MOL0     H25797   9.800   9.088   3.460 -0.0989 -0.4580  1.9891
  932MOL0     H25798   9.690   9.363   3.530  0.1186 -0.0411  2.4258
  932MOL0     H25799   9.808   9.269   3.627 -1.1984  2.3317  0.6338
  932MOL0     H25800   9.558   9.235   3.688 -2.4759 -3.8200  1.1982
  932MOL0     H25801   9.646   9.093   3.643  1.1687  1.1274  1.1627
  932MOL0     H25802  10.297   9.300   3.200  1.0830 -1.7669  1.6280
  932MOL0     H25803  10.526   9.209   3.251  3.1584  0.0478 -1.4901
  932MOL0     H25804  10.691   8.799   3.218 -1.4146  1.6608 -2.2185
  932MOL0     H25805  10.848   8.629   3.319  0.6921  0.5357  0.4549
  932MOL0     H25806  10.752   9.366   4.001  0.8674  0.2066  3.0090
  932MOL0     H25807  10.934   9.512   4.039 -0.8224  0.2594  0.1269
  932MOL0     H25808  11.333   9.651   3.859 -2.0964  1.2923  0.9642
  932MOL0     H25809  11.523   9.818   3.870  0.9027  0.0880 -0.6140
  932MOL0     H25810  11.840   9.728   4.140  0.2354  1.6439  2.3599
  932MOL0     H25811  11.872   9.728   3.974 -0.6474 -1.4127  1.0259
  932MOL0     H25812  11.927   9.985   3.984  0.0658 -1.0726 -0.5513
  932MOL0     H25813  12.027   9.889   4.085 -0.1410  0.0153  1.3456
  932MOL0     H25814  11.845   9.908   4.266  1.3052 -0.9976 -0.2269
  932MOL0     H25815  11.795  10.062   4.175  0.6744  2.4209 -0.4485
  932MOL0     H25816  12.061   9.998   4.289 -0.4311 -0.8164 -2.7991
  932MOL0     H25817  11.936  10.112   4.361 -2.8808 -1.3429 -0.6947
  932MOL0     H25818  12.150  10.354   4.076 -0.9393 -0.1788 -0.7741
  932MOL0     H25819  11.642   9.660   4.253 -1.8716 -0.3379  1.6732
  932MOL0     H25820  11.440   9.532   4.258 -2.6421  0.0754 -0.0850
  933MOL0     O25821   4.475   4.714   3.924 -0.0950  0.0256 -0.2975
  933MOL0     C25822   4.516   4.598   3.941 -0.3943 -0.5406  0.1007
  933MOL0     O25823   4.453   4.489   3.883 -1.0560  0.5125  0.5018
  933MOL0     C25824   4.353   4.498   3.793 -0.3915 -0.1305 -0.1474
  933MOL0     C25825   4.245   4.598   3.792 -0.2491  0.2473  0.1179
  933MOL0     C25826   4.141   4.584   3.697  0.1714  1.0998  0.3938
  933MOL0     C25827   4.130   4.478   3.605  0.4762  0.2283 -0.9033
  933MOL0     O25828   4.011   4.458   3.545  0.3742  0.7379 -0.0234
  933MOL0     C25829   4.017   4.436   3.399  0.5282  0.0336  0.7406
  933MOL0     C25830   3.880   4.383   3.353  0.1730  0.3090  0.9008
  933MOL0     C25831   3.880   4.322   3.216  0.4598  0.5196  0.3396
  933MOL0     C25832   3.747   4.258   3.186  0.9523  0.2947  0.3577
  933MOL0     C25833   3.757   4.204   3.041  0.5367  0.1737 -0.1557
  933MOL0     C25834   3.628   4.147   2.990  0.6659  1.0613  0.4981
  933MOL0     C25835   3.562   4.041   3.080  0.3055  0.0439  0.0138
  933MOL0     C25836   3.446   3.967   3.008  0.4384  0.1080 -0.1563
  933MOL0     N25837   3.317   4.038   2.994 -0.2896  0.0426 -0.2276
  933MOL0     C25838   3.247   4.054   2.875  0.2063  0.3848 -0.1101
  933MOL0     C25839   3.136   4.120   2.917 -0.5075 -0.7862 -0.8931
  933MOL0     C25840   3.031   4.161   2.818  0.9683  0.0914  0.9743
  933MOL0     C25841   2.911   4.057   2.804 -0.4054  0.2144 -0.4192
  933MOL0     C25842   2.859   3.997   2.940 -0.8964 -1.1089 -0.8769
  933MOL0     C25843   2.787   4.101   3.027  0.3588 -0.4064 -0.7040
  933MOL0     O25844   2.747   4.025   3.152 -0.3134  0.1014  0.0604
  933MOL0     C25845   2.767   4.073   3.278 -0.7486  0.4451 -0.0846
  933MOL0     C25846   2.753   3.983   3.380 -0.6759  0.7597  0.1295
  933MOL0     C25847   2.780   4.010   3.515  0.2091  0.2903 -0.2688
  933MOL0     C25848   2.741   3.900   3.615  0.7137 -0.4081 -0.3213
  933MOL0     C25849   2.821   4.144   3.549 -0.6875  0.8367  0.8581
  933MOL0     C25850   2.843   4.193   3.686 -0.5725 -0.6135  0.8108
  933MOL0     O25851   2.906   4.315   3.685 -0.4741  0.7241  0.0154
  933MOL0     C25852   2.993   4.357   3.789 -0.0414  0.2052  0.3073
  933MOL0     C25853   3.042   4.484   3.771 -0.7302  0.3593 -0.1026
  933MOL0     C25854   3.116   4.537   3.871  0.3379 -0.7415  0.8758
  933MOL0     C25855   3.151   4.473   3.984  0.7581  0.0587  0.2619
  933MOL0     O25856   3.238   4.527   4.079 -0.3031  0.1720  1.3219
  933MOL0     C25857   3.360   4.466   4.110 -0.1775  0.3190 -0.3393
  933MOL0     C25858   3.483   4.483   4.016 -0.2539 -0.8266 -0.2308
  933MOL0     C25859   3.528   4.628   4.005 -0.5590  0.1198  0.0247
  933MOL0     C25860   3.677   4.646   3.958 -0.2370 -0.2291 -0.6491
  933MOL0     C25861   3.777   4.608   4.074  0.4589 -0.1348  1.0703
  933MOL0     C25862   3.926   4.616   4.042 -0.1258  0.6008  1.0781
  933MOL0     C25863   3.991   4.568   4.168  0.0261 -0.0974 -0.9648
  933MOL0     C25864   4.136   4.520   4.144  0.7111 -0.2430 -0.4335
  933MOL0    Cl25865   4.187   4.426   4.285 -0.1620 -0.0371  0.0429
  933MOL0     C25866   3.090   4.353   4.013  0.3769  0.2624 -0.0300
  933MOL0     C25867   3.009   4.290   3.918  0.9818 -0.2189  0.5226
  933MOL0     O25868   2.796   4.143   3.783  0.0257  0.0918  0.1120
  933MOL0     C25869   2.834   4.238   3.440  0.1281 -0.0104  0.7182
  933MOL0     C25870   2.798   4.207   3.304 -1.3540  0.2085 -0.6645
  933MOL0     N25871   3.135   4.135   3.053 -1.1473 -0.1200  0.0415
  933MOL0     N25872   3.248   4.087   3.098 -0.4379  0.4921 -0.0880
  933MOL0     C25873   4.236   4.381   3.609 -0.0841  0.3564 -0.2850
  933MOL0     C25874   4.340   4.390   3.697  0.0399 -0.1552 -0.5852
  933MOL0     C25875   4.651   4.578   4.009 -0.5046  0.1516 -0.0210
  933MOL0     C25876   4.687   4.456   4.053  0.1097 -0.0750  0.3409
  933MOL0     C25877   4.810   4.448   4.116 -0.7133  0.2328 -0.1294
  933MOL0     C25878   4.894   4.554   4.136 -0.1251 -0.0897 -0.2690
  933MOL0     O25879   5.021   4.528   4.188  0.1885  0.3536  0.6221
  933MOL0     C25880   5.118   4.626   4.223 -0.0553 -0.4092  0.3927
  933MOL0     C25881   5.210   4.664   4.105 -0.5280 -0.4962  0.2389
  933MOL0     C25882   5.326   4.568   4.072 -0.4934 -0.2585 -0.4710
  933MOL0     C25883   5.449   4.595   4.154  0.5399  0.0074 -0.4034
  933MOL0     C25884   5.428   4.557   4.290  0.4972  0.3909 -0.2498
  933MOL0     C25885   5.407   4.528   4.406 -0.1296 -0.6072  0.0843
  933MOL0     C25886   4.848   4.680   4.092 -0.7885 -0.1787  0.1781
  933MOL0     C25887   4.720   4.688   4.044 -0.5269 -0.4856 -0.8378
  933MOL0     H25888   4.252   4.678   3.865  1.9926  0.5730 -0.3644
  933MOL0     H25889   4.051   4.645   3.699 -3.3509 -3.5432  3.4241
  933MOL0     H25890   4.044   4.522   3.338 -0.6414  1.8360  2.6002
  933MOL0     H25891   4.094   4.361   3.380  0.7788  1.1202 -3.4743
  933MOL0     H25892   3.853   4.305   3.425  0.6186 -0.5963  0.1157
  933MOL0     H25893   3.813   4.469   3.355 -1.9281 -1.1983 -0.8277
  933MOL0     H25894   3.913   4.390   3.137 -0.7494  1.8973  0.9687
  933MOL0     H25895   3.929   4.225   3.206 -1.7616 -0.4236 -2.8905
  933MOL0     H25896   3.726   4.175   3.254 -1.3839  0.8488  0.4064
  933MOL0     H25897   3.673   4.338   3.194  0.3746 -0.1446 -0.5157
  933MOL0     H25898   3.782   4.278   2.964  0.7498 -2.1745 -2.4493
  933MOL0     H25899   3.839   4.131   3.042  1.6152  1.3391 -0.0879
  933MOL0     H25900   3.559   4.229   2.967 -1.2078 -0.8137 -1.0378
  933MOL0     H25901   3.651   4.091   2.899 -3.3233 -0.6025  0.2895
  933MOL0     H25902   3.639   3.969   3.110 -0.9718 -0.5875  1.9442
  933MOL0     H25903   3.535   4.086   3.176  0.4659 -1.5553  0.8526
  933MOL0     H25904   3.433   3.877   3.070 -1.7418  0.9964  0.7763
  933MOL0     H25905   3.471   3.942   2.904 -0.3656  4.4856 -1.5948
  933MOL0     H25906   3.275   4.022   2.775  1.7780 -1.6899  0.9162
  933MOL0     H25907   2.996   4.260   2.850  2.8573  0.5447  1.8151
  933MOL0     H25908   3.070   4.176   2.717  0.2423 -2.9670  0.1345
  933MOL0     H25909   2.940   3.973   2.740 -0.8222 -0.2992  0.0572
  933MOL0     H25910   2.822   4.097   2.754  0.0840 -0.1439 -1.6224
  933MOL0     H25911   2.943   3.950   2.991 -0.5951  1.2375  0.9316
  933MOL0     H25912   2.780   3.924   2.918 -1.3916 -0.4896 -1.1932
  933MOL0     H25913   2.703   4.150   2.978  0.9850  1.9161  0.4140
  933MOL0     H25914   2.858   4.184   3.040 -0.4256  0.4272 -1.5952
  933MOL0     H25915   2.716   3.887   3.346  0.8204 -0.1721  0.9517
  933MOL0     H25916   2.742   3.924   3.722 -1.5386 -2.2772  0.2130
  933MOL0     H25917   2.637   3.867   3.602 -0.7403  4.0477 -1.8613
  933MOL0     H25918   2.808   3.814   3.608  1.2915 -0.1449  1.4445
  933MOL0     H25919   3.016   4.540   3.681  0.0353 -0.4380 -0.8438
  933MOL0     H25920   3.159   4.635   3.853  0.8103 -1.3743 -1.8980
  933MOL0     H25921   3.395   4.501   4.207 -0.3900 -3.6559  1.3714
  933MOL0     H25922   3.346   4.359   4.128  2.0087  0.0708  0.1229
  933MOL0     H25923   3.566   4.416   4.038 -2.2967 -3.3906  0.1612
  933MOL0     H25924   3.452   4.451   3.916  0.1117 -0.5555 -0.4361
  933MOL0     H25925   3.537   4.658   4.110  0.8443  0.6158 -0.2099
  933MOL0     H25926   3.463   4.691   3.944  0.9163  0.2143 -1.5637
  933MOL0     H25927   3.701   4.587   3.869  0.4771 -2.0582  0.6890
  933MOL0     H25928   3.691   4.749   3.924 -2.0718 -0.2607 -1.6241
  933MOL0     H25929   3.745   4.520   4.130  1.4686  0.2337  2.2947
  933MOL0     H25930   3.768   4.681   4.155 -1.0811 -0.1930  0.9738
  933MOL0     H25931   3.939   4.548   3.957  1.3369  0.6090  1.2579
  933MOL0     H25932   3.966   4.715   4.019  0.8686 -0.1521 -0.6484
  933MOL0     H25933   3.940   4.482   4.213  1.0780  0.5499  1.6561
  933MOL0     H25934   4.002   4.642   4.248  2.2039 -0.9587 -0.4116
  933MOL0     H25935   4.198   4.610   4.131  1.4647 -0.2081  2.6016
  933MOL0     H25936   4.138   4.459   4.053  0.3327  1.1453 -1.4105
  933MOL0     H25937   3.122   4.311   4.108  0.5684 -1.5711 -0.8615
  933MOL0     H25938   2.948   4.205   3.945 -0.3599  1.3740  2.7863
  933MOL0     H25939   2.876   4.337   3.458 -0.0711 -0.0538  1.4385
  933MOL0     H25940   2.799   4.287   3.231  0.0235  0.0975 -0.7920
  933MOL0     H25941   4.220   4.298   3.541  1.9645  1.0475 -1.6850
  933MOL0     H25942   4.417   4.313   3.698 -0.1759 -0.3930  1.1004
  933MOL0     H25943   4.638   4.359   4.046 -2.4587  1.1677  0.0392
  933MOL0     H25944   4.844   4.351   4.152 -1.1636  0.6045  1.3611
  933MOL0     H25945   5.061   4.717   4.247 -1.0940 -1.5420  2.5287
  933MOL0     H25946   5.168   4.603   4.318  0.2271 -1.3088  0.0282
  933MOL0     H25947   5.255   4.761   4.128  0.7221 -0.9953 -0.0154
  933MOL0     H25948   5.150   4.687   4.017  0.2065 -1.8841 -0.6660
  933MOL0     H25949   5.360   4.572   3.968  1.7783  1.0497  0.2672
  933MOL0     H25950   5.300   4.462   4.085  2.1113 -0.9527 -0.4281
  933MOL0     H25951   5.483   4.698   4.145  0.2874  0.2367  1.0764
  933MOL0     H25952   5.540   4.541   4.126  0.7826  0.7193 -1.0227
  933MOL0     H25953   5.375   4.520   4.508  3.1719 -3.1799  1.1204
  933MOL0     H25954   4.909   4.770   4.095  1.4774 -1.6275 -0.0895
  933MOL0     H25955   4.689   4.787   4.012  1.6863  0.2625 -0.8438
  934MOL0     O25956   8.817   1.508   6.194 -0.1950 -0.4887  0.1718
  934MOL0     C25957   8.884   1.546   6.094  0.1109 -0.7713 -1.4445
  934MOL0     O25958   8.850   1.659   6.019 -0.6300 -0.1888  0.6910
  934MOL0     C25959   8.753   1.746   6.056  0.7877 -0.5766  0.2337
  934MOL0     C25960   8.636   1.764   5.970  0.0073 -0.1160  0.0691
  934MOL0     C25961   8.539   1.853   6.008  0.7160  0.1117 -0.0769
  934MOL0     C25962   8.556   1.938   6.119 -0.1315  0.1590 -0.0283
  934MOL0     O25963   8.450   2.018   6.142  0.2430  0.0146  0.2590
  934MOL0     C25964   8.417   2.079   6.265 -0.3628  0.0015  0.3803
  934MOL0     C25965   8.322   1.992   6.342  0.4803 -0.0274  0.4466
  934MOL0     C25966   8.186   1.956   6.276 -0.2341  0.5170  0.3106
  934MOL0     C25967   8.118   2.087   6.233  0.0661  0.9518 -0.5830
  934MOL0     C25968   7.969   2.075   6.224 -0.0813 -0.0120 -0.6392
  934MOL0     C25969   7.898   2.208   6.233  0.1789 -0.4684  1.1477
  934MOL0     C25970   7.749   2.202   6.215  0.7994  0.1449  0.6981
  934MOL0     C25971   7.711   2.167   6.071 -0.1016 -0.2083 -0.6471
  934MOL0     N25972   7.743   2.265   5.962 -0.0244 -0.0715  0.6656
  934MOL0     C25973   7.672   2.378   5.944 -0.2932  0.0295 -0.6458
  934MOL0     C25974   7.698   2.418   5.817  0.2067  0.3220  0.9584
  934MOL0     C25975   7.629   2.525   5.742  0.6391  0.2101  0.5694
  934MOL0     C25976   7.596   2.484   5.596  0.4261  0.2289  0.4931
  934MOL0     C25977   7.537   2.587   5.490  0.7334  0.6654 -0.8434
  934MOL0     C25978   7.437   2.527   5.389 -1.6616 -0.2235 -0.4599
  934MOL0     O25979   7.436   2.604   5.266  0.7318 -0.0435 -0.8736
  934MOL0     C25980   7.363   2.566   5.160  0.9281 -0.3237 -0.1515
  934MOL0     C25981   7.348   2.649   5.049 -0.2710  0.7590  0.2961
  934MOL0     C25982   7.277   2.614   4.929  0.3170 -0.4892 -1.0424
  934MOL0     C25983   7.280   2.715   4.815 -0.1983 -0.1024 -0.2231
  934MOL0     C25984   7.192   2.497   4.936 -0.9165  0.2153  0.8609
  934MOL0     C25985   7.121   2.438   4.814 -1.2824 -0.0455  0.4104
  934MOL0     O25986   7.070   2.309   4.840 -0.0324  0.3516  0.3027
  934MOL0     C25987   7.002   2.232   4.755  0.6849  0.0695 -0.2015
  934MOL0     C25988   6.970   2.260   4.619  0.4606 -1.1852  0.7111
  934MOL0     C25989   6.903   2.175   4.535  0.6644 -0.3790 -0.2398
  934MOL0     C25990   6.860   2.054   4.586  0.3893 -0.1678 -0.6921
  934MOL0     O25991   6.801   1.970   4.491  0.0398  0.2184  0.0052
  934MOL0     C25992   6.708   1.869   4.540 -0.7659 -0.0941  1.0895
  934MOL0     C25993   6.574   1.934   4.566 -0.8075 -0.0163  0.2131
  934MOL0     C25994   6.453   1.827   4.576  1.0000 -0.3852  0.3762
  934MOL0     C25995   6.405   1.764   4.446  0.5262 -0.4370 -0.4560
  934MOL0     C25996   6.285   1.670   4.483  0.1729  0.5808 -0.9946
  934MOL0     C25997   6.189   1.664   4.373  0.5114  0.5431  0.4578
  934MOL0     C25998   6.063   1.592   4.408  0.9328  0.2390 -0.4079
  934MOL0     C25999   5.978   1.540   4.295  0.0287  1.3270 -0.1961
  934MOL0    Cl26000   5.808   1.523   4.355 -0.1972  0.0881 -0.4023
  934MOL0     C26001   6.899   2.017   4.714 -0.7529 -0.4480  0.4214
  934MOL0     C26002   6.969   2.109   4.802  1.1734  0.0410  0.4726
  934MOL0     O26003   7.112   2.501   4.715 -0.0077 -0.0141 -0.3497
  934MOL0     C26004   7.188   2.429   5.057  0.4837  0.5696 -0.6564
  934MOL0     C26005   7.274   2.455   5.157  0.3500 -1.3220 -0.1646
  934MOL0     N26006   7.792   2.334   5.773  0.2704  0.0933  0.4314
  934MOL0     N26007   7.828   2.251   5.856  0.2122  0.7966  0.5184
  934MOL0     C26008   8.674   1.923   6.199 -0.1600  0.3533 -0.1872
  934MOL0     C26009   8.770   1.825   6.167  0.3422  0.1577  0.3441
  934MOL0     C26010   9.011   1.473   6.063  0.4452  0.0594 -0.8391
  934MOL0     C26011   9.090   1.506   5.952  0.0659  0.6694  0.1049
  934MOL0     C26012   9.219   1.448   5.927  1.6503  0.1357  0.9687
  934MOL0     C26013   9.278   1.362   6.021  1.0666  0.5114  0.1968
  934MOL0     O26014   9.408   1.322   5.995  0.8441  0.4648  0.0797
  934MOL0     C26015   9.438   1.190   6.042  0.7606 -0.1359 -0.0499
  934MOL0     C26016   9.588   1.164   6.020 -0.2339 -0.9084  0.3448
  934MOL0     C26017   9.678   1.266   6.080  0.7382 -0.3517  0.3495
  934MOL0     C26018   9.822   1.217   6.093 -0.5639 -0.5246 -1.2976
  934MOL0     C26019   9.880   1.176   5.962 -0.5882 -0.9795  0.5148
  934MOL0     C26020   9.940   1.146   5.859 -0.3697  0.0873 -0.3731
  934MOL0     C26021   9.192   1.319   6.125 -0.0308  0.2552 -0.0042
  934MOL0     C26022   9.061   1.365   6.153  1.1798 -1.0997  0.8098
  934MOL0     H26023   8.647   1.684   5.897 -0.5228 -2.2677  2.2340
  934MOL0     H26024   8.448   1.851   5.949 -0.8011  0.1620  2.1792
  934MOL0     H26025   8.510   2.094   6.322  1.5822 -0.3787 -2.4487
  934MOL0     H26026   8.375   2.177   6.239 -0.2516  0.7254  2.6499
  934MOL0     H26027   8.381   1.905   6.373  2.9972  1.6934  0.7377
  934MOL0     H26028   8.286   2.046   6.430 -4.3187 -0.6159 -0.8502
  934MOL0     H26029   8.203   1.897   6.185 -0.1993  2.3815 -0.9521
  934MOL0     H26030   8.123   1.904   6.348 -1.4247  1.7866  0.2177
  934MOL0     H26031   8.132   2.163   6.311 -0.1325  0.8796 -0.4775
  934MOL0     H26032   8.163   2.117   6.138 -2.4381  0.1057 -2.1160
  934MOL0     H26033   7.937   2.027   6.132  1.4526 -0.1148 -1.1548
  934MOL0     H26034   7.931   2.028   6.315  2.3141 -0.5879  0.1365
  934MOL0     H26035   7.908   2.251   6.334  3.5589  0.6120  0.4531
  934MOL0     H26036   7.927   2.284   6.160 -1.0259 -0.9140  0.1688
  934MOL0     H26037   7.715   2.121   6.280  1.0452 -3.2280 -2.9527
  934MOL0     H26038   7.686   2.284   6.251 -0.3931  0.7759 -2.4743
  934MOL0     H26039   7.601   2.164   6.066 -0.0961 -3.1346 -0.9989
  934MOL0     H26040   7.743   2.065   6.047 -1.6323 -0.8299 -0.2413
  934MOL0     H26041   7.590   2.417   6.003 -4.4497 -1.3953 -4.7700
  934MOL0     H26042   7.541   2.555   5.801 -0.5235 -1.7996 -0.0676
  934MOL0     H26043   7.692   2.615   5.734 -1.2930  1.6890  1.2044
  934MOL0     H26044   7.527   2.399   5.604 -0.7833  1.2195  0.9720
  934MOL0     H26045   7.690   2.450   5.550  1.2816 -0.3181  2.5332
  934MOL0     H26046   7.622   2.629   5.435  0.9581 -0.4045 -1.3512
  934MOL0     H26047   7.475   2.661   5.541 -1.6448 -1.9012  0.2119
  934MOL0     H26048   7.338   2.513   5.433 -1.8215  1.5397 -0.1815
  934MOL0     H26049   7.467   2.424   5.367 -1.7056 -0.2939 -0.1866
  934MOL0     H26050   7.415   2.734   5.052  0.8659  0.0804 -2.3972
  934MOL0     H26051   7.329   2.803   4.856  0.8588 -1.8668  2.5869
  934MOL0     H26052   7.345   2.679   4.735  1.2905  0.6273  0.6345
  934MOL0     H26053   7.181   2.734   4.772 -0.3606 -0.0064  0.1922
  934MOL0     H26054   7.013   2.347   4.571  0.2604 -0.8261  1.1693
  934MOL0     H26055   6.870   2.197   4.434 -0.9456 -1.8749 -0.0871
  934MOL0     H26056   6.694   1.789   4.466 -1.1137  2.6193 -2.0343
  934MOL0     H26057   6.739   1.817   4.631  1.1705  1.2073  1.2226
  934MOL0     H26058   6.589   1.992   4.658 -2.7960 -1.4899  1.5676
  934MOL0     H26059   6.563   2.007   4.486  2.4243  0.9811  0.5328
  934MOL0     H26060   6.368   1.874   4.626  0.1423  5.0409 -5.0288
  934MOL0     H26061   6.496   1.747   4.637  1.7065  0.1297  0.5656
  934MOL0     H26062   6.382   1.844   4.375  1.4520  0.4870  0.2423
  934MOL0     H26063   6.476   1.696   4.398  0.9379 -0.3562  0.0309
  934MOL0     H26064   6.235   1.710   4.572 -0.7825 -0.0092 -1.2518
  934MOL0     H26065   6.324   1.572   4.511 -0.0247  0.7799  0.0137
  934MOL0     H26066   6.167   1.764   4.335 -0.3420  0.6127  1.0948
  934MOL0     H26067   6.237   1.625   4.283 -1.0564  3.5039 -1.8499
  934MOL0     H26068   6.002   1.660   4.469 -2.7792 -0.7865 -2.6287
  934MOL0     H26069   6.089   1.513   4.480 -0.0198  1.9735  1.9974
  934MOL0     H26070   6.023   1.446   4.261  2.2391  0.4740  4.3183
  934MOL0     H26071   5.994   1.607   4.211  2.6181  0.1711 -0.7393
  934MOL0     H26072   6.875   1.913   4.733 -1.5301 -0.6688 -1.5524
  934MOL0     H26073   6.990   2.071   4.901  1.5763  0.4458  0.5458
  934MOL0     H26074   7.113   2.351   5.065 -2.2538  2.9083 -1.7098
  934MOL0     H26075   7.282   2.385   5.239  0.5545 -0.4761  0.5619
  934MOL0     H26076   8.686   1.985   6.288  1.6420 -1.8441  1.2004
  934MOL0     H26077   8.858   1.819   6.231 -0.3216 -1.4497  1.1785
  934MOL0     H26078   9.042   1.575   5.884 -1.0175 -0.4313 -0.2845
  934MOL0     H26079   9.273   1.491   5.843 -1.3141  3.2799  0.4430
  934MOL0     H26080   9.427   1.185   6.150  2.3136 -1.9614  0.0691
  934MOL0     H26081   9.369   1.120   5.994  1.0325 -1.6812  1.7358
  934MOL0     H26082   9.601   1.171   5.911 -2.0292 -0.3686  0.1202
  934MOL0     H26083   9.618   1.066   6.059  2.2903 -0.0585  0.7003
  934MOL0     H26084   9.643   1.305   6.176 -0.7999  0.6746 -0.5926
  934MOL0     H26085   9.694   1.348   6.010 -0.5412  0.4531  0.9574
  934MOL0     H26086   9.822   1.132   6.162 -2.5473  1.5592  1.5173
  934MOL0     H26087   9.883   1.294   6.142 -0.6253 -1.1719 -0.1737
  934MOL0     H26088   9.979   1.115   5.764  1.2401 -1.6172  0.7976
  934MOL0     H26089   9.241   1.249   6.193  0.9330  2.3809  1.6329
  934MOL0     H26090   9.011   1.338   6.245 -1.2933 -0.7551 -0.3324
  935MOL0     O26091   3.627   9.016   5.474  0.1813  0.0645  0.0185
  935MOL0     C26092   3.635   8.969   5.362  0.1878  0.3164  0.4573
  935MOL0     O26093   3.531   8.962   5.270 -0.1360 -0.5952  0.7620
  935MOL0     C26094   3.401   8.996   5.293 -0.5618  0.5408 -0.2405
  935MOL0     C26095   3.329   9.075   5.205  0.3222  1.2351  0.0747
  935MOL0     C26096   3.196   9.102   5.235  0.8833 -0.3659  0.2508
  935MOL0     C26097   3.132   9.041   5.345 -0.9055 -0.1407 -0.8707
  935MOL0     O26098   3.007   9.056   5.383  0.3230  0.1932 -0.5129
  935MOL0     C26099   2.942   9.180   5.381  0.0112 -0.2386  0.6821
  935MOL0     C26100   2.792   9.161   5.384 -0.8381 -0.1693  0.5099
  935MOL0     C26101   2.738   9.101   5.252 -0.2663 -1.2614  0.1378
  935MOL0     C26102   2.585   9.132   5.220 -0.2643 -0.2199  0.2253
  935MOL0     C26103   2.534   9.026   5.121 -0.5226 -0.0874  0.1639
  935MOL0     C26104   2.460   9.102   5.012 -0.4149  0.0977 -0.6251
  935MOL0     C26105   2.390   9.006   4.912  0.5264  0.2301  0.0839
  935MOL0     C26106   2.269   8.928   4.959 -0.5014 -0.0524  0.0680
  935MOL0     N26107   2.165   9.017   4.997  0.6811 -0.4409  0.6876
  935MOL0     C26108   2.089   9.102   4.915 -0.3724 -0.3723  0.5013
  935MOL0     C26109   1.996   9.155   4.996 -0.0214  0.4794 -1.4566
  935MOL0     C26110   1.894   9.262   4.957  0.3111 -0.1952 -0.5092
  935MOL0     C26111   1.747   9.191   4.958  0.1429 -1.1983  0.4435
  935MOL0     C26112   1.650   9.302   4.964  0.3080 -0.5254 -0.1033
  935MOL0     C26113   1.519   9.255   5.019  0.5161  0.7608 -0.0435
  935MOL0     O26114   1.425   9.362   4.988  0.0137  0.3277 -0.2456
  935MOL0     C26115   1.298   9.349   5.038 -0.7367  0.6745 -0.4776
  935MOL0     C26116   1.250   9.239   5.109 -0.8623  0.1634 -0.0236
  935MOL0     C26117   1.118   9.231   5.160 -0.0907  0.1712 -0.8243
  935MOL0     C26118   1.085   9.098   5.237  0.1409  0.1384 -0.2929
  935MOL0     C26119   1.021   9.326   5.132  0.1141  0.3981 -0.7135
  935MOL0     C26120   0.871   9.331   5.160 -0.6491  0.4057 -0.3701
  935MOL0     O26121   0.800   9.445   5.116  0.3482 -0.6123  0.1673
  935MOL0     C26122   0.677   9.483   5.179  0.2994 -0.0706  0.1346
  935MOL0     C26123   0.666   9.607   5.237 -0.2453 -0.3921  1.1831
  935MOL0     C26124   0.552   9.648   5.302  0.2650  0.4207  0.3412
  935MOL0     C26125   0.440   9.563   5.316  0.4611 -0.2505 -0.7141
  935MOL0     O26126   0.341   9.605   5.396  0.3875 -0.0626 -0.3274
  935MOL0     C26127   0.293   9.501   5.478 -0.6181 -0.0879  0.5246
  935MOL0     C26128   0.169   9.563   5.559 -0.5347  0.6215 -0.0826
  935MOL0     C26129   0.083   9.444   5.613 -0.2426  0.2267  0.5288
  935MOL0     C26130  -0.050   9.493   5.662  0.5818  0.5043  0.7101
  935MOL0     C26131  -0.159   9.383   5.678  0.2084  0.1929 -1.1141
  935MOL0     C26132  -0.296   9.431   5.732 -0.2877 -0.1932  0.7206
  935MOL0     C26133  -0.286   9.477   5.877 -0.8942 -0.0370 -0.0827
  935MOL0     C26134  -0.357   9.613   5.916 -0.5551  1.5875  0.9644
  935MOL0    Cl26135  -0.524   9.558   5.920 -0.0987  0.1207 -0.2494
  935MOL0     C26136   0.452   9.441   5.244  1.1623  0.5513  0.2511
  935MOL0     C26137   0.569   9.390   5.189  0.3697 -1.3441 -0.6383
  935MOL0     O26138   0.825   9.241   5.223  0.1802  0.5025  0.4577
  935MOL0     C26139   1.069   9.433   5.047  0.6947 -0.3736  0.4103
  935MOL0     C26140   1.200   9.444   5.004  1.2207  0.0278  0.6614
  935MOL0     N26141   2.011   9.095   5.121 -0.1148  0.5755  0.2812
  935MOL0     N26142   2.106   9.001   5.121  0.5456 -0.7839 -0.0614
  935MOL0     C26143   3.205   8.965   5.434 -1.5525 -0.2875  0.8908
  935MOL0     C26144   3.340   8.945   5.411 -0.2153  0.1438  0.7423
  935MOL0     C26145   3.773   8.918   5.333  0.1031  0.5238 -0.5332
  935MOL0     C26146   3.882   8.945   5.421 -1.1641  0.2724  0.2662
  935MOL0     C26147   4.008   8.904   5.378 -0.6703 -0.4993 -0.2215
  935MOL0     C26148   4.035   8.844   5.259  0.1961 -0.7583 -0.0281
  935MOL0     O26149   4.163   8.803   5.229  0.1263  0.3483  0.4604
  935MOL0     C26150   4.279   8.837   5.300 -0.0208 -0.3792  0.0277
  935MOL0     C26151   4.328   8.722   5.395 -0.1304  0.2032 -0.4705
  935MOL0     C26152   4.471   8.745   5.439  0.4267 -0.5966  0.2531
  935MOL0     C26153   4.532   8.630   5.521 -0.3939  0.1649  0.0915
  935MOL0     C26154   4.483   8.619   5.660  0.1303 -0.3830 -0.2331
  935MOL0     C26155   4.425   8.613   5.762  0.1019 -0.0945  0.0375
  935MOL0     C26156   3.928   8.823   5.174  0.0834 -0.4137  0.0556
  935MOL0     C26157   3.795   8.859   5.207 -0.4390  0.2723  0.4048
  935MOL0     H26158   3.370   9.111   5.111 -2.9525 -2.5618 -3.1848
  935MOL0     H26159   3.128   9.159   5.172 -0.0554 -0.6652  0.9803
  935MOL0     H26160   2.969   9.232   5.473  0.0783  0.0931  0.4750
  935MOL0     H26161   2.971   9.237   5.292 -1.5872  1.6305  1.3105
  935MOL0     H26162   2.774   9.091   5.466  2.9525 -1.7040  0.2832
  935MOL0     H26163   2.738   9.256   5.394  0.9795  1.2901 -2.1227
  935MOL0     H26164   2.796   9.130   5.164 -1.8359 -0.9339 -0.8329
  935MOL0     H26165   2.744   8.992   5.254  0.7809 -1.2275 -0.5449
  935MOL0     H26166   2.520   9.128   5.309  0.6721  3.3139  1.2191
  935MOL0     H26167   2.585   9.237   5.191  0.7036 -0.5891 -1.1721
  935MOL0     H26168   2.611   8.957   5.087 -0.1771  0.1635  0.4278
  935MOL0     H26169   2.466   8.963   5.179  1.3675 -0.5977  1.9671
  935MOL0     H26170   2.398   9.185   5.048  1.0261  0.7731  0.4039
  935MOL0     H26171   2.530   9.153   4.946  0.8837  1.7364  1.8797
  935MOL0     H26172   2.353   9.061   4.825 -3.2200 -2.7198 -0.4528
  935MOL0     H26173   2.472   8.937   4.893  0.8715  0.5648  0.3391
  935MOL0     H26174   2.298   8.873   5.049 -2.1096 -1.1442 -0.0360
  935MOL0     H26175   2.234   8.852   4.888 -0.1012  0.5403 -0.7885
  935MOL0     H26176   2.119   9.125   4.814 -0.3864 -1.3925  0.2563
  935MOL0     H26177   1.895   9.341   5.032 -2.5752  0.9231 -1.5249
  935MOL0     H26178   1.919   9.307   4.860 -0.5563  0.1774 -0.5726
  935MOL0     H26179   1.736   9.118   5.039 -0.8001 -0.3242  1.1241
  935MOL0     H26180   1.721   9.126   4.874 -2.7239  0.5563 -0.1691
  935MOL0     H26181   1.646   9.337   4.860  0.9580 -2.9412 -1.0036
  935MOL0     H26182   1.682   9.380   5.033  0.2925  0.0700 -0.7548
  935MOL0     H26183   1.517   9.228   5.125 -0.5863 -2.7948 -0.8580
  935MOL0     H26184   1.498   9.159   4.972  1.8620  0.7939 -0.7530
  935MOL0     H26185   1.316   9.159   5.143 -1.6254 -0.7477 -0.6197
  935MOL0     H26186   1.038   9.116   5.334  0.2668 -1.2503  0.0405
  935MOL0     H26187   1.016   9.039   5.175 -1.2162  2.2123 -0.8839
  935MOL0     H26188   1.175   9.037   5.243 -1.5231 -2.6403 -1.3736
  935MOL0     H26189   0.755   9.669   5.242 -0.1812 -0.3384 -0.2487
  935MOL0     H26190   0.539   9.747   5.346 -5.2096  0.7228 -1.2546
  935MOL0     H26191   0.263   9.409   5.426  1.1784 -1.0916  1.1491
  935MOL0     H26192   0.371   9.479   5.552 -0.2984 -0.2399  0.1460
  935MOL0     H26193   0.206   9.630   5.636  1.1493 -1.2813  0.8670
  935MOL0     H26194   0.106   9.625   5.495 -1.1471  0.3406  0.2415
  935MOL0     H26195   0.122   9.393   5.701  0.6396 -0.2934 -0.1472
  935MOL0     H26196   0.071   9.365   5.539 -1.9789 -2.0775  3.0820
  935MOL0     H26197  -0.034   9.542   5.759  3.7199 -0.4592  0.7773
  935MOL0     H26198  -0.089   9.563   5.587 -2.4744 -1.2025  0.5471
  935MOL0     H26199  -0.122   9.309   5.749  0.5864  2.5763  1.3542
  935MOL0     H26200  -0.172   9.348   5.575  1.9874 -4.4449 -0.0022
  935MOL0     H26201  -0.318   9.515   5.666  2.4883  1.8166  2.1810
  935MOL0     H26202  -0.363   9.344   5.726  0.0312 -0.3549 -1.9399
  935MOL0     H26203  -0.180   9.493   5.895  0.3354 -3.7393 -2.7375
  935MOL0     H26204  -0.319   9.394   5.940  2.8098 -2.6321 -1.1918
  935MOL0     H26205  -0.332   9.699   5.853  0.5546  2.3775  2.4248
  935MOL0     H26206  -0.311   9.629   6.014  0.9704  1.2741  0.3338
  935MOL0     H26207   0.369   9.371   5.250 -0.4765  2.4886  2.2094
  935MOL0     H26208   0.584   9.295   5.139 -1.2062 -1.8674 -0.1743
  935MOL0     H26209   1.008   9.517   5.016 -0.2969 -0.3109  2.3481
  935MOL0     H26210   1.227   9.515   4.926 -1.4563 -0.3921 -0.7753
  935MOL0     H26211   3.177   8.914   5.525 -1.0300  1.3761  2.0249
  935MOL0     H26212   3.390   8.885   5.487 -3.2367  0.1686  2.9104
  935MOL0     H26213   3.863   8.985   5.520 -2.1135  0.9128 -0.1616
  935MOL0     H26214   4.081   8.914   5.458  0.2042 -0.6855 -0.9839
  935MOL0     H26215   4.351   8.848   5.218 -3.0547 -0.0302 -2.7882
  935MOL0     H26216   4.286   8.930   5.358  1.0697 -0.5803  0.2545
  935MOL0     H26217   4.342   8.630   5.337 -0.2061  0.2684 -0.5934
  935MOL0     H26218   4.256   8.698   5.473 -1.4963 -1.6790 -2.1930
  935MOL0     H26219   4.480   8.842   5.488  0.7309 -0.6292  0.2670
  935MOL0     H26220   4.534   8.758   5.350  1.5976  1.1751  1.2660
  935MOL0     H26221   4.640   8.650   5.531 -0.4033  0.3109 -0.1120
  935MOL0     H26222   4.528   8.530   5.476  3.2319  0.3334 -0.9752
  935MOL0     H26223   4.379   8.632   5.857 -1.9515 -2.4546 -0.3886
  935MOL0     H26224   3.963   8.790   5.077  0.2750  2.1181 -0.7962
  935MOL0     H26225   3.713   8.842   5.138  0.3005  3.3737 -1.5072
  936MOL0     O26226   0.583   7.871   4.829 -0.1882 -0.2950 -0.5296
  936MOL0     C26227   0.607   7.950   4.921  0.2567  0.0170 -0.5158
  936MOL0     O26228   0.539   8.068   4.933 -0.2861 -0.2136 -0.1974
  936MOL0     C26229   0.470   8.107   4.816 -0.7543 -0.3046 -0.1717
  936MOL0     C26230   0.532   8.161   4.703 -0.4372  0.4569 -0.3079
  936MOL0     C26231   0.456   8.181   4.586 -0.5198 -0.3949 -0.2999
  936MOL0     C26232   0.314   8.163   4.582  0.2560 -0.5177  0.4071
  936MOL0     O26233   0.253   8.194   4.464  0.1724  0.3432 -0.0042
  936MOL0     C26234   0.124   8.144   4.440  1.1495 -0.1368  0.0351
  936MOL0     C26235   0.087   8.201   4.298 -0.0870  0.2860  0.4008
  936MOL0     C26236   0.082   8.350   4.284  0.3503  0.4392  0.5909
  936MOL0     C26237   0.030   8.384   4.146  0.5684  0.0622  0.2845
  936MOL0     C26238  -0.131   8.395   4.151 -0.1662  0.4698  0.3483
  936MOL0     C26239  -0.200   8.406   4.015  0.1243  0.9837 -0.2103
  936MOL0     C26240  -0.355   8.424   4.017  0.3579 -0.5034  0.4225
  936MOL0     C26241  -0.396   8.447   3.863  0.4642 -0.3055 -0.6603
  936MOL0     N26242  -0.538   8.494   3.849  0.2839 -0.2222  0.3726
  936MOL0     C26243  -0.643   8.412   3.869 -0.3837 -0.8792  0.1574
  936MOL0     C26244  -0.751   8.471   3.815  0.6579 -0.0397  0.6471
  936MOL0     C26245  -0.889   8.419   3.847 -0.1120 -0.0069 -0.4378
  936MOL0     C26246  -0.999   8.510   3.799  0.5327  0.4666  0.8080
  936MOL0     C26247  -1.138   8.440   3.800  0.1712  0.6014 -0.8273
  936MOL0     C26248  -1.240   8.539   3.750  0.7356 -0.0180 -0.1873
  936MOL0     O26249  -1.234   8.558   3.608  0.1845 -0.6190 -0.3078
  936MOL0     C26250  -1.348   8.558   3.529  0.7003  0.1203 -0.6840
  936MOL0     C26251  -1.362   8.653   3.433  0.1604 -0.7089 -0.2997
  936MOL0     C26252  -1.455   8.654   3.332  0.1854  0.3483  0.6915
  936MOL0     C26253  -1.455   8.770   3.235  0.6601  0.0404  0.4427
  936MOL0     C26254  -1.548   8.541   3.317 -0.6707 -0.1077  0.4147
  936MOL0     C26255  -1.674   8.533   3.229 -0.1055 -0.9946 -0.3452
  936MOL0     O26256  -1.742   8.415   3.241 -0.0682  0.2872 -0.0178
  936MOL0     C26257  -1.876   8.425   3.218  0.6350 -0.7022 -0.0526
  936MOL0     C26258  -1.957   8.425   3.324  0.5005  0.5052 -0.5328
  936MOL0     C26259  -2.098   8.442   3.314 -0.2740  0.6278  0.3700
  936MOL0     C26260  -2.155   8.440   3.181 -0.2716 -0.2730 -0.5069
  936MOL0     O26261  -2.284   8.441   3.145  0.7280  0.6915  0.1954
  936MOL0     C26262  -2.365   8.541   3.202  0.7044 -0.0771  0.4088
  936MOL0     C26263  -2.514   8.506   3.199 -1.2709 -0.1036 -0.9188
  936MOL0     C26264  -2.589   8.634   3.254  0.1866  0.0229 -0.7956
  936MOL0     C26265  -2.728   8.595   3.301 -0.8946 -0.1070 -0.4020
  936MOL0     C26266  -2.832   8.709   3.294  0.5524  0.5693  0.2628
  936MOL0     C26267  -2.957   8.676   3.377 -0.4006 -0.3298  0.0671
  936MOL0     C26268  -3.066   8.784   3.364  1.1752 -0.4590 -0.0592
  936MOL0     C26269  -3.166   8.769   3.476  0.1889  0.6235 -0.3713
  936MOL0    Cl26270  -3.307   8.876   3.440 -0.1401  0.0969 -0.0766
  936MOL0     C26271  -2.069   8.432   3.072  0.7280 -0.6052 -1.2228
  936MOL0     C26272  -1.932   8.421   3.090 -0.2019  0.1300  0.4577
  936MOL0     O26273  -1.720   8.639   3.193  0.8132  0.8004  0.3207
  936MOL0     C26274  -1.528   8.435   3.409 -0.2756  0.0772 -0.5867
  936MOL0     C26275  -1.423   8.441   3.516  0.6225 -0.0463  0.9879
  936MOL0     N26276  -0.709   8.597   3.783 -1.0557 -0.2242  1.5182
  936MOL0     N26277  -0.581   8.609   3.796  0.5887  0.4394 -0.4826
  936MOL0     C26278   0.260   8.115   4.702  0.1606  0.0714  0.5340
  936MOL0     C26279   0.332   8.089   4.817  0.5831 -0.3135 -0.4443
  936MOL0     C26280   0.712   7.902   5.015 -0.8760 -0.7316  0.1107
  936MOL0     C26281   0.786   7.787   4.983  0.0431  0.2789  0.1086
  936MOL0     C26282   0.867   7.731   5.087 -0.1742  0.0164  0.6395
  936MOL0     C26283   0.886   7.794   5.213  0.0990 -0.4181  0.1026
  936MOL0     O26284   0.962   7.746   5.318 -0.2751 -0.2443 -0.4306
  936MOL0     C26285   0.934   7.608   5.327  0.6753 -0.2207  0.4442
  936MOL0     C26286   0.960   7.562   5.474  0.9004  0.1505  0.5495
  936MOL0     C26287   1.106   7.549   5.506 -0.2017  0.6637 -0.0105
  936MOL0     C26288   1.159   7.651   5.594 -0.1566  0.5673  0.2566
  936MOL0     C26289   1.085   7.671   5.721 -0.7667  0.1216 -0.2461
  936MOL0     C26290   1.011   7.687   5.820 -0.4129 -0.0896  0.4985
  936MOL0     C26291   0.822   7.916   5.228 -0.1995  0.4297  0.4768
  936MOL0     C26292   0.736   7.973   5.128 -0.4124 -0.3160 -0.7283
  936MOL0     H26293   0.640   8.172   4.707 -0.6051  2.1159  0.2675
  936MOL0     H26294   0.499   8.211   4.491 -1.9780 -1.1270 -1.2314
  936MOL0     H26295   0.124   8.035   4.441 -1.9101 -0.2303 -1.6340
  936MOL0     H26296   0.057   8.179   4.519  1.9817 -1.0982  1.2184
  936MOL0     H26297   0.169   8.165   4.235  1.7372  1.7828  1.8065
  936MOL0     H26298  -0.002   8.154   4.254  0.1269 -0.3244  0.6084
  936MOL0     H26299   0.016   8.387   4.363 -1.7671 -2.4066  0.3326
  936MOL0     H26300   0.183   8.388   4.301  0.4872  0.1285  0.4882
  936MOL0     H26301   0.070   8.478   4.105  0.7229  0.0635  0.4385
  936MOL0     H26302   0.064   8.314   4.069 -2.3066 -0.8817 -0.2399
  936MOL0     H26303  -0.172   8.307   4.203  2.4461 -1.1423 -0.1212
  936MOL0     H26304  -0.151   8.478   4.219  1.3408  2.1804 -1.1785
  936MOL0     H26305  -0.149   8.490   3.968  1.1211  1.2011  1.1853
  936MOL0     H26306  -0.184   8.323   3.945  1.4159  1.1659 -0.1607
  936MOL0     H26307  -0.413   8.336   4.046 -3.0363  0.9308 -1.4256
  936MOL0     H26308  -0.381   8.509   4.080  0.8974 -1.1312  1.5388
  936MOL0     H26309  -0.381   8.362   3.797  2.0775 -2.6963  2.5167
  936MOL0     H26310  -0.326   8.518   3.819  1.1867 -1.1161 -0.8355
  936MOL0     H26311  -0.651   8.320   3.926 -2.0586 -0.5908  0.4480
  936MOL0     H26312  -0.905   8.320   3.803 -1.1796 -0.7419  1.4815
  936MOL0     H26313  -0.910   8.395   3.951 -1.1267 -2.4826 -1.1404
  936MOL0     H26314  -0.968   8.534   3.697  3.1146 -2.5104  0.7354
  936MOL0     H26315  -1.013   8.597   3.864 -2.2625 -0.8605  2.1648
  936MOL0     H26316  -1.159   8.399   3.899  2.3449  0.8777 -0.1968
  936MOL0     H26317  -1.143   8.354   3.732 -0.3011 -1.0335  1.1697
  936MOL0     H26318  -1.210   8.636   3.791  0.5904  1.0106 -2.3795
  936MOL0     H26319  -1.342   8.516   3.784  1.2118 -1.6321  0.2265
  936MOL0     H26320  -1.284   8.729   3.442 -0.1916 -0.3405 -0.3202
  936MOL0     H26321  -1.351   8.799   3.217  0.3480  0.3265 -1.0403
  936MOL0     H26322  -1.497   8.750   3.137  3.1202  1.0964 -0.9285
  936MOL0     H26323  -1.507   8.852   3.285  0.7738  1.4597 -1.6361
  936MOL0     H26324  -1.906   8.421   3.420 -0.5516  0.9182  0.0621
  936MOL0     H26325  -2.158   8.440   3.404  2.5339  0.7977  2.3922
  936MOL0     H26326  -2.328   8.561   3.303  2.1739 -3.0788  0.5755
  936MOL0     H26327  -2.359   8.635   3.146 -0.7048 -0.8703 -1.1663
  936MOL0     H26328  -2.542   8.490   3.094 -0.8587  1.4674 -1.2839
  936MOL0     H26329  -2.517   8.414   3.258 -0.0919 -0.4832 -1.4171
  936MOL0     H26330  -2.604   8.709   3.176 -3.8692 -1.3070 -1.5219
  936MOL0     H26331  -2.524   8.671   3.335  1.0018 -1.0099 -0.9503
  936MOL0     H26332  -2.765   8.511   3.241  0.2155 -0.0092 -1.2531
  936MOL0     H26333  -2.721   8.560   3.404  1.7620 -2.7368 -1.3278
  936MOL0     H26334  -2.869   8.717   3.191  0.9489  0.6633  0.1235
  936MOL0     H26335  -2.793   8.804   3.330 -2.8489  1.8525  0.9291
  936MOL0     H26336  -2.993   8.583   3.333 -3.7169  1.5626 -1.6160
  936MOL0     H26337  -2.933   8.659   3.482  1.3081  0.4413 -0.1684
  936MOL0     H26338  -3.115   8.785   3.267 -0.0829  0.7307  0.5595
  936MOL0     H26339  -3.024   8.885   3.369 -0.5079  0.2191  1.6967
  936MOL0     H26340  -3.124   8.793   3.574  0.8269 -3.1217  0.4404
  936MOL0     H26341  -3.202   8.668   3.501  0.9519  0.5014  0.2619
  936MOL0     H26342  -2.110   8.418   2.972 -0.8805 -2.3280 -0.4017
  936MOL0     H26343  -1.874   8.416   2.999 -0.1993 -0.8646  0.5063
  936MOL0     H26344  -1.592   8.349   3.396  2.4066 -1.8641 -2.0852
  936MOL0     H26345  -1.401   8.357   3.581 -0.9573 -1.1337  0.1821
  936MOL0     H26346   0.154   8.093   4.710 -0.7107  3.6053  0.7782
  936MOL0     H26347   0.287   8.054   4.909 -0.1294 -0.2886 -0.7745
  936MOL0     H26348   0.777   7.743   4.884  0.5751  1.0439 -0.2896
  936MOL0     H26349   0.934   7.651   5.059 -0.7594 -0.6755  1.1830
  936MOL0     H26350   0.829   7.588   5.303  0.7515  0.1314 -0.2016
  936MOL0     H26351   1.000   7.551   5.261  0.3704 -1.7288  1.3875
  936MOL0     H26352   0.912   7.464   5.487 -0.1488  0.6746  0.7419
  936MOL0     H26353   0.905   7.634   5.536 -2.2523 -1.1109 -0.5919
  936MOL0     H26354   1.165   7.559   5.414  0.3429  1.0399  0.3716
  936MOL0     H26355   1.130   7.451   5.549 -1.3270  0.3706 -0.0084
  936MOL0     H26356   1.172   7.749   5.546  2.2881  0.7490  1.1451
  936MOL0     H26357   1.258   7.616   5.626  0.6449  0.2781 -2.3074
  936MOL0     H26358   0.945   7.699   5.904 -1.5770  0.1646 -0.4211
  936MOL0     H26359   0.827   7.970   5.321  1.0718  0.4770  0.4008
  936MOL0     H26360   0.687   8.067   5.150  1.2195  0.6539 -1.1581
  937MOL0     O26361  11.009   7.692   0.877  0.4803  0.6361  0.2161
  937MOL0     C26362  11.049   7.803   0.850  0.7184 -0.6328  0.1588
  937MOL0     O26363  10.975   7.912   0.807 -0.5040  0.3694  0.0311
  937MOL0     C26364  10.845   7.908   0.768  0.7679 -0.3979 -0.2082
  937MOL0     C26365  10.742   7.854   0.847 -1.0497  0.3190 -0.1177
  937MOL0     C26366  10.611   7.874   0.808 -0.1332  0.3393 -0.6335
  937MOL0     C26367  10.575   7.941   0.697  0.2079 -0.2574  0.2259
  937MOL0     O26368  10.451   7.947   0.644  0.6659  0.2495 -0.3507
  937MOL0     C26369  10.345   7.882   0.715  1.7310  0.1269  0.0020
  937MOL0     C26370  10.206   7.918   0.642  0.4600 -0.1064  0.1056
  937MOL0     C26371  10.076   7.863   0.709 -0.4776 -0.7372 -0.3952
  937MOL0     C26372  10.042   7.914   0.855  0.4664 -0.4195 -0.2601
  937MOL0     C26373   9.905   7.876   0.908  0.4454 -0.6148 -0.3854
  937MOL0     C26374   9.788   7.956   0.835  0.1519  0.3120 -0.3434
  937MOL0     C26375   9.663   7.955   0.921 -0.1111  0.0045 -0.8163
  937MOL0     C26376   9.552   8.027   0.855  0.1522  0.3307  0.0180
  937MOL0     N26377   9.427   8.003   0.919 -0.4587  0.1677 -0.7437
  937MOL0     C26378   9.374   8.055   1.032 -0.8468  0.2250 -0.5069
  937MOL0     C26379   9.260   8.003   1.046  0.0114 -1.0324 -0.9992
  937MOL0     C26380   9.157   8.050   1.151  0.1938  0.0879  1.0733
  937MOL0     C26381   9.020   7.977   1.125  0.2690 -0.0130 -0.2493
  937MOL0     C26382   8.934   7.998   1.251  0.3239  0.4566  0.9072
  937MOL0     C26383   8.815   7.904   1.273  0.1033  0.2079  0.1176
  937MOL0     O26384   8.708   7.945   1.191  0.0308  0.6301 -0.0486
  937MOL0     C26385   8.584   7.901   1.220  0.6813 -0.3249  0.1434
  937MOL0     C26386   8.556   7.799   1.314  0.4795  0.1059 -0.1269
  937MOL0     C26387   8.421   7.764   1.340 -0.2757  0.0136  0.1687
  937MOL0     C26388   8.394   7.644   1.436  0.8621 -0.6443  0.0398
  937MOL0     C26389   8.312   7.827   1.263  0.3323  0.1565 -0.4384
  937MOL0     C26390   8.166   7.803   1.301 -1.1054  0.6914  0.3891
  937MOL0     O26391   8.083   7.889   1.241  0.8514 -0.1062  0.9351
  937MOL0     C26392   7.949   7.865   1.266 -0.0558  0.1535  0.2125
  937MOL0     C26393   7.883   7.800   1.165  0.3145 -0.1111  0.0176
  937MOL0     C26394   7.750   7.755   1.184 -0.4797 -0.3298 -0.0610
  937MOL0     C26395   7.681   7.797   1.299  0.1783  0.4722 -0.2864
  937MOL0     O26396   7.560   7.735   1.311 -0.7558  0.8177  0.0298
  937MOL0     C26397   7.519   7.720   1.448  0.4067 -1.1027  0.2895
  937MOL0     C26398   7.389   7.628   1.450  0.0241 -0.8024  0.0801
  937MOL0     C26399   7.269   7.702   1.394 -0.2274 -0.2135  0.0005
  937MOL0     C26400   7.193   7.774   1.512 -0.7314 -0.0944  0.1532
  937MOL0     C26401   7.069   7.852   1.483  0.6037 -0.1260  0.4213
  937MOL0     C26402   6.964   7.775   1.406  0.8389 -0.1834  0.5737
  937MOL0     C26403   6.842   7.862   1.361  0.0324  0.0938 -0.3917
  937MOL0     C26404   6.740   7.895   1.473 -1.2753  0.2865 -0.1160
  937MOL0    Cl26405   6.609   7.988   1.385  0.0519  0.7654  0.0009
  937MOL0     C26406   7.739   7.897   1.384  1.1181  0.0611  0.4487
  937MOL0     C26407   7.880   7.917   1.373  1.1876  0.2972 -0.3621
  937MOL0     O26408   8.143   7.705   1.366  0.1213  0.3836  0.0665
  937MOL0     C26409   8.347   7.920   1.163 -0.1935  0.0718  0.5518
  937MOL0     C26410   8.478   7.957   1.148 -0.6887 -0.2550  0.7574
  937MOL0     N26411   9.235   7.912   0.948  0.6057 -0.6801 -0.1050
  937MOL0     N26412   9.331   7.916   0.866  0.7140 -0.2872 -0.1445
  937MOL0     C26413  10.678   8.009   0.616  1.1439  0.4861 -0.3303
  937MOL0     C26414  10.803   7.990   0.664  0.6671 -1.3195 -0.5513
  937MOL0     C26415  11.195   7.826   0.867 -0.0998 -0.4787 -0.2685
  937MOL0     C26416  11.289   7.724   0.886 -0.7057  0.5564 -0.2756
  937MOL0     C26417  11.428   7.749   0.909  0.0213 -0.1682 -0.2903
  937MOL0     C26418  11.473   7.882   0.910  1.1045  0.5493  0.5227
  937MOL0     O26419  11.609   7.903   0.933 -0.2384  0.0764  0.4237
  937MOL0     C26420  11.669   8.028   0.914  0.0121  0.1453 -0.3236
  937MOL0     C26421  11.702   8.039   0.764  0.0302  0.1019 -0.5685
  937MOL0     C26422  11.795   8.148   0.726 -0.6793 -0.6329 -0.0156
  937MOL0     C26423  11.735   8.286   0.759 -0.3587  0.0487  0.6819
  937MOL0     C26424  11.804   8.389   0.679  0.5446 -0.8472  0.4541
  937MOL0     C26425  11.856   8.475   0.607  0.2185  0.3425 -0.5203
  937MOL0     C26426  11.377   7.991   0.906  0.7747  0.5450 -0.1908
  937MOL0     C26427  11.241   7.959   0.892 -0.2234 -0.9365  0.8433
  937MOL0     H26428  10.770   7.792   0.931 -4.4165 -2.8329 -1.0789
  937MOL0     H26429  10.539   7.828   0.876  0.7278  0.3266  0.3018
  937MOL0     H26430  10.355   7.773   0.709 -1.7194 -0.2059 -2.3736
  937MOL0     H26431  10.332   7.915   0.818 -3.3774 -2.5908  0.5201
  937MOL0     H26432  10.197   8.026   0.630  0.3276  0.1011  1.8522
  937MOL0     H26433  10.215   7.872   0.543  1.6301  0.7872 -0.2239
  937MOL0     H26434   9.992   7.870   0.639  0.2863 -0.8718 -1.3507
  937MOL0     H26435  10.095   7.756   0.724  4.2980  0.2592  3.1175
  937MOL0     H26436  10.112   7.867   0.924  1.4061  1.7264  0.3556
  937MOL0     H26437  10.068   8.021   0.863 -0.2350 -0.0658 -2.2336
  937MOL0     H26438   9.896   7.767   0.899  1.1708 -0.5241 -3.1129
  937MOL0     H26439   9.908   7.886   1.017 -1.0351 -0.2153 -0.3548
  937MOL0     H26440   9.803   8.063   0.819 -0.9471  0.7269  1.1759
  937MOL0     H26441   9.764   7.913   0.736 -0.3970 -0.8716  0.2753
  937MOL0     H26442   9.637   7.858   0.964  1.0801  1.2576  3.1735
  937MOL0     H26443   9.683   8.005   1.016  0.2901 -0.5245 -0.6215
  937MOL0     H26444   9.547   7.986   0.754 -0.4967  0.8088 -0.1499
  937MOL0     H26445   9.573   8.134   0.845 -0.4030  0.2526 -3.8649
  937MOL0     H26446   9.418   8.135   1.091 -0.0884 -0.3866 -0.2187
  937MOL0     H26447   9.196   8.024   1.249 -0.5275  0.4502  1.4643
  937MOL0     H26448   9.143   8.157   1.131  1.7277 -0.0052 -0.8047
  937MOL0     H26449   9.045   7.871   1.114  1.9642  0.0595  2.2269
  937MOL0     H26450   8.972   8.017   1.034 -0.0154 -1.3384 -0.7004
  937MOL0     H26451   8.884   8.095   1.253 -2.0413 -0.6142 -0.5335
  937MOL0     H26452   9.000   7.993   1.338  1.9098  1.1789 -0.2076
  937MOL0     H26453   8.781   7.911   1.377 -0.2067  2.8623 -0.1106
  937MOL0     H26454   8.848   7.805   1.240  0.3276  0.9062 -1.9239
  937MOL0     H26455   8.639   7.741   1.353 -1.1465 -1.0232  1.9120
  937MOL0     H26456   8.343   7.674   1.529 -1.7646 -1.6968 -0.9583
  937MOL0     H26457   8.339   7.568   1.380  3.2612 -2.1166 -0.4329
  937MOL0     H26458   8.490   7.606   1.472  1.2149  1.2935  1.3060
  937MOL0     H26459   7.943   7.770   1.080 -0.2495  4.2097 -2.1912
  937MOL0     H26460   7.697   7.696   1.110 -0.1443  1.5614 -1.8963
  937MOL0     H26461   7.585   7.666   1.517 -0.3527 -1.7374  0.5327
  937MOL0     H26462   7.500   7.819   1.491 -0.7505 -0.4777 -1.5540
  937MOL0     H26463   7.412   7.560   1.367 -1.8786 -1.0867 -0.2481
  937MOL0     H26464   7.362   7.585   1.546 -3.1991  3.0180  1.1924
  937MOL0     H26465   7.202   7.624   1.356 -0.7531  0.3227 -0.1943
  937MOL0     H26466   7.286   7.769   1.309 -1.7595 -0.7628 -0.7667
  937MOL0     H26467   7.159   7.694   1.579 -0.4940  0.5984  1.1145
  937MOL0     H26468   7.252   7.846   1.568 -1.3473 -1.1173  2.2247
  937MOL0     H26469   7.091   7.939   1.420  0.8487 -1.6668 -1.7284
  937MOL0     H26470   7.028   7.883   1.580  0.8322 -0.3393  0.5850
  937MOL0     H26471   7.016   7.726   1.323 -0.2322  0.2006 -0.3464
  937MOL0     H26472   6.922   7.697   1.470  0.0944  1.8416  2.7000
  937MOL0     H26473   6.789   7.811   1.280  2.9705 -1.0634 -1.7294
  937MOL0     H26474   6.882   7.952   1.315  1.8495 -1.2372 -1.5793
  937MOL0     H26475   6.790   7.964   1.541 -2.4873  0.8582  0.2342
  937MOL0     H26476   6.711   7.803   1.524  0.9294 -1.5814 -1.9777
  937MOL0     H26477   7.683   7.934   1.469 -1.9539 -0.9971 -0.9560
  937MOL0     H26478   7.917   7.981   1.452 -2.6787  1.0246  1.0725
  937MOL0     H26479   8.265   7.966   1.109  0.1088 -0.3094 -0.2542
  937MOL0     H26480   8.492   8.037   1.076 -0.7497  0.3751  1.4429
  937MOL0     H26481  10.650   8.071   0.532 -3.4009 -0.1699  0.4178
  937MOL0     H26482  10.886   8.051   0.629  1.7854 -1.4904  1.6551
  937MOL0     H26483  11.256   7.620   0.893  1.2616 -0.0071  2.1350
  937MOL0     H26484  11.501   7.669   0.917 -1.4837 -1.5081  0.5463
  937MOL0     H26485  11.613   8.117   0.945 -0.8750  0.3739 -2.4101
  937MOL0     H26486  11.766   8.025   0.966  1.2611  0.6308 -2.5064
  937MOL0     H26487  11.610   8.043   0.704 -0.4598  0.0806  0.1686
  937MOL0     H26488  11.743   7.941   0.737 -0.3704 -0.0384 -0.6785
  937MOL0     H26489  11.788   8.146   0.617 -1.9164 -0.2081  0.0445
  937MOL0     H26490  11.896   8.131   0.766 -0.7772 -4.0993 -0.9364
  937MOL0     H26491  11.737   8.306   0.867  1.0785 -1.7548  1.0431
  937MOL0     H26492  11.632   8.285   0.721 -0.5651  2.6025  0.9943
  937MOL0     H26493  11.908   8.529   0.530 -0.9007  0.6818 -1.0517
  937MOL0     H26494  11.397   8.097   0.905  0.7448  0.6260  2.1841
  937MOL0     H26495  11.171   8.040   0.876 -0.0549 -1.2016 -1.5404
  938MOL0     O26496  10.840   1.916   1.983  0.3224 -0.4792 -0.1399
  938MOL0     C26497  10.823   1.795   1.993 -1.4578  0.5381 -0.1828
  938MOL0     O26498  10.703   1.733   1.994 -0.1097  0.1377 -0.1741
  938MOL0     C26499  10.584   1.791   2.024 -0.4162  0.0011  0.4653
  938MOL0     C26500  10.470   1.721   1.977 -0.4651  0.2801 -0.3159
  938MOL0     C26501  10.348   1.772   2.003 -0.6319 -0.4426  0.7918
  938MOL0     C26502  10.324   1.873   2.097 -0.3278 -0.5154 -0.7162
  938MOL0     O26503  10.192   1.871   2.139 -0.3465 -0.1740  0.1601
  938MOL0     C26504  10.151   1.993   2.199  0.6637 -0.0419 -0.8371
  938MOL0     C26505  10.165   1.989   2.357  1.2256 -0.1559 -1.2901
  938MOL0     C26506  10.080   2.095   2.418 -0.6874  0.1594 -0.0810
  938MOL0     C26507  10.136   2.143   2.555  0.5542  0.1086 -0.0842
  938MOL0     C26508  10.039   2.235   2.626  0.8594 -1.2889  0.7165
  938MOL0     C26509   9.929   2.144   2.692 -0.4257 -0.4899  0.0793
  938MOL0     C26510   9.839   2.223   2.786  0.8818  0.2681 -0.4126
  938MOL0     C26511   9.761   2.138   2.891 -0.7367  0.3528 -0.2140
  938MOL0     N26512   9.854   2.065   2.993 -0.0734  0.6882 -0.1302
  938MOL0     C26513   9.947   2.133   3.067 -0.5370  0.1547 -0.3574
  938MOL0     C26514   9.990   2.045   3.162  0.6259  0.2463  1.4901
  938MOL0     C26515  10.107   2.064   3.264 -0.4378 -1.5059  0.5877
  938MOL0     C26516  10.203   1.941   3.268  0.3319 -0.1617  0.1114
  938MOL0     C26517  10.270   1.920   3.130 -0.3580  0.1786 -0.1094
  938MOL0     C26518  10.354   1.793   3.126 -0.6754  0.8263  0.6767
  938MOL0     O26519  10.441   1.764   3.231 -0.4432  0.1369 -0.3202
  938MOL0     C26520  10.571   1.801   3.224  0.1427 -0.1235  0.4192
  938MOL0     C26521  10.624   1.904   3.143  0.0387 -0.1596  0.5605
  938MOL0     C26522  10.757   1.934   3.124  0.0130 -0.2803 -0.6980
  938MOL0     C26523  10.805   2.041   3.026  1.2687  0.3131  0.2093
  938MOL0     C26524  10.845   1.851   3.199  0.1563 -0.0765  0.2123
  938MOL0     C26525  10.986   1.875   3.187  1.1866  0.0109 -0.0099
  938MOL0     O26526  11.019   2.001   3.225 -0.0658 -0.2616 -0.6933
  938MOL0     C26527  11.151   2.027   3.236  0.0892 -0.1911  0.3561
  938MOL0     C26528  11.237   1.958   3.322  0.1305 -0.6103 -0.0346
  938MOL0     C26529  11.372   1.977   3.309 -0.7668  0.3695  0.7971
  938MOL0     C26530  11.431   2.045   3.201 -0.2065 -0.2138 -1.2924
  938MOL0     O26531  11.563   2.053   3.172  0.3678  0.2935 -0.6328
  938MOL0     C26532  11.656   1.985   3.249  0.2232 -0.1742 -0.2366
  938MOL0     C26533  11.789   2.001   3.179 -0.0938 -0.0350  0.0860
  938MOL0     C26534  11.852   2.148   3.191  0.1356  0.8586 -1.0384
  938MOL0     C26535  11.996   2.156   3.143  0.6983 -0.2922 -0.4907
  938MOL0     C26536  12.046   2.306   3.149 -0.4967 -0.2100 -0.4915
  938MOL0     C26537  12.023   2.391   3.273 -0.3298  0.6657  0.5247
  938MOL0     C26538  12.077   2.326   3.409 -0.7404  0.0159  1.2260
  938MOL0     C26539  12.228   2.294   3.418  0.1904  0.5147  1.0964
  938MOL0    Cl26540  12.341   2.417   3.341 -0.4087  0.2951 -0.0469
  938MOL0     C26541  11.342   2.122   3.124  0.1748  1.1616  0.0050
  938MOL0     C26542  11.199   2.117   3.147  0.0324 -1.1670  0.3245
  938MOL0     O26543  11.060   1.780   3.153 -0.2049 -0.8944 -0.5700
  938MOL0     C26544  10.801   1.740   3.274  0.4676 -0.0854 -1.0473
  938MOL0     C26545  10.662   1.719   3.291 -0.4584  0.1504  0.3086
  938MOL0     N26546   9.916   1.927   3.143 -0.0067 -0.1247 -0.5232
  938MOL0     N26547   9.831   1.946   3.046 -0.1596  0.9324 -0.3362
  938MOL0     C26548  10.439   1.937   2.144  0.2907  0.6063 -0.4698
  938MOL0     C26549  10.564   1.896   2.110 -0.0992 -0.0281  0.1663
  938MOL0     C26550  10.949   1.717   2.005 -0.4160  0.0117  0.4807
  938MOL0     C26551  10.934   1.575   2.010 -0.9350 -0.8167 -0.9180
  938MOL0     C26552  11.040   1.491   2.022  0.0038 -0.3806  0.0962
  938MOL0     C26553  11.167   1.540   2.005  0.7897 -0.0960  0.1971
  938MOL0     O26554  11.252   1.435   1.976  0.0653 -0.4842 -0.0172
  938MOL0     C26555  11.389   1.462   1.938  0.0512 -0.7231  0.5445
  938MOL0     C26556  11.471   1.357   1.875 -0.1429 -0.1437  0.0320
  938MOL0     C26557  11.480   1.240   1.969 -0.4854  0.1734  0.1405
  938MOL0     C26558  11.523   1.117   1.885  0.9072  0.0605 -0.5654
  938MOL0     C26559  11.668   1.121   1.859  0.9751 -0.0403 -0.1179
  938MOL0     C26560  11.786   1.121   1.832  0.4037 -0.3586  0.3951
  938MOL0     C26561  11.182   1.679   1.985  0.6267 -0.9044 -0.1586
  938MOL0     C26562  11.076   1.772   1.999  0.5668 -0.0440  0.0817
  938MOL0     H26563  10.494   1.633   1.918  3.9677  0.3285  1.0973
  938MOL0     H26564  10.268   1.706   1.970  0.0766 -0.7622 -0.3759
  938MOL0     H26565  10.216   2.070   2.157  1.4555 -2.1142 -3.6217
  938MOL0     H26566  10.046   2.013   2.174  1.1823  1.8948 -1.6579
  938MOL0     H26567  10.143   1.891   2.401  1.3354 -0.1478 -1.2151
  938MOL0     H26568  10.265   2.018   2.391 -0.7828  2.1691  3.5775
  938MOL0     H26569  10.076   2.186   2.358 -0.2503 -0.3037 -0.8216
  938MOL0     H26570   9.979   2.053   2.415  0.1088 -1.8833  0.1060
  938MOL0     H26571  10.169   2.058   2.615 -2.0740  0.9439  2.8666
  938MOL0     H26572  10.230   2.196   2.539  1.2603 -0.5942  1.5272
  938MOL0     H26573  10.089   2.296   2.702 -0.2841  1.9140 -0.9190
  938MOL0     H26574  10.000   2.314   2.562  1.8843 -1.1917  0.1947
  938MOL0     H26575   9.863   2.092   2.621 -0.3144 -0.9967  0.3466
  938MOL0     H26576   9.977   2.066   2.751 -2.0606 -2.3439 -0.9190
  938MOL0     H26577   9.886   2.308   2.835 -0.9689 -0.0139  2.0815
  938MOL0     H26578   9.767   2.268   2.717  0.2708 -0.1390 -0.0566
  938MOL0     H26579   9.703   2.062   2.838 -0.2020  0.8976 -1.6491
  938MOL0     H26580   9.696   2.197   2.955  0.9567  1.9715  0.1028
  938MOL0     H26581   9.976   2.238   3.065  2.3865 -0.4939  1.0823
  938MOL0     H26582  10.155   2.162   3.252 -2.3432 -0.2804  2.4349
  938MOL0     H26583  10.060   2.075   3.362 -2.4227  1.5855 -0.5952
  938MOL0     H26584  10.135   1.859   3.291 -1.9775  1.2425 -1.3493
  938MOL0     H26585  10.275   1.951   3.350  0.3882 -3.3559  0.5974
  938MOL0     H26586  10.347   1.996   3.112  1.4693 -2.1664 -3.1222
  938MOL0     H26587  10.196   1.917   3.049  0.6104  0.2622 -1.0140
  938MOL0     H26588  10.410   1.795   3.032  1.2808 -0.1313  1.7662
  938MOL0     H26589  10.281   1.712   3.123  0.2570 -0.0012 -0.8148
  938MOL0     H26590  10.560   1.970   3.086 -2.2060 -3.3740 -0.9879
  938MOL0     H26591  10.726   2.090   2.969  1.5057  1.8149  1.1148
  938MOL0     H26592  10.856   2.117   3.085  1.2180  0.8085 -0.3797
  938MOL0     H26593  10.873   2.001   2.950 -0.5137 -2.7402  0.0361
  938MOL0     H26594  11.196   1.893   3.398  0.8646 -0.7859  0.2226
  938MOL0     H26595  11.436   1.926   3.380 -1.1867 -0.2526  0.7369
  938MOL0     H26596  11.660   2.033   3.347 -0.4726 -1.6243  0.5354
  938MOL0     H26597  11.629   1.879   3.255 -1.9159  0.1882 -2.1138
  938MOL0     H26598  11.860   1.925   3.212  0.7248  0.7274  0.1178
  938MOL0     H26599  11.774   1.966   3.076  1.8590 -1.6355  0.2930
  938MOL0     H26600  11.834   2.193   3.288 -0.9971  0.5221 -1.0781
  938MOL0     H26601  11.798   2.202   3.113  2.4292  0.0545 -3.3386
  938MOL0     H26602  12.060   2.102   3.214  2.8508  1.4684 -0.9594
  938MOL0     H26603  12.004   2.108   3.045 -0.3939 -0.1559 -0.6538
  938MOL0     H26604  12.007   2.360   3.062  1.2705  0.6347 -0.8146
  938MOL0     H26605  12.153   2.292   3.130 -0.4620 -1.7247  0.6439
  938MOL0     H26606  12.064   2.492   3.266  1.8714 -0.3138 -2.2639
  938MOL0     H26607  11.918   2.415   3.290  0.4734  3.6861  1.9181
  938MOL0     H26608  12.025   2.233   3.436  1.2051 -0.1862  4.7678
  938MOL0     H26609  12.046   2.393   3.490 -0.6953 -0.3745  1.5702
  938MOL0     H26610  12.237   2.202   3.359 -4.0937  1.6345 -1.7442
  938MOL0     H26611  12.268   2.266   3.516  1.0130  1.9828  1.2095
  938MOL0     H26612  11.374   2.188   3.044 -0.6473  0.9096 -0.5498
  938MOL0     H26613  11.132   2.187   3.098  0.2000  0.5315  2.3614
  938MOL0     H26614  10.866   1.682   3.338 -1.6867 -1.3319  0.0895
  938MOL0     H26615  10.635   1.634   3.353  2.7465 -0.4602  1.0937
  938MOL0     H26616  10.433   2.009   2.225 -1.1109 -0.9375  0.8790
  938MOL0     H26617  10.649   1.955   2.145 -0.8997 -0.9879  4.3214
  938MOL0     H26618  10.839   1.523   2.006 -0.7645 -1.2022 -0.0948
  938MOL0     H26619  11.037   1.385   2.047  0.5450 -0.3456  0.3347
  938MOL0     H26620  11.386   1.551   1.875  0.4236 -1.7124 -0.9197
  938MOL0     H26621  11.436   1.474   2.036  0.6026  0.0554  0.1949
  938MOL0     H26622  11.572   1.390   1.852  0.8707 -1.4144  2.4094
  938MOL0     H26623  11.419   1.332   1.781 -3.5818  1.2422  1.3966
  938MOL0     H26624  11.387   1.205   2.014  0.6540 -0.8794  1.7480
  938MOL0     H26625  11.547   1.263   2.052  0.5770 -1.6111 -0.1679
  938MOL0     H26626  11.447   1.101   1.808 -1.7515 -1.8348  2.2444
  938MOL0     H26627  11.511   1.038   1.959 -1.9274  1.7969  0.9910
  938MOL0     H26628  11.889   1.126   1.803  0.6170  0.5288  1.2420
  938MOL0     H26629  11.277   1.732   1.985 -1.1625  2.5835  0.4843
  938MOL0     H26630  11.084   1.879   1.979  0.9094 -0.0172  0.3609
  939MOL0     O26631  10.480   1.141   9.857 -0.1903  0.1315 -0.5063
  939MOL0     C26632  10.601   1.102   9.858 -0.8449 -1.4689  0.5688
  939MOL0     O26633  10.678   1.054   9.964 -0.4169  0.2611 -0.0187
  939MOL0     C26634  10.617   1.046  10.086  0.3284 -0.2044 -0.6548
  939MOL0     C26635  10.609   1.163  10.173 -0.1311 -0.0452 -0.7039
  939MOL0     C26636  10.548   1.151  10.295  0.5631 -0.0573 -0.2540
  939MOL0     C26637  10.495   1.021  10.337 -0.5244  0.0674 -0.1700
  939MOL0     O26638  10.447   0.994  10.455  0.1524  0.1439 -1.5405
  939MOL0     C26639  10.437   1.105  10.538 -0.2779 -0.2974  0.4993
  939MOL0     C26640  10.374   1.063  10.664  0.9712 -0.5157 -0.2392
  939MOL0     C26641  10.216   1.085  10.647 -0.2860 -0.6907 -0.5019
  939MOL0     C26642  10.137   1.017  10.757  0.1991  0.0245 -1.1218
  939MOL0     C26643   9.988   1.011  10.731 -1.1935  0.8179  0.3869
  939MOL0     C26644   9.912   0.930  10.833  0.5520  0.0051  0.0482
  939MOL0     C26645   9.756   0.939  10.823 -0.2574  0.6427 -0.0348
  939MOL0     C26646   9.706   0.847  10.930 -0.2169 -0.3452 -0.1817
  939MOL0     N26647   9.555   0.837  10.939 -0.3697 -0.0582 -0.1265
  939MOL0     C26648   9.474   0.759  10.859  0.3461  0.2256  0.4613
  939MOL0     C26649   9.351   0.786  10.920  1.0092  0.1735  0.5840
  939MOL0     C26650   9.225   0.710  10.888 -0.5367  0.8510 -0.0713
  939MOL0     C26651   9.241   0.561  10.904 -0.3716  1.4193  0.7490
  939MOL0     C26652   9.121   0.463  10.894  0.3778 -0.1171  0.5258
  939MOL0     C26653   8.994   0.524  10.825 -0.7861 -0.0205  0.7233
  939MOL0     O26654   8.892   0.467  10.900 -0.2492  0.1915  0.0600
  939MOL0     C26655   8.764   0.477  10.855 -0.2465  0.0526  0.0074
  939MOL0     C26656   8.716   0.577  10.759  0.3260  0.1376 -0.8380
  939MOL0     C26657   8.584   0.585  10.713  0.2592 -0.3112  0.1704
  939MOL0     C26658   8.567   0.703  10.614  0.0970  0.2885 -0.8403
  939MOL0     C26659   8.491   0.501  10.774  0.0526 -0.1111  0.7475
  939MOL0     C26660   8.349   0.505  10.734  0.6502 -0.3993  0.0540
  939MOL0     O26661   8.275   0.390  10.741  0.0545 -0.3304  0.4836
  939MOL0     C26662   8.136   0.397  10.714 -0.5858 -0.4298 -0.0121
  939MOL0     C26663   8.051   0.422  10.823  0.1636  0.6663 -0.0254
  939MOL0     C26664   7.911   0.422  10.800 -0.2196 -0.2236 -0.1888
  939MOL0     C26665   7.852   0.395  10.672 -0.1906  0.6281  0.3636
  939MOL0     O26666   7.718   0.403  10.637  0.2275 -0.4179  0.1651
  939MOL0     C26667   7.626   0.358  10.736  1.1541 -0.3354 -0.5536
  939MOL0     C26668   7.484   0.379  10.686 -0.0367 -0.4373  0.4069
  939MOL0     C26669   7.387   0.339  10.801  0.4088  0.5519  0.1285
  939MOL0     C26670   7.248   0.391  10.779 -0.0954 -0.0913  0.1076
  939MOL0     C26671   7.173   0.327  10.669 -0.1129  0.3587 -0.4176
  939MOL0     C26672   7.050   0.415  10.644  0.5300 -0.4958  0.4813
  939MOL0     C26673   6.950   0.345  10.546  0.1453  0.7707  0.1765
  939MOL0     C26674   6.844   0.450  10.500  0.9644  0.1894  0.3342
  939MOL0    Cl26675   6.744   0.492  10.638  0.0594  0.1475 -0.0642
  939MOL0     C26676   7.936   0.367  10.568 -0.1236  0.6304 -0.0640
  939MOL0     C26677   8.080   0.363  10.588 -0.6546  0.1369 -0.3355
  939MOL0     O26678   8.297   0.618  10.707 -0.8068  0.5790 -0.0427
  939MOL0     C26679   8.540   0.389  10.851 -0.1007  0.2288 -0.2048
  939MOL0     C26680   8.677   0.383  10.900  0.8947 -1.3717  1.2472
  939MOL0     N26681   9.366   0.875  11.025  0.3077 -0.6737 -0.3097
  939MOL0     N26682   9.480   0.909  11.028 -1.0436 -0.4521 -0.6876
  939MOL0     C26683  10.507   0.912  10.250 -0.0311 -0.7392  0.2353
  939MOL0     C26684  10.562   0.929  10.123  1.0752 -0.3087 -0.5560
  939MOL0     C26685  10.667   1.112   9.723 -0.2485 -0.5509  0.1741
  939MOL0     C26686  10.805   1.090   9.717  0.0678  0.4037  0.4351
  939MOL0     C26687  10.870   1.112   9.593  0.0183 -0.7574 -0.0325
  939MOL0     C26688  10.803   1.138   9.476 -0.2790 -0.4053 -0.0566
  939MOL0     O26689  10.883   1.134   9.366 -0.0359 -0.1920  0.1938
  939MOL0     C26690  10.805   1.148   9.242 -0.2317 -0.1346  0.4368
  939MOL0     C26691  10.888   1.156   9.114 -0.3718 -0.6384 -0.0675
  939MOL0     C26692  10.961   1.024   9.097 -0.1085 -0.5275  0.0936
  939MOL0     C26693  11.065   1.042   8.985 -0.0027 -0.2207  0.3720
  939MOL0     C26694  11.011   1.086   8.858 -0.9548  0.6457 -0.1999
  939MOL0     C26695  10.975   1.114   8.747 -0.8671  0.8326 -0.4701
  939MOL0     C26696  10.660   1.140   9.487 -0.7516  0.4716 -0.4288
  939MOL0     C26697  10.590   1.132   9.609 -0.6381 -0.0903  0.7563
  939MOL0     H26698  10.651   1.256  10.137 -0.6417  0.2741 -0.4801
  939MOL0     H26699  10.557   1.241  10.356  2.5213  1.3864 -2.4929
  939MOL0     H26700  10.536   1.144  10.564  0.5861 -1.6290 -0.6270
  939MOL0     H26701  10.382   1.188  10.493  1.0164 -0.3762 -1.3507
  939MOL0     H26702  10.398   0.959  10.686  0.8362 -0.6448 -0.6948
  939MOL0     H26703  10.409   1.140  10.735 -1.1564  1.3594 -1.0939
  939MOL0     H26704  10.200   1.193  10.652 -0.7804 -0.8189  1.3356
  939MOL0     H26705  10.183   1.053  10.548  1.6466 -3.0909 -0.4751
  939MOL0     H26706  10.170   0.913  10.767  0.2454  0.1033 -0.3806
  939MOL0     H26707  10.155   1.070  10.851 -0.3132 -3.7560  1.3186
  939MOL0     H26708   9.948   1.113  10.734 -0.1340  1.3136 -1.1250
  939MOL0     H26709   9.962   0.974  10.631 -2.4030 -2.7754  1.8505
  939MOL0     H26710   9.935   0.825  10.817 -0.6535 -0.2785  0.1364
  939MOL0     H26711   9.945   0.958  10.934 -0.3707  0.7718  0.1561
  939MOL0     H26712   9.731   1.042  10.852  0.3186  0.7015  0.2494
  939MOL0     H26713   9.733   0.917  10.718  1.3691 -1.0405 -0.0712
  939MOL0     H26714   9.750   0.894  11.019 -0.5446 -0.2586 -0.0641
  939MOL0     H26715   9.763   0.754  10.922  0.3519 -0.0496  0.3105
  939MOL0     H26716   9.494   0.688  10.779  0.4894  0.6024  0.1572
  939MOL0     H26717   9.153   0.762  10.952  1.5460  3.7994  0.0546
  939MOL0     H26718   9.195   0.737  10.786 -3.4752  1.4573  0.8501
  939MOL0     H26719   9.282   0.527  10.999 -0.7303 -1.8394 -0.1043
  939MOL0     H26720   9.307   0.535  10.821  0.5767  0.4021  1.7881
  939MOL0     H26721   9.092   0.436  10.996  0.3184 -1.5381  0.1461
  939MOL0     H26722   9.148   0.374  10.837 -1.8153 -0.3758 -0.2114
  939MOL0     H26723   8.986   0.487  10.723  2.3235 -1.5844  0.9307
  939MOL0     H26724   8.992   0.634  10.824 -2.3521 -0.0094 -1.1608
  939MOL0     H26725   8.779   0.660  10.726  0.5112  1.3111  2.1821
  939MOL0     H26726   8.658   0.704  10.553  1.7035  1.6010  1.3958
  939MOL0     H26727   8.491   0.678  10.541  0.1704  1.7447 -1.4415
  939MOL0     H26728   8.546   0.787  10.682  3.3300 -1.2533  2.4289
  939MOL0     H26729   8.092   0.444  10.921 -0.2712  2.1485 -0.1588
  939MOL0     H26730   7.851   0.466  10.879  0.6628  2.3823 -0.8659
  939MOL0     H26731   7.640   0.253  10.763  2.0613 -0.7645 -2.5244
  939MOL0     H26732   7.634   0.413  10.831 -1.5807  0.9114 -0.9517
  939MOL0     H26733   7.471   0.476  10.639 -1.2869 -0.7981 -0.0224
  939MOL0     H26734   7.481   0.307  10.603  1.0103  3.0780 -2.9542
  939MOL0     H26735   7.420   0.376  10.898 -0.5470 -1.2434  1.1812
  939MOL0     H26736   7.380   0.230  10.805 -0.2593  0.6184  3.5814
  939MOL0     H26737   7.185   0.383  10.868 -1.8876 -2.2994 -1.2316
  939MOL0     H26738   7.258   0.498  10.761  0.1573 -0.4967 -2.6351
  939MOL0     H26739   7.133   0.227  10.687 -1.6107  0.8577 -0.8178
  939MOL0     H26740   7.237   0.316  10.581  0.8796  0.4137  0.2936
  939MOL0     H26741   6.997   0.426  10.739  3.0808 -1.6663  2.1612
  939MOL0     H26742   7.077   0.512  10.601 -3.2598  0.0756 -0.9565
  939MOL0     H26743   6.909   0.255  10.592 -0.3313 -0.2347 -2.1139
  939MOL0     H26744   7.009   0.314  10.460  0.0903 -3.2410  1.4051
  939MOL0     H26745   6.773   0.415  10.425 -0.2280 -0.9136  1.9060
  939MOL0     H26746   6.888   0.538  10.452 -1.6934  0.3769 -1.9836
  939MOL0     H26747   7.893   0.346  10.471  2.1339 -2.8073 -0.5136
  939MOL0     H26748   8.155   0.328  10.517  0.4834 -0.4930  1.1169
  939MOL0     H26749   8.473   0.308  10.879  1.1098 -1.0578 -0.8989
  939MOL0     H26750   8.695   0.316  10.984 -1.6727  1.5684  4.4489
  939MOL0     H26751  10.468   0.813  10.275  2.1440 -2.6663 -3.2437
  939MOL0     H26752  10.553   0.841  10.060  1.8984 -2.9526  2.7392
  939MOL0     H26753  10.856   1.077   9.811  1.2883  0.6558 -0.1734
  939MOL0     H26754  10.978   1.106   9.597  0.0638  0.4172  2.1560
  939MOL0     H26755  10.743   1.059   9.226  0.4111 -0.7841  1.3931
  939MOL0     H26756  10.735   1.232   9.237  0.2048  0.1439 -2.1065
  939MOL0     H26757  10.948   1.244   9.138 -0.7589 -0.0468 -1.2112
  939MOL0     H26758  10.816   1.176   9.033 -0.6837  0.6203  0.4889
  939MOL0     H26759  10.892   0.946   9.064  0.5339 -1.2954  0.5391
  939MOL0     H26760  11.019   0.995   9.185 -1.1780 -3.2429  0.0022
  939MOL0     H26761  11.119   0.950   8.964  0.4460 -0.1486  1.1419
  939MOL0     H26762  11.141   1.116   9.013 -1.3532  2.0608 -1.6280
  939MOL0     H26763  10.932   1.140   8.652 -0.5379 -1.6995 -1.3742
  939MOL0     H26764  10.609   1.155   9.393  0.3890  5.5399 -0.4856
  939MOL0     H26765  10.483   1.142   9.621 -1.2890 -3.9281 -0.5480
  940MOL0     O26766   1.848   1.514   8.509  0.3709 -0.2303 -0.7201
  940MOL0     C26767   1.956   1.576   8.504 -0.2704  0.1761 -0.7131
  940MOL0     O26768   2.024   1.620   8.613  0.1297  0.5480  0.3034
  940MOL0     C26769   1.959   1.614   8.737 -0.1658  0.1546  0.5858
  940MOL0     C26770   1.831   1.660   8.766  0.3356 -0.1668  0.0136
  940MOL0     C26771   1.785   1.663   8.899 -0.6284  0.1379 -0.3165
  940MOL0     C26772   1.868   1.626   9.007  0.2847 -0.1938 -0.1702
  940MOL0     O26773   1.818   1.653   9.132 -0.0154  0.4830 -0.7170
  940MOL0     C26774   1.808   1.530   9.196 -0.1536 -0.2155 -0.1943
  940MOL0     C26775   1.693   1.535   9.292 -0.2605 -0.0621 -0.1927
  940MOL0     C26776   1.551   1.539   9.223 -1.0315  0.0250 -0.0087
  940MOL0     C26777   1.452   1.501   9.328 -0.2003 -0.2502 -0.3907
  940MOL0     C26778   1.300   1.533   9.300  0.9815  0.1385  0.6382
  940MOL0     C26779   1.208   1.523   9.428 -0.2982  0.5490  0.1150
  940MOL0     C26780   1.059   1.535   9.400  0.3583 -0.0851  0.2424
  940MOL0     C26781   0.999   1.662   9.343  0.7394 -0.0733 -0.2266
  940MOL0     N26782   0.852   1.651   9.341  1.1045  0.7042 -0.3177
  940MOL0     C26783   0.768   1.544   9.366 -0.2081  0.1279 -0.7957
  940MOL0     C26784   0.644   1.600   9.380  0.6840  0.0687 -0.3561
  940MOL0     C26785   0.519   1.521   9.413  0.2087  0.4458  0.1447
  940MOL0     C26786   0.390   1.581   9.347  0.3736  0.1229  0.5736
  940MOL0     C26787   0.274   1.496   9.380 -0.1046  0.4799  0.4821
  940MOL0     C26788   0.280   1.355   9.318  0.1405  0.0062 -0.0203
  940MOL0     O26789   0.195   1.268   9.399  0.2365  0.3446  0.3203
  940MOL0     C26790   0.159   1.148   9.331 -0.5118  0.2914 -0.5736
  940MOL0     C26791   0.181   1.101   9.202  0.4159 -0.7508 -0.1544
  940MOL0     C26792   0.132   0.977   9.152  0.0446  0.4007  0.1432
  940MOL0     C26793   0.165   0.945   9.003 -0.0821  0.2623  0.5922
  940MOL0     C26794   0.070   0.884   9.238 -0.1237 -0.9049 -0.0497
  940MOL0     C26795   0.027   0.745   9.208 -0.4151  0.1708 -0.3859
  940MOL0     O26796  -0.025   0.682   9.315  0.3787 -0.2527  0.3651
  940MOL0     C26797  -0.069   0.554   9.294 -1.1510  0.0829 -0.1713
  940MOL0     C26798  -0.202   0.507   9.266 -0.2640 -0.2607  0.1038
  940MOL0     C26799  -0.225   0.374   9.237  0.1496  0.2576  0.0185
  940MOL0     C26800  -0.111   0.284   9.238 -0.4750  0.0088 -0.0008
  940MOL0     O26801  -0.125   0.147   9.226 -0.4023 -0.7071  0.6932
  940MOL0     C26802  -0.252   0.094   9.263  0.6615 -0.6507 -0.1542
  940MOL0     C26803  -0.236  -0.056   9.289 -0.1573  0.5481  0.1268
  940MOL0     C26804  -0.358  -0.118   9.358 -0.3487 -0.3880 -1.0235
  940MOL0     C26805  -0.361  -0.268   9.398 -0.5262 -0.3297 -0.3925
  940MOL0     C26806  -0.495  -0.336   9.407  0.5866 -0.1260  0.4527
  940MOL0     C26807  -0.600  -0.262   9.487  0.5170  0.1685  0.5803
  940MOL0     C26808  -0.553  -0.241   9.626  0.5898 -0.8949  0.4718
  940MOL0     C26809  -0.672  -0.190   9.709  0.0262 -0.7003  0.2662
  940MOL0    Cl26810  -0.790  -0.309   9.771 -0.3676  0.2344  0.5824
  940MOL0     C26811   0.016   0.327   9.273 -0.8388  0.4417 -0.4113
  940MOL0     C26812   0.037   0.457   9.301 -0.2629 -1.4615 -1.0117
  940MOL0     O26813   0.074   0.696   9.105  0.5049  0.8393  0.3533
  940MOL0     C26814   0.060   0.929   9.379  0.5698 -0.6470  0.6441
  940MOL0     C26815   0.100   1.057   9.418  0.2528  0.2447  0.1980
  940MOL0     N26816   0.647   1.735   9.349 -0.0801 -0.1440 -0.0455
  940MOL0     N26817   0.774   1.762   9.318  0.4889 -0.0345 -0.0889
  940MOL0     C26818   1.990   1.581   8.979 -0.4006  0.1390 -0.1117
  940MOL0     C26819   2.036   1.577   8.848  0.5143  0.3961  0.5372
  940MOL0     C26820   2.023   1.594   8.379  0.1374 -0.5339  0.4484
  940MOL0     C26821   2.156   1.655   8.375 -0.2728  0.2970  0.2199
  940MOL0     C26822   2.214   1.688   8.253  0.4801 -0.1499 -0.0807
  940MOL0     C26823   2.143   1.638   8.131 -0.0216 -0.4689 -0.4244
  940MOL0     O26824   2.180   1.665   7.997 -0.7351 -0.7215  0.2432
  940MOL0     C26825   2.299   1.743   7.957 -0.3157  0.3319  0.3044
  940MOL0     C26826   2.414   1.649   7.899  0.7178  0.2920 -0.5006
  940MOL0     C26827   2.463   1.557   8.016 -0.2127  0.4838 -0.1801
  940MOL0     C26828   2.564   1.455   7.960  0.6371  1.0070 -0.6991
  940MOL0     C26829   2.692   1.523   7.930  0.1787 -0.0125  0.1750
  940MOL0     C26830   2.795   1.569   7.883  0.3628 -0.3960  0.3097
  940MOL0     C26831   2.015   1.579   8.134 -0.1294  0.3800  0.4597
  940MOL0     C26832   1.957   1.556   8.257  1.0927  0.1330  0.6046
  940MOL0     H26833   1.760   1.686   8.688 -0.3109  0.3884  0.7652
  940MOL0     H26834   1.691   1.712   8.921  0.6438  1.5447  2.5748
  940MOL0     H26835   1.781   1.445   9.133 -2.6824 -0.5597  1.1813
  940MOL0     H26836   1.907   1.507   9.236  1.6166 -0.4320 -4.2666
  940MOL0     H26837   1.696   1.438   9.341  1.0404  0.0274 -0.0559
  940MOL0     H26838   1.697   1.623   9.357 -3.1868 -0.2986  0.4607
  940MOL0     H26839   1.530   1.634   9.173 -1.0947  0.2143  0.3725
  940MOL0     H26840   1.548   1.465   9.143 -1.7050  1.1567 -1.0718
  940MOL0     H26841   1.458   1.394   9.347 -0.3993 -0.1705  0.1547
  940MOL0     H26842   1.483   1.553   9.419 -0.5272  0.2888 -0.5793
  940MOL0     H26843   1.290   1.634   9.259 -1.4521  0.4630  1.8511
  940MOL0     H26844   1.275   1.454   9.228 -0.4912 -0.5044  1.7977
  940MOL0     H26845   1.227   1.431   9.484 -0.6727  1.4364  1.7734
  940MOL0     H26846   1.239   1.603   9.496  0.0864 -0.2082  0.8446
  940MOL0     H26847   1.028   1.458   9.328  1.4072 -0.7932  0.5196
  940MOL0     H26848   1.015   1.517   9.498  0.0259  1.6699  0.4459
  940MOL0     H26849   1.037   1.687   9.243 -0.3474  2.1695 -0.1510
  940MOL0     H26850   1.028   1.752   9.398  0.5075  2.4571 -3.8323
  940MOL0     H26851   0.796   1.441   9.388  2.4778  1.1175  0.9762
  940MOL0     H26852   0.535   1.419   9.374 -1.8735  0.6071 -1.3411
  940MOL0     H26853   0.516   1.510   9.522  1.2934  2.4909  0.4043
  940MOL0     H26854   0.403   1.578   9.238  1.5700 -0.0600  0.6981
  940MOL0     H26855   0.363   1.683   9.374  0.3085  0.3234 -0.2092
  940MOL0     H26856   0.190   1.546   9.333  0.0184  2.4186  2.1803
  940MOL0     H26857   0.263   1.489   9.489 -1.5320 -1.5347  0.2573
  940MOL0     H26858   0.379   1.308   9.314 -0.5837 -1.4874 -1.8939
  940MOL0     H26859   0.250   1.364   9.213  0.3924 -1.4373 -0.2307
  940MOL0     H26860   0.243   1.165   9.140  2.5292  0.9408  3.4128
  940MOL0     H26861   0.242   0.868   8.998  1.5373  1.8596 -0.3152
  940MOL0     H26862   0.084   0.915   8.935  1.7866 -1.8999 -0.8364
  940MOL0     H26863   0.207   1.034   8.955  0.8441 -0.9832 -1.0307
  940MOL0     H26864  -0.284   0.577   9.277  0.3584  0.0824  3.9204
  940MOL0     H26865  -0.323   0.334   9.215  0.9525 -0.8029 -1.9203
  940MOL0     H26866  -0.293   0.134   9.357  0.4933 -1.7445  0.2565
  940MOL0     H26867  -0.324   0.113   9.183  0.7464  0.1652 -0.0517
  940MOL0     H26868  -0.228  -0.106   9.192 -1.2022  0.5338  0.0397
  940MOL0     H26869  -0.145  -0.064   9.349 -1.0165  0.4771  1.4568
  940MOL0     H26870  -0.438  -0.107   9.285 -0.1760 -0.8896 -1.2931
  940MOL0     H26871  -0.383  -0.052   9.441  2.8796  0.1334 -0.3171
  940MOL0     H26872  -0.305  -0.319   9.319  0.3817  0.7059 -0.4411
  940MOL0     H26873  -0.300  -0.274   9.488  3.3335  1.5742 -2.6066
  940MOL0     H26874  -0.482  -0.438   9.445 -3.0754 -0.0455  2.4276
  940MOL0     H26875  -0.540  -0.343   9.307 -0.8763 -0.9908  1.1384
  940MOL0     H26876  -0.621  -0.166   9.438  1.5521  0.2903  0.3433
  940MOL0     H26877  -0.698  -0.311   9.493  0.4349 -0.2370 -2.4256
  940MOL0     H26878  -0.484  -0.156   9.624 -2.9250  2.2337  1.3384
  940MOL0     H26879  -0.513  -0.328   9.679  0.6051 -0.4274  1.2304
  940MOL0     H26880  -0.716  -0.111   9.648 -0.5403 -0.3161  1.1479
  940MOL0     H26881  -0.631  -0.148   9.802 -0.1509 -0.3492  0.1850
  940MOL0     H26882   0.091   0.249   9.282 -0.3607  0.4877 -3.1747
  940MOL0     H26883   0.135   0.493   9.329 -0.1614 -2.2564 -0.2744
  940MOL0     H26884   0.012   0.871   9.457 -0.3223 -1.6664 -0.6141
  940MOL0     H26885   0.082   1.069   9.524 -0.2644  0.9503  0.0372
  940MOL0     H26886   2.065   1.558   9.054  1.2424 -1.4801 -2.1441
  940MOL0     H26887   2.135   1.533   8.837  0.1769 -0.1040 -0.6284
  940MOL0     H26888   2.219   1.679   8.459  0.9979 -0.9453 -0.3462
  940MOL0     H26889   2.312   1.730   8.231  0.6782 -0.4515  0.2123
  940MOL0     H26890   2.264   1.799   7.869  2.1780  2.1312  0.3728
  940MOL0     H26891   2.331   1.813   8.034 -1.1492  0.2354  0.7578
  940MOL0     H26892   2.492   1.712   7.854 -0.2354 -0.7214 -3.9176
  940MOL0     H26893   2.369   1.590   7.819  1.1073  0.6046 -0.9555
  940MOL0     H26894   2.376   1.500   8.050 -0.5199  0.4605 -0.9949
  940MOL0     H26895   2.507   1.627   8.088 -0.7950  0.6628  0.0038
  940MOL0     H26896   2.521   1.407   7.871 -0.1289 -0.8369  0.6087
  940MOL0     H26897   2.584   1.379   8.036  1.1520  2.6538  0.8888
  940MOL0     H26898   2.878   1.612   7.831  0.7573  0.0723  1.3142
  940MOL0     H26899   1.971   1.534   8.045  2.6593 -1.2099 -0.2492
  940MOL0     H26900   1.861   1.507   8.269  1.8089 -1.1452  1.4143
  941MOL0     O26901   3.189   4.002   4.648 -0.3810  0.3767  0.6629
  941MOL0     C26902   3.251   4.097   4.703  0.1744  0.0584  0.4042
  941MOL0     O26903   3.192   4.215   4.737  0.2877  0.7009 -0.5554
  941MOL0     C26904   3.057   4.239   4.745 -0.6839  0.3466  0.0759
  941MOL0     C26905   2.964   4.142   4.750  1.4342  0.4203  0.0089
  941MOL0     C26906   2.826   4.158   4.764 -0.5905 -0.8874  0.9819
  941MOL0     C26907   2.773   4.290   4.770 -0.2233  0.2609  0.0398
  941MOL0     O26908   2.643   4.330   4.789  0.4485 -0.4789  0.5523
  941MOL0     C26909   2.532   4.241   4.798 -0.9602 -0.6089  1.1545
  941MOL0     C26910   2.402   4.319   4.827 -0.2399 -0.7395 -0.9564
  941MOL0     C26911   2.349   4.383   4.695 -0.4384 -0.3819  0.2012
  941MOL0     C26912   2.227   4.478   4.713  1.3253 -0.0757  1.0165
  941MOL0     C26913   2.104   4.413   4.779 -0.1542 -0.0581  0.2834
  941MOL0     C26914   2.012   4.327   4.693  0.6161  0.1160  0.0917
  941MOL0     C26915   1.897   4.268   4.791  0.0125 -0.5515 -0.7267
  941MOL0     C26916   1.783   4.363   4.822  0.2058  0.7402 -0.0807
  941MOL0     N26917   1.720   4.410   4.699  0.3484  0.3005 -0.2752
  941MOL0     C26918   1.661   4.335   4.604 -0.0694 -0.5897 -0.2900
  941MOL0     C26919   1.618   4.428   4.507  0.6696  0.4157  0.3073
  941MOL0     C26920   1.548   4.400   4.375  0.2031 -0.3961 -0.8237
  941MOL0     C26921   1.409   4.336   4.412 -0.5304 -0.3621  0.4250
  941MOL0     C26922   1.312   4.447   4.472 -0.2502 -0.1048 -0.0540
  941MOL0     C26923   1.169   4.394   4.472 -0.6251 -0.2094  0.2080
  941MOL0     O26924   1.076   4.489   4.515  0.0476  0.5796 -0.4202
  941MOL0     C26925   0.945   4.464   4.514  0.3343  0.9031  0.4842
  941MOL0     C26926   0.858   4.567   4.496  0.0734 -0.4463 -0.1656
  941MOL0     C26927   0.718   4.548   4.483  0.4744  0.7139 -1.0621
  941MOL0     C26928   0.625   4.671   4.468 -1.0653 -0.1002  0.2230
  941MOL0     C26929   0.667   4.407   4.492  0.2618 -0.4999 -0.8814
  941MOL0     C26930   0.525   4.368   4.476 -0.3815  1.5289 -0.4133
  941MOL0     O26931   0.492   4.228   4.491 -0.8302 -0.1979 -0.2509
  941MOL0     C26932   0.356   4.195   4.477 -0.7017  0.0440 -0.0231
  941MOL0     C26933   0.317   4.107   4.374 -0.1605  0.5091  0.5261
  941MOL0     C26934   0.185   4.069   4.365  0.8729  0.4741  0.2045
  941MOL0     C26935   0.086   4.116   4.454 -0.6817  0.0249 -0.3894
  941MOL0     O26936  -0.045   4.089   4.450  0.6066 -0.7973 -0.6784
  941MOL0     C26937  -0.100   4.077   4.315  0.5463  0.1039  0.2879
  941MOL0     C26938  -0.251   4.047   4.313 -0.3027 -0.6279 -0.0040
  941MOL0     C26939  -0.306   4.025   4.179 -0.0966  0.3987  1.0737
  941MOL0     C26940  -0.459   4.047   4.189  0.4115  0.3468  0.0978
  941MOL0     C26941  -0.521   4.040   4.043 -1.0384  0.0287 -0.8514
  941MOL0     C26942  -0.505   4.173   3.962 -0.1650 -0.2388 -0.3696
  941MOL0     C26943  -0.541   4.295   4.044  0.3256 -1.1947 -0.6651
  941MOL0     C26944  -0.690   4.291   4.083 -0.0828 -0.5135  0.3839
  941MOL0    Cl26945  -0.793   4.272   3.935  0.4439  0.2532  0.1651
  941MOL0     C26946   0.128   4.199   4.562 -0.0603  0.1540  0.0940
  941MOL0     C26947   0.267   4.235   4.577 -0.2812 -0.4168 -1.0950
  941MOL0     O26948   0.446   4.456   4.463 -0.1989  0.7167  0.0350
  941MOL0     C26949   0.761   4.311   4.499 -0.1930  0.4548  0.3024
  941MOL0     C26950   0.892   4.335   4.521 -0.2080 -0.0113  0.5950
  941MOL0     N26951   1.644   4.557   4.552  0.0359  0.8912  0.2490
  941MOL0     N26952   1.700   4.543   4.668 -0.3807 -0.5533  0.1580
  941MOL0     C26953   2.871   4.395   4.769 -0.0616 -0.3219 -0.3215
  941MOL0     C26954   3.012   4.368   4.752  0.0146 -0.1792 -0.3280
  941MOL0     C26955   3.398   4.080   4.711 -0.8186  0.0131  0.1238
  941MOL0     C26956   3.460   3.980   4.633  0.4754  0.0208 -0.3126
  941MOL0     C26957   3.601   3.947   4.640  0.3281  0.9236 -0.3908
  941MOL0     C26958   3.687   4.025   4.728  0.5923  0.5251 -0.0168
  941MOL0     O26959   3.821   4.008   4.739  0.1215 -0.0355  0.1166
  941MOL0     C26960   3.891   3.929   4.639 -0.5957  0.1920 -0.7779
  941MOL0     C26961   3.949   3.797   4.692  0.6686 -0.0967  0.6225
  941MOL0     C26962   3.992   3.816   4.841 -0.8130  0.2820  0.6655
  941MOL0     C26963   4.067   3.695   4.899  0.7054 -0.3612  0.3145
  941MOL0     C26964   3.971   3.587   4.950  0.0211 -1.0783 -0.7713
  941MOL0     C26965   3.898   3.492   4.976 -0.2799 -0.7014 -0.2092
  941MOL0     C26966   3.630   4.126   4.803  0.3210  0.4226 -0.2531
  941MOL0     C26967   3.489   4.153   4.796  0.2842 -0.2601  0.1182
  941MOL0     H26968   2.987   4.037   4.738  1.4901  0.5035 -0.6265
  941MOL0     H26969   2.769   4.067   4.753 -1.5261 -0.6134  3.1349
  941MOL0     H26970   2.520   4.184   4.705 -1.9270  1.0838  0.1999
  941MOL0     H26971   2.563   4.170   4.876  0.1738 -0.7415  0.5975
  941MOL0     H26972   2.329   4.249   4.869 -1.1142  0.7304  0.0310
  941MOL0     H26973   2.420   4.401   4.896 -1.2472 -0.6880 -0.7368
  941MOL0     H26974   2.431   4.444   4.655 -1.7790  1.4296  0.0951
  941MOL0     H26975   2.332   4.292   4.637  2.1567 -3.0327  3.1360
  941MOL0     H26976   2.265   4.567   4.763  3.1518  0.6586 -1.4650
  941MOL0     H26977   2.205   4.518   4.614 -1.2122  0.5158  1.7453
  941MOL0     H26978   2.141   4.355   4.864  2.2464  1.5160  0.4157
  941MOL0     H26979   2.031   4.490   4.803 -0.5791 -0.5022  0.4201
  941MOL0     H26980   1.972   4.389   4.612 -2.4873  2.5438  3.1789
  941MOL0     H26981   2.059   4.236   4.654 -1.6474 -1.3145  0.5341
  941MOL0     H26982   1.864   4.172   4.751 -1.0417 -0.4031 -0.2500
  941MOL0     H26983   1.949   4.241   4.883  2.7427 -0.5027 -2.1386
  941MOL0     H26984   1.811   4.458   4.868 -3.3758  1.9783 -0.1289
  941MOL0     H26985   1.713   4.309   4.886  1.2100 -2.1061 -1.2369
  941MOL0     H26986   1.635   4.230   4.605 -0.8695 -0.3930 -0.1284
  941MOL0     H26987   1.536   4.494   4.320  3.0584  3.0665  3.6801
  941MOL0     H26988   1.605   4.334   4.310  2.1786 -0.0277  0.4437
  941MOL0     H26989   1.420   4.261   4.491  1.7668  2.4066  2.9923
  941MOL0     H26990   1.371   4.277   4.328 -2.6420 -0.9768  1.7338
  941MOL0     H26991   1.319   4.531   4.402 -1.7212 -1.0937 -1.4289
  941MOL0     H26992   1.337   4.481   4.574 -0.7313  0.7903 -0.2214
  941MOL0     H26993   1.162   4.305   4.535  0.1564 -0.4658 -0.0550
  941MOL0     H26994   1.148   4.351   4.374  3.8615 -0.8415 -0.6922
  941MOL0     H26995   0.891   4.670   4.482  0.7317 -0.3483  1.7214
  941MOL0     H26996   0.557   4.664   4.553 -0.1790 -0.9244  0.8983
  941MOL0     H26997   0.683   4.763   4.460 -0.8924 -0.3173 -1.3983
  941MOL0     H26998   0.565   4.655   4.378  0.7100 -0.9305 -0.8862
  941MOL0     H26999   0.380   4.074   4.292 -1.5617 -0.1137 -0.3429
  941MOL0     H27000   0.137   4.018   4.282  1.6691  0.2634 -0.1361
  941MOL0     H27001  -0.079   4.164   4.252 -2.0326 -0.2946 -1.2739
  941MOL0     H27002  -0.054   3.991   4.267  1.0484 -0.3626  1.5539
  941MOL0     H27003  -0.253   3.961   4.381  0.4646 -0.1406  0.6594
  941MOL0     H27004  -0.308   4.127   4.362 -0.0910 -0.2741 -0.3410
  941MOL0     H27005  -0.269   3.925   4.153 -0.7566  0.6879 -1.1380
  941MOL0     H27006  -0.268   4.099   4.109  1.0080  1.2075  2.4610
  941MOL0     H27007  -0.500   3.967   4.251  0.1122  1.6737  1.7150
  941MOL0     H27008  -0.491   4.130   4.254 -2.8266 -3.2773  3.6682
  941MOL0     H27009  -0.624   4.003   4.043 -0.2840 -2.2992 -2.5902
  941MOL0     H27010  -0.470   3.963   3.985  1.9806  2.6502 -1.9912
  941MOL0     H27011  -0.400   4.182   3.932  0.6392  0.5674  2.3890
  941MOL0     H27012  -0.568   4.165   3.872 -2.4788 -0.8069  1.2268
  941MOL0     H27013  -0.533   4.386   3.984  2.0392 -1.6895 -1.2492
  941MOL0     H27014  -0.471   4.313   4.126 -0.4040 -0.2080 -0.2268
  941MOL0     H27015  -0.713   4.385   4.135 -1.8781  0.3105 -1.7249
  941MOL0     H27016  -0.720   4.215   4.155 -1.7364 -0.8875 -0.6551
  941MOL0     H27017   0.044   4.221   4.627 -0.1618 -0.5844  0.2201
  941MOL0     H27018   0.294   4.288   4.668 -1.0492 -1.1276 -0.4458
  941MOL0     H27019   0.749   4.204   4.483 -2.2138  0.9611 -2.1190
  941MOL0     H27020   0.953   4.245   4.518  0.4940  0.4769 -1.6326
  941MOL0     H27021   2.842   4.499   4.782 -1.9862 -1.0082  1.3057
  941MOL0     H27022   3.076   4.455   4.745 -1.2289  0.7800 -0.1771
  941MOL0     H27023   3.405   3.910   4.572 -2.2461  0.0210  1.9484
  941MOL0     H27024   3.639   3.869   4.575 -1.3109  0.9536 -1.4551
  941MOL0     H27025   3.823   3.924   4.553 -3.5964  0.3440  1.4241
  941MOL0     H27026   3.979   3.981   4.600  2.9976 -2.4355  3.0006
  941MOL0     H27027   4.033   3.776   4.625 -0.1363 -3.1906  0.4470
  941MOL0     H27028   3.865   3.727   4.688  0.9015 -0.6532  3.4000
  941MOL0     H27029   3.912   3.845   4.910 -1.3556 -2.5500  1.3610
  941MOL0     H27030   4.077   3.885   4.837  1.1519 -1.8467  2.5212
  941MOL0     H27031   4.133   3.724   4.981  0.5988  0.5140  0.1071
  941MOL0     H27032   4.130   3.647   4.824  0.3465 -1.4466  0.6871
  941MOL0     H27033   3.832   3.409   4.993 -3.1672  1.6199  0.6149
  941MOL0     H27034   3.694   4.181   4.871  0.9741  1.7395 -1.8624
  941MOL0     H27035   3.447   4.234   4.854  4.8719  2.5340 -0.0504
  942MOL0     O27036   5.425   6.408   8.533 -0.2451  0.2798 -0.3699
  942MOL0     C27037   5.450   6.310   8.604  1.1859  0.6023  0.8789
  942MOL0     O27038   5.358   6.255   8.688 -0.0182 -0.2025  0.1032
  942MOL0     C27039   5.241   6.325   8.701 -0.0834  0.3613 -0.0987
  942MOL0     C27040   5.140   6.343   8.605  0.4084 -0.7134  0.2597
  942MOL0     C27041   5.029   6.410   8.630  0.2412 -1.0201 -1.0726
  942MOL0     C27042   5.015   6.462   8.759  0.0984 -0.2412  0.6348
  942MOL0     O27043   4.919   6.555   8.794  0.4580  1.0116  0.4544
  942MOL0     C27044   4.832   6.602   8.694  0.6107 -1.0158  1.1585
  942MOL0     C27045   4.730   6.710   8.740 -0.3236 -0.1894 -0.6604
  942MOL0     C27046   4.621   6.726   8.641 -0.0967  0.1519 -0.6098
  942MOL0     C27047   4.544   6.859   8.654 -0.0070 -0.7302 -0.1278
  942MOL0     C27048   4.415   6.846   8.567  0.0749 -0.4530  0.3754
  942MOL0     C27049   4.333   6.972   8.549 -0.5525  0.0776  0.2554
  942MOL0     C27050   4.252   7.012   8.671  0.2170 -0.2119 -0.8939
  942MOL0     C27051   4.149   7.117   8.616  0.1874  0.0954  0.3659
  942MOL0     N27052   4.074   7.190   8.722  0.2156 -0.5075  0.0134
  942MOL0     C27053   4.035   7.148   8.845 -0.8636 -0.0875  0.7321
  942MOL0     C27054   3.963   7.248   8.899  0.2224 -0.7253  0.0134
  942MOL0     C27055   3.899   7.251   9.038 -0.8141  0.3015 -0.2683
  942MOL0     C27056   3.760   7.303   9.036 -0.3108 -0.5607  0.2013
  942MOL0     C27057   3.657   7.196   9.001 -0.0136 -0.1629 -0.4245
  942MOL0     C27058   3.525   7.263   8.966 -0.3657  0.2925 -0.4669
  942MOL0     O27059   3.441   7.168   8.900  0.0142 -0.4934  0.0902
  942MOL0     C27060   3.341   7.124   8.983 -0.0667 -0.0888 -0.3129
  942MOL0     C27061   3.360   7.059   9.103 -0.3080  0.1533 -0.0892
  942MOL0     C27062   3.252   7.003   9.172  1.0094 -0.4660  0.5395
  942MOL0     C27063   3.289   6.915   9.290 -0.2907 -0.3263 -0.7864
  942MOL0     C27064   3.113   7.034   9.133 -0.4606 -0.7730 -0.6103
  942MOL0     C27065   2.992   7.004   9.214 -0.1546 -0.3698  1.2507
  942MOL0     O27066   2.876   7.057   9.171  0.2618  0.2840 -0.5893
  942MOL0     C27067   2.767   7.057   9.258 -0.0182 -1.4957 -0.8963
  942MOL0     C27068   2.666   6.965   9.250  0.2787  0.0030 -0.2329
  942MOL0     C27069   2.554   6.969   9.338 -0.0974 -0.0773 -0.1690
  942MOL0     C27070   2.535   7.070   9.436 -0.6605 -0.2179 -0.0684
  942MOL0     O27071   2.421   7.072   9.510  0.1264  0.3543 -0.0235
  942MOL0     C27072   2.299   6.996   9.471 -0.2538 -0.5172  0.1647
  942MOL0     C27073   2.231   7.070   9.360  0.4799  0.0367  0.5518
  942MOL0     C27074   2.101   7.007   9.313  0.2500 -0.4700 -0.5398
  942MOL0     C27075   2.120   6.865   9.250 -0.4939 -0.4785 -0.3438
  942MOL0     C27076   2.093   6.747   9.351 -0.3644  0.2506 -0.0528
  942MOL0     C27077   2.146   6.617   9.290  0.8499  0.0372 -0.2271
  942MOL0     C27078   2.099   6.501   9.382 -0.2643 -0.1748  0.4553
  942MOL0     C27079   2.147   6.364   9.324  0.6083  0.0756 -0.4255
  942MOL0    Cl27080   2.044   6.345   9.171  0.4170  0.2101 -0.2174
  942MOL0     C27081   2.641   7.164   9.441  0.2390  0.6967 -0.6879
  942MOL0     C27082   2.752   7.163   9.349  1.4268  0.2788 -0.7275
  942MOL0     O27083   3.010   6.932   9.311 -0.0528  0.6588  0.1186
  942MOL0     C27084   3.101   7.102   9.015 -0.5690 -0.3588 -0.1166
  942MOL0     C27085   3.212   7.147   8.940  0.2677  0.3560 -0.0861
  942MOL0     N27086   3.976   7.361   8.817 -0.5273 -0.4798 -0.5016
  942MOL0     N27087   4.041   7.325   8.713 -0.4747  0.1429 -0.7246
  942MOL0     C27088   5.112   6.449   8.855  0.5363 -0.1191 -0.0127
  942MOL0     C27089   5.223   6.376   8.819 -0.2091 -0.5383 -1.0705
  942MOL0     C27090   5.587   6.246   8.599  0.5162  0.1512 -0.2944
  942MOL0     C27091   5.634   6.147   8.689 -0.1255 -0.2170 -0.2503
  942MOL0     C27092   5.764   6.092   8.678 -0.0814  0.5609 -0.8962
  942MOL0     C27093   5.850   6.129   8.580  0.0477  0.0807 -0.9186
  942MOL0     O27094   5.971   6.072   8.572 -0.5961  0.5366  0.1712
  942MOL0     C27095   6.064   6.085   8.464  0.1474 -0.0224  0.2807
  942MOL0     C27096   6.185   5.993   8.484  0.0325 -0.6407 -0.1374
  942MOL0     C27097   6.288   6.025   8.389 -1.0988  0.4619  0.5819
  942MOL0     C27098   6.241   6.002   8.241 -0.8072  0.8501 -1.0323
  942MOL0     C27099   6.362   6.001   8.150 -0.6317  0.2151 -0.2281
  942MOL0     C27100   6.472   6.010   8.099  0.4962  0.5853  0.2612
  942MOL0     C27101   5.809   6.222   8.489 -0.3973 -1.1020  0.6429
  942MOL0     C27102   5.677   6.275   8.497 -0.4879  0.2379  0.8883
  942MOL0     H27103   5.152   6.301   8.506 -2.5354 -1.2309  0.0343
  942MOL0     H27104   4.953   6.424   8.554 -1.1051  2.3850  0.6684
  942MOL0     H27105   4.893   6.638   8.610 -1.0913  1.2975  0.8290
  942MOL0     H27106   4.772   6.523   8.647  0.3302 -0.5677  0.7540
  942MOL0     H27107   4.682   6.673   8.831  2.4552 -2.0742  0.1699
  942MOL0     H27108   4.784   6.804   8.754  1.3145 -1.4886  3.2262
  942MOL0     H27109   4.665   6.715   8.541  1.8800  0.0311  0.2166
  942MOL0     H27110   4.551   6.645   8.659 -0.3508  0.4136 -0.4125
  942MOL0     H27111   4.518   6.872   8.759 -1.4085  0.8277 -0.6238
  942MOL0     H27112   4.606   6.944   8.623 -1.0736 -0.8692 -2.9748
  942MOL0     H27113   4.442   6.810   8.467  0.5810  2.4187 -0.6411
  942MOL0     H27114   4.363   6.771   8.626  1.7322 -0.3104  2.1000
  942MOL0     H27115   4.390   7.061   8.519 -1.6743  0.3820 -1.0832
  942MOL0     H27116   4.261   6.961   8.467 -0.7101  0.9805  0.2598
  942MOL0     H27117   4.201   6.926   8.714 -0.2522 -0.5933 -2.1540
  942MOL0     H27118   4.304   7.069   8.748 -1.5494 -0.4386  0.5131
  942MOL0     H27119   4.064   7.074   8.564 -0.8288  0.6143  1.5474
  942MOL0     H27120   4.212   7.177   8.549  1.9874  1.1507  2.8243
  942MOL0     H27121   4.049   7.050   8.887 -0.4549  0.4060  1.7737
  942MOL0     H27122   3.914   7.154   9.087  1.1505  1.0204  0.6512
  942MOL0     H27123   3.959   7.321   9.096  1.2974 -2.0765  0.6068
  942MOL0     H27124   3.758   7.391   8.971  3.6777  0.2624  0.9672
  942MOL0     H27125   3.722   7.343   9.131 -0.5996  0.9497 -0.5139
  942MOL0     H27126   3.634   7.133   9.087  1.0657  0.2385  0.1774
  942MOL0     H27127   3.710   7.145   8.919 -0.8762 -0.4099 -0.8418
  942MOL0     H27128   3.551   7.335   8.887  0.3336  0.9371  0.3253
  942MOL0     H27129   3.478   7.312   9.051 -2.9996  0.9567 -2.1922
  942MOL0     H27130   3.456   7.042   9.152 -0.1154  0.8095 -0.2294
  942MOL0     H27131   3.265   6.971   9.380  1.2780  1.6829 -1.5297
  942MOL0     H27132   3.251   6.813   9.289  0.2809 -0.5533 -0.1888
  942MOL0     H27133   3.398   6.903   9.296 -0.3861 -1.7069 -1.3587
  942MOL0     H27134   2.684   6.883   9.181  0.4219 -0.9948  0.9652
  942MOL0     H27135   2.473   6.899   9.322 -0.2235 -0.2105  0.9270
  942MOL0     H27136   2.318   6.891   9.448  1.6946 -1.3383  4.4923
  942MOL0     H27137   2.232   6.994   9.558  2.8950 -0.3225  2.7478
  942MOL0     H27138   2.214   7.176   9.380  2.4241 -0.0085  2.9823
  942MOL0     H27139   2.294   7.074   9.270  0.3311  3.4763  0.4458
  942MOL0     H27140   2.070   7.076   9.234  0.9060  0.7970  0.2873
  942MOL0     H27141   2.032   7.004   9.397  1.1378  1.2820  0.2995
  942MOL0     H27142   2.058   6.846   9.162  0.9560  0.9808 -1.7601
  942MOL0     H27143   2.223   6.860   9.212  0.7584  2.4969  2.1871
  942MOL0     H27144   1.987   6.748   9.378 -0.9909  0.1061 -2.2548
  942MOL0     H27145   2.145   6.760   9.446 -1.4712 -0.2853  0.6454
  942MOL0     H27146   2.096   6.599   9.195 -1.2666 -0.3207  0.8982
  942MOL0     H27147   2.253   6.611   9.269  1.5536  3.2805  1.8176
  942MOL0     H27148   1.991   6.504   9.391 -0.2220 -0.4555  1.1386
  942MOL0     H27149   2.137   6.528   9.481  0.4909  1.1157 -0.1582
  942MOL0     H27150   2.128   6.287   9.400 -1.1983 -1.3507 -2.2072
  942MOL0     H27151   2.254   6.364   9.304  0.8166  1.2898  0.5398
  942MOL0     H27152   2.633   7.251   9.505  0.9542 -0.9018  1.6971
  942MOL0     H27153   2.826   7.241   9.359  0.2510  1.2337  1.1154
  942MOL0     H27154   3.012   7.147   8.972 -0.2985  2.6319  2.1123
  942MOL0     H27155   3.199   7.198   8.845  0.2246  0.4759 -0.0171
  942MOL0     H27156   5.103   6.507   8.946 -0.8122  3.0199 -1.9861
  942MOL0     H27157   5.302   6.363   8.893 -0.5604 -3.6718 -1.1309
  942MOL0     H27158   5.569   6.104   8.764 -0.8738 -2.4414 -2.0695
  942MOL0     H27159   5.795   6.024   8.757  2.1153  0.8574 -1.4153
  942MOL0     H27160   6.006   6.058   8.375  1.0645 -0.3107 -0.2445
  942MOL0     H27161   6.076   6.194   8.458 -1.6074  0.2033  0.3442
  942MOL0     H27162   6.148   5.891   8.473  0.4636 -1.1942  2.7203
  942MOL0     H27163   6.209   6.008   8.590 -1.3341  1.2100 -0.0513
  942MOL0     H27164   6.376   5.959   8.398 -1.1929  0.3116  0.4103
  942MOL0     H27165   6.324   6.127   8.402  3.7672 -1.0482  1.0424
  942MOL0     H27166   6.165   6.074   8.209 -1.4725  0.8638  0.5137
  942MOL0     H27167   6.200   5.901   8.243  0.5578  0.2804  0.8948
  942MOL0     H27168   6.561   6.027   8.043  0.6556 -0.3649  0.2083
  942MOL0     H27169   5.873   6.282   8.425 -1.4348 -1.7226 -1.0334
  942MOL0     H27170   5.650   6.353   8.427  1.2265 -1.3188 -1.6746
  943MOL0     O27171   9.710   9.308   6.883 -0.2123 -0.5170  0.0340
  943MOL0     C27172   9.782   9.394   6.833  0.4536  0.0834  0.5766
  943MOL0     O27173   9.745   9.477   6.730  0.3424  0.1285  1.1105
  943MOL0     C27174   9.616   9.478   6.685 -0.8234 -0.7410 -0.4897
  943MOL0     C27175   9.503   9.455   6.761 -0.3016  0.3898 -0.0817
  943MOL0     C27176   9.375   9.478   6.708 -1.3052  0.6337 -0.4874
  943MOL0     C27177   9.364   9.540   6.578  0.2491  0.0777  0.0092
  943MOL0     O27178   9.244   9.564   6.520  0.8773  0.1036 -0.1253
  943MOL0     C27179   9.125   9.552   6.598  0.5020  0.9693  0.6514
  943MOL0     C27180   9.025   9.633   6.521 -0.1541 -1.2659 -0.2315
  943MOL0     C27181   9.046   9.788   6.542  0.8750 -0.0574  0.8874
  943MOL0     C27182   8.941   9.884   6.484 -0.4429  0.1925  0.5824
  943MOL0     C27183   8.906   9.863   6.330  0.5033  0.1005  0.6561
  943MOL0     C27184   8.781   9.940   6.282  0.7761 -0.6878 -0.0617
  943MOL0     C27185   8.792  10.094   6.285  0.5982 -0.4852  0.5763
  943MOL0     C27186   8.657  10.159   6.292  0.4115  0.8057 -0.4557
  943MOL0     N27187   8.586  10.123   6.412  0.0958 -0.1432 -0.1609
  943MOL0     C27188   8.622  10.159   6.541  0.2902  0.1757 -0.6286
  943MOL0     C27189   8.515  10.132   6.625 -0.2718  0.4147  0.7691
  943MOL0     C27190   8.503  10.165   6.773  0.2791  0.2217 -0.1222
  943MOL0     C27191   8.477  10.311   6.795 -0.1228  0.2958 -0.2450
  943MOL0     C27192   8.342  10.356   6.743 -0.1291 -0.3429  0.2157
  943MOL0     C27193   8.213  10.276   6.763  0.8796 -0.2206 -0.0539
  943MOL0     O27194   8.102  10.355   6.721 -0.4308 -0.2972  0.1517
  943MOL0     C27195   7.980  10.335   6.770 -0.4965  0.6423 -1.0251
  943MOL0     C27196   7.942  10.238   6.876 -0.0578 -0.1679  0.6551
  943MOL0     C27197   7.811  10.229   6.918 -0.0135 -0.0817  0.3322
  943MOL0     C27198   7.786  10.132   7.030 -0.1726 -0.3548 -1.0976
  943MOL0     C27199   7.713  10.299   6.846 -0.2321 -0.9632 -1.2037
  943MOL0     C27200   7.565  10.301   6.887 -0.2548 -0.8088  0.0977
  943MOL0     O27201   7.536  10.258   7.013 -0.4480  0.1399  0.9002
  943MOL0     C27202   7.406  10.247   7.052  0.2055 -0.7363  0.2771
  943MOL0     C27203   7.305  10.175   6.989  0.2065 -0.6175 -0.0870
  943MOL0     C27204   7.176  10.176   7.029 -0.0656 -1.2786 -0.0721
  943MOL0     C27205   7.137  10.265   7.129 -0.9075  0.1908  0.3450
  943MOL0     O27206   7.008  10.281   7.164  0.2593  0.2673  0.1476
  943MOL0     C27207   6.939  10.158   7.198 -0.4955 -0.0976 -0.1584
  943MOL0     C27208   6.791  10.190   7.215  0.0048  0.1237  0.1807
  943MOL0     C27209   6.688  10.076   7.229  0.2999 -0.7456 -0.3365
  943MOL0     C27210   6.661  10.008   7.101  1.3349  0.8456  0.4887
  943MOL0     C27211   6.581   9.878   7.129 -0.0408 -0.4944  0.7769
  943MOL0     C27212   6.433   9.913   7.163  0.2182 -0.3236 -1.0943
  943MOL0     C27213   6.356   9.785   7.172 -0.0656  0.8915  0.4033
  943MOL0     C27214   6.243   9.824   7.265  0.1688  1.3261 -0.1853
  943MOL0    Cl27215   6.115   9.706   7.260 -0.1037 -0.1739 -0.5596
  943MOL0     C27216   7.240  10.329   7.202 -0.4470  1.0839 -0.5889
  943MOL0     C27217   7.374  10.322   7.166  1.0723 -0.5204  0.7049
  943MOL0     O27218   7.478  10.335   6.801 -0.1754  0.4961  0.0931
  943MOL0     C27219   7.748  10.380   6.743  0.5458  0.5658 -0.9299
  943MOL0     C27220   7.876  10.392   6.703  0.0039 -0.0098  0.0069
  943MOL0     N27221   8.419  10.070   6.544 -0.3917 -0.2610 -0.1395
  943MOL0     N27222   8.459  10.059   6.419 -0.4498  0.2589 -0.3287
  943MOL0     C27223   9.477   9.577   6.513 -0.1910 -0.4094 -0.0071
  943MOL0     C27224   9.600   9.544   6.568 -0.4254 -0.1248  0.6294
  943MOL0     C27225   9.919   9.408   6.875  0.3101 -0.3790  0.2128
  943MOL0     C27226  10.004   9.512   6.831  0.1143 -0.3334 -0.1922
  943MOL0     C27227  10.139   9.517   6.864  0.7257  0.4691 -1.2455
  943MOL0     C27228  10.196   9.418   6.946  0.1653  0.4031 -0.3983
  943MOL0     O27229  10.332   9.408   6.964 -0.8702 -0.2095  0.9323
  943MOL0     C27230  10.393   9.386   7.090  0.2853  0.0063  0.5612
  943MOL0     C27231  10.544   9.425   7.100 -0.0765  0.2960  0.4647
  943MOL0     C27232  10.580   9.581   7.093 -1.3595 -0.0276  0.3898
  943MOL0     C27233  10.706   9.609   7.160 -0.8661  0.1667  0.3762
  943MOL0     C27234  10.745   9.747   7.118  0.5397  0.5188 -0.0882
  943MOL0     C27235  10.780   9.860   7.076 -0.7440  0.0042 -0.2521
  943MOL0     C27236  10.112   9.314   6.992 -0.1741 -1.3217 -0.6915
  943MOL0     C27237   9.979   9.318   6.968  0.1381 -0.0268  0.3619
  943MOL0     H27238   9.512   9.421   6.864 -2.2719  0.9762  0.3137
  943MOL0     H27239   9.295   9.450   6.776  1.7388 -3.1675  1.9423
  943MOL0     H27240   9.089   9.449   6.602  2.0410  0.4298  1.7031
  943MOL0     H27241   9.132   9.588   6.701 -0.8529  0.4790  0.9377
  943MOL0     H27242   9.037   9.616   6.414 -1.2053 -0.3472 -0.5082
  943MOL0     H27243   8.925   9.601   6.552 -0.2378 -1.4930 -0.7300
  943MOL0     H27244   9.053   9.813   6.648 -4.4517 -0.5632  1.6521
  943MOL0     H27245   9.142   9.817   6.498  0.4785  0.3292  0.2621
  943MOL0     H27246   8.842   9.876   6.529 -0.1719 -2.1300  0.8965
  943MOL0     H27247   8.982   9.981   6.511  1.4652 -0.3417 -0.2154
  943MOL0     H27248   8.991   9.899   6.271 -0.5982  1.0945 -0.3568
  943MOL0     H27249   8.884   9.756   6.327  0.1290  0.1064  2.1188
  943MOL0     H27250   8.750   9.916   6.179  2.1690  0.6255 -0.8356
  943MOL0     H27251   8.704   9.900   6.349  0.6289  0.7127  0.6276
  943MOL0     H27252   8.848  10.122   6.375  1.2214 -3.7261  1.3074
  943MOL0     H27253   8.824  10.138   6.190 -2.6882 -2.5509 -1.7205
  943MOL0     H27254   8.596  10.132   6.205  3.1433  1.7868 -2.8292
  943MOL0     H27255   8.655  10.268   6.283 -2.8628  1.1056  1.8422
  943MOL0     H27256   8.718  10.199   6.569 -0.2115 -0.6649  2.6925
  943MOL0     H27257   8.427  10.108   6.827  2.4401  1.3110  4.6578
  943MOL0     H27258   8.590  10.132   6.830 -0.2077 -1.1094 -0.1330
  943MOL0     H27259   8.557  10.372   6.752 -1.1797 -0.0237 -2.8788
  943MOL0     H27260   8.477  10.329   6.903 -1.9541 -0.2895 -0.1083
  943MOL0     H27261   8.359  10.363   6.636 -2.2208  1.5176 -0.0770
  943MOL0     H27262   8.320  10.457   6.778  1.0496 -0.0811  0.2166
  943MOL0     H27263   8.206  10.253   6.870  3.2863  0.1878  0.2520
  943MOL0     H27264   8.218  10.178   6.715 -0.2769 -1.3271  1.9820
  943MOL0     H27265   8.016  10.169   6.917  1.1285  1.6141  1.6204
  943MOL0     H27266   7.765  10.193   7.118 -1.1505 -3.0782  0.6828
  943MOL0     H27267   7.692  10.076   7.027  0.4349 -1.8924  2.6524
  943MOL0     H27268   7.865  10.062   7.060 -0.2550  0.3757  0.9900
  943MOL0     H27269   7.329  10.110   6.905  0.1797 -0.0836 -0.5133
  943MOL0     H27270   7.103  10.121   6.971  1.3789 -1.3077 -1.9082
  943MOL0     H27271   6.957  10.077   7.127  5.3119  0.0992  0.6308
  943MOL0     H27272   6.970  10.124   7.297  0.4725 -2.8871 -1.3121
  943MOL0     H27273   6.775  10.260   7.297 -0.0399  1.3536 -0.8539
  943MOL0     H27274   6.756  10.252   7.132  0.2548  0.8556  0.6145
  943MOL0     H27275   6.591  10.107   7.269  0.2807 -0.4299 -0.6235
  943MOL0     H27276   6.732  10.004   7.297 -1.0734  0.6957  2.2399
  943MOL0     H27277   6.592  10.064   7.036 -1.3813 -0.8319  1.7765
  943MOL0     H27278   6.748   9.990   7.038 -0.7295 -1.3734 -1.9502
  943MOL0     H27279   6.626   9.812   7.204  1.7485  1.2638  1.3224
  943MOL0     H27280   6.578   9.830   7.031  0.2603  1.3950 -0.2173
  943MOL0     H27281   6.429   9.955   7.264 -2.1330 -2.1455 -0.3537
  943MOL0     H27282   6.383   9.986   7.098 -1.8326  0.0064  0.7652
  943MOL0     H27283   6.412   9.698   7.208 -1.6093 -1.7036 -2.8652
  943MOL0     H27284   6.315   9.776   7.070 -2.6977 -2.0936  1.5362
  943MOL0     H27285   6.205   9.921   7.231 -1.1663  0.8926  0.0050
  943MOL0     H27286   6.275   9.834   7.369  1.0741  1.5965 -0.4774
  943MOL0     H27287   7.219  10.389   7.289  2.2026  2.0997 -0.5772
  943MOL0     H27288   7.445  10.374   7.230  1.0429 -1.5523  1.5883
  943MOL0     H27289   7.682  10.450   6.693  0.3142  1.9721  1.2044
  943MOL0     H27290   7.900  10.463   6.624  0.3797 -0.3890 -0.2220
  943MOL0     H27291   9.469   9.618   6.413 -1.2286  0.8977  0.5836
  943MOL0     H27292   9.689   9.572   6.513 -1.2878  2.1097  0.2894
  943MOL0     H27293   9.954   9.586   6.769  1.3476  0.6299 -0.0889
  943MOL0     H27294  10.214   9.593   6.843  1.2877  0.6987  1.3391
  943MOL0     H27295  10.335   9.421   7.176  1.1036 -0.9665  1.5294
  943MOL0     H27296  10.390   9.278   7.105 -1.0354  0.0056  0.4104
  943MOL0     H27297  10.605   9.369   7.028  4.8686  1.6464  3.1847
  943MOL0     H27298  10.575   9.392   7.199  0.5690 -1.6289 -0.3243
  943MOL0     H27299  10.497   9.634   7.140 -2.9986  0.3858 -2.7469
  943MOL0     H27300  10.582   9.617   6.990 -1.5297  2.1541  1.1032
  943MOL0     H27301  10.780   9.531   7.140 -1.9436 -1.1096  1.1842
  943MOL0     H27302  10.682   9.619   7.266 -1.2570 -0.4432  0.3462
  943MOL0     H27303  10.801   9.963   7.053  0.2674 -0.2770 -0.6223
  943MOL0     H27304  10.148   9.232   7.054  0.8220 -1.7906 -1.8505
  943MOL0     H27305   9.909   9.238   6.989 -1.5314  0.5587 -2.4560
  944MOL0     O27306   6.839  10.815   0.380 -0.4036  0.2067  0.4495
  944MOL0     C27307   6.904  10.752   0.293  0.0489 -0.1270  1.0659
  944MOL0     O27308   6.850  10.710   0.170 -0.1112 -0.3980 -0.3669
  944MOL0     C27309   6.713  10.701   0.150 -0.3577  0.1372  0.7518
  944MOL0     C27310   6.616  10.706   0.248  1.0902 -0.0662 -1.1492
  944MOL0     C27311   6.483  10.687   0.206  0.3326 -0.1797 -0.5168
  944MOL0     C27312   6.446  10.663   0.072  0.3888  0.4572 -0.4577
  944MOL0     O27313   6.317  10.638   0.031  0.2768  0.0269 -0.5760
  944MOL0     C27314   6.205  10.623   0.121  0.3240 -0.3799  0.0392
  944MOL0     C27315   6.095  10.542   0.049  0.7248  0.2131  0.1046
  944MOL0     C27316   6.022  10.597  -0.075  0.0850 -0.8914  0.0777
  944MOL0     C27317   5.983  10.746  -0.069  0.0245  0.6242  0.3709
  944MOL0     C27318   5.918  10.784  -0.211  0.6363 -0.1892 -0.2803
  944MOL0     C27319   5.883  10.933  -0.236  0.2279  0.8434  0.2101
  944MOL0     C27320   5.780  10.992  -0.137 -0.3574  0.0707  0.0006
  944MOL0     C27321   5.832  11.043   0.001 -0.5036  0.7114  0.0856
  944MOL0     N27322   5.724  11.079   0.083  0.2246 -0.1335 -0.3027
  944MOL0     C27323   5.637  11.186   0.059  0.2598 -0.1664  0.0867
  944MOL0     C27324   5.552  11.189   0.163 -1.0107 -0.7013 -0.0589
  944MOL0     C27325   5.441  11.294   0.184  0.2348  0.0426 -0.1478
  944MOL0     C27326   5.416  11.315   0.333 -0.1848  0.2439 -0.7108
  944MOL0     C27327   5.333  11.431   0.372 -0.0388  0.8079  0.3526
  944MOL0     C27328   5.304  11.432   0.519  0.4162 -0.9759  0.0983
  944MOL0     O27329   5.227  11.543   0.565 -0.0093  0.1849 -0.4547
  944MOL0     C27330   5.100  11.556   0.523  0.7343  0.3693 -0.6377
  944MOL0     C27331   5.044  11.681   0.536  0.3372 -0.8290  0.8928
  944MOL0     C27332   4.909  11.701   0.496  0.1094  0.6533 -0.4218
  944MOL0     C27333   4.853  11.839   0.516  0.8701  0.8769  0.3053
  944MOL0     C27334   4.832  11.599   0.436  0.5197 -0.0337  0.4166
  944MOL0     C27335   4.695  11.607   0.383 -0.2662  0.1454 -1.0109
  944MOL0     O27336   4.637  11.487   0.333  0.6872 -0.5647  0.2553
  944MOL0     C27337   4.531  11.500   0.254  0.6030 -0.1254 -0.1732
  944MOL0     C27338   4.527  11.567   0.131  0.0124  0.5559  0.1773
  944MOL0     C27339   4.405  11.578   0.058  0.2416 -0.1848 -0.0876
  944MOL0     C27340   4.289  11.523   0.107 -0.3516 -0.1218  0.4409
  944MOL0     O27341   4.169  11.531   0.040  0.3235  0.1930 -0.0105
  944MOL0     C27342   4.172  11.538  -0.103  0.1108 -0.8136  0.1382
  944MOL0     C27343   4.047  11.493  -0.162 -0.1214  0.1242 -0.3607
  944MOL0     C27344   4.070  11.446  -0.304 -0.3530  0.8247  0.6244
  944MOL0     C27345   3.943  11.390  -0.374  0.0087  0.7006  0.1571
  944MOL0     C27346   3.975  11.339  -0.514 -0.3512 -0.4934 -0.4737
  944MOL0     C27347   3.854  11.251  -0.555 -0.1329  0.3276 -0.5490
  944MOL0     C27348   3.898  11.169  -0.680 -0.0990  0.3237  0.6210
  944MOL0     C27349   3.810  11.053  -0.723 -0.1457 -0.2735 -0.1269
  944MOL0    Cl27350   3.632  11.087  -0.720 -0.2846 -0.1049  0.3000
  944MOL0     C27351   4.300  11.458   0.236 -1.3559 -0.4331  0.2949
  944MOL0     C27352   4.416  11.443   0.307  0.4395  0.0308 -0.1563
  944MOL0     O27353   4.636  11.713   0.383  0.7169 -0.0558  0.0429
  944MOL0     C27354   4.892  11.482   0.409 -0.0933  0.4440 -0.8454
  944MOL0     C27355   5.023  11.451   0.461  0.2117  0.2209  0.1422
  944MOL0     N27356   5.587  11.089   0.247 -0.7651 -0.1226  0.0681
  944MOL0     N27357   5.687  11.022   0.204 -0.0229 -0.2472 -1.0072
  944MOL0     C27358   6.546  10.667  -0.026  0.7935 -0.4429 -0.0181
  944MOL0     C27359   6.675  10.688   0.018 -0.3443  0.5361 -0.1681
  944MOL0     C27360   7.047  10.727   0.310 -0.3281 -0.6557  0.1644
  944MOL0     C27361   7.130  10.666   0.214 -0.5800  0.5821  0.2079
  944MOL0     C27362   7.269  10.644   0.241 -0.0215 -0.4286 -0.8909
  944MOL0     C27363   7.327  10.693   0.355 -0.3019  0.3130 -0.7819
  944MOL0     O27364   7.457  10.689   0.397 -0.0231  0.4996 -0.5623
  944MOL0     C27365   7.557  10.603   0.328 -0.6353  0.3313 -0.3827
  944MOL0     C27366   7.700  10.652   0.359  0.0828 -0.1790  0.5005
  944MOL0     C27367   7.737  10.619   0.497 -0.3605  0.4981  0.0519
  944MOL0     C27368   7.890  10.642   0.526 -0.0247  0.1064  0.1831
  944MOL0     C27369   7.944  10.592   0.650  0.4064  0.1125 -0.7405
  944MOL0     C27370   7.966  10.546   0.761 -0.3214 -0.4196  0.4194
  944MOL0     C27371   7.247  10.756   0.451 -0.1150 -0.6594  0.6496
  944MOL0     C27372   7.109  10.774   0.431  0.4736  0.0530  0.0788
  944MOL0     H27373   6.629  10.718   0.355  0.2438  0.6465 -1.1165
  944MOL0     H27374   6.412  10.693   0.288 -0.5272 -2.4467 -1.0271
  944MOL0     H27375   6.236  10.565   0.208 -1.0495 -0.3500  0.5715
  944MOL0     H27376   6.160  10.712   0.166  1.5702 -0.4741  1.5658
  944MOL0     H27377   6.140  10.446   0.026  2.5871  0.7133  1.3921
  944MOL0     H27378   6.015  10.526   0.122  1.5549 -4.3754  0.2692
  944MOL0     H27379   6.096  10.577  -0.153  2.4944  1.6112  1.5505
  944MOL0     H27380   5.934  10.534  -0.092 -1.5861  0.9143  1.5168
  944MOL0     H27381   5.916  10.765   0.016  0.3963  1.0456  0.5780
  944MOL0     H27382   6.077  10.800  -0.050  2.0526 -1.5017 -2.6688
  944MOL0     H27383   5.988  10.750  -0.288 -1.0326 -0.9733 -1.5140
  944MOL0     H27384   5.821  10.742  -0.241 -0.0562  2.9241 -2.9487
  944MOL0     H27385   5.976  10.991  -0.232  2.3540 -2.3682  1.4399
  944MOL0     H27386   5.842  10.934  -0.337 -0.4987 -1.2344  0.4473
  944MOL0     H27387   5.735  11.074  -0.193  1.2811  1.5609  0.7869
  944MOL0     H27388   5.705  10.913  -0.135 -0.1943 -0.0798  0.1968
  944MOL0     H27389   5.894  11.132  -0.015  0.0473  0.0332 -1.8830
  944MOL0     H27390   5.897  10.965   0.044 -1.9205 -1.1804 -1.0522
  944MOL0     H27391   5.639  11.244  -0.033  3.2166 -1.7720 -1.0243
  944MOL0     H27392   5.465  11.396   0.153  0.4070  0.2304  0.5711
  944MOL0     H27393   5.354  11.255   0.131  2.4761 -2.6238 -2.1784
  944MOL0     H27394   5.505  11.320   0.396 -0.0564  1.1599 -0.9399
  944MOL0     H27395   5.362  11.226   0.366 -2.3213  2.2260  1.6821
  944MOL0     H27396   5.238  11.437   0.317 -0.7910 -0.1414  1.5161
  944MOL0     H27397   5.380  11.527   0.346 -0.9354  0.8032 -1.5279
  944MOL0     H27398   5.403  11.428   0.565  2.0907 -0.2585 -3.1089
  944MOL0     H27399   5.253  11.340   0.546  1.5917 -1.7833 -0.3243
  944MOL0     H27400   5.097  11.764   0.581 -2.9920  3.0108 -1.4961
  944MOL0     H27401   4.755  11.831   0.562  0.3441  3.6299 -0.1621
  944MOL0     H27402   4.909  11.905   0.584 -0.8475  3.2186 -0.4150
  944MOL0     H27403   4.851  11.889   0.418 -0.9263  0.3645  0.0577
  944MOL0     H27404   4.622  11.598   0.089  0.7450  0.4001  1.6400
  944MOL0     H27405   4.407  11.629  -0.038  4.2003  2.0881  0.9625
  944MOL0     H27406   4.196  11.637  -0.144 -2.1601 -0.7894 -1.3559
  944MOL0     H27407   4.254  11.477  -0.142 -1.4510 -1.5623 -2.2643
  944MOL0     H27408   3.986  11.428  -0.099  0.1483  0.9495  0.7892
  944MOL0     H27409   3.979  11.578  -0.152 -1.6723 -1.3128  3.0230
  944MOL0     H27410   4.144  11.366  -0.318 -1.6194  0.1212 -3.3283
  944MOL0     H27411   4.098  11.529  -0.369 -0.0939 -0.6821 -1.2816
  944MOL0     H27412   3.912  11.304  -0.314 -1.5650  0.2357 -1.2432
  944MOL0     H27413   3.861  11.462  -0.379  0.2406  0.9742  0.2744
  944MOL0     H27414   4.068  11.282  -0.510 -1.0448 -1.8218 -2.0775
  944MOL0     H27415   3.990  11.423  -0.582 -1.3347  0.2083  0.1386
  944MOL0     H27416   3.829  11.175  -0.480  0.6402  1.4235  0.8714
  944MOL0     H27417   3.766  11.311  -0.578 -0.4668  0.9416  2.0893
  944MOL0     H27418   3.996  11.129  -0.654 -1.1434 -3.1341 -0.2890
  944MOL0     H27419   3.901  11.243  -0.761 -0.8022  0.3949  0.6531
  944MOL0     H27420   3.827  10.974  -0.650  2.4138 -1.8157 -2.2049
  944MOL0     H27421   3.845  11.002  -0.814 -2.0224 -1.9452  0.0300
  944MOL0     H27422   4.209  11.407   0.267 -1.7049  1.1453  2.0542
  944MOL0     H27423   4.427  11.380   0.395 -1.9546  1.2694  1.1320
  944MOL0     H27424   4.839  11.401   0.361  0.8927 -1.7404  1.5403
  944MOL0     H27425   5.057  11.349   0.447 -0.4164  0.1515 -1.0127
  944MOL0     H27426   6.511  10.658  -0.128 -1.9154  1.4052  0.6626
  944MOL0     H27427   6.751  10.696  -0.059 -0.5085  1.9270 -0.2115
  944MOL0     H27428   7.098  10.624   0.119  0.7000 -4.1934  1.6214
  944MOL0     H27429   7.331  10.588   0.172  2.8401  0.5649  0.7317
  944MOL0     H27430   7.541  10.498   0.350  0.8779  0.4010  1.2107
  944MOL0     H27431   7.545  10.618   0.220  1.7388  3.2861 -0.3839
  944MOL0     H27432   7.709  10.761   0.360  1.1902 -0.1824 -1.8603
  944MOL0     H27433   7.768  10.613   0.282 -1.3367  0.6279 -1.2446
  944MOL0     H27434   7.711  10.514   0.515  3.1747 -0.7691 -1.4245
  944MOL0     H27435   7.681  10.680   0.569 -0.5402  3.3686 -2.3461
  944MOL0     H27436   7.911  10.749   0.513 -3.1866  0.6521 -1.4729
  944MOL0     H27437   7.951  10.587   0.454  2.1239  2.1142  0.3309
  944MOL0     H27438   7.994  10.498   0.852  1.9044  1.2601  0.7239
  944MOL0     H27439   7.307  10.790   0.534 -0.5518  1.7835  0.0355
  944MOL0     H27440   7.043  10.807   0.510 -3.1363 -4.4509 -0.6524
  945MOL0     O27441   7.268   3.822   5.506 -0.6916  0.4995 -0.0487
  945MOL0     C27442   7.235   3.740   5.589  0.8028  0.8706  0.4084
  945MOL0     O27443   7.116   3.734   5.660 -0.3317  0.6784  0.1726
  945MOL0     C27444   6.999   3.788   5.625  0.0824 -0.4754  0.6616
  945MOL0     C27445   6.897   3.773   5.711  0.6154  0.7792 -0.3761
  945MOL0     C27446   6.773   3.837   5.689  0.4469  0.3709  0.6628
  945MOL0     C27447   6.747   3.915   5.573  0.2569 -0.2728  0.2283
  945MOL0     O27448   6.626   3.981   5.555 -0.4023 -0.5283 -0.0028
  945MOL0     C27449   6.539   3.997   5.672  0.5503 -0.3423  0.5529
  945MOL0     C27450   6.412   4.082   5.642 -0.8525 -0.2901 -0.1501
  945MOL0     C27451   6.336   4.103   5.776 -0.6699 -0.4137  0.6556
  945MOL0     C27452   6.231   4.204   5.763  0.1761  0.0688  0.8591
  945MOL0     C27453   6.187   4.271   5.886  0.7916 -0.3760 -0.2591
  945MOL0     C27454   6.262   4.407   5.904 -0.1813 -0.3480 -0.3692
  945MOL0     C27455   6.229   4.471   6.047 -0.3769 -0.7530  0.4322
  945MOL0     C27456   6.300   4.390   6.153  1.2045 -0.5423  1.0470
  945MOL0     N27457   6.235   4.410   6.289  0.4426 -0.0898  0.5466
  945MOL0     C27458   6.103   4.409   6.314 -0.1533  0.8027  0.6565
  945MOL0     C27459   6.091   4.391   6.447  0.0782  0.5741 -0.7156
  945MOL0     C27460   5.955   4.377   6.506  0.6235 -0.1681  0.1052
  945MOL0     C27461   5.908   4.221   6.518 -0.2857 -0.1760  0.8003
  945MOL0     C27462   5.986   4.156   6.638 -0.0806  0.4754 -0.8810
  945MOL0     C27463   5.905   4.036   6.666 -0.2314  0.6428 -0.2614
  945MOL0     O27464   5.777   4.063   6.725 -0.5208 -0.5373 -0.6286
  945MOL0     C27465   5.687   3.969   6.734  1.4328 -0.0391  0.2416
  945MOL0     C27466   5.585   3.999   6.821 -1.0760 -0.9289 -0.1358
  945MOL0     C27467   5.482   3.903   6.834 -0.9652 -0.0257 -0.4948
  945MOL0     C27468   5.362   3.949   6.920  0.6294 -0.1498  0.3516
  945MOL0     C27469   5.485   3.785   6.758 -0.6089 -0.0847 -0.5964
  945MOL0     C27470   5.370   3.704   6.767  1.1799  0.2490 -0.3048
  945MOL0     O27471   5.364   3.609   6.861  0.4110  0.0188 -0.2287
  945MOL0     C27472   5.234   3.557   6.878 -0.9915  1.2504  0.2639
  945MOL0     C27473   5.153   3.607   6.968  0.3353 -0.6268  0.4597
  945MOL0     C27474   5.021   3.555   7.001  0.6214 -0.3290  0.3418
  945MOL0     C27475   4.979   3.439   6.934  0.6101  0.3446 -0.3978
  945MOL0     O27476   4.857   3.372   6.965 -0.1209 -0.0385  0.3794
  945MOL0     C27477   4.801   3.272   6.873 -0.1905  0.3355  0.4011
  945MOL0     C27478   4.653   3.231   6.915 -0.0879 -0.5315  0.6982
  945MOL0     C27479   4.595   3.129   6.816  0.0825  0.1662  0.0043
  945MOL0     C27480   4.466   3.058   6.873 -0.7320 -0.0862  0.1049
  945MOL0     C27481   4.428   2.942   6.775  0.6592 -0.0754  0.1336
  945MOL0     C27482   4.351   2.832   6.841 -1.1262 -0.6221 -0.4240
  945MOL0     C27483   4.213   2.870   6.882  0.5870 -0.1757  0.1923
  945MOL0     C27484   4.119   2.765   6.931  0.9917  0.4276  0.0426
  945MOL0    Cl27485   3.975   2.844   6.979  0.3489 -0.1039 -0.3516
  945MOL0     C27486   5.060   3.396   6.825  0.1900 -0.9026  0.3856
  945MOL0     C27487   5.181   3.459   6.798  0.1757 -0.4721  0.2357
  945MOL0     O27488   5.271   3.738   6.696  0.3374 -0.2673  0.0872
  945MOL0     C27489   5.588   3.756   6.673 -0.0318 -0.5688  0.0697
  945MOL0     C27490   5.700   3.841   6.678 -0.0223  0.5981  0.4040
  945MOL0     N27491   6.213   4.392   6.511  0.1530 -1.1915  0.4779
  945MOL0     N27492   6.296   4.403   6.405 -0.3693  0.3073  0.7421
  945MOL0     C27493   6.843   3.922   5.479 -1.0426 -0.0359  0.4498
  945MOL0     C27494   6.969   3.864   5.501  0.2567 -0.2776 -0.2203
  945MOL0     C27495   7.337   3.638   5.607 -0.2845  0.6549  0.3434
  945MOL0     C27496   7.463   3.648   5.533  0.2968  0.6261 -0.0224
  945MOL0     C27497   7.570   3.560   5.571 -0.0010 -0.9293  0.0218
  945MOL0     C27498   7.550   3.455   5.662  0.7728 -1.8197 -0.4474
  945MOL0     O27499   7.656   3.378   5.697  0.1543 -0.1466 -0.1370
  945MOL0     C27500   7.636   3.237   5.684 -0.0857  1.3940  0.9285
  945MOL0     C27501   7.632   3.190   5.544  0.0211 -0.1614  1.0554
  945MOL0     C27502   7.641   3.031   5.538  0.2769  0.3485  0.7420
  945MOL0     C27503   7.613   2.963   5.400 -0.1462  0.3712  0.8137
  945MOL0     C27504   7.473   2.930   5.383 -0.1378  0.4004 -0.3553
  945MOL0     C27505   7.368   2.876   5.358  0.5615  0.2920  0.1664
  945MOL0     C27506   7.423   3.444   5.723 -0.3561 -0.6558  0.1866
  945MOL0     C27507   7.319   3.533   5.697  0.3894  0.2685 -0.0417
  945MOL0     H27508   6.906   3.714   5.802 -1.0853  3.2653  1.5388
  945MOL0     H27509   6.694   3.822   5.762 -1.0299 -2.5485 -1.3229
  945MOL0     H27510   6.509   3.897   5.704 -0.4864  0.6524  2.8984
  945MOL0     H27511   6.580   4.044   5.762  1.1613  0.2431 -0.0186
  945MOL0     H27512   6.447   4.181   5.609  0.2524  0.4390  2.8364
  945MOL0     H27513   6.357   4.036   5.560 -1.7633 -0.4050  0.5067
  945MOL0     H27514   6.291   4.010   5.811  0.6575 -1.4885 -0.3710
  945MOL0     H27515   6.405   4.148   5.848 -1.3511 -1.0446  1.7271
  945MOL0     H27516   6.246   4.277   5.684  0.2453 -0.2489  0.5762
  945MOL0     H27517   6.150   4.150   5.714  1.5846 -2.0062  0.6912
  945MOL0     H27518   6.080   4.294   5.882  0.1901 -2.8227 -0.0074
  945MOL0     H27519   6.192   4.195   5.965 -2.2557 -1.7966 -1.2618
  945MOL0     H27520   6.368   4.394   5.882 -0.1375  1.7016 -1.5533
  945MOL0     H27521   6.230   4.481   5.830  0.7007  1.1708  0.6987
  945MOL0     H27522   6.261   4.575   6.055 -1.4065 -0.4924  1.5103
  945MOL0     H27523   6.120   4.466   6.057 -0.2505 -1.8335  1.4759
  945MOL0     H27524   6.400   4.434   6.163  0.2541  1.9400  0.2731
  945MOL0     H27525   6.314   4.283   6.133  1.6466 -0.8340  2.7088
  945MOL0     H27526   6.023   4.405   6.241  0.0068 -1.8355  0.5258
  945MOL0     H27527   5.940   4.427   6.602 -2.8878 -1.6584  0.4840
  945MOL0     H27528   5.887   4.433   6.442  1.9872 -0.8367 -2.0719
  945MOL0     H27529   5.925   4.161   6.427 -2.2138 -0.8981  0.8806
  945MOL0     H27530   5.805   4.232   6.551  0.0177 -1.3486  2.2582
  945MOL0     H27531   5.971   4.212   6.731 -0.4878 -1.0405  0.0017
  945MOL0     H27532   6.094   4.152   6.621  0.4731  0.9518  2.0192
  945MOL0     H27533   5.955   3.976   6.744 -1.4088 -1.0936 -0.7756
  945MOL0     H27534   5.896   3.986   6.569 -0.4819 -0.7418  0.4375
  945MOL0     H27535   5.583   4.093   6.874  0.6788  0.2634 -2.0318
  945MOL0     H27536   5.268   3.939   6.865  0.9103  1.4214 -0.4760
  945MOL0     H27537   5.353   3.887   7.010 -1.8337 -2.9010 -1.6000
  945MOL0     H27538   5.377   4.055   6.939  2.7129 -0.1001 -1.1667
  945MOL0     H27539   5.191   3.691   7.026 -1.7439 -1.0491  2.5817
  945MOL0     H27540   4.956   3.601   7.074 -1.0845 -0.8083 -0.8162
  945MOL0     H27541   4.802   3.318   6.774  2.6348  1.3238  0.8131
  945MOL0     H27542   4.868   3.186   6.872 -1.3530 -0.6510  1.9979
  945MOL0     H27543   4.645   3.196   7.019 -1.5542  3.1140  1.9980
  945MOL0     H27544   4.591   3.320   6.903  1.9841  0.6121 -3.3361
  945MOL0     H27545   4.666   3.047   6.805  1.1499  0.6543  2.4977
  945MOL0     H27546   4.576   3.188   6.726  0.6650  0.5769  0.1399
  945MOL0     H27547   4.497   3.031   6.974  1.0079  3.0092  0.5364
  945MOL0     H27548   4.385   3.128   6.892  0.1912  0.9316  0.4099
  945MOL0     H27549   4.516   2.893   6.733  0.7634 -0.6992  1.0419
  945MOL0     H27550   4.375   2.990   6.692  0.8256 -0.2082 -0.0515
  945MOL0     H27551   4.352   2.744   6.775  0.8515 -0.0225 -1.2812
  945MOL0     H27552   4.410   2.806   6.929 -0.4838 -0.3293 -0.7587
  945MOL0     H27553   4.163   2.928   6.804 -2.4662 -2.5434  0.2217
  945MOL0     H27554   4.216   2.938   6.968 -4.0336  2.2585 -1.2452
  945MOL0     H27555   4.160   2.705   7.013 -1.0232  0.0472  0.8130
  945MOL0     H27556   4.083   2.692   6.858 -2.3750 -0.2771  2.2205
  945MOL0     H27557   5.039   3.313   6.757 -3.0659  0.0818  0.0295
  945MOL0     H27558   5.253   3.422   6.727 -0.1418  0.0602 -0.3799
  945MOL0     H27559   5.597   3.660   6.622 -0.6812 -1.7325  2.0244
  945MOL0     H27560   5.790   3.815   6.623 -0.4077  1.1485 -0.5173
  945MOL0     H27561   6.830   3.981   5.389  1.1281 -2.1501 -1.3547
  945MOL0     H27562   7.035   3.871   5.415  2.3150  3.5953  1.4232
  945MOL0     H27563   7.479   3.713   5.447  1.7654 -2.2799 -2.1263
  945MOL0     H27564   7.669   3.572   5.530 -0.2633 -1.1513 -0.6986
  945MOL0     H27565   7.721   3.183   5.728  0.3982 -0.2763 -1.8138
  945MOL0     H27566   7.541   3.203   5.726 -1.0786  2.8965 -0.0296
  945MOL0     H27567   7.701   3.236   5.473 -2.3849  1.5095 -0.3538
  945MOL0     H27568   7.541   3.226   5.495 -0.6971 -2.6166  0.4896
  945MOL0     H27569   7.576   2.989   5.615 -1.9667  0.8367 -0.7887
  945MOL0     H27570   7.748   3.012   5.550  0.6148 -0.0143 -2.2130
  945MOL0     H27571   7.672   2.871   5.389  0.9525  1.2101 -0.7223
  945MOL0     H27572   7.651   3.041   5.334  4.4179 -1.2707  1.1153
  945MOL0     H27573   7.278   2.817   5.356  0.7842 -0.0479 -1.9469
  945MOL0     H27574   7.414   3.371   5.804 -0.3481 -0.9634 -0.0897
  945MOL0     H27575   7.228   3.523   5.754 -1.0476  1.2172 -2.0386
  946MOL0     O27576   6.837   6.728   0.901 -0.7248 -0.1153  0.2364
  946MOL0     C27577   6.939   6.717   0.961 -0.6433  0.8516 -0.4850
  946MOL0     O27578   6.965   6.625   1.050  0.2700 -0.6842 -0.0875
  946MOL0     C27579   6.877   6.522   1.081 -0.9408  0.6081  0.6374
  946MOL0     C27580   6.753   6.544   1.140 -1.0285 -0.5313  0.1563
  946MOL0     C27581   6.665   6.438   1.155 -0.3471 -0.7749  0.1147
  946MOL0     C27582   6.719   6.309   1.131 -0.2008  0.4903 -0.3208
  946MOL0     O27583   6.631   6.223   1.181  0.5444 -0.0807  0.1984
  946MOL0     C27584   6.652   6.084   1.194 -0.0903 -1.4831  0.4292
  946MOL0     C27585   6.539   6.022   1.254 -0.9069  0.7095 -0.4013
  946MOL0     C27586   6.460   5.926   1.167 -0.4915  0.6407  0.3027
  946MOL0     C27587   6.315   5.901   1.223 -0.4345  0.4959  0.0491
  946MOL0     C27588   6.256   5.769   1.169  0.7692  0.0944 -0.4840
  946MOL0     C27589   6.268   5.741   1.018 -0.2070  0.4234 -0.0657
  946MOL0     C27590   6.261   5.589   0.992  0.3816  0.3253  0.5311
  946MOL0     C27591   6.222   5.573   0.847  1.0609  0.6158 -0.3664
  946MOL0     N27592   6.071   5.593   0.823  0.0466  0.9405 -1.0912
  946MOL0     C27593   5.983   5.504   0.758 -0.2644  0.5222 -0.0186
  946MOL0     C27594   5.863   5.559   0.772 -0.4709  0.2040 -0.5458
  946MOL0     C27595   5.744   5.500   0.715  0.1664 -0.0834 -0.1486
  946MOL0     C27596   5.681   5.420   0.818  0.3050  0.4952 -0.0331
  946MOL0     C27597   5.561   5.334   0.776 -0.6725  0.5546  0.8077
  946MOL0     C27598   5.435   5.412   0.750  0.3517 -0.2496 -0.9545
  946MOL0     O27599   5.333   5.330   0.697  0.7395 -0.1114 -0.0531
  946MOL0     C27600   5.222   5.296   0.779 -0.5902 -0.8041  0.5270
  946MOL0     C27601   5.237   5.248   0.910  0.7469  0.9247 -0.6392
  946MOL0     C27602   5.129   5.213   0.992 -0.1849 -0.0945  0.2402
  946MOL0     C27603   5.163   5.165   1.129 -0.4839  0.0425  0.1950
  946MOL0     C27604   5.001   5.231   0.946 -0.4299 -0.1367  0.3650
  946MOL0     C27605   4.879   5.192   1.027 -0.5398 -0.6151 -1.2503
  946MOL0     O27606   4.894   5.106   1.133  0.0065 -0.4562  0.5625
  946MOL0     C27607   4.790   5.094   1.215  0.4708 -0.5503 -0.0184
  946MOL0     C27608   4.762   5.196   1.302  0.8653  0.9714  0.5569
  946MOL0     C27609   4.666   5.178   1.397 -0.6648  0.1177 -0.3797
  946MOL0     C27610   4.575   5.068   1.393 -0.2502 -0.6556 -0.4769
  946MOL0     O27611   4.479   5.051   1.490  0.1329  0.1925  0.0991
  946MOL0     C27612   4.345   5.004   1.455 -0.3594 -0.0117  0.2727
  946MOL0     C27613   4.258   5.056   1.571  0.1694  0.1491  0.2847
  946MOL0     C27614   4.133   4.967   1.584  0.5077  0.1901 -0.7382
  946MOL0     C27615   4.029   5.008   1.471  0.3572 -0.4574  0.7095
  946MOL0     C27616   3.898   4.922   1.475 -0.4251  0.7792 -0.0563
  946MOL0     C27617   3.776   4.979   1.550 -0.2565  0.2913 -0.7441
  946MOL0     C27618   3.662   4.872   1.571 -0.8498 -0.0566 -0.0242
  946MOL0     C27619   3.587   4.815   1.454  0.2444 -0.0772 -0.1441
  946MOL0    Cl27620   3.503   4.952   1.357  0.3095  0.3556 -0.6418
  946MOL0     C27621   4.604   4.968   1.298  0.0585  0.4822 -0.6155
  946MOL0     C27622   4.708   4.984   1.209  0.6385  0.6136 -0.5396
  946MOL0     O27623   4.773   5.245   0.993 -0.5797 -1.0257  0.0067
  946MOL0     C27624   4.983   5.290   0.811  0.0118  0.8879  0.4367
  946MOL0     C27625   5.092   5.325   0.732  0.5068  0.7908  0.8438
  946MOL0     N27626   5.878   5.669   0.842  0.0888  0.0040  0.6147
  946MOL0     N27627   5.999   5.683   0.887 -0.0537 -0.1372  0.1201
  946MOL0     C27628   6.841   6.276   1.071 -0.1833 -0.3743  0.3693
  946MOL0     C27629   6.919   6.391   1.036  0.2319  0.2743  0.0163
  946MOL0     C27630   7.047   6.804   0.918 -0.0945 -1.1486 -0.5828
  946MOL0     C27631   7.027   6.916   0.829 -0.1038 -0.2541  0.4732
  946MOL0     C27632   7.136   6.998   0.785 -0.5583 -0.7006  0.5853
  946MOL0     C27633   7.267   6.981   0.846  0.5896 -0.4340 -0.1101
  946MOL0     O27634   7.369   7.070   0.804 -0.1075 -0.5591 -0.1467
  946MOL0     C27635   7.503   7.048   0.855  1.3973  1.0249 -0.0392
  946MOL0     C27636   7.603   7.127   0.771 -0.1854  0.4762  0.2536
  946MOL0     C27637   7.725   7.176   0.845 -0.2608 -0.6025 -0.1559
  946MOL0     C27638   7.838   7.071   0.884  0.1882 -0.0268 -0.0157
  946MOL0     C27639   7.793   6.986   0.994 -0.0510 -0.2412 -0.2974
  946MOL0     C27640   7.753   6.908   1.072  0.4656  0.5577  0.0820
  946MOL0     C27641   7.285   6.867   0.922 -0.1761  0.2759 -0.3520
  946MOL0     C27642   7.179   6.783   0.962  0.5126 -0.5832  0.2537
  946MOL0     H27643   6.725   6.648   1.153 -3.2746 -1.1208  0.4772
  946MOL0     H27644   6.574   6.448   1.213 -1.5295  0.4972 -1.8664
  946MOL0     H27645   6.665   6.053   1.090  0.3042 -1.2170  0.3978
  946MOL0     H27646   6.752   6.062   1.233  1.1346 -3.2081 -3.2454
  946MOL0     H27647   6.567   5.966   1.344  0.8313  2.9239  0.5116
  946MOL0     H27648   6.475   6.102   1.291 -0.0439  2.1024 -1.7923
  946MOL0     H27649   6.468   5.963   1.064  0.3046  0.5092  0.3100
  946MOL0     H27650   6.516   5.833   1.177 -0.8409  0.3442 -0.4112
  946MOL0     H27651   6.307   5.890   1.331 -4.2271 -2.1662 -0.3139
  946MOL0     H27652   6.250   5.986   1.198 -2.5235 -1.4164 -1.3921
  946MOL0     H27653   6.299   5.689   1.230 -1.4030  1.3169  2.9601
  946MOL0     H27654   6.147   5.770   1.179  0.8712 -0.8339  0.9998
  946MOL0     H27655   6.195   5.804   0.967  0.8907  1.9789  0.1975
  946MOL0     H27656   6.362   5.781   0.977  1.4145 -1.7255  1.3434
  946MOL0     H27657   6.359   5.547   1.014  0.0840 -1.6445 -1.5070
  946MOL0     H27658   6.177   5.548   1.050 -0.8148  0.5173 -0.9869
  946MOL0     H27659   6.225   5.468   0.818 -3.3631 -0.0319  0.8927
  946MOL0     H27660   6.289   5.629   0.779  0.6790 -1.2928 -2.4213
  946MOL0     H27661   6.001   5.407   0.713 -2.1768 -1.3686  2.9429
  946MOL0     H27662   5.673   5.581   0.695 -0.8735 -0.5371  1.4788
  946MOL0     H27663   5.761   5.444   0.622 -2.6722  2.0991 -2.1724
  946MOL0     H27664   5.645   5.486   0.897  0.0855  0.8823 -0.4574
  946MOL0     H27665   5.750   5.352   0.870 -1.8237 -2.0152 -0.2908
  946MOL0     H27666   5.539   5.248   0.841  0.1743 -1.0272 -0.9087
  946MOL0     H27667   5.592   5.284   0.684  0.1231  2.4625 -0.0101
  946MOL0     H27668   5.463   5.489   0.678 -0.3787 -0.0346 -1.0140
  946MOL0     H27669   5.405   5.474   0.835  0.9875  1.0413 -1.6366
  946MOL0     H27670   5.334   5.230   0.956 -0.3570 -0.2665  1.3950
  946MOL0     H27671   5.152   5.057   1.141  1.0323 -0.1444  0.0254
  946MOL0     H27672   5.268   5.183   1.151  0.1088 -0.4658 -2.0052
  946MOL0     H27673   5.105   5.229   1.198 -1.7965 -0.4886 -0.3741
  946MOL0     H27674   4.824   5.285   1.300  0.3140  1.3457 -0.1457
  946MOL0     H27675   4.660   5.250   1.478  1.8139  0.7603 -0.6975
  946MOL0     H27676   4.314   5.047   1.359  1.8754 -4.3927 -2.7432
  946MOL0     H27677   4.339   4.895   1.450  0.8426 -0.2084  2.0788
  946MOL0     H27678   4.304   5.058   1.670 -0.3005 -2.6147  0.6688
  946MOL0     H27679   4.232   5.152   1.525  2.2024 -0.7394 -3.0957
  946MOL0     H27680   4.088   4.986   1.682  2.1355 -3.0107  0.7775
  946MOL0     H27681   4.156   4.861   1.571  1.3476  0.2046  0.5157
  946MOL0     H27682   4.003   5.114   1.482  2.3369  0.1767 -0.1775
  946MOL0     H27683   4.074   5.006   1.371 -2.5360  0.8478 -0.7365
  946MOL0     H27684   3.934   4.823   1.506  0.7794  0.5509 -1.9858
  946MOL0     H27685   3.856   4.921   1.374  1.0987 -0.3556 -0.7123
  946MOL0     H27686   3.809   5.020   1.646 -0.0242 -0.5567 -0.4549
  946MOL0     H27687   3.738   5.061   1.488  1.2040  1.7625  0.2165
  946MOL0     H27688   3.587   4.923   1.633 -0.6134  1.2124 -0.7325
  946MOL0     H27689   3.708   4.796   1.634  2.1503  1.8620  0.3052
  946MOL0     H27690   3.510   4.744   1.486 -0.0872  0.7394  0.9619
  946MOL0     H27691   3.656   4.765   1.386  0.9137  2.7153 -1.6829
  946MOL0     H27692   4.550   4.875   1.287  0.1628  0.5232 -1.5547
  946MOL0     H27693   4.727   4.909   1.132 -1.4001 -1.1398  0.5931
  946MOL0     H27694   4.885   5.307   0.768  1.1654 -0.1110 -2.8979
  946MOL0     H27695   5.059   5.366   0.637  0.6640 -1.4475 -0.2258
  946MOL0     H27696   6.875   6.174   1.056 -2.1874 -0.6491 -3.5644
  946MOL0     H27697   7.017   6.388   0.989  0.0054  0.6139 -0.4847
  946MOL0     H27698   6.928   6.936   0.790  0.3583 -0.1197 -0.6560
  946MOL0     H27699   7.117   7.087   0.726 -1.0450  0.6710  2.7026
  946MOL0     H27700   7.509   7.071   0.962  0.7973 -0.2044  0.2846
  946MOL0     H27701   7.535   6.943   0.862  0.7429  0.8884  1.6627
  946MOL0     H27702   7.552   7.217   0.737 -2.6530 -1.1665 -0.6869
  946MOL0     H27703   7.632   7.072   0.681 -1.0527  2.2910 -1.1929
  946MOL0     H27704   7.689   7.215   0.941  1.9768 -2.2021  1.4351
  946MOL0     H27705   7.769   7.260   0.790 -0.6960  0.0649  0.4919
  946MOL0     H27706   7.918   7.131   0.927 -1.0086 -1.0363  4.1635
  946MOL0     H27707   7.867   7.013   0.796 -1.5709 -0.4629 -0.3515
  946MOL0     H27708   7.724   6.840   1.149  0.1615  0.0183 -0.5058
  946MOL0     H27709   7.383   6.852   0.968  1.5421  3.8189 -2.4436
  946MOL0     H27710   7.194   6.698   1.028  1.9675 -2.5853 -2.4446
  947MOL0     O27711   8.705  10.841   2.738 -0.8410  0.1138  0.4085
  947MOL0     C27712   8.743  10.831   2.618  0.3335 -0.2639 -0.2265
  947MOL0     O27713   8.654  10.839   2.511  0.6326  0.4130  0.0377
  947MOL0     C27714   8.525  10.826   2.536  0.5649 -0.3173 -1.6663
  947MOL0     C27715   8.452  10.944   2.529  0.8071 -0.2141  0.0098
  947MOL0     C27716   8.319  10.953   2.568 -0.2587  0.2253 -0.7251
  947MOL0     C27717   8.250  10.840   2.606 -0.7779  0.1089  0.7410
  947MOL0     O27718   8.120  10.846   2.647 -0.1815 -0.3356 -0.2279
  947MOL0     C27719   8.047  10.721   2.677  0.1745 -0.5353  0.0177
  947MOL0     C27720   7.907  10.762   2.737  0.1344  0.3745 -0.2128
  947MOL0     C27721   7.798  10.815   2.645  1.9158 -0.0986 -0.4833
  947MOL0     C27722   7.724  10.707   2.576  0.0595  0.9040  0.1578
  947MOL0     C27723   7.639  10.768   2.460 -0.9409 -0.7724  0.0604
  947MOL0     C27724   7.530  10.866   2.499 -0.1606  0.2014  0.7502
  947MOL0     C27725   7.478  10.932   2.373  0.5221 -0.2980  0.3333
  947MOL0     C27726   7.351  11.013   2.395 -0.7661  0.4226  0.6345
  947MOL0     N27727   7.229  10.919   2.406  0.0923  0.0375  0.4235
  947MOL0     C27728   7.100  10.962   2.405 -0.7557  0.7196 -0.1379
  947MOL0     C27729   7.026  10.852   2.422  0.2485 -0.6207  1.1636
  947MOL0     C27730   6.875  10.835   2.444  0.0193 -0.5186  0.2310
  947MOL0     C27731   6.787  10.873   2.324  0.3255 -0.8801  1.1571
  947MOL0     C27732   6.665  10.773   2.329 -0.3156 -0.3416 -0.2566
  947MOL0     C27733   6.585  10.798   2.198  0.0696  0.3465 -0.4477
  947MOL0     O27734   6.543  10.935   2.196 -0.2691  0.0373 -0.2165
  947MOL0     C27735   6.476  10.985   2.089 -0.0268 -0.3941  0.3334
  947MOL0     C27736   6.403  10.907   1.995 -0.0952 -0.5181 -0.1619
  947MOL0     C27737   6.341  10.958   1.882  0.5052  0.3343 -0.2722
  947MOL0     C27738   6.228  10.870   1.818 -0.9852 -0.1117  0.0145
  947MOL0     C27739   6.359  11.094   1.852 -0.3753 -0.7368  0.1017
  947MOL0     C27740   6.307  11.155   1.724 -0.3555  0.0309 -0.6014
  947MOL0     O27741   6.300  11.290   1.726  0.2342  0.4359  0.2846
  947MOL0     C27742   6.253  11.343   1.611  0.3401 -0.7298  0.0820
  947MOL0     C27743   6.334  11.360   1.497 -0.5362 -0.1917 -0.1264
  947MOL0     C27744   6.303  11.441   1.385  0.2635 -0.3123 -0.4017
  947MOL0     C27745   6.167  11.495   1.379  0.5325  0.6594  0.1965
  947MOL0     O27746   6.105  11.568   1.275 -0.6007  0.2801  0.5557
  947MOL0     C27747   6.169  11.572   1.141 -0.5831  0.7507 -0.7725
  947MOL0     C27748   6.094  11.670   1.050  0.4897 -0.5380  0.8249
  947MOL0     C27749   5.949  11.622   1.023  0.8487  0.2148  0.3141
  947MOL0     C27750   5.876  11.713   0.924  0.4243 -0.8387 -0.0646
  947MOL0     C27751   5.744  11.646   0.900  0.0028  0.1572  0.4066
  947MOL0     C27752   5.677  11.705   0.776  0.7676  0.3321 -0.5058
  947MOL0     C27753   5.534  11.643   0.749 -0.7601 -0.0888  0.4962
  947MOL0     C27754   5.422  11.675   0.840 -0.5673  0.2910  0.5555
  947MOL0    Cl27755   5.382  11.850   0.817 -0.3501  0.2224  0.3228
  947MOL0     C27756   6.086  11.476   1.500 -0.5077  0.4138  0.3476
  947MOL0     C27757   6.132  11.414   1.610 -0.1143 -0.1091  0.9476
  947MOL0     O27758   6.281  11.081   1.627  0.3908  0.0464 -0.2887
  947MOL0     C27759   6.425  11.179   1.941  0.3223 -0.2600  0.4938
  947MOL0     C27760   6.478  11.121   2.066 -0.6747 -0.5060 -0.1835
  947MOL0     N27761   7.112  10.746   2.399  0.1959  0.4299  0.2380
  947MOL0     N27762   7.231  10.784   2.413 -0.5883 -1.1027  0.8187
  947MOL0     C27763   8.323  10.720   2.603 -0.2332 -0.6582  0.0263
  947MOL0     C27764   8.461  10.708   2.567 -0.2642  0.5142 -0.3374
  947MOL0     C27765   8.881  10.800   2.581 -0.5381 -0.1043 -0.0210
  947MOL0     C27766   8.920  10.811   2.443  0.3073  0.1474  0.3462
  947MOL0     C27767   9.042  10.764   2.397  1.3743  0.3624 -0.7666
  947MOL0     C27768   9.128  10.695   2.489 -0.5066 -0.6349  0.2320
  947MOL0     O27769   9.252  10.639   2.464  0.9882  0.0487 -0.2138
  947MOL0     C27770   9.299  10.653   2.328  0.3282 -0.2691 -0.7786
  947MOL0     C27771   9.347  10.795   2.292  0.5135 -0.3931 -0.8232
  947MOL0     C27772   9.439  10.796   2.168  0.4762  0.9585  0.1888
  947MOL0     C27773   9.454  10.937   2.106 -0.3652  0.1877 -0.3717
  947MOL0     C27774   9.327  10.986   2.059 -0.1946 -0.5901 -1.4453
  947MOL0     C27775   9.224  11.034   2.024  0.6276  0.0529  0.5009
  947MOL0     C27776   9.099  10.699   2.623  0.7165  0.0309 -0.4595
  947MOL0     C27777   8.974  10.747   2.674 -0.3476 -0.1334  1.5756
  947MOL0     H27778   8.498  11.038   2.497  0.3340  0.3891  1.0588
  947MOL0     H27779   8.270  11.048   2.588 -0.5819  0.1336 -1.0540
  947MOL0     H27780   8.024  10.656   2.592 -1.1385 -1.1590  0.8189
  947MOL0     H27781   8.100  10.654   2.745 -3.3196 -0.5294  3.0047
  947MOL0     H27782   7.857  10.676   2.782  1.2618 -0.0047  0.3454
  947MOL0     H27783   7.930  10.826   2.823 -3.6009  1.0968  0.4454
  947MOL0     H27784   7.722  10.873   2.700  0.0255 -0.8678 -2.1891
  947MOL0     H27785   7.842  10.880   2.568 -0.2949 -1.3488 -2.9343
  947MOL0     H27786   7.801  10.639   2.538  0.1227  2.6964 -3.2749
  947MOL0     H27787   7.668  10.648   2.650 -0.9949  0.0471 -1.2790
  947MOL0     H27788   7.710  10.817   2.393  1.9391 -1.5072  2.3809
  947MOL0     H27789   7.588  10.691   2.401 -2.9939  1.0001 -0.6124
  947MOL0     H27790   7.448  10.828   2.561  0.6495  0.3127  1.9257
  947MOL0     H27791   7.568  10.945   2.565 -1.9209  2.2218 -0.5368
  947MOL0     H27792   7.562  10.994   2.337  0.3155 -0.6541 -0.8234
  947MOL0     H27793   7.460  10.858   2.294  2.6383 -0.9751  0.4255
  947MOL0     H27794   7.326  11.075   2.309 -2.3696 -0.4257  0.4630
  947MOL0     H27795   7.352  11.076   2.484 -1.4709  1.2221  0.0879
  947MOL0     H27796   7.068  11.066   2.401 -0.1973  0.8551 -3.0604
  947MOL0     H27797   6.833  10.741   2.482 -2.8325  1.4385  2.3520
  947MOL0     H27798   6.859  10.898   2.532  2.6969  0.3616  0.1855
  947MOL0     H27799   6.839  10.850   2.231 -0.8842  2.8579 -0.6316
  947MOL0     H27800   6.763  10.979   2.322  0.5143 -0.8191 -1.6674
  947MOL0     H27801   6.604  10.785   2.419 -0.6478  2.1714 -0.7461
  947MOL0     H27802   6.713  10.676   2.322  0.4102  0.0655 -1.0188
  947MOL0     H27803   6.495  10.738   2.215 -0.2670  1.0944  0.5098
  947MOL0     H27804   6.626  10.777   2.099 -0.1729  0.1310 -0.5047
  947MOL0     H27805   6.398  10.800   2.012 -0.4307 -0.7703 -1.6621
  947MOL0     H27806   6.147  10.941   1.802 -0.1042  0.8201 -0.3519
  947MOL0     H27807   6.254  10.840   1.716 -0.0450  3.7598 -1.0435
  947MOL0     H27808   6.189  10.787   1.877 -2.7402  1.7293  1.5538
  947MOL0     H27809   6.433  11.316   1.494  0.2957  1.5995 -0.3815
  947MOL0     H27810   6.380  11.471   1.315  1.0181  2.3764  1.4210
  947MOL0     H27811   6.266  11.618   1.159 -1.5327  4.5923 -3.9807
  947MOL0     H27812   6.178  11.475   1.091  1.2926  0.4721  0.0246
  947MOL0     H27813   6.089  11.771   1.091 -0.1895  1.0604 -2.7965
  947MOL0     H27814   6.149  11.687   0.957  0.2924  1.7307  1.0707
  947MOL0     H27815   5.890  11.614   1.115  0.1987  2.3016  0.1265
  947MOL0     H27816   5.955  11.520   0.983  1.8121 -0.3856  1.8877
  947MOL0     H27817   5.869  11.815   0.963  0.2977 -0.4029 -1.1697
  947MOL0     H27818   5.937  11.711   0.833  2.6217 -0.9290  1.3456
  947MOL0     H27819   5.680  11.667   0.986  0.7001 -3.1167  1.8771
  947MOL0     H27820   5.738  11.538   0.886 -1.3763  0.5114 -2.5404
  947MOL0     H27821   5.651  11.811   0.785  1.0757  0.3727 -0.0354
  947MOL0     H27822   5.749  11.691   0.695  0.3039 -2.1650 -0.5648
  947MOL0     H27823   5.541  11.534   0.742  0.3388  0.0784 -2.4002
  947MOL0     H27824   5.502  11.689   0.655 -2.1765  1.3096  1.6100
  947MOL0     H27825   5.429  11.655   0.947 -0.4601  0.9538  0.6761
  947MOL0     H27826   5.336  11.615   0.808  0.7030  0.0886 -2.8381
  947MOL0     H27827   5.985  11.515   1.503 -0.5039  0.4606 -0.0641
  947MOL0     H27828   6.066  11.412   1.696 -1.8708  2.2640 -0.2353
  947MOL0     H27829   6.434  11.287   1.945  1.2805 -0.3616  3.0188
  947MOL0     H27830   6.509  11.185   2.147 -0.1713 -1.7599  0.6362
  947MOL0     H27831   8.264  10.630   2.616 -3.4058  1.3852  0.9189
  947MOL0     H27832   8.516  10.614   2.572  1.8810  1.6412 -1.5305
  947MOL0     H27833   8.852  10.855   2.371  0.7750 -0.4143 -0.4532
  947MOL0     H27834   9.057  10.773   2.290 -2.4570  2.5374 -1.3119
  947MOL0     H27835   9.381  10.582   2.318  0.5185  0.2075 -3.5658
  947MOL0     H27836   9.223  10.622   2.255  0.6646 -0.4154 -1.0717
  947MOL0     H27837   9.392  10.842   2.380  0.2828  0.9729 -1.4268
  947MOL0     H27838   9.257  10.856   2.283 -1.5222 -2.5433  2.5222
  947MOL0     H27839   9.392  10.730   2.095 -1.1305 -0.0039  2.0096
  947MOL0     H27840   9.540  10.763   2.194  1.2040  1.9533 -1.2492
  947MOL0     H27841   9.522  10.922   2.021  1.4988 -0.8500  1.2202
  947MOL0     H27842   9.506  11.002   2.176  0.2908  1.3774 -1.9007
  947MOL0     H27843   9.131  11.080   1.998  0.9149  1.7955  2.3677
  947MOL0     H27844   9.161  10.650   2.698  0.6076 -1.9225 -1.5957
  947MOL0     H27845   8.945  10.748   2.779 -5.9397  0.0246  0.3677
  948MOL0     O27846   7.898   0.347   7.672  0.1466 -0.0122 -0.8561
  948MOL0     C27847   7.964   0.435   7.725  0.4534  0.2169  0.0707
  948MOL0     O27848   7.907   0.554   7.774 -0.2867 -0.2607 -0.1905
  948MOL0     C27849   7.774   0.588   7.791 -0.5018 -0.1382 -0.7036
  948MOL0     C27850   7.667   0.489   7.810  0.4797 -0.0714 -0.1173
  948MOL0     C27851   7.530   0.524   7.827 -0.2895  0.8769 -0.0658
  948MOL0     C27852   7.491   0.652   7.803  0.6037 -0.6040 -0.0267
  948MOL0     O27853   7.359   0.695   7.787  0.4132 -0.1828 -0.1532
  948MOL0     C27854   7.259   0.594   7.803 -0.1368  0.0365  0.3630
  948MOL0     C27855   7.117   0.671   7.811  0.1024  0.0190 -0.5004
  948MOL0     C27856   6.992   0.570   7.825 -0.0372 -0.8934  0.2595
  948MOL0     C27857   6.924   0.536   7.696  0.5147  0.0911  0.4155
  948MOL0     C27858   6.811   0.428   7.716  0.4779 -0.2434  0.3712
  948MOL0     C27859   6.768   0.357   7.591  0.4896 -0.1777 -0.4908
  948MOL0     C27860   6.738   0.429   7.464 -1.1848  0.0375  0.0975
  948MOL0     C27861   6.649   0.546   7.447  1.6446  0.0382 -0.0568
  948MOL0     N27862   6.515   0.502   7.468  1.1410  0.2109 -1.6076
  948MOL0     C27863   6.417   0.486   7.372 -0.4289  1.1936 -0.6147
  948MOL0     C27864   6.305   0.471   7.445  1.1807  0.8882 -0.4283
  948MOL0     C27865   6.160   0.467   7.388  0.2631 -0.5853 -0.3764
  948MOL0     C27866   6.139   0.329   7.322 -0.1670  0.8442 -0.1333
  948MOL0     C27867   6.134   0.204   7.419 -0.5371  0.3180 -0.2545
  948MOL0     C27868   6.001   0.195   7.499 -0.5545 -0.3038  0.0061
  948MOL0     O27869   5.892   0.181   7.411  0.0213 -0.6256 -0.6794
  948MOL0     C27870   5.769   0.148   7.456  0.4945  0.6550 -1.0387
  948MOL0     C27871   5.668   0.123   7.358  0.0095 -0.0667 -0.1675
  948MOL0     C27872   5.543   0.086   7.391 -0.4896  0.5911 -0.5679
  948MOL0     C27873   5.448   0.058   7.285  0.2722  0.2437  0.7813
  948MOL0     C27874   5.510   0.077   7.531  0.0335 -0.2638  0.0478
  948MOL0     C27875   5.369   0.048   7.579  0.2958 -0.9217 -0.2425
  948MOL0     O27876   5.305   0.131   7.664  0.5365 -0.6724  0.5056
  948MOL0     C27877   5.171   0.122   7.697  0.1419 -0.0317 -0.5720
  948MOL0     C27878   5.136   0.150   7.832  0.4933 -0.7706 -0.1419
  948MOL0     C27879   4.998   0.128   7.872 -1.0164  0.1950  0.4793
  948MOL0     C27880   4.902   0.084   7.782  0.8147 -0.2892 -0.1528
  948MOL0     O27881   4.770   0.060   7.814 -0.3766 -1.0539  1.1546
  948MOL0     C27882   4.676   0.144   7.743 -0.7758 -0.5224 -0.4318
  948MOL0     C27883   4.561   0.061   7.689  0.6395  0.3471  0.0971
  948MOL0     C27884   4.511  -0.038   7.791  0.0010  0.2976  0.4351
  948MOL0     C27885   4.369  -0.082   7.766 -0.2174  0.6936  0.3150
  948MOL0     C27886   4.324  -0.159   7.888 -1.3443 -0.0464  0.0080
  948MOL0     C27887   4.184  -0.212   7.863 -0.7725 -0.2056  0.5935
  948MOL0     C27888   4.138  -0.274   8.006 -0.3851 -1.0454  0.7504
  948MOL0     C27889   3.988  -0.269   8.004  0.1183 -1.2297 -0.2895
  948MOL0    Cl27890   3.928  -0.384   7.877 -0.2954 -0.2352 -0.2247
  948MOL0     C27891   4.932   0.074   7.645  0.3646  0.3203  0.7982
  948MOL0     C27892   5.062   0.084   7.602  0.7367 -0.0968 -0.0371
  948MOL0     O27893   5.310  -0.051   7.525  0.0895  0.6322 -0.3446
  948MOL0     C27894   5.607   0.094   7.626 -0.4689  0.6744 -0.0793
  948MOL0     C27895   5.736   0.128   7.591 -1.0152 -0.5360 -0.1616
  948MOL0     N27896   6.329   0.464   7.582  0.0617 -1.1410 -0.3123
  948MOL0     N27897   6.456   0.494   7.595  0.3502  0.2970  0.9522
  948MOL0     C27898   7.593   0.748   7.782  1.0891  0.0023 -0.1932
  948MOL0     C27899   7.732   0.715   7.783  0.4153 -0.3756 -0.1769
  948MOL0     C27900   8.118   0.411   7.725 -0.4894 -0.1682 -0.0552
  948MOL0     C27901   8.179   0.284   7.733  0.4185  0.9903  0.2235
  948MOL0     C27902   8.317   0.269   7.745  0.5549 -0.6280  0.0080
  948MOL0     C27903   8.397   0.382   7.745  0.7992  0.5873  0.2686
  948MOL0     O27904   8.531   0.363   7.756  1.1383 -0.2112  0.1941
  948MOL0     C27905   8.587   0.258   7.670 -0.3245 -0.1859  0.9804
  948MOL0     C27906   8.737   0.296   7.641  0.4133 -0.1789 -0.1855
  948MOL0     C27907   8.808   0.192   7.546  0.4529 -0.1436  0.1332
  948MOL0     C27908   8.929   0.258   7.471 -0.3628 -0.0191  0.9847
  948MOL0     C27909   9.011   0.164   7.393  0.3289 -0.0310 -0.0216
  948MOL0     C27910   9.086   0.090   7.336 -0.9736 -0.5748 -0.0939
  948MOL0     C27911   8.342   0.503   7.739 -0.3668 -0.6507 -1.1017
  948MOL0     C27912   8.206   0.514   7.738  0.4155  0.6060  0.1770
  948MOL0     H27913   7.696   0.385   7.825  3.3741  0.5254 -0.8912
  948MOL0     H27914   7.461   0.441   7.832  0.1126  0.5626  0.2702
  948MOL0     H27915   7.253   0.527   7.717  4.4381  0.0815 -0.2338
  948MOL0     H27916   7.276   0.531   7.890 -0.2830 -1.4326 -0.6395
  948MOL0     H27917   7.118   0.737   7.899 -0.5709  0.8573 -1.0974
  948MOL0     H27918   7.106   0.728   7.718  3.0279  0.0312 -0.9177
  948MOL0     H27919   7.026   0.484   7.883  2.4091 -0.5989 -0.6247
  948MOL0     H27920   6.921   0.632   7.882  0.2877  1.8802 -2.1150
  948MOL0     H27921   6.879   0.627   7.655  1.1514  1.7999  3.2586
  948MOL0     H27922   6.995   0.491   7.626  1.6328  1.5984  0.5245
  948MOL0     H27923   6.846   0.352   7.786 -0.2910 -1.2843 -0.3479
  948MOL0     H27924   6.729   0.477   7.768 -1.0701 -0.1421 -1.9891
  948MOL0     H27925   6.842   0.277   7.580 -3.1205 -3.6346 -2.2016
  948MOL0     H27926   6.678   0.304   7.624 -0.5014  1.8177  0.2081
  948MOL0     H27927   6.834   0.461   7.424 -0.1234 -0.5698  2.0326
  948MOL0     H27928   6.699   0.351   7.398 -3.3132  0.5856  0.6176
  948MOL0     H27929   6.660   0.582   7.345  4.1972 -0.7756 -0.1409
  948MOL0     H27930   6.676   0.630   7.512  3.9218  2.1701 -3.4722
  948MOL0     H27931   6.419   0.472   7.265 -1.0291 -1.2051 -0.3650
  948MOL0     H27932   6.084   0.488   7.464  0.7810  1.8866 -0.4792
  948MOL0     H27933   6.136   0.534   7.305 -1.2903 -0.6807 -0.0324
  948MOL0     H27934   6.214   0.310   7.244  1.3184  0.7927  1.2648
  948MOL0     H27935   6.038   0.328   7.279 -0.2546 -0.1028  0.0666
  948MOL0     H27936   6.222   0.202   7.483  0.8828  0.9423 -2.0863
  948MOL0     H27937   6.139   0.120   7.349 -2.7990 -1.3408  1.4362
  948MOL0     H27938   5.993   0.273   7.575 -0.3659 -1.5436  1.3512
  948MOL0     H27939   6.017   0.102   7.554  0.7313  0.4203  0.9006
  948MOL0     H27940   5.710   0.143   7.260  2.6996  2.3180  1.2980
  948MOL0     H27941   5.389  -0.032   7.303 -2.2894  1.6844  0.1343
  948MOL0     H27942   5.369   0.132   7.268 -1.1983 -0.9986  1.8538
  948MOL0     H27943   5.496   0.042   7.188 -2.3457  1.0854 -0.7614
  948MOL0     H27944   5.206   0.191   7.905  0.3567 -0.5852 -0.1150
  948MOL0     H27945   4.978   0.143   7.978  2.4185  1.4651  1.0663
  948MOL0     H27946   4.621   0.199   7.820 -4.7023 -1.0887 -2.5735
  948MOL0     H27947   4.707   0.207   7.659 -3.1611  0.3405 -0.7333
  948MOL0     H27948   4.488   0.132   7.647  1.2851  0.4988 -0.7971
  948MOL0     H27949   4.593  -0.014   7.616  0.3474  0.1481  0.1702
  948MOL0     H27950   4.514   0.011   7.888 -1.3857  0.0429  0.6280
  948MOL0     H27951   4.571  -0.130   7.791 -0.3903  0.0329 -0.0565
  948MOL0     H27952   4.297  -0.002   7.746  0.5975  1.1150 -1.1474
  948MOL0     H27953   4.378  -0.146   7.677  0.9319 -0.9453  1.5509
  948MOL0     H27954   4.320  -0.087   7.971  1.9761  0.1229  0.1712
  948MOL0     H27955   4.385  -0.241   7.926 -1.0773  0.1327 -0.0297
  948MOL0     H27956   4.119  -0.133   7.826 -2.6371 -2.6496 -1.7309
  948MOL0     H27957   4.189  -0.281   7.777 -0.5670 -0.0915  0.5128
  948MOL0     H27958   4.179  -0.206   8.081 -0.0428  1.4431 -1.5279
  948MOL0     H27959   4.174  -0.373   8.035  1.1552  0.2137  3.5690
  948MOL0     H27960   3.956  -0.171   7.969  0.1988 -0.9054  0.5296
  948MOL0     H27961   3.935  -0.285   8.099  1.7401  0.5323  0.9790
  948MOL0     H27962   4.854   0.038   7.578 -0.1297  2.9995 -0.1976
  948MOL0     H27963   5.090   0.064   7.499 -0.8134  3.0849 -1.1965
  948MOL0     H27964   5.579   0.068   7.727  1.5279  2.2494  0.9532
  948MOL0     H27965   5.808   0.131   7.672  0.0616  0.2282 -1.1134
  948MOL0     H27966   7.551   0.846   7.761 -0.3417 -0.9218 -1.8540
  948MOL0     H27967   7.796   0.803   7.773 -1.7636  1.6748  2.2109
  948MOL0     H27968   8.128   0.189   7.733  2.4118 -0.1472  0.1589
  948MOL0     H27969   8.362   0.170   7.748  0.2091 -0.7780  0.2573
  948MOL0     H27970   8.593   0.161   7.721  0.8698 -1.1156 -0.8338
  948MOL0     H27971   8.519   0.250   7.585 -0.4498 -0.9439  1.1437
  948MOL0     H27972   8.784   0.304   7.739  0.6137  2.8272 -0.4248
  948MOL0     H27973   8.742   0.388   7.582  3.2210 -0.7369 -0.9526
  948MOL0     H27974   8.742   0.156   7.466  0.8975 -1.9055  0.5127
  948MOL0     H27975   8.841   0.109   7.609  0.7223  0.2089  0.4547
  948MOL0     H27976   8.999   0.312   7.536  0.9710  0.8870 -1.1081
  948MOL0     H27977   8.892   0.329   7.397  3.1351 -0.8289 -1.8510
  948MOL0     H27978   9.159   0.040   7.274 -2.4386 -1.1901 -1.3770
  948MOL0     H27979   8.415   0.583   7.746 -0.9804 -0.0237 -1.6295
  948MOL0     H27980   8.168   0.615   7.736 -0.1261  0.4526  1.4940
  949MOL0     O27981   2.434   3.461   1.425  0.2370  0.0938  0.3539
  949MOL0     C27982   2.482   3.405   1.327 -0.8754 -0.1685  0.0426
  949MOL0     O27983   2.578   3.310   1.340  0.0889  0.9412  0.2200
  949MOL0     C27984   2.616   3.253   1.463  0.6191  0.9777 -0.4836
  949MOL0     C27985   2.611   3.314   1.590  0.9238  0.7470 -0.1230
  949MOL0     C27986   2.643   3.235   1.704 -0.2772 -0.0546 -0.3942
  949MOL0     C27987   2.680   3.103   1.694  1.2351 -0.6697 -0.2221
  949MOL0     O27988   2.708   3.041   1.810 -0.7705 -0.5019 -0.0052
  949MOL0     C27989   2.729   2.900   1.799  0.8198  0.0790 -0.2510
  949MOL0     C27990   2.743   2.836   1.941  0.1975 -0.4062  0.0781
  949MOL0     C27991   2.624   2.839   2.030 -0.0380  0.3266 -0.1149
  949MOL0     C27992   2.643   2.745   2.144  0.4214 -0.1036  0.7044
  949MOL0     C27993   2.523   2.772   2.237 -0.5406  0.4925  0.2354
  949MOL0     C27994   2.381   2.727   2.173  0.5526 -0.5619 -0.1056
  949MOL0     C27995   2.276   2.715   2.276 -1.5889 -1.2570  0.2925
  949MOL0     C27996   2.151   2.643   2.234  0.4499  0.6910 -0.0536
  949MOL0     N27997   2.109   2.695   2.104 -0.9514  0.1896  0.0536
  949MOL0     C27998   2.158   2.647   1.983  0.1328  0.2970  0.9315
  949MOL0     C27999   2.104   2.745   1.896 -0.2185 -0.2297 -0.6620
  949MOL0     C28000   2.134   2.741   1.750 -0.7100 -0.3864 -0.0007
  949MOL0     C28001   2.051   2.635   1.672  0.8707 -0.0407 -0.0332
  949MOL0     C28002   2.083   2.660   1.520  0.6971 -1.0537 -0.1962
  949MOL0     C28003   2.000   2.575   1.427  0.0750 -0.8649  0.1133
  949MOL0     O28004   2.035   2.431   1.424  0.4665  0.7059 -0.0956
  949MOL0     C28005   2.157   2.383   1.376 -0.2754  0.6819  0.5633
  949MOL0     C28006   2.227   2.442   1.270 -0.4277 -0.9500  0.4864
  949MOL0     C28007   2.337   2.385   1.211 -0.3523 -0.5506  0.5325
  949MOL0     C28008   2.372   2.439   1.078 -0.5002  0.0933  0.1608
  949MOL0     C28009   2.391   2.272   1.279 -0.2588 -0.8800  0.1960
  949MOL0     C28010   2.518   2.203   1.232  0.0046 -0.5301  0.1103
  949MOL0     O28011   2.587   2.136   1.322  0.2369 -0.4794 -0.4444
  949MOL0     C28012   2.703   2.077   1.283  0.1836 -0.5292  0.0600
  949MOL0     C28013   2.808   2.160   1.253 -0.2117  0.4229  0.5393
  949MOL0     C28014   2.928   2.116   1.217  0.4643 -0.4480  0.0359
  949MOL0     C28015   2.955   1.977   1.206 -0.1508 -0.3913  0.3435
  949MOL0     O28016   3.078   1.924   1.184 -0.0687 -0.6575 -0.3959
  949MOL0     C28017   3.184   1.998   1.120  0.8584 -0.4787 -0.6707
  949MOL0     C28018   3.291   1.895   1.075  0.0951 -0.3483  0.4674
  949MOL0     C28019   3.422   1.951   1.021  0.8255  0.5364 -0.7543
  949MOL0     C28020   3.540   1.860   1.051 -0.6494  0.3141 -0.4943
  949MOL0     C28021   3.668   1.918   0.991 -0.8986 -0.1240 -0.3464
  949MOL0     C28022   3.760   1.807   0.937  0.6874  0.6709 -0.5355
  949MOL0     C28023   3.872   1.862   0.842  0.8078  0.1661 -0.3978
  949MOL0     C28024   3.984   1.912   0.930  0.0769  0.3954  0.3819
  949MOL0    Cl28025   4.051   1.789   1.058 -0.0645  0.5183  0.2174
  949MOL0     C28026   2.848   1.893   1.236 -0.1235 -0.1781 -0.3011
  949MOL0     C28027   2.725   1.940   1.273 -0.9909  0.0917 -0.1748
  949MOL0     O28028   2.559   2.225   1.116  0.0784  0.0032  0.2446
  949MOL0     C28029   2.329   2.216   1.392  0.2432 -0.2502 -0.2545
  949MOL0     C28030   2.203   2.265   1.432 -0.5813 -0.1576  0.4094
  949MOL0     N28031   2.021   2.835   1.958  0.1794  0.3376 -0.2610
  949MOL0     N28032   2.019   2.790   2.086  0.1459  0.2807  0.6054
  949MOL0     C28033   2.676   3.047   1.564 -1.0520 -0.0179 -0.1963
  949MOL0     C28034   2.669   3.126   1.453  1.0000  0.4728  0.3886
  949MOL0     C28035   2.454   3.460   1.190 -0.6592 -0.2260  0.3639
  949MOL0     C28036   2.338   3.525   1.166  0.5111 -0.0267  0.0432
  949MOL0     C28037   2.319   3.579   1.043  0.2606  0.3792 -0.3935
  949MOL0     C28038   2.417   3.583   0.940  0.5264  0.1791  0.3409
  949MOL0     O28039   2.399   3.662   0.836  0.0164  0.2239 -0.1695
  949MOL0     C28040   2.513   3.729   0.784  0.2823 -0.1533 -0.7431
  949MOL0     C28041   2.472   3.864   0.740 -0.0938 -1.0569  0.6837
  949MOL0     C28042   2.502   3.977   0.842 -0.4261  0.0882  0.1265
  949MOL0     C28043   2.425   4.099   0.790 -0.4070 -0.2666 -0.6443
  949MOL0     C28044   2.426   4.201   0.897 -0.5881  0.2511  0.2637
  949MOL0     C28045   2.422   4.266   0.996 -0.0104 -0.3574  0.4868
  949MOL0     C28046   2.536   3.509   0.968  0.6687 -0.2532 -0.3891
  949MOL0     C28047   2.550   3.454   1.096  0.6450 -0.2643 -0.6011
  949MOL0     H28048   2.580   3.415   1.614  2.0905  0.6399  2.0926
  949MOL0     H28049   2.643   3.295   1.795  1.5365 -0.1461 -0.2951
  949MOL0     H28050   2.640   2.852   1.758  1.0532 -2.0356  1.4573
  949MOL0     H28051   2.809   2.888   1.726  0.4314  1.4118 -0.9201
  949MOL0     H28052   2.769   2.733   1.915 -1.8177 -0.5188 -1.8155
  949MOL0     H28053   2.826   2.884   1.993  0.6278 -2.4597  1.4042
  949MOL0     H28054   2.615   2.935   2.080 -0.3424 -0.7836  2.0984
  949MOL0     H28055   2.535   2.818   1.970  2.3359 -2.3634 -3.1224
  949MOL0     H28056   2.636   2.640   2.114 -2.3651  0.5983 -1.4688
  949MOL0     H28057   2.740   2.760   2.192 -0.1462  1.4368  1.4393
  949MOL0     H28058   2.551   2.701   2.315  0.6457  0.2125 -0.4037
  949MOL0     H28059   2.524   2.871   2.282 -2.5053  0.0870  1.2559
  949MOL0     H28060   2.347   2.806   2.105 -1.9823  1.1572  2.8897
  949MOL0     H28061   2.397   2.627   2.132 -0.0314 -1.1886  1.1294
  949MOL0     H28062   2.319   2.649   2.352 -1.1557  1.9193  2.9885
  949MOL0     H28063   2.250   2.810   2.323 -3.6451 -1.3511 -0.5300
  949MOL0     H28064   2.071   2.660   2.307 -1.6742 -1.0186 -1.8381
  949MOL0     H28065   2.176   2.537   2.228  1.3799  0.9672 -1.6303
  949MOL0     H28066   2.234   2.573   1.958  0.2825  1.2428 -1.8230
  949MOL0     H28067   2.106   2.839   1.711  2.4527  1.1735  1.3414
  949MOL0     H28068   2.241   2.723   1.739 -0.5311 -0.5753  1.8268
  949MOL0     H28069   1.943   2.644   1.685  0.4869 -1.5585 -1.7249
  949MOL0     H28070   2.083   2.536   1.706 -1.2321 -0.8393 -0.2169
  949MOL0     H28071   2.191   2.651   1.503  1.0371  2.0495 -0.2039
  949MOL0     H28072   2.073   2.767   1.502  2.1994 -1.4157 -4.1337
  949MOL0     H28073   2.003   2.607   1.322 -2.0103 -2.9197 -0.6572
  949MOL0     H28074   1.896   2.586   1.460  0.7406  4.3329  1.3636
  949MOL0     H28075   2.195   2.536   1.225  0.9810  0.2445  1.8484
  949MOL0     H28076   2.388   2.361   1.003 -0.0282 -0.0313  0.3943
  949MOL0     H28077   2.299   2.510   1.036  0.9192  0.6875 -1.3960
  949MOL0     H28078   2.469   2.487   1.092  0.6783 -1.7205 -1.3798
  949MOL0     H28079   2.781   2.265   1.250  0.4438  0.5983  0.6381
  949MOL0     H28080   3.004   2.190   1.195 -1.9124  1.4083 -2.6339
  949MOL0     H28081   3.133   2.057   1.043 -0.4947  0.3546  0.7806
  949MOL0     H28082   3.233   2.077   1.178  0.1429  1.3261 -2.3977
  949MOL0     H28083   3.316   1.836   1.164  0.1414  1.6852  1.8928
  949MOL0     H28084   3.253   1.829   0.997 -1.3198 -1.9427  2.4076
  949MOL0     H28085   3.431   2.048   1.071  0.9822  0.4328 -0.5789
  949MOL0     H28086   3.428   1.970   0.913  0.6059 -0.6498 -0.9941
  949MOL0     H28087   3.552   1.844   1.158 -2.4872  1.6581 -0.0512
  949MOL0     H28088   3.513   1.768   0.998  0.8995  0.3744 -1.4820
  949MOL0     H28089   3.730   1.981   1.057 -1.0922 -0.5293  0.2325
  949MOL0     H28090   3.634   1.984   0.910  2.4556  0.8896 -1.0838
  949MOL0     H28091   3.793   1.745   1.022  0.5144  0.1292 -0.8604
  949MOL0     H28092   3.690   1.744   0.881 -0.3228  1.0592  0.2590
  949MOL0     H28093   3.841   1.943   0.775  2.7620  0.2701 -1.2701
  949MOL0     H28094   3.910   1.775   0.787  0.1165 -2.0533  2.4165
  949MOL0     H28095   3.943   1.998   0.984 -0.8060 -0.4802  1.1530
  949MOL0     H28096   4.073   1.940   0.872 -0.5776 -0.2536 -0.9716
  949MOL0     H28097   2.856   1.785   1.239  0.5021 -0.1324 -0.0698
  949MOL0     H28098   2.642   1.872   1.292 -2.8399  2.3705  0.4036
  949MOL0     H28099   2.365   2.130   1.449 -2.1464 -1.7882 -0.9023
  949MOL0     H28100   2.163   2.223   1.524 -1.7806 -3.9016 -1.6033
  949MOL0     H28101   2.699   2.941   1.553  1.3065  0.5202 -1.1051
  949MOL0     H28102   2.677   3.078   1.356 -1.6548 -1.4201  1.0031
  949MOL0     H28103   2.266   3.540   1.246  1.1438  2.2513  0.2403
  949MOL0     H28104   2.230   3.628   1.005  0.1713  0.5341  0.0057
  949MOL0     H28105   2.599   3.742   0.850 -1.2597  1.9225  0.9652
  949MOL0     H28106   2.539   3.677   0.691 -0.7581  0.6476 -1.5108
  949MOL0     H28107   2.365   3.857   0.718 -0.3675  0.2372  1.5035
  949MOL0     H28108   2.522   3.893   0.647  1.5885 -2.1530  1.1986
  949MOL0     H28109   2.604   4.016   0.833 -0.8617  1.3257  0.3389
  949MOL0     H28110   2.474   3.945   0.942 -1.2787  1.7349  0.4386
  949MOL0     H28111   2.321   4.079   0.764 -1.1318 -0.5194  2.1545
  949MOL0     H28112   2.477   4.131   0.699 -0.6287  0.8675 -0.3824
  949MOL0     H28113   2.414   4.323   1.086  0.3571  0.7230 -0.1535
  949MOL0     H28114   2.613   3.499   0.893 -1.3673 -0.7288 -2.5644
  949MOL0     H28115   2.636   3.394   1.126 -1.8056 -3.8438 -0.0220
  950MOL0     O28116   4.697  11.158   5.068  0.1766 -0.6932  0.0896
  950MOL0     C28117   4.631  11.131   5.173 -0.1220 -0.0148  1.2832
  950MOL0     O28118   4.676  11.059   5.284 -0.3499  0.3017  0.3461
  950MOL0     C28119   4.801  11.001   5.284  0.6695  0.2747  0.5705
  950MOL0     C28120   4.921  11.074   5.271 -0.8319 -0.9350 -0.0963
  950MOL0     C28121   5.052  11.014   5.271 -0.9602  0.1140  0.3171
  950MOL0     C28122   5.058  10.880   5.274  0.4455  0.1742  0.7564
  950MOL0     O28123   5.178  10.817   5.247 -0.0659  0.0089 -0.3409
  950MOL0     C28124   5.238  10.750   5.356 -0.0244 -0.7593  0.2535
  950MOL0     C28125   5.380  10.703   5.311 -0.5343  0.4716  1.0166
  950MOL0     C28126   5.399  10.591   5.204  0.1272 -0.0850  0.1329
  950MOL0     C28127   5.522  10.607   5.113  0.7882  0.8861  0.2184
  950MOL0     C28128   5.503  10.527   4.981  0.1508 -0.1935 -0.3167
  950MOL0     C28129   5.616  10.536   4.883 -0.3350 -0.0150  0.3592
  950MOL0     C28130   5.655  10.685   4.837 -0.1146  0.3199 -0.4180
  950MOL0     C28131   5.787  10.684   4.774  0.7660 -0.8777  0.3417
  950MOL0     N28132   5.791  10.596   4.657  0.7073 -0.6074  0.2550
  950MOL0     C28133   5.739  10.624   4.533  0.4840  0.0871  0.2456
  950MOL0     C28134   5.759  10.515   4.453  1.0463  0.4679  0.2663
  950MOL0     C28135   5.689  10.503   4.323 -0.1637  0.3936 -0.3115
  950MOL0     C28136   5.593  10.393   4.299  0.5061  0.9024 -0.0455
  950MOL0     C28137   5.481  10.393   4.404 -0.9560  0.5641  0.2705
  950MOL0     C28138   5.395  10.266   4.391 -0.8640 -0.7708 -0.6097
  950MOL0     O28139   5.263  10.269   4.447  0.6257  0.2942  0.4838
  950MOL0     C28140   5.164  10.354   4.393 -0.3068  0.5510  0.5627
  950MOL0     C28141   5.062  10.366   4.473  1.4277 -0.1315  0.3696
  950MOL0     C28142   4.961  10.450   4.451 -0.3422 -0.0253  0.2495
  950MOL0     C28143   4.845  10.450   4.552  0.1416  1.0609 -0.4852
  950MOL0     C28144   4.952  10.527   4.334  0.6166  0.1874  0.0890
  950MOL0     C28145   4.835  10.605   4.285  0.9961  0.2620 -0.7015
  950MOL0     O28146   4.716  10.562   4.323 -0.2477  0.3219  0.1300
  950MOL0     C28147   4.605  10.591   4.250  0.2379 -0.1169  0.0807
  950MOL0     C28148   4.612  10.585   4.106  0.3895  0.6931 -0.0675
  950MOL0     C28149   4.502  10.588   4.027  0.2998 -0.3146  0.5105
  950MOL0     C28150   4.377  10.589   4.085  0.4237  0.7999 -0.5190
  950MOL0     O28151   4.260  10.577   4.010 -0.4976 -0.3854 -0.1032
  950MOL0     C28152   4.262  10.589   3.870  0.4147 -0.2983  0.4004
  950MOL0     C28153   4.266  10.739   3.840  0.0750 -0.3407  0.5696
  950MOL0     C28154   4.248  10.778   3.693 -0.9271  0.1928  0.2035
  950MOL0     C28155   4.361  10.735   3.601 -0.0965  0.6186  0.6763
  950MOL0     C28156   4.317  10.716   3.460 -0.4772 -0.3311 -0.3606
  950MOL0     C28157   4.291  10.846   3.393  0.4510 -0.2364 -0.5855
  950MOL0     C28158   4.254  10.805   3.245 -0.3124 -0.4749 -0.4680
  950MOL0     C28159   4.200  10.926   3.167  0.4247  0.3520  0.5722
  950MOL0    Cl28160   4.318  11.061   3.181  0.3635  0.4531  0.2096
  950MOL0     C28161   4.363  10.583   4.222  0.0144  0.1218  0.5281
  950MOL0     C28162   4.474  10.594   4.309 -0.3030 -0.2739 -0.2278
  950MOL0     O28163   4.864  10.703   4.210  0.2700  0.1857  0.3881
  950MOL0     C28164   5.057  10.504   4.241 -0.1235 -0.0805 -0.8172
  950MOL0     C28165   5.162  10.420   4.275  0.0944  0.3652  0.2677
  950MOL0     N28166   5.846  10.431   4.522 -0.3184 -0.0513  0.7568
  950MOL0     N28167   5.853  10.482   4.642  0.0359 -0.0928 -0.0353
  950MOL0     C28168   4.930  10.799   5.275  0.0417 -0.0092  0.4337
  950MOL0     C28169   4.802  10.859   5.296 -0.4283 -0.1866  0.4243
  950MOL0     C28170   4.498  11.200   5.189  0.1435  0.0834 -0.2347
  950MOL0     C28171   4.427  11.252   5.082 -0.4522 -0.3217 -0.2886
  950MOL0     C28172   4.316  11.329   5.101  0.5457 -0.8296 -0.5716
  950MOL0     C28173   4.258  11.343   5.230  0.6737  0.2178  0.5870
  950MOL0     O28174   4.154  11.425   5.236 -0.8592 -0.1438  0.2155
  950MOL0     C28175   4.093  11.460   5.355  0.8731 -0.2033  0.6161
  950MOL0     C28176   4.024  11.600   5.336 -0.0251 -0.2699 -0.1508
  950MOL0     C28177   3.895  11.584   5.243 -0.2017 -0.1944 -0.1415
  950MOL0     C28178   3.836  11.721   5.195 -0.6315  0.6643  0.5236
  950MOL0     C28179   3.935  11.818   5.145 -0.1382  0.9456  0.8925
  950MOL0     C28180   4.019  11.886   5.089  0.7881  0.9352 -0.2108
  950MOL0     C28181   4.325  11.280   5.341  0.7166 -0.6009  0.1008
  950MOL0     C28182   4.445  11.208   5.321  0.0394  0.0220  0.3387
  950MOL0     H28183   4.918  11.182   5.257  1.6555 -0.8513 -0.3434
  950MOL0     H28184   5.139  11.077   5.256 -1.0220  0.2290  0.4310
  950MOL0     H28185   5.243  10.822   5.438  1.3215 -0.5965  0.0614
  950MOL0     H28186   5.184  10.656   5.372  0.1319 -0.8068  0.4924
  950MOL0     H28187   5.428  10.788   5.261 -2.4062  0.4791 -0.8678
  950MOL0     H28188   5.438  10.662   5.395  0.6148  0.1213  0.0789
  950MOL0     H28189   5.403  10.492   5.250 -1.7556  0.3335  1.3124
  950MOL0     H28190   5.304  10.576   5.150 -0.1348 -0.3889  0.6680
  950MOL0     H28191   5.546  10.712   5.096  3.1889  0.1837 -1.1771
  950MOL0     H28192   5.608  10.569   5.169  0.7450  0.7706  0.2058
  950MOL0     H28193   5.485  10.424   5.011 -2.5937  0.4813  0.6378
  950MOL0     H28194   5.410  10.550   4.928 -0.0443  0.0155  0.1149
  950MOL0     H28195   5.705  10.492   4.929 -0.6209  1.7624  2.8797
  950MOL0     H28196   5.572  10.478   4.801 -1.1836  1.4270 -0.2484
  950MOL0     H28197   5.584  10.722   4.763  1.8042  3.2657 -0.9793
  950MOL0     H28198   5.652  10.761   4.916 -0.7801 -0.6348  0.5116
  950MOL0     H28199   5.863  10.659   4.849  0.2035 -0.6273  1.0056
  950MOL0     H28200   5.798  10.789   4.746  3.0401 -0.0322  3.7616
  950MOL0     H28201   5.688  10.715   4.503 -0.0576  0.1350  1.2867
  950MOL0     H28202   5.624  10.590   4.306 -1.8945 -0.5543  1.0675
  950MOL0     H28203   5.766  10.504   4.246  0.4429  2.2747  0.2569
  950MOL0     H28204   5.650  10.299   4.302  0.8790  1.0885 -1.0065
  950MOL0     H28205   5.549  10.400   4.199  1.0314 -2.3548 -0.6476
  950MOL0     H28206   5.429  10.489   4.397 -2.0607  0.0589  1.0431
  950MOL0     H28207   5.522  10.399   4.505  0.4684 -2.0581 -0.0708
  950MOL0     H28208   5.456  10.188   4.438  0.2836  0.4777  0.0591
  950MOL0     H28209   5.381  10.238   4.286  1.7830 -1.6150 -0.8098
  950MOL0     H28210   5.059  10.310   4.566 -0.5850 -3.0913 -1.2885
  950MOL0     H28211   4.831  10.553   4.586  4.0669  1.3832  0.6352
  950MOL0     H28212   4.749  10.407   4.522 -0.3730  1.3269  0.7021
  950MOL0     H28213   4.877  10.387   4.636  0.7833 -1.0008 -2.1670
  950MOL0     H28214   4.712  10.563   4.070  0.6590 -0.9789  1.5839
  950MOL0     H28215   4.523  10.599   3.921  2.8066  0.5491  1.0291
  950MOL0     H28216   4.353  10.544   3.828  0.7500  0.2787  0.4969
  950MOL0     H28217   4.169  10.549   3.829 -0.3018  1.7775 -0.1304
  950MOL0     H28218   4.185  10.793   3.891 -1.9466 -2.2061 -0.4819
  950MOL0     H28219   4.365  10.772   3.872  0.0114  0.8127 -0.3581
  950MOL0     H28220   4.228  10.884   3.676  1.0206  0.2412 -2.3663
  950MOL0     H28221   4.163  10.715   3.664  1.6590 -5.4663  3.1705
  950MOL0     H28222   4.436  10.814   3.616 -0.3234  0.3914  3.7178
  950MOL0     H28223   4.404  10.641   3.637  0.6495  0.9486  0.6744
  950MOL0     H28224   4.223  10.660   3.462 -0.2461 -0.7427 -0.7228
  950MOL0     H28225   4.396  10.665   3.403 -1.3595 -0.5714 -1.3997
  950MOL0     H28226   4.210  10.903   3.439 -0.0061  0.0904 -1.7673
  950MOL0     H28227   4.384  10.902   3.406  1.3731 -1.7769 -0.3247
  950MOL0     H28228   4.180  10.724   3.245 -0.5416 -0.4777  4.0943
  950MOL0     H28229   4.347  10.769   3.200  0.9288  2.6409 -0.6198
  950MOL0     H28230   4.108  10.961   3.214 -0.6271 -1.7981  0.2723
  950MOL0     H28231   4.173  10.898   3.065 -2.0155  0.7745  1.0329
  950MOL0     H28232   4.259  10.572   4.253 -0.1477  2.2316  0.8402
  950MOL0     H28233   4.459  10.605   4.416  0.2926 -1.3379 -0.0183
  950MOL0     H28234   5.066  10.567   4.154  0.3000  0.9269 -0.0620
  950MOL0     H28235   5.239  10.409   4.200 -1.3233  0.5349 -1.2809
  950MOL0     H28236   4.932  10.692   5.290 -1.4662 -0.3172 -1.2442
  950MOL0     H28237   4.709  10.806   5.312 -1.0034  1.3092  2.4465
  950MOL0     H28238   4.471  11.232   4.985 -2.2315 -1.4109 -0.9123
  950MOL0     H28239   4.272  11.374   5.012 -1.6770 -0.1514  0.7663
  950MOL0     H28240   4.026  11.377   5.380  3.3094 -2.0334  1.4927
  950MOL0     H28241   4.170  11.465   5.433 -0.8152 -1.8719  2.5018
  950MOL0     H28242   4.099  11.670   5.301  1.7670 -2.7523 -1.6191
  950MOL0     H28243   3.993  11.630   5.437  0.2859  1.4888 -0.5469
  950MOL0     H28244   3.819  11.532   5.303 -0.3074  1.1006  0.8994
  950MOL0     H28245   3.923  11.531   5.151  0.9717 -1.1906  0.7604
  950MOL0     H28246   3.773  11.770   5.270  0.4978  1.7168  0.8304
  950MOL0     H28247   3.771  11.707   5.109  1.1824 -0.1648 -0.7702
  950MOL0     H28248   4.090  11.952   5.043  1.8770 -0.6198 -0.8398
  950MOL0     H28249   4.283  11.297   5.439  4.2317  0.8181  1.5299
  950MOL0     H28250   4.499  11.157   5.401  1.8047 -1.1519 -1.4931
  951MOL0     O28251   5.331   4.406   7.074  0.3084  0.2671 -0.6894
  951MOL0     C28252   5.249   4.490   7.038 -1.2682  1.0043  0.5204
  951MOL0     O28253   5.266   4.573   6.929 -0.7071  0.1774  0.8673
  951MOL0     C28254   5.392   4.570   6.867  0.0851  0.1664  0.1884
  951MOL0     C28255   5.452   4.696   6.851 -0.3322 -0.0259 -0.4850
  951MOL0     C28256   5.569   4.709   6.783 -0.3931  0.5237 -0.1516
  951MOL0     C28257   5.636   4.598   6.728 -0.4981 -0.6423 -0.2099
  951MOL0     O28258   5.763   4.591   6.673  0.2482 -0.0790 -0.1326
  951MOL0     C28259   5.835   4.716   6.650  0.1949  0.1701 -0.2594
  951MOL0     C28260   5.813   4.756   6.503  0.6835 -0.3065  0.2657
  951MOL0     C28261   5.688   4.846   6.480  0.3110 -0.6364  0.0294
  951MOL0     C28262   5.709   4.988   6.534 -0.4786  0.5902  0.3535
  951MOL0     C28263   5.585   5.091   6.513  0.2224  0.7266  0.7989
  951MOL0     C28264   5.467   5.061   6.604 -0.8136 -0.5974  0.2001
  951MOL0     C28265   5.362   5.174   6.620  0.1621 -0.3507 -0.3530
  951MOL0     C28266   5.267   5.145   6.731  0.1778 -0.4343  0.8217
  951MOL0     N28267   5.160   5.235   6.753  0.0524 -0.4092 -0.1354
  951MOL0     C28268   5.164   5.372   6.782  0.6104 -0.2307 -0.2647
  951MOL0     C28269   5.028   5.413   6.761  0.2348 -0.2176  0.1348
  951MOL0     C28270   4.980   5.554   6.774  0.0337  0.6457 -0.6628
  951MOL0     C28271   4.964   5.612   6.633 -0.1827 -0.2733  0.5335
  951MOL0     C28272   4.968   5.770   6.636 -0.5324 -0.3862 -0.0579
  951MOL0     C28273   4.964   5.825   6.492  0.4051 -0.1070  0.5378
  951MOL0     O28274   4.847   5.792   6.422 -0.1481 -0.1712  0.5312
  951MOL0     C28275   4.726   5.846   6.462  0.3991 -0.0277  0.0975
  951MOL0     C28276   4.623   5.762   6.420 -0.1506 -0.3466 -0.0041
  951MOL0     C28277   4.494   5.762   6.484 -0.3444 -0.2978  0.8712
  951MOL0     C28278   4.405   5.661   6.439  0.7833  1.2369 -0.3943
  951MOL0     C28279   4.460   5.868   6.562  0.0158  0.2249 -0.6541
  951MOL0     C28280   4.319   5.923   6.566 -0.0767  0.6216 -0.3049
  951MOL0     O28281   4.299   6.030   6.643 -0.5943  0.3869  0.1852
  951MOL0     C28282   4.179   6.083   6.676  0.2730 -0.0274 -0.2881
  951MOL0     C28283   4.175   6.223   6.666  0.5225  0.3293 -0.1983
  951MOL0     C28284   4.052   6.289   6.702  0.0161 -0.1831  0.6375
  951MOL0     C28285   3.941   6.206   6.745  0.0934 -0.3337 -0.0762
  951MOL0     O28286   3.820   6.254   6.795 -0.2023  0.2635 -0.4984
  951MOL0     C28287   3.837   6.357   6.893  0.1393  0.2085 -0.3342
  951MOL0     C28288   3.704   6.417   6.953  0.2480 -0.5361 -0.0403
  951MOL0     C28289   3.725   6.554   7.014  0.1486  0.9899  0.0561
  951MOL0     C28290   3.595   6.599   7.089 -0.1476  0.4926  0.0280
  951MOL0     C28291   3.604   6.752   7.107  0.2093  0.4491 -0.2348
  951MOL0     C28292   3.494   6.787   7.207 -0.2675  0.6571  0.4082
  951MOL0     C28293   3.493   6.935   7.256  0.1487  0.7346 -0.6515
  951MOL0     C28294   3.392   6.969   7.355  0.1384 -0.9033 -0.0466
  951MOL0    Cl28295   3.236   6.952   7.277  0.2967  0.0179 -0.2012
  951MOL0     C28296   3.951   6.069   6.736  0.2089 -0.6732 -0.4038
  951MOL0     C28297   4.067   6.007   6.701  0.5175  0.1017  0.4267
  951MOL0     O28298   4.232   5.876   6.494 -0.3773  0.5068 -0.6787
  951MOL0     C28299   4.566   5.958   6.599 -0.4195 -0.4007  0.5029
  951MOL0     C28300   4.700   5.942   6.557  0.8278 -1.0277 -0.2747
  951MOL0     N28301   4.952   5.298   6.726 -0.3360  0.7857  0.7920
  951MOL0     N28302   5.041   5.205   6.704  0.8961 -0.1093  0.5289
  951MOL0     C28303   5.568   4.479   6.733 -0.0069 -0.0178 -0.1965
  951MOL0     C28304   5.443   4.468   6.794  1.0314  0.4503  0.0413
  951MOL0     C28305   5.116   4.505   7.107  0.3500 -0.2861 -0.3756
  951MOL0     C28306   5.036   4.612   7.091 -0.0048  0.2758  1.4746
  951MOL0     C28307   4.912   4.622   7.155  0.2385  0.1863 -0.1008
  951MOL0     C28308   4.875   4.521   7.245  0.0525  0.2383  0.5233
  951MOL0     O28309   4.764   4.527   7.326 -0.1925 -0.0063  0.3603
  951MOL0     C28310   4.669   4.634   7.312  0.2856  0.2910  0.2549
  951MOL0     C28311   4.549   4.617   7.409  0.2511 -0.8783 -0.5528
  951MOL0     C28312   4.435   4.716   7.376  0.2674  0.2158  0.3269
  951MOL0     C28313   4.462   4.861   7.409 -0.0451  0.2817 -0.7570
  951MOL0     C28314   4.346   4.949   7.413  0.2565 -0.8902 -0.5112
  951MOL0     C28315   4.260   5.027   7.411  0.1575 -0.6001 -0.1275
  951MOL0     C28316   4.950   4.404   7.246 -0.2797  0.8513 -0.4120
  951MOL0     C28317   5.076   4.400   7.196  0.0074 -0.9526  0.4497
  951MOL0     H28318   5.400   4.778   6.900 -0.8626 -0.8871  0.4331
  951MOL0     H28319   5.610   4.810   6.788  0.9519 -0.0564  0.9836
  951MOL0     H28320   5.797   4.786   6.725 -0.7871 -0.9310  0.3023
  951MOL0     H28321   5.938   4.704   6.684  0.1360  3.4230  1.4375
  951MOL0     H28322   5.903   4.811   6.474 -0.5570  0.0499 -3.3474
  951MOL0     H28323   5.795   4.671   6.437 -2.3750 -0.0456  0.6237
  951MOL0     H28324   5.674   4.851   6.372  1.6712  0.1421 -0.1263
  951MOL0     H28325   5.594   4.811   6.525 -1.0307  2.0412 -0.4778
  951MOL0     H28326   5.730   4.977   6.641 -1.1661 -2.5062  0.2578
  951MOL0     H28327   5.789   5.039   6.481 -2.4323  1.0848 -2.3100
  951MOL0     H28328   5.618   5.194   6.531  2.4237  0.0004  1.3589
  951MOL0     H28329   5.554   5.070   6.411 -1.9015  1.1235  1.3157
  951MOL0     H28330   5.412   4.973   6.569  0.2449 -0.9477 -0.6441
  951MOL0     H28331   5.511   5.039   6.702  2.7817  1.1946 -0.8377
  951MOL0     H28332   5.411   5.270   6.637  0.7074 -0.5505 -0.7459
  951MOL0     H28333   5.310   5.175   6.524 -0.2424 -1.2917 -0.1542
  951MOL0     H28334   5.330   5.148   6.820  1.9915  1.1579 -0.4201
  951MOL0     H28335   5.233   5.041   6.724 -0.8583 -0.0428 -4.2879
  951MOL0     H28336   5.235   5.453   6.798 -1.4977  1.6690  0.0972
  951MOL0     H28337   4.879   5.556   6.815 -0.3829  0.0068 -1.6257
  951MOL0     H28338   5.058   5.607   6.829  1.4540 -1.2579 -0.7447
  951MOL0     H28339   4.868   5.583   6.589  0.0221 -0.7244  0.3770
  951MOL0     H28340   5.050   5.578   6.573 -0.2976  0.3859 -0.0194
  951MOL0     H28341   5.051   5.802   6.699  2.0698 -1.7436 -2.5733
  951MOL0     H28342   4.871   5.792   6.683 -0.6557 -1.3288  0.1571
  951MOL0     H28343   5.057   5.782   6.453  0.3136  0.3208 -0.1733
  951MOL0     H28344   4.974   5.934   6.496  2.4822 -0.2590  0.8499
  951MOL0     H28345   4.661   5.688   6.351 -0.3902  0.8896 -1.5070
  951MOL0     H28346   4.375   5.685   6.336  2.4672  2.4571 -0.6519
  951MOL0     H28347   4.466   5.570   6.433  1.7672  1.7057  1.7372
  951MOL0     H28348   4.319   5.633   6.500 -1.7289  2.4866 -3.0977
  951MOL0     H28349   4.259   6.286   6.641  1.5442 -0.5884  0.8485
  951MOL0     H28350   4.046   6.397   6.702  2.7562  0.0873 -1.7718
  951MOL0     H28351   3.886   6.303   6.976  0.1358 -0.7377 -0.9343
  951MOL0     H28352   3.902   6.440   6.862  2.9972 -1.8554 -0.2709
  951MOL0     H28353   3.624   6.423   6.879 -0.7371  0.5975  1.0672
  951MOL0     H28354   3.661   6.352   7.030 -0.7461 -0.9742 -0.9346
  951MOL0     H28355   3.742   6.630   6.938 -0.7204  2.3113  1.1556
  951MOL0     H28356   3.811   6.559   7.082 -1.3117  4.8029  1.8656
  951MOL0     H28357   3.509   6.560   7.034  1.5466  0.1125 -2.5283
  951MOL0     H28358   3.600   6.541   7.181 -2.0754 -2.0014 -1.3327
  951MOL0     H28359   3.593   6.811   7.015 -0.1829  1.4778  0.4494
  951MOL0     H28360   3.701   6.782   7.148  0.1649 -0.1884  0.3467
  951MOL0     H28361   3.404   6.754   7.155  0.0002 -0.9851  0.9271
  951MOL0     H28362   3.523   6.729   7.296  3.8965  2.4044  0.4018
  951MOL0     H28363   3.471   6.998   7.169  3.1981 -0.3486 -2.3723
  951MOL0     H28364   3.592   6.971   7.285 -0.3939  0.8491  1.1898
  951MOL0     H28365   3.414   7.068   7.395 -0.2906 -0.6870 -0.3329
  951MOL0     H28366   3.394   6.902   7.441 -2.6401 -1.2291 -0.1291
  951MOL0     H28367   3.861   6.013   6.756  0.3880 -0.7632  0.1537
  951MOL0     H28368   4.071   5.899   6.691 -0.7996 -0.1556  2.2119
  951MOL0     H28369   4.536   6.049   6.651  3.1420  0.5554  1.1559
  951MOL0     H28370   4.769   6.015   6.598 -0.2868 -0.0569 -0.0576
  951MOL0     H28371   5.626   4.394   6.699  2.6071  1.8045 -0.5492
  951MOL0     H28372   5.393   4.371   6.792 -0.3817  1.1642 -0.8384
  951MOL0     H28373   5.078   4.695   7.035  1.3186 -0.4218  1.3881
  951MOL0     H28374   4.843   4.705   7.147 -1.2341 -0.8640  1.2593
  951MOL0     H28375   4.726   4.722   7.343 -0.1772  1.4688 -2.0596
  951MOL0     H28376   4.625   4.642   7.213 -0.1733 -0.7928  0.3589
  951MOL0     H28377   4.584   4.640   7.510 -1.9970  0.0623  0.0725
  951MOL0     H28378   4.513   4.515   7.392 -1.7934 -0.2815  0.0083
  951MOL0     H28379   4.346   4.684   7.431  1.0056  2.0020  2.7496
  951MOL0     H28380   4.423   4.713   7.267  0.0265  0.4974  0.3447
  951MOL0     H28381   4.539   4.907   7.347 -0.6697  0.8344 -1.1412
  951MOL0     H28382   4.497   4.875   7.512  0.6793  1.5561 -1.1556
  951MOL0     H28383   4.184   5.103   7.412  0.4160 -0.3401  0.5730
  951MOL0     H28384   4.927   4.320   7.311 -1.1557 -0.5180 -2.3872
  951MOL0     H28385   5.139   4.312   7.195  1.3366 -0.0742 -2.2075
  952MOL0     O28386   9.750   8.263   0.997  0.0207  0.2560  0.8957
  952MOL0     C28387   9.815   8.256   1.097  0.5629 -0.3502 -0.4417
  952MOL0     O28388   9.765   8.245   1.229 -0.4267  0.3741  0.0998
  952MOL0     C28389   9.634   8.269   1.250  0.2840  0.3832 -0.6976
  952MOL0     C28390   9.582   8.395   1.219  0.4778  0.2851  0.3949
  952MOL0     C28391   9.448   8.426   1.240  0.1608 -0.9292  0.0517
  952MOL0     C28392   9.362   8.331   1.293 -0.3322  0.3637 -0.0477
  952MOL0     O28393   9.230   8.349   1.295  0.6578  0.5514 -1.0347
  952MOL0     C28394   9.181   8.472   1.252 -0.0383  0.3376  0.9249
  952MOL0     C28395   9.029   8.486   1.264  0.1107 -0.3807 -0.2711
  952MOL0     C28396   8.976   8.624   1.256  1.2470 -0.8216  0.4465
  952MOL0     C28397   8.819   8.609   1.218 -0.1130  0.0607  1.1436
  952MOL0     C28398   8.729   8.740   1.240 -0.4237 -0.2329 -0.1734
  952MOL0     C28399   8.580   8.699   1.238  1.0358 -1.0116  0.3441
  952MOL0     C28400   8.485   8.819   1.249 -0.7184 -0.0270 -0.0703
  952MOL0     C28401   8.343   8.759   1.240 -0.7985  0.2526 -0.4425
  952MOL0     N28402   8.244   8.860   1.220  1.0109  0.3037  1.0480
  952MOL0     C28403   8.160   8.906   1.316 -0.3022  0.4488 -0.2635
  952MOL0     C28404   8.077   9.002   1.260  0.1803  0.8209 -0.3799
  952MOL0     C28405   7.962   9.061   1.335 -0.9073 -0.2318  0.2246
  952MOL0     C28406   7.843   8.968   1.371 -0.2426  0.0766 -0.0346
  952MOL0     C28407   7.780   8.919   1.240 -0.5282  0.3819  0.2720
  952MOL0     C28408   7.712   9.032   1.154  0.0983 -0.3842 -0.0521
  952MOL0     O28409   7.610   9.111   1.226 -0.5992 -0.1526  0.1682
  952MOL0     C28410   7.475   9.083   1.205 -0.1431 -0.7816  0.4102
  952MOL0     C28411   7.397   9.171   1.281 -0.2093 -0.1219 -0.7076
  952MOL0     C28412   7.259   9.151   1.297 -0.4223 -0.1683 -0.9076
  952MOL0     C28413   7.181   9.261   1.367 -0.1928  0.6856 -0.8087
  952MOL0     C28414   7.205   9.024   1.252  0.3718 -0.5136  0.2028
  952MOL0     C28415   7.073   8.976   1.292  0.1927  0.0229  0.3012
  952MOL0     O28416   6.982   9.068   1.333  0.0954 -0.1106  0.2026
  952MOL0     C28417   6.854   9.039   1.344 -0.1508  0.2894 -0.7388
  952MOL0     C28418   6.813   8.974   1.461 -0.1590 -0.0671 -0.0266
  952MOL0     C28419   6.680   8.938   1.484 -0.4112  1.0468  0.7279
  952MOL0     C28420   6.581   8.972   1.394 -0.0487 -0.0717 -0.1175
  952MOL0     O28421   6.446   8.955   1.415  1.1748  0.0260  0.3546
  952MOL0     C28422   6.378   9.073   1.463 -0.6099  0.0139  0.9103
  952MOL0     C28423   6.230   9.018   1.478 -0.8156  0.3035  0.2114
  952MOL0     C28424   6.174   8.955   1.347 -0.0593 -0.3293 -0.6847
  952MOL0     C28425   6.136   9.063   1.239  1.1582  0.6508  0.2283
  952MOL0     C28426   6.054   8.986   1.127  0.1550  0.6331  0.7614
  952MOL0     C28427   6.038   9.065   0.996 -0.1173  0.3055  0.4737
  952MOL0     C28428   5.955   8.981   0.901  0.7398 -0.7194  0.4486
  952MOL0     C28429   5.962   9.057   0.764  0.2331 -0.2897  0.1103
  952MOL0    Cl28430   5.864   9.203   0.762  0.1384  0.0255  0.2729
  952MOL0     C28431   6.615   9.045   1.283 -0.0844 -0.7025  0.0283
  952MOL0     C28432   6.751   9.074   1.254  0.0201  0.6377  1.1264
  952MOL0     O28433   7.052   8.861   1.262  0.0514  0.0522 -0.3901
  952MOL0     C28434   7.288   8.936   1.172  0.9845  0.2856 -0.3151
  952MOL0     C28435   7.417   8.967   1.148 -0.2077 -0.3108  0.7595
  952MOL0     N28436   8.106   9.004   1.122 -1.0353  0.6862  0.1676
  952MOL0     N28437   8.208   8.923   1.104  0.2362  0.4305  0.5662
  952MOL0     C28438   9.409   8.199   1.321  0.5913 -0.3064  0.5187
  952MOL0     C28439   9.542   8.171   1.307 -0.1354 -0.3335  0.1488
  952MOL0     C28440   9.961   8.257   1.094 -0.3074 -1.0325 -0.5985
  952MOL0     C28441  10.027   8.284   0.975 -0.5453  1.0869  0.5636
  952MOL0     C28442  10.163   8.286   0.962 -0.2785 -0.4799  0.3924
  952MOL0     C28443  10.245   8.256   1.078  0.6842  0.3172  0.8912
  952MOL0     O28444  10.374   8.242   1.076 -1.6964 -0.3269  0.2902
  952MOL0     C28445  10.447   8.256   0.954  0.4289  0.2321 -0.0050
  952MOL0     C28446  10.598   8.277   0.982  0.4413 -0.9415  0.9545
  952MOL0     C28447  10.650   8.143   1.018 -0.6283  0.4996 -0.2636
  952MOL0     C28448  10.788   8.163   1.076 -0.7449 -0.2574 -0.2935
  952MOL0     C28449  10.877   8.228   0.973  0.9133 -0.5311 -0.7450
  952MOL0     C28450  10.936   8.273   0.881 -0.0912  0.4034  0.0050
  952MOL0     C28451  10.180   8.220   1.194  0.7273 -0.2309 -0.2228
  952MOL0     C28452  10.044   8.218   1.204  0.5851 -0.5306 -0.3262
  952MOL0     H28453   9.654   8.471   1.191  0.6329 -0.1773 -0.4722
  952MOL0     H28454   9.403   8.521   1.213 -0.9492 -1.9390 -1.9149
  952MOL0     H28455   9.237   8.545   1.311  4.3688 -1.3115 -0.7623
  952MOL0     H28456   9.203   8.491   1.146 -0.5406  0.8306  0.9043
  952MOL0     H28457   8.991   8.414   1.191 -0.9595 -2.0218  1.7688
  952MOL0     H28458   8.994   8.444   1.359 -1.4726 -2.6873 -1.7742
  952MOL0     H28459   8.996   8.674   1.351 -0.9488 -0.2425  0.6697
  952MOL0     H28460   9.032   8.677   1.179  2.4593 -1.1710  1.0622
  952MOL0     H28461   8.805   8.584   1.113  3.0011  4.8412 -0.7582
  952MOL0     H28462   8.779   8.535   1.289 -0.9259  0.6980  1.3699
  952MOL0     H28463   8.762   8.801   1.325  3.6449 -0.8169 -1.1542
  952MOL0     H28464   8.764   8.785   1.147  2.9838  1.0664  1.5690
  952MOL0     H28465   8.552   8.646   1.147 -2.0068 -2.5783  2.0466
  952MOL0     H28466   8.556   8.633   1.322  2.2186 -0.3076  1.2804
  952MOL0     H28467   8.501   8.879   1.339 -1.8997  1.0492 -0.5424
  952MOL0     H28468   8.493   8.881   1.159 -1.6005  0.1606 -0.0342
  952MOL0     H28469   8.332   8.700   1.332  1.0827 -1.0415 -0.9799
  952MOL0     H28470   8.336   8.690   1.155 -3.0771  2.2201 -1.9579
  952MOL0     H28471   8.173   8.884   1.422 -1.0893 -1.7537 -0.5689
  952MOL0     H28472   7.992   9.115   1.426 -1.6514 -2.2408  1.7323
  952MOL0     H28473   7.918   9.142   1.275 -3.3385 -1.8853 -0.3849
  952MOL0     H28474   7.779   9.022   1.442 -0.6790  0.9086 -1.0430
  952MOL0     H28475   7.887   8.887   1.431  0.4672 -0.2564 -0.9931
  952MOL0     H28476   7.719   8.832   1.267  0.3840 -0.9722 -1.7624
  952MOL0     H28477   7.859   8.882   1.173  0.2761  2.8831 -0.2594
  952MOL0     H28478   7.679   8.992   1.057 -1.8142  2.1331 -0.5255
  952MOL0     H28479   7.789   9.101   1.119  0.5376 -1.0564 -0.4377
  952MOL0     H28480   7.437   9.253   1.340 -1.2509 -0.8077  1.0440
  952MOL0     H28481   7.142   9.231   1.465 -0.4989 -2.6909 -1.8359
  952MOL0     H28482   7.245   9.349   1.380  1.1663 -0.3067 -0.5643
  952MOL0     H28483   7.097   9.296   1.306 -1.5126  1.2191  1.2105
  952MOL0     H28484   6.889   8.944   1.533 -0.7516 -3.4451 -0.6726
  952MOL0     H28485   6.656   8.883   1.575 -0.0689  1.0701  0.8366
  952MOL0     H28486   6.413   9.115   1.558 -2.0214 -0.4215  1.6654
  952MOL0     H28487   6.382   9.150   1.386 -0.1272 -0.3811  0.5354
  952MOL0     H28488   6.248   8.939   1.551  3.4204  1.2509  0.4208
  952MOL0     H28489   6.162   9.095   1.516  1.3727  2.4255  0.1339
  952MOL0     H28490   6.085   8.899   1.377  1.0848 -1.0504  1.5915
  952MOL0     H28491   6.241   8.881   1.302  0.3281  0.1652 -0.9326
  952MOL0     H28492   6.074   9.144   1.278  1.6257  1.3904 -0.5278
  952MOL0     H28493   6.229   9.113   1.211  0.8508  3.7118  3.9047
  952MOL0     H28494   5.955   8.966   1.169 -0.2030  0.3919 -0.1854
  952MOL0     H28495   6.089   8.884   1.113 -0.1278  0.9028 -2.7617
  952MOL0     H28496   5.994   9.163   1.017 -0.4128  0.1772  0.4562
  952MOL0     H28497   6.138   9.086   0.956  0.5200  1.3791  2.4907
  952MOL0     H28498   5.854   8.956   0.932  0.0012  1.3140 -0.1390
  952MOL0     H28499   6.016   8.893   0.879  2.4856  0.0112  2.0458
  952MOL0     H28500   5.918   9.004   0.679  1.0881  0.0655 -0.5647
  952MOL0     H28501   6.064   9.087   0.738 -0.3280  1.4209 -0.2369
  952MOL0     H28502   6.541   9.083   1.213 -1.3972 -1.4073  0.9796
  952MOL0     H28503   6.774   9.133   1.166 -0.2558 -0.3223  0.3916
  952MOL0     H28504   7.252   8.848   1.119  0.3132 -0.7358  1.6952
  952MOL0     H28505   7.459   8.889   1.085 -0.1730  0.3925 -0.0976
  952MOL0     H28506   9.347   8.116   1.354  1.4486 -1.3739 -0.4892
  952MOL0     H28507   9.588   8.077   1.337  0.4299  0.1906  0.9581
  952MOL0     H28508   9.973   8.314   0.886  0.6384  0.2046 -0.4928
  952MOL0     H28509  10.212   8.315   0.870  0.9267  1.1744  1.4886
  952MOL0     H28510  10.427   8.171   0.889 -0.6441  1.8934 -1.9458
  952MOL0     H28511  10.403   8.346   0.910 -0.6945  0.0205  0.6452
  952MOL0     H28512  10.605   8.349   1.064  2.0258 -0.2021  0.2040
  952MOL0     H28513  10.637   8.308   0.885  2.0195 -4.8709  0.1239
  952MOL0     H28514  10.657   8.091   0.922  2.4373  0.2725 -0.0114
  952MOL0     H28515  10.594   8.076   1.083  0.0304 -0.3068 -0.5163
  952MOL0     H28516  10.836   8.066   1.096 -0.7872 -0.2883 -0.3418
  952MOL0     H28517  10.783   8.215   1.172  2.7792  0.0297 -0.1413
  952MOL0     H28518  10.989   8.309   0.795 -0.2668 -2.0806 -1.2283
  952MOL0     H28519  10.227   8.183   1.285 -3.9383  0.8512  3.0163
  952MOL0     H28520  10.006   8.162   1.289 -0.0872 -1.0230 -0.9369
  953MOL0     O28521   7.623   6.620   8.356 -0.4514 -0.0043  0.7725
  953MOL0     C28522   7.543   6.720   8.349 -0.4277  0.2120  0.1809
  953MOL0     O28523   7.542   6.831   8.434 -0.4348 -0.4836  0.8050
  953MOL0     C28524   7.660   6.851   8.509  0.7428 -1.3045 -0.6814
  953MOL0     C28525   7.666   6.827   8.645 -0.6224  0.6618  1.2348
  953MOL0     C28526   7.777   6.869   8.715 -0.3786  0.0504  0.0173
  953MOL0     C28527   7.889   6.920   8.647  0.5774 -0.5035  0.3722
  953MOL0     O28528   8.008   6.931   8.722  0.1693 -0.1807  0.1053
  953MOL0     C28529   8.131   6.985   8.678 -0.1120 -0.0943 -0.4655
  953MOL0     C28530   8.140   7.138   8.686 -0.5183 -0.8720  0.3917
  953MOL0     C28531   8.275   7.191   8.711 -0.4943 -0.7788 -0.1307
  953MOL0     C28532   8.363   7.178   8.590 -0.1814  0.3121 -0.2588
  953MOL0     C28533   8.343   7.272   8.476 -0.1037 -0.2359  0.4148
  953MOL0     C28534   8.440   7.386   8.489  0.5993  1.0668  0.3199
  953MOL0     C28535   8.414   7.476   8.612  0.5059  0.1088  0.6430
  953MOL0     C28536   8.475   7.613   8.597  0.3283 -0.3699  0.3788
  953MOL0     N28537   8.614   7.619   8.643 -0.3677 -0.0297 -0.1644
  953MOL0     C28538   8.712   7.669   8.566  0.4825  0.9369  0.1779
  953MOL0     C28539   8.822   7.659   8.638 -0.7433 -0.2654  0.7821
  953MOL0     C28540   8.970   7.700   8.610  0.2725  0.4163 -0.1846
  953MOL0     C28541   9.064   7.604   8.687  0.6114 -0.5108  0.9885
  953MOL0     C28542   9.101   7.477   8.604 -0.0713 -0.0279 -0.6008
  953MOL0     C28543   8.978   7.389   8.571  0.1098  0.2986 -0.5536
  953MOL0     O28544   9.031   7.279   8.502 -0.8938  0.7390 -0.8686
  953MOL0     C28545   8.937   7.204   8.445  0.2132 -0.5562 -0.2498
  953MOL0     C28546   8.986   7.099   8.376 -0.1991 -1.0728  0.3993
  953MOL0     C28547   8.912   7.005   8.304 -0.4929  0.0041  0.3419
  953MOL0     C28548   8.991   6.907   8.221 -0.6436  0.9153  0.3434
  953MOL0     C28549   8.768   7.015   8.324  0.0191 -0.1674  0.0285
  953MOL0     C28550   8.666   6.925   8.252  0.1766  0.2531 -0.2678
  953MOL0     O28551   8.527   6.959   8.267 -0.3536 -0.6057 -0.3339
  953MOL0     C28552   8.418   6.902   8.211  0.1962 -0.0411  0.0364
  953MOL0     C28553   8.412   6.789   8.129  0.8019  0.5149  0.2466
  953MOL0     C28554   8.284   6.742   8.081  0.7536  0.3156 -0.4755
  953MOL0     C28555   8.169   6.798   8.136 -0.3814 -0.1135 -0.1749
  953MOL0     O28556   8.042   6.757   8.099 -0.0485 -0.2291 -1.0634
  953MOL0     C28557   8.018   6.635   8.027 -0.7640 -0.3571  0.1818
  953MOL0     C28558   7.871   6.614   8.020  0.0374 -0.6348 -0.3719
  953MOL0     C28559   7.806   6.733   7.946 -0.5757  0.6390  0.1664
  953MOL0     C28560   7.661   6.720   7.944 -1.1700 -0.9676 -0.3492
  953MOL0     C28561   7.612   6.820   7.843  0.9401  0.3651  0.0754
  953MOL0     C28562   7.454   6.826   7.840  1.0147 -0.0973 -0.5744
  953MOL0     C28563   7.416   6.948   7.748 -0.4440  0.6507 -0.5657
  953MOL0     C28564   7.269   6.939   7.691 -0.9478 -0.2326 -0.4241
  953MOL0    Cl28565   7.275   6.800   7.581  0.2049 -0.2106  0.1686
  953MOL0     C28566   8.172   6.906   8.222  0.1781  0.1185  0.2137
  953MOL0     C28567   8.299   6.951   8.259  1.0324  0.0507  0.3070
  953MOL0     O28568   8.707   6.829   8.188 -0.6594 -0.6619 -0.5173
  953MOL0     C28569   8.719   7.121   8.400  0.0567 -0.2088 -0.2435
  953MOL0     C28570   8.795   7.211   8.462 -0.1614 -0.2463  0.0079
  953MOL0     N28571   8.779   7.602   8.755 -0.3159 -0.4227  0.1632
  953MOL0     N28572   8.655   7.583   8.762  0.2353 -0.2399 -0.0511
  953MOL0     C28573   7.881   6.942   8.512 -0.1801 -0.0773  1.3268
  953MOL0     C28574   7.760   6.916   8.443 -0.4951 -0.2270  0.2844
  953MOL0     C28575   7.435   6.701   8.248  0.3328  0.1454 -1.2362
  953MOL0     C28576   7.322   6.782   8.254 -0.3396  0.1609  0.0440
  953MOL0     C28577   7.214   6.771   8.160 -0.6431 -0.2251 -1.0498
  953MOL0     C28578   7.217   6.659   8.076  0.1486  0.1665  0.2345
  953MOL0     O28579   7.113   6.629   8.001 -0.4685 -0.5472  0.4724
  953MOL0     C28580   6.976   6.647   8.053  0.1999  0.1306  0.1095
  953MOL0     C28581   6.896   6.547   7.970 -0.7421  0.7332 -1.3560
  953MOL0     C28582   6.966   6.404   7.965  0.6797 -0.1056 -0.1883
  953MOL0     C28583   6.875   6.297   7.909 -0.5833  0.5499  0.1819
  953MOL0     C28584   6.761   6.273   7.993 -0.1141  0.1106 -0.3894
  953MOL0     C28585   6.659   6.278   8.060  0.0424  0.0282 -0.7199
  953MOL0     C28586   7.323   6.565   8.077 -1.2230 -0.4445 -0.4447
  953MOL0     C28587   7.437   6.591   8.150  0.1701 -1.1304  0.8287
  953MOL0     H28588   7.583   6.786   8.701 -2.3465 -0.2408 -1.7590
  953MOL0     H28589   7.782   6.861   8.824 -1.5871 -1.4728 -0.0003
  953MOL0     H28590   8.215   6.943   8.735 -0.2468 -0.2161 -0.3531
  953MOL0     H28591   8.160   6.945   8.581  0.2148  0.5750 -0.6427
  953MOL0     H28592   8.108   7.173   8.587  1.5993 -0.4358 -0.1970
  953MOL0     H28593   8.071   7.181   8.759 -0.6088  1.9823 -1.2171
  953MOL0     H28594   8.270   7.297   8.740  2.9925 -0.1814 -1.3233
  953MOL0     H28595   8.312   7.138   8.799  0.0880  0.2298  0.2483
  953MOL0     H28596   8.463   7.190   8.633 -0.3384 -3.5760  1.6508
  953MOL0     H28597   8.368   7.072   8.560  1.0333  0.3285 -0.1796
  953MOL0     H28598   8.366   7.227   8.379 -3.0189  1.3564 -1.1670
  953MOL0     H28599   8.238   7.303   8.469  0.5718  2.0379 -0.3862
  953MOL0     H28600   8.537   7.337   8.498  0.9138  1.5104 -0.5433
  953MOL0     H28601   8.439   7.445   8.396  1.0063  2.6102  1.2595
  953MOL0     H28602   8.306   7.488   8.621 -0.0174 -3.4616  0.6216
  953MOL0     H28603   8.454   7.424   8.699 -1.7298 -3.3555 -0.1875
  953MOL0     H28604   8.412   7.677   8.659 -0.1870 -2.5041  2.1580
  953MOL0     H28605   8.461   7.644   8.493 -2.4582 -0.3752  0.6701
  953MOL0     H28606   8.697   7.703   8.464  1.5802  0.1764 -0.2439
  953MOL0     H28607   8.999   7.686   8.506  3.8317 -0.3962  0.7834
  953MOL0     H28608   8.985   7.804   8.639 -0.7493  0.7965 -0.9279
  953MOL0     H28609   9.028   7.577   8.787 -2.1055 -3.0279 -0.5281
  953MOL0     H28610   9.163   7.647   8.706  0.8792 -0.4760 -0.4064
  953MOL0     H28611   9.174   7.424   8.666  0.7738  0.8890 -0.7935
  953MOL0     H28612   9.154   7.500   8.511 -1.7305  1.0547 -1.3237
  953MOL0     H28613   8.918   7.450   8.503  0.1804  1.2367  0.1990
  953MOL0     H28614   8.922   7.363   8.662  1.2983 -0.1268  0.0880
  953MOL0     H28615   9.095   7.097   8.379 -0.1616  0.5472  0.6780
  953MOL0     H28616   8.955   6.804   8.230 -1.0676  1.0224 -0.0641
  953MOL0     H28617   8.986   6.939   8.116 -0.8605  2.0942  0.6986
  953MOL0     H28618   9.092   6.912   8.263 -0.5741  1.3011  0.1383
  953MOL0     H28619   8.497   6.726   8.107 -0.3181 -1.0775  0.3686
  953MOL0     H28620   8.286   6.650   8.024 -1.3447 -1.6493  2.3342
  953MOL0     H28621   8.052   6.651   7.924  0.4906 -0.0728  0.6133
  953MOL0     H28622   8.061   6.551   8.082  0.0507  1.0555  1.8399
  953MOL0     H28623   7.858   6.515   7.975 -1.8270 -1.3378  1.5412
  953MOL0     H28624   7.829   6.614   8.121 -0.6069 -3.2477 -0.5633
  953MOL0     H28625   7.850   6.731   7.846  4.2818 -2.5567  2.0158
  953MOL0     H28626   7.837   6.826   7.995 -0.0931  2.0209 -2.5622
  953MOL0     H28627   7.624   6.623   7.911  0.3092 -2.1918  1.4118
  953MOL0     H28628   7.620   6.745   8.042  3.1598  1.7181  1.0228
  953MOL0     H28629   7.654   6.804   7.743 -1.0365 -0.4582 -0.6801
  953MOL0     H28630   7.652   6.918   7.871  0.1002 -0.0327  3.0306
  953MOL0     H28631   7.411   6.735   7.798  0.2638  0.2493 -0.5707
  953MOL0     H28632   7.428   6.840   7.946 -0.4984  0.4395 -1.0077
  953MOL0     H28633   7.495   6.964   7.673 -0.2242  1.1036 -0.2407
  953MOL0     H28634   7.417   7.036   7.813 -0.6380 -0.1361  0.5318
  953MOL0     H28635   7.259   7.032   7.635  1.6903  0.3249 -0.1182
  953MOL0     H28636   7.191   6.936   7.768 -1.3330  2.0933 -0.6532
  953MOL0     H28637   8.079   6.946   8.262  1.2361  0.5900  2.3442
  953MOL0     H28638   8.307   7.027   8.336 -0.1788 -1.4558  2.0149
  953MOL0     H28639   8.613   7.131   8.422 -0.0366  1.1228 -1.1969
  953MOL0     H28640   8.744   7.283   8.526 -1.2885 -1.5518  0.6441
  953MOL0     H28641   7.964   6.973   8.449 -1.8312 -1.8241 -1.9523
  953MOL0     H28642   7.763   6.921   8.335 -0.1964  0.3978  0.3154
  953MOL0     H28643   7.333   6.864   8.325 -1.1129 -1.0871  1.6713
  953MOL0     H28644   7.136   6.846   8.154 -1.1138 -0.7724 -2.0043
  953MOL0     H28645   6.980   6.604   8.153  0.3422 -0.4777 -0.1503
  953MOL0     H28646   6.954   6.754   8.051  1.5393  0.4464  0.9693
  953MOL0     H28647   6.862   6.590   7.875  0.3954  2.6883 -0.9114
  953MOL0     H28648   6.798   6.532   8.016 -0.9786 -3.0728 -2.7386
  953MOL0     H28649   6.985   6.382   8.071  1.8785 -0.1577 -0.4002
  953MOL0     H28650   7.062   6.403   7.913  1.4466 -0.1885  1.1669
  953MOL0     H28651   6.932   6.209   7.879  0.2266  2.1208 -3.4760
  953MOL0     H28652   6.827   6.330   7.816 -0.3348 -0.4923 -0.3341
  953MOL0     H28653   6.567   6.281   8.114  0.2561 -0.1744 -0.3408
  953MOL0     H28654   7.321   6.478   8.013  1.7825 -1.0324  0.0900
  953MOL0     H28655   7.533   6.541   8.139  0.7678  0.3928 -1.5379
  954MOL0     O28656   3.767   4.129   6.358  1.3451  0.0068  0.0444
  954MOL0     C28657   3.818   4.229   6.371 -0.0677 -1.0748  0.3524
  954MOL0     O28658   3.781   4.332   6.449 -0.6732 -0.0438  0.1998
  954MOL0     C28659   3.659   4.328   6.507  0.5259  0.3005 -0.4899
  954MOL0     C28660   3.666   4.347   6.643 -0.2981  0.0865  0.4719
  954MOL0     C28661   3.549   4.356   6.724  0.1180  0.3346 -0.2329
  954MOL0     C28662   3.422   4.344   6.661 -0.0761 -0.1874  0.2898
  954MOL0     O28663   3.304   4.367   6.723 -0.1135 -0.0949 -0.1622
  954MOL0     C28664   3.248   4.273   6.819 -0.8176 -0.1677 -0.6610
  954MOL0     C28665   3.140   4.176   6.766 -0.0004 -0.1103  0.5152
  954MOL0     C28666   3.033   4.236   6.683  0.4181 -0.9701  0.7433
  954MOL0     C28667   2.980   4.374   6.735  0.6628  0.7330  0.0024
  954MOL0     C28668   2.847   4.397   6.671  0.4655  0.2309 -0.3514
  954MOL0     C28669   2.774   4.527   6.713 -0.8730  0.1294  1.3104
  954MOL0     C28670   2.715   4.505   6.850  0.1509 -0.3437 -0.2154
  954MOL0     C28671   2.592   4.422   6.849 -0.4677 -0.2589  0.6877
  954MOL0     N28672   2.480   4.515   6.831  0.7225 -0.0904 -0.4053
  954MOL0     C28673   2.427   4.539   6.705 -0.6888 -0.5062 -0.2832
  954MOL0     C28674   2.307   4.595   6.732 -0.3239 -0.0395 -0.1682
  954MOL0     C28675   2.215   4.623   6.620  0.2202 -0.6575  0.1540
  954MOL0     C28676   2.081   4.692   6.672 -0.6732  0.4064 -0.3715
  954MOL0     C28677   2.107   4.834   6.720  0.5463 -0.8632 -0.5900
  954MOL0     C28678   1.989   4.928   6.700  0.3672  0.4801  0.7324
  954MOL0     O28679   1.891   4.902   6.808 -0.1211 -0.4154 -0.5207
  954MOL0     C28680   1.821   5.012   6.852 -0.4347  0.4214  0.2220
  954MOL0     C28681   1.816   5.052   6.983  0.2757 -0.3403 -0.7419
  954MOL0     C28682   1.739   5.165   7.016  0.5247  0.1582  0.4108
  954MOL0     C28683   1.763   5.236   7.147 -1.1200 -0.0647 -0.2097
  954MOL0     C28684   1.641   5.220   6.920 -0.4913  0.2898 -0.0698
  954MOL0     C28685   1.552   5.337   6.956  0.3837 -0.3160 -0.5435
  954MOL0     O28686   1.529   5.407   6.840  0.2480 -0.2651  0.3214
  954MOL0     C28687   1.440   5.516   6.828  0.9163 -0.3589 -0.4306
  954MOL0     C28688   1.442   5.589   6.707  0.1167  0.7256 -0.5860
  954MOL0     C28689   1.341   5.685   6.691 -0.0855 -0.1008  1.3325
  954MOL0     C28690   1.240   5.712   6.780 -0.4413  0.4582  0.7422
  954MOL0     O28691   1.139   5.804   6.760  0.3316 -0.3429  0.0168
  954MOL0     C28692   1.115   5.867   6.633  0.7978  0.3529 -0.8954
  954MOL0     C28693   1.043   5.777   6.534 -0.7894 -0.5203 -0.3462
  954MOL0     C28694   0.992   5.878   6.426  0.9284 -0.1705 -0.6720
  954MOL0     C28695   0.899   5.802   6.321 -0.0891 -0.1972 -0.4883
  954MOL0     C28696   0.835   5.907   6.242  0.2287  0.4216 -0.1428
  954MOL0     C28697   0.733   5.857   6.142  0.8728 -0.9551  0.2464
  954MOL0     C28698   0.686   5.964   6.043  0.5962 -0.4466 -0.0524
  954MOL0     C28699   0.565   5.923   5.951 -0.6835 -0.5627  0.7854
  954MOL0    Cl28700   0.598   5.780   5.854  0.3783 -0.2800  0.2984
  954MOL0     C28701   1.241   5.635   6.894 -0.9358 -0.8454  0.2632
  954MOL0     C28702   1.342   5.547   6.928 -1.6787  0.4113 -0.2876
  954MOL0     O28703   1.531   5.385   7.070  0.0102  0.7005 -0.1036
  954MOL0     C28704   1.646   5.171   6.790 -0.2595 -0.3065  0.0489
  954MOL0     C28705   1.733   5.063   6.754  1.1577 -1.0675  0.2716
  954MOL0     N28706   2.294   4.619   6.870 -0.3274  0.2920 -0.1148
  954MOL0     N28707   2.394   4.568   6.923 -0.1636  1.0045  0.1262
  954MOL0     C28708   3.416   4.312   6.524 -0.1450 -0.3369 -0.0526
  954MOL0     C28709   3.528   4.311   6.444 -0.0740 -1.0724  0.3891
  954MOL0     C28710   3.946   4.240   6.302 -0.4401  0.0612  0.6730
  954MOL0     C28711   4.031   4.124   6.283  0.7887 -0.2610 -0.3875
  954MOL0     C28712   4.139   4.136   6.185  0.3056 -0.2248 -0.1705
  954MOL0     C28713   4.165   4.255   6.125 -0.3286  0.0468 -0.2220
  954MOL0     O28714   4.256   4.265   6.024  0.3684  0.1135  0.7709
  954MOL0     C28715   4.381   4.194   6.035 -0.1269 -0.5318 -0.4886
  954MOL0     C28716   4.461   4.193   6.167 -0.4193  0.1201 -0.0825
  954MOL0     C28717   4.577   4.086   6.154  0.2662  0.8330 -0.4593
  954MOL0     C28718   4.531   3.946   6.211 -0.6181 -0.5050 -0.6396
  954MOL0     C28719   4.640   3.854   6.210  1.2155 -0.0085 -0.7605
  954MOL0     C28720   4.745   3.790   6.205 -0.2183  0.0139  0.3499
  954MOL0     C28721   4.090   4.371   6.155  0.0299  0.4003  0.3976
  954MOL0     C28722   3.980   4.366   6.245 -0.0219  0.7776  0.2661
  954MOL0     H28723   3.761   4.370   6.689 -0.2157  0.3892  0.1498
  954MOL0     H28724   3.567   4.386   6.826  0.5824 -2.2351  0.5031
  954MOL0     H28725   3.333   4.222   6.864 -1.1371  0.0000  0.1436
  954MOL0     H28726   3.198   4.338   6.892 -0.3257 -0.7603  0.2110
  954MOL0     H28727   3.186   4.092   6.712 -1.0280 -1.7268  2.0581
  954MOL0     H28728   3.091   4.127   6.850 -0.5025 -2.2651 -0.9455
  954MOL0     H28729   3.063   4.247   6.579 -0.3049  1.8428  0.7370
  954MOL0     H28730   2.947   4.169   6.682 -2.0484  1.9521  0.0099
  954MOL0     H28731   2.967   4.379   6.844 -1.1018 -0.2483 -0.1242
  954MOL0     H28732   3.046   4.458   6.712  0.3433  0.7138 -0.9871
  954MOL0     H28733   2.866   4.398   6.563 -0.0302 -1.1509 -0.4699
  954MOL0     H28734   2.784   4.311   6.697  3.3876 -2.2865 -0.9259
  954MOL0     H28735   2.839   4.615   6.710 -3.0094  1.7720 -0.6705
  954MOL0     H28736   2.705   4.565   6.637  1.0210 -0.6651 -0.9038
  954MOL0     H28737   2.791   4.463   6.916  1.2747  2.3665  0.3662
  954MOL0     H28738   2.699   4.604   6.895 -0.6776 -0.2087 -0.8006
  954MOL0     H28739   2.573   4.364   6.939 -1.0529  1.4719  1.7229
  954MOL0     H28740   2.605   4.352   6.766  0.4755 -0.8714  1.3258
  954MOL0     H28741   2.473   4.515   6.609  0.8441  0.6105  0.1181
  954MOL0     H28742   2.266   4.697   6.557 -0.6556 -1.7297 -1.9268
  954MOL0     H28743   2.195   4.528   6.570  1.8555  0.2532 -2.4467
  954MOL0     H28744   2.048   4.628   6.753 -0.6485  1.5815  0.6050
  954MOL0     H28745   2.015   4.684   6.585  0.3783 -0.6751 -1.1122
  954MOL0     H28746   2.190   4.879   6.663  1.5881 -1.5840  0.3205
  954MOL0     H28747   2.125   4.842   6.828  0.8851  1.9032 -0.7664
  954MOL0     H28748   1.936   4.908   6.607  0.6725  0.0177  0.6542
  954MOL0     H28749   2.028   5.030   6.700 -0.7023  0.9472 -1.5251
  954MOL0     H28750   1.874   5.007   7.062  0.8596  2.8777  0.7993
  954MOL0     H28751   1.831   5.184   7.215 -1.2537 -0.4138 -0.3418
  954MOL0     H28752   1.797   5.338   7.128 -0.1845  0.7109  4.4144
  954MOL0     H28753   1.670   5.235   7.205 -0.9042 -2.7611  0.2071
  954MOL0     H28754   1.507   5.548   6.630  0.7858 -1.2554  0.9554
  954MOL0     H28755   1.336   5.742   6.599  2.2983  0.7080  1.6484
  954MOL0     H28756   1.056   5.958   6.647  1.2666  1.1095 -3.3988
  954MOL0     H28757   1.211   5.902   6.594  1.5168 -1.6891 -1.0687
  954MOL0     H28758   1.103   5.702   6.482 -1.8304 -1.4719 -0.2097
  954MOL0     H28759   0.960   5.730   6.587 -2.7585 -0.0524 -2.8362
  954MOL0     H28760   1.071   5.933   6.374  0.8863  1.1805  0.6210
  954MOL0     H28761   0.926   5.946   6.481  1.4001  0.1258 -0.4615
  954MOL0     H28762   0.964   5.741   6.258 -0.2644 -1.5393  0.5854
  954MOL0     H28763   0.826   5.737   6.370  2.1997 -0.7540  2.4791
  954MOL0     H28764   0.919   5.956   6.192 -1.6173  2.6117 -1.2965
  954MOL0     H28765   0.792   5.968   6.321 -0.8292  0.6704 -0.8847
  954MOL0     H28766   0.764   5.778   6.073 -0.7990 -1.4188 -0.0314
  954MOL0     H28767   0.652   5.836   6.214 -0.5069  1.4622 -0.4821
  954MOL0     H28768   0.769   5.988   5.977  0.6600 -2.9210 -0.9677
  954MOL0     H28769   0.648   6.054   6.092  0.7569  0.6108 -1.7868
  954MOL0     H28770   0.556   6.005   5.880  3.0550 -0.0987  0.6792
  954MOL0     H28771   0.472   5.913   6.009 -2.5070 -0.5792 -1.9680
  954MOL0     H28772   1.159   5.653   6.963 -1.1278  0.9047 -0.3633
  954MOL0     H28773   1.345   5.487   7.018  0.6832 -1.4395 -1.4955
  954MOL0     H28774   1.574   5.214   6.722 -1.8121  1.4039  2.5894
  954MOL0     H28775   1.728   5.026   6.652  0.2385  1.9658 -0.9060
  954MOL0     H28776   3.317   4.291   6.484  0.0546 -0.1518 -0.6561
  954MOL0     H28777   3.518   4.294   6.337  2.5093  0.5977 -0.2323
  954MOL0     H28778   4.011   4.024   6.320  0.9207 -0.0279  0.3194
  954MOL0     H28779   4.170   4.038   6.149  0.0903  0.1861 -1.5008
  954MOL0     H28780   4.353   4.089   6.019 -2.2862 -0.4273  1.9098
  954MOL0     H28781   4.451   4.220   5.956  0.8727 -0.0317  0.5273
  954MOL0     H28782   4.402   4.191   6.259  0.5642 -0.8541  0.5584
  954MOL0     H28783   4.518   4.286   6.175  0.9146 -0.7270  0.7222
  954MOL0     H28784   4.664   4.121   6.210  1.4110  0.6252 -2.0252
  954MOL0     H28785   4.609   4.065   6.051  0.6654 -1.7576  0.1110
  954MOL0     H28786   4.440   3.916   6.157 -1.4501  1.3576 -0.3326
  954MOL0     H28787   4.500   3.958   6.315 -0.6221 -1.5193 -0.5097
  954MOL0     H28788   4.828   3.722   6.199  0.2343  0.6221 -0.5683
  954MOL0     H28789   4.109   4.468   6.111  0.2353  0.6494  1.0261
  954MOL0     H28790   3.914   4.451   6.259 -0.8077  0.1471  0.4321
  955MOL0     O28791  10.145   5.510   8.372  0.6956  0.1752  0.3991
  955MOL0     C28792  10.187   5.573   8.277  1.0579 -0.6482 -0.4243
  955MOL0     O28793  10.297   5.655   8.283 -0.1619 -1.0376  0.1849
  955MOL0     C28794  10.363   5.677   8.399  0.4854  0.5161  0.2681
  955MOL0     C28795  10.443   5.583   8.471  0.8006 -0.9110  0.3002
  955MOL0     C28796  10.494   5.621   8.593 -0.3019  0.5350  0.2282
  955MOL0     C28797  10.479   5.751   8.639 -0.0779 -0.9920 -0.6012
  955MOL0     O28798  10.536   5.785   8.758  0.3255  0.5343 -0.2812
  955MOL0     C28799  10.515   5.712   8.878 -0.2965 -0.2100  0.5048
  955MOL0     C28800  10.404   5.780   8.955 -1.0802  1.1752 -0.0140
  955MOL0     C28801  10.387   5.713   9.088  0.0415  0.3430 -0.4750
  955MOL0     C28802  10.304   5.794   9.186 -0.1821 -0.2100  0.2672
  955MOL0     C28803  10.161   5.790   9.135  0.9367  0.6850  0.8095
  955MOL0     C28804  10.069   5.852   9.239  0.0027  0.3716  0.6882
  955MOL0     C28805   9.926   5.854   9.186 -0.4266  0.0136  0.3836
  955MOL0     C28806   9.831   5.895   9.286  0.1146 -0.0874 -0.0370
  955MOL0     N28807   9.752   5.791   9.348 -0.8122  0.3836 -0.4377
  955MOL0     C28808   9.662   5.699   9.297  0.0135 -0.1185  0.4300
  955MOL0     C28809   9.627   5.623   9.400  0.3892 -0.8153  0.4555
  955MOL0     C28810   9.535   5.494   9.409  0.8245  0.1886 -0.2220
  955MOL0     C28811   9.402   5.524   9.342  1.0196  0.0768 -0.5736
  955MOL0     C28812   9.318   5.645   9.392 -0.0030  0.4227 -0.1705
  955MOL0     C28813   9.171   5.651   9.355 -0.0018  0.0202 -0.4827
  955MOL0     O28814   9.101   5.539   9.391 -1.0759  0.2108 -0.4757
  955MOL0     C28815   8.964   5.537   9.378 -0.4286 -0.1323 -0.2303
  955MOL0     C28816   8.894   5.424   9.438 -0.1926 -0.5241  0.4521
  955MOL0     C28817   8.749   5.421   9.444 -0.5323 -0.2899  0.5842
  955MOL0     C28818   8.690   5.304   9.518  0.0106 -0.7199  0.2689
  955MOL0     C28819   8.681   5.529   9.387 -0.3536  0.6728  0.5023
  955MOL0     C28820   8.532   5.537   9.376  0.4594 -0.6348  0.1404
  955MOL0     O28821   8.468   5.444   9.309  0.2403 -0.1321 -0.7665
  955MOL0     C28822   8.336   5.456   9.299  0.8972  0.3953  0.0349
  955MOL0     C28823   8.286   5.558   9.225  0.7500  0.0785  0.0635
  955MOL0     C28824   8.147   5.572   9.198 -0.0104  0.2051 -0.6813
  955MOL0     C28825   8.058   5.472   9.257 -0.1902 -0.0940  0.6518
  955MOL0     O28826   7.923   5.452   9.225  0.2344 -0.9257 -0.6055
  955MOL0     C28827   7.856   5.574   9.169 -0.1859  0.2144  0.2397
  955MOL0     C28828   7.714   5.533   9.143 -0.0700  0.7894  0.7641
  955MOL0     C28829   7.645   5.468   9.258 -0.3243  0.0323  0.4486
  955MOL0     C28830   7.494   5.459   9.212  0.1574 -0.1072 -0.4128
  955MOL0     C28831   7.395   5.405   9.320 -0.2403  0.5459  0.4028
  955MOL0     C28832   7.247   5.390   9.286  0.3114 -0.0487  0.1293
  955MOL0     C28833   7.174   5.341   9.411 -0.2980 -0.2505  0.0229
  955MOL0     C28834   7.027   5.350   9.397 -0.3042  0.4260  0.1120
  955MOL0    Cl28835   6.960   5.502   9.419 -0.3855 -0.5313 -0.1205
  955MOL0     C28836   8.110   5.369   9.339 -1.2026 -0.3060 -0.1906
  955MOL0     C28837   8.250   5.360   9.366 -0.0366  0.0100 -0.4727
  955MOL0     O28838   8.485   5.643   9.418 -0.3053  0.1350 -0.1794
  955MOL0     C28839   8.753   5.636   9.325  0.6820  0.1292 -0.2007
  955MOL0     C28840   8.888   5.643   9.325  0.1538 -0.1606 -0.3315
  955MOL0     N28841   9.695   5.663   9.515 -0.0863  0.0229  0.0828
  955MOL0     N28842   9.759   5.772   9.486  0.0874 -0.6271 -0.0093
  955MOL0     C28843  10.407   5.852   8.556  0.1368  0.8636 -0.0609
  955MOL0     C28844  10.345   5.807   8.439 -1.2051 -0.2506 -0.1809
  955MOL0     C28845  10.108   5.572   8.149  1.3435  0.4479 -1.4108
  955MOL0     C28846   9.972   5.520   8.136 -0.5763 -0.7444 -0.2604
  955MOL0     C28847   9.906   5.531   8.012  0.4970 -0.0280  0.0292
  955MOL0     C28848   9.958   5.609   7.913 -0.4781  0.0364  0.4274
  955MOL0     O28849   9.894   5.647   7.800  0.1934 -0.5631  0.3820
  955MOL0     C28850   9.748   5.612   7.797  0.4862  0.6976  1.4343
  955MOL0     C28851   9.682   5.631   7.658  0.2854  0.7992  0.4808
  955MOL0     C28852   9.718   5.762   7.583 -0.5721  0.2306 -0.3795
  955MOL0     C28853   9.641   5.778   7.452 -0.9282  0.2189  0.2881
  955MOL0     C28854   9.690   5.692   7.342  0.1432 -0.4488  0.3503
  955MOL0     C28855   9.741   5.642   7.248 -0.3889 -0.3453 -0.2321
  955MOL0     C28856  10.084   5.664   7.931 -0.2513 -0.1103  0.3152
  955MOL0     C28857  10.163   5.637   8.044  0.3403 -0.4831  0.3295
  955MOL0     H28858  10.466   5.489   8.421 -0.3307 -1.4579  0.7524
  955MOL0     H28859  10.560   5.555   8.649 -1.0826  0.7490  1.4591
  955MOL0     H28860  10.490   5.606   8.865  1.4776 -0.7654  1.3206
  955MOL0     H28861  10.609   5.719   8.934 -0.7600  3.2598  1.0544
  955MOL0     H28862  10.443   5.881   8.976  1.5426  0.9369 -2.9273
  955MOL0     H28863  10.318   5.783   8.888 -0.6920 -2.4396 -0.8963
  955MOL0     H28864  10.334   5.618   9.075  0.5082  0.2016 -1.4637
  955MOL0     H28865  10.486   5.705   9.134 -0.9127  0.1335  1.6687
  955MOL0     H28866  10.315   5.740   9.280 -1.5001  0.5404  0.8882
  955MOL0     H28867  10.342   5.896   9.195  0.0730 -0.2079 -0.7352
  955MOL0     H28868  10.148   5.843   9.040 -1.2223 -2.9619 -1.1565
  955MOL0     H28869  10.135   5.687   9.107  2.9084  0.4036 -0.1186
  955MOL0     H28870  10.073   5.781   9.322  0.7251  0.7073  0.9489
  955MOL0     H28871  10.113   5.949   9.266 -0.6406  0.8581  0.0443
  955MOL0     H28872   9.928   5.930   9.108 -1.7622  0.7297  1.0029
  955MOL0     H28873   9.900   5.757   9.142  0.1192 -1.9066  3.9399
  955MOL0     H28874   9.757   5.953   9.231 -2.1806 -0.2468  2.6264
  955MOL0     H28875   9.891   5.954   9.356  2.8325 -2.7561  0.1289
  955MOL0     H28876   9.620   5.679   9.199  0.6714 -1.2435  0.3616
  955MOL0     H28877   9.581   5.406   9.365 -2.9005 -0.2071 -3.8578
  955MOL0     H28878   9.521   5.471   9.516 -1.1166  1.0402 -0.2457
  955MOL0     H28879   9.346   5.430   9.343  0.4839  0.3572 -2.1784
  955MOL0     H28880   9.424   5.542   9.236  1.6593 -1.6179 -0.7697
  955MOL0     H28881   9.366   5.739   9.364  1.8170 -0.5690 -0.5312
  955MOL0     H28882   9.325   5.643   9.502 -0.1070 -1.3168 -0.1597
  955MOL0     H28883   9.146   5.687   9.255 -1.8446 -0.7129 -0.3361
  955MOL0     H28884   9.134   5.735   9.415 -1.3562 -0.8487 -0.0612
  955MOL0     H28885   8.955   5.341   9.470  1.3068  0.4880  0.3477
  955MOL0     H28886   8.632   5.236   9.456  3.0519 -1.9220 -1.4980
  955MOL0     H28887   8.769   5.245   9.567  1.2724  0.3820 -0.3673
  955MOL0     H28888   8.617   5.346   9.588  0.1856  4.4250 -2.1835
  955MOL0     H28889   8.349   5.637   9.186 -2.4177  2.4106 -0.7118
  955MOL0     H28890   8.113   5.651   9.132  0.4906  0.9236 -0.0897
  955MOL0     H28891   7.867   5.657   9.239  1.5244 -0.6416  1.0431
  955MOL0     H28892   7.892   5.602   9.069 -0.9118 -0.6720 -0.2793
  955MOL0     H28893   7.656   5.621   9.115 -1.8821  0.9992  4.5686
  955MOL0     H28894   7.714   5.461   9.060 -1.5941  2.7352 -1.0435
  955MOL0     H28895   7.658   5.530   9.347  0.2554 -0.1377  0.4895
  955MOL0     H28896   7.683   5.366   9.271 -1.1528 -0.4941 -1.0438
  955MOL0     H28897   7.457   5.553   9.170 -0.5741 -0.2399 -0.0862
  955MOL0     H28898   7.477   5.390   9.129 -1.5145 -0.2441 -0.0003
  955MOL0     H28899   7.392   5.481   9.398  1.2536 -0.0447  1.0680
  955MOL0     H28900   7.437   5.315   9.366 -1.0861 -0.8879 -1.4866
  955MOL0     H28901   7.209   5.487   9.255 -1.4229 -1.0486 -1.0297
  955MOL0     H28902   7.233   5.319   9.204 -0.5822 -1.3124  1.3087
  955MOL0     H28903   7.214   5.391   9.500 -0.4509  0.5344 -0.3413
  955MOL0     H28904   7.199   5.235   9.411  1.1117  0.0043 -2.4733
  955MOL0     H28905   6.987   5.269   9.459 -0.8184  0.6686  0.1092
  955MOL0     H28906   6.996   5.318   9.296 -0.8635  1.1477  0.0484
  955MOL0     H28907   8.040   5.301   9.387 -0.7921 -1.2603 -0.9259
  955MOL0     H28908   8.276   5.265   9.413 -2.6264  0.4302  2.0496
  955MOL0     H28909   8.692   5.720   9.293 -3.0172 -1.6708  1.5646
  955MOL0     H28910   8.943   5.729   9.287 -1.5002  0.5224 -1.2968
  955MOL0     H28911  10.404   5.958   8.580  1.7018  1.7170 -3.1680
  955MOL0     H28912  10.286   5.886   8.393 -0.3554  0.5383  0.0521
  955MOL0     H28913   9.921   5.476   8.221 -0.3447  0.7994  0.7122
  955MOL0     H28914   9.803   5.497   8.013  0.9571 -1.5412 -0.7755
  955MOL0     H28915   9.729   5.509   7.828 -0.1801 -0.2512 -1.7954
  955MOL0     H28916   9.704   5.675   7.875 -0.0394 -0.9193  2.4947
  955MOL0     H28917   9.573   5.625   7.658  0.2171  1.8319  1.0582
  955MOL0     H28918   9.724   5.549   7.599  3.6365  1.7527  1.2773
  955MOL0     H28919   9.827   5.762   7.571 -0.7150  1.4123 -1.9261
  955MOL0     H28920   9.712   5.852   7.643  0.0144  1.4870 -2.1155
  955MOL0     H28921   9.643   5.882   7.417  3.8671  0.1470 -0.4358
  955MOL0     H28922   9.535   5.755   7.461 -1.0629  0.6377 -0.1942
  955MOL0     H28923   9.789   5.588   7.168  2.2709  2.5596 -0.8281
  955MOL0     H28924  10.116   5.746   7.866  0.5194  0.5869  1.5438
  955MOL0     H28925  10.260   5.686   8.046 -0.4138  1.1036 -0.0973
  956MOL0     O28926   5.229   9.756  10.359 -0.2132 -0.1933 -0.8837
  956MOL0     C28927   5.289   9.685  10.280 -0.0053  0.8423  0.1289
  956MOL0     O28928   5.259   9.672  10.141 -0.5680  0.2296  0.2579
  956MOL0     C28929   5.160   9.761  10.098 -0.3944  0.0177 -0.2386
  956MOL0     C28930   5.201   9.872  10.021 -0.2726  0.5912  0.5479
  956MOL0     C28931   5.108   9.958   9.966  0.8040 -0.5655  0.3724
  956MOL0     C28932   4.971   9.947   9.993 -0.9596  0.6222  0.4779
  956MOL0     O28933   4.877  10.037   9.945 -0.3031 -0.1198  0.3589
  956MOL0     C28934   4.864  10.048   9.804  0.4987 -0.2557  0.6203
  956MOL0     C28935   4.720  10.088   9.773  0.2485  0.1060 -0.4098
  956MOL0     C28936   4.698  10.092   9.620 -1.2748  0.4765 -1.0190
  956MOL0     C28937   4.581  10.171   9.579  0.1582 -1.1346 -0.0057
  956MOL0     C28938   4.604  10.323   9.599  0.5903 -0.6610  0.2403
  956MOL0     C28939   4.481  10.399   9.551  0.0630  0.2720  0.7097
  956MOL0     C28940   4.489  10.547   9.594  1.8075 -0.2229 -0.6382
  956MOL0     C28941   4.369  10.622   9.536 -0.8256 -0.9124 -0.5778
  956MOL0     N28942   4.251  10.596   9.618  0.4002 -0.5398 -0.6853
  956MOL0     C28943   4.241  10.636   9.756  0.2758 -0.6224  0.4137
  956MOL0     C28944   4.147  10.564   9.806 -1.1616  0.4485 -0.0069
  956MOL0     C28945   4.114  10.556   9.955  0.5362  0.0833  0.7827
  956MOL0     C28946   3.999  10.455   9.987 -0.9504 -0.1863  0.0065
  956MOL0     C28947   3.985  10.430  10.135 -0.2944 -0.8241 -0.3893
  956MOL0     C28948   3.927  10.554  10.215  1.2391 -0.1765  0.5238
  956MOL0     O28949   3.781  10.570  10.192 -0.3212  0.2891  0.4189
  956MOL0     C28950   3.688  10.474  10.217 -0.6787  0.2144  0.6066
  956MOL0     C28951   3.714  10.370  10.319 -0.1701 -1.1805 -0.0744
  956MOL0     C28952   3.615  10.264  10.332  0.6271  0.2039  0.3974
  956MOL0     C28953   3.646  10.149  10.421  0.4717  0.0917  0.4580
  956MOL0     C28954   3.490  10.278  10.258 -0.4307  0.0398 -0.0559
  956MOL0     C28955   3.375  10.189  10.277 -0.4045 -0.3111 -0.0727
  956MOL0     O28956   3.253  10.221  10.226  0.2275 -0.1656 -0.3328
  956MOL0     C28957   3.149  10.145  10.260 -0.1688  0.5745 -0.0397
  956MOL0     C28958   3.137  10.004  10.256  0.1557 -0.9059  0.0758
  956MOL0     C28959   3.008   9.941  10.258  0.3963  0.3823  0.0474
  956MOL0     C28960   2.894  10.021  10.285 -0.0887  0.1347  0.0493
  956MOL0     O28961   2.768   9.966  10.295 -0.8876 -0.2366 -0.1398
  956MOL0     C28962   2.661  10.020  10.210 -0.4560 -0.0893  0.8721
  956MOL0     C28963   2.688   9.958  10.069  0.1238 -0.1892 -0.3217
  956MOL0     C28964   2.631   9.824  10.048 -0.0412  0.1783 -0.1298
  956MOL0     C28965   2.479   9.828  10.036  0.8720 -0.3525 -0.3935
  956MOL0     C28966   2.434   9.679  10.002 -0.4721  0.3560 -0.2149
  956MOL0     C28967   2.286   9.661  10.024 -1.0216 -0.1148 -0.3079
  956MOL0     C28968   2.245   9.513  10.033 -0.4296  1.0212 -1.0066
  956MOL0     C28969   2.105   9.481  10.077  0.0824 -0.2489  0.2105
  956MOL0    Cl28970   1.974   9.561   9.969 -0.5127 -0.4287 -0.2393
  956MOL0     C28971   2.910  10.158  10.304 -0.5350  0.1506  0.8328
  956MOL0     C28972   3.035  10.219  10.283  0.0472  0.0012  1.0051
  956MOL0     O28973   3.396  10.087  10.345  0.4840 -0.4015  0.6169
  956MOL0     C28974   3.472  10.384  10.169  0.3763  0.2673  0.5688
  956MOL0     C28975   3.566  10.480  10.147  0.4164  0.4212 -1.2210
  956MOL0     N28976   4.080  10.497   9.705  1.0708  0.2435  0.6610
  956MOL0     N28977   4.147  10.513   9.593  0.5519  0.2994 -0.4032
  956MOL0     C28978   4.931   9.833  10.067 -0.0125 -0.1583 -0.2589
  956MOL0     C28979   5.023   9.737  10.115  0.5215  0.1259  0.3195
  956MOL0     C28980   5.404   9.620  10.326 -0.2741  0.3506  0.2937
  956MOL0     C28981   5.485   9.559  10.227  0.9436 -0.3585  0.5617
  956MOL0     C28982   5.605   9.502  10.256  0.1609 -0.8210 -0.4383
  956MOL0     C28983   5.656   9.499  10.383  0.0837 -0.4734 -0.2099
  956MOL0     O28984   5.771   9.439  10.422  0.2858 -0.8816  0.0514
  956MOL0     C28985   5.810   9.333  10.336 -0.4698 -0.2149  0.2530
  956MOL0     C28986   5.917   9.250  10.408 -0.4996 -0.1440 -1.1624
  956MOL0     C28987   5.973   9.119  10.343 -0.3269  0.6471 -0.3399
  956MOL0     C28988   6.092   9.064  10.415  0.2669 -0.2566  0.3911
  956MOL0     C28989   6.051   9.043  10.554  0.1421  0.8136  0.4131
  956MOL0     C28990   6.021   9.044  10.670 -0.4455 -0.3745 -0.2943
  956MOL0     C28991   5.570   9.565  10.480 -0.0257  0.0085 -0.2850
  956MOL0     C28992   5.447   9.628  10.460  0.5136 -0.4376  0.4321
  956MOL0     H28993   5.308   9.884  10.008 -0.3277  0.6281  0.1172
  956MOL0     H28994   5.149  10.025   9.892  2.6252 -2.6340 -0.6106
  956MOL0     H28995   4.920  10.137   9.774 -3.7402  1.6780 -2.6609
  956MOL0     H28996   4.911   9.966   9.749  3.3760  2.5596 -1.4829
  956MOL0     H28997   4.644  10.020   9.811 -1.0590  2.0400  0.5752
  956MOL0     H28998   4.703  10.181   9.827 -1.1725 -1.5757  2.1969
  956MOL0     H28999   4.783  10.143   9.572  0.0486 -0.6413  0.0595
  956MOL0     H29000   4.686   9.993   9.575 -1.3364 -0.0613  0.1545
  956MOL0     H29001   4.558  10.159   9.472 -1.5052 -0.1697  0.2158
  956MOL0     H29002   4.492  10.145   9.636 -1.8673 -0.9469 -2.8369
  956MOL0     H29003   4.616  10.336   9.707 -0.6380 -0.6921  0.3948
  956MOL0     H29004   4.691  10.359   9.545  0.6179 -0.2126  0.5790
  956MOL0     H29005   4.467  10.393   9.443 -0.4189  4.6152  0.3493
  956MOL0     H29006   4.395  10.349   9.596 -0.4144  1.7651  1.5463
  956MOL0     H29007   4.498  10.558   9.702  2.0175  1.5879 -0.7998
  956MOL0     H29008   4.582  10.593   9.559  0.7430  0.9956 -2.0118
  956MOL0     H29009   4.353  10.590   9.433 -2.8607  0.7741 -0.8553
  956MOL0     H29010   4.391  10.729   9.530  3.2579 -1.5660  0.3743
  956MOL0     H29011   4.318  10.673   9.822  0.6077 -4.4043  2.4292
  956MOL0     H29012   4.207  10.537  10.010  3.0182  0.4244 -2.9635
  956MOL0     H29013   4.077  10.656   9.979  1.8539  0.7120  0.2908
  956MOL0     H29014   4.033  10.363   9.938 -0.2764  1.0369 -1.9618
  956MOL0     H29015   3.907  10.492   9.941 -0.4933  0.7524 -0.1635
  956MOL0     H29016   4.083  10.400  10.174 -0.7010  0.3630  1.7418
  956MOL0     H29017   3.925  10.346  10.171  1.1474 -0.8170  2.3379
  956MOL0     H29018   3.954  10.649  10.168  2.2916 -0.0925  1.2642
  956MOL0     H29019   3.966  10.556  10.317  3.8549 -1.8609 -0.3461
  956MOL0     H29020   3.805  10.370  10.377 -1.3606 -1.1263  1.8666
  956MOL0     H29021   3.630  10.053  10.371  1.0452  0.4302 -0.3883
  956MOL0     H29022   3.748  10.162  10.459  0.1489  4.1580  0.3362
  956MOL0     H29023   3.585  10.149  10.512 -2.7606 -2.6340 -1.4904
  956MOL0     H29024   3.228   9.947  10.241  1.7073  1.9697 -2.8100
  956MOL0     H29025   3.001   9.834  10.248  0.7927 -0.0809  3.5448
  956MOL0     H29026   2.564   9.985  10.246 -0.8312 -0.3135 -0.2825
  956MOL0     H29027   2.659  10.129  10.210 -0.1975 -0.0790  0.2377
  956MOL0     H29028   2.652  10.025   9.991 -0.1131 -0.5354 -0.5124
  956MOL0     H29029   2.796   9.946  10.053 -0.1680 -1.4394 -1.5805
  956MOL0     H29030   2.652   9.759  10.133  3.9204  0.3023 -0.8606
  956MOL0     H29031   2.682   9.790   9.958 -2.7999 -0.0811 -1.7088
  956MOL0     H29032   2.431   9.863  10.127  2.0072 -0.0287  0.0916
  956MOL0     H29033   2.443   9.890   9.953  1.5912  2.7152  1.4298
  956MOL0     H29034   2.479   9.622  10.083  0.8954 -0.5331 -1.5477
  956MOL0     H29035   2.478   9.648   9.907  0.6013 -1.1585  0.7425
  956MOL0     H29036   2.263   9.715  10.117 -0.2772  0.3068 -0.3600
  956MOL0     H29037   2.235   9.710   9.941 -0.7373 -1.6997 -1.4634
  956MOL0     H29038   2.308   9.465  10.109 -0.7413  0.5438 -1.0469
  956MOL0     H29039   2.255   9.460   9.938 -0.5359 -3.1879  1.0974
  956MOL0     H29040   2.085   9.521  10.177  2.3440 -0.9339  0.9842
  956MOL0     H29041   2.093   9.373  10.091  2.6469 -0.6115 -0.0603
  956MOL0     H29042   2.819  10.209  10.335 -1.7634 -1.8734  0.6835
  956MOL0     H29043   3.037  10.327  10.294 -5.5481  0.5439 -0.3245
  956MOL0     H29044   3.388  10.403  10.103  2.3560  0.4667 -2.0409
  956MOL0     H29045   3.550  10.565  10.082  1.0926  1.4949 -0.0281
  956MOL0     H29046   4.824   9.816  10.063 -0.2146  1.0574 -3.3657
  956MOL0     H29047   4.982   9.650  10.165 -2.1123  1.6229  0.8905
  956MOL0     H29048   5.454   9.570  10.124 -0.0370  0.7358  0.9574
  956MOL0     H29049   5.660   9.453  10.176  0.1735 -2.8640  0.7459
  956MOL0     H29050   5.728   9.265  10.313 -0.6606  0.3880 -0.9072
  956MOL0     H29051   5.852   9.368  10.241  0.1150 -1.3108  0.0924
  956MOL0     H29052   5.874   9.219  10.504 -0.6582 -0.3237 -1.2926
  956MOL0     H29053   5.994   9.325  10.430 -0.1881 -0.9771  0.8326
  956MOL0     H29054   6.004   9.141  10.241  0.9234 -1.1168 -0.3794
  956MOL0     H29055   5.898   9.040  10.334  0.1460  0.0958  0.4211
  956MOL0     H29056   6.183   9.121  10.399  1.6404 -3.0039 -2.9056
  956MOL0     H29057   6.101   8.964  10.371  0.6325  0.0179 -0.1666
  956MOL0     H29058   6.010   9.047  10.776  1.9454  1.7046 -0.0038
  956MOL0     H29059   5.612   9.582  10.579 -1.5324  0.4793  0.3018
  956MOL0     H29060   5.394   9.691  10.530 -2.6382 -2.4032 -0.0133
  957MOL0     O29061   8.492   1.506   2.881 -1.1841 -0.0962 -0.2425
  957MOL0     C29062   8.565   1.497   2.785 -1.8943 -0.0453  0.2926
  957MOL0     O29063   8.531   1.557   2.659 -0.3173  0.7970 -0.0007
  957MOL0     C29064   8.416   1.637   2.663 -0.0842  0.3648 -0.7019
  957MOL0     C29065   8.319   1.613   2.568 -0.8092 -1.1352 -0.5713
  957MOL0     C29066   8.203   1.695   2.571 -0.7187 -0.8847  0.0519
  957MOL0     C29067   8.187   1.796   2.666 -0.0376 -0.7725  0.5599
  957MOL0     O29068   8.067   1.866   2.659 -0.0696  0.8188 -0.6042
  957MOL0     C29069   8.068   2.005   2.639  0.2844  0.0102  1.2569
  957MOL0     C29070   7.943   2.032   2.559  0.3039  0.7161 -0.1416
  957MOL0     C29071   7.800   2.008   2.632  0.5133 -1.1017  1.0664
  957MOL0     C29072   7.697   2.021   2.522 -0.1905  0.6232 -0.0695
  957MOL0     C29073   7.554   2.022   2.577  0.6856  0.2920 -0.7226
  957MOL0     C29074   7.503   2.163   2.614  0.8415 -0.3913  0.6986
  957MOL0     C29075   7.354   2.174   2.653 -0.8050 -1.5744  0.0913
  957MOL0     C29076   7.329   2.326   2.680  0.1039 -0.0209 -0.4932
  957MOL0     N29077   7.182   2.340   2.696 -0.0645  0.5627 -0.4112
  957MOL0     C29078   7.077   2.348   2.609 -0.5879  0.0459  0.0196
  957MOL0     C29079   6.968   2.376   2.671 -0.6991 -0.3085 -0.4619
  957MOL0     C29080   6.837   2.432   2.614 -0.1207 -0.3670 -0.3442
  957MOL0     C29081   6.715   2.380   2.677 -0.5552  0.0995 -0.5909
  957MOL0     C29082   6.605   2.482   2.663  0.2125 -0.3511 -0.4256
  957MOL0     C29083   6.472   2.412   2.711 -0.7447  0.8872 -0.1818
  957MOL0     O29084   6.406   2.344   2.605  0.6072  0.1611 -0.7104
  957MOL0     C29085   6.274   2.297   2.606  0.2234 -0.0404  0.4245
  957MOL0     C29086   6.193   2.298   2.718  0.1963  0.4109  0.3072
  957MOL0     C29087   6.066   2.238   2.713  0.1319  0.4364  0.3959
  957MOL0     C29088   5.992   2.253   2.845 -0.4083  0.4044  0.3765
  957MOL0     C29089   6.012   2.173   2.591  0.4475 -0.5242 -1.1499
  957MOL0     C29090   5.885   2.095   2.589  0.5101  0.4445 -0.1358
  957MOL0     O29091   5.779   2.146   2.668  0.2221  0.3155  0.2217
  957MOL0     C29092   5.666   2.061   2.683 -0.0966 -0.4902  1.3064
  957MOL0     C29093   5.633   1.997   2.805 -0.5500  0.4096  0.7394
  957MOL0     C29094   5.522   1.917   2.827 -0.3604 -0.1933  0.3039
  957MOL0     C29095   5.431   1.899   2.716 -0.5316 -0.3735 -0.6061
  957MOL0     O29096   5.317   1.835   2.721  0.2337  0.4138  0.4924
  957MOL0     C29097   5.283   1.762   2.842 -0.6298 -0.4038 -0.3287
  957MOL0     C29098   5.371   1.629   2.866  0.5117 -0.0248  0.8147
  957MOL0     C29099   5.284   1.514   2.843 -0.2660 -0.3220  0.2254
  957MOL0     C29100   5.269   1.510   2.696 -0.5612  0.6549  0.4158
  957MOL0     C29101   5.159   1.414   2.658 -1.1317  0.3406  0.0649
  957MOL0     C29102   5.123   1.426   2.511  0.0105 -0.4588 -0.8531
  957MOL0     C29103   5.225   1.364   2.413  0.3445  0.4547  0.3660
  957MOL0     C29104   5.158   1.305   2.286 -0.8526 -0.5099 -0.8142
  957MOL0    Cl29105   5.079   1.433   2.197  0.3166  0.3539  0.2810
  957MOL0     C29106   5.456   1.965   2.597 -0.6397  0.1748  0.0768
  957MOL0     C29107   5.572   2.049   2.576 -0.2055 -0.5245 -0.3756
  957MOL0     O29108   5.872   2.000   2.507 -0.2123  0.7737  0.7322
  957MOL0     C29109   6.102   2.178   2.484 -0.3758  0.6903  0.3011
  957MOL0     C29110   6.234   2.227   2.497 -0.2004  1.0570  0.6512
  957MOL0     N29111   6.999   2.388   2.801 -0.0368 -0.1741  0.2714
  957MOL0     N29112   7.121   2.359   2.818  0.0169  0.0009 -0.2963
  957MOL0     C29113   8.289   1.831   2.752 -0.3801 -0.4151  0.3405
  957MOL0     C29114   8.407   1.748   2.752  0.2348  0.7732 -0.1041
  957MOL0     C29115   8.682   1.418   2.797  0.5302 -0.1592  0.2816
  957MOL0     C29116   8.739   1.392   2.924  0.2638 -0.6679  0.7380
  957MOL0     C29117   8.852   1.312   2.936  0.4739 -0.5504  0.4109
  957MOL0     C29118   8.921   1.272   2.815 -0.5730  0.4111  0.0750
  957MOL0     O29119   9.037   1.197   2.827 -0.0247  0.3273 -0.0353
  957MOL0     C29120   9.117   1.183   2.707 -0.3170 -0.2573 -0.3024
  957MOL0     C29121   9.256   1.145   2.758  0.1745  0.3326  0.7041
  957MOL0     C29122   9.325   1.254   2.821 -0.1526 -0.3532  0.5930
  957MOL0     C29123   9.454   1.209   2.881 -1.1560 -0.2513  0.3503
  957MOL0     C29124   9.506   1.310   2.974  0.3300 -0.4788  0.0328
  957MOL0     C29125   9.524   1.401   3.054 -1.3154  0.5334 -0.2934
  957MOL0     C29126   8.860   1.309   2.687  0.1500 -0.5002 -0.0463
  957MOL0     C29127   8.742   1.370   2.677  0.1574  0.7621  0.7085
  957MOL0     H29128   8.337   1.530   2.500 -0.5027 -1.0808 -0.5591
  957MOL0     H29129   8.124   1.684   2.497  0.0811 -2.0437 -0.6475
  957MOL0     H29130   8.057   2.051   2.738 -2.2815  0.5324  0.7864
  957MOL0     H29131   8.164   2.032   2.596  0.1372 -1.2215  0.0956
  957MOL0     H29132   7.945   2.137   2.527  2.3119  0.8008  0.1646
  957MOL0     H29133   7.947   1.969   2.470 -0.2972  0.5443 -0.0547
  957MOL0     H29134   7.792   1.910   2.680  0.1807 -2.2695 -1.2265
  957MOL0     H29135   7.787   2.085   2.708 -0.3405  0.3644 -0.5034
  957MOL0     H29136   7.726   2.106   2.460  1.2561 -0.1824 -0.5639
  957MOL0     H29137   7.716   1.936   2.455 -1.0053  0.6048 -0.2869
  957MOL0     H29138   7.476   1.980   2.513 -0.2520 -2.1315  1.7822
  957MOL0     H29139   7.539   1.952   2.661  0.7499  1.3984  0.2366
  957MOL0     H29140   7.569   2.198   2.694  1.0970 -1.5787  1.0164
  957MOL0     H29141   7.519   2.229   2.528 -3.0355  0.6172  0.5273
  957MOL0     H29142   7.295   2.132   2.571  2.5892 -0.0069 -3.4638
  957MOL0     H29143   7.344   2.112   2.742  0.9992 -2.8573 -0.5213
  957MOL0     H29144   7.362   2.394   2.601 -1.1658  0.1834 -0.8811
  957MOL0     H29145   7.382   2.357   2.771 -0.0653 -0.7917 -0.1242
  957MOL0     H29146   7.090   2.346   2.501  0.1846  1.2224  0.0704
  957MOL0     H29147   6.846   2.541   2.610  2.3951 -0.5441 -2.1254
  957MOL0     H29148   6.855   2.407   2.509  1.5989 -2.6499  0.4115
  957MOL0     H29149   6.726   2.367   2.785 -0.2311  1.8864 -0.3745
  957MOL0     H29150   6.687   2.286   2.630 -1.4972  1.3314 -2.6349
  957MOL0     H29151   6.597   2.517   2.559 -1.2243  3.8789  0.9234
  957MOL0     H29152   6.621   2.569   2.726 -1.9202 -0.5084  0.4379
  957MOL0     H29153   6.400   2.480   2.757 -0.9948  0.2454  0.3946
  957MOL0     H29154   6.497   2.337   2.787  1.1368 -1.9590 -3.3144
  957MOL0     H29155   6.224   2.351   2.808  2.1184 -3.2276  2.0115
  957MOL0     H29156   6.063   2.286   2.922  1.6203 -3.5467  0.4838
  957MOL0     H29157   5.917   2.330   2.832  0.0765  1.1110  1.5803
  957MOL0     H29158   5.955   2.154   2.875  1.7448 -1.1759 -1.7443
  957MOL0     H29159   5.707   2.014   2.883  2.7407  0.9649 -2.2228
  957MOL0     H29160   5.500   1.880   2.927  1.4814 -0.1982  0.7440
  957MOL0     H29161   5.304   1.833   2.923 -0.5963 -0.5795 -0.1839
  957MOL0     H29162   5.178   1.733   2.838 -0.2617 -1.6356 -2.0287
  957MOL0     H29163   5.458   1.624   2.800 -1.7660 -1.1081 -2.3899
  957MOL0     H29164   5.412   1.615   2.966  0.5929  0.2799  0.8260
  957MOL0     H29165   5.188   1.523   2.894 -0.6850  0.5682 -0.6861
  957MOL0     H29166   5.332   1.426   2.886  0.7808 -1.1474 -2.3782
  957MOL0     H29167   5.240   1.608   2.656  2.9506  1.7006  0.1464
  957MOL0     H29168   5.364   1.487   2.646  0.1344 -2.1627  2.7956
  957MOL0     H29169   5.068   1.434   2.714 -0.8028  2.0221  0.0494
  957MOL0     H29170   5.192   1.310   2.669 -1.9232  0.1184  0.3684
  957MOL0     H29171   5.025   1.379   2.506  0.8242 -2.3558 -0.0718
  957MOL0     H29172   5.113   1.533   2.496 -0.1968 -0.2199  0.7653
  957MOL0     H29173   5.287   1.288   2.460  0.6417  0.2891 -0.2783
  957MOL0     H29174   5.293   1.445   2.385  3.5104 -1.8183  0.9906
  957MOL0     H29175   5.095   1.221   2.315 -1.3104  0.5534  1.5617
  957MOL0     H29176   5.226   1.256   2.216 -0.8445  0.0652 -1.2126
  957MOL0     H29177   5.395   1.936   2.512  0.2972  5.1378 -2.6162
  957MOL0     H29178   5.608   2.099   2.487 -0.2671 -0.3987 -0.3302
  957MOL0     H29179   6.061   2.138   2.392  0.0856  0.0460  0.3680
  957MOL0     H29180   6.296   2.213   2.409 -1.1293 -0.2190  0.1571
  957MOL0     H29181   8.277   1.918   2.816  0.4570  0.6932 -0.9500
  957MOL0     H29182   8.489   1.782   2.814  0.7614 -0.0720 -0.3187
  957MOL0     H29183   8.684   1.422   3.013 -1.0177  1.5889 -0.7115
  957MOL0     H29184   8.885   1.287   3.036 -0.6988  0.8769  1.1957
  957MOL0     H29185   9.077   1.096   2.654  1.5207 -2.2989  1.3971
  957MOL0     H29186   9.122   1.273   2.646 -0.0574 -0.5159 -0.6646
  957MOL0     H29187   9.318   1.119   2.671 -1.4231  2.0939 -1.0670
  957MOL0     H29188   9.259   1.059   2.825  1.1705  0.8488  1.3397
  957MOL0     H29189   9.262   1.288   2.904  1.3797  1.3347  1.1296
  957MOL0     H29190   9.337   1.338   2.752 -1.0106 -0.8208 -0.1429
  957MOL0     H29191   9.530   1.183   2.807 -0.6550 -2.5168  1.5668
  957MOL0     H29192   9.425   1.122   2.941  0.4938 -2.1096 -1.4084
  957MOL0     H29193   9.540   1.477   3.128  1.2065  2.0352 -2.2153
  957MOL0     H29194   8.916   1.281   2.598  0.6206 -1.5902  0.5850
  957MOL0     H29195   8.690   1.374   2.582  0.4187 -0.6864  0.4758
  958MOL0     O29196   6.994   4.156   9.922  0.4242  0.0268  0.0928
  958MOL0     C29197   7.115   4.179   9.937 -0.1285 -0.0891  1.1890
  958MOL0     O29198   7.167   4.307   9.943  0.0491 -0.6912 -0.1471
  958MOL0     C29199   7.072   4.405   9.947  0.7634  0.6160  1.3326
  958MOL0     C29200   7.048   4.462  10.070 -0.0123 -0.0406  0.6521
  958MOL0     C29201   6.959   4.571  10.078  0.3207 -0.2440 -0.3298
  958MOL0     C29202   6.903   4.623   9.960  0.0904 -0.8780  0.5378
  958MOL0     O29203   6.820   4.734   9.965  0.0507 -0.9685  0.4507
  958MOL0     C29204   6.853   4.852   9.896  0.2763 -0.5016  0.3378
  958MOL0     C29205   6.744   4.898   9.808  0.1652  0.5051  1.0716
  958MOL0     C29206   6.616   4.935   9.868  0.8193 -0.4167 -0.3063
  958MOL0     C29207   6.514   4.976   9.758 -0.1966 -0.0310 -0.4136
  958MOL0     C29208   6.375   4.996   9.811 -0.1865 -0.9349 -0.3673
  958MOL0     C29209   6.369   5.108   9.907  0.3332 -0.1900  0.5352
  958MOL0     C29210   6.238   5.181   9.900  0.2592  0.3446  0.3231
  958MOL0     C29211   6.220   5.317   9.976  0.0246 -0.3421  0.3053
  958MOL0     N29212   6.174   5.300  10.115  0.4982  0.0260  0.2095
  958MOL0     C29213   6.121   5.406  10.188  0.3116 -0.6812 -1.4911
  958MOL0     C29214   6.160   5.374  10.314 -0.4134  0.8380 -0.6341
  958MOL0     C29215   6.137   5.462  10.431  0.0294 -0.6928  1.1878
  958MOL0     C29216   6.062   5.390  10.548  0.6268  0.3347  0.8723
  958MOL0     C29217   6.003   5.504  10.636 -0.0817 -0.2218 -0.8318
  958MOL0     C29218   5.976   5.456  10.776 -0.4461  0.3980  0.9635
  958MOL0     O29219   5.866   5.365  10.785 -0.0559 -0.4873  0.6997
  958MOL0     C29220   5.739   5.402  10.765 -0.0965 -0.4765  0.2692
  958MOL0     C29221   5.689   5.534  10.768  0.2956  0.7668  0.0226
  958MOL0     C29222   5.551   5.564  10.744 -0.8000 -0.2222  0.3737
  958MOL0     C29223   5.514   5.704  10.784 -0.1679  0.5405  0.7721
  958MOL0     C29224   5.469   5.461  10.698  0.9778  1.1478  0.0258
  958MOL0     C29225   5.321   5.469  10.650 -0.5324  0.0794 -0.3532
  958MOL0     O29226   5.275   5.354  10.598  0.1087 -0.4979 -0.3764
  958MOL0     C29227   5.134   5.344  10.600 -0.6459 -0.1820  0.7276
  958MOL0     C29228   5.062   5.350  10.723 -0.3302  0.8056  0.8443
  958MOL0     C29229   4.921   5.358  10.727  0.9380 -0.1964  0.4004
  958MOL0     C29230   4.856   5.362  10.607  0.9316  0.0447  0.9978
  958MOL0     O29231   4.720   5.386  10.617 -0.0209 -0.6926 -0.0840
  958MOL0     C29232   4.635   5.294  10.541 -0.7224 -0.0220  0.2923
  958MOL0     C29233   4.484   5.322  10.555 -0.2942  0.3238  0.1531
  958MOL0     C29234   4.450   5.352  10.704  1.2837  0.3462  0.0810
  958MOL0     C29235   4.525   5.256  10.804 -0.7818 -0.2300 -0.2246
  958MOL0     C29236   4.508   5.303  10.947 -0.1937 -0.2169  0.3741
  958MOL0     C29237   4.506   5.186  11.045  0.1034  1.0613 -0.6251
  958MOL0     C29238   4.505   5.233  11.189  0.5897  0.0200  0.6081
  958MOL0     C29239   4.502   5.123  11.296  0.1647 -0.0086 -0.0765
  958MOL0    Cl29240   4.356   5.025  11.304  0.3781  0.4215  0.0457
  958MOL0     C29241   4.920   5.352  10.487 -0.2063 -0.2827  1.5278
  958MOL0     C29242   5.060   5.348  10.482 -0.0516  0.1123  0.5092
  958MOL0     O29243   5.253   5.569  10.659 -0.2987 -0.5731 -0.2616
  958MOL0     C29244   5.521   5.327  10.695  0.3328 -1.0390  0.0103
  958MOL0     C29245   5.650   5.299  10.739  0.0643  0.4677 -0.5791
  958MOL0     N29246   6.229   5.255  10.315 -0.0702 -0.0271  0.0949
  958MOL0     N29247   6.220   5.205  10.193  0.4576 -0.3795 -0.2333
  958MOL0     C29248   6.924   4.563   9.837  0.0569  0.4714  0.1079
  958MOL0     C29249   7.001   4.454   9.833 -0.2250  0.4964  0.3620
  958MOL0     C29250   7.198   4.063   9.966 -1.0391 -0.4242 -0.5497
  958MOL0     C29251   7.334   4.080  10.000 -0.4605 -0.2974  0.0644
  958MOL0     C29252   7.412   3.967  10.032  0.4961 -0.8290  0.3471
  958MOL0     C29253   7.353   3.840  10.032  0.7407 -0.2591 -0.2366
  958MOL0     O29254   7.420   3.729  10.068 -0.2925  0.4034 -0.0700
  958MOL0     C29255   7.547   3.741  10.138 -1.0483  0.7401 -0.1785
  958MOL0     C29256   7.535   3.799  10.281 -0.1868 -0.1475  0.3986
  958MOL0     C29257   7.671   3.804  10.348 -0.1372  0.3124  0.7425
  958MOL0     C29258   7.661   3.775  10.500  0.0853  0.0401  0.4430
  958MOL0     C29259   7.619   3.638  10.526  0.2919 -0.4828  0.4600
  958MOL0     C29260   7.598   3.525  10.564 -0.0957  0.1089  0.8334
  958MOL0     C29261   7.223   3.825   9.995 -0.0288 -0.3200 -0.2630
  958MOL0     C29262   7.150   3.936   9.965  0.4387 -0.5916  0.4246
  958MOL0     H29263   7.100   4.406  10.147  0.4176 -2.4765 -1.2859
  958MOL0     H29264   6.941   4.616  10.176 -0.2404  1.4659 -1.1794
  958MOL0     H29265   6.881   4.936   9.961 -1.7035 -0.2385  0.9136
  958MOL0     H29266   6.944   4.831   9.838  0.4443  1.6513 -0.2536
  958MOL0     H29267   6.779   4.984   9.749 -1.4245  1.7619  1.8873
  958MOL0     H29268   6.724   4.811   9.745 -0.1284  2.2129 -1.3534
  958MOL0     H29269   6.569   4.855   9.926 -2.9761  1.6062 -0.2496
  958MOL0     H29270   6.636   5.016   9.939 -0.5210 -1.1092  0.9146
  958MOL0     H29271   6.563   5.068   9.725 -0.3056  1.6698  3.5952
  958MOL0     H29272   6.521   4.892   9.688  6.0784 -0.5886  0.3042
  958MOL0     H29273   6.313   5.022   9.724 -1.2729 -1.9733  0.0757
  958MOL0     H29274   6.329   4.913   9.864 -0.9159  3.0326  6.3089
  958MOL0     H29275   6.391   5.079  10.011 -1.3005  4.8591  2.5758
  958MOL0     H29276   6.444   5.179   9.873 -1.7343  1.2309 -1.3152
  958MOL0     H29277   6.217   5.209   9.797  3.0375  0.5136 -0.2777
  958MOL0     H29278   6.160   5.114   9.935  1.0510 -0.1447  1.2094
  958MOL0     H29279   6.151   5.376   9.916 -0.9829 -1.2174  0.5746
  958MOL0     H29280   6.315   5.370   9.971  0.0097 -0.4401 -1.4104
  958MOL0     H29281   6.079   5.497  10.144 -0.7203 -0.1611  0.4682
  958MOL0     H29282   6.229   5.501  10.475 -0.7295  2.6004  0.1019
  958MOL0     H29283   6.088   5.553  10.394  3.8281  2.4060  3.0524
  958MOL0     H29284   6.136   5.322  10.592 -0.7845 -1.0676  1.1973
  958MOL0     H29285   5.981   5.334  10.499  0.9109  0.8704 -0.2447
  958MOL0     H29286   5.910   5.543  10.591 -1.8113 -1.2553  1.6116
  958MOL0     H29287   6.084   5.577  10.632  0.9254 -1.3827 -1.9244
  958MOL0     H29288   5.961   5.544  10.839  1.2567  2.0011 -0.7400
  958MOL0     H29289   6.070   5.417  10.817 -0.2675 -2.4847 -1.8114
  958MOL0     H29290   5.756   5.617  10.790  0.8228  0.3323  0.0777
  958MOL0     H29291   5.583   5.773  10.735  0.1717 -1.0277 -1.0988
  958MOL0     H29292   5.415   5.730  10.745  0.4643 -0.8095 -1.9800
  958MOL0     H29293   5.518   5.715  10.893 -2.0180 -0.5390  0.9982
  958MOL0     H29294   5.121   5.346  10.814  2.1217 -1.5114 -0.7083
  958MOL0     H29295   4.879   5.378  10.825  2.1872  0.3302  0.8576
  958MOL0     H29296   4.664   5.303  10.436 -0.1241 -1.2231  0.3422
  958MOL0     H29297   4.642   5.190  10.573  1.5086 -0.0430 -0.0925
  958MOL0     H29298   4.446   5.399  10.487 -0.0700 -1.6825 -2.3601
  958MOL0     H29299   4.426   5.238  10.516 -2.2052  2.1799 -1.2409
  958MOL0     H29300   4.344   5.329  10.718  1.4725 -1.2296 -0.7338
  958MOL0     H29301   4.469   5.454  10.736 -0.0400  0.8363 -0.5969
  958MOL0     H29302   4.480   5.158  10.784 -0.5763 -0.9621  2.4997
  958MOL0     H29303   4.633   5.253  10.786 -0.2710 -0.4834  2.4707
  958MOL0     H29304   4.407   5.345  10.948 -1.0043 -1.8121 -2.4897
  958MOL0     H29305   4.580   5.380  10.976 -1.2305  0.0633  2.3762
  958MOL0     H29306   4.413   5.129  11.037 -1.3130  2.9826  1.1839
  958MOL0     H29307   4.589   5.117  11.030 -1.8856 -1.0218 -3.0415
  958MOL0     H29308   4.428   5.309  11.206  0.9667  1.6783 -3.8695
  958MOL0     H29309   4.599   5.289  11.193  0.5422  0.2990 -1.3814
  958MOL0     H29310   4.515   5.169  11.395  0.6608 -2.4511  1.0777
  958MOL0     H29311   4.588   5.057  11.282 -0.7105 -1.3288  0.5982
  958MOL0     H29312   4.872   5.352  10.389  1.9045 -0.0751  0.4454
  958MOL0     H29313   5.119   5.361  10.391  0.0454  0.1147  0.5721
  958MOL0     H29314   5.461   5.245  10.658 -1.0602  0.3538 -0.9706
  958MOL0     H29315   5.677   5.194  10.741  1.2694  0.7633  0.3277
  958MOL0     H29316   6.888   4.596   9.740 -0.0734 -2.0242 -0.7611
  958MOL0     H29317   7.035   4.408   9.740  0.8132 -1.1056  1.4748
  958MOL0     H29318   7.389   4.173   9.990 -0.6035 -0.4219 -2.5894
  958MOL0     H29319   7.516   3.990  10.051  0.2458 -1.4133  2.7562
  958MOL0     H29320   7.579   3.637  10.149 -1.8603  0.4925 -0.0669
  958MOL0     H29321   7.619   3.798  10.079 -1.4721 -0.0722 -1.5470
  958MOL0     H29322   7.472   3.725  10.330  0.3245 -2.9175 -2.7665
  958MOL0     H29323   7.473   3.890  10.277 -0.8733 -0.6553 -1.8199
  958MOL0     H29324   7.712   3.904  10.334  0.1845 -0.0238 -0.9310
  958MOL0     H29325   7.746   3.733  10.313 -2.5058 -2.7351  1.4206
  958MOL0     H29326   7.590   3.839  10.553 -1.1347 -1.5985  0.8476
  958MOL0     H29327   7.761   3.786  10.544  1.2497 -1.0623 -1.7399
  958MOL0     H29328   7.582   3.422  10.587  0.2075 -0.3202 -0.8221
  958MOL0     H29329   7.180   3.727  10.013 -1.3714  0.6421  2.1506
  958MOL0     H29330   7.042   3.926   9.961  0.2913 -0.1310  2.3605
  959MOL0     O29331   8.202   5.398   7.029 -0.4405  0.7065 -0.7388
  959MOL0     C29332   8.267   5.362   6.933 -0.2425 -0.1498  0.4122
  959MOL0     O29333   8.228   5.266   6.842 -0.1099  0.3817  0.0808
  959MOL0     C29334   8.106   5.204   6.849 -0.6999  0.4957 -0.3380
  959MOL0     C29335   8.082   5.082   6.922  0.8726  0.0109  0.4049
  959MOL0     C29336   7.956   5.034   6.937 -0.5090  0.1329  0.4332
  959MOL0     C29337   7.841   5.104   6.886 -0.3040 -1.2002 -0.0747
  959MOL0     O29338   7.715   5.051   6.930  0.0961  0.3862 -0.0724
  959MOL0     C29339   7.601   5.133   6.930  0.2764  0.3988 -0.2628
  959MOL0     C29340   7.478   5.059   6.985  0.8486  0.4988  0.1257
  959MOL0     C29341   7.355   5.137   6.993 -0.6041  0.2821 -0.2367
  959MOL0     C29342   7.227   5.043   6.980 -0.2336 -0.0962 -0.0331
  959MOL0     C29343   7.107   5.112   7.045  0.2741 -0.1807  0.4768
  959MOL0     C29344   7.107   5.098   7.195 -0.4702  0.7353  0.4883
  959MOL0     C29345   6.977   5.142   7.255 -0.6697  0.7678 -0.4624
  959MOL0     C29346   6.961   5.292   7.264 -0.2080 -0.2325 -0.0396
  959MOL0     N29347   6.825   5.314   7.319 -0.4567 -0.7605 -0.4523
  959MOL0     C29348   6.779   5.268   7.438 -0.1069 -0.7984 -0.5046
  959MOL0     C29349   6.645   5.295   7.438 -0.1161 -0.1208 -0.6591
  959MOL0     C29350   6.536   5.272   7.546 -0.6435 -0.1243 -0.0341
  959MOL0     C29351   6.547   5.142   7.623 -0.0249 -0.5863  0.8727
  959MOL0     C29352   6.441   5.132   7.733  0.2134  0.2718 -0.2248
  959MOL0     C29353   6.482   5.022   7.834  0.3983 -0.5226 -0.2733
  959MOL0     O29354   6.369   4.985   7.922 -1.3957 -0.9066 -0.1516
  959MOL0     C29355   6.291   4.881   7.885  0.9158  0.3196 -0.6985
  959MOL0     C29356   6.314   4.789   7.783  0.2213  0.0695 -0.2778
  959MOL0     C29357   6.232   4.685   7.750  1.5322  0.4269 -0.1904
  959MOL0     C29358   6.273   4.586   7.655  0.5120  0.9165 -0.5360
  959MOL0     C29359   6.111   4.673   7.822 -0.5445  0.3386 -0.4333
  959MOL0     C29360   6.008   4.576   7.792 -0.0232 -0.8402  0.5794
  959MOL0     O29361   5.873   4.615   7.796  0.8440 -0.0955  0.2645
  959MOL0     C29362   5.775   4.522   7.784 -0.1600 -0.6538  0.1935
  959MOL0     C29363   5.655   4.531   7.848  0.0181  1.1610 -0.7116
  959MOL0     C29364   5.547   4.438   7.826  0.3904 -0.3294 -0.3719
  959MOL0     C29365   5.557   4.334   7.735 -0.0430 -1.0733 -0.4570
  959MOL0     O29366   5.463   4.247   7.708  0.0932  1.2120 -0.4618
  959MOL0     C29367   5.385   4.197   7.823 -0.2914  0.3789  0.2730
  959MOL0     C29368   5.290   4.086   7.804  0.9480 -0.2836  0.6866
  959MOL0     C29369   5.327   3.941   7.776 -0.0506  0.5068 -0.2761
  959MOL0     C29370   5.310   3.897   7.632 -0.8329  0.1893  0.5695
  959MOL0     C29371   5.415   3.953   7.533 -0.6152  1.1809 -1.0612
  959MOL0     C29372   5.366   3.917   7.390  0.4981 -0.4745 -0.4158
  959MOL0     C29373   5.484   3.904   7.298 -0.3594 -0.1287  0.4310
  959MOL0     C29374   5.534   4.045   7.269 -0.1785  0.0567 -0.6914
  959MOL0    Cl29375   5.667   4.038   7.150 -0.1840 -0.3299  0.1445
  959MOL0     C29376   5.681   4.320   7.672  0.5487  0.4145 -0.4009
  959MOL0     C29377   5.781   4.419   7.683  0.4829  0.1006 -1.1532
  959MOL0     O29378   6.048   4.461   7.771  0.0672 -0.3777 -0.4633
  959MOL0     C29379   6.083   4.766   7.923 -0.5430  0.6981  0.3941
  959MOL0     C29380   6.177   4.861   7.953  0.5075  0.2488  0.1773
  959MOL0     N29381   6.611   5.355   7.319 -0.3957 -0.0486  0.3684
  959MOL0     N29382   6.717   5.373   7.256 -0.5550  0.7843 -0.2217
  959MOL0     C29383   7.868   5.230   6.819  0.3434  0.4519 -0.6028
  959MOL0     C29384   7.998   5.275   6.802  0.6704 -0.1609  0.6444
  959MOL0     C29385   8.405   5.413   6.929 -1.4757 -0.5725  0.3901
  959MOL0     C29386   8.457   5.520   7.005  0.8281 -0.0392  1.5936
  959MOL0     C29387   8.585   5.563   6.992 -0.4093 -0.4126  0.1156
  959MOL0     C29388   8.674   5.495   6.904 -0.5604  0.2917 -0.1881
  959MOL0     O29389   8.797   5.550   6.886 -0.2282 -0.6203 -0.6783
  959MOL0     C29390   8.892   5.473   6.802  0.1624  0.1438 -0.2769
  959MOL0     C29391   9.014   5.568   6.793  0.0874  1.4149  0.1176
  959MOL0     C29392   9.096   5.589   6.925  0.4772 -0.4724 -0.3979
  959MOL0     C29393   9.219   5.674   6.917  0.3850  0.1429  0.1871
  959MOL0     C29394   9.183   5.809   6.900 -0.3286 -0.6542  0.3210
  959MOL0     C29395   9.160   5.925   6.870  0.4209  0.3526 -0.5724
  959MOL0     C29396   8.635   5.385   6.825  0.5259 -0.5279 -0.7158
  959MOL0     C29397   8.504   5.343   6.844  0.2816 -0.0830  0.4929
  959MOL0     H29398   8.169   5.033   6.965  1.1738  0.1248 -0.0683
  959MOL0     H29399   7.941   4.949   7.003  2.5234  1.1703  2.6945
  959MOL0     H29400   7.618   5.217   6.997  1.4530 -1.2053  1.5512
  959MOL0     H29401   7.587   5.161   6.825 -1.8611  0.2442 -0.0757
  959MOL0     H29402   7.452   4.973   6.922 -1.8917  0.8049  0.7209
  959MOL0     H29403   7.508   5.039   7.088  1.5044  1.4598  0.1365
  959MOL0     H29404   7.355   5.204   7.080 -2.2852  1.3342 -0.9961
  959MOL0     H29405   7.338   5.210   6.913  2.0887  2.2569  0.8221
  959MOL0     H29406   7.208   5.023   6.874 -1.8640 -0.6227  0.3241
  959MOL0     H29407   7.249   4.953   7.039 -0.3720  0.1692  0.4242
  959MOL0     H29408   7.112   5.217   7.013 -3.4967  0.3643  1.2421
  959MOL0     H29409   7.011   5.074   7.009  0.3829 -0.3556  0.3714
  959MOL0     H29410   7.121   4.992   7.221 -1.7256  0.8757  1.8000
  959MOL0     H29411   7.184   5.155   7.249  1.3506  0.0561 -1.2369
  959MOL0     H29412   6.891   5.085   7.218 -1.0463 -0.2621  1.8124
  959MOL0     H29413   6.976   5.111   7.360  1.0775  0.4191 -0.5151
  959MOL0     H29414   6.972   5.334   7.164 -0.7729 -0.4733 -0.2071
  959MOL0     H29415   7.041   5.320   7.333 -0.0705 -0.9587  0.1026
  959MOL0     H29416   6.835   5.235   7.525  0.4903  1.3283 -0.0294
  959MOL0     H29417   6.545   5.356   7.616 -3.2519  0.6966 -0.5776
  959MOL0     H29418   6.435   5.283   7.505 -1.1411 -1.9717  0.5923
  959MOL0     H29419   6.639   5.137   7.682 -1.2100  0.5741  2.9057
  959MOL0     H29420   6.537   5.062   7.549  1.8542  0.3379 -0.4598
  959MOL0     H29421   6.350   5.101   7.682  0.5394 -0.5149 -0.3347
  959MOL0     H29422   6.402   5.227   7.772 -0.2982  1.4718 -3.3242
  959MOL0     H29423   6.565   5.058   7.894  1.2535 -1.1003 -1.0818
  959MOL0     H29424   6.521   4.937   7.776  0.2478 -0.3514 -0.6325
  959MOL0     H29425   6.405   4.790   7.722  1.3032 -2.0630  1.1912
  959MOL0     H29426   6.186   4.543   7.605  0.1670 -0.0111  0.8196
  959MOL0     H29427   6.346   4.626   7.583  0.4990  0.9994 -0.5037
  959MOL0     H29428   6.320   4.505   7.711 -0.5449  0.1693 -0.7020
  959MOL0     H29429   5.658   4.601   7.931  2.5863 -2.5052  2.6667
  959MOL0     H29430   5.460   4.447   7.892  0.7220 -1.2833  0.2130
  959MOL0     H29431   5.455   4.178   7.905  0.6398  2.1579 -0.0737
  959MOL0     H29432   5.323   4.280   7.858 -1.0511 -0.9391  2.2235
  959MOL0     H29433   5.230   4.083   7.895 -0.7583 -2.5775 -0.4087
  959MOL0     H29434   5.216   4.120   7.731 -0.3196  1.0300  2.4831
  959MOL0     H29435   5.260   3.873   7.830 -0.9822  1.2065 -0.5276
  959MOL0     H29436   5.424   3.923   7.823 -1.0376 -1.8742  1.0846
  959MOL0     H29437   5.324   3.790   7.618  2.3838  0.8963 -3.5772
  959MOL0     H29438   5.210   3.932   7.603  0.1164  2.2686 -0.3908
  959MOL0     H29439   5.510   3.905   7.557 -0.8624  1.7442  1.2556
  959MOL0     H29440   5.426   4.062   7.539 -1.9226  1.2448  2.2051
  959MOL0     H29441   5.316   3.820   7.391 -0.6846  0.1110  1.0789
  959MOL0     H29442   5.293   3.991   7.357  0.0367 -0.3327  0.8577
  959MOL0     H29443   5.465   3.846   7.207  2.5501 -2.2789  1.0669
  959MOL0     H29444   5.568   3.859   7.351  0.8308 -0.0230 -1.2520
  959MOL0     H29445   5.568   4.085   7.365 -0.2061 -5.3233  1.9064
  959MOL0     H29446   5.454   4.106   7.226 -0.0266  0.2828 -0.6522
  959MOL0     H29447   5.684   4.244   7.595  1.4045  0.2274 -0.1929
  959MOL0     H29448   5.865   4.421   7.615 -0.2251  4.8910 -2.3215
  959MOL0     H29449   5.991   4.782   7.979 -0.6798  1.4478 -0.0256
  959MOL0     H29450   6.157   4.929   8.035 -1.2960  1.8191 -1.4609
  959MOL0     H29451   7.788   5.291   6.778 -1.4989 -3.1152 -2.8514
  959MOL0     H29452   8.014   5.364   6.741  1.1265 -1.7623 -1.7290
  959MOL0     H29453   8.398   5.588   7.066  0.1136  2.2990 -1.4450
  959MOL0     H29454   8.620   5.650   7.046 -2.9227  1.3759 -0.8905
  959MOL0     H29455   8.911   5.378   6.853  1.9693  0.4221 -0.3619
  959MOL0     H29456   8.858   5.450   6.700  1.1634 -0.3320 -0.5184
  959MOL0     H29457   8.981   5.667   6.762  1.6162  1.0710 -3.0448
  959MOL0     H29458   9.084   5.526   6.720  1.1063 -0.9395  2.2822
  959MOL0     H29459   9.124   5.488   6.956 -0.0643  0.5397  4.1760
  959MOL0     H29460   9.030   5.628   7.004  1.3524 -1.8859  1.0822
  959MOL0     H29461   9.282   5.639   6.834 -2.1522 -1.6032 -1.1014
  959MOL0     H29462   9.272   5.664   7.012 -2.0695  0.0253  1.6237
  959MOL0     H29463   9.133   6.026   6.846 -0.5697  0.4825  0.9163
  959MOL0     H29464   8.706   5.330   6.765  2.9796 -0.4646  1.9269
  959MOL0     H29465   8.475   5.252   6.792 -1.1319  0.7286 -0.1993
  960MOL0     O29466   5.887   1.088   1.605  0.4680 -0.1377 -0.3594
  960MOL0     C29467   5.875   0.965   1.604 -1.1048  0.3429 -0.8264
  960MOL0     O29468   5.762   0.899   1.594 -0.7083 -0.4961  0.4079
  960MOL0     C29469   5.650   0.952   1.532 -0.4695  0.4187  1.0172
  960MOL0     C29470   5.535   0.962   1.603  0.6114  0.1396  0.0670
  960MOL0     C29471   5.422   1.016   1.543  0.3622  0.3282  0.4433
  960MOL0     C29472   5.427   1.060   1.411 -0.0630  0.1585 -0.7186
  960MOL0     O29473   5.305   1.110   1.357 -0.5926  0.3930  0.0689
  960MOL0     C29474   5.302   1.177   1.231  1.1967 -0.4359  0.1780
  960MOL0     C29475   5.155   1.203   1.205 -0.2397  0.4689  0.0965
  960MOL0     C29476   5.074   1.074   1.181 -0.3789  0.1115 -0.4252
  960MOL0     C29477   4.921   1.103   1.194 -0.9112  0.9729 -0.4323
  960MOL0     C29478   4.845   0.969   1.189 -0.4901  0.3507 -0.7342
  960MOL0     C29479   4.699   0.998   1.216  0.0856  0.6791 -1.0560
  960MOL0     C29480   4.609   0.884   1.264 -0.6923  0.2619  0.0238
  960MOL0     C29481   4.638   0.759   1.185  0.3831  0.9196  1.1046
  960MOL0     N29482   4.619   0.771   1.034 -0.0038 -0.0101 -0.5340
  960MOL0     C29483   4.489   0.766   0.981 -0.0647  0.5155  0.1803
  960MOL0     C29484   4.509   0.732   0.848  1.5967  1.0029 -0.6410
  960MOL0     C29485   4.407   0.727   0.751  1.2351  0.3500  0.4801
  960MOL0     C29486   4.438   0.638   0.627  0.2519  0.4310 -0.1264
  960MOL0     C29487   4.298   0.605   0.565 -0.9043  0.5057  0.1786
  960MOL0     C29488   4.303   0.569   0.415  0.4376  0.1891  0.0641
  960MOL0     O29489   4.197   0.477   0.400  0.0701  0.7186  0.3720
  960MOL0     C29490   4.113   0.512   0.301 -0.1323 -0.3024 -0.9439
  960MOL0     C29491   4.009   0.605   0.311  0.1880  0.0878  0.2968
  960MOL0     C29492   3.924   0.639   0.198  0.2695 -0.2804 -0.6788
  960MOL0     C29493   3.816   0.736   0.233 -0.0545  0.3259 -0.1814
  960MOL0     C29494   3.942   0.573   0.076 -0.7273  0.3565  0.5674
  960MOL0     C29495   3.860   0.588  -0.042  0.3663 -0.3520 -0.4167
  960MOL0     O29496   3.770   0.697  -0.039  0.5363  0.6787 -0.6136
  960MOL0     C29497   3.663   0.695  -0.127 -0.4126  0.0585 -0.2788
  960MOL0     C29498   3.555   0.613  -0.100 -0.5260  0.2903  0.2690
  960MOL0     C29499   3.454   0.593  -0.191 -0.0872  0.1244 -0.5654
  960MOL0     C29500   3.457   0.669  -0.305  1.2492 -0.0402  0.1228
  960MOL0     O29501   3.347   0.650  -0.393  0.8459 -0.5748 -0.0213
  960MOL0     C29502   3.357   0.718  -0.525  1.0450 -0.5765 -0.3161
  960MOL0     C29503   3.228   0.690  -0.605  0.3851 -0.4382  0.2861
  960MOL0     C29504   3.098   0.754  -0.544 -0.8471 -0.5045  0.1170
  960MOL0     C29505   2.980   0.681  -0.609 -0.1159 -0.2986 -0.0560
  960MOL0     C29506   2.951   0.538  -0.560  0.1576  0.4729  0.6161
  960MOL0     C29507   2.843   0.472  -0.652 -0.6669 -0.2850 -0.6358
  960MOL0     C29508   2.702   0.518  -0.627 -0.4770 -0.3033  0.2862
  960MOL0     C29509   2.630   0.446  -0.744  0.6117  0.0279 -0.4022
  960MOL0    Cl29510   2.635   0.260  -0.765  0.0733  0.6961  0.1561
  960MOL0     C29511   3.562   0.759  -0.333  0.2688  0.7011 -0.5124
  960MOL0     C29512   3.661   0.776  -0.235 -0.2631 -0.6127  0.6685
  960MOL0     O29513   3.868   0.507  -0.133 -0.5927  1.1127 -0.4870
  960MOL0     C29514   4.043   0.470   0.073 -0.3187 -0.1551  0.1741
  960MOL0     C29515   4.127   0.445   0.183  0.6387 -0.6827  0.0784
  960MOL0     N29516   4.642   0.717   0.823 -0.0296 -0.2022 -0.6659
  960MOL0     N29517   4.715   0.752   0.931  0.1844 -0.0445  0.2876
  960MOL0     C29518   5.540   1.040   1.335 -0.4088  0.9459 -0.1875
  960MOL0     C29519   5.658   0.996   1.399  0.8007 -0.8556  0.9173
  960MOL0     C29520   5.999   0.879   1.618 -0.2053 -0.1244  0.0049
  960MOL0     C29521   6.126   0.940   1.649  0.1078  0.1144  0.6194
  960MOL0     C29522   6.236   0.864   1.683  0.1185 -0.8872 -0.0847
  960MOL0     C29523   6.240   0.727   1.675 -0.8662 -0.4508 -0.8732
  960MOL0     O29524   6.350   0.656   1.709 -0.2646 -1.0215  0.2221
  960MOL0     C29525   6.337   0.515   1.720  0.4754  0.4619  0.5089
  960MOL0     C29526   6.475   0.448   1.741  0.3446  0.4227  0.6674
  960MOL0     C29527   6.467   0.289   1.738  0.5514 -0.0199  0.3128
  960MOL0     C29528   6.606   0.236   1.762 -0.2953  0.4391 -0.7168
  960MOL0     C29529   6.655   0.139   1.666 -0.9989 -0.2829  0.1482
  960MOL0     C29530   6.697   0.050   1.590  0.4698  0.0653  0.3534
  960MOL0     C29531   6.111   0.665   1.630 -0.1014 -0.2784 -0.8372
  960MOL0     C29532   5.987   0.743   1.614  0.1561 -0.1984 -0.4817
  960MOL0     H29533   5.547   0.923   1.704  2.9922 -0.1979 -0.2807
  960MOL0     H29534   5.334   1.020   1.607  1.1932  0.8743  1.5966
  960MOL0     H29535   5.354   1.274   1.232  0.5669 -0.0353 -1.9421
  960MOL0     H29536   5.331   1.114   1.147  1.8578 -1.3971  1.0954
  960MOL0     H29537   5.130   1.258   1.297  1.4412 -1.3007  1.6992
  960MOL0     H29538   5.156   1.267   1.116  0.8166 -1.1918 -1.1556
  960MOL0     H29539   5.079   1.045   1.075 -3.5764  5.9206 -2.6188
  960MOL0     H29540   5.103   1.000   1.256 -0.3625 -1.9323 -2.3240
  960MOL0     H29541   4.916   1.146   1.295 -0.1004  2.1356 -0.8622
  960MOL0     H29542   4.893   1.179   1.120 -2.8839  0.4855 -0.2254
  960MOL0     H29543   4.870   0.927   1.091 -0.3721  0.9231 -0.9491
  960MOL0     H29544   4.878   0.902   1.269 -0.0288 -1.0050 -2.0130
  960MOL0     H29545   4.688   1.058   1.307 -2.6897 -0.8844 -0.2424
  960MOL0     H29546   4.658   1.040   1.124  1.1472  0.4679 -1.6417
  960MOL0     H29547   4.626   0.851   1.367 -0.4232 -1.1585 -0.4473
  960MOL0     H29548   4.499   0.887   1.262 -0.9370 -3.0318  1.3276
  960MOL0     H29549   4.577   0.674   1.217 -0.7279  0.3719 -2.0548
  960MOL0     H29550   4.743   0.730   1.195 -0.3968 -2.7042  0.3789
  960MOL0     H29551   4.397   0.792   1.033  0.2562  0.2044  0.9206
  960MOL0     H29552   4.320   0.684   0.803 -0.4859  1.2383 -1.5137
  960MOL0     H29553   4.385   0.828   0.716 -0.0300 -1.1736 -3.7910
  960MOL0     H29554   4.489   0.546   0.655  0.0947  1.2589  3.2893
  960MOL0     H29555   4.492   0.689   0.546 -0.5406 -0.0333 -0.9670
  960MOL0     H29556   4.228   0.690   0.570  0.8077  1.9362  1.0790
  960MOL0     H29557   4.256   0.516   0.611  4.0211 -2.4265 -0.3376
  960MOL0     H29558   4.395   0.515   0.391  0.3839  0.2407 -0.2569
  960MOL0     H29559   4.285   0.662   0.361 -2.9907 -0.1212  0.4421
  960MOL0     H29560   4.002   0.657   0.406 -1.9354  0.4942 -0.0325
  960MOL0     H29561   3.806   0.731   0.342  1.5509  0.4841 -0.0138
  960MOL0     H29562   3.844   0.836   0.199  0.4214 -0.4967 -2.3626
  960MOL0     H29563   3.719   0.711   0.188  2.0821 -4.4047 -2.8981
  960MOL0     H29564   3.565   0.554  -0.009  2.2324  0.7337  0.3366
  960MOL0     H29565   3.375   0.518  -0.185 -2.2386  2.1856 -1.5444
  960MOL0     H29566   3.380   0.825  -0.522  0.4990 -0.4875  0.9683
  960MOL0     H29567   3.439   0.666  -0.575 -1.8570 -4.4230 -1.5391
  960MOL0     H29568   3.239   0.727  -0.708  1.2127 -0.5101  0.3377
  960MOL0     H29569   3.218   0.581  -0.601 -0.3734 -0.3574  0.7780
  960MOL0     H29570   3.096   0.858  -0.580 -2.2367  0.3630  2.4909
  960MOL0     H29571   3.096   0.744  -0.435  1.3974 -2.1217  0.0951
  960MOL0     H29572   2.887   0.737  -0.592 -1.2710 -1.6223 -1.6301
  960MOL0     H29573   2.987   0.683  -0.718  3.5992  1.8018  0.0692
  960MOL0     H29574   2.904   0.547  -0.462 -2.0434 -1.6808 -0.1435
  960MOL0     H29575   3.045   0.483  -0.555  0.4257  0.8656  0.0809
  960MOL0     H29576   2.880   0.502  -0.751 -0.2573 -1.0137 -0.7053
  960MOL0     H29577   2.858   0.364  -0.647 -0.3238 -0.2193 -0.1888
  960MOL0     H29578   2.687   0.625  -0.643 -2.1613 -0.3045  1.4854
  960MOL0     H29579   2.661   0.494  -0.528 -0.3641  1.5639  0.8188
  960MOL0     H29580   2.665   0.494  -0.836 -0.9255  2.9704  0.4443
  960MOL0     H29581   2.525   0.475  -0.748 -0.1533 -2.3457  0.6976
  960MOL0     H29582   3.572   0.794  -0.435  0.9320 -2.9774 -1.8692
  960MOL0     H29583   3.739   0.850  -0.250 -2.9133  2.0032 -1.2955
  960MOL0     H29584   4.053   0.399  -0.010 -1.7796 -2.5558  1.9175
  960MOL0     H29585   4.217   0.385   0.175  1.7919  0.9302  0.3686
  960MOL0     H29586   5.542   1.051   1.227  1.8081 -2.5104 -0.6452
  960MOL0     H29587   5.752   0.992   1.344 -0.7689 -0.9142 -1.9121
  960MOL0     H29588   6.138   1.048   1.644 -0.6734  0.2037  0.4940
  960MOL0     H29589   6.330   0.909   1.713  1.6246 -3.8194 -0.0435
  960MOL0     H29590   6.268   0.489   1.801 -1.5786  0.3872 -1.1522
  960MOL0     H29591   6.301   0.470   1.626 -0.8999 -0.0696  1.2640
  960MOL0     H29592   6.506   0.482   1.840  1.8936 -2.2611  1.2211
  960MOL0     H29593   6.546   0.495   1.672  1.7540 -1.7492  0.5159
  960MOL0     H29594   6.426   0.249   1.645 -0.0140 -3.1765  1.7799
  960MOL0     H29595   6.394   0.259   1.814 -0.1747 -0.6242 -0.6130
  960MOL0     H29596   6.592   0.181   1.855 -1.6335 -1.9324 -2.2054
  960MOL0     H29597   6.680   0.315   1.773  0.3119  0.0851 -2.0024
  960MOL0     H29598   6.721  -0.026   1.518  1.1890  0.5811  0.0385
  960MOL0     H29599   6.115   0.556   1.634  0.0773 -0.2861 -1.1903
  960MOL0     H29600   5.891   0.697   1.595 -0.6216  1.0937  0.2268
  961MOL0     O29601   3.569   1.558   4.616  0.2032  0.3751  0.7414
  961MOL0     C29602   3.656   1.641   4.605 -1.1689 -0.0713  0.5434
  961MOL0     O29603   3.636   1.776   4.637 -0.5187  0.2260 -0.6412
  961MOL0     C29604   3.515   1.794   4.712 -0.1979 -0.0181  0.6816
  961MOL0     C29605   3.426   1.891   4.663  0.6216 -0.2050 -0.8653
  961MOL0     C29606   3.307   1.927   4.736 -0.8954  0.2612 -0.3421
  961MOL0     C29607   3.285   1.864   4.857  0.0790  0.6133 -0.2554
  961MOL0     O29608   3.172   1.910   4.923 -0.3434  0.4164  0.3998
  961MOL0     C29609   3.118   1.831   5.027  0.5205  0.4234 -0.3870
  961MOL0     C29610   2.977   1.885   5.065  0.1359  0.4083  0.2747
  961MOL0     C29611   2.975   2.029   5.119 -0.5821 -0.4024 -0.3775
  961MOL0     C29612   2.847   2.054   5.197  0.2557  0.3775 -0.0473
  961MOL0     C29613   2.844   2.199   5.253 -0.3019 -0.2800  0.2817
  961MOL0     C29614   2.710   2.232   5.324  0.5441  0.4757  0.1517
  961MOL0     C29615   2.733   2.275   5.468  0.3890 -0.4193  0.9009
  961MOL0     C29616   2.600   2.338   5.530 -0.1736 -1.4247  0.2149
  961MOL0     N29617   2.485   2.248   5.528 -0.6879  0.2890  0.0092
  961MOL0     C29618   2.479   2.129   5.581  0.0322  0.4001 -0.0617
  961MOL0     C29619   2.365   2.064   5.536 -0.6466  1.4440 -0.3548
  961MOL0     C29620   2.318   1.926   5.575 -0.4899 -0.8786  0.0412
  961MOL0     C29621   2.267   1.906   5.710  0.1862 -0.4860 -0.4902
  961MOL0     C29622   2.134   1.981   5.743 -0.3665  0.0920 -0.7795
  961MOL0     C29623   2.025   1.964   5.643 -0.3047 -0.1997 -0.2844
  961MOL0     O29624   1.925   2.046   5.694 -0.6947 -0.3982 -0.1370
  961MOL0     C29625   1.795   2.016   5.653 -0.3571  0.2166 -0.2076
  961MOL0     C29626   1.761   1.975   5.522 -0.5890  0.2276 -0.6092
  961MOL0     C29627   1.625   1.935   5.493 -0.5815  0.6777  0.2264
  961MOL0     C29628   1.600   1.905   5.349  0.3232  0.6967  0.1420
  961MOL0     C29629   1.526   1.953   5.585  0.4955  0.4224  0.5233
  961MOL0     C29630   1.373   1.942   5.565  0.9091  0.4156  0.6157
  961MOL0     O29631   1.299   1.971   5.681 -0.5647  0.5284 -0.0430
  961MOL0     C29632   1.169   1.924   5.685 -0.5066 -0.1265  0.1556
  961MOL0     C29633   1.132   1.826   5.784  0.8448  0.6491  0.1912
  961MOL0     C29634   1.001   1.793   5.811 -0.5371  0.0217 -0.2104
  961MOL0     C29635   0.904   1.866   5.741  0.3285  0.5920  0.0002
  961MOL0     O29636   0.771   1.835   5.751  0.8075  0.3400 -0.2383
  961MOL0     C29637   0.721   1.766   5.873 -0.0041  0.0030  0.1972
  961MOL0     C29638   0.574   1.809   5.904  0.1730  0.4018 -0.4149
  961MOL0     C29639   0.556   1.960   5.915  0.1173 -0.0969 -0.2339
  961MOL0     C29640   0.417   2.015   5.924 -0.2312 -0.8341 -1.8305
  961MOL0     C29641   0.334   1.974   6.046 -0.1398  0.5599 -0.2098
  961MOL0     C29642   0.179   2.001   6.037  0.5737 -0.3506  1.1945
  961MOL0     C29643   0.107   2.015   6.169 -0.8094  0.2440  0.6396
  961MOL0     C29644  -0.045   2.012   6.160 -1.1997  0.2350  0.7704
  961MOL0    Cl29645  -0.115   1.867   6.088  0.2263  0.2008  0.1022
  961MOL0     C29646   0.943   1.960   5.643  0.0655 -0.1639  0.6160
  961MOL0     C29647   1.078   1.999   5.617  0.0819  0.9092  0.0772
  961MOL0     O29648   1.322   1.908   5.455 -0.0437 -0.1859  0.7428
  961MOL0     C29649   1.565   1.997   5.717 -0.1057 -0.2237 -0.5381
  961MOL0     C29650   1.700   2.033   5.743  0.5057 -0.2208 -0.1571
  961MOL0     N29651   2.304   2.144   5.443  0.0550 -0.3955 -1.0919
  961MOL0     N29652   2.373   2.255   5.451 -0.7308  0.2949 -0.7325
  961MOL0     C29653   3.372   1.769   4.914  0.4389 -0.3196  0.1641
  961MOL0     C29654   3.490   1.735   4.841  1.0305 -1.1096  1.1061
  961MOL0     C29655   3.790   1.591   4.567  0.5839 -0.3057 -0.4828
  961MOL0     C29656   3.900   1.658   4.617  0.6738  0.0789  0.3863
  961MOL0     C29657   4.018   1.604   4.593  0.3454 -0.1287  0.9596
  961MOL0     C29658   4.038   1.480   4.527  0.0666  0.3785 -0.8785
  961MOL0     O29659   4.167   1.440   4.515  0.1947  0.1455  0.3610
  961MOL0     C29660   4.193   1.308   4.547  0.1846  0.7008  0.1438
  961MOL0     C29661   4.318   1.295   4.634  0.7246 -1.0887 -0.5297
  961MOL0     C29662   4.286   1.378   4.764 -0.8168  0.2104  0.3362
  961MOL0     C29663   4.384   1.341   4.868  0.7041 -0.6247 -0.9456
  961MOL0     C29664   4.354   1.412   5.001  0.1297  0.6117  0.5289
  961MOL0     C29665   4.354   1.441   5.120  0.2701 -0.0788  0.9650
  961MOL0     C29666   3.931   1.412   4.480  0.0856  1.0538  0.0290
  961MOL0     C29667   3.808   1.465   4.505  0.0329 -0.7785 -0.8249
  961MOL0     H29668   3.437   1.937   4.566  0.6385 -0.6139 -1.0588
  961MOL0     H29669   3.227   1.994   4.706 -2.7011 -2.6394 -2.6066
  961MOL0     H29670   3.093   1.730   4.993 -1.9241  0.4754  1.0258
  961MOL0     H29671   3.183   1.839   5.114 -0.7644  2.5625  0.4431
  961MOL0     H29672   2.914   1.876   4.976  0.8135  0.5078 -0.2280
  961MOL0     H29673   2.937   1.823   5.145 -2.4076  1.0792 -0.3864
  961MOL0     H29674   3.063   2.043   5.183 -0.1378  2.2671 -1.4493
  961MOL0     H29675   2.985   2.100   5.036 -3.1386 -0.2689 -0.6479
  961MOL0     H29676   2.762   2.041   5.130 -1.5523 -1.3014  2.4064
  961MOL0     H29677   2.830   1.981   5.276 -2.7310 -1.1227 -1.9005
  961MOL0     H29678   2.923   2.204   5.329  0.6988 -2.9869 -0.4494
  961MOL0     H29679   2.870   2.276   5.180 -1.0053 -1.4572 -1.2612
  961MOL0     H29680   2.661   2.318   5.279  0.3141  0.9921  1.3426
  961MOL0     H29681   2.639   2.150   5.311  0.3393  0.6222  0.3456
  961MOL0     H29682   2.757   2.189   5.532 -2.6753 -0.3364  2.3591
  961MOL0     H29683   2.815   2.347   5.468  1.1670 -1.2775  1.1449
  961MOL0     H29684   2.589   2.438   5.485  1.1356 -0.3298  2.1537
  961MOL0     H29685   2.622   2.364   5.634  2.3721 -2.4250 -0.0058
  961MOL0     H29686   2.545   2.108   5.664 -1.6414  1.7205  1.6909
  961MOL0     H29687   2.243   1.891   5.503 -0.4942 -0.0623 -0.3580
  961MOL0     H29688   2.401   1.855   5.568  1.6830  1.4974  0.1536
  961MOL0     H29689   2.343   1.925   5.786  2.6878 -3.8062 -1.8702
  961MOL0     H29690   2.261   1.800   5.736  3.8173 -0.3367  1.5398
  961MOL0     H29691   2.160   2.087   5.737  0.5634  0.1529  2.5711
  961MOL0     H29692   2.108   1.958   5.846  0.8886  1.7489 -0.0383
  961MOL0     H29693   1.986   1.864   5.666 -2.4432  0.8253  0.8913
  961MOL0     H29694   2.047   1.981   5.538  3.4242  1.5336  0.6065
  961MOL0     H29695   1.842   1.977   5.451  0.8876  1.6585  1.0210
  961MOL0     H29696   1.526   1.973   5.306  0.3826  1.4576  1.1935
  961MOL0     H29697   1.695   1.908   5.295  0.7200  0.8407  0.8257
  961MOL0     H29698   1.559   1.804   5.340  2.5116 -0.0995 -2.0293
  961MOL0     H29699   1.205   1.770   5.842 -0.2376  0.8930  1.8302
  961MOL0     H29700   0.981   1.716   5.885 -0.5764 -0.4488 -0.7105
  961MOL0     H29701   0.723   1.660   5.848  2.8853  0.8554 -4.2178
  961MOL0     H29702   0.778   1.792   5.963 -0.2592  3.0922 -0.4260
  961MOL0     H29703   0.523   1.778   5.812  0.7304  2.4054 -1.4503
  961MOL0     H29704   0.534   1.761   5.994  0.6976  1.2412  0.2873
  961MOL0     H29705   0.604   2.017   5.835  0.9435  0.9776  0.9741
  961MOL0     H29706   0.601   1.988   6.011 -2.8830 -1.4400  1.7220
  961MOL0     H29707   0.418   2.124   5.913 -2.6991 -0.4644  0.5059
  961MOL0     H29708   0.363   1.978   5.836 -2.3409 -1.6350 -0.2853
  961MOL0     H29709   0.380   2.027   6.130 -0.5614 -0.5381  0.7386
  961MOL0     H29710   0.346   1.871   6.080 -1.1633  0.9793  1.5555
  961MOL0     H29711   0.174   2.101   5.992 -0.3094 -1.2282 -0.7959
  961MOL0     H29712   0.133   1.924   5.975  0.0244  0.5484  0.4591
  961MOL0     H29713   0.125   2.119   6.194  0.9258  0.5688 -1.6722
  961MOL0     H29714   0.139   1.946   6.247 -0.5220 -0.0951  0.2252
  961MOL0     H29715  -0.065   2.106   6.107 -1.8061  1.0563  2.3674
  961MOL0     H29716  -0.095   2.036   6.255 -2.4293 -0.7884  0.4032
  961MOL0     H29717   0.882   2.008   5.567  2.2445 -0.0289 -1.1380
  961MOL0     H29718   1.096   2.074   5.541  2.2462 -1.0109 -1.4357
  961MOL0     H29719   1.494   2.015   5.797 -2.2184 -0.9169 -2.1680
  961MOL0     H29720   1.711   2.076   5.842 -1.8841  2.6001 -0.9809
  961MOL0     H29721   3.354   1.741   5.018 -0.7744  0.2592  0.1352
  961MOL0     H29722   3.571   1.672   4.877  0.9891 -1.3567  0.7750
  961MOL0     H29723   3.899   1.743   4.684 -0.0891 -0.0475  0.5413
  961MOL0     H29724   4.113   1.642   4.629  0.6476  2.1838 -1.8932
  961MOL0     H29725   4.109   1.274   4.608 -0.5139  1.6952 -0.2481
  961MOL0     H29726   4.218   1.252   4.457 -0.1214  1.1894 -0.2480
  961MOL0     H29727   4.400   1.346   4.582  1.9512 -1.9563  0.4901
  961MOL0     H29728   4.326   1.187   4.646 -0.7730 -1.3560 -1.6131
  961MOL0     H29729   4.185   1.370   4.805 -0.7853 -2.9514 -0.0159
  961MOL0     H29730   4.299   1.484   4.739  0.1992  0.0381  0.1120
  961MOL0     H29731   4.489   1.349   4.839  0.2644 -1.2764 -2.9384
  961MOL0     H29732   4.369   1.235   4.889 -2.9605 -0.0335  0.1436
  961MOL0     H29733   4.342   1.488   5.216 -1.9868 -0.6771  1.0219
  961MOL0     H29734   3.948   1.315   4.434  1.4831  0.1259  2.3417
  961MOL0     H29735   3.719   1.404   4.493 -0.8124  0.4040 -0.7793
  962MOL0     O29736   5.981   3.136   9.171  1.1286  0.4237 -0.2876
  962MOL0     C29737   6.069   3.207   9.125  0.6324 -0.1587 -1.0021
  962MOL0     O29738   6.070   3.273   9.004  0.5361  0.0233  0.2538
  962MOL0     C29739   5.954   3.272   8.932  0.4542  0.2021 -0.1713
  962MOL0     C29740   5.907   3.395   8.883  0.1219  0.1564  0.0297
  962MOL0     C29741   5.787   3.396   8.818  0.2616 -0.7823  0.4126
  962MOL0     C29742   5.713   3.275   8.792 -1.2415  0.1714 -0.5297
  962MOL0     O29743   5.596   3.287   8.718 -0.2262  0.1316 -0.4424
  962MOL0     C29744   5.518   3.167   8.695  1.0112  0.6114  0.1226
  962MOL0     C29745   5.407   3.209   8.597 -0.2238  0.6019 -0.4521
  962MOL0     C29746   5.324   3.089   8.562  0.1204  0.0894  0.1517
  962MOL0     C29747   5.212   3.139   8.466  0.4293 -0.3405 -0.5928
  962MOL0     C29748   5.119   3.028   8.429 -0.1406 -0.2763 -0.3364
  962MOL0     C29749   4.985   3.099   8.395  0.2293  0.3551 -0.5133
  962MOL0     C29750   4.890   2.993   8.339 -0.1624  0.4409  0.5352
  962MOL0     C29751   4.753   3.058   8.330 -0.7899 -0.0463 -0.1072
  962MOL0     N29752   4.652   2.965   8.282 -0.4138  0.6545 -0.2362
  962MOL0     C29753   4.565   2.995   8.171 -0.9730 -0.5748 -1.3221
  962MOL0     C29754   4.475   2.889   8.172  0.6046 -0.0673 -1.3522
  962MOL0     C29755   4.360   2.862   8.079  0.9454  0.6828 -0.1408
  962MOL0     C29756   4.247   2.950   8.116  0.3984  0.2354  0.3399
  962MOL0     C29757   4.108   2.893   8.079 -0.8112 -0.3074 -0.3999
  962MOL0     C29758   3.992   2.968   8.134 -0.2710  0.2195 -0.4065
  962MOL0     O29759   4.007   3.102   8.083  0.3662 -0.2999  0.2538
  962MOL0     C29760   3.906   3.191   8.117 -0.2752  0.2241 -0.4242
  962MOL0     C29761   3.805   3.161   8.211 -0.3553 -0.7538 -0.1325
  962MOL0     C29762   3.693   3.248   8.234 -0.1980 -0.3378 -0.7543
  962MOL0     C29763   3.606   3.221   8.349  0.2297  0.0902 -0.3612
  962MOL0     C29764   3.686   3.368   8.158 -0.3690  0.2665  0.3438
  962MOL0     C29765   3.580   3.468   8.163  0.3737  0.9131 -0.5861
  962MOL0     O29766   3.578   3.564   8.067  0.3647 -0.2026  0.0818
  962MOL0     C29767   3.520   3.684   8.094 -0.9555  0.1098  0.4024
  962MOL0     C29768   3.379   3.686   8.114 -0.7360 -0.6171 -0.2182
  962MOL0     C29769   3.315   3.808   8.119 -0.2668 -0.3136  0.4021
  962MOL0     C29770   3.383   3.919   8.090 -0.7076 -0.3933 -0.5625
  962MOL0     O29771   3.326   4.046   8.099 -0.7030 -0.3153 -0.2254
  962MOL0     C29772   3.237   4.085   8.198 -0.2608  0.2696 -0.0613
  962MOL0     C29773   3.104   4.109   8.128  0.3734  0.8902  0.1467
  962MOL0     C29774   2.998   4.139   8.234  0.0561 -0.5539 -0.8399
  962MOL0     C29775   2.998   4.291   8.249 -0.3046  0.0440 -0.4093
  962MOL0     C29776   2.912   4.336   8.375  0.6984 -0.6695 -0.7507
  962MOL0     C29777   2.853   4.479   8.338  1.1390 -0.1551  0.3664
  962MOL0     C29778   2.936   4.598   8.366  0.0744 -0.0437  0.3454
  962MOL0     C29779   2.977   4.668   8.244  0.0880  0.7792 -0.5146
  962MOL0    Cl29780   2.848   4.725   8.140 -0.1754  0.3337  0.3013
  962MOL0     C29781   3.520   3.922   8.069  0.1207  0.7248  0.0304
  962MOL0     C29782   3.591   3.803   8.085  0.5951 -0.3242 -0.1185
  962MOL0     O29783   3.499   3.459   8.254  0.8187  0.5530 -0.0601
  962MOL0     C29784   3.796   3.395   8.075  1.1938  0.6882  0.7514
  962MOL0     C29785   3.908   3.315   8.062  0.6501  0.3460  0.4972
  962MOL0     N29786   4.510   2.804   8.274  0.4016 -0.6333  0.2571
  962MOL0     N29787   4.612   2.846   8.339 -0.1130  0.9051  0.1407
  962MOL0     C29788   5.760   3.160   8.844  0.1805 -0.4965 -0.0667
  962MOL0     C29789   5.885   3.155   8.899 -0.9925  0.0493 -0.0464
  962MOL0     C29790   6.180   3.234   9.219  0.1085  0.0606  0.4345
  962MOL0     C29791   6.273   3.333   9.190 -0.5251  0.4561  0.8438
  962MOL0     C29792   6.377   3.367   9.279  0.5501  0.3417 -0.6104
  962MOL0     C29793   6.389   3.300   9.405  0.5327 -0.5561  0.6528
  962MOL0     O29794   6.476   3.323   9.504 -0.1200 -0.0475 -0.5892
  962MOL0     C29795   6.567   3.432   9.491  0.0924  0.5117 -0.6517
  962MOL0     C29796   6.622   3.476   9.629  0.1540  0.4332 -0.3962
  962MOL0     C29797   6.738   3.397   9.675  0.3667 -1.0023 -0.0602
  962MOL0     C29798   6.799   3.450   9.809 -0.9613  0.8263  0.1508
  962MOL0     C29799   6.867   3.586   9.802 -0.5837  0.1640 -0.1854
  962MOL0     C29800   6.915   3.691   9.787  0.7685  0.4550 -0.2324
  962MOL0     C29801   6.291   3.203   9.429  0.7948 -0.1550 -0.2229
  962MOL0     C29802   6.193   3.163   9.338 -0.7283  0.0340 -0.0670
  962MOL0     H29803   5.958   3.490   8.877 -2.6727  1.6654 -2.6873
  962MOL0     H29804   5.749   3.486   8.772  1.8479  0.2267  0.9877
  962MOL0     H29805   5.563   3.081   8.645 -1.7381  0.2202 -1.9830
  962MOL0     H29806   5.480   3.129   8.790  4.2246 -1.0010  0.9013
  962MOL0     H29807   5.342   3.289   8.632 -1.9741 -1.1420  0.4883
  962MOL0     H29808   5.454   3.234   8.501  1.1699 -2.4874 -0.6941
  962MOL0     H29809   5.400   3.023   8.519  1.0695  0.6898  0.8738
  962MOL0     H29810   5.284   3.055   8.658  0.4216 -0.0489  0.2310
  962MOL0     H29811   5.167   3.217   8.529  1.0711 -1.3344  1.1545
  962MOL0     H29812   5.246   3.191   8.376  0.9878 -0.1179 -0.2619
  962MOL0     H29813   5.147   2.967   8.343 -0.1196 -2.7363  1.3119
  962MOL0     H29814   5.100   2.954   8.508 -1.8731 -0.3800 -0.7969
  962MOL0     H29815   4.942   3.142   8.486 -0.3062 -2.7203  0.8204
  962MOL0     H29816   4.991   3.181   8.323 -1.5678  0.3360 -0.7200
  962MOL0     H29817   4.927   2.965   8.239  1.2784  1.3827  0.7694
  962MOL0     H29818   4.886   2.903   8.401  1.7925  1.1380  1.7536
  962MOL0     H29819   4.760   3.146   8.265 -2.7262 -0.1935 -0.5552
  962MOL0     H29820   4.717   3.092   8.427  0.8622 -2.7592  1.6135
  962MOL0     H29821   4.568   3.079   8.102  2.6058 -1.7006 -2.7664
  962MOL0     H29822   4.390   2.880   7.976 -1.1984  3.3350 -0.4180
  962MOL0     H29823   4.321   2.760   8.087  1.6229  0.4419  0.2661
  962MOL0     H29824   4.258   3.041   8.056  0.3522 -0.5473 -0.8940
  962MOL0     H29825   4.253   2.953   8.225  2.2688 -0.4960  0.2824
  962MOL0     H29826   4.092   2.796   8.126  1.0030 -0.3423  0.2369
  962MOL0     H29827   4.105   2.888   7.970  1.9926  1.3023 -0.6548
  962MOL0     H29828   3.996   2.966   8.244 -2.3509  2.4947 -0.2034
  962MOL0     H29829   3.898   2.928   8.096  0.2935  1.0908 -2.9419
  962MOL0     H29830   3.809   3.069   8.268 -1.3349 -0.7925 -0.1068
  962MOL0     H29831   3.627   3.298   8.424 -0.7251  0.1742 -0.1685
  962MOL0     H29832   3.503   3.236   8.317  0.7485  2.6519 -1.0669
  962MOL0     H29833   3.615   3.115   8.377 -3.6806 -0.3847 -0.3991
  962MOL0     H29834   3.334   3.588   8.119  2.1345 -2.0153  0.2239
  962MOL0     H29835   3.212   3.805   8.151 -0.5554 -2.5824 -0.5874
  962MOL0     H29836   3.234   4.009   8.276  2.6611 -0.8771 -0.9276
  962MOL0     H29837   3.264   4.181   8.241  2.0784 -0.1063 -0.5938
  962MOL0     H29838   3.108   4.188   8.052 -0.7040  1.1004  0.2943
  962MOL0     H29839   3.080   4.019   8.069  0.0281  0.8721  0.3175
  962MOL0     H29840   3.020   4.086   8.327  0.5410  0.5548 -0.3107
  962MOL0     H29841   2.898   4.106   8.203 -1.1782  1.1861  1.0684
  962MOL0     H29842   3.096   4.338   8.241 -0.4910  0.3556 -0.9245
  962MOL0     H29843   2.943   4.327   8.162 -3.4719 -2.7878  0.1993
  962MOL0     H29844   2.972   4.335   8.466  0.2377 -2.1779 -0.4314
  962MOL0     H29845   2.834   4.260   8.382 -0.0164  0.2208  2.1105
  962MOL0     H29846   2.813   4.477   8.236  0.7916  1.5658  0.4484
  962MOL0     H29847   2.752   4.490   8.380  0.3059  3.1380 -2.1366
  962MOL0     H29848   3.028   4.564   8.414  0.5080 -0.4507 -0.7330
  962MOL0     H29849   2.889   4.668   8.435  2.8657  1.2224  1.1084
  962MOL0     H29850   3.031   4.599   8.178  1.8766  0.6257  1.0263
  962MOL0     H29851   3.050   4.745   8.271  1.7266 -1.1710  0.8947
  962MOL0     H29852   3.585   4.007   8.055  0.7632  0.5883  1.9653
  962MOL0     H29853   3.698   3.795   8.067  0.7861 -4.0278  1.7828
  962MOL0     H29854   3.786   3.478   8.005 -0.1606  0.9584  1.2375
  962MOL0     H29855   3.971   3.342   7.978 -0.2563  0.4712 -0.1497
  962MOL0     H29856   5.708   3.068   8.822  0.5970 -0.8067  0.2316
  962MOL0     H29857   5.934   3.064   8.933 -2.4809 -0.9529 -0.4904
  962MOL0     H29858   6.258   3.381   9.094 -0.9480 -0.9664  0.1632
  962MOL0     H29859   6.448   3.444   9.251 -1.2020  2.1770 -0.2199
  962MOL0     H29860   6.651   3.413   9.425 -0.5955 -1.2745 -1.0603
  962MOL0     H29861   6.521   3.520   9.444  0.1693  0.2319 -1.2438
  962MOL0     H29862   6.544   3.466   9.705  0.7942 -3.4588 -0.0678
  962MOL0     H29863   6.649   3.581   9.617  4.3432 -0.2861  1.1124
  962MOL0     H29864   6.822   3.407   9.605 -1.0767  2.1219 -1.5463
  962MOL0     H29865   6.708   3.293   9.687 -0.0207 -1.1642 -2.0398
  962MOL0     H29866   6.871   3.375   9.840  1.7485  3.5441  0.9151
  962MOL0     H29867   6.733   3.472   9.894  0.9805  3.5439  1.0881
  962MOL0     H29868   6.955   3.790   9.786  0.6954  0.4876 -1.0665
  962MOL0     H29869   6.301   3.148   9.522 -1.0908 -0.7682 -0.3445
  962MOL0     H29870   6.127   3.080   9.362 -0.1699 -0.2265  0.6069
  963MOL0     O29871   2.877   3.964   0.853 -0.2381 -0.0798 -0.4906
  963MOL0     C29872   2.978   4.032   0.859 -0.3178 -0.4667  0.3066
  963MOL0     O29873   3.027   4.101   0.967 -0.4592 -0.2710 -0.4538
  963MOL0     C29874   2.947   4.117   1.076  0.1688  0.5348  0.1920
  963MOL0     C29875   3.005   4.127   1.196  0.5109 -0.8967 -0.7157
  963MOL0     C29876   2.920   4.158   1.309  0.0117 -0.3344  0.5731
  963MOL0     C29877   2.779   4.159   1.304  0.0520  0.3940  1.1014
  963MOL0     O29878   2.693   4.159   1.405 -0.0224  0.3056 -0.2593
  963MOL0     C29879   2.748   4.161   1.536 -0.6024 -0.2211 -0.2140
  963MOL0     C29880   2.632   4.160   1.648  0.4840 -0.4775 -0.0768
  963MOL0     C29881   2.564   4.025   1.636  0.2025 -0.5283 -0.1467
  963MOL0     C29882   2.460   3.982   1.744 -0.4562 -0.1000 -0.5632
  963MOL0     C29883   2.408   3.847   1.707 -0.2698  0.3859  0.2715
  963MOL0     C29884   2.321   3.809   1.826  0.7351  0.2522  0.4995
  963MOL0     C29885   2.272   3.669   1.825  0.6767  0.2279  0.1914
  963MOL0     C29886   2.185   3.622   1.709 -0.1438 -0.3136  0.2595
  963MOL0     N29887   2.144   3.480   1.727  0.0095  0.3209  0.3333
  963MOL0     C29888   2.231   3.379   1.695 -0.9951  0.1910  0.0650
  963MOL0     C29889   2.166   3.268   1.733 -0.3643 -0.1675  0.4223
  963MOL0     C29890   2.214   3.128   1.690 -0.3705  0.8984  0.2937
  963MOL0     C29891   2.242   3.120   1.542  0.2257  0.2294  0.0756
  963MOL0     C29892   2.290   2.978   1.500  0.8648 -0.1001 -0.7485
  963MOL0     C29893   2.272   2.958   1.347 -0.2664 -0.4034  0.7461
  963MOL0     O29894   2.381   3.020   1.276  0.2534  0.3969  0.4124
  963MOL0     C29895   2.367   3.009   1.139 -0.1522  0.1089  0.9244
  963MOL0     C29896   2.382   2.889   1.067  0.2894  0.4710 -0.6413
  963MOL0     C29897   2.360   2.875   0.930 -0.6796  0.5418  0.7590
  963MOL0     C29898   2.377   2.743   0.871 -0.8131  0.3436 -0.1771
  963MOL0     C29899   2.318   2.985   0.858  1.4592  0.2682 -0.7079
  963MOL0     C29900   2.301   2.993   0.707  0.7724  1.5172  0.6268
  963MOL0     O29901   2.201   3.070   0.660  0.3219  0.5219 -0.0631
  963MOL0     C29902   2.152   3.054   0.529 -1.0287 -0.8014  0.4119
  963MOL0     C29903   2.223   3.114   0.419 -0.7465  0.9356 -0.1285
  963MOL0     C29904   2.170   3.111   0.286 -0.5068  0.1294 -1.1571
  963MOL0     C29905   2.058   3.042   0.266 -0.9028 -0.2077 -0.2379
  963MOL0     O29906   2.007   3.033   0.137  0.2937  0.7650  0.2735
  963MOL0     C29907   2.001   2.903   0.078 -0.3757  0.7801 -0.0345
  963MOL0     C29908   1.921   2.910  -0.046 -0.4399 -0.0006  0.0758
  963MOL0     C29909   1.771   2.931  -0.022 -0.1561  0.6490  0.3536
  963MOL0     C29910   1.721   3.072  -0.014 -1.1620 -0.7160 -0.3951
  963MOL0     C29911   1.578   3.082  -0.028 -0.0228 -0.0671  0.4938
  963MOL0     C29912   1.499   3.007   0.083 -0.7729  0.0652  0.1211
  963MOL0     C29913   1.357   3.042   0.074  0.0326 -0.2342  0.1373
  963MOL0     C29914   1.268   2.932   0.125 -0.0431  0.5365 -0.1956
  963MOL0    Cl29915   1.285   2.918   0.299  0.1854  0.0348 -0.3116
  963MOL0     C29916   1.990   2.976   0.367  0.2487  1.1005  0.0613
  963MOL0     C29917   2.044   2.971   0.493  0.3600 -0.3654  0.0609
  963MOL0     O29918   2.381   2.937   0.628 -0.2956  0.0326 -0.2186
  963MOL0     C29919   2.297   3.109   0.927 -0.9939  0.4823  0.2396
  963MOL0     C29920   2.317   3.112   1.063 -0.6734  0.1904 -0.2294
  963MOL0     N29921   2.049   3.306   1.793 -0.2777 -0.0110  0.3349
  963MOL0     N29922   2.034   3.430   1.783 -0.1105 -0.3626  0.4456
  963MOL0     C29923   2.721   4.153   1.174 -0.3768  0.2917 -0.1792
  963MOL0     C29924   2.801   4.136   1.063 -1.0769  0.2289 -0.7227
  963MOL0     C29925   3.056   4.057   0.732  0.1059 -0.0964 -0.9340
  963MOL0     C29926   3.182   4.110   0.737  0.6461  0.2158  0.5810
  963MOL0     C29927   3.263   4.112   0.623 -0.0069  0.5265  0.3455
  963MOL0     C29928   3.212   4.072   0.499  0.1474 -0.0517 -0.4791
  963MOL0     O29929   3.288   4.083   0.389  0.6444  0.7259  0.4605
  963MOL0     C29930   3.339   4.210   0.343 -0.0848  0.7294 -0.0277
  963MOL0     C29931   3.404   4.187   0.211  0.4758 -0.0626 -0.0833
  963MOL0     C29932   3.315   4.133   0.098  0.1950 -1.0764 -0.9035
  963MOL0     C29933   3.193   4.231   0.057  0.3090 -0.6698 -0.6350
  963MOL0     C29934   3.245   4.364   0.025 -0.7062  0.2690 -0.6864
  963MOL0     C29935   3.296   4.475   0.002 -0.2739  0.8517  0.0722
  963MOL0     C29936   3.090   4.012   0.494 -0.2213 -0.1997 -0.6365
  963MOL0     C29937   3.013   4.004   0.613  1.0812  0.4277 -0.0760
  963MOL0     H29938   3.112   4.122   1.217  0.8807  3.0407 -0.9961
  963MOL0     H29939   2.969   4.167   1.406 -1.3310  1.0114  1.1847
  963MOL0     H29940   2.823   4.087   1.564 -0.1136  1.1819  2.6023
  963MOL0     H29941   2.797   4.259   1.547 -1.1106  0.2730 -1.9831
  963MOL0     H29942   2.681   4.164   1.746 -1.9233  0.7212  1.1640
  963MOL0     H29943   2.563   4.245   1.643  0.6184 -0.1967  1.9844
  963MOL0     H29944   2.519   4.023   1.537  0.8401 -0.3891 -0.4440
  963MOL0     H29945   2.645   3.952   1.642 -0.4444 -1.2200  0.2400
  963MOL0     H29946   2.521   3.972   1.834  0.8014 -1.0151 -1.4732
  963MOL0     H29947   2.378   4.054   1.752 -0.2370  0.5442 -3.0741
  963MOL0     H29948   2.348   3.859   1.617  1.4597  2.6800 -0.6606
  963MOL0     H29949   2.492   3.780   1.683  0.5623  1.6960 -0.5693
  963MOL0     H29950   2.374   3.818   1.921  2.1084  0.4830 -0.2537
  963MOL0     H29951   2.230   3.870   1.822  0.0426 -0.7530  0.5639
  963MOL0     H29952   2.358   3.601   1.828  0.9220  0.0378 -4.4189
  963MOL0     H29953   2.212   3.662   1.916  0.1205  2.0136 -0.0002
  963MOL0     H29954   2.245   3.635   1.618 -2.1263  0.5265 -0.9872
  963MOL0     H29955   2.097   3.684   1.691  0.8768  1.5436  1.3747
  963MOL0     H29956   2.320   3.379   1.634 -0.8867  0.5086  0.2199
  963MOL0     H29957   2.301   3.110   1.755  0.8930  1.7720 -1.0885
  963MOL0     H29958   2.135   3.055   1.709 -1.1680  1.0350 -2.1816
  963MOL0     H29959   2.328   3.182   1.515  1.0637 -1.8633 -2.5543
  963MOL0     H29960   2.158   3.154   1.480  1.3572  2.8143 -0.2031
  963MOL0     H29961   2.227   2.901   1.544 -1.2813  0.7394 -2.1952
  963MOL0     H29962   2.398   2.978   1.519  0.4596  3.2653  2.8263
  963MOL0     H29963   2.184   3.006   1.304  1.3104 -0.3688 -2.8470
  963MOL0     H29964   2.261   2.853   1.318  0.0248 -0.1623 -0.2735
  963MOL0     H29965   2.404   2.799   1.124 -3.9301 -2.2378 -2.6955
  963MOL0     H29966   2.438   2.763   0.782 -0.2749 -0.3243  0.0361
  963MOL0     H29967   2.429   2.673   0.938 -1.5553 -1.7488 -1.6689
  963MOL0     H29968   2.280   2.699   0.849 -1.5976  2.1136 -0.4281
  963MOL0     H29969   2.308   3.177   0.444 -0.3353 -0.4573  2.2791
  963MOL0     H29970   2.223   3.168   0.210  0.0604 -2.1545 -2.5738
  963MOL0     H29971   2.102   2.868   0.054 -0.6669  0.5633 -0.9499
  963MOL0     H29972   1.956   2.830   0.146  0.7911  2.1210  2.3241
  963MOL0     H29973   1.967   2.990  -0.104 -1.5311 -0.0799 -0.9444
  963MOL0     H29974   1.935   2.815  -0.099 -2.4846 -0.6476  0.5687
  963MOL0     H29975   1.751   2.872   0.069 -2.0806  0.7465  0.0189
  963MOL0     H29976   1.713   2.883  -0.101 -3.1851  2.6217  1.2435
  963MOL0     H29977   1.745   3.125   0.079 -1.6721 -2.3502  0.7128
  963MOL0     H29978   1.768   3.122  -0.100 -1.1789 -3.5993 -2.1937
  963MOL0     H29979   1.544   3.051  -0.127 -0.8027 -2.2409  1.3874
  963MOL0     H29980   1.557   3.187  -0.006  1.4318  0.6379 -1.2441
  963MOL0     H29981   1.527   2.903   0.066 -0.9720  0.0967 -0.4153
  963MOL0     H29982   1.549   3.036   0.176 -0.4487  0.4085 -0.1561
  963MOL0     H29983   1.334   3.044  -0.033  0.3087  0.9252  0.0808
  963MOL0     H29984   1.332   3.138   0.121 -0.5874 -0.2995 -0.0488
  963MOL0     H29985   1.294   2.835   0.082  0.5891  1.4268 -1.9109
  963MOL0     H29986   1.168   2.964   0.096 -0.7515 -0.2751  1.2315
  963MOL0     H29987   1.889   2.941   0.348 -0.6316  4.2511 -1.9680
  963MOL0     H29988   1.982   2.914   0.562 -1.5898 -0.4064 -1.6464
  963MOL0     H29989   2.254   3.188   0.866  0.8244  1.0638 -0.3650
  963MOL0     H29990   2.296   3.206   1.113  0.2848  0.8368 -1.0040
  963MOL0     H29991   2.612   4.161   1.176 -0.2873  2.0610  2.3806
  963MOL0     H29992   2.743   4.132   0.971 -1.2586 -1.7159 -0.5644
  963MOL0     H29993   3.226   4.157   0.823  3.2291 -0.9074 -0.0435
  963MOL0     H29994   3.363   4.155   0.623 -0.5279  1.8124  0.8097
  963MOL0     H29995   3.268   4.291   0.324  1.7134  2.2454 -0.5418
  963MOL0     H29996   3.413   4.256   0.410 -0.2047  0.0757  0.5701
  963MOL0     H29997   3.486   4.115   0.221 -0.3844 -1.3455 -1.7274
  963MOL0     H29998   3.448   4.285   0.191 -1.2514  0.2315 -3.0758
  963MOL0     H29999   3.280   4.034   0.128  1.0014 -1.6288 -1.7335
  963MOL0     H30000   3.379   4.129   0.009  1.3744  0.1002 -0.1503
  963MOL0     H30001   3.124   4.235   0.141  1.4855 -1.6917  0.4252
  963MOL0     H30002   3.137   4.202  -0.033 -4.8013  3.9985  0.5468
  963MOL0     H30003   3.347   4.568  -0.012  0.1611  0.9335  1.9744
  963MOL0     H30004   3.049   3.968   0.403  3.4752 -1.2758 -1.9447
  963MOL0     H30005   2.922   3.945   0.609  0.6381  1.1738 -2.6919
  964MOL0     O30006   4.616   3.447   0.402  0.3697 -0.4067 -0.7449
  964MOL0     C30007   4.642   3.326   0.393  0.2137 -0.1568  0.4474
  964MOL0     O30008   4.754   3.278   0.439  0.3703  0.6096 -0.2140
  964MOL0     C30009   4.861   3.347   0.494  0.1607 -0.2675  0.9417
  964MOL0     C30010   4.954   3.269   0.557  0.5861  0.5126  0.0914
  964MOL0     C30011   5.075   3.324   0.614 -0.2334  0.7809 -0.4408
  964MOL0     C30012   5.104   3.455   0.599  0.7703  0.2519 -0.2228
  964MOL0     O30013   5.220   3.501   0.655  0.2323 -0.0352  0.0805
  964MOL0     C30014   5.300   3.571   0.557  0.3477 -0.4905 -0.5687
  964MOL0     C30015   5.445   3.571   0.603 -0.3525 -0.5994 -0.1083
  964MOL0     C30016   5.502   3.436   0.629  0.2897  0.6230  0.1349
  964MOL0     C30017   5.654   3.447   0.641  0.3886 -0.4093  0.2349
  964MOL0     C30018   5.715   3.307   0.685  1.5065 -0.9249  0.8238
  964MOL0     C30019   5.863   3.313   0.723  0.4538 -0.4947  0.3602
  964MOL0     C30020   5.891   3.406   0.844 -0.1344 -0.0527  0.1208
  964MOL0     C30021   5.982   3.526   0.803  0.4527  0.1751 -0.4761
  964MOL0     N30022   6.127   3.505   0.791 -0.0854 -0.8944 -0.8035
  964MOL0     C30023   6.208   3.439   0.883  0.1672  0.7262 -0.2584
  964MOL0     C30024   6.332   3.456   0.834  0.5105 -0.9686  0.5645
  964MOL0     C30025   6.459   3.406   0.897  0.5074 -0.6918  0.3782
  964MOL0     C30026   6.439   3.266   0.959  0.0836 -0.4683 -0.2443
  964MOL0     C30027   6.406   3.289   1.114 -0.5581  0.2391 -0.6717
  964MOL0     C30028   6.397   3.153   1.171 -0.6747 -0.6284 -0.4776
  964MOL0     O30029   6.295   3.071   1.120  0.3731  0.1182  0.1362
  964MOL0     C30030   6.157   3.095   1.133 -1.1275  0.0406 -0.4214
  964MOL0     C30031   6.100   3.182   1.230 -0.0757  0.4452 -0.0091
  964MOL0     C30032   5.965   3.219   1.237  0.3289 -0.0819  0.1065
  964MOL0     C30033   5.928   3.319   1.340  0.4666 -0.9707  0.2289
  964MOL0     C30034   5.879   3.156   1.139 -0.4539  0.5636 -0.3104
  964MOL0     C30035   5.732   3.162   1.137  0.0037  1.3028  0.5381
  964MOL0     O30036   5.655   3.069   1.069 -0.4384 -0.4520  0.4539
  964MOL0     C30037   5.518   3.076   1.069  0.5322  0.8783 -0.5591
  964MOL0     C30038   5.454   2.953   1.100  0.1147 -0.1893  0.9585
  964MOL0     C30039   5.315   2.959   1.122  0.9496  0.0340 -0.1105
  964MOL0     C30040   5.245   3.082   1.106  0.1866  0.1408  0.3658
  964MOL0     O30041   5.111   3.083   1.133  0.5187 -0.2647  0.5503
  964MOL0     C30042   5.037   3.199   1.160  0.2233  0.0341 -0.3148
  964MOL0     C30043   4.892   3.163   1.181 -0.5004  0.6533 -0.9661
  964MOL0     C30044   4.861   3.116   1.323 -0.2482  0.4992 -0.3908
  964MOL0     C30045   4.715   3.069   1.341  0.7287  0.0173  0.9343
  964MOL0     C30046   4.694   3.055   1.489  0.2995  0.4834 -0.4269
  964MOL0     C30047   4.549   3.012   1.537 -0.0335 -0.1952 -0.4165
  964MOL0     C30048   4.544   2.857   1.540  1.2553  0.0786  0.2573
  964MOL0     C30049   4.400   2.807   1.532 -0.1683 -0.4112 -0.0206
  964MOL0    Cl30050   4.309   2.836   1.681 -0.3130  0.0748  0.0363
  964MOL0     C30051   5.307   3.197   1.072  0.1696  0.1231 -0.0060
  964MOL0     C30052   5.442   3.193   1.039 -0.4072  0.1363 -0.3702
  964MOL0     O30053   5.683   3.263   1.187 -0.6550  0.2197 -0.1726
  964MOL0     C30054   5.941   3.056   1.055  0.1111  0.2566  0.3212
  964MOL0     C30055   6.074   3.026   1.051  0.2293  0.6092 -0.1122
  964MOL0     N30056   6.322   3.535   0.722  0.1139  0.8139  0.5305
  964MOL0     N30057   6.203   3.553   0.693 -0.3276 -0.6567 -0.6776
  964MOL0     C30058   5.005   3.541   0.551 -0.1301 -0.6512 -0.1905
  964MOL0     C30059   4.885   3.488   0.502  0.2268 -0.3423 -0.1092
  964MOL0     C30060   4.539   3.246   0.318 -0.3464 -0.2180 -0.3194
  964MOL0     C30061   4.421   3.302   0.266 -0.6107 -0.1978  0.1941
  964MOL0     C30062   4.350   3.226   0.167 -0.3709 -0.3779 -0.3366
  964MOL0     C30063   4.384   3.090   0.132 -0.0859  0.2341  0.4798
  964MOL0     O30064   4.324   3.012   0.039 -0.1499  0.3543  0.2384
  964MOL0     C30065   4.228   3.057  -0.053 -1.3992  0.6488  0.3661
  964MOL0     C30066   4.090   3.050   0.009 -0.1982 -0.0214  0.0927
  964MOL0     C30067   3.994   3.094  -0.102 -0.0721  0.8646  1.4125
  964MOL0     C30068   3.854   3.133  -0.060  0.0049  0.3898 -0.2341
  964MOL0     C30069   3.833   3.269  -0.008 -0.8743 -0.5845  0.2395
  964MOL0     C30070   3.804   3.387  -0.002 -0.3051 -0.2917  1.1897
  964MOL0     C30071   4.494   3.034   0.193  0.3143  0.0396  0.5794
  964MOL0     C30072   4.562   3.116   0.281 -0.4887  0.2561  0.1222
  964MOL0     H30073   4.950   3.161   0.566 -2.4659  0.6987  2.4750
  964MOL0     H30074   5.150   3.262   0.663 -1.5695  0.7243  1.6348
  964MOL0     H30075   5.305   3.529   0.456  1.7675  0.6543 -1.0207
  964MOL0     H30076   5.267   3.675   0.557  1.5195 -0.0974 -0.1182
  964MOL0     H30077   5.495   3.631   0.527 -0.6689  2.4644  1.9190
  964MOL0     H30078   5.453   3.615   0.702  0.0947  0.9828 -0.8141
  964MOL0     H30079   5.462   3.388   0.719  1.8630 -1.0588  0.0025
  964MOL0     H30080   5.481   3.370   0.544 -1.0119  0.1030  0.8371
  964MOL0     H30081   5.707   3.467   0.547  1.8089  1.1567  1.3055
  964MOL0     H30082   5.683   3.528   0.708 -1.4301  1.8133 -1.4957
  964MOL0     H30083   5.665   3.260   0.771 -2.2561 -1.5292 -1.4946
  964MOL0     H30084   5.701   3.231   0.607 -0.5768 -1.1116  1.3196
  964MOL0     H30085   5.905   3.217   0.754  1.0003 -0.1955  0.5448
  964MOL0     H30086   5.916   3.348   0.634  1.7954 -0.7682  1.0309
  964MOL0     H30087   5.798   3.444   0.888  0.8092 -0.3404  2.5125
  964MOL0     H30088   5.935   3.339   0.919  1.1405 -1.0728 -1.4681
  964MOL0     H30089   5.976   3.593   0.889  2.5535 -2.0107  1.5465
  964MOL0     H30090   5.940   3.555   0.707 -0.9813 -0.2877 -0.0147
  964MOL0     H30091   6.194   3.378   0.972  3.7661 -1.0131 -0.6987
  964MOL0     H30092   6.552   3.401   0.840 -1.4003 -1.0095 -3.0107
  964MOL0     H30093   6.482   3.476   0.977 -3.2580  0.2783  0.7974
  964MOL0     H30094   6.529   3.205   0.953  1.5201  1.3266  1.7303
  964MOL0     H30095   6.355   3.212   0.914  0.8489 -1.5059 -0.4663
  964MOL0     H30096   6.308   3.333   1.135  0.1575  0.5795  2.5785
  964MOL0     H30097   6.484   3.344   1.167 -0.1996 -1.1586  0.3101
  964MOL0     H30098   6.378   3.173   1.276 -1.5106  0.1210 -0.7581
  964MOL0     H30099   6.488   3.094   1.157 -0.3980  0.0493 -1.6552
  964MOL0     H30100   6.170   3.231   1.298  0.4457 -1.9007  1.2319
  964MOL0     H30101   5.834   3.295   1.389 -0.4059  0.5873 -0.5784
  964MOL0     H30102   6.013   3.320   1.409 -0.0232 -0.2929  0.8404
  964MOL0     H30103   5.927   3.421   1.299  0.0126 -1.6566 -1.5439
  964MOL0     H30104   5.510   2.861   1.117 -0.0693 -1.1276 -2.6842
  964MOL0     H30105   5.249   2.879   1.156  2.2562 -1.8707 -1.7958
  964MOL0     H30106   5.075   3.257   1.244  0.3470 -1.0614  0.3979
  964MOL0     H30107   5.042   3.263   1.071 -0.8671 -2.7594 -2.5617
  964MOL0     H30108   4.823   3.246   1.166  0.8684  2.6410  2.4196
  964MOL0     H30109   4.876   3.078   1.115  0.3299 -0.2698 -0.0163
  964MOL0     H30110   4.873   3.203   1.388 -0.4089  1.5101 -1.6627
  964MOL0     H30111   4.932   3.042   1.360  0.1658  0.6917 -0.7917
  964MOL0     H30112   4.646   3.134   1.287 -0.0009 -0.7388  0.9446
  964MOL0     H30113   4.694   2.971   1.298  1.4765  1.8098 -4.1559
  964MOL0     H30114   4.704   3.154   1.533 -0.2026  0.3947 -0.0874
  964MOL0     H30115   4.761   2.983   1.538  0.5518  1.0122  0.0139
  964MOL0     H30116   4.519   3.047   1.636 -0.1828 -0.7182 -0.2706
  964MOL0     H30117   4.475   3.056   1.470 -1.3062  3.8963  3.2845
  964MOL0     H30118   4.600   2.820   1.627 -0.1133  0.3461  1.2914
  964MOL0     H30119   4.591   2.816   1.451  0.8924  1.6599 -0.7125
  964MOL0     H30120   4.413   2.700   1.515  1.8025 -0.3392  0.8143
  964MOL0     H30121   4.343   2.859   1.454 -0.3500  1.2164  1.1245
  964MOL0     H30122   5.247   3.287   1.065 -2.2339 -1.3394  0.2769
  964MOL0     H30123   5.491   3.288   1.020  1.7363 -1.0044 -0.9203
  964MOL0     H30124   5.878   3.004   0.984  0.6133  0.9429 -0.6558
  964MOL0     H30125   6.109   2.952   0.980  0.1539  1.9746 -1.6487
  964MOL0     H30126   5.029   3.647   0.544 -2.1826  0.0628  2.1317
  964MOL0     H30127   4.826   3.573   0.470  1.4547  0.1746 -1.1036
  964MOL0     H30128   4.400   3.403   0.298  0.4209  0.2127 -0.3613
  964MOL0     H30129   4.274   3.272   0.105 -2.8203 -1.1844  1.8809
  964MOL0     H30130   4.246   3.161  -0.083 -0.4621 -0.0517 -1.6940
  964MOL0     H30131   4.226   3.003  -0.148 -0.5601  2.7192 -0.9099
  964MOL0     H30132   4.091   3.117   0.095  0.6225 -1.2198  1.0639
  964MOL0     H30133   4.071   2.944   0.029  2.7218 -1.0930 -2.0334
  964MOL0     H30134   3.971   3.010  -0.168 -0.0547  0.3527  2.0401
  964MOL0     H30135   4.041   3.175  -0.157  0.3049  0.5712  1.2973
  964MOL0     H30136   3.816   3.065   0.016  0.5084 -0.0848 -0.3986
  964MOL0     H30137   3.797   3.117  -0.151  1.1367  0.2197 -0.9392
  964MOL0     H30138   3.787   3.492  -0.006 -3.2552 -0.6787  1.4002
  964MOL0     H30139   4.541   2.942   0.161 -1.1570 -0.5600  0.0996
  964MOL0     H30140   4.659   3.084   0.317 -0.0012  1.2254 -0.3017
  965MOL0     O30141   4.220  10.417   5.176  0.0081 -0.2517 -0.6720
  965MOL0     C30142   4.235  10.349   5.283  0.2141  0.4504  0.1653
  965MOL0     O30143   4.136  10.327   5.376 -0.0613  0.3472  0.0159
  965MOL0     C30144   4.002  10.359   5.365  0.7117  0.1436  0.4003
  965MOL0     C30145   3.930  10.324   5.249  0.0231 -0.0547 -0.0676
  965MOL0     C30146   3.791  10.340   5.247  0.4993  0.1420  0.0367
  965MOL0     C30147   3.727  10.399   5.357  0.1426 -0.1947  0.1780
  965MOL0     O30148   3.596  10.438   5.354  0.2385 -0.4819 -0.3427
  965MOL0     C30149   3.506  10.344   5.287 -0.9003 -0.3382 -1.1114
  965MOL0     C30150   3.357  10.376   5.309 -0.1191 -0.3859 -0.0416
  965MOL0     C30151   3.334  10.384   5.455 -0.1700 -0.7828  0.5655
  965MOL0     C30152   3.196  10.394   5.517  0.3475 -0.3346  0.1336
  965MOL0     C30153   3.110  10.504   5.459 -0.5016 -0.7142  0.4152
  965MOL0     C30154   2.977  10.528   5.531  0.5988  0.1403 -0.0357
  965MOL0     C30155   2.893  10.641   5.472  0.0699  0.1352  0.5104
  965MOL0     C30156   2.774  10.668   5.564  0.4677  0.6016  0.9762
  965MOL0     N30157   2.676  10.564   5.564  0.6507  0.2625  0.2084
  965MOL0     C30158   2.618  10.503   5.458 -0.4146  0.8551 -0.0351
  965MOL0     C30159   2.507  10.425   5.508 -0.1023  0.3626  0.6065
  965MOL0     C30160   2.403  10.354   5.421 -0.5312  0.2633 -0.1230
  965MOL0     C30161   2.251  10.392   5.451  0.3896 -0.7729 -0.7475
  965MOL0     C30162   2.154  10.272   5.462  0.2059 -0.1948  0.5126
  965MOL0     C30163   2.126  10.208   5.328  0.1331  0.7978 -0.2660
  965MOL0     O30164   2.084  10.310   5.234 -0.2284  0.1197 -0.5777
  965MOL0     C30165   1.954  10.331   5.206  1.0416 -0.3297 -0.0764
  965MOL0     C30166   1.837  10.319   5.291 -0.7192 -0.3449 -0.0080
  965MOL0     C30167   1.708  10.332   5.249 -0.0592  0.1464  0.2889
  965MOL0     C30168   1.591  10.314   5.355  0.3605  0.4502  0.0862
  965MOL0     C30169   1.694  10.368   5.106 -0.5362  0.4319 -0.3125
  965MOL0     C30170   1.554  10.390   5.042  0.3388 -0.0112  0.1778
  965MOL0     O30171   1.446  10.418   5.129 -0.2769  1.0939 -0.2210
  965MOL0     C30172   1.339  10.470   5.072  0.1624  0.3836 -0.2909
  965MOL0     C30173   1.230  10.386   5.032 -0.3951 -0.3551 -0.3167
  965MOL0     C30174   1.124  10.446   4.958  0.2542 -0.3798 -0.0469
  965MOL0     C30175   1.119  10.579   4.924 -0.1422 -0.6257  0.3069
  965MOL0     O30176   1.013  10.644   4.857 -0.5148  0.2940  0.1071
  965MOL0     C30177   0.942  10.742   4.934 -0.2624 -0.6653  0.2432
  965MOL0     C30178   0.788  10.740   4.907 -0.0018 -1.1640 -0.4327
  965MOL0     C30179   0.717  10.870   4.962 -0.7113  0.9325  0.0925
  965MOL0     C30180   0.569  10.852   5.001  0.1223 -0.6959 -0.7335
  965MOL0     C30181   0.490  10.976   5.055 -0.6454  0.8161  0.1554
  965MOL0     C30182   0.338  10.947   5.080  1.1399 -0.4708 -0.2541
  965MOL0     C30183   0.275  11.047   5.174  0.1284 -0.1864 -0.1171
  965MOL0     C30184   0.246  11.192   5.115  0.2701  0.2500 -0.1877
  965MOL0    Cl30185   0.154  11.302   5.237  0.2931 -0.4878 -0.5856
  965MOL0     C30186   1.230  10.661   4.969  0.2929  0.0123  0.3000
  965MOL0     C30187   1.337  10.607   5.040  1.0864  0.9892 -0.3559
  965MOL0     O30188   1.551  10.381   4.917  0.4782  0.1116 -0.1006
  965MOL0     C30189   1.810  10.383   5.031  0.2797  0.1425  0.7275
  965MOL0     C30190   1.937  10.368   5.078  0.5363  0.1784  0.2766
  965MOL0     N30191   2.511  10.436   5.648  0.0665 -0.1681 -0.6121
  965MOL0     N30192   2.604  10.520   5.677 -0.4395 -0.8803  0.4551
  965MOL0     C30193   3.798  10.430   5.478  1.3942  0.0243  0.6793
  965MOL0     C30194   3.930  10.399   5.484 -0.3297 -0.6532 -0.4101
  965MOL0     C30195   4.355  10.278   5.315 -0.5113  0.8317 -0.7619
  965MOL0     C30196   4.354  10.158   5.392  0.3026 -0.1459 -0.7746
  965MOL0     C30197   4.473  10.092   5.409  1.2907 -0.1516  0.3978
  965MOL0     C30198   4.590  10.121   5.326  0.1214 -0.3783  0.2206
  965MOL0     O30199   4.690  10.033   5.343  0.1946  0.4399  0.2756
  965MOL0     C30200   4.805  10.024   5.260 -0.1887 -1.3370 -0.2381
  965MOL0     C30201   4.773   9.945   5.137 -0.3291 -0.1563  0.0997
  965MOL0     C30202   4.757   9.791   5.157 -0.7814 -0.7131 -0.9088
  965MOL0     C30203   4.802   9.708   5.042  0.1029  0.7240  0.3874
  965MOL0     C30204   4.698   9.685   4.935 -0.3281 -0.0244  0.2568
  965MOL0     C30205   4.619   9.667   4.849  0.4388 -0.4411 -1.1593
  965MOL0     C30206   4.594  10.234   5.237  0.7216  0.0433 -0.5611
  965MOL0     C30207   4.475  10.308   5.241  1.1995 -0.1745  0.2960
  965MOL0     H30208   3.975  10.278   5.161  1.7106  2.0387 -0.4014
  965MOL0     H30209   3.748  10.318   5.150  1.8122 -1.8896 -0.1384
  965MOL0     H30210   3.512  10.349   5.178 -2.7982  3.1646 -1.1878
  965MOL0     H30211   3.548  10.253   5.332  1.5929  1.1907 -0.0828
  965MOL0     H30212   3.340  10.469   5.254  1.4154  0.9328  1.5999
  965MOL0     H30213   3.302  10.292   5.266 -0.7053  0.9944 -2.1386
  965MOL0     H30214   3.387  10.295   5.489  3.3283  0.8481 -0.1899
  965MOL0     H30215   3.383  10.475   5.491  0.3983 -1.4478  1.4975
  965MOL0     H30216   3.148  10.299   5.492 -1.7750  0.7335 -0.0079
  965MOL0     H30217   3.213  10.393   5.625 -2.1198 -0.6606  0.5583
  965MOL0     H30218   3.173  10.593   5.455 -1.0764 -0.1534  2.7080
  965MOL0     H30219   3.091  10.487   5.352 -2.1933  1.3698  0.3027
  965MOL0     H30220   2.912  10.440   5.524  0.8027  0.0220 -0.5020
  965MOL0     H30221   2.990  10.544   5.638  0.8315 -1.8243  0.2698
  965MOL0     H30222   2.959  10.728   5.467  0.9285 -0.5081  0.4146
  965MOL0     H30223   2.846  10.638   5.374 -1.2170 -0.6950  1.1222
  965MOL0     H30224   2.721  10.748   5.510  2.0892  0.5443 -0.7921
  965MOL0     H30225   2.801  10.692   5.667 -1.6077  0.4014  1.6071
  965MOL0     H30226   2.665  10.509   5.360  2.0395  3.8188  1.1530
  965MOL0     H30227   2.429  10.378   5.317  3.8631  1.9327  1.1183
  965MOL0     H30228   2.423  10.249   5.441  1.9968  0.9061  1.1492
  965MOL0     H30229   2.218  10.472   5.384  1.8791 -0.8229 -1.5746
  965MOL0     H30230   2.247  10.442   5.549 -0.5775  0.6029 -1.4517
  965MOL0     H30231   2.058  10.300   5.507  0.8994  0.4209  1.6712
  965MOL0     H30232   2.214  10.206   5.525 -0.5852  0.4498  2.0206
  965MOL0     H30233   2.040  10.141   5.337  0.4461 -0.2250 -3.6572
  965MOL0     H30234   2.211  10.149   5.292 -1.0347 -2.2626  1.6567
  965MOL0     H30235   1.847  10.302   5.398  1.0813 -2.2379 -0.4134
  965MOL0     H30236   1.546  10.404   5.399  1.2490  0.5729  0.7775
  965MOL0     H30237   1.514  10.253   5.306  3.7149 -3.0614 -1.2389
  965MOL0     H30238   1.630  10.245   5.430 -1.8624  0.1643  1.0542
  965MOL0     H30239   1.230  10.281   5.056  1.1863 -0.6156 -1.3727
  965MOL0     H30240   1.038  10.384   4.934 -0.4633  1.0059 -1.2542
  965MOL0     H30241   0.952  10.708   5.038 -2.7491 -1.4602  0.2956
  965MOL0     H30242   0.982  10.843   4.923 -2.2675 -0.0474 -2.5785
  965MOL0     H30243   0.765  10.731   4.800  1.4237 -0.3194 -0.8463
  965MOL0     H30244   0.748  10.654   4.961 -1.8736  0.4873  0.9348
  965MOL0     H30245   0.731  10.941   4.880 -1.8143  0.4014 -0.5749
  965MOL0     H30246   0.778  10.898   5.048  0.9412 -1.7921 -0.0718
  965MOL0     H30247   0.515  10.817   4.912 -1.3726 -3.0298  0.9980
  965MOL0     H30248   0.570  10.762   5.062  2.0081 -1.3193 -1.6162
  965MOL0     H30249   0.492  11.064   4.990 -0.3724  1.3400  0.8631
  965MOL0     H30250   0.543  10.998   5.149  0.9431 -0.8921 -0.2868
  965MOL0     H30251   0.281  10.935   4.988  1.4134 -2.2376 -0.2414
  965MOL0     H30252   0.333  10.851   5.134  1.0399 -0.3478 -0.0408
  965MOL0     H30253   0.337  11.066   5.262  0.6372  2.0946 -0.8831
  965MOL0     H30254   0.176  11.013   5.203 -0.1420  2.4227  2.5003
  965MOL0     H30255   0.186  11.179   5.025 -1.1637 -3.0071  1.0999
  965MOL0     H30256   0.344  11.236   5.090 -0.6443  3.2219  1.0575
  965MOL0     H30257   1.231  10.768   4.948 -0.7820 -0.0120  0.0366
  965MOL0     H30258   1.426  10.667   5.056  2.7853 -1.2034 -1.1106
  965MOL0     H30259   1.799  10.405   4.925  0.7063 -1.5643  0.2959
  965MOL0     H30260   2.024  10.377   5.014  0.9269  0.9357  0.8952
  965MOL0     H30261   3.737  10.470   5.558 -1.1081  1.3953 -1.7197
  965MOL0     H30262   3.987  10.404   5.577 -0.7849  1.1970 -0.1946
  965MOL0     H30263   4.267  10.117   5.442  1.0352 -0.6257  0.1417
  965MOL0     H30264   4.473  10.010   5.479  0.7495  1.4698  2.3816
  965MOL0     H30265   4.830  10.125   5.226 -1.4278 -1.3321 -1.2067
  965MOL0     H30266   4.881   9.983   5.328 -0.1473 -2.1893 -0.7935
  965MOL0     H30267   4.856   9.954   5.066 -0.0031 -1.8689  0.2170
  965MOL0     H30268   4.679   9.980   5.095 -0.7948 -0.7526  0.6299
  965MOL0     H30269   4.649   9.789   5.177 -0.8864 -0.1387 -1.4057
  965MOL0     H30270   4.805   9.761   5.251 -0.9122  1.4161 -0.0925
  965MOL0     H30271   4.829   9.612   5.087  1.0378  0.4085 -0.7728
  965MOL0     H30272   4.892   9.745   4.992  1.4562  0.3089  2.3976
  965MOL0     H30273   4.539   9.653   4.779  0.7675 -1.8565 -1.2816
  965MOL0     H30274   4.684  10.262   5.182  0.2796 -2.7337 -2.9541
  965MOL0     H30275   4.472  10.396   5.177 -1.4665  0.3701  1.0415
  966MOL0     O30276   7.244  10.633   0.813 -0.0355  1.1189 -0.0456
  966MOL0     C30277   7.282  10.632   0.932 -0.0347  0.1607 -0.0589
  966MOL0     O30278   7.207  10.683   1.035  0.7647  0.0193 -0.0500
  966MOL0     C30279   7.068  10.692   1.014  0.4499  0.3387  1.3687
  966MOL0     C30280   6.993  10.584   0.961  0.1944 -0.2034  0.2235
  966MOL0     C30281   6.854  10.596   0.946  0.4487  0.0723  0.0975
  966MOL0     C30282   6.789  10.713   0.997  0.9408 -0.1879 -0.3541
  966MOL0     O30283   6.652  10.707   0.992 -0.4138  0.2946 -0.0051
  966MOL0     C30284   6.594  10.818   1.032  0.0894 -0.6750 -0.3462
  966MOL0     C30285   6.442  10.801   1.013 -0.7247 -0.6099  0.3378
  966MOL0     C30286   6.356  10.921   1.032 -0.7396  0.5817 -0.9272
  966MOL0     C30287   6.210  10.899   1.000  0.0082 -0.1193  0.2740
  966MOL0     C30288   6.119  11.024   1.025 -0.5456 -0.3381  0.6629
  966MOL0     C30289   6.093  11.029   1.177  0.0204  0.1488 -0.1305
  966MOL0     C30290   6.007  11.158   1.206  0.3455  0.2290  0.6182
  966MOL0     C30291   5.929  11.141   1.332  0.1894  0.3384  0.3813
  966MOL0     N30292   5.826  11.245   1.344 -0.1619  0.2319 -0.7211
  966MOL0     C30293   5.764  11.323   1.251 -0.5714 -0.1226  0.0513
  966MOL0     C30294   5.678  11.395   1.320  1.1506  0.4167  0.2343
  966MOL0     C30295   5.602  11.500   1.256  0.6456 -0.2730 -0.0928
  966MOL0     C30296   5.506  11.450   1.148  0.0109 -0.1791 -0.1489
  966MOL0     C30297   5.400  11.347   1.191  0.0158 -0.8131  0.8960
  966MOL0     C30298   5.297  11.309   1.074  0.6003  1.5387 -0.5784
  966MOL0     O30299   5.211  11.424   1.042 -0.0955  0.5747 -0.0573
  966MOL0     C30300   5.105  11.384   0.960 -0.1444 -0.4013  0.2669
  966MOL0     C30301   5.076  11.262   0.903 -0.6156  0.1379 -0.3980
  966MOL0     C30302   4.957  11.244   0.838 -0.7292  0.1558 -0.1422
  966MOL0     C30303   4.928  11.097   0.789  0.3434 -0.6152 -0.2449
  966MOL0     C30304   4.855  11.338   0.831 -0.3151 -0.5754  0.7892
  966MOL0     C30305   4.719  11.321   0.778  0.0705  0.6956 -0.5654
  966MOL0     O30306   4.641  11.438   0.771  0.8839 -0.0132  0.6518
  966MOL0     C30307   4.508  11.433   0.720 -0.9413  0.0871  0.3155
  966MOL0     C30308   4.466  11.554   0.670 -1.0968  0.3149  0.0999
  966MOL0     C30309   4.337  11.574   0.636  0.4335 -0.2787 -0.2031
  966MOL0     C30310   4.244  11.469   0.641 -0.0925 -0.4849 -0.2554
  966MOL0     O30311   4.125  11.473   0.576 -0.1969 -0.2826 -0.1077
  966MOL0     C30312   4.033  11.577   0.626 -0.6155 -0.3132  0.5845
  966MOL0     C30313   3.944  11.642   0.521 -1.2480  0.0612 -0.0908
  966MOL0     C30314   3.926  11.569   0.385  0.0862 -0.4160 -0.3392
  966MOL0     C30315   3.818  11.638   0.302 -0.1586  0.1976  0.1973
  966MOL0     C30316   3.805  11.567   0.166  0.3306 -0.4327  0.3820
  966MOL0     C30317   3.675  11.600   0.088  0.1059  0.6690 -0.2779
  966MOL0     C30318   3.651  11.519  -0.038 -0.1196 -0.0785 -0.4485
  966MOL0     C30319   3.568  11.600  -0.137  0.7228 -0.4021  0.4877
  966MOL0    Cl30320   3.393  11.611  -0.079  0.5084 -0.5084  0.1949
  966MOL0     C30321   4.287  11.340   0.692  0.5530  0.2766 -0.1701
  966MOL0     C30322   4.420  11.324   0.735  0.1639  0.8607 -0.4722
  966MOL0     O30323   4.687  11.206   0.729  0.2054  0.1708 -0.3194
  966MOL0     C30324   4.892  11.467   0.880 -0.0588  0.2048  0.3692
  966MOL0     C30325   5.017  11.493   0.939  0.2605 -0.0527 -0.4720
  966MOL0     N30326   5.694  11.373   1.458  0.6836 -0.0317 -0.6801
  966MOL0     N30327   5.769  11.271   1.468  0.3515 -0.5816 -0.3221
  966MOL0     C30328   6.864  10.814   1.053 -1.0976 -0.8578  0.6341
  966MOL0     C30329   7.000  10.805   1.059  0.1442  0.9104  0.2409
  966MOL0     C30330   7.422  10.589   0.968 -0.0090 -0.2551  0.0981
  966MOL0     C30331   7.467  10.616   1.103  0.1586  0.8629  0.2649
  966MOL0     C30332   7.599  10.594   1.135 -0.1037  0.0716  0.6890
  966MOL0     C30333   7.684  10.529   1.046  0.3560  0.4497 -0.9346
  966MOL0     O30334   7.812  10.488   1.071  0.3954  0.5980  0.8877
  966MOL0     C30335   7.867  10.470   1.196  0.1485  0.2287 -0.5175
  966MOL0     C30336   8.011  10.411   1.195  0.6038 -0.1109  0.1735
  966MOL0     C30337   8.100  10.527   1.157  0.3737  0.1985 -0.8575
  966MOL0     C30338   8.238  10.470   1.132  0.2360 -0.5515 -0.2818
  966MOL0     C30339   8.292  10.382   1.227 -0.6700  0.2148  0.0020
  966MOL0     C30340   8.344  10.322   1.320 -0.3994 -0.1753  0.1659
  966MOL0     C30341   7.635  10.506   0.914 -0.4783 -0.0715  0.7799
  966MOL0     C30342   7.504  10.527   0.874 -0.0420  0.2532 -0.3855
  966MOL0     H30343   7.037  10.496   0.916 -0.7742 -0.4277 -0.3130
  966MOL0     H30344   6.795  10.518   0.898  1.4695  0.6115 -2.1820
  966MOL0     H30345   6.610  10.848   1.136 -2.4125  0.0997 -0.1273
  966MOL0     H30346   6.617  10.909   0.975 -0.4323 -0.6136 -0.4608
  966MOL0     H30347   6.436  10.755   0.914  1.5612 -0.3527  0.0170
  966MOL0     H30348   6.420  10.724   1.087 -1.5894  0.5471  1.3208
  966MOL0     H30349   6.347  10.955   1.135 -2.0111 -1.1132 -0.4266
  966MOL0     H30350   6.395  11.004   0.973  2.4261  0.1667  0.3445
  966MOL0     H30351   6.199  10.882   0.892 -2.4464 -1.5614  0.6611
  966MOL0     H30352   6.165  10.814   1.052 -1.4254 -0.9503 -2.1252
  966MOL0     H30353   6.169  11.114   0.986 -0.3221 -1.5752 -2.2212
  966MOL0     H30354   6.026  11.014   0.969  0.1028 -0.2534 -0.4628
  966MOL0     H30355   6.030  10.943   1.200 -0.6121  1.2832  2.7557
  966MOL0     H30356   6.185  11.027   1.235 -0.6086  3.1081  1.1229
  966MOL0     H30357   6.070  11.247   1.199  0.3973  0.0803 -1.8527
  966MOL0     H30358   5.934  11.158   1.125  0.1227 -2.0275  0.7470
  966MOL0     H30359   5.989  11.153   1.423  1.4861  2.9668 -0.7062
  966MOL0     H30360   5.879  11.043   1.332  0.2544  0.2777 -1.2782
  966MOL0     H30361   5.790  11.337   1.146  1.1342  3.4196  0.7959
  966MOL0     H30362   5.544  11.543   1.338  1.3064  0.7038 -0.1214
  966MOL0     H30363   5.666  11.575   1.210 -2.7061  2.3441 -0.8533
  966MOL0     H30364   5.561  11.404   1.065  3.4569  0.0695  1.8277
  966MOL0     H30365   5.448  11.535   1.110 -0.7559 -0.2689  0.7806
  966MOL0     H30366   5.334  11.379   1.272 -3.0418  1.2294 -2.1078
  966MOL0     H30367   5.449  11.254   1.220  0.0793 -1.5272 -1.3527
  966MOL0     H30368   5.241  11.219   1.102  0.2248  1.6727 -0.8943
  966MOL0     H30369   5.347  11.270   0.985 -1.2881 -1.2861 -0.5179
  966MOL0     H30370   5.134  11.174   0.926 -1.3070  0.5178  3.4970
  966MOL0     H30371   4.845  11.053   0.845  0.8141 -0.7099  0.3959
  966MOL0     H30372   4.923  11.098   0.680  0.4520 -2.6971 -0.3110
  966MOL0     H30373   5.012  11.034   0.819  2.7484  1.0226 -3.0271
  966MOL0     H30374   4.528  11.643   0.668 -0.0700 -0.3791  0.2771
  966MOL0     H30375   4.306  11.673   0.605 -2.4390 -0.9814  0.1374
  966MOL0     H30376   3.957  11.542   0.697 -2.9822 -0.0902 -1.7011
  966MOL0     H30377   4.087  11.658   0.676  3.3494 -0.9127 -2.2968
  966MOL0     H30378   3.843  11.634   0.563 -1.2798 -3.8142 -0.5287
  966MOL0     H30379   3.974  11.746   0.506 -0.5780 -0.0134  0.7097
  966MOL0     H30380   3.896  11.465   0.404 -1.6408  0.0120 -0.5757
  966MOL0     H30381   4.017  11.574   0.324 -0.4675 -1.3502 -1.2780
  966MOL0     H30382   3.729  11.632   0.366 -0.4512  3.1767  0.1957
  966MOL0     H30383   3.849  11.740   0.281 -0.3452  0.6246  1.8611
  966MOL0     H30384   3.811  11.463   0.199 -3.3409 -0.7550  0.4186
  966MOL0     H30385   3.887  11.601   0.102  1.3505  2.7474  3.0753
  966MOL0     H30386   3.596  11.598   0.164  1.0323  1.6372  0.7524
  966MOL0     H30387   3.693  11.701   0.051  2.1418  0.4642  0.0490
  966MOL0     H30388   3.603  11.424  -0.011  0.3995 -0.3706 -0.5206
  966MOL0     H30389   3.743  11.488  -0.090 -0.8147  0.5819 -2.1428
  966MOL0     H30390   3.567  11.557  -0.238 -3.1518  1.7927 -0.6084
  966MOL0     H30391   3.616  11.698  -0.151 -1.0432  0.9939  3.2638
  966MOL0     H30392   4.223  11.253   0.698 -0.2080  0.9070  2.2190
  966MOL0     H30393   4.449  11.234   0.788  0.5256  0.3132 -1.5919
  966MOL0     H30394   4.819  11.547   0.886 -0.2328  0.0072  0.9272
  966MOL0     H30395   5.026  11.592   0.982  1.8077  0.2045 -1.2988
  966MOL0     H30396   6.822  10.906   1.092  2.3242  1.1276  0.0266
  966MOL0     H30397   7.054  10.877   1.119  0.8607  0.2494  0.3984
  966MOL0     H30398   7.399  10.665   1.172  1.8097  0.5365  2.2378
  966MOL0     H30399   7.637  10.636   1.228 -2.4351  3.9471  0.0931
  966MOL0     H30400   7.867  10.564   1.252 -0.3342 -1.2934  2.2284
  966MOL0     H30401   7.813  10.392   1.252 -3.2689  1.9831 -1.0896
  966MOL0     H30402   8.017  10.344   1.109  0.1117  0.9880 -0.7455
  966MOL0     H30403   8.044  10.369   1.291 -0.4286  1.9901  1.5238
  966MOL0     H30404   8.098  10.615   1.222  2.0865 -0.0983 -0.3511
  966MOL0     H30405   8.054  10.557   1.062  0.8796 -0.7517 -1.4204
  966MOL0     H30406   8.297  10.562   1.139 -0.6880  0.2277 -2.1219
  966MOL0     H30407   8.243  10.431   1.030  1.7402  2.2786 -1.4204
  966MOL0     H30408   8.394  10.275   1.402  0.6655  1.3126  0.4261
  966MOL0     H30409   7.708  10.460   0.846  0.9908  0.8316  1.6912
  966MOL0     H30410   7.466  10.511   0.774 -2.7057  3.4983 -0.0614
  967MOL0     O30411  11.068   7.152   6.801  0.3004  0.3883 -0.4378
  967MOL0     C30412  11.144   7.079   6.864  0.3120 -0.6892 -0.0072
  967MOL0     O30413  11.103   6.978   6.957  0.5266  0.3743 -0.2249
  967MOL0     C30414  10.979   6.924   6.924  0.6877 -0.1266 -0.0839
  967MOL0     C30415  10.964   6.822   6.834  0.2729 -0.0256  0.0373
  967MOL0     C30416  10.833   6.769   6.817 -0.0669 -0.1252  0.5064
  967MOL0     C30417  10.714   6.836   6.866  0.1308  0.2985 -0.0921
  967MOL0     O30418  10.596   6.767   6.840  0.2961  0.0198  0.3135
  967MOL0     C30419  10.482   6.847   6.856  0.0455 -0.3001 -0.3240
  967MOL0     C30420  10.358   6.779   6.799 -0.4313  0.4075 -0.1593
  967MOL0     C30421  10.235   6.871   6.816 -0.1638  0.5490  0.0996
  967MOL0     C30422  10.145   6.831   6.701 -0.6194  0.3953 -0.4182
  967MOL0     C30423  10.012   6.899   6.721 -0.5040 -0.4681 -0.4066
  967MOL0     C30424  10.023   7.036   6.661  0.0117  0.5279 -0.5935
  967MOL0     C30425   9.906   7.127   6.673 -0.8359 -0.7032 -0.1898
  967MOL0     C30426   9.896   7.171   6.819 -0.3432 -0.1775 -0.8449
  967MOL0     N30427   9.808   7.282   6.826  0.3836  0.1163 -0.0911
  967MOL0     C30428   9.666   7.267   6.796 -0.9848  0.4322  0.0169
  967MOL0     C30429   9.610   7.383   6.847 -0.9058 -0.5711  0.7078
  967MOL0     C30430   9.470   7.420   6.841  0.1649 -0.6205  0.0301
  967MOL0     C30431   9.426   7.480   6.978 -0.0663  0.7874  1.0402
  967MOL0     C30432   9.275   7.505   6.986 -0.8282  0.0304 -0.7079
  967MOL0     C30433   9.192   7.371   7.005  0.0279 -0.0500 -0.1617
  967MOL0     O30434   9.052   7.402   7.029  0.3503  0.5054  0.0428
  967MOL0     C30435   8.966   7.296   7.032 -0.1805  0.5661 -0.2928
  967MOL0     C30436   8.992   7.155   7.044  0.1646  0.0456  0.7853
  967MOL0     C30437   8.884   7.061   7.035 -0.2890 -0.1182 -1.0035
  967MOL0     C30438   8.927   6.918   7.050 -0.4712  0.5416  0.5417
  967MOL0     C30439   8.751   7.114   7.040  0.3243  0.0765  0.0907
  967MOL0     C30440   8.616   7.038   7.015 -0.9727  0.2753 -0.4029
  967MOL0     O30441   8.509   7.113   6.964 -0.3683  0.3650 -0.6977
  967MOL0     C30442   8.390   7.045   6.960 -0.4307  0.1798 -0.1101
  967MOL0     C30443   8.284   7.112   7.019  0.7983 -0.1998 -0.7935
  967MOL0     C30444   8.155   7.052   7.035  0.4702 -0.7820 -0.2748
  967MOL0     C30445   8.147   6.920   6.997  1.1060  0.2348  0.6807
  967MOL0     O30446   8.016   6.860   7.016 -0.0339 -0.5178  0.6283
  967MOL0     C30447   7.991   6.746   6.940  0.3958 -0.3026 -0.0764
  967MOL0     C30448   7.850   6.700   6.937 -0.1899  0.2898  0.8628
  967MOL0     C30449   7.796   6.679   7.081 -0.5380 -0.5293  0.5628
  967MOL0     C30450   7.879   6.567   7.166 -0.6015  0.4935  0.5505
  967MOL0     C30451   7.861   6.413   7.126  0.6849 -0.8648  0.0978
  967MOL0     C30452   7.951   6.329   7.212 -0.2878  0.1777  0.3486
  967MOL0     C30453   8.095   6.334   7.176 -0.3856 -0.2869  0.2518
  967MOL0     C30454   8.183   6.248   7.262 -0.0711 -0.0139  0.1894
  967MOL0    Cl30455   8.126   6.083   7.266 -0.0844 -0.3984  0.2033
  967MOL0     C30456   8.263   6.849   6.946  0.0077 -0.1780  0.1735
  967MOL0     C30457   8.379   6.912   6.923 -0.2526  1.0068 -0.3616
  967MOL0     O30458   8.615   6.923   7.061  0.0902 -0.1166  0.3407
  967MOL0     C30459   8.729   7.258   7.044  0.0532  0.2511  0.0295
  967MOL0     C30460   8.835   7.345   7.033  0.4456 -0.2677  0.0636
  967MOL0     N30461   9.709   7.461   6.906  0.7617  0.6163 -0.0669
  967MOL0     N30462   9.822   7.396   6.888  0.1246  0.3242 -0.3570
  967MOL0     C30463  10.734   6.935   6.959 -0.3380 -0.6172 -0.1555
  967MOL0     C30464  10.867   6.978   6.983  0.2543 -0.1581  0.1828
  967MOL0     C30465  11.286   7.127   6.848 -1.5101 -0.5880 -0.5941
  967MOL0     C30466  11.386   7.068   6.929 -1.1540  0.1844  0.4069
  967MOL0     C30467  11.521   7.104   6.907  0.0887 -0.9152 -0.5033
  967MOL0     C30468  11.559   7.200   6.814  0.4516 -0.3639 -0.1137
  967MOL0     O30469  11.681   7.249   6.788  0.0197  0.4868 -0.8082
  967MOL0     C30470  11.733   7.323   6.899  0.5456 -0.1822 -0.1637
  967MOL0     C30471  11.833   7.434   6.874 -0.3843 -0.2395  0.9992
  967MOL0     C30472  11.778   7.552   6.793 -0.4836 -0.5622  0.0858
  967MOL0     C30473  11.863   7.680   6.799  0.3341 -0.6656  0.5542
  967MOL0     C30474  11.829   7.748   6.923 -0.2796 -0.0723  0.4998
  967MOL0     C30475  11.801   7.793   7.029 -0.1717  0.1187  0.0639
  967MOL0     C30476  11.454   7.256   6.735 -0.1427 -0.3250  0.0430
  967MOL0     C30477  11.325   7.223   6.753 -0.2186  0.0928 -0.1678
  967MOL0     H30478  11.057   6.793   6.786  1.1766  0.5843  1.3565
  967MOL0     H30479  10.830   6.690   6.742  2.6559 -0.4208  0.6302
  967MOL0     H30480  10.464   6.873   6.961  2.7414 -0.4502  0.2426
  967MOL0     H30481  10.493   6.939   6.799 -1.7956 -0.1260 -0.4613
  967MOL0     H30482  10.378   6.764   6.692  1.5570 -2.1258  0.4412
  967MOL0     H30483  10.341   6.681   6.844  0.9484 -1.6555 -3.6974
  967MOL0     H30484  10.190   6.857   6.915 -0.7885 -3.0089 -0.5651
  967MOL0     H30485  10.258   6.975   6.792 -2.1584  0.3730 -3.1334
  967MOL0     H30486  10.193   6.847   6.604  1.6047 -0.2180  0.5110
  967MOL0     H30487  10.128   6.723   6.693  0.3537  0.1435  0.5934
  967MOL0     H30488   9.933   6.846   6.668  0.9294 -1.6484 -1.4159
  967MOL0     H30489   9.985   6.920   6.826 -2.5793  1.5401 -1.2466
  967MOL0     H30490  10.110   7.093   6.697 -0.1065  0.3915 -0.0791
  967MOL0     H30491  10.054   7.029   6.557 -0.7892 -3.0120 -0.7148
  967MOL0     H30492   9.927   7.217   6.614  0.2216 -0.2223  0.8635
  967MOL0     H30493   9.818   7.070   6.644 -0.4276 -2.7245  2.2256
  967MOL0     H30494   9.995   7.194   6.857  0.1063 -1.2644 -1.3027
  967MOL0     H30495   9.857   7.082   6.870  2.1636 -0.3222  0.9886
  967MOL0     H30496   9.620   7.178   6.754 -0.5903  0.2020  0.0701
  967MOL0     H30497   9.455   7.484   6.754  0.0194 -2.6773 -1.5535
  967MOL0     H30498   9.417   7.328   6.814 -0.6458  0.2141 -1.3362
  967MOL0     H30499   9.476   7.577   6.982  3.8445 -0.9159 -1.0874
  967MOL0     H30500   9.449   7.410   7.060  1.9486  1.0565  0.7574
  967MOL0     H30501   9.245   7.559   6.896 -0.0394  0.1212 -0.9211
  967MOL0     H30502   9.262   7.572   7.072  1.0599 -1.3733  0.7609
  967MOL0     H30503   9.228   7.313   7.091 -0.0821  1.3407  0.8573
  967MOL0     H30504   9.211   7.306   6.919  2.7509  1.5595 -0.8768
  967MOL0     H30505   9.096   7.128   7.060  0.4566 -0.3410 -1.3774
  967MOL0     H30506   8.913   6.894   7.156  3.2870  1.1600  1.3286
  967MOL0     H30507   8.863   6.857   6.985  0.7518 -0.1045 -0.0886
  967MOL0     H30508   9.029   6.903   7.015 -0.7297 -0.1273  0.0515
  967MOL0     H30509   8.293   7.215   7.055 -3.4587 -0.8467  3.0930
  967MOL0     H30510   8.070   7.102   7.081  1.1458  1.0419 -0.9025
  967MOL0     H30511   8.028   6.763   6.838  3.1601  0.0834  0.8951
  967MOL0     H30512   8.060   6.670   6.978  1.7835  1.8693  1.9669
  967MOL0     H30513   7.788   6.778   6.891 -0.4613  0.8909  2.1871
  967MOL0     H30514   7.840   6.608   6.880 -0.9497  2.0732 -2.1376
  967MOL0     H30515   7.689   6.655   7.072 -1.9812  4.0893  2.3338
  967MOL0     H30516   7.802   6.773   7.135  1.3703 -0.8117  0.8936
  967MOL0     H30517   7.984   6.597   7.159 -0.3396 -0.5949 -0.6439
  967MOL0     H30518   7.861   6.572   7.274  3.3397  2.4454  1.2877
  967MOL0     H30519   7.881   6.388   7.022 -0.6406 -0.8694 -0.1682
  967MOL0     H30520   7.754   6.391   7.133  0.5500 -0.8617 -1.6026
  967MOL0     H30521   7.934   6.345   7.319 -1.8306 -1.0013  0.3114
  967MOL0     H30522   7.916   6.228   7.187  0.1957  0.0049  0.3716
  967MOL0     H30523   8.131   6.437   7.171 -0.3025 -0.1758  2.2609
  967MOL0     H30524   8.113   6.310   7.071 -1.3781  3.2537 -0.8523
  967MOL0     H30525   8.188   6.292   7.362 -3.0173 -0.2838  0.5315
  967MOL0     H30526   8.278   6.244   7.209  1.0824 -1.6148  2.2144
  967MOL0     H30527   8.249   6.743   6.930  3.2415 -1.4719  4.1966
  967MOL0     H30528   8.465   6.860   6.881 -0.6637  0.7596 -0.9201
  967MOL0     H30529   8.633   7.308   7.042 -0.9222 -1.2975  2.8011
  967MOL0     H30530   8.819   7.452   7.032  1.4164  0.0242  3.4895
  967MOL0     H30531  10.649   6.997   6.990 -2.1858 -2.7972 -0.5982
  967MOL0     H30532  10.892   7.062   7.046 -3.5572  0.6848  0.8213
  967MOL0     H30533  11.366   6.995   7.007 -1.0195 -1.6131 -1.1561
  967MOL0     H30534  11.598   7.053   6.965 -1.4074  0.6582  3.2301
  967MOL0     H30535  11.648   7.367   6.952 -0.9741 -0.7194 -2.0605
  967MOL0     H30536  11.781   7.248   6.963  2.2767  1.3517  0.4214
  967MOL0     H30537  11.925   7.410   6.820 -1.1133  4.0090 -2.6464
  967MOL0     H30538  11.873   7.458   6.973  0.4661  1.0933  0.3464
  967MOL0     H30539  11.675   7.569   6.826 -0.5753  2.1708 -1.3408
  967MOL0     H30540  11.782   7.518   6.689  1.4149 -0.9461  0.2537
  967MOL0     H30541  11.822   7.736   6.715  1.4746 -0.7949 -0.0999
  967MOL0     H30542  11.971   7.666   6.803  0.2802 -1.4238 -0.5222
  967MOL0     H30543  11.782   7.830   7.127 -1.0161 -1.9489  0.7144
  967MOL0     H30544  11.475   7.349   6.683 -1.0040  0.5855  1.2571
  967MOL0     H30545  11.247   7.254   6.685 -0.4311 -2.1195 -1.0192
  968MOL0     O30546   6.040   7.160   9.061  0.0734 -0.5116  0.0219
  968MOL0     C30547   6.025   7.216   8.952 -0.2583 -0.7490  0.5506
  968MOL0     O30548   6.001   7.146   8.837  0.0812 -0.3184  0.0335
  968MOL0     C30549   6.026   7.009   8.841 -0.1195 -0.3233 -0.4631
  968MOL0     C30550   6.157   6.960   8.863  0.7212  0.6012 -0.4090
  968MOL0     C30551   6.194   6.825   8.854 -0.6944 -0.8222  0.8083
  968MOL0     C30552   6.088   6.731   8.834  0.4196  0.8138 -0.5321
  968MOL0     O30553   6.109   6.596   8.831  0.0513  0.3060 -0.7504
  968MOL0     C30554   6.133   6.562   8.696 -0.0863 -0.0046  0.6347
  968MOL0     C30555   6.187   6.420   8.686  0.9505 -0.0603  0.2066
  968MOL0     C30556   6.328   6.406   8.747 -0.6666  0.8858  0.8023
  968MOL0     C30557   6.397   6.268   8.744  0.4954 -0.1432  1.0443
  968MOL0     C30558   6.545   6.269   8.783  0.6822 -0.2866 -0.0712
  968MOL0     C30559   6.616   6.131   8.797  0.0396 -0.3578 -0.0254
  968MOL0     C30560   6.653   6.051   8.670  0.2014 -0.6182 -1.0311
  968MOL0     C30561   6.728   6.143   8.573 -0.2826  0.1796 -0.5990
  968MOL0     N30562   6.794   6.071   8.474 -0.5499  0.2370  0.4606
  968MOL0     C30563   6.741   6.020   8.362  0.2545  0.4231 -0.1738
  968MOL0     C30564   6.854   5.975   8.294 -1.2233 -0.3606 -0.0420
  968MOL0     C30565   6.852   5.906   8.164 -0.3337 -0.1958  0.5572
  968MOL0     C30566   6.965   5.958   8.062  0.7112  0.2253  0.2155
  968MOL0     C30567   6.940   5.925   7.911  0.4471 -0.7460 -0.4017
  968MOL0     C30568   6.868   5.793   7.879 -0.4530 -0.2050 -0.3458
  968MOL0     O30569   6.940   5.679   7.943 -0.1146  0.1153 -0.6052
  968MOL0     C30570   7.059   5.641   7.894  0.0046 -0.8501 -0.7305
  968MOL0     C30571   7.122   5.529   7.965  0.3700  0.1346  0.2308
  968MOL0     C30572   7.239   5.476   7.916  0.0463  0.2840  0.3309
  968MOL0     C30573   7.294   5.358   7.992 -0.4523 -0.1869  0.0084
  968MOL0     C30574   7.303   5.533   7.801 -0.7575  0.0268  0.2325
  968MOL0     C30575   7.441   5.501   7.756  0.6815 -0.9215 -0.1953
  968MOL0     O30576   7.467   5.475   7.626 -0.4023  0.5530 -0.0045
  968MOL0     C30577   7.594   5.496   7.573  0.2906 -0.0994 -0.1408
  968MOL0     C30578   7.600   5.582   7.463  0.3306  0.2209 -0.0602
  968MOL0     C30579   7.723   5.603   7.395  0.0542  0.8971 -1.1954
  968MOL0     C30580   7.842   5.530   7.447 -0.3536 -0.5354 -0.4200
  968MOL0     O30581   7.964   5.540   7.383 -1.1550 -0.3257 -0.0993
  968MOL0     C30582   8.002   5.671   7.326  0.0246  0.5492  0.2622
  968MOL0     C30583   8.152   5.651   7.292  0.2514 -0.8862 -0.8991
  968MOL0     C30584   8.242   5.624   7.413  0.6927  0.1540 -0.1848
  968MOL0     C30585   8.395   5.666   7.387  1.0801 -0.3170 -0.3906
  968MOL0     C30586   8.483   5.683   7.512  0.2735  0.2831 -0.3366
  968MOL0     C30587   8.433   5.806   7.594  0.2266 -0.4304 -0.0703
  968MOL0     C30588   8.520   5.837   7.717  0.1074  0.1147 -0.5296
  968MOL0     C30589   8.623   5.953   7.708 -0.8146  0.0352  0.4498
  968MOL0    Cl30590   8.535   6.108   7.698 -0.1106 -0.0692 -0.5552
  968MOL0     C30591   7.831   5.446   7.557 -0.4905 -0.9290  0.3458
  968MOL0     C30592   7.708   5.430   7.621 -0.1230  0.1282 -0.7020
  968MOL0     O30593   7.524   5.525   7.847 -0.1392 -0.0920  0.3309
  968MOL0     C30594   7.243   5.643   7.734 -0.3848  0.6550 -0.7629
  968MOL0     C30595   7.127   5.703   7.786 -0.4065 -0.0602 -0.0747
  968MOL0     N30596   6.970   6.001   8.367  0.1004  0.0734 -0.9087
  968MOL0     N30597   6.931   6.054   8.476  0.1197  0.0501 -0.3699
  968MOL0     C30598   5.962   6.769   8.809 -0.4131 -0.4901  0.3774
  968MOL0     C30599   5.929   6.906   8.809  0.3859 -0.0294  0.4272
  968MOL0     C30600   6.034   7.364   8.945 -0.0585  0.4255  1.1108
  968MOL0     C30601   6.004   7.429   8.819  0.4249 -0.0813 -0.3234
  968MOL0     C30602   5.989   7.567   8.810  0.4492  0.0071 -0.2814
  968MOL0     C30603   5.998   7.646   8.918 -0.5278  0.4429  0.5183
  968MOL0     O30604   5.985   7.775   8.883  0.2688 -0.4597 -0.1143
  968MOL0     C30605   5.993   7.876   8.983 -0.0439 -0.7457  0.3800
  968MOL0     C30606   5.950   8.013   8.925  0.0695  0.1009 -0.7310
  968MOL0     C30607   5.828   7.998   8.828  0.1468 -0.3634 -0.8817
  968MOL0     C30608   5.759   8.117   8.778 -0.1103 -0.0501  0.7212
  968MOL0     C30609   5.631   8.108   8.714 -0.4951 -0.0456 -0.2084
  968MOL0     C30610   5.532   8.110   8.641 -0.3266 -0.1707  0.5137
  968MOL0     C30611   6.036   7.593   9.045  0.0435  0.2091 -0.0179
  968MOL0     C30612   6.050   7.450   9.059  0.6961  0.7672  0.3262
  968MOL0     H30613   6.235   7.030   8.891  1.1034 -0.5498  1.5539
  968MOL0     H30614   6.299   6.802   8.866  0.1260  2.1727  0.1452
  968MOL0     H30615   6.042   6.554   8.635 -0.1455 -0.8184  0.8218
  968MOL0     H30616   6.197   6.635   8.645 -0.7441 -0.1691 -0.4774
  968MOL0     H30617   6.115   6.353   8.733 -1.5674  2.6889  0.5912
  968MOL0     H30618   6.179   6.390   8.581 -0.6615  2.1618 -0.3790
  968MOL0     H30619   6.395   6.471   8.691  0.2382 -1.4404 -0.9518
  968MOL0     H30620   6.318   6.453   8.846 -1.7209 -2.3096  2.3664
  968MOL0     H30621   6.335   6.203   8.806  0.3025 -1.4230 -0.4219
  968MOL0     H30622   6.382   6.223   8.645 -1.5240 -0.9253  1.6683
  968MOL0     H30623   6.601   6.326   8.709  0.6161 -0.5628 -0.3341
  968MOL0     H30624   6.549   6.313   8.883  2.8415  1.5583 -0.8718
  968MOL0     H30625   6.706   6.145   8.857 -0.1736  3.5553 -0.3825
  968MOL0     H30626   6.547   6.064   8.849 -2.2767  0.8409 -1.4210
  968MOL0     H30627   6.722   5.970   8.695  0.3365 -0.7580 -1.8262
  968MOL0     H30628   6.567   6.006   8.620 -0.1779  0.6588 -1.5879
  968MOL0     H30629   6.796   6.215   8.618 -2.4898  0.2680  2.9681
  968MOL0     H30630   6.650   6.202   8.524 -0.1762  0.5674 -0.3062
  968MOL0     H30631   6.638   6.008   8.333  0.7693  1.2612 -2.5444
  968MOL0     H30632   6.881   5.802   8.179  1.8208 -0.1310 -2.3630
  968MOL0     H30633   6.753   5.910   8.117 -1.2061 -0.3472  2.3007
  968MOL0     H30634   7.052   5.899   8.089 -0.7011 -1.5843  1.0112
  968MOL0     H30635   6.984   6.063   8.085 -0.2936  0.1680  1.4127
  968MOL0     H30636   7.035   5.938   7.859  0.5856 -1.7599 -0.4279
  968MOL0     H30637   6.874   6.002   7.869  0.6308 -0.5622 -0.3557
  968MOL0     H30638   6.857   5.781   7.771  1.0509 -0.4509 -0.4934
  968MOL0     H30639   6.766   5.808   7.916 -0.5045  2.7555 -1.4240
  968MOL0     H30640   7.065   5.483   8.045 -2.8544  2.2543 -0.6549
  968MOL0     H30641   7.233   5.337   8.080  1.6068 -1.6599  1.1734
  968MOL0     H30642   7.308   5.267   7.933  2.8207  1.0289 -1.3444
  968MOL0     H30643   7.387   5.383   8.044 -1.6675  2.9418  0.9342
  968MOL0     H30644   7.515   5.621   7.408  1.5162  1.0122 -1.4013
  968MOL0     H30645   7.728   5.669   7.310 -1.0235  1.4423 -0.8484
  968MOL0     H30646   7.947   5.694   7.235  1.8798  2.4836 -0.4260
  968MOL0     H30647   7.975   5.744   7.403  1.9991  0.8206  0.7452
  968MOL0     H30648   8.177   5.568   7.225 -2.4084 -4.2926  1.9763
  968MOL0     H30649   8.172   5.752   7.254  0.2134 -0.1147  1.0379
  968MOL0     H30650   8.237   5.517   7.434 -1.7516  0.4342  0.9543
  968MOL0     H30651   8.200   5.678   7.498  1.3017  0.0020  0.2173
  968MOL0     H30652   8.430   5.592   7.314  1.5363 -0.9821  0.4765
  968MOL0     H30653   8.401   5.766   7.343 -0.0884 -0.7920 -1.7304
  968MOL0     H30654   8.587   5.699   7.483  1.4403 -0.3731  3.0068
  968MOL0     H30655   8.487   5.589   7.567  0.4982  0.5989  0.1912
  968MOL0     H30656   8.429   5.894   7.529  1.8152  0.7868  1.3802
  968MOL0     H30657   8.335   5.780   7.633  0.8456 -0.1534  1.7826
  968MOL0     H30658   8.569   5.744   7.749 -0.3001  0.0890  0.0326
  968MOL0     H30659   8.449   5.860   7.796  0.2821 -1.1787  0.0328
  968MOL0     H30660   8.684   5.946   7.617 -2.8134 -1.7672 -0.8614
  968MOL0     H30661   8.683   5.946   7.799 -0.3505 -3.7741  0.0177
  968MOL0     H30662   7.926   5.401   7.585  0.0787  1.1723  2.1385
  968MOL0     H30663   7.704   5.358   7.701  4.4735  0.2290 -0.1457
  968MOL0     H30664   7.298   5.695   7.655 -0.8779  0.6003 -1.1506
  968MOL0     H30665   7.069   5.767   7.721 -0.0365  1.3047  0.8932
  968MOL0     H30666   5.896   6.688   8.779 -0.1341 -0.1727 -1.1645
  968MOL0     H30667   5.825   6.935   8.796  0.4859  0.4854  0.7378
  968MOL0     H30668   6.000   7.365   8.731 -0.9661 -1.4990  0.7078
  968MOL0     H30669   5.979   7.616   8.713  0.9855 -0.0908 -0.3912
  968MOL0     H30670   5.928   7.846   9.066 -0.8917 -0.6924 -0.2505
  968MOL0     H30671   6.097   7.896   9.011 -0.0356 -2.3448  1.5924
  968MOL0     H30672   6.036   8.058   8.875  2.5453 -0.1557  2.9686
  968MOL0     H30673   5.911   8.065   9.012 -0.3249  1.2073 -1.5503
  968MOL0     H30674   5.755   7.933   8.876 -1.5231  2.1849  0.2730
  968MOL0     H30675   5.861   7.958   8.732  1.6193  0.3015 -0.6863
  968MOL0     H30676   5.826   8.162   8.705  1.1314  0.6356  2.2278
  968MOL0     H30677   5.758   8.186   8.863 -1.4396 -1.7854  2.2103
  968MOL0     H30678   5.446   8.097   8.579  0.7356  0.4059 -1.1520
  968MOL0     H30679   6.057   7.666   9.122  1.7213  0.0407 -0.2678
  968MOL0     H30680   6.078   7.401   9.152  0.3573 -0.5042 -0.2133
  969MOL0     O30681   3.526   6.262   8.654  0.0299 -0.4224  0.1216
  969MOL0     C30682   3.468   6.362   8.594  0.2955  0.5566 -0.1504
  969MOL0     O30683   3.347   6.403   8.617  0.1463 -0.1925  0.5291
  969MOL0     C30684   3.275   6.363   8.731 -0.4142 -0.0989 -0.4751
  969MOL0     C30685   3.332   6.354   8.859 -0.0572 -0.5247 -0.0630
  969MOL0     C30686   3.252   6.332   8.976  0.3905  0.7909  0.5762
  969MOL0     C30687   3.113   6.308   8.949 -0.5141 -0.9394 -0.3536
  969MOL0     O30688   3.014   6.288   9.051 -0.7878  0.0333  0.6347
  969MOL0     C30689   3.050   6.316   9.177  0.5573  0.5453 -0.4185
  969MOL0     C30690   2.930   6.279   9.272  0.0090  0.1505  0.0706
  969MOL0     C30691   2.872   6.133   9.253 -0.2543 -0.9638  0.4732
  969MOL0     C30692   2.769   6.104   9.368 -0.1338  0.1166 -0.9891
  969MOL0     C30693   2.738   5.951   9.386 -0.1909  0.2150 -1.0607
  969MOL0     C30694   2.660   5.914   9.509 -1.3270 -0.1249 -0.8830
  969MOL0     C30695   2.750   5.933   9.632  0.6312 -0.8663 -0.5017
  969MOL0     C30696   2.686   5.859   9.759 -0.0948  0.9830  0.4368
  969MOL0     N30697   2.604   5.739   9.728 -0.5402  0.0419  0.0974
  969MOL0     C30698   2.656   5.612   9.749  0.3368  0.6344  1.0119
  969MOL0     C30699   2.558   5.534   9.696 -0.2327  0.0635 -0.1133
  969MOL0     C30700   2.581   5.397   9.659  0.3416  0.5810  0.1951
  969MOL0     C30701   2.503   5.315   9.768  0.5742 -0.1851  0.4507
  969MOL0     C30702   2.477   5.160   9.744 -0.3629  1.0626 -0.9106
  969MOL0     C30703   2.379   5.095   9.841 -0.0294  0.8369 -0.6200
  969MOL0     O30704   2.252   5.155   9.850 -0.7268  0.0392 -0.7043
  969MOL0     C30705   2.159   5.142   9.752  0.7724  0.8743 -0.2518
  969MOL0     C30706   2.077   5.255   9.739  0.5244 -0.6208  0.2083
  969MOL0     C30707   1.987   5.253   9.633  0.5078 -0.4956 -0.3821
  969MOL0     C30708   1.914   5.395   9.610 -0.1067  0.8098 -0.3799
  969MOL0     C30709   1.960   5.139   9.553 -0.1646 -0.4546  0.0459
  969MOL0     C30710   1.866   5.139   9.437  0.6449  0.4135  0.5438
  969MOL0     O30711   1.757   5.215   9.451 -0.5644 -0.0757 -0.4797
  969MOL0     C30712   1.676   5.250   9.339 -1.0650  0.6714  0.5843
  969MOL0     C30713   1.578   5.164   9.286 -0.2619 -0.0156 -0.3570
  969MOL0     C30714   1.504   5.193   9.175 -0.2878  0.3644  0.4675
  969MOL0     C30715   1.514   5.315   9.111  0.6969  1.0886 -0.0247
  969MOL0     O30716   1.439   5.334   8.996  0.1517 -0.7553  0.3115
  969MOL0     C30717   1.477   5.441   8.903 -0.1742  0.6384  0.1467
  969MOL0     C30718   1.381   5.437   8.783 -0.1297  0.4042 -0.6325
  969MOL0     C30719   1.356   5.566   8.705  0.0790 -0.8070  0.0112
  969MOL0     C30720   1.495   5.634   8.684  0.2524  0.8619  1.0236
  969MOL0     C30721   1.468   5.760   8.600 -0.7664  0.3547  0.4116
  969MOL0     C30722   1.430   5.736   8.451 -0.3345  0.4341  1.0002
  969MOL0     C30723   1.449   5.862   8.357  0.5657  0.4965  0.1752
  969MOL0     C30724   1.385   5.988   8.421 -0.9770  0.6065  0.1036
  969MOL0    Cl30725   1.217   5.971   8.402  0.1977 -0.0248  0.2201
  969MOL0     C30726   1.604   5.406   9.163  0.0047 -0.0284 -0.0548
  969MOL0     C30727   1.685   5.369   9.276 -0.1966 -0.1803  0.0560
  969MOL0     O30728   1.897   5.085   9.334  0.3101  0.1834 -0.2987
  969MOL0     C30729   2.044   5.028   9.578  0.4620 -0.7328  0.1777
  969MOL0     C30730   2.139   5.027   9.674 -0.3358  0.4393 -0.1860
  969MOL0     N30731   2.444   5.609   9.662 -0.7883 -0.1200  0.6678
  969MOL0     N30732   2.479   5.731   9.681 -0.0372 -0.9474 -0.1952
  969MOL0     C30733   3.061   6.320   8.826  0.0633  0.0642  0.3139
  969MOL0     C30734   3.140   6.342   8.713 -0.4184  0.5049 -0.0088
  969MOL0     C30735   3.533   6.448   8.497  0.4029  0.7448  1.0152
  969MOL0     C30736   3.465   6.538   8.416 -0.7506  1.0131  0.2229
  969MOL0     C30737   3.534   6.615   8.330 -0.3410 -0.2862 -0.1669
  969MOL0     C30738   3.669   6.612   8.315  0.5453 -0.2352  0.1730
  969MOL0     O30739   3.714   6.705   8.233  0.0027  0.3707 -0.2627
  969MOL0     C30740   3.856   6.715   8.229  1.4091  0.3415  0.4045
  969MOL0     C30741   3.909   6.785   8.097  0.0206  0.1279 -0.1236
  969MOL0     C30742   4.061   6.803   8.117  0.3041 -0.6359 -0.5886
  969MOL0     C30743   4.128   6.678   8.090 -1.0275  1.2555  0.3034
  969MOL0     C30744   4.274   6.698   8.095 -0.5670  0.4313  0.5895
  969MOL0     C30745   4.393   6.716   8.115  0.6327  0.0413  0.9568
  969MOL0     C30746   3.743   6.518   8.398 -0.0367 -0.1796 -0.1917
  969MOL0     C30747   3.675   6.429   8.477  0.4609  0.6433 -0.0965
  969MOL0     H30748   3.437   6.372   8.884 -0.5533  3.4274 -0.1146
  969MOL0     H30749   3.292   6.314   9.074  1.3729 -3.5180 -0.4289
  969MOL0     H30750   3.137   6.255   9.204  0.1594 -0.6157 -1.6418
  969MOL0     H30751   3.079   6.421   9.183 -0.6026  0.9530 -1.4935
  969MOL0     H30752   2.968   6.305   9.371  0.7957  0.0858 -0.2102
  969MOL0     H30753   2.849   6.351   9.261  1.2943  1.6872  0.3633
  969MOL0     H30754   2.816   6.146   9.160  0.0784  2.0951  0.6120
  969MOL0     H30755   2.956   6.064   9.241  0.6812  0.3860 -1.1105
  969MOL0     H30756   2.802   6.147   9.462 -2.7778 -1.1974  0.6582
  969MOL0     H30757   2.681   6.163   9.339 -0.4690 -0.5596 -1.3701
  969MOL0     H30758   2.677   5.917   9.302  1.0327 -3.3584 -0.6910
  969MOL0     H30759   2.833   5.898   9.371  1.0608  2.2915 -0.8339
  969MOL0     H30760   2.565   5.961   9.533 -1.4621 -1.6795  2.1050
  969MOL0     H30761   2.636   5.808   9.498 -0.8384 -0.1258 -2.1335
  969MOL0     H30762   2.854   5.900   9.621  1.6677  2.0396 -0.3434
  969MOL0     H30763   2.759   6.041   9.647  0.6520 -0.5151 -2.7036
  969MOL0     H30764   2.623   5.930   9.812 -3.3756 -1.8270  0.6734
  969MOL0     H30765   2.765   5.836   9.830 -0.6086 -0.8338  0.4870
  969MOL0     H30766   2.758   5.582   9.770 -0.4052 -2.8370  0.3077
  969MOL0     H30767   2.548   5.378   9.556 -1.4375 -1.6836  1.0899
  969MOL0     H30768   2.684   5.362   9.658  0.2492  0.2428 -2.0611
  969MOL0     H30769   2.401   5.348   9.791 -0.2376 -0.5186 -2.2717
  969MOL0     H30770   2.570   5.324   9.853  1.6845  0.3065 -0.4540
  969MOL0     H30771   2.573   5.107   9.739 -0.4680  0.6730  0.6319
  969MOL0     H30772   2.429   5.136   9.649 -0.7847  0.6641 -0.6004
  969MOL0     H30773   2.424   5.117   9.939  2.0865  0.4822 -1.4439
  969MOL0     H30774   2.372   4.990   9.810 -1.4095  1.5973 -3.2034
  969MOL0     H30775   2.087   5.348   9.795 -1.9786  0.0594 -0.3569
  969MOL0     H30776   1.921   5.458   9.699 -3.0175 -1.5557  1.6864
  969MOL0     H30777   1.964   5.440   9.523  0.3518  3.0582  0.9563
  969MOL0     H30778   1.807   5.391   9.590  0.1545 -0.9732 -1.7129
  969MOL0     H30779   1.567   5.076   9.347  1.3774  0.6555  0.9788
  969MOL0     H30780   1.424   5.127   9.142 -2.9603  2.5947  2.0990
  969MOL0     H30781   1.475   5.538   8.954 -0.7392  0.8696 -0.3149
  969MOL0     H30782   1.579   5.429   8.865  0.4187  3.1368  0.7814
  969MOL0     H30783   1.414   5.360   8.713 -0.7292 -0.4779  0.0316
  969MOL0     H30784   1.279   5.406   8.806  0.8508 -1.8631  1.1531
  969MOL0     H30785   1.289   5.637   8.754  1.4532  0.5593 -0.0260
  969MOL0     H30786   1.307   5.545   8.609  0.5458 -0.2015 -0.3684
  969MOL0     H30787   1.552   5.656   8.775  0.2581 -0.2459  1.3001
  969MOL0     H30788   1.558   5.575   8.618 -1.1417  0.8577 -0.3479
  969MOL0     H30789   1.563   5.813   8.596  1.0057 -2.5593  0.8620
  969MOL0     H30790   1.390   5.813   8.656 -1.9931  2.4404 -2.9776
  969MOL0     H30791   1.499   5.663   8.408  1.8309  1.7453  2.1085
  969MOL0     H30792   1.329   5.693   8.455 -0.7343  0.8529 -2.0041
  969MOL0     H30793   1.409   5.834   8.260 -1.7219  0.2303  1.1313
  969MOL0     H30794   1.555   5.878   8.337  0.5325  1.6159  0.8032
  969MOL0     H30795   1.433   6.067   8.363  0.9429 -0.3418  0.3361
  969MOL0     H30796   1.418   5.995   8.525  1.2916 -0.1569 -0.5055
  969MOL0     H30797   1.635   5.498   9.115  0.3046  0.0398  0.2608
  969MOL0     H30798   1.754   5.445   9.309  0.9805 -0.0586 -2.4567
  969MOL0     H30799   2.025   4.933   9.529 -0.0499 -2.1638  2.9238
  969MOL0     H30800   2.199   4.938   9.687 -0.8283 -0.2793 -2.3436
  969MOL0     H30801   2.953   6.309   8.823  0.0124 -0.1776  2.1368
  969MOL0     H30802   3.098   6.356   8.613 -0.4334 -1.5641 -0.3353
  969MOL0     H30803   3.361   6.557   8.438  0.3439  6.1939  2.5630
  969MOL0     H30804   3.486   6.699   8.280  0.1927 -0.1559 -0.4603
  969MOL0     H30805   3.895   6.756   8.322 -0.6585  1.2210  0.9340
  969MOL0     H30806   3.893   6.612   8.216  3.9936  1.4117 -2.0567
  969MOL0     H30807   3.859   6.882   8.092 -3.6850 -1.6325 -0.3753
  969MOL0     H30808   3.888   6.736   8.001 -2.2201  2.0350 -0.7174
  969MOL0     H30809   4.093   6.839   8.215  0.4793  2.2592 -1.6046
  969MOL0     H30810   4.102   6.883   8.055  5.3850  1.0655  4.1897
  969MOL0     H30811   4.101   6.641   7.991 -1.7376  0.2184  0.8690
  969MOL0     H30812   4.101   6.614   8.175  3.4411 -0.1897  0.9395
  969MOL0     H30813   4.492   6.752   8.138  0.7827 -0.7941  1.7007
  969MOL0     H30814   3.851   6.525   8.406 -0.1795  1.4889  0.7142
  969MOL0     H30815   3.732   6.357   8.535 -1.6868  0.0303  1.3853
  970MOL0     O30816   4.330   5.102   6.786 -0.0582 -0.4028  0.4049
  970MOL0     C30817   4.328   5.168   6.688 -0.0795  0.4751 -0.1549
  970MOL0     O30818   4.231   5.265   6.671 -0.0100  0.1820  0.6328
  970MOL0     C30819   4.147   5.291   6.778 -0.4902  0.6888  0.1500
  970MOL0     C30820   4.037   5.194   6.801  0.1731  0.0548  0.1562
  970MOL0     C30821   3.942   5.227   6.900  0.1958  0.1799  0.3730
  970MOL0     C30822   3.951   5.343   6.979 -0.6411 -0.2725  0.6551
  970MOL0     O30823   3.854   5.385   7.061 -0.7923 -0.4536  1.0026
  970MOL0     C30824   3.794   5.511   7.050 -0.0596  0.3809  0.5588
  970MOL0     C30825   3.679   5.511   7.148  0.0367 -0.2922  0.5187
  970MOL0     C30826   3.638   5.649   7.187  0.1704  0.2492  0.4690
  970MOL0     C30827   3.530   5.639   7.295  0.4630 -0.7117 -0.4529
  970MOL0     C30828   3.493   5.774   7.353  0.2114 -0.2811  0.0347
  970MOL0     C30829   3.406   5.858   7.255  0.7710 -0.5178  0.2591
  970MOL0     C30830   3.353   5.980   7.326 -0.3740 -0.2704  0.4869
  970MOL0     C30831   3.314   6.092   7.230  0.1377  1.0797 -0.7320
  970MOL0     N30832   3.169   6.092   7.188  0.4214  0.4985 -0.8437
  970MOL0     C30833   3.112   6.033   7.078  0.3281 -0.3792  0.0448
  970MOL0     C30834   2.988   6.090   7.070 -0.2639  0.0494  0.1446
  970MOL0     C30835   2.893   6.045   6.968 -0.7802  0.0908 -0.7423
  970MOL0     C30836   2.867   6.165   6.864  0.1684  0.2909  0.0307
  970MOL0     C30837   2.806   6.287   6.929 -0.3729 -0.0518 -0.4167
  970MOL0     C30838   2.783   6.407   6.837  0.2831 -0.6490 -0.2268
  970MOL0     O30839   2.744   6.359   6.708  0.1972  0.3119  0.0597
  970MOL0     C30840   2.610   6.351   6.672 -0.3587 -0.2691 -0.2720
  970MOL0     C30841   2.503   6.344   6.760  0.4297 -0.0155 -0.9264
  970MOL0     C30842   2.367   6.361   6.719  0.5930 -0.4661  0.0259
  970MOL0     C30843   2.263   6.363   6.830  0.5060  1.3734  0.1724
  970MOL0     C30844   2.338   6.378   6.582  1.2031 -0.2055 -0.0318
  970MOL0     C30845   2.192   6.389   6.528 -0.4207 -0.2800 -0.0653
  970MOL0     O30846   2.186   6.374   6.395 -0.7169  0.4464  0.5144
  970MOL0     C30847   2.076   6.424   6.327 -0.1513 -0.3586 -0.8122
  970MOL0     C30848   2.072   6.561   6.287 -0.3501 -0.2286  0.1479
  970MOL0     C30849   1.956   6.610   6.219  0.1144 -0.3485  0.5383
  970MOL0     C30850   1.841   6.526   6.206 -0.5174 -0.3212  0.6604
  970MOL0     O30851   1.721   6.566   6.147 -0.8006 -0.1666 -0.3314
  970MOL0     C30852   1.703   6.519   6.014 -0.7400 -0.3571  1.1020
  970MOL0     C30853   1.612   6.392   6.005 -0.1036  0.0645  0.6096
  970MOL0     C30854   1.478   6.415   6.078 -0.5337 -0.3500  0.2518
  970MOL0     C30855   1.393   6.527   6.023 -0.9144 -0.0486 -1.6060
  970MOL0     C30856   1.342   6.492   5.882 -0.2278 -0.3729 -0.3436
  970MOL0     C30857   1.261   6.612   5.824 -0.1006  1.4411 -0.4139
  970MOL0     C30858   1.112   6.603   5.848 -0.4721 -0.6956 -0.3339
  970MOL0     C30859   1.024   6.682   5.756  0.6293  0.0106  0.4164
  970MOL0    Cl30860   1.059   6.859   5.777  0.1385  0.2682  0.0488
  970MOL0     C30861   1.851   6.392   6.248  0.0342 -0.3315 -0.8069
  970MOL0     C30862   1.968   6.337   6.302 -0.3475 -0.1041 -0.6180
  970MOL0     O30863   2.093   6.411   6.600 -0.4583  0.5654  0.2184
  970MOL0     C30864   2.445   6.372   6.495  0.2016  0.2915  0.3297
  970MOL0     C30865   2.580   6.362   6.533  0.2430 -0.1971  0.8092
  970MOL0     N30866   2.962   6.165   7.179 -0.6015 -0.1296  1.1428
  970MOL0     N30867   3.068   6.170   7.245 -0.1632  0.2074 -0.3817
  970MOL0     C30868   4.062   5.431   6.951  0.1521  0.2929  0.4007
  970MOL0     C30869   4.149   5.404   6.845 -0.2765 -0.0983  0.2588
  970MOL0     C30870   4.440   5.157   6.586  0.2960 -0.1618  0.4842
  970MOL0     C30871   4.452   5.233   6.470  0.4814  0.2894  0.3829
  970MOL0     C30872   4.551   5.211   6.382 -0.6788 -0.1830 -0.8904
  970MOL0     C30873   4.639   5.105   6.396 -0.3098  0.3370  0.3123
  970MOL0     O30874   4.753   5.093   6.324  0.5786 -0.2204 -0.8412
  970MOL0     C30875   4.794   5.200   6.231  0.0948  0.1412  0.6954
  970MOL0     C30876   4.884   5.310   6.294 -0.5000  0.1664  0.3530
  970MOL0     C30877   5.029   5.272   6.284 -0.4675  0.1955 -0.2663
  970MOL0     C30878   5.116   5.374   6.351  0.9468  0.3977  0.6082
  970MOL0     C30879   5.266   5.362   6.326  0.2755  0.1473  0.1117
  970MOL0     C30880   5.386   5.345   6.318  0.0700  0.3152  0.8283
  970MOL0     C30881   4.630   5.030   6.511 -0.1027 -0.2076  0.3998
  970MOL0     C30882   4.540   5.057   6.609  0.4602 -0.1388 -0.4206
  970MOL0     H30883   4.019   5.111   6.734  0.0420 -1.1473  1.6242
  970MOL0     H30884   3.862   5.160   6.928  0.2116 -0.6331 -1.3499
  970MOL0     H30885   3.867   5.589   7.073  2.4135 -1.2137 -1.4108
  970MOL0     H30886   3.754   5.533   6.951 -1.4127 -1.1359  0.7194
  970MOL0     H30887   3.595   5.457   7.105  0.8749 -1.4850  0.3280
  970MOL0     H30888   3.711   5.462   7.241 -0.0982 -2.3028 -0.4429
  970MOL0     H30889   3.725   5.710   7.212  0.1233  0.5995 -0.1987
  970MOL0     H30890   3.581   5.692   7.104  0.3108 -2.6387 -1.2557
  970MOL0     H30891   3.440   5.585   7.262 -0.3165  0.1480  0.2217
  970MOL0     H30892   3.578   5.594   7.382  1.7145 -1.0733 -1.3087
  970MOL0     H30893   3.440   5.759   7.448 -0.8512 -2.7256 -0.8467
  970MOL0     H30894   3.585   5.823   7.385 -0.7981 -0.5554  3.9158
  970MOL0     H30895   3.472   5.882   7.171  1.4472 -1.2956  0.5559
  970MOL0     H30896   3.325   5.793   7.221 -0.9047  0.8123  1.5226
  970MOL0     H30897   3.264   5.955   7.384 -0.2795  1.1115  1.2698
  970MOL0     H30898   3.414   6.016   7.409 -3.2746  1.6244  1.9562
  970MOL0     H30899   3.373   6.073   7.140 -0.3377 -1.4782 -0.5547
  970MOL0     H30900   3.338   6.187   7.279 -0.7800  0.3764  1.1770
  970MOL0     H30901   3.151   5.967   7.001  1.0407  1.9701 -1.7118
  970MOL0     H30902   2.925   5.950   6.924  0.6683  0.3481 -0.3183
  970MOL0     H30903   2.799   6.020   7.018 -0.8661  2.7837  0.5999
  970MOL0     H30904   2.801   6.119   6.790 -0.6905  1.5589 -0.0175
  970MOL0     H30905   2.967   6.184   6.822 -0.3361 -1.9801 -2.4908
  970MOL0     H30906   2.875   6.330   7.002 -2.8321  2.0425  0.8741
  970MOL0     H30907   2.713   6.252   6.975 -1.0273  1.1898 -0.7252
  970MOL0     H30908   2.876   6.462   6.822 -0.5605  1.0979  0.6839
  970MOL0     H30909   2.714   6.478   6.883  0.1515 -1.0174  0.1534
  970MOL0     H30910   2.530   6.332   6.865  1.1793  0.1675 -1.0926
  970MOL0     H30911   2.197   6.279   6.806  0.9430  1.5121 -1.7347
  970MOL0     H30912   2.296   6.344   6.932 -2.1531 -0.7256  0.7634
  970MOL0     H30913   2.202   6.454   6.830 -3.0591 -0.8034  1.2263
  970MOL0     H30914   2.163   6.618   6.303 -0.5059  0.0214  0.1354
  970MOL0     H30915   1.950   6.711   6.181  1.0790 -0.0684  1.0788
  970MOL0     H30916   1.654   6.590   5.946  1.0172  2.3493  2.4721
  970MOL0     H30917   1.797   6.502   5.961 -0.7893 -0.4982  1.0602
  970MOL0     H30918   1.581   6.369   5.903 -2.4983 -0.2818  1.3572
  970MOL0     H30919   1.662   6.305   6.048  1.4901  1.0086  0.7554
  970MOL0     H30920   1.505   6.436   6.182  1.1944 -0.2428 -0.2004
  970MOL0     H30921   1.426   6.319   6.070 -2.0720  0.2525  2.2450
  970MOL0     H30922   1.312   6.540   6.095  0.7539  1.2576  0.1528
  970MOL0     H30923   1.447   6.622   6.017  0.5236 -0.7702 -0.7420
  970MOL0     H30924   1.279   6.402   5.882 -1.4575  0.4600  0.7018
  970MOL0     H30925   1.423   6.467   5.812 -1.1540 -0.2283 -1.5148
  970MOL0     H30926   1.300   6.704   5.868  2.6717 -0.4992  1.5826
  970MOL0     H30927   1.279   6.597   5.717 -1.7365  1.0819 -0.6598
  970MOL0     H30928   1.090   6.630   5.952  2.1178 -0.4779  0.2034
  970MOL0     H30929   1.082   6.498   5.840 -0.9523 -0.6246  0.3941
  970MOL0     H30930   0.918   6.658   5.760  0.9248 -1.3264  0.7341
  970MOL0     H30931   1.065   6.652   5.660  1.1921  2.4089 -0.1583
  970MOL0     H30932   1.762   6.335   6.221 -0.9464  1.7530 -2.3215
  970MOL0     H30933   1.982   6.233   6.332  2.9856  0.6613  1.0410
  970MOL0     H30934   2.428   6.372   6.388 -0.7069  0.0008  0.4670
  970MOL0     H30935   2.662   6.342   6.466  0.4887  2.5025  0.1968
  970MOL0     H30936   4.067   5.531   6.994  0.0403  1.4728 -2.1660
  970MOL0     H30937   4.215   5.478   6.800 -0.1737  1.9922  3.5249
  970MOL0     H30938   4.390   5.320   6.447  0.9279  0.3092 -0.8149
  970MOL0     H30939   4.568   5.273   6.295  2.5612 -2.5370 -2.1501
  970MOL0     H30940   4.856   5.162   6.149  1.3798  1.5467  0.9932
  970MOL0     H30941   4.711   5.236   6.169  0.7909 -0.8418 -0.8908
  970MOL0     H30942   4.848   5.327   6.395 -1.6126  1.0886 -0.1667
  970MOL0     H30943   4.868   5.394   6.226 -1.7172  0.0366  0.4697
  970MOL0     H30944   5.056   5.257   6.178 -1.4859 -1.0364 -0.3736
  970MOL0     H30945   5.060   5.180   6.333 -0.2209  0.5517  0.2580
  970MOL0     H30946   5.090   5.362   6.457  2.1359 -1.7508  0.7080
  970MOL0     H30947   5.078   5.470   6.314 -0.9346 -1.5115 -2.8475
  970MOL0     H30948   5.493   5.340   6.305 -0.2548 -0.6785 -2.2295
  970MOL0     H30949   4.713   4.961   6.519  0.0229 -0.2557 -1.0763
  970MOL0     H30950   4.535   4.996   6.699  1.2701  0.2333 -0.1103
  971MOL0     O30951   5.524   1.548  10.416 -0.0856  0.2530 -0.5691
  971MOL0     C30952   5.512   1.656  10.360 -0.7741  0.6111  0.0762
  971MOL0     O30953   5.605   1.764  10.372  0.5979 -0.4128 -0.0135
  971MOL0     C30954   5.701   1.741  10.458  0.6594  0.8787 -0.2617
  971MOL0     C30955   5.823   1.713  10.418  0.1087  0.3943 -0.0006
  971MOL0     C30956   5.924   1.699  10.516  0.1839  0.5337 -0.1719
  971MOL0     C30957   5.897   1.709  10.655 -0.1415 -0.1069 -1.6290
  971MOL0     O30958   5.973   1.668  10.768  0.6442  0.3469 -0.4209
  971MOL0     C30959   6.112   1.647  10.745 -0.6706  0.1863  0.3442
  971MOL0     C30960   6.156   1.509  10.782  0.0302  0.5520  0.7877
  971MOL0     C30961   6.137   1.505  10.936 -1.0955  0.3916 -0.1230
  971MOL0     C30962   6.208   1.382  10.996  0.1216 -0.7661  0.2409
  971MOL0     C30963   6.363   1.408  10.995  0.4375 -0.2627 -0.2161
  971MOL0     C30964   6.433   1.352  11.112  0.3072  0.2846  0.2682
  971MOL0     C30965   6.560   1.437  11.133 -0.4842  0.0327 -0.4005
  971MOL0     C30966   6.634   1.382  11.254 -0.1812  0.5850 -0.0742
  971MOL0     N30967   6.561   1.411  11.376  0.3794 -0.2120 -0.6024
  971MOL0     C30968   6.475   1.322  11.436 -1.0232  0.9533 -0.6029
  971MOL0     C30969   6.404   1.386  11.535 -0.1492 -0.2065 -0.1947
  971MOL0     C30970   6.300   1.332  11.630  0.5719  0.2055 -1.1810
  971MOL0     C30971   6.176   1.426  11.650 -0.5518  0.0924 -0.4737
  971MOL0     C30972   6.100   1.463  11.525 -0.3932 -0.2249 -0.3367
  971MOL0     C30973   6.038   1.343  11.448  0.5013 -0.1953  0.7292
  971MOL0     O30974   5.970   1.376  11.330 -0.5473  0.2217  0.1991
  971MOL0     C30975   5.837   1.390  11.334  0.4464  0.0285 -0.5127
  971MOL0     C30976   5.760   1.385  11.217  0.6691  0.8820 -0.0655
  971MOL0     C30977   5.614   1.378  11.222  0.4340 -1.0035  0.0988
  971MOL0     C30978   5.536   1.374  11.096 -0.3787  0.3735  0.5774
  971MOL0     C30979   5.550   1.394  11.345 -0.7384 -0.1773 -0.1622
  971MOL0     C30980   5.406   1.388  11.371  0.4477 -0.5452  0.8618
  971MOL0     O30981   5.359   1.454  11.481  0.2803  0.2859 -0.1794
  971MOL0     C30982   5.225   1.438  11.518  0.9103 -0.4885 -0.6991
  971MOL0     C30983   5.144   1.537  11.564  0.4490  0.0331 -0.0066
  971MOL0     C30984   5.016   1.518  11.614  0.6208 -0.6773 -0.1304
  971MOL0     C30985   4.964   1.392  11.618 -0.0097  0.5118  0.3200
  971MOL0     O30986   4.838   1.390  11.672  0.1180 -0.3323 -0.4279
  971MOL0     C30987   4.765   1.270  11.644 -0.2463 -0.5750  0.5245
  971MOL0     C30988   4.618   1.293  11.686  0.3714 -0.2852 -0.4378
  971MOL0     C30989   4.511   1.190  11.650  0.1322 -0.2953 -0.1951
  971MOL0     C30990   4.530   1.053  11.721  0.0334  0.3634  0.0986
  971MOL0     C30991   4.438   0.938  11.682 -0.4080 -0.0720  0.2603
  971MOL0     C30992   4.371   0.945  11.542 -0.0892  0.8176 -0.5738
  971MOL0     C30993   4.268   0.830  11.532 -0.1969  0.1408 -0.3126
  971MOL0     C30994   4.165   0.859  11.428  0.8536 -0.4260  0.5698
  971MOL0    Cl30995   4.231   0.828  11.271  0.0953  0.4917  0.2723
  971MOL0     C30996   5.044   1.283  11.580  0.5718  0.8087  0.2830
  971MOL0     C30997   5.174   1.304  11.532  0.9458 -0.4031  0.5975
  971MOL0     O30998   5.337   1.333  11.286 -0.0165  0.2879 -0.0567
  971MOL0     C30999   5.631   1.414  11.457 -0.5742 -0.0746 -0.0907
  971MOL0     C31000   5.771   1.412  11.455  0.1158 -0.3117 -0.3217
  971MOL0     N31001   6.447   1.515  11.528 -0.0276  0.8840 -0.0432
  971MOL0     N31002   6.538   1.532  11.438  1.0660 -0.2171  0.6399
  971MOL0     C31003   5.772   1.741  10.692  0.1270 -0.4183 -0.3377
  971MOL0     C31004   5.676   1.756  10.597 -0.0292  0.2493 -0.4720
  971MOL0     C31005   5.390   1.682  10.284 -0.1418 -0.3237  0.7656
  971MOL0     C31006   5.368   1.807  10.235  0.0264 -0.4568  1.7501
  971MOL0     C31007   5.250   1.847  10.166  0.4776 -0.3349  0.2836
  971MOL0     C31008   5.173   1.752  10.105  0.5021  0.2279  0.2743
  971MOL0     O31009   5.085   1.781  10.006 -0.1386 -0.1634  0.2869
  971MOL0     C31010   5.059   1.924   9.961 -0.1838 -0.6559  0.4369
  971MOL0     C31011   4.972   1.912   9.838  0.8306 -0.3174  0.2392
  971MOL0     C31012   4.819   1.895   9.863  0.9902  0.1163 -0.2431
  971MOL0     C31013   4.741   1.850   9.732  0.1410  0.0134  0.6386
  971MOL0     C31014   4.748   1.952   9.626 -0.6954  0.0634 -0.1001
  971MOL0     C31015   4.761   2.043   9.544  0.5901 -0.4246  0.2323
  971MOL0     C31016   5.190   1.624  10.139 -0.1649  0.9195  0.3570
  971MOL0     C31017   5.292   1.588  10.229 -0.7986 -0.4365 -0.0133
  971MOL0     H31018   5.842   1.701  10.311  1.8532 -1.7974  0.4925
  971MOL0     H31019   6.020   1.663  10.482 -1.1366 -1.5141 -2.0060
  971MOL0     H31020   6.141   1.668  10.641 -0.4571 -2.9457 -0.3192
  971MOL0     H31021   6.159   1.720  10.812  0.0579 -0.0228  0.0716
  971MOL0     H31022   6.088   1.434  10.740  0.3955 -1.0314  2.8525
  971MOL0     H31023   6.257   1.488  10.746  0.4517  0.5782  1.9198
  971MOL0     H31024   6.181   1.587  10.994  0.4788 -0.3673 -0.1809
  971MOL0     H31025   6.031   1.486  10.956 -1.0115 -0.6190 -0.5680
  971MOL0     H31026   6.169   1.355  11.094 -2.4127 -1.4699 -0.8900
  971MOL0     H31027   6.179   1.289  10.946 -2.6201 -0.6455  1.4324
  971MOL0     H31028   6.403   1.364  10.903  0.5522 -0.9239  0.1489
  971MOL0     H31029   6.378   1.515  10.975 -0.8550 -0.3650 -1.9430
  971MOL0     H31030   6.366   1.359  11.199  2.3179  3.0754  1.7934
  971MOL0     H31031   6.456   1.247  11.098 -2.0984 -0.1261 -1.1721
  971MOL0     H31032   6.620   1.433  11.042 -1.5538  1.3666 -1.1935
  971MOL0     H31033   6.538   1.544  11.136  0.3086  0.3331 -3.0251
  971MOL0     H31034   6.727   1.438  11.262  0.5521 -0.5919 -0.2512
  971MOL0     H31035   6.660   1.276  11.250 -1.1212  0.2714  1.4875
  971MOL0     H31036   6.471   1.217  11.410  2.1070  0.1474  1.5837
  971MOL0     H31037   6.271   1.240  11.578  1.8720 -1.1192  0.3504
  971MOL0     H31038   6.332   1.295  11.728 -2.1688  0.3209 -0.1400
  971MOL0     H31039   6.221   1.521  11.682  2.3156 -1.6477  1.0381
  971MOL0     H31040   6.098   1.394  11.718 -0.3219  3.3134  1.5157
  971MOL0     H31041   6.170   1.516  11.459 -1.4132  1.5996 -0.0385
  971MOL0     H31042   6.018   1.533  11.542 -0.9318 -1.0415  0.4826
  971MOL0     H31043   5.981   1.271  11.509 -1.9295 -0.8953 -2.1394
  971MOL0     H31044   6.123   1.288  11.409  1.3358  2.2422 -1.1573
  971MOL0     H31045   5.804   1.382  11.118 -0.0996 -1.7825 -0.3923
  971MOL0     H31046   5.522   1.267  11.078  5.3937 -0.3525 -1.8369
  971MOL0     H31047   5.441   1.427  11.092 -0.8124 -0.4279 -0.3868
  971MOL0     H31048   5.601   1.411  11.016  0.1765 -0.0661  0.8140
  971MOL0     H31049   5.179   1.640  11.561 -1.5879  0.7547 -1.2547
  971MOL0     H31050   4.955   1.600  11.650  1.9358  0.2483  0.0395
  971MOL0     H31051   4.768   1.267  11.534 -0.4000 -0.3099  0.5136
  971MOL0     H31052   4.797   1.180  11.699  1.3342  0.7587  1.8750
  971MOL0     H31053   4.635   1.300  11.794  2.4315 -1.2386 -0.6420
  971MOL0     H31054   4.573   1.385  11.647 -2.3145 -2.1036 -1.9073
  971MOL0     H31055   4.504   1.184  11.541 -2.1554  1.5734 -0.2463
  971MOL0     H31056   4.412   1.229  11.678  0.0061 -1.3478  0.8869
  971MOL0     H31057   4.631   1.028  11.690  0.6450  0.5459  1.8308
  971MOL0     H31058   4.522   1.074  11.828  0.1333  0.3109  0.1167
  971MOL0     H31059   4.366   0.923  11.762 -0.0435  1.5428  0.9270
  971MOL0     H31060   4.498   0.847  11.680 -0.8794 -0.3766 -0.4167
  971MOL0     H31061   4.311   1.037  11.534 -1.1977  0.5245  2.7575
  971MOL0     H31062   4.450   0.946  11.466  0.4480 -0.2859 -0.0561
  971MOL0     H31063   4.210   0.833  11.624  1.1317  1.9131  0.5324
  971MOL0     H31064   4.311   0.729  11.521 -1.7115 -0.4063 -1.5518
  971MOL0     H31065   4.137   0.964  11.439  3.3991  0.4862 -0.6734
  971MOL0     H31066   4.080   0.793  11.443 -0.0575  0.6180  0.1296
  971MOL0     H31067   5.019   1.178  11.591 -0.7602  1.0383 -0.3230
  971MOL0     H31068   5.225   1.219  11.487  3.2063  2.4733 -2.8384
  971MOL0     H31069   5.594   1.446  11.555  0.1746  1.6475 -0.3337
  971MOL0     H31070   5.822   1.427  11.549 -1.0648  1.4030  0.0953
  971MOL0     H31071   5.733   1.748  10.794  0.5273  1.8543 -0.2897
  971MOL0     H31072   5.569   1.773  10.606 -0.2179 -0.4391 -1.2546
  971MOL0     H31073   5.426   1.892  10.269  1.0007 -0.9010  1.2535
  971MOL0     H31074   5.241   1.951  10.138 -1.0443 -0.6465 -0.4526
  971MOL0     H31075   5.008   1.980  10.039 -1.9237  0.6709 -1.5347
  971MOL0     H31076   5.155   1.971   9.936 -0.2244 -0.8394 -0.0825
  971MOL0     H31077   4.993   1.818   9.785 -3.2941 -1.5894  0.5204
  971MOL0     H31078   4.996   1.993   9.768  0.9174  0.2154  0.8811
  971MOL0     H31079   4.772   1.981   9.911 -0.8035 -0.7468 -0.3678
  971MOL0     H31080   4.803   1.813   9.933 -1.6028  0.9998  0.3049
  971MOL0     H31081   4.638   1.828   9.758  0.0180 -1.4890 -0.9748
  971MOL0     H31082   4.789   1.758   9.698 -1.8130 -1.8577  2.7129
  971MOL0     H31083   4.770   2.115   9.465 -1.3483  0.0764  0.4073
  971MOL0     H31084   5.137   1.545  10.087 -3.0241  0.8237  3.1289
  971MOL0     H31085   5.293   1.480  10.240 -3.8004 -0.8962 -2.7440
  972MOL0     O31086   5.842   7.391  10.374  0.6352 -0.0834 -0.3803
  972MOL0     C31087   5.769   7.345  10.282 -0.2591  0.0810 -0.7950
  972MOL0     O31088   5.631   7.356  10.276 -0.4904  0.6893  0.0107
  972MOL0     C31089   5.559   7.384  10.393  0.9590  0.5111  0.1604
  972MOL0     C31090   5.587   7.330  10.521 -0.0173  0.0719  0.3913
  972MOL0     C31091   5.501   7.360  10.626  0.1952 -0.4741 -0.7313
  972MOL0     C31092   5.381   7.438  10.609 -0.6807  0.4904  1.0861
  972MOL0     O31093   5.292   7.481  10.702 -0.7519  0.3141  0.2096
  972MOL0     C31094   5.288   7.408  10.828 -0.4099 -0.0090 -0.3727
  972MOL0     C31095   5.146   7.382  10.871  0.4625 -0.4063 -1.1095
  972MOL0     C31096   5.100   7.490  10.980  0.4494  0.3888  0.4160
  972MOL0     C31097   4.957   7.518  10.960 -0.3460  0.2550 -0.7390
  972MOL0     C31098   4.889   7.576  11.083 -0.2444  0.1166 -0.7717
  972MOL0     C31099   4.734   7.555  11.063  0.3605  0.5948  0.5522
  972MOL0     C31100   4.647   7.629  11.170 -0.3026 -0.0971  0.3309
  972MOL0     C31101   4.565   7.737  11.108 -0.0496 -0.8345  0.2379
  972MOL0     N31102   4.491   7.809  11.205  0.2773  0.5525 -1.0336
  972MOL0     C31103   4.376   7.769  11.269 -0.1344  0.1932 -0.0042
  972MOL0     C31104   4.332   7.874  11.340 -0.2811  0.5917  0.2691
  972MOL0     C31105   4.207   7.895  11.426  0.3206  0.6777  0.7312
  972MOL0     C31106   4.095   7.930  11.321 -0.3883 -0.7302 -0.3612
  972MOL0     C31107   3.960   7.967  11.378 -0.1686 -0.3111  0.5351
  972MOL0     C31108   3.896   7.846  11.440 -0.4075  0.7465 -0.3026
  972MOL0     O31109   3.838   7.760  11.347  0.0067  0.1031  0.3232
  972MOL0     C31110   3.740   7.673  11.382  0.6071  0.0853 -0.5532
  972MOL0     C31111   3.764   7.535  11.379 -0.5372  0.9707 -0.4603
  972MOL0     C31112   3.662   7.435  11.403 -0.2236 -0.3277  0.0066
  972MOL0     C31113   3.706   7.291  11.378 -0.2569  1.2956  0.7291
  972MOL0     C31114   3.533   7.476  11.442 -0.3556 -0.6123  0.1313
  972MOL0     C31115   3.429   7.382  11.483  0.2731 -0.5887  0.2315
  972MOL0     O31116   3.299   7.424  11.472 -0.2448  0.0472  0.1763
  972MOL0     C31117   3.201   7.328  11.464 -0.2304 -0.8848  0.0523
  972MOL0     C31118   3.150   7.288  11.339  0.6892  0.0077 -0.3246
  972MOL0     C31119   3.069   7.180  11.320 -0.2452  0.2582  0.0718
  972MOL0     C31120   3.043   7.097  11.427  0.4587  0.3167  0.6346
  972MOL0     O31121   2.980   6.980  11.412  0.3665  0.4212  0.0427
  972MOL0     C31122   2.850   6.972  11.473  0.3848 -0.2694  0.0488
  972MOL0     C31123   2.809   6.832  11.507 -0.0641  0.3333  0.3370
  972MOL0     C31124   2.694   6.788  11.421 -0.3961  0.8518 -0.1417
  972MOL0     C31125   2.639   6.655  11.468 -0.2423 -0.2679 -0.3560
  972MOL0     C31126   2.513   6.603  11.399  0.1627 -1.0443  1.0115
  972MOL0     C31127   2.394   6.706  11.412 -0.1598 -0.6859 -0.0578
  972MOL0     C31128   2.260   6.647  11.367  0.2281 -0.2918  0.2562
  972MOL0     C31129   2.143   6.720  11.440 -0.6859 -0.0322  0.3026
  972MOL0    Cl31130   2.112   6.868  11.353 -0.1626 -0.5644 -0.4876
  972MOL0     C31131   3.092   7.123  11.555 -0.9381 -0.1695  0.3937
  972MOL0     C31132   3.167   7.241  11.570  0.2317 -0.2127  0.8518
  972MOL0     O31133   3.465   7.282  11.547  0.1942 -1.1927 -0.7240
  972MOL0     C31134   3.511   7.613  11.447  1.1079 -0.6110  0.6576
  972MOL0     C31135   3.606   7.711  11.405  0.1197  0.3828 -0.0111
  972MOL0     N31136   4.413   7.981  11.315 -0.2373 -0.2268  0.3562
  972MOL0     N31137   4.513   7.939  11.237  0.0146 -0.3341  0.3048
  972MOL0     C31138   5.357   7.487  10.482 -0.5534 -0.2345 -0.6189
  972MOL0     C31139   5.443   7.460  10.377  0.2660  0.2786 -0.0198
  972MOL0     C31140   5.840   7.276  10.170  0.5092  0.6922  0.5342
  972MOL0     C31141   5.978   7.253  10.160 -0.2265 -0.2591 -0.9148
  972MOL0     C31142   6.037   7.180  10.058 -0.0362  0.2667  1.1755
  972MOL0     C31143   5.955   7.132   9.949  0.0119 -0.4152 -0.4989
  972MOL0     O31144   6.004   7.052   9.847  0.3099  0.2672 -0.0578
  972MOL0     C31145   6.137   7.079   9.790 -0.5658  0.1387 -0.5676
  972MOL0     C31146   6.157   7.073   9.635 -0.6992 -0.8362 -0.5665
  972MOL0     C31147   6.054   7.173   9.557 -0.1115 -0.9645 -0.9330
  972MOL0     C31148   6.086   7.200   9.409 -0.3959  0.9485  1.0347
  972MOL0     C31149   6.215   7.284   9.388  0.6279  0.3426  0.8240
  972MOL0     C31150   6.307   7.357   9.361 -0.0788  0.5848  0.1231
  972MOL0     C31151   5.819   7.141   9.962  0.1993 -0.7643 -0.8001
  972MOL0     C31152   5.762   7.206  10.075  0.0757  0.2723 -0.4530
  972MOL0     H31153   5.673   7.265  10.530 -0.8659 -1.6425 -2.6475
  972MOL0     H31154   5.532   7.325  10.723  0.0344 -1.7900 -1.1358
  972MOL0     H31155   5.352   7.319  10.827 -0.0438  0.0498  3.3955
  972MOL0     H31156   5.336   7.459  10.912 -0.2927 -0.1533 -0.3525
  972MOL0     H31157   5.091   7.360  10.779  1.5776 -5.4368 -0.8656
  972MOL0     H31158   5.134   7.288  10.925 -2.1427  0.8597  0.7167
  972MOL0     H31159   5.127   7.450  11.078 -1.4962  1.1703  1.3343
  972MOL0     H31160   5.141   7.591  10.967 -0.6315  0.5764 -2.0833
  972MOL0     H31161   4.946   7.587  10.875 -2.3884 -2.4226 -2.8336
  972MOL0     H31162   4.903   7.428  10.930 -1.4012  1.1935 -1.7982
  972MOL0     H31163   4.930   7.532  11.174 -0.0590 -1.0940 -1.4098
  972MOL0     H31164   4.902   7.684  11.089  1.2076 -0.1201  0.9594
  972MOL0     H31165   4.720   7.582  10.958  3.1391 -0.7706 -0.2530
  972MOL0     H31166   4.704   7.451  11.080 -2.1990  0.9904 -1.0416
  972MOL0     H31167   4.582   7.561  11.226 -1.2605  2.8560  3.0890
  972MOL0     H31168   4.711   7.670  11.249 -0.1482  3.1230 -1.2811
  972MOL0     H31169   4.482   7.693  11.051 -0.2176 -0.2114 -0.0039
  972MOL0     H31170   4.616   7.811  11.047 -1.1089  0.8165  1.2732
  972MOL0     H31171   4.314   7.682  11.251  0.6127 -0.5001  0.6778
  972MOL0     H31172   4.180   7.810  11.489 -1.0548 -2.8835 -3.9939
  972MOL0     H31173   4.217   7.979  11.495 -3.2325  2.1747 -0.3572
  972MOL0     H31174   4.093   7.843  11.255 -1.4037  0.1797 -1.5872
  972MOL0     H31175   4.126   8.017  11.262 -2.3754  1.4636  1.6088
  972MOL0     H31176   3.893   7.994  11.296 -0.0348  0.5290  0.6966
  972MOL0     H31177   3.960   8.056  11.441  0.6710 -0.8181  1.2737
  972MOL0     H31178   3.814   7.879  11.504 -0.1166  0.2174  0.3565
  972MOL0     H31179   3.958   7.788  11.509 -2.0325  2.2545  2.5870
  972MOL0     H31180   3.864   7.501  11.357 -1.8702 -1.6594 -3.1523
  972MOL0     H31181   3.809   7.274  11.348 -0.3347 -2.4592  1.9671
  972MOL0     H31182   3.688   7.224  11.463 -3.6044  1.0805 -0.0049
  972MOL0     H31183   3.641   7.264  11.294  1.8827  2.8967 -1.5433
  972MOL0     H31184   3.168   7.362  11.260 -0.9042 -0.3984 -1.1011
  972MOL0     H31185   3.018   7.146  11.231  0.2252  0.4325 -0.2642
  972MOL0     H31186   2.858   7.030  11.566 -0.1691  0.2344 -0.2077
  972MOL0     H31187   2.783   7.019  11.401  1.1078  0.3858 -0.2080
  972MOL0     H31188   2.899   6.770  11.496 -1.1183 -1.1609 -0.0969
  972MOL0     H31189   2.794   6.822  11.615  3.1234  0.0885  0.8690
  972MOL0     H31190   2.726   6.786  11.316 -1.5022  2.9809 -0.5775
  972MOL0     H31191   2.612   6.859  11.432 -2.2569 -0.7654 -2.4715
  972MOL0     H31192   2.722   6.584  11.457  0.3973  0.6016 -1.3196
  972MOL0     H31193   2.605   6.664  11.571 -1.8864 -0.2093 -0.8802
  972MOL0     H31194   2.488   6.505  11.440 -0.8849 -0.5292  1.6335
  972MOL0     H31195   2.536   6.597  11.292  0.0304 -3.8751  1.0498
  972MOL0     H31196   2.395   6.739  11.517 -0.6498  2.9119 -1.0555
  972MOL0     H31197   2.408   6.803  11.365  0.9875  0.2289  2.0285
  972MOL0     H31198   2.255   6.541  11.392  0.3166 -0.2123  0.6259
  972MOL0     H31199   2.244   6.663  11.260  0.4429 -0.3713  0.2127
  972MOL0     H31200   2.159   6.724  11.548 -1.3216 -0.9349  0.4455
  972MOL0     H31201   2.050   6.662  11.431  0.0546 -1.0990 -0.8392
  972MOL0     H31202   3.063   7.054  11.633 -3.5652  0.2338 -0.1191
  972MOL0     H31203   3.202   7.278  11.666  0.8064  2.3918 -0.2600
  972MOL0     H31204   3.414   7.659  11.468  1.7352  0.5481  1.1206
  972MOL0     H31205   3.580   7.816  11.407  0.1338  0.3723  1.0582
  972MOL0     H31206   5.272   7.551  10.464 -2.1924 -2.0999  0.0782
  972MOL0     H31207   5.420   7.495  10.277 -0.5367  2.3760  0.8612
  972MOL0     H31208   6.034   7.286  10.248  0.1899  0.8502 -1.5704
  972MOL0     H31209   6.142   7.155  10.069  0.1208  0.5800  0.4581
  972MOL0     H31210   6.160   7.179   9.830 -1.5597  1.3761 -2.8668
  972MOL0     H31211   6.206   7.012   9.842  1.0407  0.0692 -2.6632
  972MOL0     H31212   6.146   6.969   9.603  1.0708 -1.4090  0.5237
  972MOL0     H31213   6.262   7.098   9.614 -0.9200 -0.7231 -1.5807
  972MOL0     H31214   6.071   7.271   9.603  0.8803 -0.9246 -1.3514
  972MOL0     H31215   5.950   7.144   9.572 -1.0536  1.9611 -1.2710
  972MOL0     H31216   6.006   7.253   9.357  3.0582  3.4358 -2.3233
  972MOL0     H31217   6.102   7.105   9.358 -0.9702  2.2647 -1.7454
  972MOL0     H31218   6.395   7.419   9.361 -0.9970  1.9635  2.1770
  972MOL0     H31219   5.759   7.095   9.885  1.6529  2.0799 -3.8656
  972MOL0     H31220   5.654   7.214  10.064 -0.0550 -1.6841 -1.0505
  973MOL0     O31221  11.025   1.727   3.519  0.9710  0.5478 -0.9726
  973MOL0     C31222  11.064   1.688   3.630 -0.4127  0.5694 -0.1519
  973MOL0     O31223  11.000   1.605   3.709 -0.3314  1.0173 -1.0358
  973MOL0     C31224  10.894   1.539   3.657  0.6736 -0.3250 -0.4922
  973MOL0     C31225  10.769   1.600   3.659 -0.1879 -0.2238 -0.0748
  973MOL0     C31226  10.659   1.529   3.618 -0.1003 -0.6871 -0.3976
  973MOL0     C31227  10.675   1.390   3.574 -0.4881 -0.6852 -0.2376
  973MOL0     O31228  10.570   1.317   3.533 -0.3057  0.0751 -0.2048
  973MOL0     C31229  10.455   1.330   3.611  0.0264 -0.4867 -0.7244
  973MOL0     C31230  10.365   1.202   3.596 -0.8154 -0.5641  0.5871
  973MOL0     C31231  10.236   1.196   3.679  0.8739  0.9226 -0.8074
  973MOL0     C31232  10.150   1.069   3.638  0.0346 -0.4351 -0.7795
  973MOL0     C31233  10.036   1.063   3.736  0.8375  0.3294  0.7338
  973MOL0     C31234   9.935   0.948   3.692 -0.8614  0.5273 -0.5963
  973MOL0     C31235   9.799   0.957   3.761  0.3562  0.1614  0.2986
  973MOL0     C31236   9.723   0.822   3.740  0.4807 -0.1070  0.3601
  973MOL0     N31237   9.576   0.844   3.760 -0.3250 -0.7344 -0.5976
  973MOL0     C31238   9.475   0.850   3.669 -0.6928 -0.3468  0.0425
  973MOL0     C31239   9.358   0.837   3.738  0.0566  0.0763 -0.4314
  973MOL0     C31240   9.221   0.845   3.686  0.3972  0.3597  0.3661
  973MOL0     C31241   9.123   0.760   3.761 -0.8349 -0.0177 -0.8608
  973MOL0     C31242   9.010   0.701   3.679 -0.5061 -0.7349 -0.2378
  973MOL0     C31243   8.920   0.617   3.771 -0.0678  0.0631  0.9912
  973MOL0     O31244   8.853   0.709   3.856 -0.7857  0.1630  0.3198
  973MOL0     C31245   8.717   0.703   3.840  1.0064 -0.6489  0.0448
  973MOL0     C31246   8.628   0.645   3.930 -0.5953  0.7427 -0.0611
  973MOL0     C31247   8.488   0.650   3.915  0.1989  0.2033 -0.3185
  973MOL0     C31248   8.394   0.590   4.013 -0.7434  0.3385  0.2084
  973MOL0     C31249   8.440   0.714   3.802  1.2465 -0.2627 -0.2171
  973MOL0     C31250   8.294   0.738   3.772 -0.4954 -0.0207  0.7247
  973MOL0     O31251   8.263   0.764   3.641 -0.4979 -0.3629 -0.5782
  973MOL0     C31252   8.138   0.737   3.596 -0.3668 -0.8504  0.4081
  973MOL0     C31253   8.069   0.617   3.629 -0.1358 -0.0512 -0.0171
  973MOL0     C31254   7.949   0.588   3.571 -0.4863  0.7494  1.0098
  973MOL0     C31255   7.893   0.681   3.480  0.0430 -0.1960 -0.3749
  973MOL0     O31256   7.782   0.630   3.425 -0.0129  0.3113  0.3421
  973MOL0     C31257   7.686   0.712   3.358  0.5809  0.6669  0.8732
  973MOL0     C31258   7.552   0.644   3.318 -0.3195 -0.2791  0.4595
  973MOL0     C31259   7.436   0.686   3.405  0.3199  0.0935  0.1345
  973MOL0     C31260   7.332   0.573   3.432 -0.3435  0.3800  0.7700
  973MOL0     C31261   7.211   0.617   3.506 -0.8172  0.7955 -0.5915
  973MOL0     C31262   7.132   0.715   3.422  0.6402 -0.2726  0.5155
  973MOL0     C31263   6.990   0.730   3.496  0.1659  0.0217  0.1503
  973MOL0     C31264   6.881   0.775   3.402  0.3182 -0.2715 -0.2081
  973MOL0    Cl31265   6.921   0.947   3.370  0.2600 -0.1851 -0.1445
  973MOL0     C31266   7.952   0.801   3.459  0.7769 -0.3381  0.4654
  973MOL0     C31267   8.075   0.830   3.512  0.2082 -0.4923  0.4055
  973MOL0     O31268   8.210   0.731   3.858  0.4408  0.5995 -1.1976
  973MOL0     C31269   8.528   0.768   3.708  0.0740  0.0601  0.2190
  973MOL0     C31270   8.661   0.769   3.730 -0.7352  0.0820 -0.3422
  973MOL0     N31271   9.395   0.823   3.877  0.0395 -0.1759  0.2528
  973MOL0     N31272   9.524   0.830   3.880 -0.7599 -0.2181 -0.8230
  973MOL0     C31273  10.809   1.339   3.569  0.7053  0.3237  0.0739
  973MOL0     C31274  10.913   1.410   3.606  0.4539  0.9722 -0.9436
  973MOL0     C31275  11.190   1.747   3.675 -0.4700  0.6896 -0.3047
  973MOL0     C31276  11.218   1.884   3.670 -0.5004  0.4042  0.2526
  973MOL0     C31277  11.333   1.930   3.732 -0.4223  0.0590  0.0338
  973MOL0     C31278  11.435   1.845   3.781  0.0140  0.7603  0.5836
  973MOL0     O31279  11.555   1.881   3.832 -0.4865  0.0592 -0.0739
  973MOL0     C31280  11.604   2.014   3.804 -0.2614  0.2010  1.0933
  973MOL0     C31281  11.756   2.023   3.800 -0.1772 -0.1440  0.2564
  973MOL0     C31282  11.802   1.966   3.666  0.8190 -0.1789 -0.9325
  973MOL0     C31283  11.952   1.976   3.651 -0.4101  0.5475  1.2878
  973MOL0     C31284  11.990   1.946   3.511 -0.3281  0.2105  0.1335
  973MOL0     C31285  12.041   1.909   3.405 -0.2095 -1.2279 -0.2450
  973MOL0     C31286  11.404   1.705   3.791  0.5603 -0.5203  0.0014
  973MOL0     C31287  11.288   1.659   3.732  0.1717  0.3038 -0.5807
  973MOL0     H31288  10.761   1.701   3.697  1.3545 -0.3045  0.5226
  973MOL0     H31289  10.579   1.601   3.625  0.4202  0.1190 -2.0119
  973MOL0     H31290  10.469   1.342   3.719 -1.6750 -2.2306 -0.2436
  973MOL0     H31291  10.397   1.414   3.573 -0.5141  0.1083  1.2906
  973MOL0     H31292  10.348   1.180   3.490 -0.0735 -2.3863  0.7985
  973MOL0     H31293  10.438   1.126   3.625  1.2637  0.5682 -1.3621
  973MOL0     H31294  10.262   1.186   3.785 -2.3673  0.2078  0.0182
  973MOL0     H31295  10.179   1.288   3.661 -0.7626 -0.3086 -2.2702
  973MOL0     H31296  10.108   1.070   3.537 -2.4786 -2.3295  0.1291
  973MOL0     H31297  10.208   0.976   3.644 -1.3160 -1.3219 -0.8614
  973MOL0     H31298  10.067   1.059   3.842 -1.9758  1.3050  1.6738
  973MOL0     H31299   9.982   1.158   3.729  0.0124  0.0185  2.3977
  973MOL0     H31300   9.908   0.958   3.587 -1.7919  1.5711 -0.2813
  973MOL0     H31301   9.983   0.853   3.716  0.1940  1.1654 -0.1116
  973MOL0     H31302   9.817   0.965   3.868  0.7609  0.0868  0.2385
  973MOL0     H31303   9.745   1.042   3.717  1.0894 -0.7060 -2.4985
  973MOL0     H31304   9.766   0.747   3.806  1.2974 -0.0043 -0.0346
  973MOL0     H31305   9.740   0.784   3.638 -1.1383 -1.3514  0.5110
  973MOL0     H31306   9.480   0.858   3.561 -0.2336  0.8080  0.1323
  973MOL0     H31307   9.191   0.949   3.674 -2.8917 -0.4306  0.8121
  973MOL0     H31308   9.244   0.802   3.588  1.4994 -0.1507  0.8241
  973MOL0     H31309   9.087   0.829   3.838  1.0987  0.3244 -0.2102
  973MOL0     H31310   9.190   0.678   3.790 -0.7311  0.3161 -0.1577
  973MOL0     H31311   9.056   0.640   3.601 -0.3604 -1.5802  0.5075
  973MOL0     H31312   8.947   0.778   3.632 -2.9104 -2.1635  0.4924
  973MOL0     H31313   8.988   0.562   3.836 -0.1313 -1.1276  0.0790
  973MOL0     H31314   8.848   0.547   3.727 -2.0316  2.7425 -0.4317
  973MOL0     H31315   8.673   0.600   4.018 -2.3615 -1.0028  0.0067
  973MOL0     H31316   8.439   0.517   4.080 -1.7862 -0.1990  0.3490
  973MOL0     H31317   8.343   0.668   4.071 -3.6446  0.2453 -1.9229
  973MOL0     H31318   8.323   0.534   3.951  0.5872  0.6009 -1.6374
  973MOL0     H31319   8.116   0.547   3.698 -0.7003 -0.6669 -0.2547
  973MOL0     H31320   7.896   0.498   3.597  0.9132 -0.2565  0.4873
  973MOL0     H31321   7.671   0.772   3.448  0.8394 -0.3405  1.6067
  973MOL0     H31322   7.723   0.777   3.278  0.3001 -2.7780 -2.2653
  973MOL0     H31323   7.531   0.679   3.216  0.6059 -0.6651  0.1184
  973MOL0     H31324   7.566   0.536   3.332 -1.3387 -0.5004 -0.1590
  973MOL0     H31325   7.390   0.773   3.357 -2.3201 -0.3518  1.6884
  973MOL0     H31326   7.479   0.711   3.503  0.1688 -1.9373  0.7546
  973MOL0     H31327   7.293   0.541   3.335 -0.0558  1.9503  0.1100
  973MOL0     H31328   7.391   0.495   3.482 -0.8622 -0.8688 -0.5248
  973MOL0     H31329   7.245   0.672   3.595  0.7501  1.7989 -1.7522
  973MOL0     H31330   7.137   0.542   3.537 -1.3852  1.0004 -1.4228
  973MOL0     H31331   7.175   0.815   3.426  1.2738 -0.4628 -0.8142
  973MOL0     H31332   7.121   0.686   3.317 -1.8578  3.5632 -0.5096
  973MOL0     H31333   6.992   0.802   3.578 -0.8508  1.7244 -1.2669
  973MOL0     H31334   6.950   0.639   3.543 -1.5905  0.9417  0.5096
  973MOL0     H31335   6.790   0.781   3.463 -1.4335  2.9616 -2.7666
  973MOL0     H31336   6.871   0.725   3.305  2.5340 -1.7585  0.2528
  973MOL0     H31337   7.908   0.874   3.391  1.9567  0.1707  0.2325
  973MOL0     H31338   8.128   0.922   3.489 -0.4002  0.0006  0.9334
  973MOL0     H31339   8.486   0.822   3.623 -0.5979  0.2678  0.6806
  973MOL0     H31340   8.733   0.803   3.656 -0.2176 -1.2875 -0.5060
  973MOL0     H31341  10.814   1.234   3.540  0.8615  0.6103 -0.9613
  973MOL0     H31342  11.014   1.374   3.623 -0.1667  0.8210  3.6197
  973MOL0     H31343  11.144   1.941   3.614 -1.5578 -1.0477  0.1155
  973MOL0     H31344  11.352   2.037   3.727  1.5674 -0.3017 -1.6338
  973MOL0     H31345  11.556   2.053   3.713 -2.8967 -3.5094  0.6542
  973MOL0     H31346  11.560   2.085   3.874 -4.0559  2.7699 -3.3093
  973MOL0     H31347  11.802   1.966   3.881  0.1072  0.5735  0.6107
  973MOL0     H31348  11.781   2.129   3.798 -0.2832 -0.0668  1.7571
  973MOL0     H31349  11.752   2.027   3.590 -1.4468 -1.1836 -0.3400
  973MOL0     H31350  11.768   1.864   3.647 -0.4576  0.0492 -0.0421
  973MOL0     H31351  12.012   1.920   3.723  2.4947  0.4921 -1.0193
  973MOL0     H31352  11.971   2.082   3.670 -3.6905  1.3055  0.9978
  973MOL0     H31353  12.102   1.882   3.321  1.4243  1.1942  0.0736
  973MOL0     H31354  11.478   1.646   3.844  0.1048 -2.5746 -1.5144
  973MOL0     H31355  11.250   1.558   3.740 -0.9138  0.8650  2.4952
  974MOL0     O31356   5.663   3.296  10.497 -0.6696 -0.0065  0.0465
  974MOL0     C31357   5.703   3.375  10.583 -0.3837  0.2260 -0.4445
  974MOL0     O31358   5.642   3.490  10.608  0.4972 -0.0502 -0.5984
  974MOL0     C31359   5.506   3.500  10.584 -0.7435 -0.2360  0.2247
  974MOL0     C31360   5.405   3.431  10.653 -0.2158 -0.5289 -0.1614
  974MOL0     C31361   5.265   3.439  10.614 -0.2794  0.0003  0.6034
  974MOL0     C31362   5.226   3.531  10.511  0.3979 -0.0217 -0.8425
  974MOL0     O31363   5.092   3.563  10.505 -0.1532  0.0388 -0.3813
  974MOL0     C31364   5.049   3.671  10.430  0.5342 -0.8637 -0.3904
  974MOL0     C31365   4.905   3.701  10.457  0.4585 -0.3039 -0.5448
  974MOL0     C31366   4.859   3.829  10.387 -0.3344  0.5650  0.6925
  974MOL0     C31367   4.712   3.815  10.333  0.4020  0.2396  0.8770
  974MOL0     C31368   4.618   3.815  10.458 -0.7103  0.1985  0.2752
  974MOL0     C31369   4.477   3.793  10.416  0.7767 -0.4542 -0.9877
  974MOL0     C31370   4.374   3.829  10.527  0.5638 -0.0127  0.4323
  974MOL0     C31371   4.358   3.725  10.641 -0.4392  0.1372  0.6538
  974MOL0     N31372   4.440   3.766  10.759 -0.0832  0.2465 -0.0713
  974MOL0     C31373   4.559   3.712  10.806 -0.5058 -0.5230  0.3530
  974MOL0     C31374   4.602   3.790  10.911 -0.0626  0.2267  0.2551
  974MOL0     C31375   4.711   3.734  11.010  0.7041 -0.5605  0.9604
  974MOL0     C31376   4.833   3.804  10.970 -0.9091 -0.4690  0.3111
  974MOL0     C31377   4.937   3.815  11.080  0.7544  0.0532  0.3080
  974MOL0     C31378   4.969   3.685  11.134 -0.4345  0.4303 -0.2226
  974MOL0     O31379   5.069   3.699  11.236  0.0866 -0.0933  0.1050
  974MOL0     C31380   5.200   3.666  11.215 -0.4428  0.2649 -0.0897
  974MOL0     C31381   5.263   3.667  11.096  0.1892  0.9253  0.1425
  974MOL0     C31382   5.399   3.634  11.080  0.3265  0.2595 -0.8023
  974MOL0     C31383   5.451   3.631  10.946  0.8715 -0.0448  0.4374
  974MOL0     C31384   5.471   3.587  11.193  0.3996 -0.6786  0.6675
  974MOL0     C31385   5.608   3.535  11.194  0.7439  0.6589  0.5424
  974MOL0     O31386   5.661   3.500  11.311 -0.0942  0.2686 -0.6978
  974MOL0     C31387   5.789   3.442  11.313 -0.1423 -0.5618  0.7491
  974MOL0     C31388   5.814   3.304  11.327 -0.5984 -0.7934  0.0056
  974MOL0     C31389   5.944   3.253  11.345 -0.3298 -0.5802 -0.2175
  974MOL0     C31390   6.051   3.333  11.362  0.5266 -0.6980  0.0910
  974MOL0     O31391   6.179   3.302  11.399  0.0891 -0.0762 -0.3131
  974MOL0     C31392   6.218   3.181  11.469 -0.0638 -0.2914 -0.2153
  974MOL0     C31393   6.227   3.047  11.386 -0.0111 -1.0001 -0.5528
  974MOL0     C31394   6.290   3.094  11.257 -0.5716 -0.4267 -0.5060
  974MOL0     C31395   6.336   2.964  11.185  0.2216  0.1298  0.4830
  974MOL0     C31396   6.396   3.010  11.049  0.9352 -0.0215  0.1958
  974MOL0     C31397   6.414   2.892  10.956 -0.1618  0.0449  0.1798
  974MOL0     C31398   6.410   2.931  10.802  0.7064 -0.4236  0.4789
  974MOL0     C31399   6.470   2.829  10.694  0.4645 -0.8610  0.6056
  974MOL0    Cl31400   6.646   2.809  10.712 -0.1381 -0.7039 -0.8533
  974MOL0     C31401   6.027   3.466  11.348  0.2081 -0.4986 -0.3628
  974MOL0     C31402   5.900   3.519  11.315  0.2455 -0.3843 -0.0925
  974MOL0     O31403   5.669   3.524  11.091  0.2511 -0.6085  0.3267
  974MOL0     C31404   5.401   3.580  11.321  0.0665  0.5008  0.4837
  974MOL0     C31405   5.270   3.620  11.333  0.0927 -0.3344  0.1345
  974MOL0     N31406   4.515   3.892  10.917  0.1959  0.3453 -0.7960
  974MOL0     N31407   4.429   3.889  10.815  0.4338 -0.6199 -0.3267
  974MOL0     C31408   5.321   3.608  10.450  0.0311 -0.3301 -0.1788
  974MOL0     C31409   5.459   3.590  10.490 -0.3096 -1.0238  0.2867
  974MOL0     C31410   5.828   3.358  10.660  0.5436  0.2292 -0.5219
  974MOL0     C31411   5.878   3.431  10.761  0.1914  0.0311  0.4214
  974MOL0     C31412   6.002   3.386  10.826  0.1218 -0.2213  0.6066
  974MOL0     C31413   6.086   3.294  10.773  0.4257  0.1226  0.0635
  974MOL0     O31414   6.212   3.280  10.821 -0.0252  0.1924 -0.2672
  974MOL0     C31415   6.286   3.377  10.898 -0.9316 -0.4338  0.1995
  974MOL0     C31416   6.437   3.360  10.908  0.1989  0.5069  0.2085
  974MOL0     C31417   6.504   3.343  10.777  0.1881 -0.6382 -0.0015
  974MOL0     C31418   6.652   3.331  10.788 -0.4678  1.6142  0.4786
  974MOL0     C31419   6.730   3.452  10.820 -0.1615  0.0212  0.4314
  974MOL0     C31420   6.793   3.553  10.833  0.0020 -0.0641 -0.2871
  974MOL0     C31421   6.043   3.233  10.658  0.0931  0.5284 -0.3769
  974MOL0     C31422   5.920   3.259  10.608 -0.6621 -0.6929  0.4144
  974MOL0     H31423   5.436   3.368  10.736 -0.2955  1.5142  1.5198
  974MOL0     H31424   5.191   3.370  10.653  1.5951 -2.7787 -0.4441
  974MOL0     H31425   5.105   3.762  10.457  2.4543 -1.2695 -2.7281
  974MOL0     H31426   5.066   3.645  10.325  0.4547  0.9539 -0.8967
  974MOL0     H31427   4.845   3.619  10.418 -1.3132 -0.8238  2.8997
  974MOL0     H31428   4.876   3.705  10.563 -1.5178 -0.2523 -1.0482
  974MOL0     H31429   4.862   3.907  10.464 -0.3216 -0.5455  1.8613
  974MOL0     H31430   4.918   3.855  10.298  0.3320  0.2327  1.0250
  974MOL0     H31431   4.677   3.898  10.271  0.3782  0.4261  1.1372
  974MOL0     H31432   4.703   3.731  10.263  0.6139  1.9242 -1.2800
  974MOL0     H31433   4.637   3.742  10.538 -0.4598  1.3040  1.2510
  974MOL0     H31434   4.622   3.915  10.502  1.6136  0.3807 -0.2454
  974MOL0     H31435   4.452   3.845  10.322 -1.0350 -1.5549 -1.1527
  974MOL0     H31436   4.469   3.685  10.409  0.0563 -0.4970  0.2707
  974MOL0     H31437   4.400   3.933  10.549  3.2958  0.0371 -2.2709
  974MOL0     H31438   4.278   3.835  10.475  1.9429  1.5398 -2.1749
  974MOL0     H31439   4.399   3.629  10.606 -2.7235 -0.6545  0.0012
  974MOL0     H31440   4.256   3.706  10.676 -1.3022  1.2824 -1.1607
  974MOL0     H31441   4.590   3.611  10.781 -3.4466 -1.4504  0.0981
  974MOL0     H31442   4.687   3.760  11.114 -0.7707  0.8575  0.3070
  974MOL0     H31443   4.708   3.625  11.009  0.1519 -0.5766 -1.3184
  974MOL0     H31444   4.818   3.903  10.925  7.0798  0.4495 -1.8998
  974MOL0     H31445   4.876   3.734  10.897 -1.5966  0.3870 -0.9477
  974MOL0     H31446   4.904   3.887  11.155 -1.3064 -1.4151  0.9142
  974MOL0     H31447   5.026   3.869  11.047  1.1275 -0.9912 -0.4379
  974MOL0     H31448   4.994   3.611  11.058  3.9774  1.5128 -0.1010
  974MOL0     H31449   4.875   3.656  11.181  0.2013 -2.7422 -0.6960
  974MOL0     H31450   5.209   3.703  11.008  0.4689 -0.0622 -0.4375
  974MOL0     H31451   5.376   3.653  10.870  1.3404  0.3853  0.0976
  974MOL0     H31452   5.540   3.694  10.942  3.4731 -3.4866 -3.2633
  974MOL0     H31453   5.491   3.531  10.923  1.4491  0.6918 -2.0752
  974MOL0     H31454   5.727   3.243  11.346 -0.6116 -0.1210  2.4869
  974MOL0     H31455   5.946   3.149  11.374  0.1893 -1.3972 -2.8924
  974MOL0     H31456   6.319   3.204  11.505 -0.1381  2.8859 -1.6966
  974MOL0     H31457   6.144   3.168  11.547 -0.5640  5.1037  0.5690
  974MOL0     H31458   6.307   2.990  11.433  0.5513 -0.9001 -1.3643
  974MOL0     H31459   6.138   2.984  11.380 -0.1090 -0.8949 -0.2257
  974MOL0     H31460   6.374   3.160  11.284 -0.7286 -0.5782  0.4047
  974MOL0     H31461   6.224   3.147  11.188  1.5096  1.0399 -1.4786
  974MOL0     H31462   6.419   2.905  11.226  2.7759  2.8540 -0.4438
  974MOL0     H31463   6.251   2.895  11.180  0.3113 -0.1385  2.1989
  974MOL0     H31464   6.493   3.055  11.070  1.0691  0.2027 -0.8581
  974MOL0     H31465   6.328   3.086  11.009 -1.1447 -1.9207 -0.0946
  974MOL0     H31466   6.511   2.854  10.987  1.6297  3.4926 -0.7562
  974MOL0     H31467   6.337   2.815  10.971 -0.8609  0.5833 -0.5444
  974MOL0     H31468   6.455   3.028  10.782 -0.4246  0.2058  0.8968
  974MOL0     H31469   6.306   2.942  10.772  1.2449 -0.5198 -1.5603
  974MOL0     H31470   6.453   2.870  10.595 -0.3671  1.3687  1.6061
  974MOL0     H31471   6.408   2.739  10.696 -3.3562  1.5148 -0.7661
  974MOL0     H31472   6.112   3.533  11.359  1.3393 -2.2677  2.5284
  974MOL0     H31473   5.884   3.626  11.312  1.1217 -0.2542 -3.3206
  974MOL0     H31474   5.442   3.536  11.411 -2.6219 -0.0337  1.5456
  974MOL0     H31475   5.223   3.602  11.429  2.0096 -1.3216  0.9347
  974MOL0     H31476   5.293   3.681  10.375 -2.0643 -0.4616  0.4191
  974MOL0     H31477   5.536   3.639  10.430  0.7506  2.0329  3.7153
  974MOL0     H31478   5.819   3.514  10.798 -0.0333  1.0838 -2.0832
  974MOL0     H31479   6.043   3.429  10.917  0.9178 -0.3847  0.3338
  974MOL0     H31480   6.263   3.476  10.858 -0.0879 -0.8601 -1.4128
  974MOL0     H31481   6.240   3.364  10.996 -2.0080 -1.2347 -0.3949
  974MOL0     H31482   6.466   3.274  10.968  0.5633 -1.9011 -3.0959
  974MOL0     H31483   6.467   3.448  10.964  2.8424 -0.0366 -0.2226
  974MOL0     H31484   6.485   3.435  10.721  1.4632  0.9662  2.0317
  974MOL0     H31485   6.472   3.250  10.731 -0.0412  0.4128 -2.0899
  974MOL0     H31486   6.686   3.293  10.691 -1.6129 -0.5334  0.8649
  974MOL0     H31487   6.675   3.258  10.866 -0.3682  4.0868  2.9248
  974MOL0     H31488   6.841   3.646  10.857 -0.5454  0.5581 -1.5584
  974MOL0     H31489   6.104   3.154  10.616 -1.1458 -0.1906 -0.8951
  974MOL0     H31490   5.889   3.195  10.526 -0.0547 -3.5919  2.3015
  975MOL0     O31491   0.556   1.851   8.282 -0.1466 -1.2099  0.2483
  975MOL0     C31492   0.678   1.870   8.277  0.4982 -0.0220 -0.1379
  975MOL0     O31493   0.746   1.969   8.339  0.3993 -0.0426 -0.5123
  975MOL0     C31494   0.674   2.047   8.423 -0.3837 -0.8632 -0.3193
  975MOL0     C31495   0.549   2.111   8.395 -0.3438  0.3472  0.2419
  975MOL0     C31496   0.488   2.191   8.486  0.6359 -0.0364 -0.1992
  975MOL0     C31497   0.543   2.214   8.611 -0.9010  0.3693  0.2022
  975MOL0     O31498   0.478   2.309   8.682  0.7410 -0.8550  0.3886
  975MOL0     C31499   0.458   2.299   8.822  0.3502  0.4790  0.0092
  975MOL0     C31500   0.361   2.390   8.872  0.3360 -0.0853 -0.2088
  975MOL0     C31501   0.212   2.390   8.811  0.1643 -0.2180 -0.3140
  975MOL0     C31502   0.130   2.487   8.885  0.1857 -0.3394 -0.6613
  975MOL0     C31503  -0.018   2.509   8.850 -0.5374  0.0063 -0.1017
  975MOL0     C31504  -0.072   2.636   8.919  0.5422  0.1227  0.5264
  975MOL0     C31505  -0.222   2.643   8.868  0.8013 -1.3335  0.3438
  975MOL0     C31506  -0.285   2.765   8.927 -0.6372  0.1012  0.5860
  975MOL0     N31507  -0.388   2.810   8.843  0.9354  0.6450 -0.2435
  975MOL0     C31508  -0.522   2.778   8.850 -0.0798  0.4675 -0.1680
  975MOL0     C31509  -0.573   2.859   8.766 -0.2695 -0.4313  0.4900
  975MOL0     C31510  -0.719   2.886   8.738  0.4147  0.6303 -1.1759
  975MOL0     C31511  -0.767   3.010   8.804  0.5912 -0.4227 -0.1447
  975MOL0     C31512  -0.731   3.146   8.724  0.0021  0.0262 -0.6462
  975MOL0     C31513  -0.787   3.167   8.584 -0.3017  0.1494  0.4724
  975MOL0     O31514  -0.928   3.172   8.593 -0.4956 -0.3697  0.1639
  975MOL0     C31515  -0.992   3.278   8.644  0.1727 -0.2764 -1.0753
  975MOL0     C31516  -0.952   3.393   8.708 -0.2981  0.4739  0.0340
  975MOL0     C31517  -1.045   3.492   8.744  0.0986 -1.0734 -0.5048
  975MOL0     C31518  -0.984   3.615   8.811 -0.5618  0.1450  0.2050
  975MOL0     C31519  -1.187   3.484   8.718 -0.5576 -0.1109  0.6555
  975MOL0     C31520  -1.283   3.588   8.737  0.8049 -0.3066  0.6445
  975MOL0     O31521  -1.407   3.538   8.789 -0.0518  0.1080 -0.1025
  975MOL0     C31522  -1.519   3.613   8.803  0.2215 -0.3393 -0.4677
  975MOL0     C31523  -1.534   3.747   8.760  0.6953 -0.1837  0.7754
  975MOL0     C31524  -1.652   3.817   8.782  0.3342 -1.0554 -0.6455
  975MOL0     C31525  -1.751   3.766   8.867 -0.1566  0.7342  0.3479
  975MOL0     O31526  -1.875   3.822   8.895  0.4081  0.0424 -0.0310
  975MOL0     C31527  -1.881   3.963   8.874  0.2181  0.0961  0.2419
  975MOL0     C31528  -2.013   4.025   8.924  0.0968 -0.2450 -0.8379
  975MOL0     C31529  -2.022   4.022   9.084  0.9802  0.2411  0.7606
  975MOL0     C31530  -2.153   4.076   9.132 -0.4898 -0.1112 -0.6322
  975MOL0     C31531  -2.163   4.041   9.276 -0.0158  0.8104  0.1463
  975MOL0     C31532  -2.281   4.121   9.347 -0.4843 -0.1326 -0.1318
  975MOL0     C31533  -2.302   4.072   9.485  0.5062  0.7531  0.2295
  975MOL0     C31534  -2.435   4.115   9.541 -0.7447  0.1801 -0.2901
  975MOL0    Cl31535  -2.567   4.047   9.442 -0.2362  0.1022  0.1407
  975MOL0     C31536  -1.734   3.641   8.915 -0.3784 -0.2936  0.1660
  975MOL0     C31537  -1.616   3.561   8.891  0.5819 -0.2638 -0.2714
  975MOL0     O31538  -1.261   3.710   8.720 -0.8978  0.2614 -0.1777
  975MOL0     C31539  -1.224   3.358   8.660 -0.0105 -0.4547 -1.0356
  975MOL0     C31540  -1.132   3.257   8.633 -1.0045  0.1958  0.3135
  975MOL0     N31541  -0.472   2.935   8.703 -0.1697  0.6408 -0.3991
  975MOL0     N31542  -0.353   2.903   8.752 -0.8687 -0.5152 -0.5245
  975MOL0     C31543   0.655   2.134   8.653  0.1964 -0.1402  0.1819
  975MOL0     C31544   0.718   2.056   8.557 -0.1512  0.7837 -0.6422
  975MOL0     C31545   0.763   1.784   8.191 -0.8213  0.4772 -0.2879
  975MOL0     C31546   0.904   1.780   8.208 -0.3175 -0.4987  0.1490
  975MOL0     C31547   0.982   1.704   8.108  0.8366 -0.4027 -0.8256
  975MOL0     C31548   0.915   1.646   8.007  0.1128  0.4565  0.6911
  975MOL0     O31549   0.997   1.568   7.924 -0.2101  0.4347  0.1622
  975MOL0     C31550   0.963   1.523   7.793 -0.1048  0.1785 -0.1567
  975MOL0     C31551   1.079   1.431   7.747  0.1934 -0.7487  0.2077
  975MOL0     C31552   1.066   1.401   7.602  0.4969 -0.5031  1.6611
  975MOL0     C31553   1.148   1.289   7.533 -0.4009 -0.2669 -0.6277
  975MOL0     C31554   1.281   1.331   7.493 -0.1409  0.7771 -0.1374
  975MOL0     C31555   1.394   1.373   7.469  0.1201 -0.2544  0.8870
  975MOL0     C31556   0.779   1.658   7.993  0.4423  0.6421 -0.1560
  975MOL0     C31557   0.701   1.722   8.083 -0.2661  0.1034 -0.1941
  975MOL0     H31558   0.512   2.105   8.293  1.7463  0.4791 -0.5709
  975MOL0     H31559   0.390   2.237   8.474 -0.3250 -1.9009  0.1209
  975MOL0     H31560   0.424   2.197   8.837  1.8860 -0.3559 -1.8434
  975MOL0     H31561   0.545   2.313   8.888 -2.2260  0.6528  3.6707
  975MOL0     H31562   0.344   2.367   8.978  0.3721  0.3888 -0.0979
  975MOL0     H31563   0.401   2.491   8.863  1.3331 -0.4988 -0.4980
  975MOL0     H31564   0.221   2.406   8.703  1.1665  0.1693 -0.1873
  975MOL0     H31565   0.170   2.295   8.845  1.2858 -0.0286  1.8077
  975MOL0     H31566   0.139   2.476   8.993  0.6594 -0.7545 -0.7395
  975MOL0     H31567   0.179   2.583   8.865  1.0995 -0.4432  0.9612
  975MOL0     H31568  -0.034   2.530   8.744 -1.0750  2.7894  0.4563
  975MOL0     H31569  -0.059   2.412   8.878  0.6559 -0.7838 -0.9825
  975MOL0     H31570  -0.060   2.632   9.028 -0.2064  0.9260  0.6510
  975MOL0     H31571  -0.017   2.723   8.882 -0.3351 -0.0894 -1.3503
  975MOL0     H31572  -0.228   2.658   8.760 -1.4017  1.5694  0.7214
  975MOL0     H31573  -0.292   2.564   8.897 -1.0583  0.7138  1.8425
  975MOL0     H31574  -0.203   2.837   8.934  1.6735 -2.2376 -0.3139
  975MOL0     H31575  -0.314   2.741   9.029 -0.2494 -1.6137  0.3293
  975MOL0     H31576  -0.585   2.726   8.922 -3.7265  0.6733 -2.9282
  975MOL0     H31577  -0.741   2.894   8.631  0.7902  0.1412 -1.2948
  975MOL0     H31578  -0.780   2.799   8.760 -0.6374  0.9371 -2.7631
  975MOL0     H31579  -0.736   3.022   8.908  0.9355  0.2807 -0.3258
  975MOL0     H31580  -0.877   3.010   8.796  0.7244  0.8044 -3.0431
  975MOL0     H31581  -0.623   3.146   8.706  0.0304  0.4037 -0.4965
  975MOL0     H31582  -0.758   3.228   8.791  0.6060 -0.5515  0.3179
  975MOL0     H31583  -0.756   3.084   8.520  1.3207  0.6695  0.5465
  975MOL0     H31584  -0.747   3.259   8.541  2.6619 -2.0208 -1.8403
  975MOL0     H31585  -0.846   3.415   8.712 -0.1041 -0.0600 -1.5628
  975MOL0     H31586  -0.932   3.589   8.903  0.3005 -0.8831 -0.5469
  975MOL0     H31587  -0.909   3.659   8.745 -0.0730 -1.0801 -0.0847
  975MOL0     H31588  -1.056   3.694   8.834 -1.2908 -0.1445 -0.9732
  975MOL0     H31589  -1.462   3.808   8.706  1.4338 -0.9264  0.9049
  975MOL0     H31590  -1.665   3.914   8.734  0.3462 -2.0140 -2.6669
  975MOL0     H31591  -1.794   4.007   8.924  0.7884 -0.4518 -0.2541
  975MOL0     H31592  -1.886   3.981   8.766 -0.0668  0.8966  0.3790
  975MOL0     H31593  -2.027   4.127   8.890 -3.2030 -0.6297 -0.9763
  975MOL0     H31594  -2.095   3.964   8.884  2.5446 -3.1009 -1.8498
  975MOL0     H31595  -1.941   4.083   9.125  1.4029 -0.0739  0.3970
  975MOL0     H31596  -2.013   3.921   9.123 -2.5127  0.5537  2.7590
  975MOL0     H31597  -2.145   4.184   9.115 -0.0382 -0.1733 -0.8379
  975MOL0     H31598  -2.242   4.039   9.081  0.2227  0.6628 -2.5146
  975MOL0     H31599  -2.069   4.067   9.326  0.6739  0.7116 -1.0581
  975MOL0     H31600  -2.188   3.935   9.287 -2.6519  1.3190 -0.4148
  975MOL0     H31601  -2.255   4.226   9.361  1.6817 -0.9337  2.7949
  975MOL0     H31602  -2.377   4.113   9.294  0.9269 -1.4979 -2.6511
  975MOL0     H31603  -2.217   4.104   9.545  0.2807 -0.0848  1.0149
  975MOL0     H31604  -2.304   3.963   9.475 -3.1601  0.7492 -0.6061
  975MOL0     H31605  -2.444   4.224   9.549 -1.6365  0.1608 -0.8541
  975MOL0     H31606  -2.437   4.068   9.639 -0.6837 -0.6287 -0.6691
  975MOL0     H31607  -1.810   3.587   8.971 -0.4676 -0.9164 -0.5408
  975MOL0     H31608  -1.624   3.456   8.919  2.0804 -0.2720  0.1757
  975MOL0     H31609  -1.330   3.345   8.638 -0.0328 -2.2215 -0.0340
  975MOL0     H31610  -1.168   3.166   8.585  3.9069 -0.9881 -1.8023
  975MOL0     H31611   0.694   2.131   8.754 -2.4505  0.0950  1.2822
  975MOL0     H31612   0.795   1.987   8.590 -1.1835  0.5249  1.3455
  975MOL0     H31613   0.968   1.837   8.275  0.8869 -1.4022 -0.1999
  975MOL0     H31614   1.090   1.707   8.117  0.7727  2.3298  0.0208
  975MOL0     H31615   0.873   1.461   7.788 -1.9988  2.7974 -2.0731
  975MOL0     H31616   0.953   1.605   7.721  2.7018  0.7834  0.0203
  975MOL0     H31617   1.074   1.347   7.816 -1.2596 -0.0003  1.0654
  975MOL0     H31618   1.168   1.494   7.758 -1.5593  2.0313 -0.3291
  975MOL0     H31619   1.083   1.494   7.547 -1.7076 -0.9402  0.1496
  975MOL0     H31620   0.961   1.381   7.584 -0.1504  3.5936 -0.0612
  975MOL0     H31621   1.103   1.255   7.439  0.2052 -1.1136 -0.6140
  975MOL0     H31622   1.160   1.208   7.605  0.0604  0.7299  0.4344
  975MOL0     H31623   1.493   1.412   7.457 -0.9012  2.1045 -0.4758
  975MOL0     H31624   0.747   1.623   7.895  0.3477  2.2772 -0.7406
  975MOL0     H31625   0.600   1.754   8.059  0.2643  2.0447 -0.0083
  976MOL0     O31626   0.088   4.261   9.572 -0.2264 -0.0167 -0.2945
  976MOL0     C31627   0.127   4.247   9.688  0.0117  0.3876 -0.2588
  976MOL0     O31628   0.071   4.310   9.799 -0.2681  0.6644  0.0477
  976MOL0     C31629  -0.035   4.393   9.781  0.2254  0.7368 -0.1265
  976MOL0     C31630  -0.154   4.361   9.706 -0.3713 -0.3718 -0.4233
  976MOL0     C31631  -0.273   4.441   9.709 -0.1294 -0.9328  0.7253
  976MOL0     C31632  -0.267   4.555   9.789  0.6420 -0.2215  0.6980
  976MOL0     O31633  -0.388   4.627   9.787 -0.2666  0.2442 -0.8362
  976MOL0     C31634  -0.431   4.691   9.913  0.0524  0.2601  0.1021
  976MOL0     C31635  -0.578   4.735   9.919  0.2344 -0.2797 -0.0206
  976MOL0     C31636  -0.685   4.617   9.926  0.3687 -0.4302 -0.3528
  976MOL0     C31637  -0.701   4.553   9.785 -0.1842 -0.2644 -0.5442
  976MOL0     C31638  -0.745   4.413   9.787  0.1539 -0.1032 -0.4373
  976MOL0     C31639  -0.860   4.383   9.893  0.4054 -0.0860 -0.6275
  976MOL0     C31640  -0.915   4.242   9.869 -0.5995 -0.5007  0.1460
  976MOL0     C31641  -1.032   4.203   9.967 -0.8532 -0.1743 -0.0571
  976MOL0     N31642  -1.075   4.064   9.933 -0.1475 -0.1041 -0.3963
  976MOL0     C31643  -1.142   4.039   9.819  0.1895  0.8597 -0.2120
  976MOL0     C31644  -1.112   3.912   9.794 -0.1381  0.2165 -0.4999
  976MOL0     C31645  -1.154   3.821   9.684  0.3029 -0.5646  0.5604
  976MOL0     C31646  -1.304   3.844   9.650 -0.1782 -1.4136  0.0206
  976MOL0     C31647  -1.395   3.811   9.763 -0.2545  0.6262 -0.5395
  976MOL0     C31648  -1.535   3.821   9.715  0.6475 -0.2785 -0.0948
  976MOL0     O31649  -1.580   3.691   9.675 -0.4364  0.2486  0.5007
  976MOL0     C31650  -1.696   3.640   9.747  0.2337  0.1704 -0.3532
  976MOL0     C31651  -1.817   3.634   9.686  0.7551  0.1748 -0.4526
  976MOL0     C31652  -1.935   3.574   9.739 -0.6618  0.7092  0.1722
  976MOL0     C31653  -2.050   3.576   9.643 -0.0768  0.0138  0.2352
  976MOL0     C31654  -1.924   3.513   9.868  0.2838 -1.2750 -0.1389
  976MOL0     C31655  -2.043   3.469   9.947 -0.1788 -0.5771  0.2611
  976MOL0     O31656  -2.023   3.377  10.048 -0.2395  0.2252  0.3029
  976MOL0     C31657  -2.139   3.350  10.116 -1.1796  0.0470  0.0084
  976MOL0     C31658  -2.190   3.453  10.197 -0.7529 -0.0037 -0.1767
  976MOL0     C31659  -2.315   3.437  10.256  1.1810  0.1904 -0.2425
  976MOL0     C31660  -2.394   3.321  10.246  0.6922  0.2492  0.1627
  976MOL0     O31661  -2.507   3.302  10.321 -0.8477  0.2086 -1.3914
  976MOL0     C31662  -2.490   3.235  10.450  0.3299 -0.9497  0.0446
  976MOL0     C31663  -2.392   3.308  10.545 -0.3231 -0.0705  0.1147
  976MOL0     C31664  -2.355   3.226  10.667  0.4777  0.2918 -0.2100
  976MOL0     C31665  -2.461   3.212  10.774 -0.3209 -0.0249  0.6644
  976MOL0     C31666  -2.417   3.143  10.905 -0.2712  0.5532  0.0344
  976MOL0     C31667  -2.407   2.987  10.893  0.0878 -0.5686 -1.1079
  976MOL0     C31668  -2.540   2.919  10.854 -0.5285 -0.6270  0.4377
  976MOL0     C31669  -2.571   2.787  10.925  0.3379  0.6238 -0.2616
  976MOL0    Cl31670  -2.556   2.819  11.104 -0.1040 -0.3463  0.1809
  976MOL0     C31671  -2.343   3.224  10.160  0.2055  0.2536 -0.0922
  976MOL0     C31672  -2.223   3.242  10.087 -0.3819  0.0488  0.3242
  976MOL0     O31673  -2.152   3.520   9.919  0.5456  0.6249 -0.0193
  976MOL0     C31674  -1.802   3.529   9.936  0.0267  0.4760 -0.3083
  976MOL0     C31675  -1.687   3.577   9.870  0.6084 -0.6822  0.2575
  976MOL0     N31676  -1.031   3.870   9.895 -0.6188  0.4503  0.2110
  976MOL0     N31677  -1.004   3.959   9.980  0.2360 -0.2466 -0.1347
  976MOL0     C31678  -0.155   4.591   9.858 -0.8512 -0.8644  0.2946
  976MOL0     C31679  -0.044   4.511   9.860 -0.3309 -0.3770 -0.1649
  976MOL0     C31680   0.220   4.141   9.716  0.0790  0.3173 -0.4430
  976MOL0     C31681   0.291   4.147   9.841 -0.0584 -0.2029 -0.0403
  976MOL0     C31682   0.375   4.043   9.874  0.0160  1.1205 -0.2195
  976MOL0     C31683   0.400   3.935   9.794 -0.1734 -0.2541  0.3866
  976MOL0     O31684   0.486   3.838   9.829  0.0426  0.2052  0.0970
  976MOL0     C31685   0.422   3.709   9.835  0.0210 -0.3891 -0.4557
  976MOL0     C31686   0.524   3.621   9.907  0.3796  0.1627 -0.0167
  976MOL0     C31687   0.474   3.482   9.936  0.0436 -0.4990 -0.1927
  976MOL0     C31688   0.500   3.383   9.825  0.0793  0.1410 -0.6550
  976MOL0     C31689   0.639   3.331   9.819  0.2957 -0.4266  0.2027
  976MOL0     C31690   0.752   3.300   9.796 -1.4408  0.3721  0.1493
  976MOL0     C31691   0.331   3.927   9.674 -0.6312 -0.5033  0.6155
  976MOL0     C31692   0.240   4.031   9.632 -0.4907 -0.1114  0.2140
  976MOL0     H31693  -0.167   4.262   9.663  0.9300 -1.5678  1.7354
  976MOL0     H31694  -0.365   4.406   9.664 -0.0101 -1.3163  0.7684
  976MOL0     H31695  -0.410   4.641  10.008  1.0298  2.2795  1.0125
  976MOL0     H31696  -0.370   4.781   9.923 -1.0630  0.8491  2.3488
  976MOL0     H31697  -0.582   4.804  10.004  1.2518 -0.1349 -0.0747
  976MOL0     H31698  -0.602   4.787   9.826  1.7803 -1.3179 -1.0421
  976MOL0     H31699  -0.650   4.552  10.007 -1.0598  0.4756  1.0242
  976MOL0     H31700  -0.778   4.667   9.952  0.7906  0.7561 -1.0222
  976MOL0     H31701  -0.771   4.617   9.730 -0.8311  0.1475  0.6983
  976MOL0     H31702  -0.609   4.560   9.728 -0.6111 -2.0935 -1.5315
  976MOL0     H31703  -0.795   4.397   9.691  0.1759  2.8929 -1.0563
  976MOL0     H31704  -0.659   4.346   9.797  0.2676  0.4026  3.8857
  976MOL0     H31705  -0.814   4.389   9.992 -0.6392 -3.5107  0.1756
  976MOL0     H31706  -0.941   4.455   9.875  0.9668  1.3064  1.8764
  976MOL0     H31707  -0.953   4.246   9.767  0.4349 -0.5822 -0.2545
  976MOL0     H31708  -0.828   4.176   9.874  2.9580  3.6416 -1.0327
  976MOL0     H31709  -1.117   4.270   9.951 -1.4233 -1.2852 -2.1022
  976MOL0     H31710  -0.985   4.208  10.065 -1.2756  1.3432  0.0926
  976MOL0     H31711  -1.197   4.112   9.760 -1.4806  0.1654  0.4440
  976MOL0     H31712  -1.091   3.845   9.598  1.2107  0.8206  1.5501
  976MOL0     H31713  -1.132   3.719   9.715  1.6571 -1.1127 -1.9558
  976MOL0     H31714  -1.319   3.771   9.571 -3.1251 -0.2529 -0.6417
  976MOL0     H31715  -1.312   3.951   9.627  1.2297 -0.4332  3.4122
  976MOL0     H31716  -1.385   3.882   9.845  0.3934 -3.2844  3.0844
  976MOL0     H31717  -1.371   3.710   9.799  0.2694  0.2668 -1.8226
  976MOL0     H31718  -1.550   3.892   9.633 -3.5522 -1.4171 -0.5341
  976MOL0     H31719  -1.606   3.858   9.791  2.7679  2.5203  0.7224
  976MOL0     H31720  -1.835   3.682   9.591  1.6893  0.3935 -0.5258
  976MOL0     H31721  -2.137   3.516   9.670 -0.5185 -1.0485 -3.1119
  976MOL0     H31722  -2.081   3.681   9.646  0.0633  0.0835 -0.5841
  976MOL0     H31723  -2.019   3.543   9.544 -0.7425  4.2422 -1.5803
  976MOL0     H31724  -2.130   3.544  10.197  1.6966 -1.4852 -2.0437
  976MOL0     H31725  -2.359   3.519  10.312 -0.1036 -0.5304 -0.1739
  976MOL0     H31726  -2.586   3.232  10.501 -0.4057  0.4442 -1.1827
  976MOL0     H31727  -2.477   3.128  10.431  1.5753 -0.7989 -0.0315
  976MOL0     H31728  -2.302   3.325  10.485  1.2010 -2.1139  1.6610
  976MOL0     H31729  -2.434   3.402  10.580 -2.3311 -1.0941  0.6194
  976MOL0     H31730  -2.269   3.270  10.719 -1.4951  1.9203  1.8702
  976MOL0     H31731  -2.336   3.127  10.625 -0.2182  0.4832 -1.0014
  976MOL0     H31732  -2.498   3.311  10.804  1.8421  0.3199  2.4595
  976MOL0     H31733  -2.554   3.166  10.739  0.2972 -1.7764  1.2063
  976MOL0     H31734  -2.490   3.169  10.983 -1.6650  3.3832 -2.0025
  976MOL0     H31735  -2.318   3.175  10.939 -0.1906 -0.2130  0.5282
  976MOL0     H31736  -2.332   2.967  10.816  0.6964  2.9524 -1.6097
  976MOL0     H31737  -2.376   2.945  10.989 -1.1236  1.5029  0.2515
  976MOL0     H31738  -2.541   2.915  10.745 -0.7530 -0.2075  0.4234
  976MOL0     H31739  -2.627   2.974  10.893 -0.1194  1.4180 -1.3131
  976MOL0     H31740  -2.503   2.710  10.887  1.0122  0.3460  1.4104
  976MOL0     H31741  -2.669   2.751  10.894 -0.5904  3.0520 -0.3630
  976MOL0     H31742  -2.399   3.135  10.133  1.6302 -0.0096 -2.4219
  976MOL0     H31743  -2.191   3.158  10.026 -2.7177 -1.6167  1.2405
  976MOL0     H31744  -1.793   3.484  10.034  1.4784  1.8620  0.2392
  976MOL0     H31745  -1.592   3.573   9.922  0.2867  2.2139  1.2504
  976MOL0     H31746  -0.149   4.680   9.921  1.1290 -2.3504  2.3391
  976MOL0     H31747   0.037   4.542   9.925 -1.5520  2.8477  0.0320
  976MOL0     H31748   0.277   4.229   9.910 -0.2216 -1.4514  1.4532
  976MOL0     H31749   0.419   4.049   9.973 -1.0084 -1.5612  0.4795
  976MOL0     H31750   0.330   3.721   9.892 -0.2115 -3.0815 -0.1563
  976MOL0     H31751   0.394   3.678   9.734  1.7971 -0.3694 -0.9925
  976MOL0     H31752   0.540   3.662  10.007  2.8126 -0.1424 -0.2296
  976MOL0     H31753   0.624   3.626   9.864  1.0447 -2.4614  1.0176
  976MOL0     H31754   0.366   3.497   9.941  0.3683  2.1616  0.3998
  976MOL0     H31755   0.513   3.433  10.026 -1.1221 -0.9416  0.0932
  976MOL0     H31756   0.464   3.421   9.729 -1.6836 -2.4886 -1.1383
  976MOL0     H31757   0.441   3.295   9.850  0.7027  0.1159  0.8210
  976MOL0     H31758   0.850   3.265   9.772 -0.2123  3.4699  0.1645
  976MOL0     H31759   0.337   3.840   9.609  0.7374  0.5472 -0.7153
  976MOL0     H31760   0.189   4.021   9.537 -1.3031 -0.4333  0.6752
  977MOL0     O31761   1.133   0.023  11.331 -0.0602 -0.2537 -0.0102
  977MOL0     C31762   1.215  -0.062  11.364  0.1411  0.1231  0.5750
  977MOL0     O31763   1.347  -0.049  11.374  0.8826 -0.2399  0.3037
  977MOL0     C31764   1.422   0.075  11.382 -0.2762  0.5923  0.2871
  977MOL0     C31765   1.379   0.210  11.390 -0.3631 -0.4248  0.2439
  977MOL0     C31766   1.480   0.311  11.408  0.3059  0.0064  0.2845
  977MOL0     C31767   1.617   0.279  11.406  0.8491 -0.6949 -0.7473
  977MOL0     O31768   1.716   0.376  11.440  0.2970  0.5600  0.3819
  977MOL0     C31769   1.669   0.478  11.529 -0.5651 -0.2509 -0.0567
  977MOL0     C31770   1.789   0.563  11.566  0.5022  0.0114  0.1745
  977MOL0     C31771   1.730   0.687  11.636  0.4274  0.2455 -0.7103
  977MOL0     C31772   1.846   0.785  11.644  0.3184  0.0120 -0.4198
  977MOL0     C31773   1.819   0.907  11.738  0.5878  0.5726 -0.2175
  977MOL0     C31774   1.919   1.012  11.739 -0.0538 -0.1113  0.0108
  977MOL0     C31775   1.862   1.127  11.825  1.0856 -0.3268 -0.6409
  977MOL0     C31776   1.963   1.230  11.859 -0.2463  0.7574 -0.2216
  977MOL0     N31777   1.961   1.326  11.748  0.0322  0.6703 -0.8998
  977MOL0     C31778   1.871   1.428  11.735  0.8776 -0.7566 -0.2734
  977MOL0     C31779   1.903   1.497  11.620 -0.0844 -0.9442 -0.1069
  977MOL0     C31780   1.831   1.611  11.557 -0.1398 -0.0550 -0.1151
  977MOL0     C31781   1.745   1.683  11.651  1.3998  0.5455  0.2639
  977MOL0     C31782   1.608   1.610  11.674 -0.0060  0.8883  0.0169
  977MOL0     C31783   1.515   1.627  11.554 -0.2045  0.0782 -0.1814
  977MOL0     O31784   1.387   1.575  11.590 -0.0598 -0.7684  0.5300
  977MOL0     C31785   1.349   1.439  11.583  0.3075 -1.0648  0.0845
  977MOL0     C31786   1.431   1.337  11.533 -0.2022 -1.4662 -0.0650
  977MOL0     C31787   1.383   1.207  11.532  0.2458 -0.2075 -0.3520
  977MOL0     C31788   1.490   1.109  11.485 -0.7724  0.3688  0.0084
  977MOL0     C31789   1.259   1.176  11.585  0.8165 -0.5230 -0.5822
  977MOL0     C31790   1.198   1.037  11.585  0.8433 -0.6390 -0.0038
  977MOL0     O31791   1.270   0.925  11.560 -0.1848 -0.4401 -0.1633
  977MOL0     C31792   1.206   0.814  11.534 -0.0913  0.3250  0.8580
  977MOL0     C31793   1.256   0.737  11.429  0.0061 -0.5147  0.8958
  977MOL0     C31794   1.215   0.608  11.391  0.0249 -0.7577 -1.7138
  977MOL0     C31795   1.125   0.543  11.476  0.3114  0.9730  1.0179
  977MOL0     O31796   1.083   0.420  11.427  0.4641 -0.6014 -0.6288
  977MOL0     C31797   0.997   0.340  11.498 -0.1414  0.0451 -0.1597
  977MOL0     C31798   1.054   0.284  11.631 -0.5808 -0.7713 -0.5158
  977MOL0     C31799   0.984   0.153  11.671 -0.9619  0.3419  0.4993
  977MOL0     C31800   0.839   0.188  11.720  0.3794 -0.2126  0.2726
  977MOL0     C31801   0.776   0.058  11.774 -0.2133  0.4657  0.6560
  977MOL0     C31802   0.641   0.100  11.839  0.6051  0.2124 -0.9582
  977MOL0     C31803   0.599  -0.016  11.933 -0.1463 -0.5042  0.1115
  977MOL0     C31804   0.471   0.023  11.997  0.4620 -0.8558  0.2946
  977MOL0    Cl31805   0.426  -0.116  12.093 -0.3479  0.7477 -0.0369
  977MOL0     C31806   1.069   0.608  11.589 -0.5197 -0.0812  0.1217
  977MOL0     C31807   1.113   0.739  11.617  0.7442 -0.2445 -0.0360
  977MOL0     O31808   1.074   1.036  11.597  0.1460 -0.3372  0.5139
  977MOL0     C31809   1.172   1.281  11.637  0.2813  0.2326 -0.5132
  977MOL0     C31810   1.223   1.411  11.638  0.7207  0.5116  0.4226
  977MOL0     N31811   2.012   1.426  11.574 -0.0876  0.5372  0.8198
  977MOL0     N31812   2.042   1.320  11.639 -0.2149  0.7603  0.0996
  977MOL0     C31813   1.654   0.150  11.385 -0.3942  0.9188  0.1238
  977MOL0     C31814   1.562   0.046  11.374  0.0918 -0.5756 -0.7282
  977MOL0     C31815   1.165  -0.196  11.397  0.6685  0.1665  0.2869
  977MOL0     C31816   1.034  -0.218  11.437  1.0157 -0.0137 -0.3305
  977MOL0     C31817   0.986  -0.343  11.467 -0.1190  0.2190 -0.8357
  977MOL0     C31818   1.079  -0.450  11.476 -0.1981 -0.0741  0.4062
  977MOL0     O31819   1.024  -0.563  11.534 -0.7439  0.3665 -0.4678
  977MOL0     C31820   1.111  -0.678  11.541  0.4689 -0.4514  1.3360
  977MOL0     C31821   1.030  -0.808  11.565  1.0492  0.6105 -0.0608
  977MOL0     C31822   1.116  -0.917  11.628 -0.7212  0.7298 -0.2791
  977MOL0     C31823   1.047  -1.050  11.649  0.8860 -0.1522 -0.4415
  977MOL0     C31824   0.928  -1.045  11.739 -0.1099 -0.0877 -0.5568
  977MOL0     C31825   0.833  -1.044  11.818 -1.3560 -0.6171  0.0422
  977MOL0     C31826   1.213  -0.426  11.442 -0.0335  0.1700 -0.4566
  977MOL0     C31827   1.251  -0.305  11.388  0.2419 -0.5615 -0.3074
  977MOL0     H31828   1.273   0.234  11.382 -1.3767 -3.3468  2.8052
  977MOL0     H31829   1.460   0.418  11.408 -1.2271 -0.2497  1.6294
  977MOL0     H31830   1.587   0.540  11.492 -0.2418  1.2441  1.5829
  977MOL0     H31831   1.636   0.433  11.623 -1.6620 -0.1867 -0.3967
  977MOL0     H31832   1.862   0.508  11.626 -0.5099 -1.3330  0.2151
  977MOL0     H31833   1.841   0.598  11.476  1.3496  3.1416  1.7337
  977MOL0     H31834   1.646   0.729  11.580  1.3377  0.3730 -2.0380
  977MOL0     H31835   1.698   0.647  11.732 -0.2136 -1.0185 -1.4197
  977MOL0     H31836   1.937   0.733  11.676  1.6173  2.1840 -0.4052
  977MOL0     H31837   1.879   0.816  11.545  2.2676  2.5230  0.9156
  977MOL0     H31838   1.727   0.949  11.697  1.3047  1.9705 -0.4314
  977MOL0     H31839   1.792   0.872  11.839 -0.2299  0.6220 -0.4092
  977MOL0     H31840   2.010   0.979  11.789 -1.2159 -1.9011  1.0769
  977MOL0     H31841   1.931   1.036  11.633  1.1622 -0.3103  0.0882
  977MOL0     H31842   1.767   1.164  11.786 -0.1711 -0.3436  2.1370
  977MOL0     H31843   1.850   1.085  11.926  1.9787  0.9119  0.0098
  977MOL0     H31844   2.061   1.182  11.868  0.7029  2.2309 -1.8821
  977MOL0     H31845   1.925   1.280  11.948 -2.5258 -0.7040 -0.3035
  977MOL0     H31846   1.795   1.452  11.808  2.5752 -2.4903  2.2080
  977MOL0     H31847   1.898   1.680  11.506 -0.1332 -0.5208 -0.7387
  977MOL0     H31848   1.775   1.579  11.469 -1.2872  2.7019 -0.5004
  977MOL0     H31849   1.729   1.786  11.619  1.1266  1.0390  1.8580
  977MOL0     H31850   1.794   1.697  11.748 -0.4907 -1.3649  1.5729
  977MOL0     H31851   1.572   1.664  11.762  2.0423  1.1381  0.7660
  977MOL0     H31852   1.617   1.504  11.696 -0.9200 -0.3831 -4.5476
  977MOL0     H31853   1.558   1.577  11.466 -2.7011 -0.7853 -1.0063
  977MOL0     H31854   1.509   1.730  11.518 -1.3813  1.1688  2.8622
  977MOL0     H31855   1.505   1.378  11.466 -1.8978 -0.5457 -1.4673
  977MOL0     H31856   1.533   1.051  11.567 -1.3798 -0.0165  0.0595
  977MOL0     H31857   1.447   1.044  11.409 -0.2452  0.2677 -0.2063
  977MOL0     H31858   1.575   1.160  11.440  1.0821 -3.0321 -0.6690
  977MOL0     H31859   1.336   0.775  11.366 -1.0958  1.0494  0.3886
  977MOL0     H31860   1.241   0.557  11.298 -0.1592 -0.2014 -2.0766
  977MOL0     H31861   0.903   0.390  11.521 -1.5186 -3.1718  1.9183
  977MOL0     H31862   0.968   0.256  11.435  0.7977 -0.1466 -0.3531
  977MOL0     H31863   1.160   0.259  11.633 -0.0407  1.3000  1.2465
  977MOL0     H31864   1.045   0.351  11.717  0.7176  1.3712 -1.9571
  977MOL0     H31865   1.034   0.109  11.757 -2.3300  0.7992  1.5596
  977MOL0     H31866   0.987   0.076  11.593  5.3961 -0.3600  0.8830
  977MOL0     H31867   0.838   0.266  11.797 -0.1897 -1.8527  2.0067
  977MOL0     H31868   0.788   0.226  11.631  0.4488  1.1716  0.7992
  977MOL0     H31869   0.843   0.022  11.852 -0.1177 -0.5048  0.1446
  977MOL0     H31870   0.765  -0.023  11.702 -0.2107  0.2300  0.9219
  977MOL0     H31871   0.659   0.193  11.895 -0.3260  1.3996 -2.5456
  977MOL0     H31872   0.558   0.121  11.770  0.0938 -0.8468 -0.6789
  977MOL0     H31873   0.677  -0.043  12.004  1.7494  0.9683 -1.2871
  977MOL0     H31874   0.589  -0.101  11.865  2.1711  1.6380 -3.1828
  977MOL0     H31875   0.393   0.049  11.925  2.2203  0.7015 -1.1608
  977MOL0     H31876   0.499   0.107  12.062  2.3707 -2.4567  1.6664
  977MOL0     H31877   0.992   0.556  11.645 -1.3193 -0.8846 -1.6386
  977MOL0     H31878   1.087   0.776  11.716  0.7435  3.3238 -1.2421
  977MOL0     H31879   1.072   1.267  11.675  0.1030  1.3166 -0.5437
  977MOL0     H31880   1.153   1.488  11.668 -4.3010 -3.3896  0.0468
  977MOL0     H31881   1.758   0.121  11.396  0.6861  4.1969 -0.3495
  977MOL0     H31882   1.596  -0.058  11.376  2.5093  0.1368  1.2702
  977MOL0     H31883   0.965  -0.136  11.453  0.8458  0.2756 -2.3611
  977MOL0     H31884   0.882  -0.363  11.490 -0.5813 -2.1198 -4.3053
  977MOL0     H31885   1.170  -0.685  11.449  1.3414 -1.5427  1.9536
  977MOL0     H31886   1.184  -0.665  11.622  0.3838  0.8096  1.2291
  977MOL0     H31887   1.006  -0.840  11.463  1.4710 -0.6687  0.2146
  977MOL0     H31888   0.943  -0.793  11.629  2.9161  1.9659  2.3456
  977MOL0     H31889   1.139  -0.868  11.723 -2.0031  1.9092 -0.5410
  977MOL0     H31890   1.206  -0.940  11.571  0.2244 -1.2879  1.8587
  977MOL0     H31891   1.109  -1.115  11.712 -0.2673 -1.1684 -0.3318
  977MOL0     H31892   1.024  -1.090  11.550  1.4017  0.3662 -0.7776
  977MOL0     H31893   0.748  -1.040  11.882 -0.8912  1.0384  0.6094
  977MOL0     H31894   1.292  -0.496  11.466  2.3654  1.7076 -3.3363
  977MOL0     H31895   1.353  -0.279  11.359 -0.1406  0.2467 -0.9638
  978MOL0     O31896   8.145   2.518   9.382 -0.6514  0.5303 -0.1954
  978MOL0     C31897   8.251   2.462   9.368  0.4779  1.1208  0.2432
  978MOL0     O31898   8.317   2.408   9.478 -0.8087  0.0263  0.5970
  978MOL0     C31899   8.253   2.398   9.608 -0.5949  0.7003  0.7073
  978MOL0     C31900   8.258   2.500   9.706  0.4208 -0.6297  0.0369
  978MOL0     C31901   8.166   2.495   9.813 -0.5395 -0.9821 -0.3756
  978MOL0     C31902   8.084   2.384   9.835  0.1413 -0.4618  0.1721
  978MOL0     O31903   7.997   2.367   9.938  0.2699 -0.5479 -0.0691
  978MOL0     C31904   7.982   2.467  10.036 -0.5245  0.3466  0.9436
  978MOL0     C31905   7.904   2.412  10.155 -0.3737 -0.0511 -0.1408
  978MOL0     C31906   7.755   2.392  10.120  0.2076 -0.3637 -0.0246
  978MOL0     C31907   7.669   2.360  10.245 -0.1109  0.1965  0.2952
  978MOL0     C31908   7.543   2.274  10.219  0.2659 -0.1669  0.6439
  978MOL0     C31909   7.450   2.316  10.104 -0.5471  0.6891 -0.0966
  978MOL0     C31910   7.391   2.455  10.136  0.4263  0.7269 -0.2459
  978MOL0     C31911   7.290   2.483  10.243  0.5550 -0.3405  0.1233
  978MOL0     N31912   7.151   2.426  10.220 -0.2818 -0.3154  0.4287
  978MOL0     C31913   7.112   2.293  10.211  0.7572 -0.0745  0.5367
  978MOL0     C31914   6.976   2.288  10.231 -0.1402 -0.3198  0.4767
  978MOL0     C31915   6.882   2.170  10.220  0.0754  0.5842 -0.4940
  978MOL0     C31916   6.821   2.125  10.356  0.9200 -0.5098  0.3092
  978MOL0     C31917   6.711   2.022  10.332 -0.7576  0.4879  0.0776
  978MOL0     C31918   6.579   2.071  10.272  0.3511 -0.1909  0.0153
  978MOL0     O31919   6.475   1.970  10.277  0.2423 -0.9887  0.3468
  978MOL0     C31920   6.351   2.000  10.217 -0.6242  0.9590 -0.0815
  978MOL0     C31921   6.336   2.089  10.107 -0.4392  0.1953 -1.4076
  978MOL0     C31922   6.210   2.112  10.053 -0.5203  0.2687  0.2935
  978MOL0     C31923   6.212   2.208   9.932  0.4313  0.1158 -0.5541
  978MOL0     C31924   6.092   2.039  10.092  0.1760 -0.1266  1.1042
  978MOL0     C31925   5.958   2.058  10.033  0.5294 -0.4765  0.1352
  978MOL0     O31926   5.881   1.944  10.003  0.2063 -0.1034  0.1795
  978MOL0     C31927   5.752   1.933   9.954  0.8349  0.5970  0.7209
  978MOL0     C31928   5.705   2.024   9.857  0.7151 -0.6601 -0.3685
  978MOL0     C31929   5.582   2.007   9.798  0.0779  0.0550  0.5054
  978MOL0     C31930   5.503   1.901   9.836  0.5885  0.8731  0.7787
  978MOL0     O31931   5.394   1.875   9.753 -0.0007 -0.5065 -0.1648
  978MOL0     C31932   5.336   1.745   9.740 -0.7314  0.3076 -0.5290
  978MOL0     C31933   5.295   1.725   9.589  0.9356 -0.2746 -0.4351
  978MOL0     C31934   5.176   1.806   9.537 -0.1122  0.1679 -0.0638
  978MOL0     C31935   5.172   1.795   9.388  0.4712  0.7722 -0.0731
  978MOL0     C31936   5.059   1.891   9.339  0.6961  0.4726  0.3213
  978MOL0     C31937   5.030   1.858   9.185  0.0541 -0.2578  0.1750
  978MOL0     C31938   4.916   1.948   9.126 -0.4101  0.2438 -0.7385
  978MOL0     C31939   4.773   1.892   9.165  1.2162  0.3095  0.8480
  978MOL0    Cl31940   4.655   1.988   9.084 -0.2134  0.1683 -0.1420
  978MOL0     C31941   5.543   1.813   9.932 -0.6777 -0.2697 -0.0286
  978MOL0     C31942   5.662   1.842   9.994  0.4275 -0.1602 -0.4442
  978MOL0     O31943   5.919   2.174  10.015  0.3039  1.0204  0.4025
  978MOL0     C31944   6.111   1.946  10.194 -0.2803  0.3125  0.2427
  978MOL0     C31945   6.239   1.917  10.252  0.6781  0.0581  0.3919
  978MOL0     N31946   6.938   2.421  10.239  0.6424 -0.1805 -0.1474
  978MOL0     N31947   7.039   2.501  10.238 -0.0845  0.3576  0.8567
  978MOL0     C31948   8.086   2.290   9.735 -0.2463  0.2081 -0.2459
  978MOL0     C31949   8.162   2.293   9.624  0.3480 -0.2356  0.9033
  978MOL0     C31950   8.313   2.459   9.223  0.1006 -0.0817  0.9792
  978MOL0     C31951   8.429   2.386   9.194 -0.2183 -0.0201 -0.0179
  978MOL0     C31952   8.486   2.385   9.061  0.3209  0.4267  0.2786
  978MOL0     C31953   8.416   2.450   8.956 -0.0981 -0.0222  0.0127
  978MOL0     O31954   8.487   2.441   8.840  0.5125  0.6012 -0.2493
  978MOL0     C31955   8.416   2.501   8.729  0.8513  0.0394  0.5944
  978MOL0     C31956   8.448   2.649   8.718  0.0470 -0.8734  0.0236
  978MOL0     C31957   8.577   2.684   8.661  0.2848 -0.6632 -0.5530
  978MOL0     C31958   8.594   2.837   8.649 -0.4073 -0.5205 -0.4499
  978MOL0     C31959   8.737   2.869   8.647 -1.0569  0.0849 -0.3293
  978MOL0     C31960   8.869   2.862   8.657  0.8761  0.9773  0.5032
  978MOL0     C31961   8.295   2.516   8.984  0.2736  0.3423 -0.8114
  978MOL0     C31962   8.245   2.517   9.120 -0.4993  0.6048 -0.2619
  978MOL0     H31963   8.331   2.577   9.685  0.8150 -0.3860  2.0796
  978MOL0     H31964   8.168   2.571   9.890  0.0903 -3.1001  1.7913
  978MOL0     H31965   8.080   2.488  10.080 -0.1211  0.4039  0.0395
  978MOL0     H31966   7.941   2.558   9.991 -0.5083  0.4528  1.1414
  978MOL0     H31967   7.956   2.320  10.179 -3.2350 -1.0550  2.8429
  978MOL0     H31968   7.913   2.473  10.245 -0.1224  3.8254 -2.5473
  978MOL0     H31969   7.700   2.470  10.067  1.5105  0.5752 -0.0407
  978MOL0     H31970   7.753   2.309  10.048 -3.5766  0.1955 -0.7953
  978MOL0     H31971   7.743   2.319  10.314  1.2269  1.2165 -0.4738
  978MOL0     H31972   7.648   2.454  10.297  2.7252  0.2495  1.4963
  978MOL0     H31973   7.571   2.169  10.214 -0.1096 -0.3255  1.6150
  978MOL0     H31974   7.481   2.274  10.309 -1.3491 -0.5917 -0.4284
  978MOL0     H31975   7.510   2.323  10.013  0.8074 -1.3959  0.5607
  978MOL0     H31976   7.377   2.235  10.096  0.2337 -0.0649  0.1850
  978MOL0     H31977   7.467   2.532  10.153  2.4177 -0.6962 -2.0679
  978MOL0     H31978   7.341   2.480  10.042 -1.3262 -0.9584  0.1731
  978MOL0     H31979   7.276   2.591  10.238  0.0650 -0.4688 -3.0548
  978MOL0     H31980   7.329   2.453  10.341 -1.4705  2.9962  2.1571
  978MOL0     H31981   7.179   2.209  10.199 -1.6251 -2.1612  1.0877
  978MOL0     H31982   6.809   2.178  10.139 -1.1605 -1.9605  0.2710
  978MOL0     H31983   6.944   2.086  10.187 -0.7942  0.2520 -1.3063
  978MOL0     H31984   6.767   2.207  10.404 -0.7477 -2.2381  1.5318
  978MOL0     H31985   6.900   2.086  10.421  0.4205  0.3177  1.4443
  978MOL0     H31986   6.693   1.988  10.434 -2.8326  0.9576 -0.0916
  978MOL0     H31987   6.747   1.937  10.274 -2.5746  0.0332 -0.4446
  978MOL0     H31988   6.576   2.123  10.176  0.7093 -0.3367 -0.0776
  978MOL0     H31989   6.545   2.143  10.347  1.6610 -0.9819  1.4270
  978MOL0     H31990   6.417   2.156  10.081  1.4893 -2.0783 -1.5427
  978MOL0     H31991   6.317   2.220   9.905  1.7016 -0.1928  3.4809
  978MOL0     H31992   6.144   2.175   9.853 -2.9483 -0.9653  2.5152
  978MOL0     H31993   6.168   2.304   9.962  0.4335  0.7071 -2.3573
  978MOL0     H31994   5.763   2.110   9.826  1.1823 -0.1560  1.7642
  978MOL0     H31995   5.558   2.072   9.715  2.0648  0.9595  0.5980
  978MOL0     H31996   5.415   1.673   9.762 -1.2876  0.1190  0.9143
  978MOL0     H31997   5.247   1.736   9.802 -1.0209  1.9192 -0.6595
  978MOL0     H31998   5.383   1.733   9.525 -0.2551  1.7110 -1.9404
  978MOL0     H31999   5.257   1.622   9.593  0.9778 -0.2377  2.5585
  978MOL0     H32000   5.181   1.910   9.569  0.2572 -0.4311  2.0395
  978MOL0     H32001   5.083   1.763   9.577  0.1368  0.6733  1.0864
  978MOL0     H32002   5.267   1.814   9.336  0.3563  0.0568 -0.5567
  978MOL0     H32003   5.150   1.690   9.369  5.2653 -0.2966 -1.1746
  978MOL0     H32004   5.098   1.993   9.350 -0.0022  0.4161  5.1252
  978MOL0     H32005   4.974   1.878   9.406 -0.5188 -0.8147 -1.3737
  978MOL0     H32006   5.121   1.863   9.124 -1.0338 -0.9010 -1.6021
  978MOL0     H32007   4.992   1.756   9.173  1.1464 -0.4320 -2.5137
  978MOL0     H32008   4.945   1.954   9.021  3.6850 -0.7154  0.1810
  978MOL0     H32009   4.908   2.048   9.170 -0.2796 -0.2973  0.5379
  978MOL0     H32010   4.753   1.902   9.272  0.3515  0.1724  0.7087
  978MOL0     H32011   4.773   1.783   9.149  2.1951  0.5431 -0.9881
  978MOL0     H32012   5.484   1.733   9.976  1.6640 -2.4874 -0.6163
  978MOL0     H32013   5.690   1.769  10.070  1.9354  0.4447 -0.3835
  978MOL0     H32014   6.031   1.879  10.225  1.7016 -0.6234  3.9223
  978MOL0     H32015   6.254   1.845  10.332  1.9994 -0.9173 -0.6886
  978MOL0     H32016   8.025   2.202   9.751 -0.0289  0.3497  1.5774
  978MOL0     H32017   8.160   2.204   9.561 -0.0560  0.4087 -0.0146
  978MOL0     H32018   8.493   2.348   9.274 -0.2635 -1.3669 -0.6071
  978MOL0     H32019   8.581   2.345   9.029 -0.2220 -0.3098 -0.4793
  978MOL0     H32020   8.447   2.450   8.638 -1.0486 -0.2219  0.0422
  978MOL0     H32021   8.308   2.483   8.723  1.0221 -1.2003  1.0820
  978MOL0     H32022   8.441   2.689   8.820  0.2551 -1.9994  0.4945
  978MOL0     H32023   8.373   2.705   8.662  1.2409  0.5220 -0.2448
  978MOL0     H32024   8.617   2.647   8.566  0.6716  1.7570 -1.4006
  978MOL0     H32025   8.636   2.642   8.744 -0.8571 -1.3800 -0.0849
  978MOL0     H32026   8.545   2.886   8.734  0.9680  0.6210 -0.2790
  978MOL0     H32027   8.550   2.872   8.555  0.9546 -0.5370 -1.1140
  978MOL0     H32028   8.975   2.874   8.665  1.3183 -0.8320 -1.5409
  978MOL0     H32029   8.227   2.560   8.912  2.7547  0.9344 -2.9407
  978MOL0     H32030   8.144   2.554   9.132 -0.2108  1.2754  0.1366
  979MOL0     O32031   3.127   7.891  10.075  0.1253  0.5131 -0.4809
  979MOL0     C32032   3.107   7.768  10.056 -0.1383  0.2099 -1.3205
  979MOL0     O32033   2.987   7.708  10.072 -0.7167  0.5919 -0.1595
  979MOL0     C32034   2.865   7.746  10.146  0.0821  0.6966  1.0308
  979MOL0     C32035   2.853   7.857  10.222 -0.2105 -0.7769  0.2424
  979MOL0     C32036   2.721   7.893  10.269  0.3455  0.9666  0.7018
  979MOL0     C32037   2.611   7.813  10.240  0.5172 -0.6088  1.2769
  979MOL0     O32038   2.485   7.836  10.284  0.0044  0.2914  0.5203
  979MOL0     C32039   2.467   7.901  10.403  0.6600 -0.6505 -0.1430
  979MOL0     C32040   2.324   7.889  10.469  0.4190  0.1352  0.4830
  979MOL0     C32041   2.209   7.926  10.377 -0.3398  0.2579  0.1153
  979MOL0     C32042   2.084   7.911  10.456 -0.4525  0.4685 -0.3281
  979MOL0     C32043   1.980   7.853  10.356  0.1226 -0.5886  0.0255
  979MOL0     C32044   1.845   7.822  10.424 -0.2639 -0.0540  0.1637
  979MOL0     C32045   1.728   7.811  10.331 -0.2379  0.7668 -0.0829
  979MOL0     C32046   1.721   7.678  10.243  1.1385 -0.1438  0.8588
  979MOL0     N32047   1.576   7.640  10.231 -0.3417  0.4986  0.4477
  979MOL0     C32048   1.497   7.689  10.133 -0.7032  0.2385 -0.2230
  979MOL0     C32049   1.380   7.617  10.139  1.2163 -0.7290  0.2333
  979MOL0     C32050   1.258   7.639  10.050  0.5344 -0.7613  0.5750
  979MOL0     C32051   1.163   7.740  10.116 -0.2173 -0.1134 -0.3622
  979MOL0     C32052   1.019   7.737  10.057  0.0590  0.9017  0.6219
  979MOL0     C32053   0.982   7.887  10.037  0.5440 -0.3645 -0.1470
  979MOL0     O32054   0.977   7.950  10.164 -0.6309 -0.0300 -0.0880
  979MOL0     C32055   0.917   8.076  10.181 -0.1071 -0.3716  0.4409
  979MOL0     C32056   0.928   8.134  10.307 -0.8423 -0.2029 -0.2623
  979MOL0     C32057   0.876   8.254  10.333  0.2625 -1.0718  0.2216
  979MOL0     C32058   0.918   8.313  10.468  0.3614  0.1172 -0.3610
  979MOL0     C32059   0.796   8.330  10.236 -0.1727 -1.1297 -0.7227
  979MOL0     C32060   0.739   8.467  10.256  0.6338  0.0181 -0.1473
  979MOL0     O32061   0.644   8.500  10.158  0.5838  0.5612  0.2740
  979MOL0     C32062   0.581   8.623  10.150  0.6830 -0.9129 -0.7307
  979MOL0     C32063   0.641   8.741  10.193 -0.8826  0.7585  0.4340
  979MOL0     C32064   0.585   8.860  10.175 -1.0091 -1.2670 -0.0977
  979MOL0     C32065   0.470   8.878  10.106  0.3848  0.5212 -0.4310
  979MOL0     O32066   0.414   9.004  10.071  0.3555  0.6376  0.4071
  979MOL0     C32067   0.276   9.030  10.134 -0.2839 -0.1703  0.9320
  979MOL0     C32068   0.188   9.139  10.066  0.4974 -0.6054  0.0468
  979MOL0     C32069   0.260   9.261  10.058 -0.3483  0.1390  0.4296
  979MOL0     C32070   0.178   9.378   9.994 -0.1005 -0.2305  0.3834
  979MOL0     C32071   0.261   9.513   9.971 -0.1991  0.7345 -0.2130
  979MOL0     C32072   0.173   9.624   9.905  0.1550  0.5757  0.0498
  979MOL0     C32073   0.030   9.638   9.944 -0.0742 -0.6500 -0.4833
  979MOL0     C32074  -0.027   9.759   9.882  0.8301 -1.0953  0.2622
  979MOL0    Cl32075  -0.040   9.752   9.699 -0.5685  0.0044 -0.1796
  979MOL0     C32076   0.405   8.765  10.071 -0.0317  0.0068  0.4788
  979MOL0     C32077   0.462   8.639  10.084 -0.1842 -0.3192 -0.4311
  979MOL0     O32078   0.780   8.538  10.352 -0.0764 -0.2954 -0.6907
  979MOL0     C32079   0.782   8.266  10.114  0.4721  0.6251 -0.1444
  979MOL0     C32080   0.838   8.145  10.087 -0.0661 -0.9590  0.0861
  979MOL0     N32081   1.388   7.526  10.235  0.1889 -0.1591 -0.2014
  979MOL0     N32082   1.504   7.534  10.293 -0.1139 -0.4745  0.4334
  979MOL0     C32083   2.620   7.712  10.150 -0.6740  0.2909 -0.1479
  979MOL0     C32084   2.753   7.673  10.106  0.6307 -0.7847  0.1935
  979MOL0     C32085   3.218   7.682  10.011 -0.5335 -0.4071 -0.5936
  979MOL0     C32086   3.343   7.741  10.021 -0.0275 -0.1376  1.3418
  979MOL0     C32087   3.460   7.659   9.999  0.3726 -0.6870 -0.2120
  979MOL0     C32088   3.443   7.529   9.966  0.5553  0.2268  0.1566
  979MOL0     O32089   3.542   7.438   9.926  0.0398 -0.7666  0.9467
  979MOL0     C32090   3.676   7.484   9.913  0.5475  0.9460 -0.4026
  979MOL0     C32091   3.750   7.365   9.961  0.7186 -0.1772  0.5536
  979MOL0     C32092   3.884   7.386  10.003  0.5322 -0.2387  0.7713
  979MOL0     C32093   3.950   7.259  10.047  0.2729 -0.1773 -0.4946
  979MOL0     C32094   3.961   7.155   9.941 -0.1227 -0.5318 -0.2550
  979MOL0     C32095   3.975   7.080   9.843  0.4856 -0.7651  0.4270
  979MOL0     C32096   3.314   7.477   9.970 -0.1535 -0.5913 -0.0788
  979MOL0     C32097   3.206   7.545   9.994 -0.7153  0.5126  0.1609
  979MOL0     H32098   2.937   7.915  10.260 -0.0373 -0.5559 -0.4611
  979MOL0     H32099   2.708   7.965  10.350 -0.8477  1.6211 -0.0368
  979MOL0     H32100   2.545   7.875  10.474 -1.0756  0.2847  2.2345
  979MOL0     H32101   2.472   8.010  10.389 -0.3300 -0.0360  3.2630
  979MOL0     H32102   2.307   7.786  10.500 -1.8055  0.5430  0.7713
  979MOL0     H32103   2.324   7.956  10.556 -4.8191 -1.0657  1.7402
  979MOL0     H32104   2.218   8.030  10.345 -3.5475  0.3138 -1.0302
  979MOL0     H32105   2.218   7.864  10.288  0.9987 -0.0537  0.4522
  979MOL0     H32106   2.095   7.833  10.532 -0.8397  3.3102  2.8831
  979MOL0     H32107   2.058   8.001  10.512  0.3506  0.0693  0.7295
  979MOL0     H32108   1.974   7.920  10.270  2.9540 -1.6139 -1.1176
  979MOL0     H32109   2.017   7.760  10.312 -0.0046 -1.0870  0.9420
  979MOL0     H32110   1.846   7.729  10.482  1.2546 -1.0357 -1.3661
  979MOL0     H32111   1.821   7.906  10.490 -0.6964  2.0148 -2.4636
  979MOL0     H32112   1.645   7.801  10.401 -2.1412 -1.4693 -2.4363
  979MOL0     H32113   1.716   7.893  10.259 -2.8513 -0.1954 -0.8583
  979MOL0     H32114   1.779   7.601  10.294  0.2055 -2.3740 -1.2847
  979MOL0     H32115   1.771   7.692  10.147  0.4663  2.9507  0.8526
  979MOL0     H32116   1.520   7.777  10.073 -1.4404  1.7169  1.5507
  979MOL0     H32117   1.278   7.671   9.947 -0.3960 -2.1036 -0.0492
  979MOL0     H32118   1.220   7.537  10.038 -1.0821 -0.2640  1.2350
  979MOL0     H32119   1.203   7.839  10.138 -3.5942  1.1209  0.9329
  979MOL0     H32120   1.147   7.707  10.219  1.1263 -0.5302 -0.2720
  979MOL0     H32121   0.947   7.682  10.118  2.1225 -2.9472 -0.1396
  979MOL0     H32122   1.013   7.679   9.965 -2.9089 -0.8269  1.7647
  979MOL0     H32123   0.890   7.896   9.980  0.3308 -1.1859  0.0589
  979MOL0     H32124   1.052   7.935   9.968 -0.7009 -2.0733 -2.7229
  979MOL0     H32125   0.966   8.083  10.395 -0.9997 -0.7165 -0.4862
  979MOL0     H32126   0.983   8.397  10.442  2.6103 -1.7947 -1.3698
  979MOL0     H32127   0.829   8.351  10.519  0.9592  1.0456  0.0278
  979MOL0     H32128   0.981   8.243  10.524  0.4797  0.5251  0.0275
  979MOL0     H32129   0.732   8.742  10.252  0.0367  0.0872 -0.9060
  979MOL0     H32130   0.621   8.954  10.215  0.0984  0.3344 -4.3236
  979MOL0     H32131   0.222   8.936  10.146  0.9628 -1.3077 -1.6589
  979MOL0     H32132   0.290   9.062  10.238  0.7637  1.6020  0.2904
  979MOL0     H32133   0.160   9.100   9.968  2.2881  0.6211 -1.0142
  979MOL0     H32134   0.102   9.158  10.131  0.9333 -0.6700  0.6474
  979MOL0     H32135   0.347   9.242   9.994  0.4853 -3.3040  2.3160
  979MOL0     H32136   0.295   9.280  10.161  2.7380 -0.5750 -0.3841
  979MOL0     H32137   0.143   9.354   9.894 -1.6407 -0.6370  0.9886
  979MOL0     H32138   0.086   9.397  10.050  0.4766  0.2626  1.2067
  979MOL0     H32139   0.348   9.487   9.909 -0.2759 -3.8048  1.1595
  979MOL0     H32140   0.285   9.558  10.068 -0.1702  1.0232 -0.3554
  979MOL0     H32141   0.228   9.718   9.907  0.2886  0.6691 -3.0998
  979MOL0     H32142   0.165   9.609   9.796  0.4958 -1.4215  0.2566
  979MOL0     H32143   0.037   9.655  10.052 -1.3302 -1.4571 -0.2434
  979MOL0     H32144  -0.024   9.545   9.922  0.9212 -1.2143 -0.6041
  979MOL0     H32145   0.031   9.847   9.910  0.6862 -0.5688 -1.0083
  979MOL0     H32146  -0.125   9.782   9.925  0.3485 -1.0177 -0.8213
  979MOL0     H32147   0.305   8.768  10.029  0.7709 -2.6607 -1.9998
  979MOL0     H32148   0.418   8.544  10.058  1.9616 -1.5616  0.1973
  979MOL0     H32149   0.718   8.309  10.037 -0.1008  0.4380  0.2187
  979MOL0     H32150   0.812   8.108   9.988 -2.3840  4.3059 -1.6175
  979MOL0     H32151   2.537   7.648  10.124 -2.1169  1.6087  0.9760
  979MOL0     H32152   2.767   7.586  10.043 -0.5066 -0.5598 -0.4115
  979MOL0     H32153   3.368   7.843  10.050  1.8897 -0.1472 -0.0815
  979MOL0     H32154   3.556   7.710   9.987 -1.4917  3.4847  0.9882
  979MOL0     H32155   3.703   7.485   9.807 -0.3759 -0.7599 -0.6775
  979MOL0     H32156   3.700   7.579   9.963 -1.0784  1.8156 -1.1693
  979MOL0     H32157   3.748   7.289   9.883  1.1983 -1.9841  2.1999
  979MOL0     H32158   3.703   7.322  10.050 -2.4728 -0.3989 -1.1205
  979MOL0     H32159   3.882   7.458  10.085 -0.6715  0.7500 -0.0863
  979MOL0     H32160   3.943   7.422   9.919 -0.3091  0.6176  0.5245
  979MOL0     H32161   3.909   7.228  10.144 -0.2369 -1.4611 -1.0889
  979MOL0     H32162   4.054   7.277  10.072 -0.0581 -1.8707  2.5783
  979MOL0     H32163   3.989   7.013   9.762 -0.6599 -1.7667  1.0294
  979MOL0     H32164   3.301   7.370   9.961  1.5919 -0.8912  0.4529
  979MOL0     H32165   3.107   7.502  10.008 -0.2314 -0.5847  0.3616
  980MOL0     O32166   4.974   6.965   0.943 -0.4090 -0.1204 -0.2559
  980MOL0     C32167   5.046   6.910   0.862  0.3579 -0.7469  0.1138
  980MOL0     O32168   5.149   6.970   0.789 -0.0987 -0.7349 -0.5694
  980MOL0     C32169   5.205   7.092   0.827 -0.2954 -0.4998 -0.0003
  980MOL0     C32170   5.180   7.169   0.944  0.6943  0.3231  0.5285
  980MOL0     C32171   5.236   7.299   0.962 -0.3632 -0.2731 -0.5043
  980MOL0     C32172   5.338   7.346   0.884 -0.0195 -0.3658  0.2115
  980MOL0     O32173   5.405   7.463   0.908  0.3669  0.4897  0.1788
  980MOL0     C32174   5.342   7.580   0.958  0.3616 -0.5208  0.8313
  980MOL0     C32175   5.453   7.673   1.015  0.2758 -1.2082 -0.3875
  980MOL0     C32176   5.466   7.810   0.952 -0.7580 -0.5276  0.1972
  980MOL0     C32177   5.355   7.906   0.969  0.3064 -0.1571  0.7126
  980MOL0     C32178   5.388   8.045   0.915  0.7412  0.5513 -0.3231
  980MOL0     C32179   5.266   8.141   0.937  0.5987 -0.6225  0.3077
  980MOL0     C32180   5.254   8.186   1.085 -0.0328 -0.0473 -0.0420
  980MOL0     C32181   5.134   8.278   1.109  0.5339  0.5547  0.5613
  980MOL0     N32182   5.106   8.304   1.246 -0.0286 -0.8422 -0.0158
  980MOL0     C32183   5.007   8.243   1.318  0.1315 -1.4042 -0.0491
  980MOL0     C32184   5.028   8.301   1.439 -0.3194 -0.4063 -0.0226
  980MOL0     C32185   4.951   8.271   1.560  0.1938  0.1925 -0.0314
  980MOL0     C32186   4.804   8.238   1.546 -0.0443 -0.3819 -0.1893
  980MOL0     C32187   4.706   8.341   1.488 -0.3198  0.7362 -0.1040
  980MOL0     C32188   4.556   8.308   1.503 -0.4476 -0.6954 -0.1113
  980MOL0     O32189   4.512   8.187   1.453 -0.6224 -0.2151  0.4177
  980MOL0     C32190   4.377   8.166   1.428  0.4820  0.2157 -0.3858
  980MOL0     C32191   4.279   8.254   1.475 -0.0918 -0.0281 -0.5413
  980MOL0     C32192   4.143   8.224   1.444 -0.5926  0.7333 -0.9055
  980MOL0     C32193   4.034   8.312   1.499 -0.1079 -0.0432 -0.3237
  980MOL0     C32194   4.106   8.105   1.369 -0.5792  0.1140 -0.2185
  980MOL0     C32195   3.966   8.072   1.360 -1.3185  0.2049 -0.4992
  980MOL0     O32196   3.880   8.171   1.305 -0.1019  0.2629  1.1294
  980MOL0     C32197   3.746   8.147   1.288 -0.7257 -0.1292 -0.9303
  980MOL0     C32198   3.688   8.134   1.167  0.4575 -0.0035  0.7475
  980MOL0     C32199   3.553   8.097   1.150 -0.7523 -0.1591  0.3119
  980MOL0     C32200   3.480   8.071   1.262  0.0770 -0.3967 -0.4323
  980MOL0     O32201   3.343   8.032   1.259  0.0273  0.3402  0.2645
  980MOL0     C32202   3.285   7.970   1.140 -0.6029 -0.0349 -0.2230
  980MOL0     C32203   3.158   7.910   1.171  0.4233  0.4712  0.4976
  980MOL0     C32204   3.172   7.792   1.262  0.3209 -0.0914 -0.0031
  980MOL0     C32205   3.043   7.711   1.269 -0.0823  0.2959  1.0163
  980MOL0     C32206   3.054   7.582   1.354 -0.9268 -0.2761  0.8737
  980MOL0     C32207   2.928   7.500   1.339  0.2604 -0.3889  0.5429
  980MOL0     C32208   2.948   7.371   1.414  0.0867  0.0029  0.6594
  980MOL0     C32209   2.825   7.283   1.398  0.3234  0.8568  0.0636
  980MOL0    Cl32210   2.845   7.108   1.450 -0.3104  0.2673 -0.0988
  980MOL0     C32211   3.546   8.071   1.388 -0.5940  0.3703  0.0422
  980MOL0     C32212   3.677   8.105   1.402 -0.3612 -0.5220 -0.1120
  980MOL0     O32213   3.939   7.953   1.374  0.0718 -0.5801  0.0888
  980MOL0     C32214   4.217   8.021   1.319  0.5740  0.3818  0.1222
  980MOL0     C32215   4.348   8.055   1.352  0.3449  0.5036  0.3572
  980MOL0     N32216   5.126   8.402   1.441  0.0398  0.3576 -0.0262
  980MOL0     N32217   5.179   8.392   1.321  0.3609  0.7277 -0.4984
  980MOL0     C32218   5.371   7.274   0.772 -0.1023  0.0091  0.2671
  980MOL0     C32219   5.308   7.151   0.745  0.3366 -0.4692 -0.5031
  980MOL0     C32220   5.019   6.774   0.827 -0.0500  0.6122  1.1053
  980MOL0     C32221   5.103   6.704   0.743 -0.5087  0.4597  0.0105
  980MOL0     C32222   5.064   6.573   0.692 -0.0295 -0.0957  0.0750
  980MOL0     C32223   4.942   6.516   0.743 -0.3561 -0.7771  0.8135
  980MOL0     O32224   4.908   6.393   0.705  0.2755 -0.3700 -0.2980
  980MOL0     C32225   4.966   6.324   0.596  0.4070 -0.1509  0.8120
  980MOL0     C32226   4.885   6.194   0.585  0.4992 -0.3550  1.1073
  980MOL0     C32227   4.897   6.084   0.700 -0.3532  0.4270 -0.6985
  980MOL0     C32228   4.803   6.108   0.824 -1.2861 -0.6193  0.3057
  980MOL0     C32229   4.809   5.998   0.914 -0.3663  0.9656 -0.5327
  980MOL0     C32230   4.796   5.900   0.984 -0.3405 -0.1182 -0.1810
  980MOL0     C32231   4.862   6.582   0.830 -0.0124 -0.9117  0.0127
  980MOL0     C32232   4.905   6.705   0.879 -0.2621 -0.3907 -0.2073
  980MOL0     H32233   5.108   7.143   1.021 -0.0903  0.1164 -0.2575
  980MOL0     H32234   5.205   7.354   1.050 -0.9882 -1.1884 -0.1333
  980MOL0     H32235   5.296   7.638   0.877  2.6599  0.2590 -0.0140
  980MOL0     H32236   5.264   7.560   1.032 -2.0854 -0.7186 -1.6637
  980MOL0     H32237   5.425   7.693   1.119  1.9553 -0.6746 -0.0167
  980MOL0     H32238   5.552   7.628   1.008  0.4904 -0.7393 -0.3900
  980MOL0     H32239   5.560   7.851   0.991  0.8180 -1.1908 -2.6753
  980MOL0     H32240   5.479   7.810   0.844 -0.0916 -0.1676  0.2680
  980MOL0     H32241   5.271   7.874   0.908 -1.1117  4.1620  0.0643
  980MOL0     H32242   5.317   7.901   1.072 -0.1725  2.5624  0.7349
  980MOL0     H32243   5.482   8.087   0.953  1.4900  3.0652 -4.3777
  980MOL0     H32244   5.406   8.034   0.808 -0.0357  2.4527 -0.6935
  980MOL0     H32245   5.286   8.229   0.877  0.9719 -0.0451  1.2527
  980MOL0     H32246   5.175   8.096   0.897  2.7067 -1.4925 -4.0102
  980MOL0     H32247   5.257   8.096   1.149  4.2749  0.1252  0.2441
  980MOL0     H32248   5.344   8.233   1.124  0.2105  0.5420 -1.2894
  980MOL0     H32249   5.044   8.228   1.071 -1.1970 -0.8956  5.7256
  980MOL0     H32250   5.155   8.371   1.056  0.2652  0.5732  0.4882
  980MOL0     H32251   4.936   8.165   1.295 -1.8072 -0.3997  2.0911
  980MOL0     H32252   4.994   8.180   1.605  0.7940  1.1620  1.4250
  980MOL0     H32253   4.963   8.350   1.634  1.0544  1.0161 -1.0109
  980MOL0     H32254   4.765   8.225   1.647 -1.1722  0.4193 -0.4963
  980MOL0     H32255   4.780   8.141   1.501 -2.2600 -0.0881  0.2281
  980MOL0     H32256   4.716   8.345   1.379 -0.9900  1.5482 -0.1449
  980MOL0     H32257   4.722   8.441   1.528  0.2046  0.6966 -0.2041
  980MOL0     H32258   4.502   8.395   1.462 -0.5585 -0.4199  0.6064
  980MOL0     H32259   4.535   8.313   1.610  0.2813  2.2896 -0.0028
  980MOL0     H32260   4.297   8.335   1.545 -0.2439 -1.1241  0.8106
  980MOL0     H32261   3.961   8.270   1.569 -0.2185  1.6796  0.6407
  980MOL0     H32262   4.081   8.395   1.553  2.3534 -2.1144  0.9026
  980MOL0     H32263   3.978   8.353   1.413  1.0465 -1.6364 -1.8986
  980MOL0     H32264   3.746   8.145   1.076 -0.2898 -0.8670  0.1421
  980MOL0     H32265   3.503   8.093   1.054  2.0084 -1.7065 -1.1856
  980MOL0     H32266   3.275   8.044   1.059 -0.5930 -2.9600 -3.1197
  980MOL0     H32267   3.346   7.890   1.096 -1.3331 -1.4094  1.1906
  980MOL0     H32268   3.098   7.986   1.222 -1.0405 -1.3185  1.5562
  980MOL0     H32269   3.112   7.890   1.074  0.2881  1.6330  0.3079
  980MOL0     H32270   3.200   7.830   1.361  0.8049  0.0972 -0.2071
  980MOL0     H32271   3.253   7.725   1.230  1.5164  0.1993  2.1627
  980MOL0     H32272   2.957   7.769   1.305 -1.1566 -0.0889 -0.8065
  980MOL0     H32273   3.025   7.687   1.164 -0.7165 -1.7173  1.5438
  980MOL0     H32274   3.071   7.599   1.461  0.3404 -0.8577  0.7877
  980MOL0     H32275   3.142   7.527   1.320 -0.0037  2.5826 -1.8912
  980MOL0     H32276   2.833   7.539   1.376 -2.9072 -3.9241 -2.8675
  980MOL0     H32277   2.910   7.465   1.237 -1.8259  6.4679 -1.9923
  980MOL0     H32278   2.960   7.395   1.520  1.3622  0.9818  0.3269
  980MOL0     H32279   3.034   7.315   1.376  1.0335  0.7504  1.6403
  980MOL0     H32280   2.798   7.283   1.292  1.2719 -0.6826 -0.2107
  980MOL0     H32281   2.744   7.324   1.459 -0.7438  0.3635 -0.9760
  980MOL0     H32282   3.489   8.064   1.481 -0.1045 -1.6573  0.2375
  980MOL0     H32283   3.712   8.115   1.504 -0.4475 -0.5763 -0.0766
  980MOL0     H32284   4.185   7.928   1.273  3.3675  0.4956 -2.3370
  980MOL0     H32285   4.428   7.990   1.317  1.0258  0.9400  1.0755
  980MOL0     H32286   5.447   7.311   0.705  1.2263  0.4183  1.9263
  980MOL0     H32287   5.341   7.095   0.658  1.1880 -1.3435  0.3598
  980MOL0     H32288   5.201   6.735   0.709 -1.0193  1.4227 -0.6291
  980MOL0     H32289   5.121   6.529   0.611  0.4845  2.1911 -0.8804
  980MOL0     H32290   4.956   6.380   0.502  4.4894  0.4049  0.5215
  980MOL0     H32291   5.074   6.313   0.606  0.4602  1.0150  1.7461
  980MOL0     H32292   4.912   6.145   0.491 -2.1160 -0.3286  0.2675
  980MOL0     H32293   4.781   6.227   0.595  0.4675  0.9738 -2.3433
  980MOL0     H32294   4.999   6.079   0.738 -1.0344 -1.2914  1.0896
  980MOL0     H32295   4.875   5.984   0.661 -1.4630  0.2918  0.2326
  980MOL0     H32296   4.701   6.124   0.787 -1.1815  0.3789  0.4324
  980MOL0     H32297   4.839   6.196   0.877  1.4893  1.0553 -3.8295
  980MOL0     H32298   4.781   5.815   1.048 -1.0692  2.0550  2.7650
  980MOL0     H32299   4.780   6.530   0.879  1.0698  0.6773  3.8674
  980MOL0     H32300   4.857   6.751   0.964  1.5794  1.3130 -0.0206
  981MOL0     O32301   7.113   7.208   7.192 -0.0250 -0.2383  0.3364
  981MOL0     C32302   7.038   7.307   7.174  0.0272 -0.0314 -0.0332
  981MOL0     O32303   7.017   7.367   7.062 -0.4309 -0.0419  0.3218
  981MOL0     C32304   7.034   7.296   6.942 -0.8894 -0.4547  0.1268
  981MOL0     C32305   7.146   7.321   6.856 -0.2502  0.7312 -0.8705
  981MOL0     C32306   7.176   7.237   6.751  1.1703  0.1916  0.5825
  981MOL0     C32307   7.084   7.144   6.705  0.2702  0.1556 -0.7021
  981MOL0     O32308   7.095   7.050   6.606  0.0228  0.3229  0.0138
  981MOL0     C32309   7.147   7.117   6.481 -0.5658  0.1246 -0.4930
  981MOL0     C32310   7.121   7.034   6.355 -0.1121 -0.0868 -0.2705
  981MOL0     C32311   7.179   6.892   6.368 -0.4511  0.0957 -0.0512
  981MOL0     C32312   7.142   6.818   6.232 -0.0794  0.2550  0.3406
  981MOL0     C32313   7.165   6.661   6.253  0.2296 -0.9367 -0.0704
  981MOL0     C32314   7.132   6.583   6.130  0.4823 -0.7239  0.3295
  981MOL0     C32315   7.201   6.450   6.138 -0.1412  0.4615 -0.8332
  981MOL0     C32316   7.152   6.352   6.030  0.1864 -1.0279 -0.1414
  981MOL0     N32317   7.212   6.386   5.904  0.1773 -0.9230 -0.7842
  981MOL0     C32318   7.149   6.405   5.785 -0.1814 -1.1131  0.8438
  981MOL0     C32319   7.247   6.426   5.696  0.4842 -0.8292 -0.3852
  981MOL0     C32320   7.212   6.460   5.550 -0.1796 -1.2147  0.0543
  981MOL0     C32321   7.139   6.596   5.533  0.2612 -0.6497  0.4926
  981MOL0     C32322   7.128   6.627   5.380 -0.1008 -0.2812 -0.5148
  981MOL0     C32323   7.086   6.773   5.356 -0.9314 -0.9343  0.1209
  981MOL0     O32324   6.961   6.802   5.425 -0.0953  0.6819 -0.4961
  981MOL0     C32325   6.843   6.757   5.374  0.1975  0.2978  0.3022
  981MOL0     C32326   6.818   6.729   5.242 -0.2168 -0.8879  0.9554
  981MOL0     C32327   6.698   6.685   5.198  1.1206  0.5073  0.1879
  981MOL0     C32328   6.673   6.671   5.056  0.3598 -0.0329 -0.5775
  981MOL0     C32329   6.598   6.647   5.293  0.5247 -0.9895  0.9836
  981MOL0     C32330   6.460   6.592   5.271 -0.3577  0.6238 -0.2147
  981MOL0     O32331   6.389   6.564   5.385 -0.6898 -0.8883  0.2875
  981MOL0     C32332   6.270   6.502   5.393 -0.6335 -0.3192  0.1789
  981MOL0     C32333   6.196   6.542   5.504  0.0605 -0.3343  0.2043
  981MOL0     C32334   6.069   6.505   5.539  0.3257  0.3512 -0.5536
  981MOL0     C32335   6.010   6.419   5.448 -1.1612  0.2930 -0.0214
  981MOL0     O32336   5.880   6.376   5.473  0.3070 -0.2107  0.8491
  981MOL0     C32337   5.818   6.393   5.601 -1.0404 -0.2789  0.5216
  981MOL0     C32338   5.676   6.324   5.593  0.1526  0.1685 -1.4912
  981MOL0     C32339   5.695   6.171   5.601  0.3417  0.4678 -0.7867
  981MOL0     C32340   5.572   6.103   5.550  0.3608  0.3218 -0.3197
  981MOL0     C32341   5.564   5.956   5.603  0.1444  0.2122 -0.5492
  981MOL0     C32342   5.444   5.891   5.542  0.2087  0.3172 -0.6656
  981MOL0     C32343   5.416   5.760   5.612 -0.5005 -0.0706  0.5122
  981MOL0     C32344   5.323   5.661   5.531 -0.3053 -0.1867  1.1443
  981MOL0    Cl32345   5.147   5.717   5.535  0.0357 -0.0583 -0.5277
  981MOL0     C32346   6.069   6.373   5.332  0.3009 -0.4969 -0.1412
  981MOL0     C32347   6.203   6.419   5.305  0.2122 -0.8759 -0.2797
  981MOL0     O32348   6.423   6.568   5.153  0.1622  0.7847 -0.1790
  981MOL0     C32349   6.629   6.676   5.427  0.3204 -0.1078  0.1530
  981MOL0     C32350   6.745   6.729   5.465 -0.0195  0.3661  0.5947
  981MOL0     N32351   7.372   6.417   5.764 -0.3658 -0.8429  0.8418
  981MOL0     N32352   7.348   6.395   5.888  0.2790 -0.7150 -0.0380
  981MOL0     C32353   6.960   7.143   6.770 -0.2766 -1.0771 -0.1153
  981MOL0     C32354   6.937   7.214   6.891 -0.6524  0.3644  0.2919
  981MOL0     C32355   6.992   7.383   7.293  0.6445 -0.8169  0.2762
  981MOL0     C32356   6.883   7.469   7.284  0.6101  0.9093 -0.2237
  981MOL0     C32357   6.832   7.535   7.398 -0.1489 -1.0259 -0.3754
  981MOL0     C32358   6.895   7.526   7.526  0.0276 -0.2982  0.0182
  981MOL0     O32359   6.843   7.587   7.636  1.0844  0.1485 -0.2513
  981MOL0     C32360   6.909   7.560   7.758  0.5950 -0.2721 -0.2317
  981MOL0     C32361   6.857   7.433   7.822  0.1413  0.3085  0.3964
  981MOL0     C32362   6.923   7.428   7.965  0.7372 -0.0738 -0.0106
  981MOL0     C32363   6.880   7.304   8.041 -0.2333  0.1213 -0.1501
  981MOL0     C32364   6.925   7.182   7.975 -0.4281 -0.6469  0.6255
  981MOL0     C32365   6.956   7.071   7.941 -0.0502  0.1906  0.1205
  981MOL0     C32366   7.006   7.446   7.527  0.0971  1.3770 -0.4778
  981MOL0     C32367   7.066   7.386   7.411  0.3084 -0.0389  0.8006
  981MOL0     H32368   7.230   7.387   6.871  0.2061 -0.0347  0.0844
  981MOL0     H32369   7.274   7.255   6.706  2.0172 -0.1231  2.2235
  981MOL0     H32370   7.095   7.212   6.463  0.2577  0.6104 -0.3386
  981MOL0     H32371   7.255   7.127   6.495 -0.4254 -1.5046 -0.2585
  981MOL0     H32372   7.012   7.026   6.361 -0.0932  0.8376  3.8492
  981MOL0     H32373   7.156   7.089   6.267 -0.1453  0.9891  0.3798
  981MOL0     H32374   7.288   6.878   6.371 -0.5623 -1.9076 -2.2953
  981MOL0     H32375   7.136   6.849   6.458  0.0192  1.8041  1.0394
  981MOL0     H32376   7.040   6.831   6.196  0.0713  2.6400  0.6364
  981MOL0     H32377   7.207   6.855   6.152  2.1921 -2.6680  0.6475
  981MOL0     H32378   7.273   6.648   6.267  0.3214 -1.6450 -1.2782
  981MOL0     H32379   7.102   6.646   6.341  0.1529  2.1100  0.4977
  981MOL0     H32380   7.023   6.586   6.132  0.4684  2.9579  1.3297
  981MOL0     H32381   7.166   6.645   6.046 -0.5553 -0.0537  0.3796
  981MOL0     H32382   7.310   6.449   6.142  0.1886 -3.7700 -3.7446
  981MOL0     H32383   7.170   6.404   6.232  1.0757  0.0756 -0.5988
  981MOL0     H32384   7.044   6.340   6.019 -0.2348 -1.3213  3.1085
  981MOL0     H32385   7.194   6.256   6.063  0.9940  0.0203  2.0856
  981MOL0     H32386   7.045   6.414   5.754  0.3038 -0.8662 -0.7726
  981MOL0     H32387   7.304   6.456   5.491  1.9742 -1.1314  3.1227
  981MOL0     H32388   7.149   6.382   5.507 -1.8486  1.3447 -2.4883
  981MOL0     H32389   7.193   6.679   5.580 -1.7241  0.4630  0.9301
  981MOL0     H32390   7.042   6.603   5.583  1.2356  0.3767  2.3317
  981MOL0     H32391   7.045   6.562   5.351 -0.0809 -0.4506 -0.1990
  981MOL0     H32392   7.215   6.594   5.323 -0.2862 -1.1526 -0.3168
  981MOL0     H32393   7.074   6.808   5.253  0.2876  0.5566  0.4388
  981MOL0     H32394   7.171   6.835   5.387 -1.3489  0.7297 -1.8077
  981MOL0     H32395   6.891   6.743   5.162 -0.5126 -3.6798  0.1135
  981MOL0     H32396   6.579   6.722   5.034  1.2615  2.3996  0.8314
  981MOL0     H32397   6.746   6.722   4.991  1.2776 -0.0794  0.3845
  981MOL0     H32398   6.653   6.566   5.036 -2.5463 -0.9966  5.3595
  981MOL0     H32399   6.258   6.601   5.571  0.6323  1.4460 -1.7807
  981MOL0     H32400   6.028   6.534   5.635  2.1653 -1.1979  0.7817
  981MOL0     H32401   5.876   6.354   5.685  0.3114  0.5549  0.0106
  981MOL0     H32402   5.815   6.502   5.612  3.0616  0.3341 -2.4460
  981MOL0     H32403   5.624   6.371   5.677  1.6790  0.6297 -0.7578
  981MOL0     H32404   5.631   6.344   5.496 -0.8745  3.1062 -0.5185
  981MOL0     H32405   5.706   6.137   5.704  0.8493  0.9275 -0.6832
  981MOL0     H32406   5.785   6.139   5.548  0.2854  1.2284 -1.3559
  981MOL0     H32407   5.488   6.160   5.591  0.8544 -0.5929  2.1641
  981MOL0     H32408   5.569   6.106   5.441 -1.7124  0.3749 -0.3072
  981MOL0     H32409   5.541   5.939   5.708  0.3711 -0.9493 -0.6753
  981MOL0     H32410   5.665   5.919   5.586  1.4513  2.9481  0.5885
  981MOL0     H32411   5.357   5.957   5.539  0.1851  0.2530 -1.5764
  981MOL0     H32412   5.473   5.863   5.441  0.6867  0.5770 -0.6049
  981MOL0     H32413   5.385   5.778   5.716 -0.0428  0.8796  0.4958
  981MOL0     H32414   5.513   5.709   5.619 -1.3434 -2.0934 -1.4448
  981MOL0     H32415   5.328   5.559   5.570 -0.3547 -0.6010  0.0923
  981MOL0     H32416   5.352   5.659   5.425  0.0979 -0.8018  1.2613
  981MOL0     H32417   6.027   6.307   5.256 -2.1163  0.0597  0.6289
  981MOL0     H32418   6.254   6.374   5.220  0.7360 -1.6387  0.4235
  981MOL0     H32419   6.559   6.648   5.505 -2.7981  2.6963 -1.3646
  981MOL0     H32420   6.756   6.758   5.569 -0.0104  1.7493  0.2287
  981MOL0     H32421   6.873   7.091   6.731 -0.8334  0.6692 -1.3519
  981MOL0     H32422   6.840   7.191   6.936 -0.9631  0.0150 -0.5375
  981MOL0     H32423   6.824   7.479   7.193 -0.1778  0.8388  0.2669
  981MOL0     H32424   6.738   7.589   7.401  0.3717 -0.1276  0.0949
  981MOL0     H32425   7.018   7.570   7.757  0.6914 -1.1233  0.4551
  981MOL0     H32426   6.867   7.635   7.825  1.4429 -0.7300  0.8382
  981MOL0     H32427   6.869   7.339   7.768 -4.1479 -0.0929 -0.2845
  981MOL0     H32428   6.748   7.443   7.831  0.0015 -0.5492 -0.2860
  981MOL0     H32429   6.894   7.520   8.016  1.2637  0.4436 -0.6192
  981MOL0     H32430   7.032   7.422   7.959  0.7790 -0.7857  1.2983
  981MOL0     H32431   6.771   7.294   8.042 -0.1788 -1.7743 -2.5295
  981MOL0     H32432   6.931   7.301   8.138 -0.9796  2.5527  0.3869
  981MOL0     H32433   6.983   6.976   7.900  0.9414 -0.4884  2.2007
  981MOL0     H32434   7.068   7.423   7.613  0.3775 -0.7884 -1.1875
  981MOL0     H32435   7.159   7.332   7.423  1.4176  2.2910  4.1195
  982MOL0     O32436   8.114   5.175   9.969 -0.4412  0.2324 -0.2933
  982MOL0     C32437   8.105   5.256   9.877 -0.5174 -0.2397 -1.0680
  982MOL0     O32438   7.996   5.284   9.803  0.0789  0.6175 -0.2396
  982MOL0     C32439   7.874   5.223   9.822  0.3449 -0.1436  0.3855
  982MOL0     C32440   7.788   5.205   9.715  0.1397  0.2761  1.1321
  982MOL0     C32441   7.655   5.166   9.729  0.5766 -0.4064 -0.6037
  982MOL0     C32442   7.598   5.158   9.855  0.5656  0.1483 -0.3723
  982MOL0     O32443   7.468   5.124   9.857  0.8776  0.1535  0.0531
  982MOL0     C32444   7.403   5.089   9.979  0.1733  1.0775  0.1952
  982MOL0     C32445   7.414   4.928   9.998 -0.2992 -0.6669 -0.7102
  982MOL0     C32446   7.421   4.850   9.863 -0.3900  1.3997 -0.2325
  982MOL0     C32447   7.284   4.843   9.795  0.3764  0.0565  0.7234
  982MOL0     C32448   7.270   4.753   9.664  0.1339  0.3076  0.1383
  982MOL0     C32449   7.140   4.764   9.576  0.5514  0.2007  0.2138
  982MOL0     C32450   7.149   4.691   9.443 -0.6975 -0.4265 -0.3879
  982MOL0     C32451   7.026   4.726   9.356  0.4601 -0.1808  0.5876
  982MOL0     N32452   6.894   4.684   9.409 -0.0081 -0.5119 -0.3146
  982MOL0     C32453   6.860   4.560   9.454  0.1591 -0.3916 -0.6250
  982MOL0     C32454   6.738   4.577   9.501  0.5078  0.8002  0.2403
  982MOL0     C32455   6.651   4.454   9.536 -0.2186 -0.0375  0.0759
  982MOL0     C32456   6.580   4.376   9.417 -0.5273  0.0469 -0.3533
  982MOL0     C32457   6.428   4.340   9.437 -1.1559 -1.3234 -0.4414
  982MOL0     C32458   6.398   4.248   9.550  0.5411  0.3187 -0.2953
  982MOL0     O32459   6.274   4.298   9.594  0.4627  0.3762 -0.8198
  982MOL0     C32460   6.160   4.231   9.557  0.4215 -0.8123  0.0031
  982MOL0     C32461   6.144   4.091   9.574 -0.4718 -0.1079 -0.2461
  982MOL0     C32462   6.021   4.034   9.530  0.9935  0.6579  0.4630
  982MOL0     C32463   6.000   3.882   9.563  0.3817  0.2161 -0.1172
  982MOL0     C32464   5.917   4.114   9.472  1.3107  0.3472 -0.4911
  982MOL0     C32465   5.784   4.057   9.434  0.2287  0.0629 -0.1833
  982MOL0     O32466   5.696   4.152   9.402 -0.0581 -0.1209 -0.3453
  982MOL0     C32467   5.572   4.121   9.348  0.0370  1.2263  0.2764
  982MOL0     C32468   5.547   4.015   9.252  0.6400  0.0522 -0.2140
  982MOL0     C32469   5.428   4.011   9.180  0.0380 -0.3451  0.1814
  982MOL0     C32470   5.329   4.110   9.213 -0.2374 -0.0241  0.7923
  982MOL0     O32471   5.217   4.115   9.142  0.3349  0.3172  0.2894
  982MOL0     C32472   5.147   3.987   9.110  0.3072 -0.6399 -0.3205
  982MOL0     C32473   5.071   3.919   9.231  0.7963  0.0992  0.4355
  982MOL0     C32474   4.945   4.007   9.256 -0.1039  0.0138 -0.7453
  982MOL0     C32475   4.862   3.963   9.374  1.3084  0.2194 -0.2774
  982MOL0     C32476   4.739   4.052   9.384  0.6240 -0.5937 -0.0684
  982MOL0     C32477   4.627   4.009   9.291 -0.4299 -0.4790 -0.1336
  982MOL0     C32478   4.480   4.041   9.328  0.3339  0.0068  0.7502
  982MOL0     C32479   4.447   4.193   9.316  0.4220  0.3542  0.0240
  982MOL0    Cl32480   4.263   4.213   9.268 -0.2384  0.2667  0.4041
  982MOL0     C32481   5.356   4.202   9.311  0.1974  0.6196  0.1195
  982MOL0     C32482   5.477   4.206   9.383  0.6211  0.2897  0.8890
  982MOL0     O32483   5.764   3.934   9.415  0.4549 -0.2540 -0.6943
  982MOL0     C32484   5.940   4.255   9.449  0.1412  0.7344 -0.0949
  982MOL0     C32485   6.063   4.311   9.485 -0.0784  0.2480 -0.6018
  982MOL0     N32486   6.696   4.704   9.489 -0.1456  0.4189  0.4998
  982MOL0     N32487   6.791   4.767   9.434  0.5432  0.4088 -0.2136
  982MOL0     C32488   7.682   5.180   9.966 -0.2987 -0.1403  0.5801
  982MOL0     C32489   7.819   5.205   9.948 -0.4094  0.4285  0.3094
  982MOL0     C32490   8.227   5.328   9.847  0.1747 -0.7630  0.0260
  982MOL0     C32491   8.231   5.413   9.737  0.6561 -0.2228 -0.8209
  982MOL0     C32492   8.336   5.499   9.723 -0.9375  0.7861  0.0359
  982MOL0     C32493   8.451   5.499   9.805 -0.0655  0.7272 -0.7574
  982MOL0     O32494   8.548   5.599   9.793 -0.5457  0.8014  0.1724
  982MOL0     C32495   8.686   5.578   9.838 -0.1160 -0.2212  1.1789
  982MOL0     C32496   8.771   5.707   9.809 -0.5772 -0.1881 -1.8570
  982MOL0     C32497   8.764   5.748   9.661  0.6626  0.3515  0.4250
  982MOL0     C32498   8.855   5.866   9.615 -1.0748 -0.3482  0.2193
  982MOL0     C32499   8.832   5.994   9.689  0.9572  0.4847  0.0567
  982MOL0     C32500   8.798   6.099   9.741  1.3581  0.4137  0.0450
  982MOL0     C32501   8.448   5.405   9.915 -0.0605 -0.9910  0.7542
  982MOL0     C32502   8.334   5.325   9.944  0.0828  0.1858  0.3258
  982MOL0     H32503   7.821   5.228   9.614  1.6506 -1.0421  1.2938
  982MOL0     H32504   7.591   5.153   9.642 -1.4799  1.1749  0.5718
  982MOL0     H32505   7.435   5.151  10.064 -1.8172  1.2396  0.8676
  982MOL0     H32506   7.295   5.106   9.972 -0.4738 -2.1684  0.5012
  982MOL0     H32507   7.500   4.923  10.065  0.2892  1.1271 -1.2692
  982MOL0     H32508   7.328   4.894  10.056  1.3791 -6.0484 -0.7946
  982MOL0     H32509   7.501   4.881   9.795 -0.7892 -0.7389 -1.8149
  982MOL0     H32510   7.434   4.746   9.894 -3.0915  1.2515  0.6652
  982MOL0     H32511   7.213   4.808   9.871 -1.0122 -0.7759 -0.8805
  982MOL0     H32512   7.261   4.946   9.765 -0.1356 -0.7613 -1.9582
  982MOL0     H32513   7.344   4.788   9.592 -2.5698  3.1203 -1.5492
  982MOL0     H32514   7.286   4.649   9.693  0.3591 -0.3465 -2.1608
  982MOL0     H32515   7.055   4.726   9.632 -1.4211  3.0687 -0.5790
  982MOL0     H32516   7.113   4.869   9.562  0.6909  0.6080  2.6335
  982MOL0     H32517   7.238   4.722   9.386 -1.4021  2.5579 -0.0095
  982MOL0     H32518   7.150   4.583   9.460 -0.1080 -0.5475 -1.0932
  982MOL0     H32519   7.018   4.680   9.257 -1.5569 -2.6717  1.7826
  982MOL0     H32520   7.022   4.829   9.320 -0.6376 -0.5886 -0.5376
  982MOL0     H32521   6.918   4.468   9.449  1.2638  0.2410 -0.0623
  982MOL0     H32522   6.730   4.394   9.581  1.3373  2.4539  0.9177
  982MOL0     H32523   6.574   4.480   9.609 -0.3107  1.3786 -0.4852
  982MOL0     H32524   6.628   4.278   9.410 -1.4348 -0.3453 -1.4734
  982MOL0     H32525   6.602   4.433   9.326  3.4510  2.1661  1.6708
  982MOL0     H32526   6.386   4.296   9.346  1.3484 -0.4232 -2.1591
  982MOL0     H32527   6.372   4.433   9.446 -0.0655 -0.6372 -0.5244
  982MOL0     H32528   6.473   4.264   9.628 -1.0514  3.1462  0.8044
  982MOL0     H32529   6.401   4.143   9.519 -1.6775  1.2302 -4.2514
  982MOL0     H32530   6.214   4.029   9.628 -1.2211 -1.6334 -0.9614
  982MOL0     H32531   5.919   3.855   9.631  1.1471 -0.3194  0.5933
  982MOL0     H32532   5.988   3.819   9.474 -1.0665 -1.5777  1.2749
  982MOL0     H32533   6.090   3.846   9.613  0.7022  0.9200 -0.1692
  982MOL0     H32534   5.625   3.951   9.212  2.1322  1.2989  0.5981
  982MOL0     H32535   5.418   3.934   9.104  1.2597  0.0582 -0.3914
  982MOL0     H32536   5.073   4.004   9.030 -1.1765 -0.0174  1.1197
  982MOL0     H32537   5.208   3.900   9.085 -1.0436 -1.3860 -1.1670
  982MOL0     H32538   5.040   3.819   9.198  0.7962  0.2039  0.1162
  982MOL0     H32539   5.132   3.910   9.322  1.9041 -1.6758 -0.4227
  982MOL0     H32540   4.883   4.000   9.166 -0.1382 -0.3313 -0.6980
  982MOL0     H32541   4.968   4.113   9.268  0.9921 -0.2027 -0.7863
  982MOL0     H32542   4.840   3.856   9.369 -0.6238  0.6438 -1.9316
  982MOL0     H32543   4.916   3.994   9.464 -0.3960  0.6143  0.6612
  982MOL0     H32544   4.766   4.158   9.389 -0.3421 -0.2287 -1.8456
  982MOL0     H32545   4.693   4.032   9.481 -4.2500  0.9894 -1.7347
  982MOL0     H32546   4.644   4.058   9.195 -3.9035 -3.6762 -2.6749
  982MOL0     H32547   4.636   3.900   9.285  1.1781 -0.4123  0.5602
  982MOL0     H32548   4.455   4.002   9.427  1.2645  0.2479  1.0923
  982MOL0     H32549   4.422   3.999   9.245  3.3885  1.4520 -2.3878
  982MOL0     H32550   4.505   4.236   9.234  3.0593  0.1984  1.7190
  982MOL0     H32551   4.459   4.245   9.411 -2.5568 -1.7509  1.7193
  982MOL0     H32552   5.274   4.271   9.328 -0.3472 -0.0125  0.1186
  982MOL0     H32553   5.490   4.293   9.447  0.2769  1.8429 -1.0569
  982MOL0     H32554   5.862   4.311   9.397 -1.5635 -1.6431 -0.2930
  982MOL0     H32555   6.081   4.415   9.462 -0.3393  0.5201  0.3751
  982MOL0     H32556   7.643   5.178  10.067 -2.4684 -0.8342 -0.2001
  982MOL0     H32557   7.885   5.210  10.034  1.3508 -1.7602 -0.8271
  982MOL0     H32558   8.151   5.410   9.664  0.3849 -0.7425 -0.5075
  982MOL0     H32559   8.333   5.573   9.644  2.7463 -0.2275 -1.2577
  982MOL0     H32560   8.689   5.551   9.944 -0.0996  0.1105  1.2655
  982MOL0     H32561   8.724   5.496   9.777 -1.1319  0.4763 -0.4606
  982MOL0     H32562   8.873   5.685   9.843 -0.3443  1.9541 -0.9622
  982MOL0     H32563   8.738   5.789   9.874 -1.6092 -2.4680  0.7001
  982MOL0     H32564   8.664   5.788   9.642  0.2600 -1.1342 -0.7661
  982MOL0     H32565   8.777   5.656   9.603 -4.5090 -1.2572  1.3730
  982MOL0     H32566   8.834   5.898   9.512 -0.0913  4.4573  1.2702
  982MOL0     H32567   8.960   5.838   9.626 -0.9091  0.3414  0.4509
  982MOL0     H32568   8.778   6.194   9.784 -2.5744  0.5400 -1.6356
  982MOL0     H32569   8.527   5.397   9.989  3.2900  1.4944 -2.2501
  982MOL0     H32570   8.337   5.256  10.027  2.7363  0.1575  0.2784
  983MOL0     O32571   2.590   7.664   5.159 -0.0548 -0.2316 -0.6544
  983MOL0     C32572   2.679   7.746   5.156 -0.3375  0.4868 -0.2211
  983MOL0     O32573   2.685   7.866   5.083  0.1186  0.5649  0.1482
  983MOL0     C32574   2.565   7.909   5.029 -0.6539 -0.0725 -0.4189
  983MOL0     C32575   2.548   7.878   4.899  0.6211  0.1236  0.0182
  983MOL0     C32576   2.434   7.926   4.827  0.5002  0.0294 -0.4757
  983MOL0     C32577   2.341   8.008   4.888  0.3175  0.5973 -0.2243
  983MOL0     O32578   2.236   8.047   4.814  0.1599 -0.2229  0.1678
  983MOL0     C32579   2.127   8.113   4.877 -0.1310 -1.1436 -1.2598
  983MOL0     C32580   2.027   8.151   4.767 -0.0336  0.4853  0.1668
  983MOL0     C32581   1.887   8.174   4.824 -0.9133  0.0253 -0.4624
  983MOL0     C32582   1.800   8.244   4.716  0.5077 -0.6088  0.5603
  983MOL0     C32583   1.656   8.250   4.750  0.5910  0.6144  0.3580
  983MOL0     C32584   1.564   8.307   4.642  0.3194 -0.5345 -0.3032
  983MOL0     C32585   1.426   8.353   4.706  0.5221 -0.5187  0.4375
  983MOL0     C32586   1.317   8.354   4.600  0.7453 -0.7575  0.6921
  983MOL0     N32587   1.187   8.405   4.636  0.2359 -1.2197 -0.1072
  983MOL0     C32588   1.094   8.430   4.541 -0.2225 -0.0147  0.0002
  983MOL0     C32589   0.989   8.471   4.607  0.5011 -0.0332 -0.9973
  983MOL0     C32590   0.858   8.522   4.547 -0.0840  0.1832  0.1542
  983MOL0     C32591   0.747   8.414   4.529 -0.1894 -0.4968  0.6653
  983MOL0     C32592   0.794   8.294   4.448 -0.4635  0.5025  0.6798
  983MOL0     C32593   0.778   8.306   4.298 -0.2033 -0.9386  0.5002
  983MOL0     O32594   0.637   8.305   4.275 -0.6050  0.7907 -0.0558
  983MOL0     C32595   0.593   8.280   4.144  0.6835  0.4123 -0.2695
  983MOL0     C32596   0.668   8.284   4.028 -0.1470  0.2829 -0.3990
  983MOL0     C32597   0.615   8.256   3.897 -0.5290  0.8062 -0.0958
  983MOL0     C32598   0.713   8.272   3.774  0.1089  0.5037 -0.4566
  983MOL0     C32599   0.481   8.221   3.889 -0.5889 -0.2128  0.0402
  983MOL0     C32600   0.408   8.194   3.764 -1.2070 -0.2776  0.4231
  983MOL0     O32601   0.279   8.177   3.785  0.6642  0.3110  0.0744
  983MOL0     C32602   0.197   8.131   3.681 -0.3638  0.5835 -0.3406
  983MOL0     C32603   0.227   8.009   3.627  0.3865  0.0214 -0.0613
  983MOL0     C32604   0.141   7.959   3.528 -0.1869  0.6452 -0.4611
  983MOL0     C32605   0.033   8.025   3.483 -0.0008 -0.5382  0.6797
  983MOL0     O32606  -0.039   7.958   3.383 -0.0839  0.2685  0.1456
  983MOL0     C32607  -0.137   8.026   3.306 -0.0384  1.0384  0.5315
  983MOL0     C32608  -0.065   8.096   3.191  0.7396 -0.0861  0.1737
  983MOL0     C32609   0.020   8.012   3.093  0.1058 -0.2580  0.0159
  983MOL0     C32610   0.160   8.056   3.065 -1.0253 -0.0734 -0.6331
  983MOL0     C32611   0.254   8.024   3.185 -0.3668 -0.0989  0.0674
  983MOL0     C32612   0.404   8.056   3.172  0.2372  0.1288 -0.0537
  983MOL0     C32613   0.481   7.990   3.289 -0.4988 -0.4039  0.4344
  983MOL0     C32614   0.629   7.992   3.267 -0.2870  0.3981 -0.7680
  983MOL0    Cl32615   0.707   7.954   3.422  0.0432 -0.3025 -0.0495
  983MOL0     C32616   0.005   8.153   3.530 -0.1435  0.1807 -0.1759
  983MOL0     C32617   0.087   8.206   3.634 -0.3887  0.0784 -0.0336
  983MOL0     O32618   0.461   8.178   3.658  0.1928  0.3106  1.1167
  983MOL0     C32619   0.404   8.221   4.011 -0.1674  0.9128  0.8543
  983MOL0     C32620   0.459   8.247   4.133 -0.0045  0.1388  0.0746
  983MOL0     N32621   1.010   8.449   4.737 -0.0465  0.3970  0.0294
  983MOL0     N32622   1.126   8.402   4.760  0.5354  0.5450  0.5932
  983MOL0     C32623   2.361   8.043   5.020 -0.0307  0.5235  0.2386
  983MOL0     C32624   2.476   7.995   5.091 -0.4493  0.4100  0.1013
  983MOL0     C32625   2.802   7.684   5.217 -1.1818  0.1894  0.1521
  983MOL0     C32626   2.845   7.557   5.184  0.5144  0.2924 -0.7377
  983MOL0     C32627   2.959   7.500   5.222  1.3070 -0.3915  0.1898
  983MOL0     C32628   3.054   7.575   5.299  0.1569 -0.4758  0.1507
  983MOL0     O32629   3.179   7.519   5.303 -0.1304 -0.3447 -0.1986
  983MOL0     C32630   3.288   7.604   5.258 -0.8458  0.6841  0.8219
  983MOL0     C32631   3.262   7.687   5.120  1.0038  0.0813  0.1841
  983MOL0     C32632   3.245   7.594   5.003  0.4817 -0.3224  0.5160
  983MOL0     C32633   3.239   7.684   4.870 -0.4665 -0.3068 -0.3680
  983MOL0     C32634   3.130   7.787   4.871 -1.1757  0.5818  0.2282
  983MOL0     C32635   3.041   7.862   4.858  1.0421 -0.0524  0.6737
  983MOL0     C32636   3.013   7.706   5.340  0.9074 -0.5877  0.2145
  983MOL0     C32637   2.890   7.760   5.297 -0.3027 -0.0043 -0.6247
  983MOL0     H32638   2.607   7.799   4.854 -0.6116 -0.5318 -0.5103
  983MOL0     H32639   2.417   7.897   4.724 -3.0496 -2.5127  0.6202
  983MOL0     H32640   2.070   8.052   4.947 -0.4528 -0.5601 -1.0155
  983MOL0     H32641   2.156   8.207   4.924 -2.9806 -0.1136 -1.3763
  983MOL0     H32642   2.063   8.244   4.722  3.5005 -0.7264  0.1815
  983MOL0     H32643   2.028   8.086   4.679 -0.1638  3.2236 -1.9544
  983MOL0     H32644   1.848   8.080   4.863  1.0269 -0.4376  0.4972
  983MOL0     H32645   1.887   8.231   4.918 -0.6047 -3.3380  1.7635
  983MOL0     H32646   1.841   8.344   4.697 -2.1866  1.5090  4.3450
  983MOL0     H32647   1.798   8.189   4.622  0.8350 -2.6141  1.6660
  983MOL0     H32648   1.643   8.142   4.766  4.6008  0.1803  2.0740
  983MOL0     H32649   1.641   8.307   4.842  1.0499  0.7130  0.3740
  983MOL0     H32650   1.620   8.388   4.595  1.7133 -0.4745  1.3488
  983MOL0     H32651   1.542   8.225   4.572  0.6519  0.4376 -1.5846
  983MOL0     H32652   1.396   8.289   4.789  0.8805  0.5770  1.4394
  983MOL0     H32653   1.436   8.459   4.733  3.1843  0.4651 -3.4692
  983MOL0     H32654   1.300   8.252   4.564  0.4910 -0.0833 -1.1910
  983MOL0     H32655   1.370   8.404   4.519 -0.0872 -0.1108  0.5336
  983MOL0     H32656   1.111   8.428   4.434  0.7126 -1.3375  0.1489
  983MOL0     H32657   0.821   8.604   4.609 -1.1240  2.2416 -2.9484
  983MOL0     H32658   0.890   8.578   4.458  1.6959 -2.2768 -0.8668
  983MOL0     H32659   0.651   8.447   4.488 -0.2527  0.3749  1.4729
  983MOL0     H32660   0.720   8.378   4.629  0.8802  1.5197  1.7485
  983MOL0     H32661   0.721   8.216   4.471 -0.4083 -0.4106 -1.9024
  983MOL0     H32662   0.890   8.252   4.481 -0.6894 -0.7924 -0.2224
  983MOL0     H32663   0.830   8.227   4.243  1.8318  0.3629  0.4558
  983MOL0     H32664   0.814   8.403   4.263 -1.5832 -0.5769  0.0139
  983MOL0     H32665   0.772   8.314   4.037 -0.0246  0.6813 -2.6230
  983MOL0     H32666   0.812   8.305   3.806 -1.0803  2.2108  1.7182
  983MOL0     H32667   0.718   8.184   3.709 -0.6376 -0.4326  0.7057
  983MOL0     H32668   0.677   8.352   3.709  0.6831  2.3627  1.4049
  983MOL0     H32669   0.314   7.953   3.659 -0.5221 -1.6500 -0.3786
  983MOL0     H32670   0.157   7.859   3.490  0.9349 -0.2684  2.1582
  983MOL0     H32671  -0.199   7.953   3.253  1.6075 -0.2280  0.2895
  983MOL0     H32672  -0.201   8.090   3.367 -0.7273  1.0068 -0.1448
  983MOL0     H32673  -0.135   8.153   3.129 -0.7191 -3.7524 -1.8332
  983MOL0     H32674   0.003   8.175   3.226  1.6413 -0.9113  0.3201
  983MOL0     H32675  -0.029   8.014   2.995  3.2703  0.9670 -1.6626
  983MOL0     H32676   0.012   7.906   3.117  0.9684 -1.6527 -4.8062
  983MOL0     H32677   0.202   8.015   2.973  0.3527 -0.8493  0.3044
  983MOL0     H32678   0.150   8.165   3.060  0.5184  0.2054  1.2077
  983MOL0     H32679   0.243   7.916   3.201 -0.4673  0.2515  3.0520
  983MOL0     H32680   0.215   8.066   3.278 -1.5691 -0.2742 -0.3412
  983MOL0     H32681   0.442   8.031   3.073  1.0109  0.2095  0.2141
  983MOL0     H32682   0.406   8.164   3.160 -0.3156 -0.2153 -5.7785
  983MOL0     H32683   0.448   7.886   3.300 -1.3367 -0.0328  1.5701
  983MOL0     H32684   0.454   8.050   3.376 -1.3931 -1.2821  0.7765
  983MOL0     H32685   0.676   8.083   3.228  2.8717  0.2691  2.3594
  983MOL0     H32686   0.649   7.905   3.204  1.4792 -1.3181  1.9943
  983MOL0     H32687  -0.084   8.203   3.495 -0.4193  1.4140  2.1300
  983MOL0     H32688   0.069   8.296   3.691 -0.8450  0.0539 -0.1372
  983MOL0     H32689   0.301   8.189   4.009 -1.0101  3.3585 -1.2300
  983MOL0     H32690   0.388   8.233   4.214 -0.7478  0.8998 -0.4355
  983MOL0     H32691   2.296   8.111   5.074 -0.2586  1.7581 -1.5331
  983MOL0     H32692   2.481   8.034   5.192 -2.1370  1.9992 -0.3793
  983MOL0     H32693   2.781   7.498   5.119 -3.1301  3.2533 -0.2110
  983MOL0     H32694   2.981   7.402   5.180  1.9946  0.4088 -1.3953
  983MOL0     H32695   3.315   7.670   5.341 -1.9096  1.5333  0.5181
  983MOL0     H32696   3.374   7.540   5.235 -1.8235  0.1318 -1.6477
  983MOL0     H32697   3.346   7.751   5.090 -1.8023  2.5056 -3.3771
  983MOL0     H32698   3.173   7.749   5.130  1.1215  0.1454  0.9128
  983MOL0     H32699   3.162   7.526   5.024  1.0443 -0.9753  0.6478
  983MOL0     H32700   3.329   7.525   4.991  0.9112  0.4134 -1.0809
  983MOL0     H32701   3.226   7.622   4.781 -0.0616 -0.3628 -0.3873
  983MOL0     H32702   3.332   7.740   4.861 -0.9619  0.2891 -2.2358
  983MOL0     H32703   2.960   7.930   4.841  0.0492 -1.3232  0.1755
  983MOL0     H32704   3.068   7.781   5.396 -0.0454  2.0448 -2.1250
  983MOL0     H32705   2.857   7.860   5.323 -0.9527 -0.9648  2.7824
  984MOL0     O32706   2.826   2.597   4.088  0.2331  0.8693  0.2392
  984MOL0     C32707   2.866   2.612   3.968  0.6790  0.4398 -0.3721
  984MOL0     O32708   2.786   2.593   3.857 -0.4178 -0.9990 -0.3029
  984MOL0     C32709   2.657   2.576   3.880  0.1515 -1.6758 -0.5166
  984MOL0     C32710   2.604   2.446   3.870 -1.1050 -0.5299 -0.2905
  984MOL0     C32711   2.469   2.428   3.908 -0.2027 -0.0020 -0.6037
  984MOL0     C32712   2.387   2.531   3.955 -0.7334 -0.5972  0.5955
  984MOL0     O32713   2.266   2.509   3.998  0.5486  1.0089 -0.0887
  984MOL0     C32714   2.153   2.594   3.983 -0.5083 -0.1887  0.7012
  984MOL0     C32715   2.168   2.711   4.076  0.2829 -0.1169 -0.6760
  984MOL0     C32716   2.029   2.754   4.147 -0.4207  0.1337  1.0067
  984MOL0     C32717   1.918   2.789   4.045  0.0511 -0.1981  0.3937
  984MOL0     C32718   1.815   2.884   4.102  0.1620 -0.4074  0.1880
  984MOL0     C32719   1.701   2.898   3.994  0.2311  0.0962 -0.8007
  984MOL0     C32720   1.593   2.786   3.991 -0.1123 -0.3555  1.0199
  984MOL0     C32721   1.473   2.805   3.898  1.1291 -0.4554 -0.1081
  984MOL0     N32722   1.403   2.927   3.932 -0.2168 -0.6246 -1.5256
  984MOL0     C32723   1.418   3.059   3.877 -0.1213  0.3362 -0.2700
  984MOL0     C32724   1.309   3.134   3.920 -0.6584  0.0424 -0.3984
  984MOL0     C32725   1.272   3.271   3.871  0.1695 -0.6459 -0.1785
  984MOL0     C32726   1.182   3.272   3.755  0.4073  0.5298 -0.6072
  984MOL0     C32727   1.037   3.317   3.784  0.0195  0.2208 -0.2049
  984MOL0     C32728   0.954   3.209   3.864 -0.1701  0.0238 -0.0997
  984MOL0     O32729   0.813   3.243   3.853  0.5691 -0.1172 -0.8112
  984MOL0     C32730   0.714   3.166   3.926 -0.3006  0.2177  0.7596
  984MOL0     C32731   0.724   3.033   3.969  0.1388  0.4446 -0.4103
  984MOL0     C32732   0.619   2.978   4.035 -1.1455  0.4702 -0.0433
  984MOL0     C32733   0.648   2.845   4.110  0.0148 -0.1639 -0.0959
  984MOL0     C32734   0.496   3.046   4.060  0.0395 -0.6081  0.3093
  984MOL0     C32735   0.375   2.989   4.119  0.3993  0.0348 -0.0623
  984MOL0     O32736   0.366   2.923   4.238 -0.3150 -0.1908 -0.3808
  984MOL0     C32737   0.245   2.911   4.301  0.3556  0.3973  0.6903
  984MOL0     C32738   0.227   2.966   4.429  0.2036  0.4999 -0.7999
  984MOL0     C32739   0.104   2.949   4.491 -0.3317  0.0075 -0.8401
  984MOL0     C32740  -0.002   2.875   4.441  0.8553 -0.0040  0.7837
  984MOL0     O32741  -0.096   2.848   4.538 -0.1714 -0.0625  0.0415
  984MOL0     C32742  -0.183   2.729   4.515  0.2350 -0.0948 -0.5460
  984MOL0     C32743  -0.293   2.729   4.615  1.6489 -0.2983  0.1013
  984MOL0     C32744  -0.425   2.731   4.542  0.5669  0.2764 -0.1437
  984MOL0     C32745  -0.543   2.781   4.640 -2.1576  0.2342  0.8189
  984MOL0     C32746  -0.679   2.752   4.575 -0.4208 -0.1606 -0.3988
  984MOL0     C32747  -0.717   2.839   4.459  0.6268  0.8861  0.1930
  984MOL0     C32748  -0.720   2.984   4.504 -0.8001 -0.5912  0.3664
  984MOL0     C32749  -0.843   3.034   4.593 -0.4508  0.2346 -0.1589
  984MOL0    Cl32750  -0.843   3.211   4.613 -0.8379  0.1327 -0.3878
  984MOL0     C32751   0.013   2.811   4.306  0.7403 -0.2119 -0.4098
  984MOL0     C32752   0.139   2.828   4.245 -0.1538 -0.1570  0.2240
  984MOL0     O32753   0.274   3.018   4.055  0.3995  0.5150 -0.1427
  984MOL0     C32754   0.488   3.170   4.015 -0.1065 -0.0071  0.2038
  984MOL0     C32755   0.590   3.233   3.940 -0.5877  0.8715 -0.4477
  984MOL0     N32756   1.229   3.052   4.005  0.1337 -0.1695 -0.6189
  984MOL0     N32757   1.286   2.932   4.013  0.2563  0.0391  0.3002
  984MOL0     C32758   2.444   2.664   3.958 -0.6489  1.2606  0.3436
  984MOL0     C32759   2.580   2.686   3.923  0.6860  0.7193  0.1512
  984MOL0     C32760   3.013   2.644   3.951  1.3358 -1.1333  0.3247
  984MOL0     C32761   3.057   2.695   3.829 -0.4019  0.2228  0.5059
  984MOL0     C32762   3.190   2.718   3.803 -0.5435 -0.1918 -0.7264
  984MOL0     C32763   3.289   2.686   3.895  0.1991 -1.1353  0.1852
  984MOL0     O32764   3.423   2.684   3.856  0.5670  0.4399  0.0380
  984MOL0     C32765   3.515   2.665   3.967  0.5875  1.1038 -0.0549
  984MOL0     C32766   3.655   2.703   3.908 -0.0359  0.2433 -0.6724
  984MOL0     C32767   3.703   2.591   3.816  0.4315  0.8265  0.2712
  984MOL0     C32768   3.849   2.594   3.765  0.6194  0.3535  0.2247
  984MOL0     C32769   3.896   2.700   3.676 -0.6090 -0.9313 -0.8680
  984MOL0     C32770   3.960   2.777   3.612 -0.1888 -0.0007 -0.5061
  984MOL0     C32771   3.239   2.644   4.024 -0.0605  0.2996 -0.8798
  984MOL0     C32772   3.103   2.621   4.050  0.1292  0.1261  0.0727
  984MOL0     H32773   2.666   2.363   3.835 -1.3974 -1.3448  1.0765
  984MOL0     H32774   2.440   2.324   3.917 -1.0531  0.0043 -2.7331
  984MOL0     H32775   2.145   2.635   3.882  2.0051 -3.4587 -0.9960
  984MOL0     H32776   2.061   2.537   3.999 -0.2534 -0.2966  1.8496
  984MOL0     H32777   2.242   2.698   4.156 -1.4429 -0.7643  0.9009
  984MOL0     H32778   2.187   2.802   4.019 -2.4551  1.6569  0.9968
  984MOL0     H32779   2.002   2.675   4.218  0.5909 -1.8077 -0.6470
  984MOL0     H32780   2.042   2.842   4.210 -0.6718  1.8585 -1.2047
  984MOL0     H32781   1.981   2.827   3.965  1.8986 -0.4832  1.6527
  984MOL0     H32782   1.872   2.694   4.018 -0.4058  0.1842 -0.2052
  984MOL0     H32783   1.768   2.849   4.195 -0.3890  0.3623  0.2067
  984MOL0     H32784   1.857   2.983   4.120 -1.4426 -0.2224  4.2163
  984MOL0     H32785   1.664   2.999   4.014  0.4758  0.1103 -0.4168
  984MOL0     H32786   1.749   2.907   3.896  1.2414  0.6651 -0.2580
  984MOL0     H32787   1.641   2.692   3.963  2.1943  1.0399  0.0182
  984MOL0     H32788   1.544   2.776   4.089 -1.6359  1.0802  0.4570
  984MOL0     H32789   1.395   2.728   3.903 -0.2723  0.9198 -0.0617
  984MOL0     H32790   1.504   2.797   3.794 -0.3776 -3.8307 -0.4158
  984MOL0     H32791   1.491   3.083   3.801 -0.6338  1.4007 -0.4414
  984MOL0     H32792   1.229   3.325   3.956  0.1264 -3.4194  1.7219
  984MOL0     H32793   1.368   3.309   3.834 -1.5820  1.6685 -2.6865
  984MOL0     H32794   1.185   3.173   3.708  4.4187  0.1684  0.0448
  984MOL0     H32795   1.229   3.335   3.679  0.5255  1.7125  0.4242
  984MOL0     H32796   0.982   3.304   3.690 -0.3722 -1.7042  0.2623
  984MOL0     H32797   1.031   3.420   3.822 -0.2395 -0.0738  0.5525
  984MOL0     H32798   0.982   3.212   3.969  2.8292  0.5738 -0.8355
  984MOL0     H32799   0.965   3.111   3.817 -1.1504  0.7891 -2.0491
  984MOL0     H32800   0.822   2.987   3.961  0.3241  1.0741 -2.0474
  984MOL0     H32801   0.753   2.839   4.140  0.5592  1.5738 -1.4798
  984MOL0     H32802   0.588   2.846   4.202  1.6817  4.2611  1.2080
  984MOL0     H32803   0.616   2.766   4.041 -1.5834 -0.4942  0.9672
  984MOL0     H32804   0.309   3.018   4.477  2.0488 -0.8882 -2.2675
  984MOL0     H32805   0.100   2.993   4.590 -2.4535 -0.4371 -0.6715
  984MOL0     H32806  -0.219   2.716   4.412 -2.5817 -0.9779  0.4693
  984MOL0     H32807  -0.116   2.645   4.535  1.8719  1.9022  3.4760
  984MOL0     H32808  -0.288   2.638   4.675  0.1238  1.4276  3.0563
  984MOL0     H32809  -0.296   2.821   4.674 -2.4171 -0.2629  0.0980
  984MOL0     H32810  -0.442   2.630   4.504 -0.8515  0.8629 -1.1395
  984MOL0     H32811  -0.418   2.795   4.454  1.0229  2.5102  1.4368
  984MOL0     H32812  -0.551   2.721   4.731 -2.4006 -0.1983  0.5101
  984MOL0     H32813  -0.521   2.886   4.664 -0.4084  0.1869 -0.3826
  984MOL0     H32814  -0.750   2.756   4.658  1.4279 -0.3945  1.2468
  984MOL0     H32815  -0.675   2.650   4.534  1.2443  0.8160 -2.9275
  984MOL0     H32816  -0.649   2.830   4.374 -0.1224  1.0331 -0.4317
  984MOL0     H32817  -0.816   2.812   4.420  0.4414 -0.4251  1.4764
  984MOL0     H32818  -0.744   3.030   4.408 -0.4412 -0.0802  0.5196
  984MOL0     H32819  -0.621   3.022   4.530 -1.5486  0.6503  1.4674
  984MOL0     H32820  -0.836   2.988   4.692 -0.6548 -2.4731 -1.3326
  984MOL0     H32821  -0.939   3.008   4.547 -0.1007 -0.8441 -0.2887
  984MOL0     H32822  -0.061   2.751   4.256  1.2609  0.7165 -2.3955
  984MOL0     H32823   0.169   2.786   4.150 -0.1526  1.2709 -0.4309
  984MOL0     H32824   0.397   3.229   4.024  0.0261  0.1507  0.5246
  984MOL0     H32825   0.586   3.335   3.902  0.8814  2.2818  2.8307
  984MOL0     H32826   2.394   2.754   3.990  1.8351  1.9462  2.6382
  984MOL0     H32827   2.624   2.785   3.934 -1.1386  2.2717 -4.1304
  984MOL0     H32828   2.986   2.705   3.748 -1.6691 -0.0206  1.5512
  984MOL0     H32829   3.203   2.761   3.704  2.2516  0.0517 -0.3380
  984MOL0     H32830   3.496   2.725   4.057  0.8435  1.3700 -0.1761
  984MOL0     H32831   3.508   2.566   4.015  0.4310  2.0251  1.9382
  984MOL0     H32832   3.721   2.695   3.994 -1.7813 -2.8013  0.5289
  984MOL0     H32833   3.649   2.805   3.867 -2.7791 -0.2885 -1.7975
  984MOL0     H32834   3.633   2.562   3.737  1.8037 -0.0322 -0.6742
  984MOL0     H32835   3.700   2.499   3.876  0.1293 -2.3231 -4.1185
  984MOL0     H32836   3.870   2.501   3.713 -1.4760  1.3684 -2.6830
  984MOL0     H32837   3.918   2.590   3.850 -1.9749  1.1908  2.5394
  984MOL0     H32838   4.007   2.840   3.539  0.9219  1.1700  1.1427
  984MOL0     H32839   3.306   2.606   4.101 -1.2118  0.6160  0.3167
  984MOL0     H32840   3.074   2.583   4.147 -0.8319  0.5800 -0.0170
  985MOL0     O32841  10.775   1.959   5.481 -0.7358  0.7664  0.2788
  985MOL0     C32842  10.793   1.842   5.519 -0.0414 -0.0689  0.1171
  985MOL0     O32843  10.696   1.744   5.546 -0.3613  0.5939 -0.1984
  985MOL0     C32844  10.565   1.779   5.537  0.1857  0.3742 -0.7477
  985MOL0     C32845  10.499   1.795   5.658 -0.2985  0.6946  0.7667
  985MOL0     C32846  10.369   1.844   5.654  0.2969 -0.2313 -1.2732
  985MOL0     C32847  10.295   1.876   5.541 -0.0974  0.0150 -0.4089
  985MOL0     O32848  10.157   1.903   5.538  0.1324  0.6826 -0.5140
  985MOL0     C32849  10.106   1.982   5.647  1.0834 -0.4464 -0.3835
  985MOL0     C32850   9.955   2.012   5.623 -0.4431 -0.3741 -0.0150
  985MOL0     C32851   9.913   2.079   5.749 -0.6391  1.0158 -0.4011
  985MOL0     C32852   9.767   2.112   5.752 -0.7678  0.2087 -0.1438
  985MOL0     C32853   9.736   2.208   5.869  0.6183  1.1478  0.0595
  985MOL0     C32854   9.588   2.186   5.899  0.3987 -1.2841 -0.7372
  985MOL0     C32855   9.494   2.259   5.794  0.3950 -0.3300 -0.1549
  985MOL0     C32856   9.353   2.256   5.834 -0.3058  0.2304 -0.7407
  985MOL0     N32857   9.262   2.347   5.759 -0.1264 -0.0486 -0.1001
  985MOL0     C32858   9.247   2.361   5.627 -0.4422  0.0535  0.4937
  985MOL0     C32859   9.152   2.462   5.614  0.3563  0.0316 -0.6945
  985MOL0     C32860   9.095   2.538   5.485 -0.1586  0.0722 -0.3921
  985MOL0     C32861   9.085   2.691   5.503  0.7106 -0.4878 -0.6180
  985MOL0     C32862   9.033   2.769   5.380  0.0016 -0.1174 -0.0071
  985MOL0     C32863   8.882   2.750   5.382 -0.9823 -0.4490 -0.1532
  985MOL0     O32864   8.832   2.842   5.289 -0.6046  1.0150  1.0822
  985MOL0     C32865   8.706   2.843   5.236 -0.1667 -0.5814  0.5378
  985MOL0     C32866   8.603   2.774   5.301 -1.0393  0.7971 -0.4519
  985MOL0     C32867   8.471   2.760   5.258 -0.0593 -1.1466  0.1033
  985MOL0     C32868   8.391   2.666   5.341 -0.1069  0.1776  0.3874
  985MOL0     C32869   8.438   2.851   5.157 -0.6623 -0.2796  0.4443
  985MOL0     C32870   8.311   2.852   5.086  0.5940 -0.1047  0.2125
  985MOL0     O32871   8.307   2.899   4.955 -0.2646 -0.2156 -0.4293
  985MOL0     C32872   8.196   2.883   4.878  0.5886  0.2287  0.2547
  985MOL0     C32873   8.151   2.761   4.829  0.2516  0.6878  0.4129
  985MOL0     C32874   8.033   2.750   4.766  0.3297 -0.0643  0.8617
  985MOL0     C32875   7.948   2.857   4.740  0.3055  0.0945  0.4297
  985MOL0     O32876   7.841   2.843   4.652 -0.5176 -0.4646  0.4392
  985MOL0     C32877   7.775   2.960   4.596 -0.4106 -0.2339 -0.6252
  985MOL0     C32878   7.681   2.911   4.484  0.4182 -0.5244  0.0748
  985MOL0     C32879   7.576   2.817   4.526  0.4100  0.0223  0.0607
  985MOL0     C32880   7.612   2.678   4.494  0.7741  0.4163 -0.0302
  985MOL0     C32881   7.508   2.561   4.504  0.0777 -0.2294  0.5580
  985MOL0     C32882   7.532   2.466   4.388  0.0253  0.8250  0.2520
  985MOL0     C32883   7.435   2.351   4.404  0.3939 -0.4287 -0.7992
  985MOL0     C32884   7.455   2.249   4.305 -0.0176  0.1117  0.3416
  985MOL0    Cl32885   7.586   2.137   4.334  0.3188  0.5199 -0.2246
  985MOL0     C32886   8.002   2.979   4.774  0.0244  0.5129 -0.6169
  985MOL0     C32887   8.121   2.996   4.848 -0.3332 -0.4367  0.8046
  985MOL0     O32888   8.210   2.826   5.153 -0.5591  0.2411 -0.1140
  985MOL0     C32889   8.535   2.928   5.099  0.2273 -0.2671 -0.0103
  985MOL0     C32890   8.666   2.933   5.141 -0.2702  0.9402 -0.7567
  985MOL0     N32891   9.124   2.513   5.740 -0.0433  0.4332 -1.0212
  985MOL0     N32892   9.192   2.444   5.825  0.4130 -0.2914 -0.5886
  985MOL0     C32893  10.368   1.862   5.430  0.2176 -0.4581  0.2752
  985MOL0     C32894  10.495   1.815   5.423  0.4099  0.8348  0.4835
  985MOL0     C32895  10.932   1.803   5.550 -0.0364 -0.6755  0.5464
  985MOL0     C32896  10.956   1.673   5.591  0.4538 -0.0621 -0.0040
  985MOL0     C32897  11.083   1.641   5.640  0.2092 -0.6550  0.3133
  985MOL0     C32898  11.193   1.731   5.636 -0.4996  0.5551  0.3258
  985MOL0     O32899  11.313   1.691   5.694  0.5053 -0.0961 -0.5599
  985MOL0     C32900  11.415   1.783   5.727 -0.6822 -0.1160 -0.0656
  985MOL0     C32901  11.547   1.730   5.669  0.3619  0.1355  0.0785
  985MOL0     C32902  11.569   1.729   5.518 -0.5580 -1.1312  0.1423
  985MOL0     C32903  11.694   1.654   5.473  0.3165  0.0101  0.3202
  985MOL0     C32904  11.821   1.724   5.508  0.1527  0.0091  0.1845
  985MOL0     C32905  11.933   1.765   5.521 -0.2612  0.1131  0.7679
  985MOL0     C32906  11.165   1.855   5.577  0.4338 -1.0731  0.3263
  985MOL0     C32907  11.036   1.889   5.532 -0.0163 -0.6388 -0.0934
  985MOL0     H32908  10.552   1.773   5.750  0.3813  0.9860  0.4496
  985MOL0     H32909  10.324   1.847   5.753  2.9651  0.3292  0.0223
  985MOL0     H32910  10.114   1.929   5.742  0.4871 -1.4899 -0.8977
  985MOL0     H32911  10.172   2.069   5.653  2.8120 -1.6965 -0.5126
  985MOL0     H32912   9.934   2.066   5.530  0.8582 -0.7078 -0.5248
  985MOL0     H32913   9.894   1.921   5.620  0.8734 -1.3980  1.8443
  985MOL0     H32914   9.930   2.017   5.838  0.4964  1.2955 -0.3994
  985MOL0     H32915   9.976   2.168   5.758 -0.4672  0.9619 -1.0567
  985MOL0     H32916   9.737   2.149   5.654 -4.0934 -5.1565 -1.6035
  985MOL0     H32917   9.718   2.017   5.773 -0.3660  0.0911  0.2877
  985MOL0     H32918   9.793   2.185   5.959  0.2029  1.9153  0.5264
  985MOL0     H32919   9.757   2.310   5.833 -1.6172  1.0781 -1.6489
  985MOL0     H32920   9.558   2.082   5.914  0.3057 -1.1633 -0.0417
  985MOL0     H32921   9.559   2.247   5.985  0.4485  0.7360 -2.0909
  985MOL0     H32922   9.524   2.364   5.792 -2.5639  0.6403 -2.5289
  985MOL0     H32923   9.507   2.216   5.694  1.8029  1.0316 -0.6073
  985MOL0     H32924   9.343   2.284   5.939  1.9849 -0.9196 -0.1432
  985MOL0     H32925   9.311   2.158   5.812 -0.3296  0.4826 -1.8833
  985MOL0     H32926   9.304   2.297   5.561  0.1991 -0.5538  1.5940
  985MOL0     H32927   9.158   2.506   5.401 -0.3206 -1.6533  0.1049
  985MOL0     H32928   8.998   2.500   5.454 -0.7944 -0.9050  2.5840
  985MOL0     H32929   9.180   2.738   5.533  0.8420 -1.7421  1.0612
  985MOL0     H32930   9.017   2.716   5.584  0.5053  1.8848 -1.4394
  985MOL0     H32931   9.077   2.729   5.289 -2.4723 -2.9811 -0.0842
  985MOL0     H32932   9.060   2.874   5.394 -0.1306  0.2048 -1.9215
  985MOL0     H32933   8.843   2.773   5.481 -1.2653  0.9789 -0.5787
  985MOL0     H32934   8.860   2.648   5.348 -1.3422 -1.2325  2.2331
  985MOL0     H32935   8.623   2.708   5.385 -0.4488  0.6068 -0.7378
  985MOL0     H32936   8.376   2.698   5.444  0.4733 -0.7829  0.7878
  985MOL0     H32937   8.294   2.651   5.294  0.5757 -0.4801 -0.8836
  985MOL0     H32938   8.434   2.565   5.348 -1.4870 -0.7106 -2.3193
  985MOL0     H32939   8.215   2.676   4.849 -0.4919  0.2524  1.0195
  985MOL0     H32940   7.995   2.657   4.724 -1.3083  0.3603  1.3094
  985MOL0     H32941   7.724   3.011   4.679 -0.3583 -1.0851 -0.0581
  985MOL0     H32942   7.851   3.023   4.549  1.8797 -2.2313  0.2346
  985MOL0     H32943   7.632   3.003   4.449 -0.1829 -1.2261 -0.9735
  985MOL0     H32944   7.738   2.874   4.398  1.5644 -0.2339  0.6886
  985MOL0     H32945   7.477   2.840   4.485  0.0033 -2.0617 -0.2230
  985MOL0     H32946   7.568   2.832   4.634  1.9523 -0.3829  0.2526
  985MOL0     H32947   7.638   2.673   4.388 -0.3284  1.1905 -0.3490
  985MOL0     H32948   7.703   2.639   4.541 -0.1071 -1.4913  0.1872
  985MOL0     H32949   7.413   2.612   4.489  0.4764  0.3616 -0.0127
  985MOL0     H32950   7.512   2.516   4.604  1.0311 -2.0222 -0.2414
  985MOL0     H32951   7.535   2.514   4.290 -1.4545  1.8215  0.6566
  985MOL0     H32952   7.633   2.428   4.400  0.6861  0.8261 -3.9433
  985MOL0     H32953   7.341   2.405   4.388 -0.2824 -0.8846  1.3036
  985MOL0     H32954   7.445   2.309   4.504  1.2381  0.4395 -0.5002
  985MOL0     H32955   7.463   2.276   4.199 -0.6986  0.1535  0.2963
  985MOL0     H32956   7.369   2.182   4.312 -0.4733  0.8710  2.8646
  985MOL0     H32957   7.952   3.072   4.748 -0.4399  0.0083 -1.5737
  985MOL0     H32958   8.153   3.093   4.881  0.2067 -0.9182  1.7299
  985MOL0     H32959   8.518   2.998   5.018  0.8774 -0.9920 -0.7850
  985MOL0     H32960   8.738   3.006   5.105 -0.7520  0.1040 -3.7140
  985MOL0     H32961  10.331   1.886   5.331  1.6098 -0.0143 -0.1730
  985MOL0     H32962  10.542   1.825   5.326  1.4176  3.1646  1.1470
  985MOL0     H32963  10.874   1.602   5.595 -1.2200  1.4185 -3.3804
  985MOL0     H32964  11.105   1.544   5.684 -0.6562 -0.9199  0.1854
  985MOL0     H32965  11.393   1.882   5.687 -1.2268 -0.7735 -1.4661
  985MOL0     H32966  11.424   1.783   5.836  0.0918  2.3967 -0.0886
  985MOL0     H32967  11.559   1.626   5.702 -0.5106 -0.0548 -0.1896
  985MOL0     H32968  11.622   1.790   5.722  0.5772  0.4279 -0.5502
  985MOL0     H32969  11.576   1.827   5.470  2.2485 -2.0592 -1.5939
  985MOL0     H32970  11.486   1.673   5.476 -0.3114 -3.9917  3.0363
  985MOL0     H32971  11.702   1.644   5.364  1.4099  1.3341  0.2601
  985MOL0     H32972  11.694   1.553   5.515  3.3179 -0.3061 -0.2604
  985MOL0     H32973  12.031   1.807   5.527  0.2707 -1.0584  0.6589
  985MOL0     H32974  11.242   1.922   5.538  0.1661 -2.0608 -2.1171
  985MOL0     H32975  11.014   1.985   5.486  4.1347  0.5283 -0.1212
  986MOL0     O32976   1.046   8.795   6.545  1.0182 -0.1644 -0.5682
  986MOL0     C32977   1.026   8.705   6.623 -0.0083  0.1330 -0.6108
  986MOL0     O32978   0.945   8.600   6.597  0.2740 -0.3047  0.0695
  986MOL0     C32979   0.865   8.596   6.485 -1.3435  0.5441 -0.6897
  986MOL0     C32980   0.789   8.699   6.434 -0.0368  0.7925  0.2621
  986MOL0     C32981   0.721   8.685   6.306  0.1998  0.2119 -0.2664
  986MOL0     C32982   0.726   8.564   6.235 -0.3488 -0.3340 -0.4921
  986MOL0     O32983   0.657   8.566   6.119 -0.2656 -0.9454  0.2734
  986MOL0     C32984   0.626   8.445   6.056  0.3811 -0.1620  0.3901
  986MOL0     C32985   0.750   8.416   5.965  0.1465 -0.3997 -0.6723
  986MOL0     C32986   0.766   8.521   5.853 -0.7274  0.9807 -1.0891
  986MOL0     C32987   0.880   8.476   5.760 -0.3519 -0.1017  0.0985
  986MOL0     C32988   0.938   8.589   5.669 -0.2670  0.3680  0.1272
  986MOL0     C32989   0.845   8.631   5.553  0.4762 -0.1121  0.5502
  986MOL0     C32990   0.909   8.750   5.475  0.4088  0.5610 -0.8800
  986MOL0     C32991   0.842   8.778   5.336 -0.0784 -0.8459  0.7800
  986MOL0     N32992   0.696   8.822   5.353  0.2594  0.3671 -0.7953
  986MOL0     C32993   0.649   8.952   5.342  0.3074  0.1470  0.4296
  986MOL0     C32994   0.526   8.945   5.387  0.8212 -1.1460 -1.5630
  986MOL0     C32995   0.439   9.072   5.414 -0.4895  0.3476 -0.6284
  986MOL0     C32996   0.287   9.054   5.388 -1.2788  1.0759  0.3636
  986MOL0     C32997   0.263   9.051   5.237  0.9850  0.6384 -0.4155
  986MOL0     C32998   0.117   9.072   5.188  0.3268  0.1577  0.1013
  986MOL0     O32999   0.074   9.200   5.243  0.0504  0.0020  0.2719
  986MOL0     C33000  -0.054   9.235   5.213  0.2241  0.0983  0.4493
  986MOL0     C33001  -0.101   9.361   5.257 -0.5689  0.3421 -0.7208
  986MOL0     C33002  -0.235   9.406   5.263  0.0221  1.2309  0.3069
  986MOL0     C33003  -0.252   9.535   5.335  0.2326  0.0187 -0.1870
  986MOL0     C33004  -0.328   9.317   5.202  0.6071 -0.5855 -0.6021
  986MOL0     C33005  -0.481   9.331   5.213  0.7483  0.8220  0.5874
  986MOL0     O33006  -0.556   9.257   5.119  0.0634 -0.1823 -0.1810
  986MOL0     C33007  -0.692   9.285   5.119  0.3960  0.5539  0.5110
  986MOL0     C33008  -0.769   9.238   5.228  0.2405 -0.3645 -0.7053
  986MOL0     C33009  -0.906   9.271   5.244  1.2253  0.0560 -0.3835
  986MOL0     C33010  -0.965   9.355   5.142  0.5119  0.3601  0.0307
  986MOL0     O33011  -1.092   9.401   5.150  0.2836 -0.0675 -0.4023
  986MOL0     C33012  -1.110   9.544   5.168  0.6539 -0.2591  0.7081
  986MOL0     C33013  -1.073   9.590   5.306 -0.4133 -0.2740 -0.5080
  986MOL0     C33014  -1.128   9.497   5.418  0.8179  0.7493 -0.0095
  986MOL0     C33015  -1.074   9.531   5.562  0.4698 -0.7911  0.6059
  986MOL0     C33016  -1.133   9.666   5.612 -0.1471  1.7011 -0.2562
  986MOL0     C33017  -1.272   9.652   5.678  0.3104  0.2140  0.5436
  986MOL0     C33018  -1.269   9.662   5.832 -0.1713 -0.2077 -0.4066
  986MOL0     C33019  -1.205   9.538   5.891  0.1239  0.2973 -1.3122
  986MOL0    Cl33020  -1.254   9.552   6.059 -0.0317 -0.3815 -0.5795
  986MOL0     C33021  -0.893   9.380   5.023  0.0884  0.1478 -0.2787
  986MOL0     C33022  -0.758   9.342   5.006  0.2424  0.4631 -0.4123
  986MOL0     O33023  -0.527   9.421   5.282 -0.3447 -0.0967  0.6410
  986MOL0     C33024  -0.288   9.190   5.163 -0.1496  0.4366 -1.0497
  986MOL0     C33025  -0.153   9.147   5.161 -0.3653 -0.2787  0.3082
  986MOL0     N33026   0.497   8.814   5.422  0.4824  0.5503  0.3854
  986MOL0     N33027   0.600   8.735   5.406 -0.4444 -0.1700 -0.7721
  986MOL0     C33028   0.801   8.458   6.290 -0.3121  0.1609  1.0154
  986MOL0     C33029   0.868   8.478   6.414 -0.4285  0.1729 -0.1767
  986MOL0     C33030   1.111   8.699   6.747  0.7653  0.9515 -0.1484
  986MOL0     C33031   1.245   8.747   6.748 -0.0231 -0.4319 -0.2944
  986MOL0     C33032   1.316   8.764   6.867 -0.4816 -1.2817 -0.9260
  986MOL0     C33033   1.273   8.697   6.977  0.2311  0.4195  0.3906
  986MOL0     O33034   1.354   8.696   7.086  0.1752 -0.4450 -0.1113
  986MOL0     C33035   1.373   8.563   7.145 -0.0708 -0.0128 -0.6384
  986MOL0     C33036   1.502   8.555   7.230  0.1423  0.6584 -1.0253
  986MOL0     C33037   1.630   8.588   7.162 -0.3469 -0.7018  0.1293
  986MOL0     C33038   1.719   8.694   7.226  0.0406 -0.4637 -0.8241
  986MOL0     C33039   1.779   8.638   7.346 -0.2281 -1.1453 -1.5159
  986MOL0     C33040   1.842   8.596   7.436 -0.4366  0.3638  0.1434
  986MOL0     C33041   1.161   8.615   6.967  0.6842  0.4871  0.4162
  986MOL0     C33042   1.070   8.623   6.859 -0.0691  0.2288 -0.0076
  986MOL0     H33043   0.800   8.793   6.487  0.5918  1.4712 -1.0393
  986MOL0     H33044   0.667   8.757   6.246 -0.5898 -1.7363 -2.0002
  986MOL0     H33045   0.613   8.362   6.126 -0.3533 -0.8118 -0.4827
  986MOL0     H33046   0.540   8.463   5.990  0.6708 -1.4557 -0.3585
  986MOL0     H33047   0.837   8.419   6.031 -0.1016  1.4402 -0.3684
  986MOL0     H33048   0.735   8.313   5.933  0.7698 -1.0860  1.1352
  986MOL0     H33049   0.674   8.548   5.801 -0.4281  1.9397 -1.1414
  986MOL0     H33050   0.795   8.617   5.896 -0.5631 -0.8897  3.6174
  986MOL0     H33051   0.967   8.440   5.817 -0.1077  0.9547  0.4170
  986MOL0     H33052   0.825   8.406   5.697 -0.0604 -0.4184  0.1944
  986MOL0     H33053   0.962   8.676   5.731  3.0481  1.8073 -2.7889
  986MOL0     H33054   1.042   8.565   5.641  0.1874  1.8445  0.4687
  986MOL0     H33055   0.826   8.544   5.489  1.3598 -1.2731  1.7973
  986MOL0     H33056   0.752   8.668   5.597 -0.2528 -1.3648  0.1243
  986MOL0     H33057   0.905   8.841   5.536  1.4512 -0.2255  0.4186
  986MOL0     H33058   1.016   8.745   5.455  0.8451  3.0116  0.4038
  986MOL0     H33059   0.834   8.695   5.265 -1.5487  0.3683 -0.5460
  986MOL0     H33060   0.897   8.861   5.294 -1.4764  1.5526  3.3234
  986MOL0     H33061   0.703   9.042   5.316 -0.3728  0.5714  0.4939
  986MOL0     H33062   0.441   9.107   5.518  0.5797 -1.1106 -0.1137
  986MOL0     H33063   0.482   9.149   5.350 -0.8645  0.5960 -0.5823
  986MOL0     H33064   0.232   9.133   5.440 -2.4616 -0.0725  0.9240
  986MOL0     H33065   0.261   8.957   5.433  2.9289  0.7557  2.6054
  986MOL0     H33066   0.297   8.955   5.197 -1.5320 -0.9433  0.9986
  986MOL0     H33067   0.320   9.131   5.189 -1.7750  2.4028 -0.9413
  986MOL0     H33068   0.054   8.989   5.220  1.0443 -0.4749 -0.1037
  986MOL0     H33069   0.100   9.076   5.080 -4.3004 -0.3902  0.6003
  986MOL0     H33070  -0.028   9.435   5.288  0.2090  0.3020 -2.3426
  986MOL0     H33071  -0.266   9.519   5.442 -0.6426 -1.4954 -0.5118
  986MOL0     H33072  -0.163   9.597   5.320 -0.1684  1.1457  1.7579
  986MOL0     H33073  -0.340   9.593   5.306  0.7052  0.5370 -0.6324
  986MOL0     H33074  -0.723   9.182   5.309 -0.0327 -0.4091 -0.5810
  986MOL0     H33075  -0.953   9.249   5.339 -1.4487  0.0245 -1.6253
  986MOL0     H33076  -1.048   9.600   5.097 -1.0473  1.6442  0.6379
  986MOL0     H33077  -1.212   9.574   5.144  0.5704  0.3061  1.7371
  986MOL0     H33078  -0.964   9.596   5.316 -0.6541  1.8413  2.5728
  986MOL0     H33079  -1.119   9.688   5.318  0.8818  0.4614 -1.2581
  986MOL0     H33080  -1.091   9.395   5.418 -1.3631 -0.1095  0.6089
  986MOL0     H33081  -1.236   9.491   5.401  0.9634  1.0230 -1.0622
  986MOL0     H33082  -1.096   9.449   5.631 -1.5093  1.6278  3.0187
  986MOL0     H33083  -0.965   9.537   5.561  0.4496  3.9612 -2.5616
  986MOL0     H33084  -1.133   9.737   5.529  1.0451  1.2707 -0.6409
  986MOL0     H33085  -1.060   9.705   5.684 -0.2308  0.1882  0.6936
  986MOL0     H33086  -1.338   9.731   5.640 -1.5536 -1.6315 -0.2577
  986MOL0     H33087  -1.318   9.556   5.652  0.7940  0.2167 -0.3719
  986MOL0     H33088  -1.371   9.668   5.872 -0.5283 -1.4019 -1.0925
  986MOL0     H33089  -1.211   9.751   5.862 -0.4147 -0.0530 -0.3912
  986MOL0     H33090  -1.098   9.527   5.874 -0.0625 -0.0622 -2.3664
  986MOL0     H33091  -1.257   9.447   5.860 -0.0816 -0.9244  2.2373
  986MOL0     H33092  -0.951   9.424   4.943  0.3684 -1.2861 -1.3061
  986MOL0     H33093  -0.702   9.376   4.919  0.1363  1.1997 -0.2007
  986MOL0     H33094  -0.356   9.118   5.118  0.7407 -0.4353 -1.0352
  986MOL0     H33095  -0.143   9.043   5.133 -0.5844  0.0491 -1.0631
  986MOL0     H33096   0.810   8.366   6.233  3.3099  0.8418  0.2442
  986MOL0     H33097   0.925   8.394   6.453  1.8767  1.1468 -1.2782
  986MOL0     H33098   1.291   8.789   6.659  1.2329 -2.7997 -0.8486
  986MOL0     H33099   1.416   8.806   6.871 -1.4398  1.2408 -1.9087
  986MOL0     H33100   1.289   8.538   7.210  2.4279 -2.9760  1.7159
  986MOL0     H33101   1.380   8.488   7.066  1.4565 -0.1888 -0.3566
  986MOL0     H33102   1.508   8.456   7.276 -1.7592  0.7111 -0.5928
  986MOL0     H33103   1.488   8.628   7.311  2.3839  2.6450 -2.3070
  986MOL0     H33104   1.601   8.622   7.062  1.3751 -0.5347 -0.3386
  986MOL0     H33105   1.699   8.503   7.152 -1.6901 -1.6742 -1.5106
  986MOL0     H33106   1.672   8.790   7.246 -0.4739 -1.2690  2.3618
  986MOL0     H33107   1.802   8.716   7.158  2.0901 -0.6051  1.4814
  986MOL0     H33108   1.913   8.553   7.504 -0.2261 -0.3803 -0.5303
  986MOL0     H33109   1.116   8.549   7.040 -2.2501  0.0792 -1.5987
  986MOL0     H33110   0.967   8.589   6.854 -0.1935  0.7554 -2.8614
  987MOL0     O33111   1.955  11.186   2.212 -0.6225  0.0563  0.2853
  987MOL0     C33112   1.992  11.174   2.330 -0.2615 -1.1098  0.3862
  987MOL0     O33113   1.912  11.203   2.440  0.5499 -0.0295  0.2685
  987MOL0     C33114   1.779  11.183   2.438  0.7612  0.2822 -1.3094
  987MOL0     C33115   1.711  11.233   2.552 -0.3184 -0.0913 -0.7303
  987MOL0     C33116   1.568  11.210   2.561 -0.2338  0.2101 -0.0292
  987MOL0     C33117   1.500  11.142   2.456 -0.5194 -0.1996  0.0903
  987MOL0     O33118   1.374  11.095   2.446 -0.1447  0.3642  0.3746
  987MOL0     C33119   1.278  11.195   2.487 -0.1675 -0.4536  0.6415
  987MOL0     C33120   1.140  11.161   2.446  0.4218 -1.0150 -0.9432
  987MOL0     C33121   1.028  11.251   2.509  0.2187  0.5367 -0.5629
  987MOL0     C33122   1.013  11.389   2.445  0.1068  0.6408  0.2445
  987MOL0     C33123   0.905  11.469   2.511  0.0233 -0.2721  0.3580
  987MOL0     C33124   0.857  11.594   2.426 -1.0179 -0.1739  0.1495
  987MOL0     C33125   0.737  11.662   2.487 -0.0109 -0.5744  0.2630
  987MOL0     C33126   0.610  11.591   2.446  0.8533  0.7956 -0.0617
  987MOL0     N33127   0.489  11.659   2.498 -0.7616  0.7017  0.0451
  987MOL0     C33128   0.450  11.786   2.471 -0.1154  0.6776 -0.6954
  987MOL0     C33129   0.349  11.805   2.558  0.3258 -0.7571  0.3004
  987MOL0     C33130   0.265  11.930   2.566  1.0116 -0.5588 -1.1589
  987MOL0     C33131   0.123  11.903   2.536  0.2594  0.0498  0.1882
  987MOL0     C33132   0.053  12.035   2.523  0.3191  0.3238  0.1595
  987MOL0     C33133  -0.098  12.031   2.529  0.4033  0.3713 -0.9857
  987MOL0     O33134  -0.177  12.160   2.539 -0.2850  0.0354  0.7744
  987MOL0     C33135  -0.309  12.156   2.566 -0.2091 -0.4914 -0.8900
  987MOL0     C33136  -0.359  12.274   2.614  0.4065 -0.5525 -0.2021
  987MOL0     C33137  -0.491  12.290   2.641 -0.9369 -0.2492 -1.0662
  987MOL0     C33138  -0.534  12.420   2.693 -0.3458  0.0152  0.9401
  987MOL0     C33139  -0.582  12.171   2.633  0.5690 -1.3074  0.8918
  987MOL0     C33140  -0.731  12.164   2.661  0.3877 -0.2249 -1.8161
  987MOL0     O33141  -0.815  12.106   2.575  0.3530  0.3982 -0.9239
  987MOL0     C33142  -0.938  12.068   2.627  0.3877 -0.6025  1.2520
  987MOL0     C33143  -1.034  12.159   2.653  0.8974  0.1775 -0.3766
  987MOL0     C33144  -1.156  12.123   2.705 -0.2774 -0.2481 -0.0955
  987MOL0     C33145  -1.183  11.996   2.744  0.3327 -0.2526 -0.2969
  987MOL0     O33146  -1.302  11.978   2.805  0.9990 -0.4543  0.3949
  987MOL0     C33147  -1.355  11.850   2.840  0.1135 -0.1942  0.7560
  987MOL0     C33148  -1.502  11.875   2.877 -0.4316 -0.2856  0.1538
  987MOL0     C33149  -1.586  11.765   2.829 -0.5399  0.5508  0.2671
  987MOL0     C33150  -1.720  11.748   2.896 -0.2271  0.7840  0.1433
  987MOL0     C33151  -1.714  11.675   3.037 -0.1789  0.0002  0.1249
  987MOL0     C33152  -1.847  11.636   3.093  0.0732 -0.4041  0.2026
  987MOL0     C33153  -1.936  11.757   3.129  0.1818  0.1024  0.1200
  987MOL0     C33154  -2.082  11.696   3.170 -0.3468 -0.0695 -0.0105
  987MOL0    Cl33155  -2.171  11.596   3.041  0.0024 -0.0147 -0.0857
  987MOL0     C33156  -1.093  11.898   2.712 -0.1038  0.0156  0.3482
  987MOL0     C33157  -0.966  11.935   2.654  0.1801 -0.1421  0.4886
  987MOL0     O33158  -0.754  12.225   2.757  0.8755 -0.8995 -1.0477
  987MOL0     C33159  -0.520  12.052   2.587 -0.8239 -0.4555  1.2275
  987MOL0     C33160  -0.388  12.044   2.545  0.1381 -1.1189  0.5379
  987MOL0     N33161   0.319  11.679   2.608  0.2503 -0.2888 -0.0253
  987MOL0     N33162   0.400  11.591   2.575 -0.4300  0.2301  0.4257
  987MOL0     C33163   1.558  11.124   2.338 -0.5233 -0.0067 -0.1063
  987MOL0     C33164   1.697  11.125   2.331 -0.7865  0.1715 -0.7926
  987MOL0     C33165   2.136  11.162   2.352 -0.2610 -1.0602 -1.0364
  987MOL0     C33166   2.226  11.168   2.245  0.0349  0.0855 -1.3369
  987MOL0     C33167   2.363  11.164   2.266 -0.3638  0.4522  0.0628
  987MOL0     C33168   2.415  11.147   2.397 -0.5510  0.3193  0.2785
  987MOL0     O33169   2.544  11.115   2.400 -0.2641 -0.0048 -0.1339
  987MOL0     C33170   2.611  11.064   2.514 -0.3191  0.5207 -0.6692
  987MOL0     C33171   2.632  11.171   2.617  0.4267  1.4254 -0.6993
  987MOL0     C33172   2.663  11.114   2.761  0.4877 -0.6639  0.1928
  987MOL0     C33173   2.689  11.220   2.859  0.1547  0.3402 -0.0453
  987MOL0     C33174   2.809  11.306   2.827 -0.6045 -1.1808  0.1363
  987MOL0     C33175   2.911  11.365   2.794  0.0172 -0.9189  0.9830
  987MOL0     C33176   2.326  11.149   2.504  0.4169 -0.1428  0.0902
  987MOL0     C33177   2.183  11.163   2.483 -0.5499  0.4378  0.1871
  987MOL0     H33178   1.770  11.275   2.633 -2.3673  2.5529 -0.4488
  987MOL0     H33179   1.519  11.228   2.656  1.1815  3.5438  0.2131
  987MOL0     H33180   1.267  11.190   2.595 -0.7798  2.4009  0.7701
  987MOL0     H33181   1.297  11.296   2.450 -0.3960 -0.1703  1.2970
  987MOL0     H33182   1.133  11.171   2.337 -0.2009 -2.6336 -1.0840
  987MOL0     H33183   1.125  11.056   2.474  0.5731 -1.1577 -1.3791
  987MOL0     H33184   0.936  11.193   2.495  1.5767 -2.7841  2.4891
  987MOL0     H33185   1.039  11.266   2.617 -1.7881 -1.1742 -0.0422
  987MOL0     H33186   1.108  11.444   2.448 -0.5689  1.8192  2.3827
  987MOL0     H33187   0.987  11.381   2.339 -3.9702  0.0981  1.1407
  987MOL0     H33188   0.819  11.402   2.516  2.3626 -3.5516  0.1614
  987MOL0     H33189   0.934  11.517   2.605 -3.0872 -0.2411  1.3982
  987MOL0     H33190   0.941  11.665   2.434  0.3290 -1.8995  2.7271
  987MOL0     H33191   0.854  11.571   2.319  0.4835 -0.4468  0.1475
  987MOL0     H33192   0.748  11.668   2.595  0.0139  0.8186  0.2045
  987MOL0     H33193   0.741  11.765   2.449  1.4259 -0.0083  1.8521
  987MOL0     H33194   0.607  11.490   2.490 -0.0845  0.5094 -0.7589
  987MOL0     H33195   0.594  11.576   2.339  0.5206 -2.7497  0.3617
  987MOL0     H33196   0.506  11.869   2.430  0.7900  0.4955  0.1385
  987MOL0     H33197   0.275  11.986   2.660  4.4007 -2.0008 -0.5050
  987MOL0     H33198   0.296  12.002   2.491  1.2838 -1.4322 -1.9016
  987MOL0     H33199   0.075  11.841   2.613 -0.7377  0.9634  0.3307
  987MOL0     H33200   0.113  11.852   2.440  0.5806  0.8090 -0.2475
  987MOL0     H33201   0.069  12.065   2.419  2.0375 -1.3424 -0.1234
  987MOL0     H33202   0.083  12.115   2.591 -0.6473  0.0171  0.9666
  987MOL0     H33203  -0.118  11.972   2.619  1.6110  0.7456 -0.4478
  987MOL0     H33204  -0.139  11.973   2.446  0.6667 -2.0613  0.4875
  987MOL0     H33205  -0.283  12.349   2.634 -0.6232  0.6758 -0.7352
  987MOL0     H33206  -0.552  12.409   2.800 -1.3134 -1.4255  0.6665
  987MOL0     H33207  -0.449  12.482   2.665  1.9493 -2.3825  2.1812
  987MOL0     H33208  -0.626  12.456   2.644 -0.7791  1.9417  3.0282
  987MOL0     H33209  -1.016  12.264   2.632  1.4701 -0.1653 -1.6912
  987MOL0     H33210  -1.231  12.196   2.734  1.4931  2.1750 -1.2626
  987MOL0     H33211  -1.355  11.784   2.753  1.2870 -2.2920  2.2701
  987MOL0     H33212  -1.295  11.803   2.919  1.3540 -0.9767 -0.6064
  987MOL0     H33213  -1.515  11.885   2.985  0.2603  2.8139  0.0495
  987MOL0     H33214  -1.540  11.963   2.825  0.4988  0.6079  0.9457
  987MOL0     H33215  -1.526  11.675   2.851  0.4038  0.4607 -2.2722
  987MOL0     H33216  -1.612  11.770   2.723 -0.8853  0.0789  0.3271
  987MOL0     H33217  -1.779  11.840   2.899 -2.3867 -0.5697  0.8222
  987MOL0     H33218  -1.769  11.685   2.822  0.8472  0.1965 -0.0934
  987MOL0     H33219  -1.650  11.733   3.104  1.4736  0.4462 -1.7514
  987MOL0     H33220  -1.660  11.581   3.023 -0.7286 -0.4950  1.2092
  987MOL0     H33221  -1.895  11.573   3.018 -1.5546  0.3738  0.5545
  987MOL0     H33222  -1.820  11.580   3.183  2.1757  2.3520  1.4428
  987MOL0     H33223  -1.950  11.821   3.042 -0.5563  0.0138  0.1681
  987MOL0     H33224  -1.898  11.810   3.217  1.1224 -2.9874  1.7543
  987MOL0     H33225  -2.148  11.780   3.194  0.4989  0.9169 -1.0167
  987MOL0     H33226  -2.074  11.651   3.269  0.6449 -0.7788 -0.4037
  987MOL0     H33227  -1.117  11.793   2.723 -1.8897  0.1389 -1.6652
  987MOL0     H33228  -0.883  11.866   2.653  0.1551 -0.2053  1.5044
  987MOL0     H33229  -0.591  11.972   2.568 -3.9368  2.3013  0.3059
  987MOL0     H33230  -0.358  11.947   2.508 -1.5716 -0.8646 -1.7047
  987MOL0     H33231   1.503  11.077   2.257  2.9500  1.5078 -3.6612
  987MOL0     H33232   1.745  11.098   2.237  0.3443  3.4957 -1.3189
  987MOL0     H33233   2.196  11.166   2.141 -1.8974 -0.4753 -0.8127
  987MOL0     H33234   2.430  11.171   2.181  0.8500  0.8049  1.0116
  987MOL0     H33235   2.547  10.987   2.560 -1.2712  0.4846 -2.0166
  987MOL0     H33236   2.703  11.009   2.492  0.3364  0.1185  2.5210
  987MOL0     H33237   2.560  11.253   2.622  1.3045  2.1759  0.0480
  987MOL0     H33238   2.719  11.235   2.598 -0.1312  2.6483  0.6904
  987MOL0     H33239   2.755  11.053   2.761  1.3731  0.5193  2.8134
  987MOL0     H33240   2.579  11.055   2.799 -0.2123  1.0268  1.4236
  987MOL0     H33241   2.703  11.179   2.960 -0.2410  1.6056  0.5505
  987MOL0     H33242   2.604  11.288   2.858 -0.2893 -0.2028  0.2351
  987MOL0     H33243   2.998  11.423   2.766 -0.1615 -0.5237  1.2346
  987MOL0     H33244   2.353  11.126   2.606  0.2489 -1.1889 -0.0941
  987MOL0     H33245   2.112  11.150   2.564 -0.9081 -2.8651 -0.4891
  988MOL0     O33246   9.590   1.979   6.245 -0.1334 -0.3287  0.0117
  988MOL0     C33247   9.710   2.005   6.216  0.7858 -0.0518  0.4821
  988MOL0     O33248   9.778   2.124   6.238 -0.8101 -0.2636  0.3295
  988MOL0     C33249   9.724   2.249   6.275  0.7889 -0.1832  0.1278
  988MOL0     C33250   9.584   2.287   6.267 -1.2154  0.8571  0.1741
  988MOL0     C33251   9.541   2.416   6.305  0.3219  0.6873 -0.0018
  988MOL0     C33252   9.629   2.513   6.336  0.0814 -0.6738 -0.1020
  988MOL0     O33253   9.580   2.642   6.374 -0.2209 -0.1373  0.2820
  988MOL0     C33254   9.670   2.732   6.424 -1.2409 -0.0351  0.2700
  988MOL0     C33255   9.596   2.862   6.459  0.4904 -0.0528  0.5868
  988MOL0     C33256   9.493   2.839   6.580  1.1117  1.0463 -0.3044
  988MOL0     C33257   9.425   2.971   6.640 -0.3443 -0.1106  0.2625
  988MOL0     C33258   9.299   2.951   6.728 -0.7597 -0.2393 -0.8516
  988MOL0     C33259   9.232   3.087   6.780 -0.2446 -0.5927 -0.3573
  988MOL0     C33260   9.099   3.077   6.856  0.3665 -0.0568  0.1823
  988MOL0     C33261   8.999   2.973   6.810 -0.9349  0.1054 -0.2085
  988MOL0     N33262   8.889   2.967   6.898 -0.5157 -0.2009 -0.0860
  988MOL0     C33263   8.813   3.074   6.932  0.0028 -0.9390 -0.6117
  988MOL0     C33264   8.722   3.027   7.010 -0.1210  0.3724  0.4576
  988MOL0     C33265   8.612   3.106   7.065  0.0724  0.6411  0.3274
  988MOL0     C33266   8.510   3.170   6.961 -0.0456  0.4773  0.1695
  988MOL0     C33267   8.421   3.069   6.887 -0.1435  0.4668 -0.4850
  988MOL0     C33268   8.305   3.145   6.823 -0.2086 -0.0794 -0.6297
  988MOL0     O33269   8.360   3.239   6.733  0.0913  0.9043 -0.5677
  988MOL0     C33270   8.290   3.275   6.620  0.5624  0.6211 -0.3880
  988MOL0     C33271   8.355   3.344   6.519 -0.3027 -1.1383 -0.0263
  988MOL0     C33272   8.298   3.386   6.395  1.0073  0.3298 -0.8490
  988MOL0     C33273   8.393   3.445   6.296  0.0421  0.9377 -0.3077
  988MOL0     C33274   8.153   3.375   6.382  0.5990  0.6635  0.5321
  988MOL0     C33275   8.062   3.419   6.282  0.4841 -0.2674  0.4539
  988MOL0     O33276   7.923   3.389   6.288  0.3313 -0.6267  0.2577
  988MOL0     C33277   7.850   3.476   6.210  0.0542  1.0636  0.0969
  988MOL0     C33278   7.786   3.586   6.265 -0.4335  0.1367  0.0158
  988MOL0     C33279   7.691   3.664   6.184 -0.1634  0.5730  0.5945
  988MOL0     C33280   7.686   3.628   6.046 -0.3084  0.4418 -0.4280
  988MOL0     O33281   7.604   3.692   5.955  0.1351  0.4053 -0.3979
  988MOL0     C33282   7.641   3.827   5.921  0.8642  0.3555  0.0978
  988MOL0     C33283   7.524   3.893   5.854  0.5906  0.7301  0.5259
  988MOL0     C33284   7.414   3.929   5.958  0.0835  0.5079  0.7179
  988MOL0     C33285   7.303   4.006   5.883  0.3104  0.3299 -0.2235
  988MOL0     C33286   7.176   4.030   5.958  0.6758  0.0616 -0.0290
  988MOL0     C33287   7.080   4.138   5.897 -0.0279 -0.5292  0.6953
  988MOL0     C33288   6.946   4.152   5.984  0.3074 -0.4374  0.5265
  988MOL0     C33289   6.829   4.211   5.887  0.2436 -0.6458 -0.1644
  988MOL0    Cl33290   6.681   4.236   5.990 -0.0814  0.3218  0.2560
  988MOL0     C33291   7.758   3.519   5.995  0.0955  0.2720 -0.9102
  988MOL0     C33292   7.834   3.437   6.076 -0.0392 -0.4585  0.2105
  988MOL0     O33293   8.113   3.473   6.185 -0.1010  0.3323 -0.7543
  988MOL0     C33294   8.084   3.309   6.490 -0.0824  0.7092 -0.1403
  988MOL0     C33295   8.151   3.253   6.601  0.6410  0.3348 -0.2836
  988MOL0     N33296   8.735   2.888   7.023  0.1790 -0.9389 -0.3297
  988MOL0     N33297   8.835   2.854   6.951 -0.0062 -0.0970  0.3841
  988MOL0     C33298   9.764   2.483   6.347  0.1462  0.3143 -0.4611
  988MOL0     C33299   9.807   2.354   6.315 -0.4577  0.3359 -0.0754
  988MOL0     C33300   9.789   1.891   6.162  0.5415 -0.0961 -0.0645
  988MOL0     C33301   9.730   1.769   6.129  0.1071  0.6874 -0.1379
  988MOL0     C33302   9.809   1.660   6.095  0.0930 -0.3029  0.3439
  988MOL0     C33303   9.949   1.674   6.077 -0.6447 -0.5141  0.1405
  988MOL0     O33304  10.027   1.565   6.041  0.3175  0.1285 -0.0585
  988MOL0     C33305  10.172   1.577   6.039 -0.3980 -0.3706  0.0863
  988MOL0     C33306  10.239   1.441   6.001 -0.4457  0.0600 -0.2407
  988MOL0     C33307  10.222   1.414   5.854  0.0622  0.1856  0.3079
  988MOL0     C33308  10.309   1.302   5.791  0.2501 -0.3204  0.2206
  988MOL0     C33309  10.307   1.175   5.864 -0.1990  0.7368  0.6085
  988MOL0     C33310  10.313   1.075   5.929  0.6299  0.3239 -0.3786
  988MOL0     C33311  10.003   1.804   6.090  1.1226  0.4470 -0.2965
  988MOL0     C33312   9.920   1.906   6.140  1.6742  0.8941 -0.0100
  988MOL0     H33313   9.509   2.208   6.260 -0.0965 -0.6894  3.4144
  988MOL0     H33314   9.434   2.432   6.298  0.4491  0.9659 -1.7877
  988MOL0     H33315   9.714   2.691   6.516  0.3245  0.2740 -0.3093
  988MOL0     H33316   9.753   2.758   6.358  1.6004  2.3772  4.3112
  988MOL0     H33317   9.669   2.939   6.489  1.2757 -0.8682  0.8310
  988MOL0     H33318   9.542   2.897   6.371  1.8471 -1.6838 -0.9756
  988MOL0     H33319   9.412   2.786   6.528  0.8018  0.4730  0.7383
  988MOL0     H33320   9.534   2.781   6.663  1.4019  1.7882  0.0834
  988MOL0     H33321   9.491   3.034   6.701 -0.8933 -0.2059  0.9798
  988MOL0     H33322   9.409   3.033   6.552  2.2700 -2.2001 -1.8693
  988MOL0     H33323   9.220   2.899   6.672 -3.0130 -0.4014  2.2128
  988MOL0     H33324   9.334   2.895   6.815 -1.2764 -1.1348 -1.2073
  988MOL0     H33325   9.296   3.140   6.851 -2.1090  0.6579  0.4683
  988MOL0     H33326   9.216   3.155   6.696 -1.6093  1.0088  1.1365
  988MOL0     H33327   9.123   3.041   6.956  1.2006  0.1686  0.0746
  988MOL0     H33328   9.047   3.173   6.852 -1.0466 -0.8190 -0.7229
  988MOL0     H33329   9.047   2.875   6.819  1.0348  1.1868  2.6249
  988MOL0     H33330   8.977   2.990   6.705  0.1188  3.1703 -0.0459
  988MOL0     H33331   8.835   3.178   6.911 -3.7297 -0.2258 -1.6827
  988MOL0     H33332   8.548   3.050   7.135 -0.5823  3.1907  1.9050
  988MOL0     H33333   8.659   3.184   7.126  2.4144  0.0703 -0.6316
  988MOL0     H33334   8.562   3.235   6.889 -0.6304  0.4086 -0.3261
  988MOL0     H33335   8.447   3.238   7.019 -1.4072  0.1885 -0.9265
  988MOL0     H33336   8.378   2.994   6.955 -0.8936  2.4499  1.3164
  988MOL0     H33337   8.487   3.007   6.825 -0.9879 -0.8339 -0.1190
  988MOL0     H33338   8.258   3.198   6.906 -0.1964 -2.2267  0.8377
  988MOL0     H33339   8.240   3.078   6.767 -1.2377  0.1554  0.2602
  988MOL0     H33340   8.460   3.364   6.537 -0.8838  1.1316  1.2229
  988MOL0     H33341   8.494   3.413   6.324 -0.6383 -2.6020 -1.2715
  988MOL0     H33342   8.371   3.391   6.203 -1.1221 -0.0547  0.5057
  988MOL0     H33343   8.392   3.553   6.280  0.8108  0.9610 -0.2356
  988MOL0     H33344   7.791   3.615   6.369  1.8131 -1.1115  0.3183
  988MOL0     H33345   7.620   3.735   6.226  0.0879  0.4809  1.1878
  988MOL0     H33346   7.684   3.893   5.996  2.2533 -0.2135 -0.1676
  988MOL0     H33347   7.719   3.821   5.844 -0.9480  1.0801 -1.9022
  988MOL0     H33348   7.573   3.985   5.820  2.8382 -0.3268  0.7289
  988MOL0     H33349   7.484   3.837   5.769  0.7094  3.7030 -1.6383
  988MOL0     H33350   7.459   3.987   6.039 -0.7602  1.1441  0.7438
  988MOL0     H33351   7.373   3.833   5.991  3.4199 -0.7568  1.5917
  988MOL0     H33352   7.345   4.100   5.846  3.2675  0.0409  1.9883
  988MOL0     H33353   7.268   3.951   5.796 -2.3908 -0.2271  1.0888
  988MOL0     H33354   7.209   4.068   6.055 -2.0151 -0.7929  1.2905
  988MOL0     H33355   7.118   3.938   5.971  2.3832 -0.8001  2.0390
  988MOL0     H33356   7.135   4.232   5.891 -0.3124 -0.4411 -1.1143
  988MOL0     H33357   7.059   4.122   5.791 -0.6424 -1.4387  0.9432
  988MOL0     H33358   6.972   4.222   6.063  1.7650  1.4664 -1.5168
  988MOL0     H33359   6.920   4.058   6.035 -1.0187 -0.9791 -1.0345
  988MOL0     H33360   6.802   4.133   5.816 -0.9769  1.1238 -1.7099
  988MOL0     H33361   6.853   4.304   5.835 -2.6273  1.8154  2.4837
  988MOL0     H33362   7.740   3.497   5.890 -1.5771 -2.1811 -0.1992
  988MOL0     H33363   7.879   3.351   6.027 -0.4119  0.0351 -1.0407
  988MOL0     H33364   7.976   3.323   6.495 -1.0456 -4.5666 -0.0870
  988MOL0     H33365   8.088   3.220   6.683  1.3159  0.3215  0.2327
  988MOL0     H33366   9.841   2.551   6.382  0.6750 -0.5277  0.0418
  988MOL0     H33367   9.915   2.338   6.312 -0.1035  2.4755 -1.2776
  988MOL0     H33368   9.628   1.745   6.155  0.4726  0.4631  1.1528
  988MOL0     H33369   9.756   1.567   6.081 -2.1292  1.0469 -0.8450
  988MOL0     H33370  10.208   1.645   5.961  2.5541 -0.5352  1.1881
  988MOL0     H33371  10.215   1.618   6.130  0.3450  0.5738 -0.6667
  988MOL0     H33372  10.201   1.359   6.063  0.3709  0.2877  0.5791
  988MOL0     H33373  10.347   1.451   6.017  0.0305  0.5235 -3.1161
  988MOL0     H33374  10.251   1.496   5.788  1.4963 -1.4130 -1.1598
  988MOL0     H33375  10.119   1.393   5.823  1.0272  1.6286 -4.9303
  988MOL0     H33376  10.414   1.332   5.788 -0.0347  0.8911 -3.9245
  988MOL0     H33377  10.281   1.291   5.686 -1.7396 -4.0454  0.9626
  988MOL0     H33378  10.308   0.976   5.970 -0.5452 -0.8400 -3.1220
  988MOL0     H33379  10.105   1.832   6.068  0.7764  1.3605 -0.7700
  988MOL0     H33380   9.960   2.006   6.155  1.3030  0.6855  2.8801
  989MOL0     O33381   0.538   7.708   7.405  0.0456  0.4501  0.2878
  989MOL0     C33382   0.586   7.677   7.297 -0.5539 -0.3325  0.1925
  989MOL0     O33383   0.545   7.576   7.218  0.4255  0.1621  0.1792
  989MOL0     C33384   0.429   7.504   7.245 -0.5843 -0.2057  0.2621
  989MOL0     C33385   0.303   7.563   7.252 -0.4442 -0.0486 -0.2710
  989MOL0     C33386   0.184   7.488   7.265 -0.1805 -0.6900  0.3699
  989MOL0     C33387   0.188   7.351   7.270  0.3961 -0.2295 -0.0880
  989MOL0     O33388   0.073   7.282   7.283  0.1387 -0.0253 -0.8362
  989MOL0     C33389   0.075   7.139   7.295  1.1507  0.7682 -0.0791
  989MOL0     C33390  -0.069   7.080   7.292  0.0315 -0.6745  0.0940
  989MOL0     C33391  -0.168   7.157   7.395 -0.9578  0.3941  0.9298
  989MOL0     C33392  -0.309   7.140   7.327  0.3331 -0.7961 -0.4229
  989MOL0     C33393  -0.424   7.180   7.428  0.4793  0.2420 -0.2880
  989MOL0     C33394  -0.563   7.139   7.365 -0.4626 -0.6843 -0.0571
  989MOL0     C33395  -0.610   7.003   7.405  0.2517 -0.5078  0.4483
  989MOL0     C33396  -0.763   6.995   7.380  0.1415  0.5043 -0.3099
  989MOL0     N33397  -0.841   7.071   7.486  0.1856  0.3160  0.1638
  989MOL0     C33398  -0.923   7.171   7.458  0.7707 -0.3991  0.1036
  989MOL0     C33399  -1.011   7.186   7.561 -0.1051 -0.7179  0.4232
  989MOL0     C33400  -1.124   7.292   7.576  0.8835  0.4036 -0.0335
  989MOL0     C33401  -1.228   7.293   7.469 -1.0734 -0.2405  0.7974
  989MOL0     C33402  -1.361   7.366   7.504 -0.0221  0.2886 -0.3117
  989MOL0     C33403  -1.344   7.502   7.571  0.6570  0.1220 -0.4696
  989MOL0     O33404  -1.463   7.579   7.556  0.3556  0.1864  0.4250
  989MOL0     C33405  -1.559   7.548   7.640 -0.5887 -0.0937  0.6694
  989MOL0     C33406  -1.684   7.583   7.600 -0.3710  0.0769  0.5586
  989MOL0     C33407  -1.803   7.555   7.661 -0.8167 -0.0253 -0.8219
  989MOL0     C33408  -1.925   7.620   7.611 -0.2456  0.3759 -0.4703
  989MOL0     C33409  -1.798   7.472   7.775  0.0414 -0.3473  0.3641
  989MOL0     C33410  -1.923   7.434   7.849  0.9232  0.1933 -0.3139
  989MOL0     O33411  -2.034   7.424   7.774  0.5031  0.3456 -1.0153
  989MOL0     C33412  -2.150   7.382   7.824 -0.3686  0.1989  0.3573
  989MOL0     C33413  -2.162   7.259   7.896  0.1512  0.2270  0.0100
  989MOL0     C33414  -2.292   7.202   7.916 -0.1226  0.3050 -0.7004
  989MOL0     C33415  -2.412   7.264   7.873  0.2422 -0.2424 -0.6052
  989MOL0     O33416  -2.530   7.214   7.894 -0.0981 -0.4212  0.1485
  989MOL0     C33417  -2.552   7.073   7.867 -0.4188 -0.0247 -0.0148
  989MOL0     C33418  -2.698   7.062   7.825  0.8304  0.2547 -0.6297
  989MOL0     C33419  -2.793   7.046   7.946 -0.0435 -0.4229  0.1458
  989MOL0     C33420  -2.938   7.082   7.911 -0.5664  0.3544  0.0335
  989MOL0     C33421  -3.017   6.977   7.834 -0.0187  0.1184 -0.4284
  989MOL0     C33422  -3.165   7.011   7.811 -0.3169  0.1183 -0.4273
  989MOL0     C33423  -3.243   6.902   7.736 -0.5315  0.0534  0.6073
  989MOL0     C33424  -3.326   6.954   7.617 -0.2728 -0.3593  1.1555
  989MOL0    Cl33425  -3.441   7.070   7.680  0.3676  0.3345 -0.0225
  989MOL0     C33426  -2.393   7.384   7.804  0.2290 -0.4540 -0.2692
  989MOL0     C33427  -2.270   7.446   7.781  0.7471  0.3199  0.4343
  989MOL0     O33428  -1.908   7.408   7.969  0.1537  0.0163 -0.4451
  989MOL0     C33429  -1.667   7.427   7.818  0.6114  0.5131  0.4953
  989MOL0     C33430  -1.551   7.476   7.753  0.3327 -0.0997 -0.2152
  989MOL0     N33431  -0.981   7.084   7.645  0.3037  0.1127 -1.0626
  989MOL0     N33432  -0.882   7.016   7.606  0.0482  0.2815  0.0018
  989MOL0     C33433   0.319   7.291   7.262  0.0028 -0.1493  0.0873
  989MOL0     C33434   0.437   7.366   7.248 -1.0725  0.4474  0.2617
  989MOL0     C33435   0.723   7.716   7.256  0.3329 -0.9934 -1.0032
  989MOL0     C33436   0.785   7.694   7.129  0.2395 -0.3143  0.4380
  989MOL0     C33437   0.918   7.735   7.097 -0.2381 -0.2884 -0.1454
  989MOL0     C33438   0.999   7.797   7.202 -0.4581  0.1565 -0.2881
  989MOL0     O33439   1.131   7.839   7.179  0.1418  0.3530  0.1023
  989MOL0     C33440   1.157   7.906   7.056 -0.2932 -0.6254 -0.0147
  989MOL0     C33441   1.093   8.047   7.061  0.0717  0.2268  0.2271
  989MOL0     C33442   1.161   8.153   7.158  0.0390 -0.2347  0.3948
  989MOL0     C33443   1.141   8.291   7.103 -0.5100  0.4089 -0.5327
  989MOL0     C33444   0.998   8.325   7.076  0.1775  0.5905 -0.4031
  989MOL0     C33445   0.882   8.350   7.057 -0.1173  0.3234 -0.1945
  989MOL0     C33446   0.947   7.809   7.324 -0.2585  0.4169 -0.4335
  989MOL0     C33447   0.815   7.776   7.349 -0.5058 -0.7830  0.5323
  989MOL0     H33448   0.291   7.671   7.255 -0.8715 -0.1079  1.1294
  989MOL0     H33449   0.095   7.550   7.261  0.7851  0.8057 -4.0487
  989MOL0     H33450   0.132   7.079   7.222  2.9162 -2.7850  3.8046
  989MOL0     H33451   0.102   7.098   7.393 -1.6771  2.1967  1.3968
  989MOL0     H33452  -0.113   7.098   7.193 -0.2060  0.0683  0.3274
  989MOL0     H33453  -0.072   6.973   7.312  2.1449 -0.5477  1.4410
  989MOL0     H33454  -0.172   7.097   7.486  0.6328  0.8590  1.3374
  989MOL0     H33455  -0.150   7.263   7.415 -1.7763  0.6090  0.5729
  989MOL0     H33456  -0.317   7.206   7.240  1.4771  1.8892  1.3707
  989MOL0     H33457  -0.322   7.037   7.292  2.1504 -0.8327 -1.1079
  989MOL0     H33458  -0.420   7.124   7.522 -0.7222  0.2012 -0.2495
  989MOL0     H33459  -0.423   7.285   7.459  0.1724 -0.1350  1.0818
  989MOL0     H33460  -0.636   7.211   7.402  0.6409  0.3967  0.1039
  989MOL0     H33461  -0.567   7.153   7.256 -0.1282  3.5418  0.3274
  989MOL0     H33462  -0.554   6.922   7.356  2.9593  1.8405 -0.6344
  989MOL0     H33463  -0.596   7.001   7.514  2.3207  2.0751  0.3245
  989MOL0     H33464  -0.791   6.890   7.384  3.8687 -0.5879  1.3999
  989MOL0     H33465  -0.791   7.041   7.284 -0.7912 -0.0556 -0.3162
  989MOL0     H33466  -0.926   7.230   7.367 -4.4173 -0.1683  0.1442
  989MOL0     H33467  -1.173   7.266   7.670  0.8487 -0.4320 -0.2766
  989MOL0     H33468  -1.092   7.395   7.595 -2.5276  1.6290 -0.1545
  989MOL0     H33469  -1.255   7.188   7.454 -0.8738 -0.3516  1.2080
  989MOL0     H33470  -1.181   7.331   7.378  0.8070 -0.1947  1.7409
  989MOL0     H33471  -1.411   7.293   7.568 -2.4723  0.2418 -2.1275
  989MOL0     H33472  -1.426   7.377   7.416  0.1493  0.8261 -0.3736
  989MOL0     H33473  -1.262   7.554   7.521  1.3260 -1.3969 -0.9840
  989MOL0     H33474  -1.310   7.495   7.675  0.2106 -1.3100 -0.4057
  989MOL0     H33475  -1.705   7.652   7.519 -4.0176 -1.6916 -0.1995
  989MOL0     H33476  -1.985   7.547   7.556  0.6442  1.6238 -3.2879
  989MOL0     H33477  -1.984   7.662   7.693  1.6187  0.5949  0.8171
  989MOL0     H33478  -1.899   7.700   7.540  2.4373 -1.5263 -1.7947
  989MOL0     H33479  -2.070   7.218   7.935  1.6121  1.7748 -1.6015
  989MOL0     H33480  -2.307   7.112   7.975  3.3160  1.7208  2.8459
  989MOL0     H33481  -2.478   7.051   7.790  1.3915  1.5036  1.1978
  989MOL0     H33482  -2.529   7.023   7.961 -0.6545 -1.2831 -0.5968
  989MOL0     H33483  -2.721   7.151   7.766 -1.0610 -0.5412 -1.1868
  989MOL0     H33484  -2.711   6.984   7.749 -1.7624  1.1693 -1.2303
  989MOL0     H33485  -2.762   7.105   8.032 -1.0625  0.4198 -0.0435
  989MOL0     H33486  -2.786   6.940   7.972 -0.5446 -0.4210  0.3063
  989MOL0     H33487  -2.993   7.080   8.005 -0.9586 -1.0870 -0.2010
  989MOL0     H33488  -2.942   7.184   7.870 -2.6837 -0.2281 -1.3905
  989MOL0     H33489  -2.998   6.880   7.880  2.2671  0.6286 -0.1654
  989MOL0     H33490  -2.981   6.968   7.731  0.3045 -0.7443 -0.2477
  989MOL0     H33491  -3.218   7.041   7.902 -0.9009 -2.5539  0.2016
  989MOL0     H33492  -3.158   7.098   7.744  0.5203  0.6205  0.2897
  989MOL0     H33493  -3.315   6.862   7.808  0.4415 -1.1829  0.9254
  989MOL0     H33494  -3.180   6.821   7.700 -0.9209  1.9112 -5.4185
  989MOL0     H33495  -3.377   6.877   7.558  0.0153  0.9716 -0.9149
  989MOL0     H33496  -3.260   7.007   7.548  0.7271 -1.5850  1.1225
  989MOL0     H33497  -2.485   7.438   7.782  1.3796  1.0129 -1.6989
  989MOL0     H33498  -2.267   7.537   7.722  0.0209 -1.0282 -1.8228
  989MOL0     H33499  -1.653   7.354   7.898  0.4292  1.4539  1.4039
  989MOL0     H33500  -1.457   7.424   7.771  1.7157  2.5037  0.4829
  989MOL0     H33501   0.327   7.182   7.265  0.7346 -0.2104 -2.0155
  989MOL0     H33502   0.533   7.317   7.247 -1.2685  0.0504 -1.0951
  989MOL0     H33503   0.725   7.644   7.054 -0.8626  1.3324  0.1682
  989MOL0     H33504   0.970   7.704   7.007  0.0857 -0.9031  0.2483
  989MOL0     H33505   1.265   7.913   7.040 -0.3749  1.7689  0.1085
  989MOL0     H33506   1.116   7.854   6.970 -0.3914 -0.3482 -0.1334
  989MOL0     H33507   0.985   8.043   7.077 -0.2365  1.0571 -1.4765
  989MOL0     H33508   1.101   8.094   6.963  1.5485  2.1428  1.1807
  989MOL0     H33509   1.266   8.123   7.164  1.2983  3.1922 -1.7190
  989MOL0     H33510   1.111   8.158   7.255 -3.1760  0.2947 -1.1342
  989MOL0     H33511   1.211   8.308   7.020  1.2230  0.5247  0.8929
  989MOL0     H33512   1.175   8.356   7.184 -2.4569  2.1094 -1.0033
  989MOL0     H33513   0.781   8.384   7.064  0.5221  2.0900  2.3419
  989MOL0     H33514   1.009   7.848   7.404 -1.6843 -2.2116  2.1173
  989MOL0     H33515   0.787   7.792   7.452  0.6577 -1.5364  0.9783
  990MOL0     O33516   1.025   2.709  10.500 -0.3238 -0.2697 -0.8120
  990MOL0     C33517   1.129   2.709  10.434  0.2110  0.5475  0.6847
  990MOL0     O33518   1.148   2.771  10.313  1.0022  0.3141  0.1984
  990MOL0     C33519   1.055   2.860  10.254 -0.5331  0.4391 -0.5648
  990MOL0     C33520   0.957   2.936  10.328 -0.3909  0.1610 -1.0673
  990MOL0     C33521   0.859   3.013  10.263 -1.2320 -0.2383  0.6347
  990MOL0     C33522   0.866   3.021  10.118 -0.1936  0.2466  0.2038
  990MOL0     O33523   0.773   3.084  10.040 -0.7800 -0.3373 -0.2129
  990MOL0     C33524   0.647   3.023  10.021 -1.0546  0.1322  0.7564
  990MOL0     C33525   0.556   3.085  10.105  0.2820  0.2612  0.7086
  990MOL0     C33526   0.429   3.010  10.077  0.0249  1.0661 -0.0866
  990MOL0     C33527   0.304   3.059  10.156 -0.0545 -0.1733  0.9246
  990MOL0     C33528   0.282   3.214  10.138  0.4826  1.3947 -0.6751
  990MOL0     C33529   0.147   3.254  10.206 -0.8966  0.5158  0.5903
  990MOL0     C33530   0.155   3.265  10.361  1.1354  0.2292 -0.2331
  990MOL0     C33531   0.026   3.320  10.428 -0.8509 -0.4963 -0.1083
  990MOL0     N33532  -0.077   3.208  10.429  0.8168  0.3297 -0.1025
  990MOL0     C33533  -0.067   3.091  10.499  0.3405  0.3244 -0.3095
  990MOL0     C33534  -0.180   3.029  10.469  0.3560  0.9422  0.0813
  990MOL0     C33535  -0.226   2.907  10.536  0.4440 -0.2912 -0.3857
  990MOL0     C33536  -0.380   2.904  10.571  0.1367  0.3733 -0.2229
  990MOL0     C33537  -0.464   2.831  10.457 -0.4202  0.6881 -0.7413
  990MOL0     C33538  -0.616   2.857  10.460 -0.0826 -0.0635  0.8045
  990MOL0     O33539  -0.685   2.784  10.571  0.1370  0.1170  0.4070
  990MOL0     C33540  -0.820   2.757  10.567  0.0881 -0.8240  0.4000
  990MOL0     C33541  -0.930   2.841  10.530 -0.1780 -0.1436 -0.1827
  990MOL0     C33542  -1.057   2.795  10.526  0.8983  0.1560  0.9346
  990MOL0     C33543  -1.163   2.892  10.477  1.3269 -0.5232 -0.0363
  990MOL0     C33544  -1.083   2.658  10.558  0.8678  0.0488 -0.8509
  990MOL0     C33545  -1.220   2.598  10.573  0.0153 -0.6505  0.1200
  990MOL0     O33546  -1.225   2.469  10.545  0.2643  0.0821 -0.0217
  990MOL0     C33547  -1.340   2.398  10.567  0.1088  0.2406 -0.6900
  990MOL0     C33548  -1.380   2.293  10.473  0.0375  0.3941  1.2852
  990MOL0     C33549  -1.507   2.233  10.477 -0.0919  0.4199  0.1208
  990MOL0     C33550  -1.590   2.263  10.588 -0.3578 -0.2822 -0.1073
  990MOL0     O33551  -1.710   2.212  10.604 -0.4005  0.8398 -0.7719
  990MOL0     C33552  -1.766   2.153  10.486  0.6025  0.0531 -0.9304
  990MOL0     C33553  -1.898   2.093  10.547 -0.4975  0.5427 -0.2706
  990MOL0     C33554  -1.981   2.009  10.449 -0.3272 -0.8599 -0.5387
  990MOL0     C33555  -2.132   2.041  10.462  0.7161  0.4027  0.5938
  990MOL0     C33556  -2.230   1.952  10.371 -0.0504 -0.4102  0.7324
  990MOL0     C33557  -2.369   1.960  10.428  0.0791  0.2309  0.0161
  990MOL0     C33558  -2.378   1.888  10.565 -1.0246  0.1151  0.3908
  990MOL0     C33559  -2.514   1.816  10.581  0.2074 -0.2346  0.0731
  990MOL0    Cl33560  -2.642   1.943  10.564 -0.4962  0.2761 -0.2451
  990MOL0     C33561  -1.541   2.348  10.689  0.9773 -0.6912  1.1000
  990MOL0     C33562  -1.426   2.413  10.676  0.2319 -0.0842  0.2335
  990MOL0     O33563  -1.312   2.673  10.590  0.3588 -0.0220 -0.0995
  990MOL0     C33564  -0.973   2.580  10.600  0.2979 -0.2109 -0.9363
  990MOL0     C33565  -0.850   2.637  10.620  0.1382  0.2587 -0.1929
  990MOL0     N33566  -0.238   3.089  10.361 -0.0432 -0.1623 -0.4814
  990MOL0     N33567  -0.176   3.198  10.338  0.4291 -0.0708  0.2244
  990MOL0     C33568   0.964   2.956  10.047  0.0615  0.1338 -0.2478
  990MOL0     C33569   1.055   2.874  10.115  0.6228  0.2018  0.5883
  990MOL0     C33570   1.245   2.624  10.474 -0.0481  0.3152 -0.1524
  990MOL0     C33571   1.357   2.608  10.395  0.3234  0.0472 -0.0103
  990MOL0     C33572   1.471   2.540  10.434  0.0509  0.8216 -1.0666
  990MOL0     C33573   1.476   2.477  10.564  0.9976  0.5747  0.5634
  990MOL0     O33574   1.583   2.410  10.609 -0.2227  0.1202 -0.4185
  990MOL0     C33575   1.699   2.392  10.530  1.4121 -0.5723  1.4285
  990MOL0     C33576   1.804   2.328  10.614  0.3593 -0.0378  0.1874
  990MOL0     C33577   1.943   2.307  10.552 -0.8904  0.3144 -1.2473
  990MOL0     C33578   2.022   2.205  10.637  0.9411  0.4794 -0.4985
  990MOL0     C33579   2.160   2.211  10.597  0.0188 -0.9673  0.5744
  990MOL0     C33580   2.273   2.230  10.555  0.1755  1.0470 -0.1776
  990MOL0     C33581   1.363   2.486  10.643  0.0110 -0.9772  0.4014
  990MOL0     C33582   1.251   2.559  10.602  0.1401 -0.6207  0.3276
  990MOL0     H33583   0.938   2.925  10.434 -0.1137  1.5436 -0.8581
  990MOL0     H33584   0.773   3.060  10.310 -0.3952  1.7773  0.2434
  990MOL0     H33585   0.620   3.029   9.915  1.7421 -1.1110 -0.1208
  990MOL0     H33586   0.651   2.916  10.043 -1.2721  0.3134  1.6808
  990MOL0     H33587   0.579   3.089  10.212 -1.3960  2.2892  1.0544
  990MOL0     H33588   0.534   3.188  10.075 -3.0543  0.1509  2.3478
  990MOL0     H33589   0.397   3.013   9.973 -1.2042  0.7868  0.2685
  990MOL0     H33590   0.446   2.903  10.091  3.6029  1.5233  0.0753
  990MOL0     H33591   0.218   3.003  10.120 -1.7872  1.6667  1.9669
  990MOL0     H33592   0.325   3.042  10.262 -3.3225 -1.3248  1.5067
  990MOL0     H33593   0.364   3.259  10.195  2.0513 -1.8348 -0.1637
  990MOL0     H33594   0.277   3.237  10.031  0.1093 -1.1833 -1.2739
  990MOL0     H33595   0.121   3.346  10.153  4.4058  1.3562 -1.1232
  990MOL0     H33596   0.076   3.181  10.165  2.2003 -2.4606  0.0208
  990MOL0     H33597   0.175   3.167  10.406  5.1675  0.9398 -0.0964
  990MOL0     H33598   0.235   3.334  10.389 -1.2284  2.1483  2.3510
  990MOL0     H33599  -0.016   3.407  10.377 -4.0667 -1.7506  0.1869
  990MOL0     H33600   0.053   3.350  10.530  0.3633 -1.4049 -0.1378
  990MOL0     H33601   0.008   3.060  10.571 -0.9806 -2.1625  0.1010
  990MOL0     H33602  -0.204   2.826  10.466  0.7517  0.8262 -1.6408
  990MOL0     H33603  -0.170   2.896  10.629 -0.7968  0.2559  0.4534
  990MOL0     H33604  -0.419   3.006  10.579  1.6112  0.9433 -0.0301
  990MOL0     H33605  -0.401   2.852  10.665 -2.7086 -1.8570 -1.9207
  990MOL0     H33606  -0.434   2.726  10.457 -1.5570  0.2619  1.9933
  990MOL0     H33607  -0.434   2.881  10.365 -2.0278  3.1026 -0.0511
  990MOL0     H33608  -0.658   2.820  10.366  0.0261 -1.5928  1.3271
  990MOL0     H33609  -0.641   2.963  10.461 -1.0495 -0.2752  0.9886
  990MOL0     H33610  -0.898   2.939  10.497  3.6644 -1.3459 -0.5472
  990MOL0     H33611  -1.122   2.964  10.406 -1.1048  1.4145  0.3768
  990MOL0     H33612  -1.243   2.835  10.428 -2.7512  2.4842  2.5049
  990MOL0     H33613  -1.205   2.944  10.564 -0.7283 -0.2114 -1.1622
  990MOL0     H33614  -1.323   2.270  10.384 -0.3346 -0.5504  1.2757
  990MOL0     H33615  -1.520   2.165  10.394  1.3443 -1.4758  1.3723
  990MOL0     H33616  -1.787   2.226  10.407 -1.8231  1.7764  1.1401
  990MOL0     H33617  -1.707   2.067  10.453  0.9110  0.8990 -2.6829
  990MOL0     H33618  -1.866   2.025  10.626  0.0783  0.3700 -0.6408
  990MOL0     H33619  -1.955   2.175  10.591  1.5490  2.0824 -0.3201
  990MOL0     H33620  -1.956   1.905  10.470 -0.7738 -0.8330  0.1949
  990MOL0     H33621  -1.962   2.029  10.344  0.2410 -1.2997 -0.5196
  990MOL0     H33622  -2.169   2.035  10.565 -3.9034  0.5439 -0.8137
  990MOL0     H33623  -2.149   2.143  10.425 -1.4955  0.2483  1.0366
  990MOL0     H33624  -2.193   1.851  10.348  1.4688  0.1236  0.7099
  990MOL0     H33625  -2.232   1.993  10.270  3.1025  1.4024  1.2711
  990MOL0     H33626  -2.413   2.058  10.445 -5.5544 -2.2944  2.7269
  990MOL0     H33627  -2.438   1.901  10.367  1.0807  0.0530 -0.9783
  990MOL0     H33628  -2.355   1.970  10.633  0.7421  1.2368 -1.4345
  990MOL0     H33629  -2.300   1.813  10.581  0.1243  1.1868 -0.0932
  990MOL0     H33630  -2.509   1.775  10.683  1.7452  0.5515  0.3302
  990MOL0     H33631  -2.542   1.745  10.502  1.7085  0.3581 -1.0117
  990MOL0     H33632  -1.598   2.359  10.781 -2.8532 -0.4678 -1.1217
  990MOL0     H33633  -1.397   2.484  10.752 -1.3127  2.6499 -1.5462
  990MOL0     H33634  -0.992   2.477  10.628 -2.1035  0.5147  0.3777
  990MOL0     H33635  -0.770   2.574  10.657 -1.3960 -1.2971  0.6112
  990MOL0     H33636   0.959   2.953   9.939  0.0694  1.7028 -0.3064
  990MOL0     H33637   1.132   2.811  10.071 -1.5784 -2.1052 -0.1661
  990MOL0     H33638   1.359   2.657  10.298  3.2226 -0.9025 -0.5289
  990MOL0     H33639   1.560   2.541  10.373 -0.7507  0.5466 -2.2660
  990MOL0     H33640   1.688   2.326  10.443 -2.3026 -0.3062  1.5318
  990MOL0     H33641   1.737   2.489  10.495  0.2507  0.2233  2.2657
  990MOL0     H33642   1.762   2.232  10.644 -2.7268  1.3072  0.5871
  990MOL0     H33643   1.814   2.395  10.700 -1.9819  0.4918  0.1161
  990MOL0     H33644   1.992   2.405  10.558  3.5402 -1.6803 -0.9868
  990MOL0     H33645   1.944   2.268  10.450 -0.9072  0.6691 -1.3832
  990MOL0     H33646   1.973   2.109  10.620 -0.1988  0.0651  3.8937
  990MOL0     H33647   2.011   2.229  10.743  1.3785 -0.9801 -0.0983
  990MOL0     H33648   2.373   2.214  10.518  0.5039 -4.1984  2.0862
  990MOL0     H33649   1.366   2.447  10.744  0.1994  3.0089  2.1063
  990MOL0     H33650   1.182   2.571  10.685  1.6071 -0.5636  1.5951
  991MOL0     O33651   5.400   3.807   5.618 -0.4231 -0.7693 -0.8623
  991MOL0     C33652   5.290   3.750   5.638  0.0176  0.0842  0.2633
  991MOL0     O33653   5.164   3.799   5.595  0.2528 -0.3888 -0.8944
  991MOL0     C33654   5.147   3.917   5.518  0.2136 -0.4140  0.1313
  991MOL0     C33655   5.240   4.007   5.473  0.0739 -1.0891 -0.3392
  991MOL0     C33656   5.203   4.131   5.420 -0.4588 -0.0406  0.0241
  991MOL0     C33657   5.071   4.174   5.410 -0.4710  0.6774  0.7087
  991MOL0     O33658   5.038   4.294   5.348 -0.3138  0.4686  0.7918
  991MOL0     C33659   4.902   4.344   5.377  0.1894 -0.5950 -0.0682
  991MOL0     C33660   4.903   4.493   5.351  0.0048 -0.4298 -0.2550
  991MOL0     C33661   4.901   4.520   5.202  0.6488 -0.1744 -0.1997
  991MOL0     C33662   4.799   4.440   5.112 -0.3216 -0.7022  0.0674
  991MOL0     C33663   4.775   4.497   4.973  0.2341 -0.0564 -0.1904
  991MOL0     C33664   4.650   4.579   4.967 -0.4744  0.3803  0.8225
  991MOL0     C33665   4.621   4.634   4.826 -0.1694  0.3145  0.2597
  991MOL0     C33666   4.483   4.702   4.829  1.2132 -0.0363 -0.4110
  991MOL0     N33667   4.377   4.599   4.832 -0.4870  0.4287  0.0448
  991MOL0     C33668   4.357   4.503   4.734  0.5366 -0.7434  0.1932
  991MOL0     C33669   4.263   4.417   4.792  0.0419 -1.4540 -0.4437
  991MOL0     C33670   4.210   4.290   4.745  0.8511  0.2752  0.2242
  991MOL0     C33671   4.054   4.274   4.770  0.4074  0.8856 -0.1139
  991MOL0     C33672   3.973   4.393   4.708  0.6709  0.1351  0.3999
  991MOL0     C33673   3.968   4.363   4.556 -0.0551  1.1486  0.1137
  991MOL0     O33674   3.903   4.473   4.485 -1.0488 -0.3987 -0.1179
  991MOL0     C33675   3.766   4.487   4.492  0.4492 -0.4666  0.5461
  991MOL0     C33676   3.718   4.611   4.455  0.9529 -0.0363 -0.5934
  991MOL0     C33677   3.580   4.631   4.458  0.3020 -1.4025 -0.6958
  991MOL0     C33678   3.525   4.766   4.427 -0.1106 -0.4324  0.2224
  991MOL0     C33679   3.488   4.536   4.502  0.1694 -0.2643 -1.1524
  991MOL0     C33680   3.342   4.557   4.497  0.6250  0.8222 -0.1812
  991MOL0     O33681   3.271   4.642   4.399  0.4295 -0.0231 -0.8062
  991MOL0     C33682   3.143   4.681   4.437 -0.2853 -0.4987 -0.1571
  991MOL0     C33683   3.046   4.585   4.415 -0.1715  0.7684  0.2212
  991MOL0     C33684   2.916   4.617   4.461  0.0178  0.5237 -0.0604
  991MOL0     C33685   2.891   4.733   4.535 -0.6464  0.4248  0.3361
  991MOL0     O33686   2.768   4.775   4.591  0.2191 -0.0430 -0.2585
  991MOL0     C33687   2.645   4.708   4.562 -0.0944  0.3915  0.3155
  991MOL0     C33688   2.519   4.792   4.604  0.5315  0.1467 -0.7894
  991MOL0     C33689   2.394   4.757   4.514  0.2104  0.1054 -0.3565
  991MOL0     C33690   2.273   4.837   4.573  0.5736  0.2330  0.6426
  991MOL0     C33691   2.162   4.831   4.463  0.4577 -0.4843 -1.3682
  991MOL0     C33692   2.052   4.927   4.510 -0.3532 -0.3854 -1.1303
  991MOL0     C33693   1.942   4.940   4.417  0.4827 -0.5366  0.7828
  991MOL0     C33694   1.846   4.824   4.435  0.2464 -0.0152 -1.2786
  991MOL0    Cl33695   1.722   4.813   4.306 -0.1354 -0.5109 -0.3701
  991MOL0     C33696   2.993   4.824   4.546 -0.5088  0.3892 -0.6797
  991MOL0     C33697   3.115   4.796   4.501  0.1140 -0.6162  0.5819
  991MOL0     O33698   3.286   4.505   4.597  1.0600  0.2017  0.5987
  991MOL0     C33699   3.539   4.410   4.538  0.5592  0.3770 -0.2984
  991MOL0     C33700   3.671   4.381   4.529 -0.4828 -0.2426  0.0986
  991MOL0     N33701   4.238   4.465   4.924  0.3380 -0.0587  1.0023
  991MOL0     N33702   4.305   4.573   4.939  0.0036 -0.1957  0.3269
  991MOL0     C33703   4.972   4.077   5.438  0.3969  0.2754  1.3237
  991MOL0     C33704   5.015   3.949   5.483 -0.1270  0.2696 -0.5436
  991MOL0     C33705   5.284   3.619   5.709  0.0664  0.0685  0.4092
  991MOL0     C33706   5.393   3.570   5.793 -0.5159  0.0320 -0.3587
  991MOL0     C33707   5.385   3.441   5.855 -1.1782 -0.6136 -0.8935
  991MOL0     C33708   5.273   3.363   5.844  0.6296 -0.7243  0.7024
  991MOL0     O33709   5.253   3.240   5.905  0.5656 -0.7766 -0.1509
  991MOL0     C33710   5.346   3.216   6.010 -0.1845 -0.4336  0.0035
  991MOL0     C33711   5.295   3.109   6.099  0.1188  0.7558 -0.1793
  991MOL0     C33712   5.160   3.120   6.152 -0.7919  0.3626 -0.4661
  991MOL0     C33713   5.132   3.234   6.257 -0.5485 -0.0098 -1.0534
  991MOL0     C33714   5.219   3.231   6.375 -1.2989 -0.3668  0.1386
  991MOL0     C33715   5.297   3.264   6.459 -0.2645  0.2719 -0.6902
  991MOL0     C33716   5.169   3.413   5.760 -0.1039  0.2539 -0.1088
  991MOL0     C33717   5.182   3.526   5.678 -0.8021  0.5050 -0.3529
  991MOL0     H33718   5.345   3.991   5.493 -0.0452 -1.7438 -0.2088
  991MOL0     H33719   5.271   4.209   5.387 -1.8808  1.4453  0.4519
  991MOL0     H33720   4.830   4.289   5.316  0.6905  0.1641 -1.3776
  991MOL0     H33721   4.888   4.337   5.486  2.4444  1.1084  0.4217
  991MOL0     H33722   4.823   4.543   5.407  3.3803  2.2653  2.6816
  991MOL0     H33723   4.987   4.540   5.404 -0.5767 -0.2857  0.5735
  991MOL0     H33724   4.876   4.626   5.203  2.3142  0.5613  5.9526
  991MOL0     H33725   5.001   4.519   5.157  1.1662  2.4624  0.7237
  991MOL0     H33726   4.854   4.347   5.100  1.6855  0.1777  1.6559
  991MOL0     H33727   4.707   4.415   5.165 -0.8571  1.3114  0.2003
  991MOL0     H33728   4.860   4.551   4.931 -1.2008  0.5643 -2.4301
  991MOL0     H33729   4.767   4.409   4.909 -1.6257  0.1421 -0.2806
  991MOL0     H33730   4.571   4.508   4.996  0.4613 -2.1034 -2.1376
  991MOL0     H33731   4.659   4.660   5.039  3.7923  1.2701 -0.4853
  991MOL0     H33732   4.698   4.701   4.785 -0.9374  0.5448 -0.8363
  991MOL0     H33733   4.623   4.542   4.766 -0.5204  0.5067 -0.0481
  991MOL0     H33734   4.463   4.766   4.742 -4.2290  1.2151  1.3554
  991MOL0     H33735   4.471   4.765   4.917  0.4969  1.5501 -1.6035
  991MOL0     H33736   4.397   4.485   4.635  2.8261 -0.5065  1.0107
  991MOL0     H33737   4.246   4.279   4.642  0.6972  1.5862  0.0168
  991MOL0     H33738   4.261   4.208   4.797 -1.9123 -2.0674 -0.4494
  991MOL0     H33739   4.031   4.273   4.877  0.0321 -0.7187 -0.1969
  991MOL0     H33740   4.023   4.177   4.731 -1.1954  0.9079  1.0270
  991MOL0     H33741   4.016   4.492   4.721 -1.4026  1.0308  0.7449
  991MOL0     H33742   3.872   4.398   4.751  0.0659 -0.9718 -0.7953
  991MOL0     H33743   3.916   4.268   4.542  1.6648 -0.1683  2.0545
  991MOL0     H33744   4.067   4.351   4.511 -0.4583 -0.5241 -0.3946
  991MOL0     H33745   3.792   4.688   4.440 -0.4558  1.5667  0.4036
  991MOL0     H33746   3.606   4.840   4.425 -2.4196  2.2667  0.0466
  991MOL0     H33747   3.477   4.759   4.329 -0.3969 -0.3539  0.3558
  991MOL0     H33748   3.447   4.788   4.500 -0.9155 -2.0860 -0.1004
  991MOL0     H33749   3.076   4.497   4.359 -3.0680  1.8709 -3.5304
  991MOL0     H33750   2.834   4.550   4.437 -0.3833  1.2742 -0.8429
  991MOL0     H33751   2.638   4.698   4.453  1.4353  0.7268  0.1629
  991MOL0     H33752   2.625   4.609   4.603 -2.3209 -0.3103 -2.1950
  991MOL0     H33753   2.497   4.788   4.711 -1.1147  1.0731 -1.0568
  991MOL0     H33754   2.550   4.895   4.585 -0.6802  0.8765  0.9624
  991MOL0     H33755   2.376   4.650   4.501 -1.2884  0.1479  1.0041
  991MOL0     H33756   2.416   4.790   4.412 -1.2424  0.0552 -0.7202
  991MOL0     H33757   2.221   4.806   4.664  1.1804  0.4499  1.0643
  991MOL0     H33758   2.294   4.943   4.593  0.7833  0.2604  0.2778
  991MOL0     H33759   2.124   4.729   4.453 -0.6371 -0.0216 -2.1405
  991MOL0     H33760   2.200   4.864   4.365 -0.3020  0.3797 -1.3751
  991MOL0     H33761   2.012   4.907   4.610 -1.8200  4.1013 -0.6037
  991MOL0     H33762   2.095   5.027   4.519 -1.7995  0.1894 -0.2793
  991MOL0     H33763   1.985   4.942   4.316  0.3072 -3.7133  0.5696
  991MOL0     H33764   1.876   5.028   4.421 -0.1001 -0.6637 -2.6201
  991MOL0     H33765   1.794   4.818   4.531  2.7224 -0.0503  0.1473
  991MOL0     H33766   1.891   4.725   4.431 -0.8656 -0.4929 -2.2252
  991MOL0     H33767   2.980   4.916   4.603 -2.9996 -1.0512  1.2919
  991MOL0     H33768   3.183   4.877   4.527  0.9092 -1.3516  0.8462
  991MOL0     H33769   3.478   4.323   4.563 -0.8960  1.6164  0.6545
  991MOL0     H33770   3.694   4.279   4.557 -3.6161 -1.7384 -2.1864
  991MOL0     H33771   4.867   4.090   5.415  0.3821 -2.1146 -0.2754
  991MOL0     H33772   4.937   3.874   5.490  2.0364 -2.0689  0.0117
  991MOL0     H33773   5.484   3.623   5.819 -0.0580 -1.2841  0.9176
  991MOL0     H33774   5.465   3.412   5.922 -1.5292  2.5106  1.0728
  991MOL0     H33775   5.442   3.188   5.967  0.7295  2.8959 -0.4228
  991MOL0     H33776   5.363   3.291   6.088 -4.7595 -0.3075  1.1670
  991MOL0     H33777   5.370   3.091   6.176  1.4026  2.2440 -1.0223
  991MOL0     H33778   5.284   3.018   6.040 -0.6654 -1.3011  2.9190
  991MOL0     H33779   5.148   3.031   6.214  2.3055  0.3785  0.2870
  991MOL0     H33780   5.082   3.107   6.076 -0.0551  0.1119 -1.1937
  991MOL0     H33781   5.030   3.230   6.297 -0.1775  1.2155  0.1020
  991MOL0     H33782   5.148   3.322   6.193 -0.2415 -1.5618 -3.2037
  991MOL0     H33783   5.370   3.292   6.532  0.2502 -1.1760 -0.6256
  991MOL0     H33784   5.072   3.364   5.756 -0.5958  0.5485  3.8165
  991MOL0     H33785   5.107   3.554   5.605  0.1392  0.3416 -1.4092
  992MOL0     O33786   3.637   6.280   4.897  0.0909  0.3279 -0.0607
  992MOL0     C33787   3.750   6.269   4.955  0.2131 -0.1016  0.3293
  992MOL0     O33788   3.773   6.226   5.085  1.2125 -0.9418  0.0625
  992MOL0     C33789   3.672   6.196   5.172  1.7292  0.3224  0.3512
  992MOL0     C33790   3.699   6.094   5.266  0.3557 -0.1432  0.1884
  992MOL0     C33791   3.613   6.063   5.373 -0.4825  0.0467  0.7603
  992MOL0     C33792   3.494   6.130   5.396  0.3258 -0.3527  0.3691
  992MOL0     O33793   3.404   6.100   5.492 -0.1476  0.9808  0.1781
  992MOL0     C33794   3.412   5.971   5.535  0.1785 -0.1595  0.0016
  992MOL0     C33795   3.302   5.927   5.635 -1.3049 -0.5485 -0.0727
  992MOL0     C33796   3.163   5.934   5.576  0.8305 -0.4684  0.6110
  992MOL0     C33797   3.052   5.865   5.664 -0.4402  0.3910 -0.4990
  992MOL0     C33798   2.915   5.903   5.614 -0.9050  0.8423 -0.1774
  992MOL0     C33799   2.803   5.807   5.661 -0.0721 -0.0076 -0.8440
  992MOL0     C33800   2.675   5.811   5.578 -0.1467 -1.2153 -0.1896
  992MOL0     C33801   2.693   5.746   5.439 -0.4558  0.0036 -0.7169
  992MOL0     N33802   2.563   5.743   5.384 -0.4358 -0.0371 -0.0677
  992MOL0     C33803   2.452   5.667   5.407 -0.1827  0.2293 -0.2823
  992MOL0     C33804   2.356   5.697   5.316 -0.2352  0.4781  0.0446
  992MOL0     C33805   2.213   5.647   5.309  0.5102 -0.4396  0.4446
  992MOL0     C33806   2.129   5.654   5.437  0.6129  0.6276 -0.5050
  992MOL0     C33807   2.127   5.788   5.504 -0.1116  0.3129 -0.0685
  992MOL0     C33808   2.032   5.799   5.618  0.9016 -0.0800  0.7121
  992MOL0     O33809   1.916   5.712   5.610  0.1088  0.7370  0.4925
  992MOL0     C33810   1.810   5.756   5.535  0.1903  0.4800 -0.5023
  992MOL0     C33811   1.699   5.678   5.555 -0.0743 -0.5300 -0.3318
  992MOL0     C33812   1.581   5.687   5.481  0.1362 -0.6937  0.3355
  992MOL0     C33813   1.474   5.587   5.512 -0.5974 -0.1757  0.1873
  992MOL0     C33814   1.566   5.788   5.380  0.2781  0.2888 -0.0312
  992MOL0     C33815   1.445   5.808   5.296  0.0367  0.3831 -0.5844
  992MOL0     O33816   1.324   5.766   5.350  0.6216  0.0918  0.5977
  992MOL0     C33817   1.218   5.763   5.270  0.0742 -0.3791  0.4341
  992MOL0     C33818   1.130   5.872   5.284 -0.0711 -0.4574  0.2352
  992MOL0     C33819   1.017   5.879   5.212  0.3044 -0.6697 -0.0348
  992MOL0     C33820   0.988   5.776   5.118  0.4311 -0.8899 -0.0638
  992MOL0     O33821   0.879   5.790   5.046 -0.8136  0.0222  0.1356
  992MOL0     C33822   0.825   5.677   4.967 -0.2608  1.2931  0.1238
  992MOL0     C33823   0.688   5.723   4.928  0.0958  0.5804  0.1878
  992MOL0     C33824   0.604   5.604   4.896  0.2044 -0.6119  0.1369
  992MOL0     C33825   0.492   5.661   4.803  0.4435 -0.0960 -0.3022
  992MOL0     C33826   0.373   5.568   4.808 -0.5351  1.0623 -0.2698
  992MOL0     C33827   0.260   5.613   4.721 -0.5438  0.0341 -0.3655
  992MOL0     C33828   0.118   5.565   4.766 -0.4536 -0.4693 -0.1261
  992MOL0     C33829  -0.006   5.625   4.694 -0.4751 -0.7828  0.4939
  992MOL0    Cl33830  -0.010   5.586   4.521 -0.4552  0.2465  0.3378
  992MOL0     C33831   1.071   5.665   5.113 -0.0807  0.3681  1.5152
  992MOL0     C33832   1.189   5.659   5.180  0.4287 -0.5106 -0.4406
  992MOL0     O33833   1.461   5.866   5.192 -0.6636 -0.4172 -0.1897
  992MOL0     C33834   1.678   5.870   5.362 -0.4538  0.3299 -0.5172
  992MOL0     C33835   1.800   5.857   5.436 -0.3646  0.8305  0.7304
  992MOL0     N33836   2.399   5.797   5.235  0.1775 -0.5003  0.1355
  992MOL0     N33837   2.513   5.825   5.277 -0.5023 -0.4529  0.4470
  992MOL0     C33838   3.466   6.234   5.303 -0.9989  0.7073  0.7610
  992MOL0     C33839   3.557   6.270   5.198  0.1606 -0.3712  1.0118
  992MOL0     C33840   3.861   6.303   4.872  0.7832  0.6665 -0.3470
  992MOL0     C33841   3.992   6.328   4.926 -0.8290  0.5614  0.1329
  992MOL0     C33842   4.092   6.390   4.849  0.2936 -0.2541 -0.0649
  992MOL0     C33843   4.075   6.399   4.710  0.3701 -0.1755 -0.4243
  992MOL0     O33844   4.162   6.455   4.622  0.1535  0.5837  0.2374
  992MOL0     C33845   4.299   6.403   4.633  0.0620 -0.2667 -0.1664
  992MOL0     C33846   4.338   6.272   4.556 -0.4422 -0.0123  0.0876
  992MOL0     C33847   4.278   6.280   4.417 -0.0414  0.3659 -0.6569
  992MOL0     C33848   4.334   6.399   4.334 -0.3543 -0.2778  0.1089
  992MOL0     C33849   4.482   6.384   4.314  0.7721  0.4796 -0.4096
  992MOL0     C33850   4.598   6.375   4.285  0.8870  0.0726  0.0935
  992MOL0     C33851   3.950   6.364   4.658  0.1257  0.0783  0.4362
  992MOL0     C33852   3.846   6.321   4.735 -0.1588  0.1507  0.0391
  992MOL0     H33853   3.799   6.052   5.265  0.2835 -0.3139 -0.4200
  992MOL0     H33854   3.647   5.989   5.444 -0.1613 -2.4321 -1.8012
  992MOL0     H33855   3.411   5.906   5.447  1.5257  0.5706 -0.5778
  992MOL0     H33856   3.506   5.978   5.590  1.1389  3.2220 -1.7943
  992MOL0     H33857   3.303   5.824   5.671 -0.5789 -0.5975 -0.2164
  992MOL0     H33858   3.298   5.998   5.718 -0.7790  2.0300 -2.0972
  992MOL0     H33859   3.127   6.037   5.571 -1.2330 -1.1480  0.3905
  992MOL0     H33860   3.162   5.899   5.472  1.9908 -1.5731  0.9460
  992MOL0     H33861   3.065   5.757   5.650 -0.8630  0.2933 -0.1445
  992MOL0     H33862   3.064   5.885   5.771  1.5740 -2.5600 -0.0297
  992MOL0     H33863   2.895   6.005   5.646 -0.3271  1.3347 -1.3222
  992MOL0     H33864   2.919   5.905   5.504 -0.1388 -0.3396 -0.1878
  992MOL0     H33865   2.842   5.704   5.659 -1.1382 -0.4853  1.0201
  992MOL0     H33866   2.780   5.829   5.765 -2.5603 -1.7180 -0.9471
  992MOL0     H33867   2.594   5.758   5.629 -1.0871  0.1132 -0.2255
  992MOL0     H33868   2.640   5.914   5.560 -0.8547 -0.7963  2.9816
  992MOL0     H33869   2.732   5.647   5.462  0.8018  1.1400  2.7525
  992MOL0     H33870   2.761   5.798   5.371  0.4848 -0.3700 -0.0839
  992MOL0     H33871   2.441   5.589   5.482 -1.3608  0.5445 -0.0991
  992MOL0     H33872   2.162   5.716   5.242 -0.3507 -0.9823  0.5263
  992MOL0     H33873   2.224   5.541   5.285 -0.1246 -0.0915 -1.5259
  992MOL0     H33874   2.166   5.585   5.513  1.6431  0.2810 -1.3067
  992MOL0     H33875   2.029   5.617   5.412  0.5342  0.0418  0.5977
  992MOL0     H33876   2.113   5.872   5.436  0.8190 -0.5522 -1.3586
  992MOL0     H33877   2.226   5.810   5.546 -0.3807  2.1515 -0.2947
  992MOL0     H33878   1.994   5.902   5.615  1.7471  0.2173 -1.4790
  992MOL0     H33879   2.077   5.795   5.717  0.9389 -0.7498  0.6739
  992MOL0     H33880   1.705   5.595   5.625  1.2161 -0.1831 -0.0042
  992MOL0     H33881   1.375   5.618   5.547 -1.2159  2.4172 -3.3688
  992MOL0     H33882   1.439   5.539   5.420  1.2607 -1.0609 -0.1154
  992MOL0     H33883   1.529   5.511   5.569  0.1128  0.5635  0.4945
  992MOL0     H33884   1.138   5.945   5.363 -1.1617  0.5985 -0.5928
  992MOL0     H33885   0.948   5.962   5.230  1.5072 -0.3075  4.0152
  992MOL0     H33886   0.896   5.651   4.888 -2.3277 -0.7218 -1.2110
  992MOL0     H33887   0.815   5.589   5.032  2.0766 -1.4370 -2.8535
  992MOL0     H33888   0.636   5.767   5.014 -0.7911  0.5532 -0.3169
  992MOL0     H33889   0.684   5.789   4.841 -1.5779  0.5335  0.1914
  992MOL0     H33890   0.555   5.560   4.984 -0.2313 -1.8458 -0.6816
  992MOL0     H33891   0.667   5.536   4.839  0.4929 -0.9915  0.8989
  992MOL0     H33892   0.455   5.758   4.839 -0.4975 -0.7861  0.6544
  992MOL0     H33893   0.530   5.683   4.703 -2.1965  1.6887 -1.0123
  992MOL0     H33894   0.335   5.574   4.911 -2.1663  0.4159 -0.8078
  992MOL0     H33895   0.406   5.467   4.780  1.6636  1.6759 -0.0892
  992MOL0     H33896   0.261   5.722   4.728  0.6966 -0.0210  0.7051
  992MOL0     H33897   0.273   5.589   4.615 -1.1500  1.0602 -0.6787
  992MOL0     H33898   0.101   5.604   4.867  2.5675  0.0536  0.2804
  992MOL0     H33899   0.121   5.455   4.768  2.2655 -0.4735  1.2424
  992MOL0     H33900   0.000   5.733   4.714  1.2463 -0.5757 -0.8970
  992MOL0     H33901  -0.098   5.581   4.733 -0.7018 -2.5707 -1.8365
  992MOL0     H33902   1.056   5.578   5.049 -0.9827  0.7394  1.2022
  992MOL0     H33903   1.253   5.573   5.160 -0.3814 -1.3648  0.5136
  992MOL0     H33904   1.671   5.949   5.289 -1.4256  0.0179 -0.7767
  992MOL0     H33905   1.890   5.914   5.414 -1.2630  3.0371  2.3400
  992MOL0     H33906   3.385   6.302   5.328  0.9087  3.3643  0.1873
  992MOL0     H33907   3.531   6.352   5.131  1.6489  0.1174  0.9959
  992MOL0     H33908   4.003   6.296   5.029  0.6232  0.1669 -0.1229
  992MOL0     H33909   4.176   6.435   4.901  0.4981  3.2688 -2.9963
  992MOL0     H33910   4.365   6.477   4.586 -0.1219 -2.0558 -3.5381
  992MOL0     H33911   4.341   6.393   4.733  2.2533  0.5164 -0.9478
  992MOL0     H33912   4.294   6.185   4.605  0.4405  0.5173  1.9105
  992MOL0     H33913   4.446   6.257   4.546 -0.3869 -0.7125  1.4719
  992MOL0     H33914   4.169   6.285   4.418 -0.4076 -3.7243 -1.3036
  992MOL0     H33915   4.318   6.191   4.368  2.8535  0.1781  1.7626
  992MOL0     H33916   4.309   6.496   4.379 -2.3397 -0.8213  0.2687
  992MOL0     H33917   4.295   6.406   4.232 -1.0964 -3.3305  0.1038
  992MOL0     H33918   4.703   6.392   4.269  1.2288 -0.1349  1.8925
  992MOL0     H33919   3.932   6.382   4.552 -4.1440 -0.6662  0.8393
  992MOL0     H33920   3.756   6.297   4.679  2.4804 -2.7862 -3.4836
  993MOL0     O33921   6.328   6.419   2.256  0.1683  0.3682 -0.0510
  993MOL0     C33922   6.297   6.387   2.376 -0.5357 -0.3368  0.0923
  993MOL0     O33923   6.174   6.364   2.425  0.0920 -0.1296  0.1533
  993MOL0     C33924   6.081   6.363   2.324  0.5206 -0.0058 -0.3394
  993MOL0     C33925   6.035   6.487   2.282  0.2591  0.5408  0.2380
  993MOL0     C33926   5.922   6.502   2.199  0.6802 -0.3796 -0.7218
  993MOL0     C33927   5.859   6.390   2.155 -0.1605 -0.3605 -0.2108
  993MOL0     O33928   5.743   6.406   2.082 -0.3826 -0.4498  0.0633
  993MOL0     C33929   5.633   6.369   2.159 -1.3494  0.5205 -0.4919
  993MOL0     C33930   5.517   6.432   2.106  0.3724 -0.8352 -0.7671
  993MOL0     C33931   5.391   6.392   2.187  0.0338 -0.9571  0.8912
  993MOL0     C33932   5.270   6.491   2.157 -1.3904  0.6079  0.6208
  993MOL0     C33933   5.129   6.440   2.193 -0.3885  0.1818  0.0134
  993MOL0     C33934   5.069   6.316   2.121 -0.1739 -0.0810 -0.1705
  993MOL0     C33935   4.929   6.290   2.175  0.4216 -0.5378  0.1673
  993MOL0     C33936   4.855   6.198   2.079 -0.0410  1.3731 -0.0661
  993MOL0     N33937   4.907   6.063   2.069  0.4235  0.2031 -0.3634
  993MOL0     C33938   4.959   5.987   2.171  0.3690  0.3761 -0.7966
  993MOL0     C33939   5.016   5.875   2.113  0.2999 -0.7892  0.8090
  993MOL0     C33940   5.068   5.757   2.190 -0.8892  0.5613  0.2064
  993MOL0     C33941   5.215   5.755   2.180  0.5274  0.4900 -0.8088
  993MOL0     C33942   5.269   5.873   2.262  0.2536  0.0925  1.1282
  993MOL0     C33943   5.420   5.890   2.250 -0.5808  0.3507 -0.9160
  993MOL0     O33944   5.451   6.003   2.324 -0.4353 -0.1479 -0.1735
  993MOL0     C33945   5.570   6.021   2.376 -0.5455  0.0949 -0.0638
  993MOL0     C33946   5.577   6.107   2.486 -0.6134 -0.2740  0.1894
  993MOL0     C33947   5.701   6.127   2.560  0.8467 -0.2943 -0.0886
  993MOL0     C33948   5.678   6.213   2.681  1.0707 -0.3139  0.4603
  993MOL0     C33949   5.817   6.063   2.511  0.2996 -0.0520 -0.4893
  993MOL0     C33950   5.949   6.083   2.581 -0.5148 -0.7314 -0.2645
  993MOL0     O33951   6.053   6.025   2.527  0.4626  0.5465  0.3054
  993MOL0     C33952   6.177   6.011   2.587  1.2501 -0.2630 -0.2111
  993MOL0     C33953   6.289   6.031   2.516 -0.2568 -0.7290  0.3742
  993MOL0     C33954   6.412   6.014   2.579  0.4529 -0.1314  0.5610
  993MOL0     C33955   6.428   5.977   2.712 -0.0863 -0.9725 -0.6173
  993MOL0     O33956   6.554   5.978   2.767 -0.6212 -0.5036  0.0566
  993MOL0     C33957   6.567   5.955   2.906  0.9561 -0.5697  0.3924
  993MOL0     C33958   6.699   6.000   2.970  0.8338  0.3057  0.0910
  993MOL0     C33959   6.821   5.971   2.887  0.0669 -1.2333  0.7370
  993MOL0     C33960   6.933   5.896   2.961  0.2615  0.2902  0.2184
  993MOL0     C33961   7.034   5.983   3.045 -0.2088  0.3549 -0.0827
  993MOL0     C33962   7.135   6.062   2.959  0.3990  0.0679  0.0228
  993MOL0     C33963   7.222   6.167   3.025  0.1379 -0.7354 -0.5254
  993MOL0     C33964   7.359   6.147   3.061 -0.6325 -0.0971 -0.2390
  993MOL0    Cl33965   7.464   6.086   2.935  0.4811  0.5468  0.4566
  993MOL0     C33966   6.315   5.950   2.788  0.5663  0.5903  0.4730
  993MOL0     C33967   6.189   5.950   2.717 -0.7127 -0.0192 -0.9143
  993MOL0     O33968   5.960   6.166   2.682 -0.9148  0.5406  0.6183
  993MOL0     C33969   5.803   5.972   2.404 -0.0467  0.4422 -0.6406
  993MOL0     C33970   5.682   5.948   2.335  0.0875 -0.3140  0.2219
  993MOL0     N33971   5.009   5.902   1.975 -0.1870  1.1270  0.0073
  993MOL0     N33972   4.940   6.006   1.949  0.9558 -0.3438  0.2825
  993MOL0     C33973   5.913   6.262   2.173  0.8904  0.1890 -0.6063
  993MOL0     C33974   6.021   6.252   2.269  0.5234  0.4270 -0.1972
  993MOL0     C33975   6.398   6.393   2.479 -0.0687  0.6836 -0.0831
  993MOL0     C33976   6.518   6.463   2.458  0.0597  0.0234  0.1810
  993MOL0     C33977   6.616   6.474   2.561 -0.3726  0.4244  0.4914
  993MOL0     C33978   6.590   6.417   2.688  0.1082 -0.7817  0.5704
  993MOL0     O33979   6.668   6.434   2.799 -0.2377 -0.0748  0.5127
  993MOL0     C33980   6.784   6.519   2.810 -0.2311 -0.0417  0.3681
  993MOL0     C33981   6.887   6.453   2.894  0.0814  0.6363  0.7408
  993MOL0     C33982   6.871   6.496   3.038 -0.2463 -0.0372  0.2963
  993MOL0     C33983   6.987   6.464   3.128  0.0187  0.0680 -0.7182
  993MOL0     C33984   6.949   6.495   3.266  0.1712 -0.5125 -0.2641
  993MOL0     C33985   6.927   6.532   3.379 -0.6988  0.3629 -0.3928
  993MOL0     C33986   6.472   6.345   2.706  0.1600  0.2664  0.1282
  993MOL0     C33987   6.371   6.330   2.603 -0.2469 -1.3442 -0.2392
  993MOL0     H33988   6.082   6.577   2.322  0.1549  0.7742 -0.1584
  993MOL0     H33989   5.880   6.600   2.179 -1.6674 -1.4876 -1.7453
  993MOL0     H33990   5.625   6.260   2.148  0.0063  0.5056 -1.6446
  993MOL0     H33991   5.646   6.388   2.266  1.5605  0.6489 -0.8000
  993MOL0     H33992   5.532   6.537   2.135  2.1547 -1.7175  1.9075
  993MOL0     H33993   5.503   6.414   2.000  3.4007  1.2105 -1.6441
  993MOL0     H33994   5.371   6.290   2.154  1.8301 -1.1680  0.3674
  993MOL0     H33995   5.419   6.395   2.293 -0.9326  0.3528  1.1337
  993MOL0     H33996   5.288   6.582   2.214  0.6278 -0.3392  1.6061
  993MOL0     H33997   5.267   6.511   2.050  1.4729 -3.1134 -0.3581
  993MOL0     H33998   5.120   6.417   2.300 -3.0569 -1.0341 -0.3973
  993MOL0     H33999   5.067   6.526   2.167  0.4652  1.8546  2.9745
  993MOL0     H34000   5.068   6.350   2.018  1.0261  2.1725  0.4968
  993MOL0     H34001   5.133   6.228   2.134  0.7096  0.7773  1.6922
  993MOL0     H34002   4.932   6.248   2.276  2.3706  0.2074  0.4598
  993MOL0     H34003   4.874   6.385   2.177  1.2955 -0.0187 -0.0533
  993MOL0     H34004   4.851   6.249   1.982 -2.2277  0.8942 -0.2814
  993MOL0     H34005   4.757   6.191   2.127  0.6405  0.1419  1.2277
  993MOL0     H34006   4.963   6.000   2.279 -1.6797  0.0554 -0.6440
  993MOL0     H34007   5.033   5.754   2.294 -1.2451 -2.1786  0.0867
  993MOL0     H34008   5.029   5.668   2.140 -2.9371  1.0737  0.8058
  993MOL0     H34009   5.237   5.759   2.073  1.8874  0.1850 -0.5557
  993MOL0     H34010   5.251   5.658   2.216 -3.0727 -0.9644 -0.6336
  993MOL0     H34011   5.239   5.872   2.367 -0.3349  0.8508  0.9713
  993MOL0     H34012   5.223   5.969   2.239  2.4060  1.6534  2.8335
  993MOL0     H34013   5.448   5.901   2.145 -0.9731  0.7643 -0.9810
  993MOL0     H34014   5.480   5.816   2.304  1.2070  2.7877  0.6515
  993MOL0     H34015   5.478   6.130   2.526  0.1594 -1.3339  3.0098
  993MOL0     H34016   5.571   6.213   2.704  0.8220  3.3606 -0.0864
  993MOL0     H34017   5.721   6.157   2.765  0.1903 -0.9580  0.4986
  993MOL0     H34018   5.705   6.319   2.680  0.3268 -0.1196  0.5177
  993MOL0     H34019   6.288   6.070   2.415  0.4475 -0.3570  0.5064
  993MOL0     H34020   6.505   6.035   2.527  2.3089 -2.7912  2.5623
  993MOL0     H34021   6.482   6.001   2.958 -0.0536 -1.2786 -0.5826
  993MOL0     H34022   6.554   5.847   2.914  1.7770 -0.7832 -0.9492
  993MOL0     H34023   6.698   6.109   2.973  0.7327  0.4663 -2.9740
  993MOL0     H34024   6.710   5.960   3.072  3.0232 -2.3047 -1.0525
  993MOL0     H34025   6.863   6.063   2.847 -1.3792 -1.4592 -1.4950
  993MOL0     H34026   6.796   5.910   2.799 -1.1138  1.0355 -0.5723
  993MOL0     H34027   6.880   5.832   3.033 -0.8580 -0.4265 -1.1940
  993MOL0     H34028   6.988   5.834   2.890  0.2253  0.8798 -0.3363
  993MOL0     H34029   7.084   5.937   3.130 -2.2229 -0.7897  0.5657
  993MOL0     H34030   6.973   6.062   3.092  1.1789  1.5542 -0.2329
  993MOL0     H34031   7.197   5.991   2.903  0.9467 -1.3703  2.3307
  993MOL0     H34032   7.071   6.123   2.894 -1.8674 -3.6380 -1.5002
  993MOL0     H34033   7.166   6.214   3.107  1.5044  3.9256 -1.9362
  993MOL0     H34034   7.238   6.250   2.956  1.0189  0.0692  0.5943
  993MOL0     H34035   7.361   6.080   3.148 -1.5750 -0.1706 -0.2639
  993MOL0     H34036   7.407   6.244   3.076  1.5258 -1.3000  1.2798
  993MOL0     H34037   6.314   5.910   2.889 -1.5093 -0.3728  0.1359
  993MOL0     H34038   6.096   5.944   2.773  1.4799  1.2632  3.2811
  993MOL0     H34039   5.892   5.915   2.377 -1.5084 -0.9067 -2.9816
  993MOL0     H34040   5.674   5.878   2.253  0.2836  0.7224 -0.7082
  993MOL0     H34041   5.864   6.175   2.131 -0.4003  2.0899 -3.3081
  993MOL0     H34042   6.058   6.151   2.278  2.5573  1.1805  0.4623
  993MOL0     H34043   6.543   6.495   2.358 -1.7500 -0.2397 -0.3951
  993MOL0     H34044   6.710   6.517   2.528  0.9060 -1.6664  1.1959
  993MOL0     H34045   6.830   6.538   2.712  1.6697  1.3036  1.4540
  993MOL0     H34046   6.748   6.614   2.851 -4.0030 -0.0464 -2.4084
  993MOL0     H34047   6.987   6.479   2.858 -0.8589  1.6612 -1.2953
  993MOL0     H34048   6.878   6.344   2.889 -0.0174  0.6923 -1.3568
  993MOL0     H34049   6.786   6.440   3.078  0.3508 -0.6138  0.7789
  993MOL0     H34050   6.857   6.604   3.029 -1.7400 -0.3516 -2.6285
  993MOL0     H34051   7.081   6.509   3.095  0.5907 -1.1401 -0.7820
  993MOL0     H34052   6.993   6.355   3.129 -2.6891 -0.2330  2.4988
  993MOL0     H34053   6.914   6.557   3.482 -1.3626 -4.2578  0.8586
  993MOL0     H34054   6.444   6.298   2.800 -0.0446 -2.2250 -1.0818
  993MOL0     H34055   6.276   6.280   2.619 -2.0638  2.1954  1.1627
  994MOL0     O34056  10.991   6.614   2.670 -0.7388 -0.8052  0.1088
  994MOL0     C34057  11.077   6.546   2.717  0.9474 -0.2114 -0.3638
  994MOL0     O34058  11.078   6.410   2.737  0.0471  0.1640 -0.0397
  994MOL0     C34059  10.970   6.344   2.690 -0.9969 -1.2473 -0.2069
  994MOL0     C34060  10.837   6.366   2.731  0.0621 -0.3404 -0.1545
  994MOL0     C34061  10.737   6.298   2.668 -0.3254 -0.1243 -0.5981
  994MOL0     C34062  10.761   6.204   2.559  0.1256 -0.2922 -1.7632
  994MOL0     O34063  10.667   6.130   2.502 -0.1091  0.7871 -0.0538
  994MOL0     C34064  10.528   6.116   2.562 -0.3236 -0.0535  0.1157
  994MOL0     C34065  10.460   5.997   2.498  0.8151 -0.2866 -0.4516
  994MOL0     C34066  10.326   6.032   2.454  0.9722 -0.0444 -0.1277
  994MOL0     C34067  10.231   5.913   2.449 -0.2354 -0.5611 -0.5469
  994MOL0     C34068  10.081   5.953   2.471 -0.0108  0.0880 -0.2430
  994MOL0     C34069  10.011   5.981   2.334 -0.4226  0.2076 -0.1938
  994MOL0     C34070   9.861   6.022   2.355 -0.7671 -0.5917  0.2516
  994MOL0     C34071   9.786   6.035   2.220 -0.3015  0.5884  0.4096
  994MOL0     N34072   9.640   6.039   2.248  0.5062  0.2064  1.0446
  994MOL0     C34073   9.565   5.950   2.321 -0.1283  0.2855  0.5276
  994MOL0     C34074   9.436   5.999   2.325 -0.3113  0.4744 -0.6180
  994MOL0     C34075   9.320   5.916   2.369 -0.3621  0.7468 -0.4823
  994MOL0     C34076   9.193   5.966   2.316  0.5803  0.3611 -0.1705
  994MOL0     C34077   9.072   5.906   2.386 -0.1013  0.0747 -1.0511
  994MOL0     C34078   8.942   5.970   2.337 -0.2941 -0.5297  0.0734
  994MOL0     O34079   8.934   6.113   2.332  0.2169 -0.6257 -0.5586
  994MOL0     C34080   8.825   6.163   2.263  0.4741  0.1402 -1.0413
  994MOL0     C34081   8.834   6.279   2.192 -0.1504 -0.2112 -0.3149
  994MOL0     C34082   8.729   6.347   2.121  0.2632 -1.0671 -0.1242
  994MOL0     C34083   8.758   6.479   2.058 -0.2707 -0.2332 -0.1288
  994MOL0     C34084   8.599   6.281   2.116 -0.1194  0.2869 -0.2788
  994MOL0     C34085   8.480   6.324   2.047 -0.4767 -0.0737 -0.4133
  994MOL0     O34086   8.363   6.273   2.105  0.6161 -0.2363  0.1586
  994MOL0     C34087   8.239   6.324   2.059 -0.5399 -0.5006 -0.3543
  994MOL0     C34088   8.140   6.229   2.050  0.4360 -0.3977  0.4148
  994MOL0     C34089   8.012   6.258   2.008 -0.0263  0.9740  0.8549
  994MOL0     C34090   7.983   6.381   1.960 -0.5437 -0.6296 -0.3620
  994MOL0     O34091   7.853   6.391   1.928  0.0181 -0.0611 -0.6742
  994MOL0     C34092   7.810   6.511   1.864 -0.2837 -0.2112 -0.5312
  994MOL0     C34093   7.669   6.510   1.858  0.5347 -0.2504  1.0712
  994MOL0     C34094   7.611   6.401   1.755 -0.3734 -0.5233 -1.3688
  994MOL0     C34095   7.465   6.368   1.779 -0.2430 -0.4194  0.6839
  994MOL0     C34096   7.416   6.288   1.656  0.8960  0.2731  0.0848
  994MOL0     C34097   7.283   6.211   1.688  0.5690 -0.6516 -0.5939
  994MOL0     C34098   7.315   6.090   1.767  0.5279 -0.0082  0.1732
  994MOL0     C34099   7.200   5.987   1.786 -0.1005 -0.9952  0.4333
  994MOL0    Cl34100   7.052   6.048   1.885  0.6498  0.1696 -0.0346
  994MOL0     C34101   8.084   6.486   1.954 -0.2007 -0.0845 -0.7301
  994MOL0     C34102   8.211   6.454   2.008 -0.2595 -0.3450  0.2083
  994MOL0     O34103   8.488   6.403   1.958  0.0249 -0.1799  0.3970
  994MOL0     C34104   8.589   6.163   2.199 -1.1353 -1.0247  0.0863
  994MOL0     C34105   8.696   6.116   2.277 -0.4719  0.3746  0.6786
  994MOL0     N34106   9.438   6.115   2.251 -0.3254  0.1428 -0.7178
  994MOL0     N34107   9.561   6.138   2.211  0.4241  0.0562 -0.2743
  994MOL0     C34108  10.894   6.194   2.511  0.2336  0.2411  0.1697
  994MOL0     C34109  11.004   6.255   2.586  0.8485  0.4106 -0.0160
  994MOL0     C34110  11.207   6.613   2.765  1.3907 -0.3185 -1.2594
  994MOL0     C34111  11.322   6.542   2.800  0.5166  0.2617 -0.2052
  994MOL0     C34112  11.446   6.600   2.842  0.6256  0.0450 -0.7978
  994MOL0     C34113  11.438   6.734   2.868 -0.1217  0.0079 -0.5082
  994MOL0     O34114  11.548   6.812   2.900  0.7348  0.0113  0.3425
  994MOL0     C34115  11.666   6.750   2.964 -0.0793  0.4350 -0.6043
  994MOL0     C34116  11.782   6.707   2.871  0.2029 -0.0313  0.8309
  994MOL0     C34117  11.897   6.668   2.958  0.8179 -0.1202 -0.9800
  994MOL0     C34118  11.962   6.795   3.011 -0.0305  0.3853  0.1978
  994MOL0     C34119  12.113   6.782   3.013  0.6579  0.6464  0.2964
  994MOL0     C34120  12.238   6.784   3.028  0.7410  0.2786  0.7128
  994MOL0     C34121  11.325   6.805   2.840 -0.3404 -0.6882  0.5924
  994MOL0     C34122  11.213   6.747   2.788 -0.9789  0.3754 -0.2268
  994MOL0     H34123  10.803   6.425   2.816  1.1103  0.5558 -0.3379
  994MOL0     H34124  10.640   6.320   2.712  1.2057  4.2639  1.0627
  994MOL0     H34125  10.520   6.094   2.668 -0.6313  4.6613  1.2895
  994MOL0     H34126  10.471   6.208   2.547  0.6822  0.2583 -2.4083
  994MOL0     H34127  10.513   5.952   2.413 -1.1813 -0.5686 -1.6194
  994MOL0     H34128  10.455   5.916   2.571 -1.2618 -0.2839 -0.5398
  994MOL0     H34129  10.278   6.103   2.522  1.4418  2.2163 -1.9858
  994MOL0     H34130  10.332   6.092   2.362 -0.9061  0.1600 -0.1524
  994MOL0     H34131  10.245   5.863   2.353 -1.0539  1.8193 -1.9915
  994MOL0     H34132  10.272   5.847   2.526 -2.8368  0.1561  1.6157
  994MOL0     H34133  10.033   5.873   2.528  0.6907  0.7888  1.3783
  994MOL0     H34134  10.060   6.044   2.528 -2.1730 -1.0441  0.8867
  994MOL0     H34135  10.062   6.061   2.279  1.8351 -1.8549 -1.3027
  994MOL0     H34136  10.009   5.901   2.260 -0.8808  0.2517 -0.2344
  994MOL0     H34137   9.824   5.935   2.410  1.3332  0.1997  3.1516
  994MOL0     H34138   9.847   6.117   2.407 -0.5568  0.3784 -1.3826
  994MOL0     H34139   9.816   5.940   2.174  0.0902  0.5505  0.7346
  994MOL0     H34140   9.829   6.116   2.161  0.8504 -0.3934 -0.1331
  994MOL0     H34141   9.603   5.852   2.349 -1.1710  0.0750  1.2621
  994MOL0     H34142   9.335   5.813   2.333  0.2754  0.6875 -0.0643
  994MOL0     H34143   9.318   5.905   2.478 -2.8954  0.5778 -0.4866
  994MOL0     H34144   9.179   5.935   2.212  2.2334  0.1286 -0.3558
  994MOL0     H34145   9.181   6.075   2.313  0.9269  0.4760  1.4632
  994MOL0     H34146   9.090   5.927   2.492  0.8106  2.0815 -1.5674
  994MOL0     H34147   9.064   5.797   2.373 -2.0932  0.0051  0.3043
  994MOL0     H34148   8.879   5.951   2.425  2.5157  1.8279  2.8273
  994MOL0     H34149   8.908   5.931   2.241 -0.1081  0.2026 -0.2955
  994MOL0     H34150   8.929   6.331   2.192  0.0238 -0.1482 -4.5002
  994MOL0     H34151   8.739   6.477   1.950 -0.5634 -0.3104 -0.0795
  994MOL0     H34152   8.712   6.557   2.120  0.7271  0.1401  0.1532
  994MOL0     H34153   8.865   6.497   2.049 -0.2887 -1.1423 -3.4934
  994MOL0     H34154   8.147   6.134   2.101 -0.8130 -0.2235  0.9690
  994MOL0     H34155   7.922   6.198   2.022 -0.4671  1.4028 -0.0723
  994MOL0     H34156   7.852   6.592   1.924  1.9221 -0.9143 -1.0181
  994MOL0     H34157   7.856   6.519   1.766 -0.3682  1.0854 -0.4785
  994MOL0     H34158   7.627   6.482   1.954  1.5981 -0.7140  1.4244
  994MOL0     H34159   7.628   6.608   1.834 -0.4004 -1.0073 -0.6933
  994MOL0     H34160   7.657   6.303   1.771 -2.5419 -1.2629  1.3166
  994MOL0     H34161   7.628   6.436   1.653 -1.2443  1.6739 -0.8190
  994MOL0     H34162   7.445   6.326   1.878  1.5725  0.6045  1.5375
  994MOL0     H34163   7.418   6.465   1.795  0.4631 -0.2721  2.0287
  994MOL0     H34164   7.493   6.218   1.621 -1.3413 -0.6213 -3.6597
  994MOL0     H34165   7.401   6.356   1.572  0.4923 -3.2659 -2.9789
  994MOL0     H34166   7.212   6.271   1.745  1.3335 -0.8065  0.5412
  994MOL0     H34167   7.233   6.183   1.595 -2.4001  3.3915 -0.4762
  994MOL0     H34168   7.349   6.122   1.866 -0.7455  0.6860  0.3973
  994MOL0     H34169   7.394   6.034   1.715 -2.1780 -0.5523 -3.7810
  994MOL0     H34170   7.243   5.903   1.841  1.1306 -1.0065 -0.4838
  994MOL0     H34171   7.166   5.935   1.696 -1.1763 -0.5247  0.5565
  994MOL0     H34172   8.080   6.590   1.922  1.7255 -0.5604 -2.7485
  994MOL0     H34173   8.288   6.531   2.013 -0.5256 -0.1796  2.8483
  994MOL0     H34174   8.492   6.121   2.220 -0.5910 -2.9973 -1.0953
  994MOL0     H34175   8.664   6.034   2.341 -1.3943  0.3185  0.1633
  994MOL0     H34176  10.918   6.136   2.422 -3.4322 -0.9196 -0.2495
  994MOL0     H34177  11.110   6.247   2.564  0.4107 -0.7646 -1.8808
  994MOL0     H34178  11.315   6.434   2.786 -1.8001  0.1811  0.9599
  994MOL0     H34179  11.535   6.545   2.872 -0.5537 -1.7133 -0.4350
  994MOL0     H34180  11.700   6.812   3.047 -1.1549 -1.1488  1.1047
  994MOL0     H34181  11.632   6.662   3.019  1.0237 -0.5104 -1.3789
  994MOL0     H34182  11.812   6.777   2.792 -0.5158  0.8710  1.3419
  994MOL0     H34183  11.747   6.616   2.821  1.1535  0.4153 -0.7287
  994MOL0     H34184  11.974   6.607   2.909  0.5511  0.9395 -2.8203
  994MOL0     H34185  11.859   6.609   3.041 -0.5790  0.4013 -1.2309
  994MOL0     H34186  11.931   6.808   3.114 -0.9240 -0.4969  0.0579
  994MOL0     H34187  11.946   6.880   2.944  3.2624  0.5242 -0.5928
  994MOL0     H34188  12.341   6.768   3.052  0.4371 -0.0285  1.8748
  994MOL0     H34189  11.306   6.911   2.858 -1.2342 -1.1911  2.9809
  994MOL0     H34190  11.121   6.798   2.765 -2.2826 -1.2023  1.2110
  995MOL0     O34191   5.435   3.462   3.179  0.0146  0.2108 -0.1229
  995MOL0     C34192   5.523   3.448   3.097 -1.0882 -0.1490  0.5630
  995MOL0     O34193   5.562   3.338   3.029 -0.1515  0.2431 -0.2283
  995MOL0     C34194   5.497   3.225   3.060  0.5086  0.7551  0.7705
  995MOL0     C34195   5.358   3.221   3.052 -0.2134  0.1210 -0.5534
  995MOL0     C34196   5.296   3.097   3.082 -0.5020 -0.0054 -0.2723
  995MOL0     C34197   5.363   2.980   3.111  0.8979  0.3682  0.9455
  995MOL0     O34198   5.287   2.868   3.126 -0.3901 -0.9258 -1.1367
  995MOL0     C34199   5.346   2.736   3.106 -0.2330 -0.3829 -0.7494
  995MOL0     C34200   5.232   2.639   3.145  0.3609  0.0700 -0.7584
  995MOL0     C34201   5.177   2.652   3.287  0.8581  0.1519 -0.7798
  995MOL0     C34202   5.088   2.532   3.330  0.8323  0.1937  0.6959
  995MOL0     C34203   4.932   2.567   3.311  0.9494 -0.0940 -0.3387
  995MOL0     C34204   4.822   2.464   3.363 -1.1194  0.2968 -0.1627
  995MOL0     C34205   4.686   2.525   3.340 -0.1842  0.3700  0.1171
  995MOL0     C34206   4.569   2.427   3.327  0.5141  0.3286 -0.3173
  995MOL0     N34207   4.449   2.488   3.273 -0.7907 -0.7396  0.3101
  995MOL0     C34208   4.361   2.567   3.327  0.2243 -0.1797  0.0962
  995MOL0     C34209   4.269   2.594   3.231 -0.3390  0.3002  0.7558
  995MOL0     C34210   4.132   2.655   3.241 -0.1284 -0.0818 -0.4092
  995MOL0     C34211   4.120   2.769   3.142 -0.3777  0.7110  0.3155
  995MOL0     C34212   4.030   2.885   3.196  0.5733 -0.9322 -0.2559
  995MOL0     C34213   3.884   2.855   3.210 -0.5108 -0.5374  0.6053
  995MOL0     O34214   3.825   2.947   3.296  0.4427 -0.5302  0.6375
  995MOL0     C34215   3.692   2.919   3.326 -0.7151  0.6827 -0.1674
  995MOL0     C34216   3.592   2.891   3.226 -0.5138  0.0739  0.2741
  995MOL0     C34217   3.453   2.874   3.251  0.4791 -0.7072 -0.0145
  995MOL0     C34218   3.352   2.859   3.136  0.2584 -0.0130  0.1040
  995MOL0     C34219   3.408   2.871   3.383  0.1668 -0.2872 -0.3734
  995MOL0     C34220   3.269   2.840   3.419 -0.1107 -0.1738  0.0578
  995MOL0     O34221   3.221   2.733   3.358  0.3002 -0.3910 -0.2191
  995MOL0     C34222   3.079   2.714   3.374  0.3074  0.2552 -0.9525
  995MOL0     C34223   2.988   2.768   3.286 -0.6542 -0.0656 -0.2165
  995MOL0     C34224   2.853   2.742   3.293  0.4621 -0.3813 -0.0251
  995MOL0     C34225   2.802   2.663   3.384  0.1041 -0.1039 -0.3652
  995MOL0     O34226   2.662   2.664   3.386  0.3672 -0.4453  0.1283
  995MOL0     C34227   2.593   2.557   3.451 -0.2959  0.6453  0.3019
  995MOL0     C34228   2.448   2.578   3.422 -0.8276  0.3996 -0.0376
  995MOL0     C34229   2.362   2.461   3.463  0.0348  0.5260  0.1370
  995MOL0     C34230   2.212   2.493   3.484 -0.4252 -0.7640  0.3942
  995MOL0     C34231   2.115   2.371   3.520 -0.9899 -0.5285 -0.6589
  995MOL0     C34232   2.151   2.289   3.644  0.4916  0.5537 -0.0495
  995MOL0     C34233   2.037   2.213   3.691 -0.3058  0.4870 -0.1426
  995MOL0     C34234   1.949   2.285   3.789 -0.0273 -0.7102  0.0969
  995MOL0    Cl34235   1.814   2.178   3.846  0.0853  0.1394 -0.1059
  995MOL0     C34236   2.887   2.595   3.480  0.3806 -0.3621  0.3161
  995MOL0     C34237   3.025   2.624   3.465 -0.6227  0.6167  0.1537
  995MOL0     O34238   3.210   2.922   3.482 -0.3759 -0.5379  0.9579
  995MOL0     C34239   3.501   2.886   3.484  0.0679  0.1529  0.3619
  995MOL0     C34240   3.641   2.914   3.458 -0.1422 -0.5127 -0.1327
  995MOL0     N34241   4.304   2.522   3.121 -0.0924  0.0981 -0.8077
  995MOL0     N34242   4.406   2.460   3.147 -0.1120  0.4991 -0.3796
  995MOL0     C34243   5.505   2.987   3.105  0.3297  0.5812  1.4338
  995MOL0     C34244   5.575   3.106   3.083  0.2442  1.0288  0.7141
  995MOL0     C34245   5.600   3.573   3.061  0.2183  0.0223 -0.1334
  995MOL0     C34246   5.605   3.685   3.139  0.1106 -0.0001  0.2143
  995MOL0     C34247   5.681   3.801   3.104 -0.9075 -0.3867  0.2303
  995MOL0     C34248   5.744   3.801   2.982 -0.6566  0.1669  0.0740
  995MOL0     O34249   5.825   3.899   2.945 -0.6289  0.0610  0.1069
  995MOL0     C34250   5.966   3.858   2.936 -0.0167  0.9166  0.8041
  995MOL0     C34251   6.040   3.925   3.053  0.5340 -0.6639 -0.1470
  995MOL0     C34252   6.187   3.909   3.018  0.6719  0.6834  1.0346
  995MOL0     C34253   6.269   3.945   3.134  0.3624 -0.1104  0.3464
  995MOL0     C34254   6.401   3.891   3.123 -0.5909 -0.0999  0.3043
  995MOL0     C34255   6.515   3.851   3.109 -0.1302 -0.1446  0.0827
  995MOL0     C34256   5.726   3.692   2.896  0.1678 -0.3054  0.4728
  995MOL0     C34257   5.666   3.576   2.947  0.2891 -0.0852  0.5312
  995MOL0     H34258   5.301   3.302   3.008 -0.7242 -0.4605 -0.9597
  995MOL0     H34259   5.188   3.100   3.078 -0.5154 -1.0432 -0.9679
  995MOL0     H34260   5.373   2.728   3.000 -1.3260  0.2655 -1.1015
  995MOL0     H34261   5.432   2.710   3.167 -0.9211  0.1990  0.5102
  995MOL0     H34262   5.152   2.637   3.070  0.4996 -0.9208 -0.8894
  995MOL0     H34263   5.262   2.535   3.132 -0.7744 -0.3423 -0.1433
  995MOL0     H34264   5.259   2.661   3.359 -0.5282 -0.6118  0.9891
  995MOL0     H34265   5.119   2.744   3.299  1.6455  0.3430  2.4613
  995MOL0     H34266   5.116   2.444   3.271 -3.9939 -0.2003 -1.4863
  995MOL0     H34267   5.111   2.510   3.434  0.0263 -0.3152  0.7804
  995MOL0     H34268   4.911   2.665   3.356 -1.9288 -0.7461 -0.1118
  995MOL0     H34269   4.916   2.592   3.206  2.5361 -0.8283 -0.7916
  995MOL0     H34270   4.847   2.375   3.305  0.5687  2.3792 -2.8823
  995MOL0     H34271   4.833   2.444   3.470 -0.8420  1.6973  0.0973
  995MOL0     H34272   4.661   2.599   3.416 -1.3233  0.7909 -0.6498
  995MOL0     H34273   4.681   2.581   3.246 -0.7949  0.4337  0.1799
  995MOL0     H34274   4.542   2.408   3.431  2.5248  2.4733  0.6990
  995MOL0     H34275   4.593   2.330   3.280 -1.1101 -0.5065  0.5139
  995MOL0     H34276   4.351   2.590   3.432 -2.1289  0.6695 -0.2444
  995MOL0     H34277   4.047   2.588   3.223  0.8756 -1.2593 -0.9379
  995MOL0     H34278   4.129   2.705   3.338 -0.3109 -2.1301  0.7049
  995MOL0     H34279   4.082   2.731   3.046  1.1930 -0.8343  0.2576
  995MOL0     H34280   4.222   2.802   3.121  0.3956 -0.9510  1.2570
  995MOL0     H34281   4.041   2.976   3.136 -0.9548 -0.4247  0.1782
  995MOL0     H34282   4.057   2.919   3.296  2.3141  2.4316 -1.7147
  995MOL0     H34283   3.871   2.749   3.234  2.9021 -1.0654  0.6117
  995MOL0     H34284   3.838   2.875   3.112 -1.7727  1.5829  1.5526
  995MOL0     H34285   3.621   2.894   3.121  0.2738  0.1647  0.4825
  995MOL0     H34286   3.259   2.911   3.159 -1.0198 -1.0080 -2.4339
  995MOL0     H34287   3.388   2.910   3.046  1.8242 -0.9466  0.1649
  995MOL0     H34288   3.332   2.754   3.117 -1.2355  0.1100  0.8851
  995MOL0     H34289   3.027   2.832   3.207  3.3187 -2.4005 -0.3969
  995MOL0     H34290   2.786   2.801   3.231 -0.6864  0.4606  1.9296
  995MOL0     H34291   2.630   2.464   3.409  0.9603  1.2361  0.0571
  995MOL0     H34292   2.617   2.550   3.557  1.0097 -1.9706 -0.0921
  995MOL0     H34293   2.417   2.677   3.458  3.4246  1.7416  0.6257
  995MOL0     H34294   2.428   2.596   3.316 -0.6144  3.0574  0.2976
  995MOL0     H34295   2.406   2.422   3.555  3.0756  1.0782 -0.9756
  995MOL0     H34296   2.378   2.381   3.391  2.6346  0.0230  1.1513
  995MOL0     H34297   2.193   2.580   3.547 -3.6545 -0.0144 -1.3860
  995MOL0     H34298   2.190   2.515   3.379  2.3297 -1.7732 -0.5031
  995MOL0     H34299   2.116   2.303   3.435  1.4837 -0.5283 -0.7103
  995MOL0     H34300   2.016   2.415   3.531  0.0011  2.0056 -1.1182
  995MOL0     H34301   2.230   2.228   3.598 -1.0072  0.4848 -2.7258
  995MOL0     H34302   2.192   2.351   3.725  2.1247 -0.5583  0.0308
  995MOL0     H34303   2.077   2.130   3.749 -0.6930 -1.1290 -2.0812
  995MOL0     H34304   1.982   2.157   3.615  1.6948 -1.2858 -0.3669
  995MOL0     H34305   1.907   2.375   3.745  0.7160 -0.0412  0.7328
  995MOL0     H34306   2.000   2.315   3.881  0.8269  0.2273 -0.6646
  995MOL0     H34307   2.841   2.534   3.558 -2.0990  1.7880  0.6743
  995MOL0     H34308   3.095   2.562   3.521  0.9566  0.7471 -1.5976
  995MOL0     H34309   3.483   2.855   3.586 -1.4120 -0.3235 -0.0291
  995MOL0     H34310   3.708   2.935   3.540  0.8906  2.9183 -1.6493
  995MOL0     H34311   5.568   2.903   3.132 -0.3975 -0.4165  0.1179
  995MOL0     H34312   5.683   3.115   3.086  0.2491  0.9095  0.9149
  995MOL0     H34313   5.544   3.693   3.228  0.8456 -1.4730  0.8901
  995MOL0     H34314   5.698   3.879   3.177  2.8654 -0.7811 -0.0212
  995MOL0     H34315   5.971   3.750   2.945  0.3940  1.0355  2.2992
  995MOL0     H34316   6.012   3.881   2.840 -0.7268 -0.4731  0.0997
  995MOL0     H34317   6.002   3.884   3.147 -0.0718 -2.2675 -1.0500
  995MOL0     H34318   6.016   4.032   3.055  1.6047 -0.3545 -1.6758
  995MOL0     H34319   6.201   3.977   2.933 -2.9842 -0.6653 -0.8261
  995MOL0     H34320   6.209   3.806   2.989 -3.4499 -0.5488  1.7009
  995MOL0     H34321   6.232   3.889   3.219 -0.9577 -0.7865 -0.6389
  995MOL0     H34322   6.277   4.053   3.149 -2.2651  0.7364 -3.0167
  995MOL0     H34323   6.613   3.814   3.085 -1.7090 -2.4021 -3.7763
  995MOL0     H34324   5.771   3.694   2.797 -1.2135  1.4230 -0.1787
  995MOL0     H34325   5.653   3.491   2.880 -0.6458 -0.7726  1.5468
  996MOL0     O34326   8.601  10.765   5.051  0.8050  0.1128 -0.1364
  996MOL0     C34327   8.644  10.670   5.121 -0.3584  1.0823 -0.1734
  996MOL0     O34328   8.564  10.592   5.202  0.6065  0.0142 -0.1772
  996MOL0     C34329   8.428  10.606   5.173 -0.6194 -0.2758  0.3873
  996MOL0     C34330   8.363  10.519   5.080 -0.5296  0.5834 -0.1675
  996MOL0     C34331   8.224  10.541   5.058  0.1479  0.1888 -0.3104
  996MOL0     C34332   8.149  10.642   5.117 -0.2384  0.7612  0.0015
  996MOL0     O34333   8.019  10.686   5.093 -0.4480 -0.5477 -1.2031
  996MOL0     C34334   7.934  10.618   5.006  0.2099 -0.5273 -0.8431
  996MOL0     C34335   7.873  10.723   4.922 -0.3544  0.9420  0.1053
  996MOL0     C34336   7.790  10.837   4.994 -0.0783  0.3403  0.6970
  996MOL0     C34337   7.645  10.794   5.022  0.1620  1.1452  0.1623
  996MOL0     C34338   7.554  10.898   5.083 -0.4705  0.0247  0.8330
  996MOL0     C34339   7.423  10.823   5.117  0.6973 -0.4740 -0.2347
  996MOL0     C34340   7.353  10.772   4.992  0.7311 -0.3113 -0.7313
  996MOL0     C34341   7.200  10.809   4.992 -0.7130 -0.5453  0.6645
  996MOL0     N34342   7.161  10.952   5.004  0.0658  0.0874  0.1237
  996MOL0     C34343   7.222  11.049   4.932  0.1519 -0.6398 -0.4200
  996MOL0     C34344   7.208  11.159   5.000 -0.0634 -0.8397 -0.1568
  996MOL0     C34345   7.259  11.290   4.945 -0.7673 -0.1647 -0.2024
  996MOL0     C34346   7.342  11.364   5.046 -0.2312  0.2007  0.2381
  996MOL0     C34347   7.461  11.286   5.092  0.1294 -0.4880 -0.5064
  996MOL0     C34348   7.568  11.376   5.154 -0.8589  0.0894 -0.5405
  996MOL0     O34349   7.690  11.300   5.191 -0.2534 -0.6828 -0.5496
  996MOL0     C34350   7.807  11.325   5.117 -0.1624  0.1880 -0.0976
  996MOL0     C34351   7.897  11.221   5.093  0.3779  0.3091  0.7263
  996MOL0     C34352   8.008  11.233   5.011  0.3526 -0.0285 -0.4951
  996MOL0     C34353   8.087  11.107   4.987  0.2232  0.3103 -0.4197
  996MOL0     C34354   8.049  11.363   4.970 -0.9295 -0.9744 -0.1235
  996MOL0     C34355   8.174  11.385   4.888 -0.4452  0.3377 -0.5740
  996MOL0     O34356   8.205  11.520   4.893 -0.0973  0.3840  0.1354
  996MOL0     C34357   8.318  11.550   4.831  0.0747 -0.2480  0.0312
  996MOL0     C34358   8.333  11.571   4.691 -0.3231 -0.6092 -0.2206
  996MOL0     C34359   8.458  11.618   4.647 -0.2838 -0.1180 -0.3120
  996MOL0     C34360   8.567  11.644   4.729  0.3428 -0.4159  0.2723
  996MOL0     O34361   8.686  11.653   4.667 -0.8543 -0.3587 -0.0125
  996MOL0     C34362   8.788  11.735   4.736  0.0680  0.3131  0.5841
  996MOL0     C34363   8.917  11.755   4.653  0.8027 -0.5073  0.1512
  996MOL0     C34364   9.010  11.845   4.734 -0.4527 -0.3130  0.1695
  996MOL0     C34365   9.146  11.863   4.665  0.3017  0.0224  1.0625
  996MOL0     C34366   9.257  11.876   4.765  0.0810  0.1198  0.3465
  996MOL0     C34367   9.388  11.884   4.686  0.3046 -0.3134 -0.2373
  996MOL0     C34368   9.514  11.908   4.771 -0.7915 -0.4909  0.1860
  996MOL0     C34369   9.640  11.929   4.684  0.2008  0.2227  0.1544
  996MOL0    Cl34370   9.682  11.787   4.587 -0.1506 -0.2669 -0.1005
  996MOL0     C34371   8.544  11.632   4.864 -0.0235  0.3084  0.1030
  996MOL0     C34372   8.421  11.579   4.916 -0.1363 -0.0773  0.4839
  996MOL0     O34373   8.226  11.295   4.819 -0.1730  0.0448  0.1749
  996MOL0     C34374   7.967  11.477   5.011  0.6194  0.9104 -0.6033
  996MOL0     C34375   7.842  11.455   5.075 -0.0909 -0.2445 -0.3976
  996MOL0     N34376   7.114  11.133   5.104 -0.7116 -0.4254 -0.2505
  996MOL0     N34377   7.086  11.014   5.097 -0.4129 -0.5451  0.0004
  996MOL0     C34378   8.214  10.721   5.205 -0.6109 -0.5661 -0.4848
  996MOL0     C34379   8.353  10.711   5.234 -0.2434 -0.3362 -0.0161
  996MOL0     C34380   8.789  10.636   5.115  0.3819 -1.0904  0.7050
  996MOL0     C34381   8.837  10.514   5.157  0.8162  0.8238  0.1978
  996MOL0     C34382   8.975  10.495   5.147  1.5506  0.9887 -0.4298
  996MOL0     C34383   9.062  10.585   5.098 -0.6832 -0.9271  0.4582
  996MOL0     O34384   9.189  10.538   5.093 -0.0582  0.0516 -0.5160
  996MOL0     C34385   9.294  10.637   5.103  0.1257  0.7749  0.7294
  996MOL0     C34386   9.426  10.577   5.055  0.1019 -0.0614 -0.5922
  996MOL0     C34387   9.540  10.671   5.032  0.3839 -0.5006 -0.4639
  996MOL0     C34388   9.647  10.609   4.947  0.1578 -0.0394  0.6535
  996MOL0     C34389   9.705  10.488   5.010  0.1621  0.7750  0.4326
  996MOL0     C34390   9.768  10.388   5.040 -0.0044  0.0123 -1.4831
  996MOL0     C34391   9.010  10.706   5.055 -0.2840 -0.6183 -1.0489
  996MOL0     C34392   8.877  10.725   5.060 -0.2360 -1.0700  0.0854
  996MOL0     H34393   8.412  10.440   5.023 -0.8992  1.4953 -1.7999
  996MOL0     H34394   8.175  10.487   4.977  1.3760 -1.9543  0.2970
  996MOL0     H34395   7.996  10.551   4.946  3.9282  1.5906  0.2725
  996MOL0     H34396   7.861  10.563   5.066  1.4335 -2.0499 -0.7053
  996MOL0     H34397   7.963  10.769   4.880 -1.9108  2.6405 -1.5077
  996MOL0     H34398   7.812  10.670   4.849  0.4527 -3.2921  2.1863
  996MOL0     H34399   7.836  10.862   5.090 -1.0744  2.1271  0.7438
  996MOL0     H34400   7.795  10.931   4.938 -0.5796  0.5758  1.0372
  996MOL0     H34401   7.610  10.753   4.927 -0.0538 -4.6624  2.3008
  996MOL0     H34402   7.644  10.711   5.094 -0.8824  0.6494 -0.4092
  996MOL0     H34403   7.600  10.944   5.171 -2.4332  0.3519  1.7567
  996MOL0     H34404   7.537  10.984   5.017  3.0469  1.3622  1.4525
  996MOL0     H34405   7.447  10.749   5.194 -2.2099  1.8229  3.2434
  996MOL0     H34406   7.356  10.898   5.161  1.3678 -1.2222  2.2618
  996MOL0     H34407   7.394  10.811   4.899  1.7624  1.1496  0.2793
  996MOL0     H34408   7.369  10.664   4.999 -1.9525 -0.7680 -0.6023
  996MOL0     H34409   7.142  10.757   5.069 -2.3531 -0.4669 -0.4655
  996MOL0     H34410   7.173  10.778   4.890  2.1708  0.8052 -0.6327
  996MOL0     H34411   7.284  11.030   4.846  0.1274 -1.9954 -0.1571
  996MOL0     H34412   7.320  11.265   4.857 -1.4498  0.1560 -0.7834
  996MOL0     H34413   7.174  11.348   4.909  1.2208  1.8078 -1.9972
  996MOL0     H34414   7.291  11.414   5.130 -0.6200  0.5619 -0.2083
  996MOL0     H34415   7.389  11.445   4.990 -2.0997  1.9945  1.0896
  996MOL0     H34416   7.514  11.249   5.004  1.2560  0.4650 -0.2550
  996MOL0     H34417   7.435  11.202   5.157  0.1799 -0.7104 -0.7706
  996MOL0     H34418   7.527  11.428   5.240 -3.6192 -0.3984 -1.4735
  996MOL0     H34419   7.596  11.446   5.075  2.5335 -1.6263 -1.0819
  996MOL0     H34420   7.883  11.118   5.124  0.5286  1.0317  3.4340
  996MOL0     H34421   8.054  11.019   5.043  1.4815  0.0484 -0.0581
  996MOL0     H34422   8.084  11.090   4.879 -1.0969  2.4280 -0.7706
  996MOL0     H34423   8.193  11.120   5.011 -0.1572  1.8904  0.5760
  996MOL0     H34424   8.248  11.583   4.625 -0.8011  0.0604  0.4978
  996MOL0     H34425   8.454  11.631   4.539 -1.0671 -0.5883 -0.3457
  996MOL0     H34426   8.733  11.829   4.745  0.3903  0.4822  0.8176
  996MOL0     H34427   8.819  11.687   4.829  0.2165 -2.0774 -0.6147
  996MOL0     H34428   8.967  11.658   4.640  0.0642 -0.8172 -0.4143
  996MOL0     H34429   8.910  11.799   4.553  0.5071  2.3664  1.3322
  996MOL0     H34430   9.021  11.788   4.826  2.5491 -2.2628 -1.2196
  996MOL0     H34431   8.974  11.948   4.746 -0.5872 -0.2401 -0.7787
  996MOL0     H34432   9.156  11.771   4.607 -1.7409  0.3088  0.1584
  996MOL0     H34433   9.143  11.939   4.586 -0.9517  1.5024  2.4491
  996MOL0     H34434   9.258  11.781   4.819 -2.5437  0.2984  0.7994
  996MOL0     H34435   9.236  11.953   4.840 -1.6728 -0.5612  0.5908
  996MOL0     H34436   9.398  11.792   4.628  0.2315  0.6598 -1.8444
  996MOL0     H34437   9.386  11.957   4.605 -0.2230  0.6165  0.5822
  996MOL0     H34438   9.536  11.819   4.831  0.8586  0.9571  1.8078
  996MOL0     H34439   9.502  11.991   4.840  0.3148 -0.0020 -0.1879
  996MOL0     H34440   9.725  11.960   4.745 -0.8025  3.0756  0.2252
  996MOL0     H34441   9.624  12.011   4.613 -3.2664  0.0497  0.5441
  996MOL0     H34442   8.624  11.656   4.933  1.1778  2.8169 -2.0233
  996MOL0     H34443   8.414  11.569   5.024  5.6329  0.1633  1.1980
  996MOL0     H34444   7.996  11.576   4.978  2.0306  1.2143  1.3972
  996MOL0     H34445   7.779  11.542   5.086  0.4625 -0.0938  2.2930
  996MOL0     H34446   8.161  10.806   5.246  1.9055  0.6221  0.5201
  996MOL0     H34447   8.399  10.780   5.304  2.2854 -2.6833  0.8224
  996MOL0     H34448   8.776  10.435   5.201  0.8796  0.6772  0.0220
  996MOL0     H34449   9.018  10.400   5.177  3.0482 -0.1070 -5.3083
  996MOL0     H34450   9.280  10.721   5.035 -1.4761  1.1083  1.4275
  996MOL0     H34451   9.298  10.670   5.207  3.1151  5.1029 -0.4506
  996MOL0     H34452   9.407  10.525   4.960 -0.2768 -1.8692  0.4101
  996MOL0     H34453   9.448  10.486   5.112 -0.9037  0.0225 -0.0351
  996MOL0     H34454   9.582  10.695   5.130  1.7805 -2.8341 -0.4368
  996MOL0     H34455   9.510  10.757   4.971  2.2979 -0.3473 -1.2721
  996MOL0     H34456   9.724  10.683   4.926 -1.0499  1.1775  0.3770
  996MOL0     H34457   9.598  10.584   4.852  2.5665  1.0592 -0.9780
  996MOL0     H34458   9.805  10.290   5.065  0.0136 -1.0293 -5.0248
  996MOL0     H34459   9.073  10.778   5.005 -0.3839 -0.1525 -0.5189
  996MOL0     H34460   8.834  10.820   5.031  0.7542 -1.2856 -2.2966
  997MOL0     O34461   3.227   0.770   7.358  0.1513 -0.0120  0.5662
  997MOL0     C34462   3.223   0.865   7.286  0.5438 -0.3858  0.0348
  997MOL0     O34463   3.115   0.954   7.275 -0.0938  0.4120  0.7845
  997MOL0     C34464   2.989   0.945   7.342 -0.3030 -0.5323 -0.5288
  997MOL0     C34465   2.893   1.050   7.319 -0.1566 -1.1353 -0.9184
  997MOL0     C34466   2.756   1.020   7.352 -0.6644 -0.2877 -0.0511
  997MOL0     C34467   2.720   0.909   7.427 -0.2779 -0.5421  0.6464
  997MOL0     O34468   2.594   0.910   7.472 -0.3912 -0.1319  0.4906
  997MOL0     C34469   2.550   0.804   7.554  0.1675 -0.1569 -0.8231
  997MOL0     C34470   2.400   0.810   7.561 -0.1272  0.6615 -0.6539
  997MOL0     C34471   2.339   0.702   7.652  0.8445 -0.0438 -0.0018
  997MOL0     C34472   2.188   0.721   7.668 -0.5657  0.3427  0.8653
  997MOL0     C34473   2.164   0.801   7.798 -0.4599 -0.2232 -0.3099
  997MOL0     C34474   2.020   0.832   7.832  0.3624  0.4704 -0.9805
  997MOL0     C34475   1.913   0.720   7.812 -0.6328  0.0045  0.2028
  997MOL0     C34476   1.768   0.782   7.827 -0.1304  0.7812  0.7643
  997MOL0     N34477   1.751   0.924   7.774 -0.4790  0.5480 -0.1191
  997MOL0     C34478   1.753   0.950   7.641  1.0642 -0.2493 -0.6315
  997MOL0     C34479   1.740   1.085   7.633  0.7352 -0.3154 -0.4278
  997MOL0     C34480   1.751   1.166   7.507 -0.4781  0.1198 -0.3169
  997MOL0     C34481   1.863   1.123   7.407 -0.2676 -0.1973 -0.3546
  997MOL0     C34482   2.009   1.095   7.455  0.1609  0.1345  0.1662
  997MOL0     C34483   2.106   1.069   7.340 -0.4406 -0.4804 -1.2566
  997MOL0     O34484   2.078   0.944   7.262  0.2452  0.7764  0.2969
  997MOL0     C34485   2.196   0.881   7.217  0.2617 -0.4469  0.7016
  997MOL0     C34486   2.183   0.762   7.154 -0.0180 -0.2470  0.3861
  997MOL0     C34487   2.286   0.681   7.098 -0.5572 -0.5069  0.3839
  997MOL0     C34488   2.248   0.553   7.011  0.8097  0.0161  0.3870
  997MOL0     C34489   2.418   0.729   7.103 -0.2879  0.0533 -0.4002
  997MOL0     C34490   2.544   0.666   7.041 -0.4591 -0.1568 -0.6090
  997MOL0     O34491   2.639   0.752   6.997  0.4518 -0.1063  0.4902
  997MOL0     C34492   2.760   0.706   6.960 -0.0054  0.1094  0.1776
  997MOL0     C34493   2.857   0.732   7.055 -0.2460 -0.2524 -0.2325
  997MOL0     C34494   2.993   0.691   7.035  0.0258  0.7803 -0.2152
  997MOL0     C34495   3.025   0.623   6.915  0.4615 -0.0628  0.5772
  997MOL0     O34496   3.149   0.585   6.878  0.1088  0.0569  0.0863
  997MOL0     C34497   3.242   0.561   6.978 -0.4981 -0.5623  0.6269
  997MOL0     C34498   3.354   0.490   6.899  0.2877 -0.4372  0.5840
  997MOL0     C34499   3.459   0.435   6.984  0.1225 -0.9124 -0.6575
  997MOL0     C34500   3.581   0.366   6.923  0.7561 -0.5751  0.4830
  997MOL0     C34501   3.623   0.243   7.010 -0.1637 -0.5140  0.2176
  997MOL0     C34502   3.659   0.289   7.146 -1.4557  0.2117 -0.5643
  997MOL0     C34503   3.778   0.384   7.141 -1.0176 -0.2097  0.2217
  997MOL0     C34504   3.903   0.321   7.199  0.0652 -0.1606  0.0746
  997MOL0    Cl34505   3.972   0.200   7.088 -0.4060  0.0418 -0.0393
  997MOL0     C34506   2.932   0.605   6.809  0.5276  0.0503  0.4366
  997MOL0     C34507   2.799   0.641   6.832 -0.0006  0.0955  0.5120
  997MOL0     O34508   2.555   0.542   7.048  0.3551  0.8441  0.9729
  997MOL0     C34509   2.438   0.859   7.157  0.3973 -0.3511  0.0393
  997MOL0     C34510   2.324   0.931   7.215  0.4484 -0.5287  0.2060
  997MOL0     N34511   1.730   1.132   7.759 -0.3594 -0.0013 -1.2312
  997MOL0     N34512   1.731   1.039   7.848  0.5041 -0.1265  0.5816
  997MOL0     C34513   2.814   0.814   7.463 -0.6422  0.0097 -0.7151
  997MOL0     C34514   2.945   0.837   7.420 -0.0744  0.0251 -0.7667
  997MOL0     C34515   3.338   0.900   7.206 -0.1178 -0.4885  0.2051
  997MOL0     C34516   3.348   1.023   7.137  0.0815 -0.6826 -0.5622
  997MOL0     C34517   3.453   1.057   7.054  0.4528 -1.1705 -0.4252
  997MOL0     C34518   3.558   0.970   7.046 -0.5273 -0.6189 -0.4160
  997MOL0     O34519   3.663   1.000   6.965 -0.6111 -0.2435  1.0615
  997MOL0     C34520   3.628   1.074   6.849 -0.2628  0.4062  0.7020
  997MOL0     C34521   3.654   0.986   6.733 -0.5815 -1.0521  0.4368
  997MOL0     C34522   3.542   0.878   6.713 -0.6898 -0.0170 -0.4738
  997MOL0     C34523   3.543   0.842   6.564  0.6286 -0.3578 -0.5854
  997MOL0     C34524   3.431   0.746   6.550 -0.2084  0.6420 -0.1704
  997MOL0     C34525   3.335   0.669   6.528  0.5197  0.1408 -0.5203
  997MOL0     C34526   3.552   0.847   7.117 -0.2808 -0.4011  0.7118
  997MOL0     C34527   3.449   0.809   7.189 -0.2857  0.1374  0.0435
  997MOL0     H34528   2.933   1.141   7.274  0.1621  0.9836  3.2186
  997MOL0     H34529   2.680   1.092   7.325  0.3214  1.1685  0.9098
  997MOL0     H34530   2.586   0.703   7.532 -0.0745  0.0075 -2.1069
  997MOL0     H34531   2.589   0.825   7.654 -0.0588  0.3785 -0.8397
  997MOL0     H34532   2.364   0.907   7.595 -1.0101  1.4294 -3.5096
  997MOL0     H34533   2.349   0.808   7.464 -0.0792 -0.3808 -0.6676
  997MOL0     H34534   2.363   0.606   7.605  0.5857 -0.6447  1.0640
  997MOL0     H34535   2.385   0.693   7.751 -1.6795 -1.3966  1.1232
  997MOL0     H34536   2.141   0.783   7.591 -1.4923 -3.1683 -1.6273
  997MOL0     H34537   2.139   0.623   7.666  0.7226 -0.3504  1.7496
  997MOL0     H34538   2.189   0.728   7.876  0.2425 -2.2353 -2.3247
  997MOL0     H34539   2.217   0.896   7.803 -1.4442  0.3217  0.0050
  997MOL0     H34540   2.015   0.849   7.939 -0.8200 -1.6053 -0.6402
  997MOL0     H34541   1.998   0.912   7.761 -0.1197 -0.3487 -1.7825
  997MOL0     H34542   1.912   0.675   7.712 -0.9106 -1.1987  0.7222
  997MOL0     H34543   1.922   0.636   7.882  2.0241  1.0546  1.2359
  997MOL0     H34544   1.735   0.793   7.930  0.5843  2.6339  0.8317
  997MOL0     H34545   1.698   0.714   7.777  2.9642 -0.7710 -1.8453
  997MOL0     H34546   1.765   0.877   7.561  2.8792 -1.7769  0.9323
  997MOL0     H34547   1.653   1.152   7.460 -1.1885 -2.3993  1.6922
  997MOL0     H34548   1.764   1.269   7.541 -0.6726  0.5760 -1.5580
  997MOL0     H34549   1.871   1.204   7.335  0.6706  0.1606  0.1277
  997MOL0     H34550   1.833   1.035   7.350  0.2796 -0.2430 -0.5788
  997MOL0     H34551   2.003   1.017   7.531 -1.2720 -2.1095 -2.0866
  997MOL0     H34552   2.039   1.182   7.515 -1.7640 -2.1326  4.9769
  997MOL0     H34553   2.202   1.071   7.393 -0.0212  0.5275 -2.0284
  997MOL0     H34554   2.103   1.155   7.272 -1.0449  0.8299  0.3634
  997MOL0     H34555   2.083   0.724   7.141  0.0114 -0.4049  0.6006
  997MOL0     H34556   2.315   0.467   7.019 -0.4852 -0.9067  1.6165
  997MOL0     H34557   2.144   0.522   7.026  0.1931  0.5795 -2.2285
  997MOL0     H34558   2.258   0.593   6.910 -0.6444  0.0494  0.2374
  997MOL0     H34559   2.830   0.784   7.147  3.2366 -1.2883  1.5596
  997MOL0     H34560   3.064   0.704   7.116  1.4350  1.6919 -1.5423
  997MOL0     H34561   3.269   0.657   7.024 -0.2528 -0.3931  0.1388
  997MOL0     H34562   3.192   0.495   7.049 -2.4007 -0.8928 -0.9317
  997MOL0     H34563   3.314   0.397   6.856  1.6519 -0.9652  0.4271
  997MOL0     H34564   3.397   0.561   6.829  2.1142  0.7323  2.7623
  997MOL0     H34565   3.414   0.370   7.060 -0.1476 -0.5549 -0.5086
  997MOL0     H34566   3.505   0.515   7.043 -0.1195 -0.7731 -0.6571
  997MOL0     H34567   3.554   0.342   6.820  2.0111  0.2235 -0.0576
  997MOL0     H34568   3.652   0.449   6.917  1.1055 -0.8473  0.8160
  997MOL0     H34569   3.722   0.214   6.974 -0.6859 -1.8575 -0.1888
  997MOL0     H34570   3.549   0.162   7.014  0.9492 -1.5138  3.0054
  997MOL0     H34571   3.583   0.334   7.211 -0.4513  2.1750 -0.6896
  997MOL0     H34572   3.683   0.200   7.206 -1.7242  0.6447  0.2061
  997MOL0     H34573   3.771   0.476   7.200  0.0528 -0.4599  0.7722
  997MOL0     H34574   3.806   0.410   7.038 -0.8650  0.0099  0.3193
  997MOL0     H34575   3.890   0.273   7.297 -0.8820 -0.7670 -0.3354
  997MOL0     H34576   3.977   0.401   7.210 -1.5415  2.2493 -4.1584
  997MOL0     H34577   2.970   0.556   6.720 -0.5979 -0.4601  0.2209
  997MOL0     H34578   2.728   0.639   6.750  0.5531  2.1524 -0.0761
  997MOL0     H34579   2.536   0.902   7.176  0.2081 -0.5626  1.6162
  997MOL0     H34580   2.343   1.031   7.252  0.5178 -0.4337 -0.0772
  997MOL0     H34581   2.798   0.723   7.520  1.7401  1.0322  1.8654
  997MOL0     H34582   3.005   0.749   7.442 -0.8370 -0.4652 -0.6376
  997MOL0     H34583   3.276   1.102   7.157  0.3426 -0.7044  0.5118
  997MOL0     H34584   3.458   1.159   7.016  0.0023 -1.2848 -0.8035
  997MOL0     H34585   3.524   1.106   6.837 -0.0029  0.1784 -3.4707
  997MOL0     H34586   3.698   1.156   6.836  1.5594 -1.0289  0.9297
  997MOL0     H34587   3.756   0.946   6.742 -0.0101 -0.2715 -1.8886
  997MOL0     H34588   3.666   1.047   6.643  1.1594  1.8840  2.4816
  997MOL0     H34589   3.443   0.903   6.752 -1.0015 -0.6510 -0.8505
  997MOL0     H34590   3.570   0.793   6.777 -2.1286 -1.2637 -1.4466
  997MOL0     H34591   3.639   0.804   6.528  0.2712 -0.2643 -1.6589
  997MOL0     H34592   3.523   0.920   6.490 -0.1046  0.0058 -0.0221
  997MOL0     H34593   3.262   0.593   6.508  2.8011 -2.8938  1.8246
  997MOL0     H34594   3.642   0.786   7.105  1.7749  2.1591  1.9822
  997MOL0     H34595   3.456   0.712   7.237 -1.8337  0.3310  0.7054
  998MOL0     O34596   5.991   4.116   2.216 -0.0329  0.8333 -0.8973
  998MOL0     C34597   6.071   4.043   2.266 -0.2551  0.0555  0.2219
  998MOL0     O34598   6.042   3.935   2.343  0.4356 -0.0390  0.2228
  998MOL0     C34599   5.910   3.917   2.375  0.1728  0.4550  0.3432
  998MOL0     C34600   5.873   3.938   2.511 -0.4599  0.0343  1.2847
  998MOL0     C34601   5.738   3.907   2.541 -0.3787 -0.1056  0.2477
  998MOL0     C34602   5.645   3.863   2.449  0.3302 -0.4124 -0.3907
  998MOL0     O34603   5.509   3.840   2.475 -0.0751  0.0812 -0.1444
  998MOL0     C34604   5.450   3.896   2.586  0.1657 -0.0702 -0.1089
  998MOL0     C34605   5.305   3.854   2.609  0.4607 -0.6281  0.0957
  998MOL0     C34606   5.292   3.737   2.699  0.0828 -0.0755  0.0252
  998MOL0     C34607   5.232   3.774   2.841  0.3863 -0.3055  0.5781
  998MOL0     C34608   5.184   3.638   2.899  0.3267 -0.8139  0.2987
  998MOL0     C34609   5.144   3.642   3.049 -0.1965 -0.5764 -0.1626
  998MOL0     C34610   5.060   3.518   3.066  0.7694 -0.2462  0.6470
  998MOL0     C34611   5.008   3.512   3.213  0.5633  0.3062 -0.0162
  998MOL0     N34612   5.013   3.373   3.273 -0.2399 -0.2449  0.9318
  998MOL0     C34613   5.131   3.303   3.311  0.1393 -0.7973 -0.1671
  998MOL0     C34614   5.083   3.182   3.342  0.6867  0.3771  0.6224
  998MOL0     C34615   5.158   3.060   3.395  0.4247  0.1556  0.2037
  998MOL0     C34616   5.129   3.041   3.544  1.1248  0.2267 -0.6028
  998MOL0     C34617   4.986   3.004   3.583 -0.0469 -0.0229  0.0384
  998MOL0     C34618   4.946   2.867   3.510  0.2331 -0.4481  0.4326
  998MOL0     O34619   4.823   2.815   3.569 -0.1722  0.2365  0.1927
  998MOL0     C34620   4.702   2.873   3.550  0.2887 -0.2773 -0.4424
  998MOL0     C34621   4.604   2.806   3.630  0.4700 -0.6728  1.0751
  998MOL0     C34622   4.470   2.859   3.628  0.0383 -0.0827 -0.0756
  998MOL0     C34623   4.356   2.791   3.708  0.8145 -0.5018 -0.2281
  998MOL0     C34624   4.434   2.971   3.547 -0.1597 -0.2562 -0.1790
  998MOL0     C34625   4.298   3.024   3.534 -0.2275  0.1105  0.2494
  998MOL0     O34626   4.275   3.152   3.559 -0.0199  0.0918 -0.5739
  998MOL0     C34627   4.172   3.208   3.494  1.0907 -0.5325 -0.5990
  998MOL0     C34628   4.135   3.187   3.362  0.6910  0.9046  0.0367
  998MOL0     C34629   4.027   3.255   3.308 -0.0411  0.5181  0.0260
  998MOL0     C34630   3.936   3.341   3.381 -0.3892  0.1690  0.2415
  998MOL0     O34631   3.836   3.398   3.313  0.3458 -0.1873 -0.3919
  998MOL0     C34632   3.730   3.463   3.393 -0.8542 -0.3784  0.1048
  998MOL0     C34633   3.633   3.529   3.290 -0.0534 -0.5199  0.1494
  998MOL0     C34634   3.543   3.636   3.349  0.0562  0.0306 -0.4969
  998MOL0     C34635   3.440   3.596   3.456 -0.6166 -0.9673 -0.3052
  998MOL0     C34636   3.358   3.720   3.508 -0.4656  0.2215  0.5590
  998MOL0     C34637   3.257   3.762   3.401  0.0168 -0.1564  0.3105
  998MOL0     C34638   3.124   3.676   3.417 -0.3269  0.4386  0.3864
  998MOL0     C34639   3.055   3.693   3.284  0.2623  0.0762 -0.2264
  998MOL0    Cl34640   2.926   3.581   3.279 -0.6889 -0.1937  0.1743
  998MOL0     C34641   3.982   3.368   3.515  0.2647  0.7802  0.0182
  998MOL0     C34642   4.088   3.298   3.572  0.3550 -0.1507 -0.2675
  998MOL0     O34643   4.212   2.949   3.497  0.0554 -0.3672  0.3089
  998MOL0     C34644   4.537   3.033   3.459 -0.1194 -0.2167 -0.0490
  998MOL0     C34645   4.669   2.978   3.454  0.4657  0.3791 -0.3384
  998MOL0     N34646   4.947   3.176   3.314  0.2902 -0.5896 -0.3510
  998MOL0     N34647   4.899   3.295   3.279  0.3484  0.3015 -0.0034
  998MOL0     C34648   5.684   3.830   2.320 -0.0416 -0.7262 -0.1774
  998MOL0     C34649   5.818   3.859   2.281  1.0116 -0.3826  0.6520
  998MOL0     C34650   6.212   4.069   2.240  0.1287  0.7729  0.0881
  998MOL0     C34651   6.253   4.083   2.103 -0.0496 -1.4373 -0.2159
  998MOL0     C34652   6.384   4.095   2.070 -0.5414  0.7484 -1.1149
  998MOL0     C34653   6.485   4.103   2.168  0.4978  0.3307 -0.0417
  998MOL0     O34654   6.612   4.127   2.128  0.1836  0.5610  0.6286
  998MOL0     C34655   6.721   4.123   2.223 -0.4823  0.8317 -0.7166
  998MOL0     C34656   6.774   3.979   2.254  0.6891  0.4767  0.1754
  998MOL0     C34657   6.863   3.963   2.377  0.7479  0.1541  0.1271
  998MOL0     C34658   6.959   4.079   2.409 -0.3501  0.3047  0.4712
  998MOL0     C34659   7.055   4.103   2.300  0.5912 -0.0898  0.3512
  998MOL0     C34660   7.150   4.127   2.235  0.9533 -0.4040 -0.0547
  998MOL0     C34661   6.445   4.092   2.303 -0.2053  0.8057  0.0952
  998MOL0     C34662   6.313   4.074   2.338  0.3921  0.3381 -1.4665
  998MOL0     H34663   5.954   3.975   2.572  1.3435  1.0611 -1.5312
  998MOL0     H34664   5.716   3.938   2.643 -1.2560 -1.3102  0.4424
  998MOL0     H34665   5.503   3.877   2.680 -0.3127  1.2100  0.4459
  998MOL0     H34666   5.449   4.005   2.576  1.7351  0.1531  1.5088
  998MOL0     H34667   5.254   3.937   2.660 -0.8176  0.3532 -2.5604
  998MOL0     H34668   5.262   3.831   2.511  0.7870  0.9119 -0.4395
  998MOL0     H34669   5.225   3.671   2.643  0.0044  1.9603 -2.4932
  998MOL0     H34670   5.386   3.684   2.717 -0.6658 -0.5383  3.0036
  998MOL0     H34671   5.308   3.819   2.906  0.1887  1.5172 -0.4083
  998MOL0     H34672   5.148   3.844   2.837  2.0592  1.7186 -1.8067
  998MOL0     H34673   5.106   3.607   2.830  3.1075 -1.5515 -2.7478
  998MOL0     H34674   5.267   3.569   2.885  0.0803 -0.7116 -1.9510
  998MOL0     H34675   5.229   3.625   3.115  0.1852  2.0400  0.1026
  998MOL0     H34676   5.083   3.729   3.075  3.5454  2.5327 -0.9581
  998MOL0     H34677   4.977   3.526   2.996  0.0674  1.2476  1.6100
  998MOL0     H34678   5.112   3.426   3.038  0.5423  0.2850 -1.7021
  998MOL0     H34679   4.903   3.542   3.212  0.9681  1.8036 -0.4764
  998MOL0     H34680   5.070   3.582   3.270  2.8602 -0.0708 -1.8470
  998MOL0     H34681   5.230   3.346   3.299 -0.6087  0.4548 -2.6430
  998MOL0     H34682   5.128   2.977   3.331 -1.5202  1.7149 -1.0410
  998MOL0     H34683   5.265   3.079   3.394  0.4428  0.0471  0.1399
  998MOL0     H34684   5.138   3.136   3.598 -3.7312  0.0335  0.9743
  998MOL0     H34685   5.197   2.962   3.579 -1.6352 -1.4621  1.3521
  998MOL0     H34686   4.917   3.086   3.561  0.7273  1.0548  1.4004
  998MOL0     H34687   4.981   2.988   3.691  2.2103 -0.1363  0.1826
  998MOL0     H34688   5.015   2.786   3.534 -3.6772 -4.6542 -1.0988
  998MOL0     H34689   4.941   2.879   3.401 -2.6187 -0.7901  0.4564
  998MOL0     H34690   4.631   2.720   3.689 -0.9372 -0.2774  2.3588
  998MOL0     H34691   4.303   2.719   3.645 -1.9658  1.0099  0.2197
  998MOL0     H34692   4.395   2.737   3.794  1.6676 -0.4034 -0.5410
  998MOL0     H34693   4.282   2.867   3.738 -0.7940 -1.6588 -1.1130
  998MOL0     H34694   4.197   3.122   3.301  0.5725  1.3770 -0.6076
  998MOL0     H34695   4.005   3.248   3.202  1.1037 -0.7098 -0.1608
  998MOL0     H34696   3.685   3.384   3.455  0.4195 -1.3475 -0.1677
  998MOL0     H34697   3.773   3.545   3.451 -0.8948  0.9630 -1.6612
  998MOL0     H34698   3.696   3.578   3.215 -0.4143  3.1238  1.9878
  998MOL0     H34699   3.574   3.447   3.247  1.6556 -1.6426 -0.1391
  998MOL0     H34700   3.487   3.670   3.262  2.2166  2.7615 -0.9474
  998MOL0     H34701   3.609   3.718   3.378  2.1129 -1.0599 -1.8206
  998MOL0     H34702   3.373   3.521   3.414  0.3145 -0.4325 -3.0074
  998MOL0     H34703   3.502   3.561   3.539 -1.6073  1.2577  1.4854
  998MOL0     H34704   3.426   3.802   3.535 -0.3274 -0.2411  1.6714
  998MOL0     H34705   3.302   3.704   3.600  0.5401  0.6423  1.2651
  998MOL0     H34706   3.221   3.864   3.418  0.8963 -0.1140  2.2062
  998MOL0     H34707   3.298   3.754   3.300  1.2242 -0.0479  0.7774
  998MOL0     H34708   3.051   3.689   3.498  0.2279  1.8038  0.6903
  998MOL0     H34709   3.161   3.574   3.431 -0.6775  0.4459  1.4955
  998MOL0     H34710   3.125   3.675   3.202  1.2695 -0.3165  0.7079
  998MOL0     H34711   3.002   3.789   3.286 -1.0618 -0.6367  1.2097
  998MOL0     H34712   3.915   3.435   3.569 -1.2640 -0.7485  0.1172
  998MOL0     H34713   4.111   3.315   3.677  1.0877  1.4431 -0.6546
  998MOL0     H34714   4.515   3.116   3.393  0.0601  0.0022  0.1675
  998MOL0     H34715   4.740   3.024   3.386  0.0189  0.1659 -0.9551
  998MOL0     H34716   5.616   3.787   2.247 -0.7307  0.2245 -0.1223
  998MOL0     H34717   5.863   3.833   2.186  1.2347  0.5257  0.4935
  998MOL0     H34718   6.179   4.090   2.023 -0.7471  1.3245  0.5585
  998MOL0     H34719   6.411   4.085   1.965  0.1894  1.0914 -0.9618
  998MOL0     H34720   6.807   4.178   2.184 -0.0419 -0.7911 -2.1291
  998MOL0     H34721   6.692   4.172   2.317 -3.8735 -0.3635 -1.0367
  998MOL0     H34722   6.824   3.943   2.163  0.1869  0.4213 -0.0850
  998MOL0     H34723   6.679   3.929   2.276 -0.2978  1.2975 -1.9264
  998MOL0     H34724   6.921   3.870   2.368  1.1844  0.4468 -0.1316
  998MOL0     H34725   6.806   3.944   2.469 -1.6700 -3.6241 -1.9037
  998MOL0     H34726   7.013   4.068   2.504 -1.0162  2.3610  1.1443
  998MOL0     H34727   6.901   4.168   2.437 -0.2364  1.1586 -1.8396
  998MOL0     H34728   7.228   4.153   2.166  1.3843 -1.2466  0.1039
  998MOL0     H34729   6.520   4.089   2.381  0.3495  1.4162 -0.4081
  998MOL0     H34730   6.275   4.055   2.437 -1.7208 -2.7363 -2.7231
  999MOL0     O34731   3.496   3.175   5.096  0.6088  0.6938 -0.2233
  999MOL0     C34732   3.567   3.191   5.008 -0.4610 -0.6381  0.6221
  999MOL0     O34733   3.570   3.303   4.928  0.4673  0.6884  0.1577
  999MOL0     C34734   3.499   3.423   4.952  0.1797  0.5473  0.2656
  999MOL0     C34735   3.407   3.437   5.064 -0.1070 -0.1448 -0.0770
  999MOL0     C34736   3.325   3.553   5.075 -0.6463  0.6181 -0.2398
  999MOL0     C34737   3.341   3.659   4.982 -0.0388  1.1335 -0.6726
  999MOL0     O34738   3.264   3.771   5.000  0.6968 -0.4099 -0.0512
  999MOL0     C34739   3.128   3.736   5.027 -1.2132 -0.0041 -0.4951
  999MOL0     C34740   3.044   3.856   5.006  0.9017 -0.2640 -0.7433
  999MOL0     C34741   2.886   3.832   5.014  0.3706 -0.3217 -0.1512
  999MOL0     C34742   2.843   3.854   5.161 -0.2329  0.1783 -1.1986
  999MOL0     C34743   2.708   3.796   5.191  0.2712  0.4926  0.7258
  999MOL0     C34744   2.677   3.800   5.338 -0.1432 -0.4834  1.2361
  999MOL0     C34745   2.554   3.719   5.358 -0.0625 -0.7773  0.3679
  999MOL0     C34746   2.492   3.711   5.497 -0.4867  0.0549  0.9530
  999MOL0     N34747   2.468   3.842   5.562 -0.0035  0.2479 -0.5188
  999MOL0     C34748   2.403   3.940   5.497  1.2404 -0.1451 -0.1886
  999MOL0     C34749   2.407   4.042   5.588  0.0703 -1.0591 -0.5253
  999MOL0     C34750   2.362   4.178   5.551  0.7354  0.1210  1.2231
  999MOL0     C34751   2.209   4.210   5.579 -0.0883 -0.4377  0.1747
  999MOL0     C34752   2.186   4.215   5.730 -0.6555  0.1471 -0.6936
  999MOL0     C34753   2.044   4.265   5.767 -0.4608 -0.1555 -0.3089
  999MOL0     O34754   1.946   4.176   5.717 -0.3452  0.2875  0.5066
  999MOL0     C34755   1.816   4.189   5.748  0.4068 -0.9008 -1.5504
  999MOL0     C34756   1.759   4.285   5.842 -0.4635  0.1465  0.2699
  999MOL0     C34757   1.627   4.277   5.873  0.0518  0.0380  0.3224
  999MOL0     C34758   1.581   4.388   5.967 -0.1213 -0.0313 -0.0180
  999MOL0     C34759   1.547   4.183   5.808 -0.7861  0.4386  0.0343
  999MOL0     C34760   1.404   4.171   5.837 -0.4223 -0.2680 -0.3115
  999MOL0     O34761   1.354   4.226   5.949 -0.2453  0.1771 -0.3694
  999MOL0     C34762   1.226   4.221   5.969  0.4623 -0.5681  0.6923
  999MOL0     C34763   1.176   4.132   6.062  0.5014 -0.6412  0.3720
  999MOL0     C34764   1.039   4.134   6.090  0.2614 -0.7606 -0.9156
  999MOL0     C34765   0.951   4.212   6.014  0.3005 -0.2484 -0.6453
  999MOL0     O34766   0.815   4.208   6.023  0.1157  0.0377  0.2685
  999MOL0     C34767   0.760   4.104   6.107 -0.4331 -0.5576  0.0299
  999MOL0     C34768   0.610   4.086   6.077  0.6773 -0.7183  0.7097
  999MOL0     C34769   0.526   4.006   6.184 -1.2746  0.5750 -0.2069
  999MOL0     C34770   0.378   4.022   6.167  0.5485 -0.7141 -0.1742
  999MOL0     C34771   0.297   3.959   6.272  0.2683  0.1558 -0.3412
  999MOL0     C34772   0.316   3.807   6.272  0.2756  0.2278 -0.1351
  999MOL0     C34773   0.251   3.745   6.386 -0.8687 -0.8313 -0.0168
  999MOL0     C34774   0.099   3.765   6.383 -0.2787 -0.8682  0.7694
  999MOL0    Cl34775   0.022   3.674   6.249  0.2647 -0.0116 -0.2116
  999MOL0     C34776   1.005   4.313   5.925  0.3916 -0.2632 -0.1492
  999MOL0     C34777   1.145   4.322   5.910  0.2095  0.2541 -0.3207
  999MOL0     O34778   1.331   4.128   5.753  0.1322 -0.0697  0.1261
  999MOL0     C34779   1.606   4.103   5.709  0.6123  1.4489 -0.4383
  999MOL0     C34780   1.738   4.098   5.686 -0.3284 -0.5629  0.4677
  999MOL0     N34781   2.467   4.008   5.704  0.8762 -0.3507  0.1226
  999MOL0     N34782   2.513   3.893   5.685  0.0388  0.1667 -0.3270
  999MOL0     C34783   3.435   3.654   4.876 -0.0940  0.2074  0.3806
  999MOL0     C34784   3.509   3.532   4.867  0.6118 -0.3433  0.0361
  999MOL0     C34785   3.685   3.105   4.982  0.5375  0.0347 -0.2864
  999MOL0     C34786   3.744   3.027   5.092  0.0857 -0.0432  0.5291
  999MOL0     C34787   3.856   2.939   5.075  0.3812  0.1452  0.1356
  999MOL0     C34788   3.909   2.932   4.945  0.1018  0.3049 -0.1902
  999MOL0     O34789   4.009   2.847   4.895  0.3386  0.1567 -0.4668
  999MOL0     C34790   4.114   2.827   4.988  0.0366 -0.2947 -0.3361
  999MOL0     C34791   4.229   2.756   4.933 -0.2107  0.8986  0.3344
  999MOL0     C34792   4.254   2.790   4.783 -0.1494 -0.3727 -0.2791
  999MOL0     C34793   4.394   2.747   4.724 -0.0718  0.3868  0.0438
  999MOL0     C34794   4.518   2.818   4.777 -0.4626 -0.3526 -0.4231
  999MOL0     C34795   4.614   2.878   4.833  0.1775 -0.4084 -0.2093
  999MOL0     C34796   3.853   3.012   4.840 -0.1281  0.2505  0.2311
  999MOL0     C34797   3.753   3.107   4.860  0.4069 -0.0752 -0.0537
  999MOL0     H34798   3.405   3.369   5.149  2.3830  0.8577  0.9061
  999MOL0     H34799   3.279   3.559   5.173 -1.9325  0.7599 -0.8346
  999MOL0     H34800   3.092   3.658   4.959  0.1735 -2.2735  1.2340
  999MOL0     H34801   3.124   3.705   5.132 -0.9303 -1.2727 -0.8437
  999MOL0     H34802   3.079   3.937   5.070  3.1885 -0.3362 -1.8196
  999MOL0     H34803   3.082   3.897   4.912  0.2974  1.8095 -0.1291
  999MOL0     H34804   2.839   3.898   4.941  3.1922  0.2775 -1.5774
  999MOL0     H34805   2.867   3.734   4.969  0.2998 -0.0512 -0.7135
  999MOL0     H34806   2.911   3.791   5.219  0.3049  1.5612 -0.2793
  999MOL0     H34807   2.862   3.955   5.197 -2.8837  0.3593 -0.0414
  999MOL0     H34808   2.632   3.845   5.129 -2.3348 -2.3493  1.4165
  999MOL0     H34809   2.703   3.692   5.158  1.5193 -0.0601  2.1853
  999MOL0     H34810   2.758   3.754   5.396  1.3532  0.1179 -0.2772
  999MOL0     H34811   2.654   3.900   5.375  2.3220  0.3188  0.8042
  999MOL0     H34812   2.482   3.760   5.286  0.9505 -2.3126 -1.6176
  999MOL0     H34813   2.580   3.619   5.323  1.5232  0.1639 -1.3760
  999MOL0     H34814   2.563   3.650   5.554 -2.3114 -2.0284  1.0876
  999MOL0     H34815   2.398   3.655   5.501 -1.6068  1.8636  1.0282
  999MOL0     H34816   2.355   3.943   5.400  0.4530 -2.0103  0.1165
  999MOL0     H34817   2.407   4.252   5.618 -0.7526  0.1742  2.2268
  999MOL0     H34818   2.386   4.200   5.447  0.5105 -3.0035  0.4182
  999MOL0     H34819   2.153   4.122   5.546  0.7547 -0.6270 -0.8298
  999MOL0     H34820   2.178   4.300   5.527 -3.7559 -1.7765 -0.1995
  999MOL0     H34821   2.258   4.287   5.770 -0.3913 -1.5208  2.0882
  999MOL0     H34822   2.205   4.115   5.769  1.1625  0.2108 -1.3048
  999MOL0     H34823   2.041   4.367   5.728  2.3839 -0.2491 -1.0118
  999MOL0     H34824   2.034   4.259   5.875  2.7545 -1.2018  0.0444
  999MOL0     H34825   1.816   4.355   5.902 -2.4110  1.0940  1.1113
  999MOL0     H34826   1.597   4.349   6.068  1.6215  2.3494  0.6992
  999MOL0     H34827   1.639   4.480   5.955  1.7132 -0.5753  3.2431
  999MOL0     H34828   1.479   4.418   5.944  0.6287  1.0737 -2.1487
  999MOL0     H34829   1.247   4.079   6.126 -0.0297  0.7307  2.1725
  999MOL0     H34830   1.004   4.066   6.167 -0.9580  1.8984  1.0641
  999MOL0     H34831   0.818   4.012   6.093 -1.1678 -1.0269  0.0246
  999MOL0     H34832   0.769   4.122   6.215  1.0493 -4.5002  0.7597
  999MOL0     H34833   0.571   4.188   6.074 -1.5028 -1.5432 -0.9749
  999MOL0     H34834   0.603   4.043   5.977  3.4017  0.8188 -0.2613
  999MOL0     H34835   0.559   4.032   6.285  4.2660  1.0849 -1.8035
  999MOL0     H34836   0.560   3.902   6.172  1.0855  0.5965  4.2252
  999MOL0     H34837   0.369   4.131   6.165 -0.1911 -0.7487  0.5867
  999MOL0     H34838   0.345   3.982   6.070  1.3294 -2.2554  0.1598
  999MOL0     H34839   0.194   3.986   6.247 -0.3635 -1.4916  0.3367
  999MOL0     H34840   0.327   3.987   6.374  0.3874 -1.4440  0.0828
  999MOL0     H34841   0.288   3.758   6.179  0.3342  1.0482 -0.5938
  999MOL0     H34842   0.425   3.796   6.278  0.3268  0.9669  0.4245
  999MOL0     H34843   0.292   3.795   6.474  1.0235 -0.1875 -1.2044
  999MOL0     H34844   0.289   3.643   6.398  1.8264  0.1163  0.2744
  999MOL0     H34845   0.070   3.870   6.381 -0.6158 -0.9556  0.9646
  999MOL0     H34846   0.065   3.721   6.478  1.7305 -1.6771  1.1611
  999MOL0     H34847   0.936   4.373   5.866  0.1201 -0.6861 -0.2694
  999MOL0     H34848   1.192   4.399   5.849  1.0515 -0.5802 -0.7569
  999MOL0     H34849   1.541   4.038   5.651  1.6976 -0.7498  0.7032
  999MOL0     H34850   1.774   4.043   5.601 -2.5968 -2.3476  0.5690
  999MOL0     H34851   3.438   3.733   4.801  1.5991  2.2140  2.4290
  999MOL0     H34852   3.562   3.516   4.773 -3.8752 -2.0172 -2.5369
  999MOL0     H34853   3.708   3.038   5.194 -0.2375  0.8995  0.3232
  999MOL0     H34854   3.898   2.890   5.162  0.2188  0.8326  0.6067
  999MOL0     H34855   4.157   2.925   5.013  0.6101  0.1531 -2.7896
  999MOL0     H34856   4.078   2.773   5.076  0.7092  0.7460  0.6105
  999MOL0     H34857   4.208   2.649   4.940 -1.9374  0.9620 -2.1972
  999MOL0     H34858   4.317   2.785   4.990 -0.4589  2.5312 -0.0754
  999MOL0     H34859   4.235   2.896   4.763 -0.7930 -0.2786  0.7710
  999MOL0     H34860   4.184   2.731   4.723  0.9888 -3.2874  1.0818
  999MOL0     H34861   4.397   2.777   4.619 -1.6849  2.7073  0.5761
  999MOL0     H34862   4.394   2.640   4.744 -0.1110  0.3111 -0.3576
  999MOL0     H34863   4.701   2.908   4.889  1.7619  0.3494 -2.9175
  999MOL0     H34864   3.893   2.990   4.741 -0.4820  0.0006  0.1397
  999MOL0     H34865   3.719   3.167   4.775  1.3089 -1.0064 -1.1078
 1000MOL0     O34866   5.957   1.064   0.997 -0.6417 -0.2839 -0.2222
 1000MOL0     C34867   5.949   0.963   1.059  0.4173 -0.1685  1.0861
 1000MOL0     O34868   5.825   0.903   1.086  0.1730 -0.2938  0.6163
 1000MOL0     C34869   5.712   0.941   1.012  0.0313  0.4368  0.3826
 1000MOL0     C34870   5.662   0.842   0.925 -0.3221 -0.2233 -0.9038
 1000MOL0     C34871   5.551   0.874   0.851 -0.0102 -0.3060  0.7470
 1000MOL0     C34872   5.491   0.999   0.852 -0.5393 -0.8924 -0.9704
 1000MOL0     O34873   5.388   1.033   0.785  0.2691 -0.4251  0.2024
 1000MOL0     C34874   5.292   0.935   0.735  0.0498 -0.1357  0.1849
 1000MOL0     C34875   5.156   0.994   0.691  0.2042 -0.0470 -0.8997
 1000MOL0     C34876   5.055   0.883   0.675 -0.6211  0.0174 -0.3329
 1000MOL0     C34877   4.912   0.921   0.629  0.0562 -0.4394  0.2719
 1000MOL0     C34878   4.851   1.017   0.730  0.1939 -1.7288 -0.2581
 1000MOL0     C34879   4.710   1.058   0.690  0.8976 -1.0131 -0.1027
 1000MOL0     C34880   4.649   1.164   0.792  0.3643  0.5792  0.3643
 1000MOL0     C34881   4.502   1.202   0.752 -0.3695  1.2243 -0.7018
 1000MOL0     N34882   4.404   1.117   0.804  0.5020  0.3444 -0.3758
 1000MOL0     C34883   4.272   1.108   0.753  0.5911 -0.7567 -0.7307
 1000MOL0     C34884   4.205   1.024   0.834  0.3913 -0.7557  0.2769
 1000MOL0     C34885   4.063   0.991   0.805 -1.4473 -0.4416 -0.4526
 1000MOL0     C34886   4.051   0.881   0.701 -0.0883 -0.3857  0.5141
 1000MOL0     C34887   3.912   0.824   0.719  0.6698  0.0305  0.1949
 1000MOL0     C34888   3.800   0.906   0.646 -0.3692 -0.7594  0.0775
 1000MOL0     O34889   3.679   0.899   0.711 -0.2058  0.3520 -0.4834
 1000MOL0     C34890   3.592   0.793   0.701 -0.3185 -0.1242 -0.1475
 1000MOL0     C34891   3.623   0.683   0.621  0.4707 -0.0367  0.2946
 1000MOL0     C34892   3.542   0.572   0.600 -0.5544 -0.2292 -0.2241
 1000MOL0     C34893   3.585   0.461   0.519  0.1739 -0.6569 -0.1983
 1000MOL0     C34894   3.416   0.565   0.662  0.8215 -0.2330 -0.6052
 1000MOL0     C34895   3.317   0.459   0.642 -0.0341  0.0156 -0.9542
 1000MOL0     O34896   3.189   0.504   0.641  0.2252  0.5388  0.2693
 1000MOL0     C34897   3.095   0.410   0.637 -0.2979  1.4669 -0.1512
 1000MOL0     C34898   3.057   0.336   0.520 -0.5361  0.1058 -0.4291
 1000MOL0     C34899   2.961   0.239   0.524  0.7062  0.1080 -0.2340
 1000MOL0     C34900   2.891   0.221   0.645 -0.4796  0.7483 -0.2735
 1000MOL0     O34901   2.796   0.120   0.656  0.2965 -0.1357 -0.3606
 1000MOL0     C34902   2.672   0.159   0.720  0.3959  0.2929  0.9768
 1000MOL0     C34903   2.566   0.058   0.683 -0.9885  0.3155 -0.1975
 1000MOL0     C34904   2.577   0.032   0.525 -0.2017 -0.2488 -0.5683
 1000MOL0     C34905   2.445  -0.019   0.462  0.4416 -0.4464 -0.2010
 1000MOL0     C34906   2.358   0.100   0.423  0.8299 -0.3922  0.2690
 1000MOL0     C34907   2.219   0.051   0.381 -0.6358  0.5470 -0.2395
 1000MOL0     C34908   2.126   0.173   0.366 -0.0462  0.2679  1.2707
 1000MOL0     C34909   1.996   0.133   0.309 -0.2145 -0.2743  0.1926
 1000MOL0    Cl34910   1.886   0.270   0.350 -0.2987 -0.1055 -0.3356
 1000MOL0     C34911   2.928   0.302   0.755  0.2954 -0.2318 -0.3359
 1000MOL0     C34912   3.029   0.402   0.757  0.1631  0.2648  0.1024
 1000MOL0     O34913   3.353   0.341   0.635  0.1858 -0.3051 -0.1378
 1000MOL0     C34914   3.382   0.687   0.736 -0.1971 -0.3263 -0.1586
 1000MOL0     C34915   3.472   0.798   0.764 -0.4359 -0.3083 -0.1446
 1000MOL0     N34916   4.288   0.982   0.934 -0.6002 -0.4633  0.0543
 1000MOL0     N34917   4.408   1.037   0.920 -0.3093  0.4146 -0.1671
 1000MOL0     C34918   5.551   1.101   0.935  0.7054 -0.3359  0.7516
 1000MOL0     C34919   5.661   1.068   1.012 -0.4531  0.0632 -0.2332
 1000MOL0     C34920   6.064   0.895   1.121 -0.0439 -0.1758 -0.0163
 1000MOL0     C34921   6.196   0.932   1.080 -0.3369 -0.5359 -1.0274
 1000MOL0     C34922   6.303   0.869   1.147 -1.1181  0.0623  0.9393
 1000MOL0     C34923   6.280   0.769   1.237  0.0702 -0.1431 -0.5402
 1000MOL0     O34924   6.395   0.727   1.302  0.8286  0.9899  0.0113
 1000MOL0     C34925   6.412   0.606   1.375 -0.6288  0.2517 -0.6536
 1000MOL0     C34926   6.527   0.526   1.325 -0.3822  0.1172 -0.5558
 1000MOL0     C34927   6.524   0.376   1.376 -0.9024  0.8086 -0.4031
 1000MOL0     C34928   6.605   0.281   1.284 -0.7771  0.0646 -0.6460
 1000MOL0     C34929   6.577   0.284   1.142 -0.4218 -0.1125  0.4565
 1000MOL0     C34930   6.540   0.282   1.027  0.3784  1.0657  0.8601
 1000MOL0     C34931   6.146   0.732   1.280  0.6149  0.2268 -0.1519
 1000MOL0     C34932   6.037   0.806   1.230  0.0429  1.2020  0.1353
 1000MOL0     H34933   5.711   0.746   0.940  0.8203  0.4123 -0.4788
 1000MOL0     H34934   5.502   0.804   0.784  1.3519  0.0394 -0.6482
 1000MOL0     H34935   5.341   0.891   0.648  0.3650 -0.6307  0.6056
 1000MOL0     H34936   5.278   0.853   0.806 -1.7783 -1.8129 -1.9427
 1000MOL0     H34937   5.114   1.069   0.759  2.0835  1.2185 -1.0736
 1000MOL0     H34938   5.175   1.045   0.597  0.3142  1.3551 -0.1399
 1000MOL0     H34939   5.087   0.820   0.591 -0.6871 -2.9773  1.7363
 1000MOL0     H34940   5.048   0.822   0.765 -2.9291  0.6060 -0.0674
 1000MOL0     H34941   4.921   0.975   0.534  1.3830 -0.1233  0.5508
 1000MOL0     H34942   4.844   0.838   0.613 -1.7028  0.7596  1.2432
 1000MOL0     H34943   4.865   0.997   0.836  2.2668  4.0569  0.9457
 1000MOL0     H34944   4.900   1.116   0.729  0.1163 -1.6892 -0.0667
 1000MOL0     H34945   4.698   1.100   0.590 -0.7556  1.3439  1.0101
 1000MOL0     H34946   4.656   0.963   0.689  0.4376 -0.7830 -2.8053
 1000MOL0     H34947   4.655   1.114   0.889  3.6138  5.1384  2.9261
 1000MOL0     H34948   4.705   1.259   0.795 -1.3171  1.5868  1.5610
 1000MOL0     H34949   4.491   1.207   0.644  2.5766 -1.6394 -1.2625
 1000MOL0     H34950   4.495   1.300   0.800  3.5008  2.0401 -1.4833
 1000MOL0     H34951   4.224   1.161   0.672  1.1655  0.7371 -0.1329
 1000MOL0     H34952   4.026   0.960   0.903 -0.8731  0.4044  0.0443
 1000MOL0     H34953   4.023   1.086   0.767 -2.1943 -2.0920 -4.2927
 1000MOL0     H34954   4.127   0.804   0.722 -1.7849 -2.9331 -1.9941
 1000MOL0     H34955   4.064   0.910   0.597 -1.3788 -1.1966  0.1079
 1000MOL0     H34956   3.886   0.821   0.825  1.0922  1.3667  0.3501
 1000MOL0     H34957   3.908   0.728   0.667  0.0924  1.0750 -1.8035
 1000MOL0     H34958   3.800   0.887   0.538  0.7081 -2.2855  0.3015
 1000MOL0     H34959   3.828   1.011   0.657 -1.3005 -0.5985  1.0850
 1000MOL0     H34960   3.719   0.674   0.571 -0.0987 -3.0076 -0.4654
 1000MOL0     H34961   3.677   0.489   0.467  1.3129  0.0284  2.0247
 1000MOL0     H34962   3.597   0.367   0.574 -4.6972 -1.3521  0.1301
 1000MOL0     H34963   3.503   0.441   0.449 -1.2223 -3.2860  1.9908
 1000MOL0     H34964   3.104   0.352   0.424  0.0675 -1.4391 -0.4224
 1000MOL0     H34965   2.930   0.180   0.438  0.9885 -2.6582  1.4210
 1000MOL0     H34966   2.697   0.159   0.827  3.6321  0.1370  0.3166
 1000MOL0     H34967   2.633   0.255   0.684  1.8230 -0.1618 -2.1250
 1000MOL0     H34968   2.568  -0.036   0.738 -1.5924 -1.1709 -2.6108
 1000MOL0     H34969   2.469   0.100   0.712 -0.8212 -1.4551  3.5770
 1000MOL0     H34970   2.659  -0.041   0.521 -0.2821 -0.7116  3.1330
 1000MOL0     H34971   2.611   0.123   0.474 -0.2277 -1.4500 -2.8861
 1000MOL0     H34972   2.480  -0.067   0.370  1.5922  1.4466 -0.8059
 1000MOL0     H34973   2.392  -0.092   0.524 -1.7647  1.4655  0.3172
 1000MOL0     H34974   2.402   0.160   0.344 -0.8980 -2.0990 -2.1420
 1000MOL0     H34975   2.344   0.166   0.510  1.3700  0.1089 -0.0173
 1000MOL0     H34976   2.219   0.000   0.284  1.9717  1.9595 -1.0915
 1000MOL0     H34977   2.177  -0.002   0.467  0.4159  1.7610  1.0907
 1000MOL0     H34978   2.170   0.252   0.305  0.8364  0.5058  2.1852
 1000MOL0     H34979   2.095   0.209   0.464 -0.1497  2.7513  0.3953
 1000MOL0     H34980   1.951   0.041   0.347 -2.4066 -1.0300 -3.7283
 1000MOL0     H34981   2.008   0.113   0.202  3.2264  0.4691  0.3250
 1000MOL0     H34982   2.868   0.286   0.844  1.5285  1.5592  0.8777
 1000MOL0     H34983   3.059   0.448   0.850 -1.5830  0.2354  0.7108
 1000MOL0     H34984   3.280   0.701   0.771  0.0348  0.5966  0.1847
 1000MOL0     H34985   3.433   0.877   0.826 -1.2840 -0.3801 -0.5781
 1000MOL0     H34986   5.525   1.206   0.932  2.0022 -0.0046 -0.6144
 1000MOL0     H34987   5.719   1.129   1.080  1.6934 -3.3170  1.2817
 1000MOL0     H34988   6.222   1.007   1.007 -0.3745 -1.7395 -2.3278
 1000MOL0     H34989   6.404   0.904   1.126 -1.7215  0.6409 -1.2759
 1000MOL0     H34990   6.447   0.637   1.474  3.2216  0.9010 -2.0257
 1000MOL0     H34991   6.328   0.538   1.389  3.0467 -4.6648  0.4851
 1000MOL0     H34992   6.610   0.584   1.366 -0.7407  0.5537 -0.4360
 1000MOL0     H34993   6.541   0.532   1.217 -0.2379  0.8501 -0.4994
 1000MOL0     H34994   6.422   0.337   1.380  0.2791 -2.5378  3.2504
 1000MOL0     H34995   6.558   0.371   1.480 -1.3565 -0.6408 -0.3151
 1000MOL0     H34996   6.595   0.181   1.327 -0.5635  0.8481  1.3492
 1000MOL0     H34997   6.711   0.307   1.289 -0.7688 -0.0677 -0.0702
 1000MOL0     H34998   6.516   0.265   0.924  1.8106  1.5194  0.4239
 1000MOL0     H34999   6.123   0.650   1.348  0.3498 -0.8429 -1.4866
 1000MOL0     H35000   5.945   0.761   1.265  0.4298 -0.2938 -0.6792
 1001MOL0     O35001   5.830   9.475   1.753 -0.3493  0.2426 -0.1164
 1001MOL0     C35002   5.866   9.559   1.677 -0.6914 -0.9046 -0.0111
 1001MOL0     O35003   5.792   9.655   1.621  0.7276 -0.0161  0.1783
 1001MOL0     C35004   5.662   9.649   1.662  1.0236  0.1560 -0.5974
 1001MOL0     C35005   5.580   9.541   1.641  0.3464  0.2814 -0.1322
 1001MOL0     C35006   5.447   9.552   1.684  0.0250  1.1571 -0.1655
 1001MOL0     C35007   5.385   9.660   1.756 -0.3520 -0.1702 -0.1491
 1001MOL0     O35008   5.255   9.678   1.799 -0.4347  0.0611 -0.8143
 1001MOL0     C35009   5.146   9.577   1.767 -0.3364 -0.4900 -0.4810
 1001MOL0     C35010   5.011   9.616   1.825 -0.4805  0.2056 -0.1216
 1001MOL0     C35011   4.930   9.727   1.748  0.7014  0.4531 -0.1342
 1001MOL0     C35012   4.885   9.685   1.605  0.1905  0.3116  0.1235
 1001MOL0     C35013   4.779   9.767   1.535  1.2458 -0.3402 -0.8654
 1001MOL0     C35014   4.643   9.769   1.615 -0.0403 -0.2913 -0.6402
 1001MOL0     C35015   4.528   9.859   1.552 -0.5190  0.4362  0.4595
 1001MOL0     C35016   4.390   9.829   1.603 -0.6929 -0.3915 -0.8437
 1001MOL0     N35017   4.284   9.887   1.533 -0.4255  0.3367 -0.0043
 1001MOL0     C35018   4.179   9.826   1.467  0.3064  0.1380 -0.1906
 1001MOL0     C35019   4.103   9.920   1.415  0.1787 -0.6941  0.9636
 1001MOL0     C35020   3.992   9.922   1.309  0.9546  0.0547  0.2492
 1001MOL0     C35021   3.850   9.906   1.377 -0.5490 -0.4218 -0.0118
 1001MOL0     C35022   3.744   9.902   1.266  0.1259 -0.9000  0.1412
 1001MOL0     C35023   3.611   9.863   1.327  0.3445  0.2986 -0.0427
 1001MOL0     O35024   3.529   9.809   1.229  0.3354  0.8760 -0.3335
 1001MOL0     C35025   3.421   9.717   1.251 -0.0157 -0.6227  0.2463
 1001MOL0     C35026   3.380   9.678   1.378  0.7994  0.0148  0.2516
 1001MOL0     C35027   3.265   9.603   1.396 -0.2996 -0.8624  0.2073
 1001MOL0     C35028   3.236   9.563   1.540  0.4133  0.4823  0.4801
 1001MOL0     C35029   3.182   9.573   1.283  0.1058 -0.3384  0.2177
 1001MOL0     C35030   3.055   9.490   1.288 -0.4544 -0.1987  0.9574
 1001MOL0     O35031   3.018   9.421   1.171 -0.3991 -0.2589 -1.0917
 1001MOL0     C35032   2.881   9.394   1.154  0.4604 -0.4236 -0.5218
 1001MOL0     C35033   2.773   9.483   1.194  0.5424 -0.8426 -0.8118
 1001MOL0     C35034   2.637   9.447   1.184 -0.5045  0.3490 -0.6498
 1001MOL0     C35035   2.603   9.336   1.113 -0.9423 -0.6304 -0.5636
 1001MOL0     O35036   2.474   9.295   1.097 -0.5492  0.5633  0.3967
 1001MOL0     C35037   2.388   9.391   1.044  1.2066  0.5250 -0.2442
 1001MOL0     C35038   2.284   9.308   0.975  0.2330 -0.7836 -0.5756
 1001MOL0     C35039   2.189   9.414   0.915  0.4669 -0.0978  0.0140
 1001MOL0     C35040   2.076   9.330   0.842  0.5077 -0.5721 -0.6726
 1001MOL0     C35041   1.983   9.432   0.767  0.5293 -0.8252 -0.2600
 1001MOL0     C35042   1.854   9.363   0.713  0.3701  0.2543  0.6491
 1001MOL0     C35043   1.742   9.353   0.815 -1.1466 -0.2186 -0.0668
 1001MOL0     C35044   1.612   9.320   0.746 -1.1228  0.0442  0.3507
 1001MOL0    Cl35045   1.469   9.273   0.850  0.6312  0.2340 -0.0443
 1001MOL0     C35046   2.705   9.257   1.068  0.0670 -0.0343  0.3582
 1001MOL0     C35047   2.845   9.285   1.081 -0.3448 -0.5611  0.6141
 1001MOL0     O35048   3.001   9.488   1.397 -0.3170  0.5945  0.1928
 1001MOL0     C35049   3.224   9.617   1.154  0.5149  0.3444 -0.4673
 1001MOL0     C35050   3.339   9.699   1.140 -0.2102  0.7156  0.0961
 1001MOL0     N35051   4.153  10.038   1.462 -0.3668  0.4077  0.5546
 1001MOL0     N35052   4.270  10.015   1.519  0.0043  0.6262 -0.0320
 1001MOL0     C35053   5.481   9.765   1.784  0.4121 -0.7547  0.1563
 1001MOL0     C35054   5.620   9.765   1.727  0.1846 -0.1823  0.0850
 1001MOL0     C35055   6.013   9.570   1.643  0.9447  0.3136 -0.2065
 1001MOL0     C35056   6.113   9.493   1.706 -0.1460  0.3503  0.0013
 1001MOL0     C35057   6.252   9.512   1.665 -0.0827 -0.2235  0.3177
 1001MOL0     C35058   6.297   9.601   1.568  0.0248 -0.2473  0.3216
 1001MOL0     O35059   6.427   9.594   1.537  0.4838 -0.9456 -0.3368
 1001MOL0     C35060   6.473   9.698   1.447  0.1575 -0.8624  0.5768
 1001MOL0     C35061   6.612   9.680   1.385 -0.2293 -0.3155 -0.0268
 1001MOL0     C35062   6.721   9.675   1.484 -0.3020  0.0368 -0.2432
 1001MOL0     C35063   6.855   9.641   1.405  0.0360 -0.9961 -0.3455
 1001MOL0     C35064   6.959   9.591   1.492 -0.0564 -0.4722  0.4272
 1001MOL0     C35065   7.045   9.530   1.556 -0.1044  1.1730 -0.3704
 1001MOL0     C35066   6.191   9.672   1.500 -0.6263 -0.7860 -0.4593
 1001MOL0     C35067   6.058   9.655   1.546  0.6518 -0.4390  0.1198
 1001MOL0     H35068   5.620   9.456   1.587 -0.9710  0.3803 -1.3058
 1001MOL0     H35069   5.379   9.471   1.659 -0.4228  1.5365 -0.1991
 1001MOL0     H35070   5.130   9.570   1.659 -0.2197  0.4044 -0.5683
 1001MOL0     H35071   5.166   9.477   1.806 -1.5481 -1.3744 -2.0017
 1001MOL0     H35072   4.944   9.530   1.829 -2.1183  1.4049 -0.7554
 1001MOL0     H35073   5.022   9.645   1.930  1.9316  2.3694 -0.8604
 1001MOL0     H35074   4.838   9.744   1.805 -1.1613  3.0859 -3.5457
 1001MOL0     H35075   4.980   9.823   1.732  2.9164 -1.1704 -4.3852
 1001MOL0     H35076   4.969   9.702   1.537 -2.3777  1.3739 -3.0430
 1001MOL0     H35077   4.857   9.579   1.608  0.5915  0.2191  0.6604
 1001MOL0     H35078   4.817   9.868   1.518  1.7182 -0.8466 -3.2193
 1001MOL0     H35079   4.767   9.715   1.439 -1.9357 -3.9887  1.2006
 1001MOL0     H35080   4.603   9.667   1.616 -1.8031  0.3668  1.0213
 1001MOL0     H35081   4.663   9.813   1.713  3.2466  0.3941 -1.5023
 1001MOL0     H35082   4.558   9.963   1.574  2.5520 -0.3935  0.7220
 1001MOL0     H35083   4.536   9.850   1.444  2.7431  0.5480  0.5900
 1001MOL0     H35084   4.391   9.867   1.706  0.4781  0.3925 -1.1223
 1001MOL0     H35085   4.373   9.721   1.605 -1.5825 -0.2549 -0.6605
 1001MOL0     H35086   4.155   9.723   1.442 -0.4868  0.5567 -1.2268
 1001MOL0     H35087   4.000  10.018   1.257 -1.7688 -0.6500 -1.7052
 1001MOL0     H35088   4.017   9.839   1.241 -2.3184 -2.0703  1.3941
 1001MOL0     H35089   3.829  10.002   1.426 -0.8632  0.5880 -2.0263
 1001MOL0     H35090   3.848   9.827   1.453  3.0538  0.6015  1.3976
 1001MOL0     H35091   3.780   9.824   1.198 -0.7675  1.1202 -2.8658
 1001MOL0     H35092   3.745   9.999   1.215 -4.4767  0.1832  1.5948
 1001MOL0     H35093   3.564   9.958   1.354 -0.6191 -0.7767  2.4662
 1001MOL0     H35094   3.620   9.793   1.411 -0.7230 -0.8296 -0.8316
 1001MOL0     H35095   3.435   9.692   1.471  3.3774 -1.7008 -0.9078
 1001MOL0     H35096   3.136   9.597   1.570  0.1169 -1.5468  2.0043
 1001MOL0     H35097   3.243   9.455   1.557  2.2002  0.5667  0.4383
 1001MOL0     H35098   3.307   9.602   1.613  1.0645 -1.6893  1.0878
 1001MOL0     H35099   2.793   9.576   1.246 -0.3772 -1.9342  1.6364
 1001MOL0     H35100   2.559   9.518   1.208 -0.4049  0.0488  0.5797
 1001MOL0     H35101   2.343   9.464   1.113  1.5320 -0.3933  0.9679
 1001MOL0     H35102   2.431   9.459   0.970  2.2359  2.1329  1.7232
 1001MOL0     H35103   2.317   9.243   0.893  0.7381 -2.5694  0.9687
 1001MOL0     H35104   2.229   9.250   1.050  2.5768 -3.0087 -0.4338
 1001MOL0     H35105   2.252   9.467   0.844  1.8149 -3.6071 -1.6842
 1001MOL0     H35106   2.142   9.479   0.990 -0.4070  0.4458 -0.9818
 1001MOL0     H35107   2.116   9.266   0.763  0.6982 -0.2557 -0.8393
 1001MOL0     H35108   2.025   9.271   0.918  3.4049 -0.4132  1.5797
 1001MOL0     H35109   2.037   9.480   0.685 -1.3171  2.5740  0.3446
 1001MOL0     H35110   1.946   9.507   0.837 -0.3807 -1.0755 -0.4576
 1001MOL0     H35111   1.830   9.418   0.622  3.1522  0.7320  0.1011
 1001MOL0     H35112   1.876   9.259   0.687  0.7017  0.4845 -0.0283
 1001MOL0     H35113   1.740   9.447   0.871 -0.9735 -0.5299  0.4711
 1001MOL0     H35114   1.770   9.277   0.888  1.0692  1.4803  0.9803
 1001MOL0     H35115   1.631   9.236   0.679 -1.4146 -0.5695  1.0159
 1001MOL0     H35116   1.573   9.404   0.688 -0.7181  0.5379  0.7792
 1001MOL0     H35117   2.674   9.176   1.003 -0.2413  2.3958 -2.7675
 1001MOL0     H35118   2.920   9.218   1.040 -1.3022 -1.3461  0.1122
 1001MOL0     H35119   3.161   9.602   1.067  1.6228 -3.5132 -0.8099
 1001MOL0     H35120   3.357   9.733   1.039 -0.9022  0.1825 -0.2110
 1001MOL0     H35121   5.444   9.856   1.832  1.5661 -0.0343 -0.2757
 1001MOL0     H35122   5.687   9.848   1.746 -2.3589  1.6202  2.1090
 1001MOL0     H35123   6.081   9.419   1.778  1.7649 -2.7464 -2.0913
 1001MOL0     H35124   6.322   9.448   1.718 -0.8465 -0.3208  1.2234
 1001MOL0     H35125   6.408   9.695   1.359  0.2636 -0.0886  0.4665
 1001MOL0     H35126   6.470   9.801   1.484 -3.1937 -1.1277  1.3463
 1001MOL0     H35127   6.635   9.763   1.317 -0.2459 -0.0619  0.2789
 1001MOL0     H35128   6.615   9.581   1.338  1.0499 -0.5788  0.5497
 1001MOL0     H35129   6.700   9.598   1.560 -0.6150  1.2033  0.8897
 1001MOL0     H35130   6.727   9.772   1.534  1.3551  1.1884 -2.5074
 1001MOL0     H35131   6.877   9.736   1.355 -0.2233 -0.8923 -0.2641
 1001MOL0     H35132   6.843   9.562   1.331 -1.5635 -1.7112  0.6129
 1001MOL0     H35133   7.117   9.473   1.611  0.6442  2.1840 -0.2593
 1001MOL0     H35134   6.205   9.736   1.414 -2.8836  0.1145 -0.2372
 1001MOL0     H35135   5.989   9.714   1.487  1.0793 -1.7630 -1.8066
 1002MOL0     O35136   6.147  10.911   2.881  0.2684 -0.5700  0.3879
 1002MOL0     C35137   6.172  10.901   3.000  0.6859  0.3035 -0.5217
 1002MOL0     O35138   6.102  10.836   3.093 -0.0935 -0.3442  0.4879
 1002MOL0     C35139   6.005  10.742   3.045  0.4299  0.0062 -0.5230
 1002MOL0     C35140   6.005  10.663   2.923 -0.1229  0.6294  0.5325
 1002MOL0     C35141   5.895  10.574   2.897 -0.1598 -0.5902 -1.0167
 1002MOL0     C35142   5.796  10.552   2.992  0.2205 -0.4224  0.3470
 1002MOL0     O35143   5.709  10.458   2.967 -0.2497 -0.2609 -0.1827
 1002MOL0     C35144   5.759  10.328   3.012 -0.2991  0.2509  0.0549
 1002MOL0     C35145   5.683  10.210   2.950 -0.3542 -0.4250 -0.0202
 1002MOL0     C35146   5.556  10.177   3.029  0.5779 -0.1480  0.2713
 1002MOL0     C35147   5.446  10.283   3.029  0.3302 -0.3649 -0.4085
 1002MOL0     C35148   5.310  10.235   2.984 -0.0922 -1.0752  0.3567
 1002MOL0     C35149   5.299  10.203   2.836  0.1938 -0.2311  0.0809
 1002MOL0     C35150   5.159  10.128   2.803 -0.6577 -0.6497 -0.6310
 1002MOL0     C35151   5.098  10.162   2.663 -0.7700  0.3141  0.1799
 1002MOL0     N35152   4.962  10.113   2.632 -0.0905 -0.0511  0.2468
 1002MOL0     C35153   4.862  10.194   2.670 -0.5850 -0.1757 -0.6307
 1002MOL0     C35154   4.750  10.127   2.636  0.6005  0.0244 -0.9259
 1002MOL0     C35155   4.609  10.182   2.661  0.2037 -0.6159 -0.4547
 1002MOL0     C35156   4.506  10.073   2.705 -0.8107  0.0056  0.7453
 1002MOL0     C35157   4.371  10.131   2.698  0.6204  0.3046  0.0982
 1002MOL0     C35158   4.263  10.031   2.755 -0.3151  0.1577  0.1755
 1002MOL0     O35159   4.134  10.055   2.695 -0.7485 -0.0317  0.3314
 1002MOL0     C35160   4.028   9.969   2.722 -0.3186  0.2685  0.7412
 1002MOL0     C35161   4.047   9.858   2.798 -0.0123  0.0292 -0.3006
 1002MOL0     C35162   3.945   9.762   2.815  0.7416 -0.0939  0.1644
 1002MOL0     C35163   3.975   9.651   2.900  0.7112  0.4842  0.0584
 1002MOL0     C35164   3.822   9.779   2.751  1.2391  0.4991  0.0041
 1002MOL0     C35165   3.716   9.673   2.739  0.0436 -0.7043  0.5766
 1002MOL0     O35166   3.582   9.698   2.720 -0.8177  0.2544 -0.4648
 1002MOL0     C35167   3.501   9.597   2.692  0.3979  0.1399 -0.2906
 1002MOL0     C35168   3.413   9.607   2.590  0.2479 -1.3462 -0.1071
 1002MOL0     C35169   3.330   9.509   2.551  1.0932  0.7413 -0.5874
 1002MOL0     C35170   3.314   9.391   2.632  0.7194  0.0114  0.4048
 1002MOL0     O35171   3.222   9.296   2.625  0.1574  0.1073  0.0533
 1002MOL0     C35172   3.092   9.336   2.581  1.3402  0.1209 -0.2572
 1002MOL0     C35173   3.006   9.220   2.628  1.0417 -0.2352  0.6304
 1002MOL0     C35174   2.881   9.197   2.541  0.3778 -0.4669 -0.2145
 1002MOL0     C35175   2.782   9.091   2.601 -0.0600  0.2793 -0.7855
 1002MOL0     C35176   2.665   9.090   2.503  0.3447 -0.4789  0.6352
 1002MOL0     C35177   2.584   8.966   2.529 -1.0412  0.5392  0.3339
 1002MOL0     C35178   2.461   8.949   2.444  0.5275 -0.1490 -0.2896
 1002MOL0     C35179   2.390   8.823   2.485  0.0573  0.5947  0.1180
 1002MOL0    Cl35180   2.223   8.822   2.417 -0.2840 -0.1139  0.3956
 1002MOL0     C35181   3.398   9.372   2.735  0.3509 -0.0129 -0.8826
 1002MOL0     C35182   3.492   9.473   2.768 -0.7229 -0.2123 -0.0831
 1002MOL0     O35183   3.762   9.562   2.735 -0.6022  0.5219 -0.4522
 1002MOL0     C35184   3.798   9.905   2.686  0.4407 -0.2612  0.4898
 1002MOL0     C35185   3.902   9.996   2.666  0.0684 -0.0477 -0.1889
 1002MOL0     N35186   4.791  10.014   2.576 -0.0628  0.2938 -0.2903
 1002MOL0     N35187   4.919  10.003   2.573 -0.7865 -0.3401  0.1703
 1002MOL0     C35188   5.798  10.631   3.106  0.5495 -0.4255  0.6649
 1002MOL0     C35189   5.895  10.729   3.122  0.1982  0.0696 -0.0817
 1002MOL0     C35190   6.273  11.003   3.054 -0.0271  0.1955 -0.3537
 1002MOL0     C35191   6.303  11.007   3.192  0.1144 -0.5504 -0.1759
 1002MOL0     C35192   6.389  11.106   3.244  0.4595 -0.1691 -0.3030
 1002MOL0     C35193   6.451  11.197   3.160  0.2152  0.0617 -0.0012
 1002MOL0     O35194   6.522  11.300   3.225 -0.0576  0.6566  0.7950
 1002MOL0     C35195   6.638  11.356   3.154  0.4294 -0.3669 -0.5623
 1002MOL0     C35196   6.756  11.261   3.131 -0.1589  0.5550  0.2030
 1002MOL0     C35197   6.853  11.261   3.248  0.0423 -0.0228 -0.1335
 1002MOL0     C35198   6.791  11.168   3.354 -0.2174 -0.2177 -0.7808
 1002MOL0     C35199   6.885  11.127   3.457 -0.2873  0.3621  0.6063
 1002MOL0     C35200   6.955  11.100   3.553 -0.8700  0.1182 -0.4534
 1002MOL0     C35201   6.428  11.188   3.022  0.3131 -0.1626  0.3949
 1002MOL0     C35202   6.344  11.084   2.967  0.3380 -0.0629  0.0761
 1002MOL0     H35203   6.082  10.674   2.847 -0.2049  0.7007  0.4594
 1002MOL0     H35204   5.877  10.519   2.805 -1.1869 -1.6577 -0.2063
 1002MOL0     H35205   5.864  10.305   3.030 -0.9670 -2.3814  1.1131
 1002MOL0     H35206   5.732  10.333   3.118 -0.5244 -0.5773  0.0413
 1002MOL0     H35207   5.654  10.224   2.845  0.6499 -0.0461 -0.2505
 1002MOL0     H35208   5.754  10.128   2.961 -2.5794 -2.4477  0.2401
 1002MOL0     H35209   5.510  10.085   2.992 -2.1680  1.1638  0.2341
 1002MOL0     H35210   5.577  10.136   3.128  1.3555 -2.1856 -0.6821
 1002MOL0     H35211   5.438  10.334   3.126  0.2063 -1.4348  0.1570
 1002MOL0     H35212   5.483  10.362   2.963  2.6836  0.0763  1.2856
 1002MOL0     H35213   5.275  10.147   3.039 -2.8926  0.0767  0.5957
 1002MOL0     H35214   5.237  10.314   3.001 -0.6607 -1.3652 -0.6424
 1002MOL0     H35215   5.308  10.303   2.790  1.3555 -0.0518  0.6742
 1002MOL0     H35216   5.381  10.140   2.803  1.8683  0.4543  2.6354
 1002MOL0     H35217   5.181  10.021   2.816 -0.3013 -0.2844  2.4956
 1002MOL0     H35218   5.087  10.150   2.882 -0.7542  4.1327 -1.7640
 1002MOL0     H35219   5.172  10.118   2.597  1.9834 -1.0817  3.8404
 1002MOL0     H35220   5.091  10.270   2.648 -1.8116  0.0520 -1.4674
 1002MOL0     H35221   4.876  10.292   2.715 -0.9976  0.1836 -1.2623
 1002MOL0     H35222   4.607  10.272   2.723 -0.0217  0.8618 -2.5005
 1002MOL0     H35223   4.561  10.231   2.576 -1.8834 -0.9225  0.4981
 1002MOL0     H35224   4.537  10.052   2.808  1.3458 -0.1283  0.1177
 1002MOL0     H35225   4.525   9.980   2.651  3.9630 -0.2428  2.3279
 1002MOL0     H35226   4.336  10.134   2.595 -0.4873  6.9561  0.2764
 1002MOL0     H35227   4.349  10.224   2.751 -2.9747 -0.0103 -0.6332
 1002MOL0     H35228   4.258  10.021   2.864 -1.5131 -3.6983 -0.0940
 1002MOL0     H35229   4.280   9.930   2.715 -2.0070 -1.0798  2.3705
 1002MOL0     H35230   4.137   9.838   2.856 -1.4915  1.9828  2.9676
 1002MOL0     H35231   4.074   9.663   2.946  1.0761  0.9050 -0.8087
 1002MOL0     H35232   3.895   9.627   2.970 -2.8646  0.1349 -3.7463
 1002MOL0     H35233   3.985   9.563   2.836 -1.5732  1.5163 -1.9009
 1002MOL0     H35234   3.413   9.698   2.531 -0.3328 -0.4171  1.2760
 1002MOL0     H35235   3.269   9.530   2.463 -2.2234 -3.5637  0.3914
 1002MOL0     H35236   3.061   9.431   2.626 -0.0818  0.8152 -2.5281
 1002MOL0     H35237   3.091   9.334   2.472  1.7919  1.0949 -0.2865
 1002MOL0     H35238   3.056   9.123   2.629 -1.1136 -1.5058 -2.1736
 1002MOL0     H35239   2.969   9.262   2.722 -1.2772  0.7114 -0.6433
 1002MOL0     H35240   2.926   9.152   2.452 -2.1845  1.1679 -2.5144
 1002MOL0     H35241   2.837   9.293   2.514  0.3455 -1.2675 -3.5457
 1002MOL0     H35242   2.827   8.992   2.606 -2.8931 -1.2342 -2.5293
 1002MOL0     H35243   2.733   9.131   2.691 -3.2666  0.7204 -2.5744
 1002MOL0     H35244   2.709   9.092   2.403 -1.7887  0.8647 -0.3387
 1002MOL0     H35245   2.598   9.176   2.505  1.0556  0.0775  1.9626
 1002MOL0     H35246   2.650   8.879   2.519 -0.5057  1.0447 -0.7169
 1002MOL0     H35247   2.552   8.975   2.633  0.3157  2.4072  0.6391
 1002MOL0     H35248   2.485   8.934   2.338 -1.5173 -0.2343 -0.7879
 1002MOL0     H35249   2.409   9.045   2.432  0.9849 -0.1905 -3.6778
 1002MOL0     H35250   2.378   8.827   2.593  0.6873 -0.6820  0.2458
 1002MOL0     H35251   2.460   8.746   2.452  1.8242  1.8416  0.8333
 1002MOL0     H35252   3.396   9.289   2.805  4.1147  1.2062  0.9079
 1002MOL0     H35253   3.559   9.455   2.852  1.1182  0.2134 -1.3886
 1002MOL0     H35254   3.700   9.929   2.646 -0.6799 -1.7122  2.1881
 1002MOL0     H35255   3.888  10.089   2.612 -0.0371  1.8195  2.8632
 1002MOL0     H35256   5.714  10.609   3.171  2.7455 -0.4690  3.7063
 1002MOL0     H35257   5.898  10.799   3.205 -0.1531 -1.8396  1.6355
 1002MOL0     H35258   6.257  10.938   3.263 -3.0123  0.5404 -0.9957
 1002MOL0     H35259   6.406  11.120   3.350  0.4117  2.0338 -0.5328
 1002MOL0     H35260   6.604  11.393   3.057  0.4130 -0.5901 -0.6432
 1002MOL0     H35261   6.673  11.441   3.213  3.1066 -2.8625  1.7955
 1002MOL0     H35262   6.813  11.288   3.042  0.8393 -1.8817  0.0393
 1002MOL0     H35263   6.713  11.161   3.118  1.1658 -0.0964  0.6412
 1002MOL0     H35264   6.878  11.364   3.277 -0.9104  0.2874 -0.3710
 1002MOL0     H35265   6.945  11.211   3.219 -3.4017 -5.3198 -3.7507
 1002MOL0     H35266   6.758  11.078   3.302  2.8811 -0.2963 -2.8452
 1002MOL0     H35267   6.710  11.222   3.405 -0.9238 -2.6007  0.8092
 1002MOL0     H35268   7.019  11.081   3.637 -0.6386  0.1642 -0.6161
 1002MOL0     H35269   6.488  11.256   2.963 -0.1523  2.5049  2.7913
 1002MOL0     H35270   6.323  11.069   2.862  0.1987 -1.3220  0.2724
 1003MOL0     O35271   5.673   9.987   0.330 -0.7541  1.0692 -0.1284
 1003MOL0     C35272   5.657   9.867   0.336 -0.0750 -0.0575  0.1385
 1003MOL0     O35273   5.543   9.808   0.383 -0.6540 -0.4087 -0.0265
 1003MOL0     C35274   5.476   9.875   0.475  0.0479 -0.1136 -0.7806
 1003MOL0     C35275   5.495   9.988   0.566 -0.6667  0.2070 -0.0823
 1003MOL0     C35276   5.400  10.036   0.646 -0.1192 -1.1221  0.3771
 1003MOL0     C35277   5.283   9.961   0.673  0.3924  0.0560 -0.4430
 1003MOL0     O35278   5.195  10.012   0.752  0.6408  0.0882  0.1953
 1003MOL0     C35279   5.089   9.934   0.810 -0.8416  0.2178 -0.2972
 1003MOL0     C35280   5.027  10.028   0.914 -0.4126 -0.4377  0.3894
 1003MOL0     C35281   4.874   9.988   0.931  0.1793 -0.1421  0.5612
 1003MOL0     C35282   4.861   9.863   1.029 -0.1692 -0.2298 -0.1800
 1003MOL0     C35283   4.715   9.828   1.028 -0.1927  0.0928 -0.9955
 1003MOL0     C35284   4.670   9.725   1.128  0.5455  0.8689  0.1090
 1003MOL0     C35285   4.517   9.692   1.127 -0.1776  0.1541  0.2001
 1003MOL0     C35286   4.495   9.547   1.161 -0.3530 -1.2612 -0.0784
 1003MOL0     N35287   4.360   9.520   1.216 -0.4922  0.0001  0.9250
 1003MOL0     C35288   4.243   9.526   1.133  1.1915  0.3511  0.1190
 1003MOL0     C35289   4.135   9.533   1.210 -0.4633  0.0995  0.3232
 1003MOL0     C35290   4.001   9.514   1.156 -0.3208  0.0063  0.2130
 1003MOL0     C35291   3.910   9.433   1.250  0.0736 -0.3675  0.4225
 1003MOL0     C35292   3.845   9.519   1.359  0.3413  0.2237  0.7210
 1003MOL0     C35293   3.719   9.452   1.420 -0.3785  0.7918 -0.6950
 1003MOL0     O35294   3.738   9.319   1.479 -0.3242  0.3129 -0.0701
 1003MOL0     C35295   3.622   9.255   1.520 -0.1212 -0.4177  0.0842
 1003MOL0     C35296   3.629   9.115   1.503 -0.2576 -0.1632 -0.6908
 1003MOL0     C35297   3.528   9.031   1.547 -0.8415  0.9435  0.8927
 1003MOL0     C35298   3.561   8.887   1.524  0.2052  0.0767  0.1591
 1003MOL0     C35299   3.404   9.083   1.601 -0.2408 -0.2741  0.0146
 1003MOL0     C35300   3.286   9.003   1.657 -0.4973 -0.3064 -0.2777
 1003MOL0     O35301   3.315   8.868   1.670 -0.3076 -0.1476  0.1403
 1003MOL0     C35302   3.200   8.794   1.709  0.0342 -0.6042 -0.3310
 1003MOL0     C35303   3.073   8.793   1.633 -0.2357 -0.0102 -0.2397
 1003MOL0     C35304   2.976   8.720   1.692  0.6985  0.1671  0.7207
 1003MOL0     C35305   2.991   8.646   1.810  0.4501  0.1727  0.2866
 1003MOL0     O35306   2.887   8.558   1.833  0.0446  0.1827 -0.8859
 1003MOL0     C35307   2.868   8.513   1.966 -0.9601  0.8304 -0.9832
 1003MOL0     C35308   2.736   8.444   1.978  0.5943  0.1716  0.2578
 1003MOL0     C35309   2.747   8.298   1.935 -0.3008  0.7199 -0.4759
 1003MOL0     C35310   2.610   8.223   1.953  0.3226 -0.2456 -0.1094
 1003MOL0     C35311   2.602   8.073   1.907 -0.3839 -0.4946 -0.0134
 1003MOL0     C35312   2.458   8.024   1.914  0.0697  0.6015 -0.1814
 1003MOL0     C35313   2.429   7.881   1.873 -0.8061 -0.2682 -0.9158
 1003MOL0     C35314   2.455   7.850   1.725 -0.2421 -0.3142 -0.4775
 1003MOL0    Cl35315   2.366   7.966   1.616 -0.8227  0.0493 -0.2925
 1003MOL0     C35316   3.110   8.643   1.881 -0.1886  1.0571  0.1996
 1003MOL0     C35317   3.213   8.721   1.829  1.0612  0.1131  0.2420
 1003MOL0     O35318   3.188   9.067   1.691  0.1308 -0.5083 -0.6218
 1003MOL0     C35319   3.391   9.216   1.600 -0.0440 -1.3529 -0.5992
 1003MOL0     C35320   3.496   9.306   1.567 -0.1200 -0.7017  0.5865
 1003MOL0     N35321   4.187   9.523   1.339  0.1886  0.7538  0.6072
 1003MOL0     N35322   4.316   9.520   1.341 -0.2673 -0.9686 -0.5830
 1003MOL0     C35323   5.253   9.846   0.591 -0.1497 -0.2753 -0.0157
 1003MOL0     C35324   5.360   9.795   0.506  0.7744 -0.2962  0.1657
 1003MOL0     C35325   5.751   9.781   0.263  0.4145 -0.4765  0.6890
 1003MOL0     C35326   5.829   9.828   0.155  0.5597  0.5096  0.6956
 1003MOL0     C35327   5.902   9.736   0.078  0.4974  0.3699  0.7106
 1003MOL0     C35328   5.903   9.604   0.093 -0.1133 -0.0417 -0.3497
 1003MOL0     O35329   5.949   9.506   0.013 -0.0575 -0.5065 -0.4783
 1003MOL0     C35330   6.033   9.547  -0.093  1.0997 -0.7196  0.1002
 1003MOL0     C35331   6.100   9.425  -0.148 -0.3704  0.4868  0.1080
 1003MOL0     C35332   5.996   9.333  -0.217 -0.7174  0.1647 -1.2569
 1003MOL0     C35333   6.043   9.190  -0.218  0.1344  0.1455 -0.1443
 1003MOL0     C35334   6.011   9.106  -0.099  0.3775 -0.4276 -0.3851
 1003MOL0     C35335   5.986   9.051   0.008  0.2568 -0.6999  0.1852
 1003MOL0     C35336   5.819   9.556   0.200 -0.6244 -0.6241 -0.9353
 1003MOL0     C35337   5.751   9.648   0.294 -0.3313 -0.1950 -0.0489
 1003MOL0     H35338   5.594  10.032   0.570 -0.9842  0.8793  2.0421
 1003MOL0     H35339   5.422  10.116   0.716 -1.4330 -2.5573  2.5542
 1003MOL0     H35340   5.017   9.907   0.733  1.4224 -0.5131 -2.2544
 1003MOL0     H35341   5.130   9.849   0.865  3.8308  1.9211 -0.7342
 1003MOL0     H35342   5.085  10.026   1.006  2.0294 -1.6094 -1.0704
 1003MOL0     H35343   5.026  10.133   0.882 -2.7315 -0.9981 -1.7098
 1003MOL0     H35344   4.828  10.080   0.969  0.8153  1.5040 -2.3431
 1003MOL0     H35345   4.829   9.956   0.836  1.6717  2.0301 -0.9585
 1003MOL0     H35346   4.918   9.780   0.987  1.0238  1.2543 -1.6416
 1003MOL0     H35347   4.897   9.897   1.127 -0.0045 -0.4868 -0.1511
 1003MOL0     H35348   4.662   9.920   1.053  1.3285  1.2290 -1.7560
 1003MOL0     H35349   4.688   9.803   0.924  0.2518  0.2099 -1.1399
 1003MOL0     H35350   4.717   9.636   1.086  1.0454  2.2536 -2.4974
 1003MOL0     H35351   4.715   9.734   1.227  2.6427  0.7497 -0.7843
 1003MOL0     H35352   4.470   9.755   1.202  1.8402  1.0428  0.7838
 1003MOL0     H35353   4.464   9.711   1.033  0.3324 -2.1101 -0.6088
 1003MOL0     H35354   4.572   9.522   1.235 -1.5174 -1.1452  1.1925
 1003MOL0     H35355   4.520   9.486   1.073  2.6815 -0.9884  0.4857
 1003MOL0     H35356   4.238   9.528   1.025 -1.1654 -2.7252  0.0168
 1003MOL0     H35357   3.962   9.605   1.109  0.7200 -1.2480 -3.4888
 1003MOL0     H35358   4.015   9.447   1.070 -0.9013  2.6513 -2.0705
 1003MOL0     H35359   3.974   9.352   1.287  3.1496  1.6220 -0.1685
 1003MOL0     H35360   3.826   9.386   1.197 -0.2668  0.0730  0.5679
 1003MOL0     H35361   3.821   9.619   1.321 -1.0117 -1.8025 -4.5744
 1003MOL0     H35362   3.919   9.529   1.439 -1.6296  0.4981  2.6242
 1003MOL0     H35363   3.628   9.455   1.359 -0.2552 -0.2946 -0.9607
 1003MOL0     H35364   3.692   9.508   1.510 -0.6901 -1.1817  0.5009
 1003MOL0     H35365   3.716   9.088   1.444 -2.0241 -1.4301 -2.8467
 1003MOL0     H35366   3.578   8.832   1.616 -1.0706  0.3053  0.5551
 1003MOL0     H35367   3.474   8.840   1.477  0.6038 -1.1629  0.6217
 1003MOL0     H35368   3.644   8.874   1.453 -1.0066  3.1813 -2.1100
 1003MOL0     H35369   3.070   8.856   1.545  2.1850  2.2436  1.1281
 1003MOL0     H35370   2.881   8.700   1.642  0.1260 -1.1152  2.2502
 1003MOL0     H35371   2.949   8.444   1.994  0.3600  2.6426 -0.1854
 1003MOL0     H35372   2.872   8.585   2.048  0.9482 -0.1744 -0.1157
 1003MOL0     H35373   2.705   8.450   2.083 -2.0585 -0.2709 -0.4470
 1003MOL0     H35374   2.655   8.492   1.923 -0.0987 -0.1407  1.0011
 1003MOL0     H35375   2.831   8.249   1.986 -0.8786  0.8591  0.6639
 1003MOL0     H35376   2.772   8.293   1.829  1.7195 -0.9138  0.0027
 1003MOL0     H35377   2.588   8.223   2.061  0.0054  1.7226 -0.1451
 1003MOL0     H35378   2.542   8.279   1.889 -1.7650 -2.3130  0.1368
 1003MOL0     H35379   2.664   8.013   1.974 -0.4400  0.0086  0.4875
 1003MOL0     H35380   2.632   8.070   1.802 -1.8064 -1.3585 -0.4280
 1003MOL0     H35381   2.439   8.032   2.022  2.4413  0.4583  0.3096
 1003MOL0     H35382   2.390   8.088   1.858  2.8412  3.2700 -0.7779
 1003MOL0     H35383   2.321   7.884   1.890 -0.7146  1.4772 -0.4804
 1003MOL0     H35384   2.478   7.814   1.944  1.3941  0.1782 -1.9493
 1003MOL0     H35385   2.397   7.759   1.706 -1.7333  0.1603  1.4350
 1003MOL0     H35386   2.559   7.829   1.700 -0.3382 -0.1450 -1.0371
 1003MOL0     H35387   3.131   8.580   1.967 -0.9707 -0.2502 -0.5342
 1003MOL0     H35388   3.311   8.729   1.874  1.2629 -2.0433  0.3094
 1003MOL0     H35389   3.299   9.266   1.627  0.8290  1.7732 -2.7182
 1003MOL0     H35390   3.489   9.414   1.571  0.4883 -0.5342 -1.6309
 1003MOL0     H35391   5.151   9.809   0.582  0.4399 -1.9617 -0.0575
 1003MOL0     H35392   5.336   9.708   0.446 -0.0114 -0.9004  1.3151
 1003MOL0     H35393   5.822   9.931   0.125  0.9537 -0.0956 -1.6742
 1003MOL0     H35394   5.941   9.780  -0.013  2.2104  0.4329  1.4340
 1003MOL0     H35395   5.982   9.598  -0.175  0.8326  0.1572  0.7939
 1003MOL0     H35396   6.111   9.612  -0.053  1.9145  0.0724 -2.5939
 1003MOL0     H35397   6.155   9.377  -0.067  2.0579  0.9374 -1.1696
 1003MOL0     H35398   6.164   9.456  -0.232 -0.1774 -2.3580 -0.8906
 1003MOL0     H35399   5.973   9.367  -0.319 -0.8349 -0.2693 -1.3774
 1003MOL0     H35400   5.903   9.335  -0.161 -0.1837  1.6197 -0.3708
 1003MOL0     H35401   6.151   9.182  -0.235  0.6698  2.4930  1.7300
 1003MOL0     H35402   5.998   9.137  -0.303  1.4664  0.2251 -0.9349
 1003MOL0     H35403   5.978   8.994   0.098 -0.4838  1.3211  1.4534
 1003MOL0     H35404   5.829   9.453   0.234  0.7820 -1.2485 -3.0039
 1003MOL0     H35405   5.694   9.614   0.380 -1.3161  0.4272 -0.4329
 1004MOL0     O35406   9.380   7.355   4.525 -0.3056  0.9353 -0.3044
 1004MOL0     C35407   9.488   7.365   4.466  0.2673  0.7885  0.3762
 1004MOL0     O35408   9.500   7.382   4.324 -0.4981  0.5615  0.3226
 1004MOL0     C35409   9.385   7.389   4.244  0.5223  1.0549  0.2475
 1004MOL0     C35410   9.402   7.312   4.126  0.6850 -0.4410  0.1421
 1004MOL0     C35411   9.308   7.318   4.023  0.5070 -0.4827 -1.0554
 1004MOL0     C35412   9.199   7.418   4.038 -0.1835  0.4281 -0.0434
 1004MOL0     O35413   9.116   7.455   3.943  0.1616 -0.0272 -0.3240
 1004MOL0     C35414   9.086   7.359   3.837  0.0474 -0.1194 -0.4866
 1004MOL0     C35415   8.933   7.387   3.822 -0.5465 -0.2840 -0.9417
 1004MOL0     C35416   8.893   7.534   3.806 -0.3718 -1.1413 -0.3953
 1004MOL0     C35417   8.737   7.553   3.816  0.0360  0.1973  0.9198
 1004MOL0     C35418   8.673   7.481   3.701  0.0154 -0.3830  0.4405
 1004MOL0     C35419   8.532   7.531   3.678 -0.9338  0.5038  0.0210
 1004MOL0     C35420   8.496   7.479   3.545  0.3036  0.3298 -0.5263
 1004MOL0     C35421   8.488   7.322   3.539 -1.0190  0.3726  0.0497
 1004MOL0     N35422   8.420   7.276   3.418 -0.7029 -0.0136  0.7483
 1004MOL0     C35423   8.294   7.310   3.387 -0.7202 -0.0004  0.3391
 1004MOL0     C35424   8.279   7.270   3.263  0.0031  0.3528 -0.4429
 1004MOL0     C35425   8.158   7.283   3.170 -0.2546  0.6348  0.2176
 1004MOL0     C35426   8.199   7.380   3.056 -0.3768  0.6908  0.7540
 1004MOL0     C35427   8.114   7.383   2.929 -0.3807  0.1308  0.0522
 1004MOL0     C35428   7.960   7.399   2.946 -0.7247  0.2019  0.6889
 1004MOL0     O35429   7.878   7.400   2.820  0.9919 -0.8190  0.8603
 1004MOL0     C35430   7.738   7.397   2.823 -0.9739 -0.2963 -0.0449
 1004MOL0     C35431   7.661   7.392   2.932 -0.5178  0.1876 -0.1432
 1004MOL0     C35432   7.520   7.386   2.927 -0.2417 -0.1507  0.4301
 1004MOL0     C35433   7.446   7.389   3.057  0.5097 -0.1397  0.5242
 1004MOL0     C35434   7.454   7.371   2.806  0.2852 -0.5362  0.9743
 1004MOL0     C35435   7.313   7.337   2.780  0.6878  0.7063 -0.2610
 1004MOL0     O35436   7.252   7.393   2.669 -0.4926  0.0550  0.3377
 1004MOL0     C35437   7.117   7.379   2.645 -0.7895  0.8291 -0.7060
 1004MOL0     C35438   7.043   7.487   2.680  0.1932  0.0745  0.9863
 1004MOL0     C35439   6.907   7.488   2.644 -0.0995 -0.1250 -0.1023
 1004MOL0     C35440   6.834   7.371   2.602  0.2461 -0.4494 -0.0953
 1004MOL0     O35441   6.698   7.383   2.576 -0.0299  0.4109  0.0947
 1004MOL0     C35442   6.640   7.267   2.502 -0.4570 -0.3159  0.3026
 1004MOL0     C35443   6.508   7.292   2.432  0.9074  0.6807  0.3333
 1004MOL0     C35444   6.397   7.309   2.532  0.4183 -0.0559  0.2124
 1004MOL0     C35445   6.377   7.448   2.588 -0.3198 -0.8944 -0.6073
 1004MOL0     C35446   6.239   7.458   2.655 -0.5335 -0.4903  0.8180
 1004MOL0     C35447   6.229   7.585   2.731 -0.2224 -1.1013 -0.7695
 1004MOL0     C35448   6.107   7.587   2.824 -0.2560 -0.3476 -0.9484
 1004MOL0     C35449   5.970   7.548   2.755 -0.9457 -0.8344 -0.2957
 1004MOL0    Cl35450   5.919   7.661   2.639  0.0522  0.2837  0.3941
 1004MOL0     C35451   6.915   7.259   2.579 -0.2177  0.4623 -0.2913
 1004MOL0     C35452   7.058   7.262   2.600 -0.1322 -0.9796  0.2761
 1004MOL0     O35453   7.240   7.273   2.864 -0.8304 -0.6435  0.2825
 1004MOL0     C35454   7.536   7.387   2.689 -0.1274  0.6966  0.0404
 1004MOL0     C35455   7.674   7.386   2.698  0.3945  1.4392  0.1445
 1004MOL0     N35456   8.395   7.211   3.216  0.3912  0.4576  0.1988
 1004MOL0     N35457   8.475   7.210   3.315 -0.1217  0.0466 -0.4882
 1004MOL0     C35458   9.191   7.495   4.150 -1.0596  0.5569  0.7424
 1004MOL0     C35459   9.285   7.484   4.249  0.1184 -0.3463  1.0270
 1004MOL0     C35460   9.618   7.360   4.537  0.0920  0.1333  0.1813
 1004MOL0     C35461   9.729   7.426   4.490 -0.1648  0.1240 -1.0838
 1004MOL0     C35462   9.847   7.444   4.572  0.0830 -0.1062  0.0087
 1004MOL0     C35463   9.856   7.374   4.690 -0.8902  0.5578 -0.0970
 1004MOL0     O35464   9.973   7.376   4.767  1.2312  0.0399  0.3529
 1004MOL0     C35465  10.052   7.255   4.734 -0.0147 -0.1540  0.0646
 1004MOL0     C35466  10.147   7.280   4.613 -0.0356 -0.4736 -0.1231
 1004MOL0     C35467  10.240   7.396   4.645  0.1540 -0.2009  0.4033
 1004MOL0     C35468  10.384   7.372   4.589  0.6677  0.5087  0.2373
 1004MOL0     C35469  10.387   7.340   4.443  0.2435 -0.0660 -0.2350
 1004MOL0     C35470  10.387   7.315   4.324  0.5724  0.4200 -0.1093
 1004MOL0     C35471   9.736   7.307   4.738 -0.0775 -0.3733 -0.9022
 1004MOL0     C35472   9.623   7.304   4.659  0.2429  0.7045  0.1122
 1004MOL0     H35473   9.486   7.253   4.093 -0.6276 -2.7338  0.7089
 1004MOL0     H35474   9.331   7.271   3.928  1.9424 -0.1036 -0.9160
 1004MOL0     H35475   9.136   7.386   3.743  0.1603  3.5620  0.4674
 1004MOL0     H35476   9.104   7.255   3.866 -3.7031 -1.3355 -1.9878
 1004MOL0     H35477   8.897   7.328   3.738 -6.5065 -0.3538  1.1982
 1004MOL0     H35478   8.886   7.344   3.912  0.6401 -2.3966 -1.2504
 1004MOL0     H35479   8.918   7.603   3.887 -2.8150  2.6910 -2.5929
 1004MOL0     H35480   8.931   7.582   3.715 -0.4307 -0.3979 -0.0355
 1004MOL0     H35481   8.698   7.510   3.908  0.8757 -0.1190  1.1359
 1004MOL0     H35482   8.703   7.657   3.817 -0.8580 -0.0730  0.0602
 1004MOL0     H35483   8.724   7.484   3.604  0.2716  0.2309  0.5907
 1004MOL0     H35484   8.679   7.376   3.733 -1.5003 -0.8101 -0.5618
 1004MOL0     H35485   8.467   7.508   3.763 -1.5750  2.0771 -0.0160
 1004MOL0     H35486   8.533   7.640   3.668 -2.6005  0.5789  0.4586
 1004MOL0     H35487   8.396   7.518   3.524  0.1955  0.4106  0.1136
 1004MOL0     H35488   8.561   7.520   3.468  0.7559 -3.2967 -2.3291
 1004MOL0     H35489   8.442   7.293   3.635  1.5995  1.0318  1.6027
 1004MOL0     H35490   8.590   7.286   3.531 -1.5753 -1.5071  0.8568
 1004MOL0     H35491   8.232   7.358   3.462 -0.0162  1.7809 -0.1686
 1004MOL0     H35492   8.123   7.183   3.146  3.7745 -0.5634 -1.4890
 1004MOL0     H35493   8.079   7.334   3.226 -2.5046 -1.6191 -0.7723
 1004MOL0     H35494   8.300   7.364   3.018 -1.4231  0.0002 -1.9283
 1004MOL0     H35495   8.195   7.483   3.093  0.1498  1.1057 -0.3217
 1004MOL0     H35496   8.137   7.296   2.866 -1.7977 -1.7072  1.9391
 1004MOL0     H35497   8.140   7.470   2.869 -0.7249  1.6067  1.9579
 1004MOL0     H35498   7.946   7.486   3.011 -2.0530 -0.1078  0.8577
 1004MOL0     H35499   7.935   7.308   3.003 -1.3937  0.2229  0.4409
 1004MOL0     H35500   7.713   7.404   3.027 -0.1502 -0.3951 -0.2638
 1004MOL0     H35501   7.391   7.480   3.081 -0.4112  0.1391 -2.3389
 1004MOL0     H35502   7.372   7.308   3.053 -0.6937  0.9831 -2.4336
 1004MOL0     H35503   7.514   7.361   3.138 -0.6990 -1.9640  0.9927
 1004MOL0     H35504   7.101   7.572   2.714 -0.5998  0.9847  0.1151
 1004MOL0     H35505   6.864   7.582   2.678  0.1290  0.2795 -0.8826
 1004MOL0     H35506   6.698   7.241   2.413  0.9059 -0.5339  1.2171
 1004MOL0     H35507   6.636   7.177   2.565 -2.3358 -0.3500  0.2090
 1004MOL0     H35508   6.524   7.388   2.384 -2.2655  0.5898 -1.0881
 1004MOL0     H35509   6.486   7.205   2.369 -1.8578  0.7125  1.1289
 1004MOL0     H35510   6.410   7.242   2.617  2.3848  0.7314  0.5785
 1004MOL0     H35511   6.306   7.271   2.485  0.9562  0.5872 -1.4207
 1004MOL0     H35512   6.457   7.468   2.661 -0.0393 -0.5700 -0.9955
 1004MOL0     H35513   6.376   7.519   2.504  2.3149 -0.3468 -0.2850
 1004MOL0     H35514   6.214   7.376   2.723 -2.3936 -0.4533  0.2378
 1004MOL0     H35515   6.170   7.455   2.570  1.9385  0.5025 -1.3593
 1004MOL0     H35516   6.318   7.606   2.790  0.1182 -1.1757 -1.2524
 1004MOL0     H35517   6.220   7.666   2.658 -0.5976 -0.2245  0.2256
 1004MOL0     H35518   6.106   7.687   2.869  1.8371  0.1732 -1.9641
 1004MOL0     H35519   6.123   7.522   2.911 -3.6579 -1.7557 -1.2113
 1004MOL0     H35520   5.899   7.535   2.836 -0.1413  1.2936  0.8129
 1004MOL0     H35521   5.989   7.449   2.711  1.6984 -0.9397  0.8832
 1004MOL0     H35522   6.876   7.166   2.539  0.8105 -0.5370  0.9603
 1004MOL0     H35523   7.121   7.175   2.582  0.7664  0.1090 -2.2598
 1004MOL0     H35524   7.497   7.375   2.589 -0.7090 -3.7975  0.6024
 1004MOL0     H35525   7.732   7.385   2.607  2.1510 -2.4877  1.1144
 1004MOL0     H35526   9.112   7.569   4.152 -2.6364 -0.7166 -3.3036
 1004MOL0     H35527   9.292   7.558   4.328  0.8883 -1.0557  1.6425
 1004MOL0     H35528   9.716   7.483   4.399 -1.0143  2.3998  0.3778
 1004MOL0     H35529   9.927   7.505   4.532  1.4351 -1.1657  0.9854
 1004MOL0     H35530  10.104   7.215   4.822  1.7962 -0.1698 -0.9887
 1004MOL0     H35531   9.979   7.175   4.717 -0.2393  0.1903 -0.6426
 1004MOL0     H35532  10.084   7.305   4.527  2.3690  1.5184 -1.4663
 1004MOL0     H35533  10.195   7.182   4.614  0.1071 -0.3951  0.5679
 1004MOL0     H35534  10.250   7.400   4.754 -0.9216 -2.1274  0.6351
 1004MOL0     H35535  10.203   7.489   4.602  0.9620  0.7303  1.6783
 1004MOL0     H35536  10.428   7.291   4.648 -1.3666 -0.5039  0.4419
 1004MOL0     H35537  10.431   7.471   4.598  3.1495 -0.2875 -2.3713
 1004MOL0     H35538  10.398   7.296   4.219 -1.9996  1.8623 -0.7005
 1004MOL0     H35539   9.725   7.255   4.833 -1.3854  1.4519  0.0242
 1004MOL0     H35540   9.547   7.238   4.699  0.5035  0.7748  0.7419
 1005MOL0     O35541   6.502   0.409   7.040  0.5477 -0.4930  0.5477
 1005MOL0     C35542   6.577   0.326   7.003 -0.6047 -0.7628  0.6960
 1005MOL0     O35543   6.547   0.220   6.924 -0.4620  0.6532 -0.0835
 1005MOL0     C35544   6.411   0.190   6.924 -0.4141 -0.3571 -0.0418
 1005MOL0     C35545   6.340   0.153   7.044  1.1184  0.0064  0.7257
 1005MOL0     C35546   6.206   0.102   7.040 -0.0641  0.5098  0.5883
 1005MOL0     C35547   6.142   0.090   6.917  0.0437  0.5468 -0.5906
 1005MOL0     O35548   6.007   0.071   6.908  1.0843  0.5506  0.1451
 1005MOL0     C35549   5.943   0.026   7.029  0.0547  0.1382  0.3157
 1005MOL0     C35550   5.794  -0.013   6.992 -1.0780  0.7643 -0.5087
 1005MOL0     C35551   5.767  -0.132   6.900 -0.2233 -0.5182 -0.5978
 1005MOL0     C35552   5.845  -0.254   6.925 -0.4481  0.7523 -0.0294
 1005MOL0     C35553   5.763  -0.379   6.889 -0.0278 -0.5982 -0.7841
 1005MOL0     C35554   5.762  -0.393   6.738  0.1040  0.2501  0.2293
 1005MOL0     C35555   5.734  -0.531   6.688 -0.1955 -0.2075 -0.2884
 1005MOL0     C35556   5.742  -0.535   6.533 -0.1850 -0.3387 -0.9623
 1005MOL0     N35557   5.682  -0.649   6.469  0.0596 -0.4375 -0.3461
 1005MOL0     C35558   5.754  -0.769   6.463  0.6569 -0.0631  0.6212
 1005MOL0     C35559   5.658  -0.857   6.449  0.6749 -0.4204  0.4421
 1005MOL0     C35560   5.675  -1.012   6.435  0.6689  0.4644 -0.6290
 1005MOL0     C35561   5.714  -1.082   6.562 -0.6855  0.2392 -0.4309
 1005MOL0     C35562   5.844  -1.029   6.617 -0.1953 -0.2140  0.0906
 1005MOL0     C35563   5.958  -1.067   6.508  1.0086 -0.5825  0.2742
 1005MOL0     O35564   5.966  -1.212   6.493 -0.3798 -0.2718  0.1102
 1005MOL0     C35565   6.079  -1.260   6.433  0.6279  0.6084  0.2812
 1005MOL0     C35566   6.097  -1.394   6.423 -0.2709  0.3761  0.7420
 1005MOL0     C35567   6.214  -1.459   6.360 -0.1711  0.0444  0.0993
 1005MOL0     C35568   6.208  -1.611   6.346 -0.5941 -0.0038 -0.3971
 1005MOL0     C35569   6.315  -1.379   6.304 -0.7832 -0.7390 -0.2489
 1005MOL0     C35570   6.447  -1.431   6.243  0.1327 -0.0664 -0.3967
 1005MOL0     O35571   6.513  -1.358   6.147 -0.1009 -0.2580 -0.0307
 1005MOL0     C35572   6.622  -1.410   6.079  0.0730  0.1345  0.4710
 1005MOL0     C35573   6.609  -1.460   5.949  0.4564 -0.8953 -0.3320
 1005MOL0     C35574   6.719  -1.514   5.886 -0.2652  0.4548  0.0257
 1005MOL0     C35575   6.852  -1.516   5.947  0.0938  0.2848 -0.2484
 1005MOL0     O35576   6.964  -1.564   5.893 -0.7429  0.5304  0.0251
 1005MOL0     C35577   6.950  -1.650   5.781 -0.4417 -0.3322 -0.4181
 1005MOL0     C35578   7.087  -1.731   5.752  0.3031 -0.0602 -0.2380
 1005MOL0     C35579   7.125  -1.820   5.868 -0.4437  0.8731  0.0317
 1005MOL0     C35580   7.033  -1.944   5.886 -0.4244  0.4076  0.7388
 1005MOL0     C35581   7.094  -2.045   5.996 -0.2804 -0.3130 -0.6907
 1005MOL0     C35582   7.126  -2.177   5.917  0.1847  0.4523  0.4763
 1005MOL0     C35583   7.195  -2.261   6.025 -0.2684 -0.5425  0.2545
 1005MOL0     C35584   7.244  -2.395   5.972 -0.0122  0.1324  0.1861
 1005MOL0    Cl35585   7.403  -2.389   5.876  0.2951 -0.2033 -0.0917
 1005MOL0     C35586   6.859  -1.462   6.079 -0.5493  0.3665 -0.1106
 1005MOL0     C35587   6.749  -1.413   6.144  0.1536  0.1389 -0.5681
 1005MOL0     O35588   6.486  -1.540   6.290 -0.8149 -0.1430 -0.0551
 1005MOL0     C35589   6.295  -1.240   6.317  0.1625  0.2995 -0.2559
 1005MOL0     C35590   6.190  -1.185   6.383  1.1182  0.1888  0.0650
 1005MOL0     N35591   5.533  -0.794   6.451  0.1944  0.4791 -0.2692
 1005MOL0     N35592   5.554  -0.675   6.471  0.7472 -1.1697  0.2069
 1005MOL0     C35593   6.215   0.115   6.795  0.3901 -0.4844  0.0401
 1005MOL0     C35594   6.348   0.158   6.801 -0.7463 -0.2507 -0.5384
 1005MOL0     C35595   6.722   0.346   7.019  0.0402  0.8779  0.0297
 1005MOL0     C35596   6.770   0.476   7.043 -0.1457 -1.4195 -0.0516
 1005MOL0     C35597   6.906   0.506   7.048  0.2945  0.2548 -0.2578
 1005MOL0     C35598   7.003   0.404   7.018 -1.0273 -0.2721 -0.1874
 1005MOL0     O35599   7.135   0.444   6.998  0.4547 -0.7501 -1.0063
 1005MOL0     C35600   7.236   0.349   6.959 -0.0821  0.4309 -1.0355
 1005MOL0     C35601   7.376   0.395   7.012 -0.0685  0.6726 -0.0891
 1005MOL0     C35602   7.420   0.521   6.941 -0.0940  0.7371 -0.5275
 1005MOL0     C35603   7.561   0.550   6.981  0.0950  0.4726  0.0312
 1005MOL0     C35604   7.653   0.477   6.892 -0.2721  0.2103  0.4402
 1005MOL0     C35605   7.739   0.436   6.820 -0.0303  0.2035  0.8278
 1005MOL0     C35606   6.957   0.271   7.007 -0.1126 -0.6394  0.2848
 1005MOL0     C35607   6.818   0.244   7.003 -0.2440  0.9949 -0.3007
 1005MOL0     H35608   6.390   0.152   7.140  0.2781  0.9384  1.1988
 1005MOL0     H35609   6.161   0.076   7.135 -1.9246  0.4357 -0.2783
 1005MOL0     H35610   6.000  -0.056   7.072  0.4692  0.3114  0.0990
 1005MOL0     H35611   5.931   0.108   7.100 -3.6512  1.1464 -1.2093
 1005MOL0     H35612   5.741  -0.019   7.088 -1.2524  2.3104 -0.4733
 1005MOL0     H35613   5.753   0.067   6.929  2.1418  0.2079 -3.6036
 1005MOL0     H35614   5.660  -0.156   6.911 -0.2300 -0.1484  0.2288
 1005MOL0     H35615   5.782  -0.097   6.798  1.7201 -0.4121 -0.3094
 1005MOL0     H35616   5.935  -0.248   6.862  0.1282  2.0040  0.8717
 1005MOL0     H35617   5.872  -0.269   7.030 -0.8499  0.2830  0.0128
 1005MOL0     H35618   5.810  -0.467   6.934  0.6666  0.8826  1.5911
 1005MOL0     H35619   5.661  -0.371   6.927  0.9356 -0.1318  1.9583
 1005MOL0     H35620   5.682  -0.327   6.702 -0.8430 -1.5922 -1.2579
 1005MOL0     H35621   5.862  -0.381   6.696  2.0202 -1.2172  3.9892
 1005MOL0     H35622   5.816  -0.593   6.727  1.0812 -2.3062 -5.4518
 1005MOL0     H35623   5.642  -0.575   6.725 -0.6474 -1.1848 -2.4378
 1005MOL0     H35624   5.843  -0.525   6.493 -0.5697  2.1744 -1.4693
 1005MOL0     H35625   5.691  -0.447   6.493  1.2545  1.7250  1.4923
 1005MOL0     H35626   5.860  -0.779   6.481  0.8028 -1.0056 -0.6370
 1005MOL0     H35627   5.579  -1.050   6.397  0.0470 -0.6191  1.8631
 1005MOL0     H35628   5.744  -1.035   6.353  1.7423 -2.6225  0.9593
 1005MOL0     H35629   5.725  -1.188   6.539 -0.8027  0.3592 -1.0700
 1005MOL0     H35630   5.641  -1.077   6.643 -0.5760 -2.4688 -0.0913
 1005MOL0     H35631   5.864  -1.064   6.719 -1.1847 -2.9344 -0.5744
 1005MOL0     H35632   5.833  -0.923   6.642  0.6110  0.4260 -1.9794
 1005MOL0     H35633   6.051  -1.022   6.545  0.8357 -2.0106  2.6516
 1005MOL0     H35634   5.950  -1.037   6.403 -1.4507 -1.4838  0.1448
 1005MOL0     H35635   6.006  -1.446   6.452 -0.1413 -1.1164 -1.2552
 1005MOL0     H35636   6.107  -1.651   6.352 -0.7403  0.0113 -2.1396
 1005MOL0     H35637   6.242  -1.647   6.248 -2.1450 -2.9451  0.0310
 1005MOL0     H35638   6.271  -1.657   6.422  1.0130 -0.7715 -2.0948
 1005MOL0     H35639   6.518  -1.461   5.889  0.7170  0.1021 -0.7579
 1005MOL0     H35640   6.699  -1.564   5.792  0.6690  0.4921 -0.2097
 1005MOL0     H35641   6.859  -1.706   5.801 -0.8959  1.2548  2.6231
 1005MOL0     H35642   6.929  -1.588   5.693 -2.2984 -2.6687 -1.7484
 1005MOL0     H35643   7.075  -1.792   5.662  3.2256 -1.5898  0.2768
 1005MOL0     H35644   7.166  -1.662   5.720 -1.7562  2.5042 -0.0992
 1005MOL0     H35645   7.135  -1.763   5.961  0.6481  1.3775 -0.3710
 1005MOL0     H35646   7.224  -1.867   5.859 -0.7975  0.1283 -0.0381
 1005MOL0     H35647   6.934  -1.923   5.927 -0.2209  0.7440  1.0571
 1005MOL0     H35648   7.014  -1.989   5.788 -0.1850 -0.9857  1.2964
 1005MOL0     H35649   7.020  -2.051   6.076 -0.7278 -0.9152 -1.1427
 1005MOL0     H35650   7.183  -2.019   6.054  0.6312 -0.4003 -2.0019
 1005MOL0     H35651   7.029  -2.208   5.877 -0.1050  1.5461  0.3017
 1005MOL0     H35652   7.203  -2.152   5.843  2.4317 -0.2282  2.4453
 1005MOL0     H35653   7.126  -2.281   6.108 -2.3225  0.8640 -1.0117
 1005MOL0     H35654   7.269  -2.197   6.075 -2.3037 -0.3119  3.2931
 1005MOL0     H35655   7.157  -2.436   5.920 -0.0458  1.7575 -1.1537
 1005MOL0     H35656   7.262  -2.463   6.056 -0.7521 -0.1573  0.1125
 1005MOL0     H35657   6.956  -1.472   6.126 -1.4336  0.7816  1.9095
 1005MOL0     H35658   6.747  -1.387   6.250 -2.2956  1.2166 -0.8053
 1005MOL0     H35659   6.364  -1.165   6.280 -0.9315  1.0254 -0.8944
 1005MOL0     H35660   6.197  -1.077   6.392  0.9875  0.1846  0.2027
 1005MOL0     H35661   6.162   0.100   6.701 -3.4591  0.8824  1.7499
 1005MOL0     H35662   6.406   0.163   6.710 -0.8686  1.4870 -0.5523
 1005MOL0     H35663   6.695   0.552   7.064 -1.3961 -2.8153  0.7240
 1005MOL0     H35664   6.934   0.606   7.078 -0.0716  1.0530 -2.4069
 1005MOL0     H35665   7.225   0.243   6.985 -0.1252  0.4869 -0.8199
 1005MOL0     H35666   7.243   0.347   6.850 -0.7965  1.9813 -1.1288
 1005MOL0     H35667   7.436   0.312   6.971 -0.8963  0.1927 -0.3656
 1005MOL0     H35668   7.388   0.415   7.119  1.1724  1.5317 -0.3762
 1005MOL0     H35669   7.357   0.606   6.970 -1.0513  1.0200 -3.1430
 1005MOL0     H35670   7.424   0.517   6.831  3.5628  0.6385 -0.4976
 1005MOL0     H35671   7.565   0.523   7.087  0.9624  0.3926 -0.0141
 1005MOL0     H35672   7.587   0.655   6.964 -0.2475  0.3900 -1.1327
 1005MOL0     H35673   7.813   0.398   6.753  2.1774 -1.3655  3.9043
 1005MOL0     H35674   7.013   0.178   7.005  1.1414  0.0847  0.5910
 1005MOL0     H35675   6.782   0.142   6.991  0.8041  0.0950  3.2255
 1006MOL0     O35676   5.198   7.319   2.266 -0.9226  0.3285  0.5384
 1006MOL0     C35677   5.253   7.348   2.366  0.1014 -0.1297 -0.1441
 1006MOL0     O35678   5.205   7.414   2.468 -0.6028 -0.0230  0.4765
 1006MOL0     C35679   5.066   7.422   2.480 -0.1887  0.1715 -0.2594
 1006MOL0     C35680   5.006   7.553   2.485  0.3020 -0.2204 -0.1354
 1006MOL0     C35681   4.870   7.556   2.504  0.1099 -0.3052  0.0535
 1006MOL0     C35682   4.786   7.439   2.526 -0.2881  0.1891 -0.0640
 1006MOL0     O35683   4.647   7.439   2.551 -0.1216 -0.2438 -0.2362
 1006MOL0     C35684   4.578   7.561   2.595 -0.4184 -0.1779 -0.3844
 1006MOL0     C35685   4.455   7.505   2.677 -0.8028 -0.2242 -0.0776
 1006MOL0     C35686   4.408   7.626   2.771  0.5696 -0.0840 -1.0108
 1006MOL0     C35687   4.296   7.590   2.869  0.3140  0.4481 -0.2837
 1006MOL0     C35688   4.243   7.704   2.950 -0.3397  0.1801 -0.7314
 1006MOL0     C35689   4.343   7.764   3.045  0.3773 -1.2920  0.2282
 1006MOL0     C35690   4.420   7.678   3.149  0.0438 -0.2544 -0.6457
 1006MOL0     C35691   4.550   7.744   3.197 -0.5537  0.4157  0.3230
 1006MOL0     N35692   4.652   7.764   3.089  0.1548  0.1326 -0.0889
 1006MOL0     C35693   4.735   7.667   3.050 -0.6569 -0.2577 -0.1364
 1006MOL0     C35694   4.824   7.726   2.970  0.2784  0.3755  0.1707
 1006MOL0     C35695   4.930   7.651   2.887  0.0868 -0.0294 -0.3596
 1006MOL0     C35696   5.060   7.625   2.953  0.1032  0.3014  0.1905
 1006MOL0     C35697   5.047   7.545   3.078 -0.0702  0.1428  0.3531
 1006MOL0     C35698   5.180   7.510   3.149 -0.3257 -0.4251 -0.5135
 1006MOL0     O35699   5.257   7.437   3.057 -0.1112 -0.4930 -0.0370
 1006MOL0     C35700   5.403   7.437   3.061  1.1461  0.1272 -0.6310
 1006MOL0     C35701   5.483   7.507   3.145 -0.2945 -0.2815 -0.8913
 1006MOL0     C35702   5.624   7.500   3.139  0.4229 -0.4212  1.0917
 1006MOL0     C35703   5.696   7.600   3.228  0.4705  0.0031  0.2423
 1006MOL0     C35704   5.682   7.409   3.051 -0.6932 -0.1115 -0.0139
 1006MOL0     C35705   5.831   7.390   3.029 -0.6186 -0.5947  0.8252
 1006MOL0     O35706   5.875   7.291   2.948  0.6865  0.2609  0.4601
 1006MOL0     C35707   6.003   7.257   2.964 -1.0408  1.3404 -0.9564
 1006MOL0     C35708   6.069   7.241   3.089 -0.3800  0.1314 -0.1193
 1006MOL0     C35709   6.196   7.183   3.092  0.4087  0.5691 -0.9572
 1006MOL0     C35710   6.266   7.149   2.973  0.0594 -0.2045 -0.7487
 1006MOL0     O35711   6.399   7.110   2.985 -0.4491  0.0419 -0.0153
 1006MOL0     C35712   6.433   7.032   3.100 -0.5538 -0.2325  0.1971
 1006MOL0     C35713   6.571   6.961   3.073  0.5441 -0.8632 -0.0247
 1006MOL0     C35714   6.700   7.044   3.054  0.2932 -0.3426 -0.3261
 1006MOL0     C35715   6.806   6.967   2.977  0.2589  0.5084 -0.9889
 1006MOL0     C35716   6.930   7.039   2.928 -1.3020 -0.0106  0.7865
 1006MOL0     C35717   7.031   6.947   2.852 -0.2232  0.5592 -0.3204
 1006MOL0     C35718   7.114   6.863   2.957 -0.5153 -0.7021  0.3188
 1006MOL0     C35719   7.232   6.795   2.890  0.8518 -0.5267  0.1290
 1006MOL0    Cl35720   7.160   6.676   2.783  0.5633 -0.5220  0.3321
 1006MOL0     C35721   6.193   7.158   2.856  0.2989  0.1838  0.0310
 1006MOL0     C35722   6.062   7.200   2.854 -0.6742  0.6092 -0.2606
 1006MOL0     O35723   5.903   7.468   3.086 -0.9088 -0.0451  0.0805
 1006MOL0     C35724   5.599   7.331   2.963 -0.5799  0.9445  0.2137
 1006MOL0     C35725   5.463   7.350   2.972  0.1153 -0.4682  0.3077
 1006MOL0     N35726   4.797   7.861   2.961 -0.2301 -0.9535  0.0365
 1006MOL0     N35727   4.688   7.882   3.033 -0.5375 -0.4743 -0.5406
 1006MOL0     C35728   4.849   7.316   2.514  0.1248  0.7818 -0.0343
 1006MOL0     C35729   4.984   7.308   2.495 -0.1174  0.6825 -0.6658
 1006MOL0     C35730   5.396   7.317   2.370  0.0656  0.4853 -0.0704
 1006MOL0     C35731   5.480   7.394   2.455 -0.4832  0.3932  0.1701
 1006MOL0     C35732   5.616   7.368   2.472 -0.4001  0.1460 -0.8491
 1006MOL0     C35733   5.677   7.261   2.404  0.3312  0.0590  0.5884
 1006MOL0     O35734   5.804   7.236   2.443  0.2192 -0.5344 -0.0633
 1006MOL0     C35735   5.887   7.159   2.360 -0.1765  0.3298 -0.3566
 1006MOL0     C35736   6.030   7.177   2.418  0.2515  0.0979  0.7579
 1006MOL0     C35737   6.104   7.047   2.464  0.1347 -0.7244  0.2587
 1006MOL0     C35738   6.117   6.936   2.370  0.3307 -0.2906 -0.9454
 1006MOL0     C35739   6.232   6.850   2.405  1.6361  0.5370  1.3374
 1006MOL0     C35740   6.327   6.784   2.440  0.1874  0.1718 -0.0793
 1006MOL0     C35741   5.596   7.181   2.316  0.4266  0.6099  0.1288
 1006MOL0     C35742   5.457   7.211   2.303 -0.4953  0.3010 -0.6094
 1006MOL0     H35743   5.079   7.633   2.474  1.2272 -0.9298  0.6826
 1006MOL0     H35744   4.837   7.658   2.491  2.3861  0.6518  1.2776
 1006MOL0     H35745   4.639   7.618   2.666 -2.6383  1.5829  0.2376
 1006MOL0     H35746   4.544   7.622   2.511 -0.6564 -2.7368 -2.2495
 1006MOL0     H35747   4.371   7.482   2.611 -2.0765  2.5615  0.4221
 1006MOL0     H35748   4.479   7.418   2.739  2.1720 -0.8868 -1.9667
 1006MOL0     H35749   4.493   7.665   2.828 -0.8712 -0.4533  1.5432
 1006MOL0     H35750   4.366   7.710   2.715 -0.9478 -2.4599 -3.7386
 1006MOL0     H35751   4.217   7.564   2.798 -0.3287  1.7695 -0.0707
 1006MOL0     H35752   4.316   7.501   2.931  0.3421  0.6711  0.0302
 1006MOL0     H35753   4.193   7.773   2.882 -0.8298 -0.5732 -1.1530
 1006MOL0     H35754   4.167   7.669   3.021 -1.1222  0.9020 -1.1905
 1006MOL0     H35755   4.422   7.818   2.991 -2.4254  2.1501 -0.8421
 1006MOL0     H35756   4.288   7.843   3.098  0.1863 -0.0779 -1.6996
 1006MOL0     H35757   4.363   7.651   3.238  1.3923 -1.4651 -0.1080
 1006MOL0     H35758   4.444   7.585   3.097  0.2625  1.6041 -4.1387
 1006MOL0     H35759   4.587   7.675   3.273 -0.6798  0.7918  0.7354
 1006MOL0     H35760   4.524   7.842   3.240 -1.3051  1.2622 -1.9193
 1006MOL0     H35761   4.728   7.559   3.062 -0.6444 -0.1811  0.6069
 1006MOL0     H35762   4.884   7.554   2.867 -1.5375 -0.3064  3.8423
 1006MOL0     H35763   4.951   7.694   2.789  2.5736  0.2873  0.2430
 1006MOL0     H35764   5.121   7.713   2.974  3.8095 -2.2965  1.5889
 1006MOL0     H35765   5.126   7.575   2.881  1.4741  0.7405  1.0927
 1006MOL0     H35766   5.006   7.444   3.075  0.2801  0.0186 -0.1124
 1006MOL0     H35767   4.999   7.608   3.154  0.8812  1.1997  0.1007
 1006MOL0     H35768   5.170   7.462   3.247 -0.0518  1.1781  0.3397
 1006MOL0     H35769   5.227   7.607   3.171 -0.5147 -0.4342 -0.0547
 1006MOL0     H35770   5.438   7.572   3.220  0.3746  0.1192 -0.8293
 1006MOL0     H35771   5.626   7.675   3.267 -1.7230  1.0331 -4.8396
 1006MOL0     H35772   5.738   7.526   3.296  2.2871  0.8376  0.0814
 1006MOL0     H35773   5.770   7.653   3.167 -0.2572 -0.1257 -0.7778
 1006MOL0     H35774   6.011   7.266   3.178  1.4983 -0.0398  1.2146
 1006MOL0     H35775   6.239   7.186   3.191 -1.2575  4.8912 -0.1667
 1006MOL0     H35776   6.453   7.095   3.187  2.6818 -0.6638 -0.1267
 1006MOL0     H35777   6.361   6.956   3.132  1.8845 -1.3623  3.5850
 1006MOL0     H35778   6.584   6.894   3.159 -1.1031  0.8600  1.6876
 1006MOL0     H35779   6.560   6.898   2.985 -0.6107 -0.3470 -0.2769
 1006MOL0     H35780   6.743   7.073   3.150 -1.5791 -0.0134  0.4611
 1006MOL0     H35781   6.677   7.127   2.986  2.1384  0.6153  0.1580
 1006MOL0     H35782   6.842   6.891   3.047 -1.2914  0.6047 -0.0504
 1006MOL0     H35783   6.760   6.906   2.898  3.5096 -1.0600 -1.8485
 1006MOL0     H35784   6.967   7.091   3.017 -2.2803  1.3135  0.4524
 1006MOL0     H35785   6.904   7.119   2.858  1.6256 -1.4166 -2.1808
 1006MOL0     H35786   6.979   6.883   2.780 -3.0219 -2.0668  3.5953
 1006MOL0     H35787   7.102   7.004   2.792  1.9593 -2.2591 -0.6292
 1006MOL0     H35788   7.052   6.799   3.019  0.9064 -1.5282  0.9490
 1006MOL0     H35789   7.149   6.943   3.024 -0.7123  2.1749 -2.7501
 1006MOL0     H35790   7.297   6.745   2.963  0.2409 -0.3272  0.8141
 1006MOL0     H35791   7.292   6.861   2.827  0.7259 -1.0077 -0.5107
 1006MOL0     H35792   6.249   7.151   2.763  0.5533  0.7237  0.1406
 1006MOL0     H35793   6.023   7.182   2.755  0.1810  0.3540 -0.5669
 1006MOL0     H35794   5.646   7.262   2.893  3.0006  0.8790  2.4133
 1006MOL0     H35795   5.390   7.293   2.915  0.3070 -1.8868  1.4282
 1006MOL0     H35796   4.790   7.226   2.529  0.5270  0.6594  0.8929
 1006MOL0     H35797   5.044   7.217   2.498  2.2701  2.1506 -0.8761
 1006MOL0     H35798   5.440   7.474   2.516 -1.4751  2.3719 -2.8729
 1006MOL0     H35799   5.678   7.428   2.538  2.3899 -0.5218 -2.7179
 1006MOL0     H35800   5.860   7.053   2.358  2.0856 -0.3083  0.1119
 1006MOL0     H35801   5.887   7.189   2.255  1.9593  0.1092 -0.4522
 1006MOL0     H35802   6.025   7.248   2.501 -1.1621 -1.0373  1.7163
 1006MOL0     H35803   6.090   7.216   2.335  0.9201  0.9903  1.6377
 1006MOL0     H35804   6.057   7.010   2.555 -0.6725 -3.7890 -1.2578
 1006MOL0     H35805   6.206   7.085   2.468 -1.3246  3.7174  0.9968
 1006MOL0     H35806   6.153   6.970   2.272  3.9274 -0.1102  0.2918
 1006MOL0     H35807   6.021   6.885   2.370  0.1097 -0.1430  2.6739
 1006MOL0     H35808   6.411   6.720   2.460 -0.8928 -1.3000 -0.0129
 1006MOL0     H35809   5.636   7.091   2.272 -1.5514 -0.0555 -0.3875
 1006MOL0     H35810   5.396   7.157   2.232 -3.8896  1.3731  1.2790
 1007MOL0     O35811   0.384   5.241   2.073 -0.5928 -0.0230  0.1221
 1007MOL0     C35812   0.398   5.314   1.978  0.3655 -0.1709 -0.2207
 1007MOL0     O35813   0.303   5.395   1.936  0.2691 -0.1269  0.0620
 1007MOL0     C35814   0.198   5.399   2.024 -0.6267 -1.2312  0.7998
 1007MOL0     C35815   0.178   5.524   2.077 -0.0978 -0.1913 -0.6911
 1007MOL0     C35816   0.082   5.543   2.170  0.0942  0.6815 -0.1949
 1007MOL0     C35817  -0.020   5.443   2.186 -0.2122 -0.1220 -0.7893
 1007MOL0     O35818  -0.123   5.459   2.281 -1.1485 -0.2949  0.5698
 1007MOL0     C35819  -0.204   5.570   2.258  0.2266  0.2241 -0.6582
 1007MOL0     C35820  -0.304   5.543   2.148 -0.2701 -0.1205  0.7143
 1007MOL0     C35821  -0.390   5.415   2.166 -0.5035  0.6580  0.5308
 1007MOL0     C35822  -0.529   5.410   2.087  0.1473  0.5038  0.5326
 1007MOL0     C35823  -0.616   5.282   2.130  0.3748  0.2651 -0.0717
 1007MOL0     C35824  -0.729   5.260   2.034 -0.1974  0.5653 -0.5918
 1007MOL0     C35825  -0.696   5.208   1.897 -0.7240  0.4966  0.4540
 1007MOL0     C35826  -0.647   5.065   1.898  0.1701 -0.0011  0.1542
 1007MOL0     N35827  -0.726   4.969   1.982 -0.2852  0.1744  0.2385
 1007MOL0     C35828  -0.694   4.913   2.096 -0.1657  0.3757 -0.5718
 1007MOL0     C35829  -0.785   4.822   2.131 -0.0839 -0.0677 -0.0796
 1007MOL0     C35830  -0.755   4.737   2.253 -0.0013  0.4620  0.3287
 1007MOL0     C35831  -0.856   4.625   2.267  0.2793  0.7497 -0.3191
 1007MOL0     C35832  -0.827   4.562   2.407  0.3952  0.0528  0.5878
 1007MOL0     C35833  -0.890   4.424   2.406 -0.1787 -0.7473 -0.0259
 1007MOL0     O35834  -0.881   4.377   2.537  0.2325  0.1601  0.3747
 1007MOL0     C35835  -0.982   4.399   2.628  0.1961  0.1743  0.1640
 1007MOL0     C35836  -1.086   4.488   2.615 -0.8560  0.5464  0.6579
 1007MOL0     C35837  -1.174   4.518   2.726  0.0159  0.4173  0.1057
 1007MOL0     C35838  -1.271   4.622   2.702  0.6853  0.6425  0.7176
 1007MOL0     C35839  -1.159   4.447   2.846  0.1845  0.5046  1.1061
 1007MOL0     C35840  -1.246   4.470   2.963 -0.6167 -0.1796 -0.1625
 1007MOL0     O35841  -1.259   4.353   3.035  0.0142 -0.1061  0.5702
 1007MOL0     C35842  -1.332   4.352   3.146  0.3887 -0.5245  0.2942
 1007MOL0     C35843  -1.243   4.330   3.252  0.1528  1.1045  0.0771
 1007MOL0     C35844  -1.292   4.312   3.382 -1.1416  0.3937 -1.1775
 1007MOL0     C35845  -1.421   4.330   3.411  0.2210  0.8281  0.1011
 1007MOL0     O35846  -1.457   4.324   3.545  0.2845 -0.4607 -0.1370
 1007MOL0     C35847  -1.587   4.374   3.590 -0.7626  0.0086  0.5788
 1007MOL0     C35848  -1.605   4.373   3.739  1.1454 -0.0989  0.2050
 1007MOL0     C35849  -1.612   4.232   3.795  0.4610  0.2717 -0.3014
 1007MOL0     C35850  -1.637   4.235   3.942 -0.1303 -0.4703  0.5436
 1007MOL0     C35851  -1.578   4.116   4.021 -0.2618  0.2046  0.4122
 1007MOL0     C35852  -1.538   4.148   4.168 -0.9149 -0.1239  0.2092
 1007MOL0     C35853  -1.644   4.201   4.263 -0.0500  0.0776 -0.1410
 1007MOL0     C35854  -1.778   4.133   4.241 -0.3338  0.6512  0.3680
 1007MOL0    Cl35855  -1.908   4.192   4.350 -0.6401  0.1088  0.2712
 1007MOL0     C35856  -1.510   4.351   3.310  0.2616 -0.5739  0.4630
 1007MOL0     C35857  -1.468   4.372   3.177  0.4759 -0.0726  0.1976
 1007MOL0     O35858  -1.279   4.580   2.999  0.2887  0.2206 -0.6657
 1007MOL0     C35859  -1.066   4.342   2.849  0.6547 -0.4455 -0.6951
 1007MOL0     C35860  -0.976   4.325   2.747 -0.9213  0.1140 -0.0562
 1007MOL0     N35861  -0.886   4.831   2.035  0.1349 -0.7580 -0.5453
 1007MOL0     N35862  -0.844   4.906   1.937 -1.0113 -0.8890 -0.3743
 1007MOL0     C35863  -0.006   5.322   2.122  0.1237  0.3916 -0.2283
 1007MOL0     C35864   0.110   5.303   2.045  1.3443  0.4427 -0.0479
 1007MOL0     C35865   0.532   5.323   1.915 -0.2250 -0.0837 -0.4718
 1007MOL0     C35866   0.546   5.397   1.796  0.3831  0.8486  0.5882
 1007MOL0     C35867   0.672   5.397   1.736  0.3585 -0.7174  0.5883
 1007MOL0     C35868   0.784   5.329   1.789 -0.1455  0.4146  0.1871
 1007MOL0     O35869   0.907   5.353   1.722 -0.0998 -0.3326  0.4557
 1007MOL0     C35870   1.024   5.286   1.764  0.1615 -0.0653 -0.2709
 1007MOL0     C35871   1.088   5.358   1.887 -0.1381  0.1378  0.1192
 1007MOL0     C35872   1.148   5.252   1.974 -0.4445 -0.3359 -0.3523
 1007MOL0     C35873   1.248   5.317   2.068  0.0657  0.1332 -0.7092
 1007MOL0     C35874   1.201   5.401   2.180 -0.1399 -0.0443 -0.1439
 1007MOL0     C35875   1.169   5.456   2.277 -0.6366  0.6198  0.8713
 1007MOL0     C35876   0.767   5.262   1.904  0.5883  0.0944 -0.2614
 1007MOL0     C35877   0.642   5.252   1.961  0.4476  0.3792 -0.6687
 1007MOL0     H35878   0.229   5.618   2.060 -3.1913  2.1527  1.8455
 1007MOL0     H35879   0.077   5.637   2.224  5.1304 -0.8757  3.7885
 1007MOL0     H35880  -0.265   5.591   2.346 -0.9485 -0.6421 -1.2463
 1007MOL0     H35881  -0.140   5.656   2.233  0.0686  0.6719  0.4397
 1007MOL0     H35882  -0.372   5.628   2.137  2.0234  1.5879 -1.6639
 1007MOL0     H35883  -0.254   5.525   2.052 -2.0418 -3.6768  0.2931
 1007MOL0     H35884  -0.313   5.341   2.142 -0.4640  1.3191 -1.5824
 1007MOL0     H35885  -0.416   5.395   2.270  1.5623 -1.1013  0.7796
 1007MOL0     H35886  -0.595   5.493   2.114 -2.1069  0.5422 -4.1174
 1007MOL0     H35887  -0.521   5.426   1.979  1.9669  2.1011  0.8514
 1007MOL0     H35888  -0.559   5.189   2.128 -1.8623 -1.1624  0.1210
 1007MOL0     H35889  -0.653   5.293   2.232  0.3523  0.3239 -0.0860
 1007MOL0     H35890  -0.801   5.193   2.083 -0.6463  1.2171 -0.3353
 1007MOL0     H35891  -0.779   5.357   2.022  1.0593  1.2566 -0.3368
 1007MOL0     H35892  -0.785   5.198   1.833 -0.2183 -1.1231 -0.0433
 1007MOL0     H35893  -0.616   5.270   1.855  1.1850 -1.8090  0.4927
 1007MOL0     H35894  -0.544   5.060   1.935  0.0350  0.2766  0.5768
 1007MOL0     H35895  -0.643   5.020   1.799  1.7778  0.0899  0.1583
 1007MOL0     H35896  -0.605   4.933   2.155 -1.7414  1.3839  1.5963
 1007MOL0     H35897  -0.658   4.689   2.239 -0.2271  0.2181 -0.4327
 1007MOL0     H35898  -0.752   4.797   2.345 -2.4859  0.5134  0.4417
 1007MOL0     H35899  -0.839   4.551   2.188 -0.1705 -1.1229  1.2565
 1007MOL0     H35900  -0.956   4.668   2.260 -1.3794 -2.8546 -1.8271
 1007MOL0     H35901  -0.859   4.620   2.494  0.2088  1.3675 -0.3263
 1007MOL0     H35902  -0.719   4.573   2.421  1.6149 -0.2579 -5.6252
 1007MOL0     H35903  -0.836   4.357   2.339  0.0700 -0.8622  0.2841
 1007MOL0     H35904  -0.993   4.441   2.374 -0.0942  0.0634  0.1081
 1007MOL0     H35905  -1.098   4.539   2.520  1.5818  1.1356  0.5991
 1007MOL0     H35906  -1.273   4.701   2.777  1.0511  1.8704 -0.5253
 1007MOL0     H35907  -1.289   4.668   2.604 -0.3861  2.3248  1.6702
 1007MOL0     H35908  -1.359   4.558   2.707  1.2938 -0.6664 -2.5973
 1007MOL0     H35909  -1.135   4.322   3.245  0.3441  1.9233  1.6034
 1007MOL0     H35910  -1.240   4.286   3.474 -4.1497  1.8179  1.1035
 1007MOL0     H35911  -1.579   4.477   3.555  2.7770 -0.4182 -0.2418
 1007MOL0     H35912  -1.670   4.320   3.544 -1.1857  1.8501 -0.9703
 1007MOL0     H35913  -1.520   4.429   3.778  2.7911 -2.2889 -0.0283
 1007MOL0     H35914  -1.701   4.423   3.754  0.3636 -1.4526 -0.0904
 1007MOL0     H35915  -1.518   4.177   3.780 -0.3548 -0.9824 -1.0068
 1007MOL0     H35916  -1.685   4.169   3.743 -0.3842 -0.2809  1.4849
 1007MOL0     H35917  -1.600   4.326   3.989 -0.4962  0.8916 -1.6569
 1007MOL0     H35918  -1.745   4.237   3.963 -0.3979 -2.1630 -0.4254
 1007MOL0     H35919  -1.485   4.080   3.976  1.0532 -0.1698  3.1787
 1007MOL0     H35920  -1.659   4.043   4.018 -0.5000  0.5210 -1.8922
 1007MOL0     H35921  -1.485   4.064   4.213 -1.0740  0.5414  1.6904
 1007MOL0     H35922  -1.456   4.220   4.157  0.8751 -2.2650 -1.3221
 1007MOL0     H35923  -1.660   4.309   4.251 -0.1433  0.2677  1.4804
 1007MOL0     H35924  -1.605   4.179   4.363 -2.1595  1.1416  0.9842
 1007MOL0     H35925  -1.782   4.023   4.247 -2.0121  0.7549  2.1592
 1007MOL0     H35926  -1.809   4.165   4.141 -0.2042  1.2350  0.5163
 1007MOL0     H35927  -1.616   4.364   3.330 -0.2254 -0.3099 -1.9748
 1007MOL0     H35928  -1.537   4.408   3.100  0.9215  2.9527  1.0755
 1007MOL0     H35929  -1.054   4.290   2.943 -0.3654  2.8982  1.4837
 1007MOL0     H35930  -0.910   4.242   2.769 -2.7237 -1.1060  1.0164
 1007MOL0     H35931  -0.076   5.239   2.128  2.0307 -1.2140  2.5391
 1007MOL0     H35932   0.125   5.205   2.002  0.5261  0.0380  0.5688
 1007MOL0     H35933   0.468   5.462   1.758  0.5242 -0.4344 -2.1440
 1007MOL0     H35934   0.679   5.454   1.644 -2.0867 -2.1222 -0.5586
 1007MOL0     H35935   1.012   5.179   1.783  0.3076  0.3768  2.8556
 1007MOL0     H35936   1.093   5.303   1.681  0.4457 -2.1433 -0.5128
 1007MOL0     H35937   1.006   5.404   1.943  0.8801  0.4987  1.3654
 1007MOL0     H35938   1.156   5.438   1.855 -1.7249  0.7423 -1.9825
 1007MOL0     H35939   1.210   5.183   1.916 -0.2886 -0.6372  0.1681
 1007MOL0     H35940   1.074   5.192   2.028 -0.3689 -1.1053 -1.0931
 1007MOL0     H35941   1.317   5.380   2.012 -0.5718  2.6606  1.1635
 1007MOL0     H35942   1.310   5.236   2.108  2.5913  1.0156 -2.6053
 1007MOL0     H35943   1.155   5.502   2.373  2.4568  3.6849  0.0865
 1007MOL0     H35944   0.856   5.214   1.944 -0.0858 -1.4821 -0.5846
 1007MOL0     H35945   0.640   5.186   2.047  3.0647  0.0118 -0.8139
 1008MOL0     O35946   8.128   4.217   1.122 -0.0331 -0.3301 -0.4499
 1008MOL0     C35947   8.161   4.136   1.199 -0.3126 -0.0079 -0.1595
 1008MOL0     O35948   8.089   4.081   1.299  0.0093 -0.6646 -0.3867
 1008MOL0     C35949   7.949   4.088   1.299 -0.3840 -0.5762 -0.2169
 1008MOL0     C35950   7.853   4.104   1.189 -0.1001 -0.7046 -0.8001
 1008MOL0     C35951   7.712   4.094   1.212  0.1297 -0.4124  0.4026
 1008MOL0     C35952   7.666   4.078   1.348 -0.5177 -0.0254  0.7551
 1008MOL0     O35953   7.537   4.076   1.387  0.0607 -0.1769 -0.3939
 1008MOL0     C35954   7.433   4.126   1.314  0.1187  0.0728 -0.0909
 1008MOL0     C35955   7.338   3.997   1.289  0.3010 -0.9851  0.2939
 1008MOL0     C35956   7.244   4.024   1.174 -0.1030  0.1981  1.5460
 1008MOL0     C35957   7.144   4.132   1.205  0.2990 -1.2401  0.0095
 1008MOL0     C35958   7.056   4.160   1.080  0.0149 -1.0111  0.2683
 1008MOL0     C35959   6.944   4.261   1.122 -0.6227 -0.4880  0.0697
 1008MOL0     C35960   6.850   4.306   1.010 -0.7322 -0.0701 -0.4594
 1008MOL0     C35961   6.748   4.411   1.060  0.2762  0.4118 -0.4887
 1008MOL0     N35962   6.650   4.365   1.161 -0.3085  0.2036  0.4134
 1008MOL0     C35963   6.528   4.424   1.169 -0.5121  0.7894 -0.5747
 1008MOL0     C35964   6.454   4.348   1.264 -0.2472 -0.2128 -0.0255
 1008MOL0     C35965   6.309   4.382   1.290  1.1144 -0.0708 -0.2080
 1008MOL0     C35966   6.279   4.497   1.385  0.2196 -0.7123  0.4214
 1008MOL0     C35967   6.322   4.465   1.530  0.6431  0.2746  1.0038
 1008MOL0     C35968   6.314   4.582   1.625  1.0512 -0.0620 -0.0661
 1008MOL0     O35969   6.193   4.655   1.616 -0.5922 -0.4315  0.4346
 1008MOL0     C35970   6.099   4.605   1.697 -0.3499  0.0029 -0.1013
 1008MOL0     C35971   6.106   4.480   1.774  0.2116 -0.7646 -0.2665
 1008MOL0     C35972   5.993   4.423   1.842  0.2167 -0.3051  0.0883
 1008MOL0     C35973   6.011   4.299   1.926  0.6281  0.0397  0.1615
 1008MOL0     C35974   5.868   4.487   1.835 -0.2325 -0.5645 -0.5709
 1008MOL0     C35975   5.751   4.460   1.924  0.3844  1.3738  0.2339
 1008MOL0     O35976   5.730   4.327   1.957  0.2320 -0.7388  0.4355
 1008MOL0     C35977   5.618   4.287   2.029 -0.1494  1.0561 -0.4600
 1008MOL0     C35978   5.628   4.196   2.136 -1.2531  0.3036  0.3569
 1008MOL0     C35979   5.517   4.141   2.195  0.4737  0.2679  0.1518
 1008MOL0     C35980   5.395   4.210   2.172  0.1513  0.7502  0.1979
 1008MOL0     O35981   5.286   4.170   2.258 -0.2868 -0.0640  0.3629
 1008MOL0     C35982   5.154   4.229   2.240  0.6781 -0.2065  0.2333
 1008MOL0     C35983   5.069   4.170   2.340  0.1060 -0.1480  1.1200
 1008MOL0     C35984   5.000   4.045   2.285  0.3575 -0.4945 -0.3892
 1008MOL0     C35985   4.919   3.960   2.387 -0.4473 -0.1001  0.4468
 1008MOL0     C35986   4.876   3.827   2.329 -0.3716  0.0921 -0.0553
 1008MOL0     C35987   4.823   3.738   2.442 -0.3445 -0.9176 -0.0710
 1008MOL0     C35988   4.815   3.586   2.411  0.4230 -0.4213  0.2770
 1008MOL0     C35989   4.746   3.512   2.525 -0.1057  0.1239  0.3753
 1008MOL0    Cl35990   4.690   3.335   2.490  0.2053  0.3266  0.2075
 1008MOL0     C35991   5.383   4.304   2.070  0.2610  0.4277 -0.4031
 1008MOL0     C35992   5.493   4.327   1.995 -0.6920 -0.5683 -0.3327
 1008MOL0     O35993   5.672   4.550   1.948  0.2453 -0.2587  0.7374
 1008MOL0     C35994   5.859   4.606   1.761 -0.2947  0.1552 -0.2652
 1008MOL0     C35995   5.972   4.659   1.695  0.5860  0.4855  0.6307
 1008MOL0     N35996   6.530   4.243   1.302  0.7435  0.0680 -0.0212
 1008MOL0     N35997   6.645   4.252   1.241  0.5341 -0.3984 -0.1996
 1008MOL0     C35998   7.763   4.074   1.448 -0.4469 -1.1803  0.5923
 1008MOL0     C35999   7.894   4.071   1.422  0.0792 -0.1396  0.7324
 1008MOL0     C36000   8.303   4.081   1.171  0.1590  0.7559 -0.8792
 1008MOL0     C36001   8.345   3.966   1.237 -0.4367  0.2780 -0.3896
 1008MOL0     C36002   8.464   3.905   1.201 -0.6908  0.5100 -1.3479
 1008MOL0     C36003   8.547   3.965   1.098  0.4628  0.8981  0.8154
 1008MOL0     O36004   8.660   3.911   1.063  0.4259  0.0567  0.5826
 1008MOL0     C36005   8.710   3.788   1.126  0.3425 -0.8631  0.8946
 1008MOL0     C36006   8.852   3.755   1.079  0.9388 -0.4469 -0.0319
 1008MOL0     C36007   8.853   3.763   0.926  0.5932  1.4955 -0.0053
 1008MOL0     C36008   8.985   3.714   0.859 -0.7619 -0.9047  0.3905
 1008MOL0     C36009   9.105   3.769   0.919 -0.6871  1.0512  0.1253
 1008MOL0     C36010   9.211   3.797   0.969  0.3348  0.0639 -0.2238
 1008MOL0     C36011   8.507   4.078   1.027 -0.3532 -0.5220 -0.9125
 1008MOL0     C36012   8.387   4.139   1.064 -0.0568  0.7917 -0.1323
 1008MOL0     H36013   7.893   4.121   1.090 -1.2828 -1.8893 -1.5278
 1008MOL0     H36014   7.648   4.115   1.127  1.0024 -1.8115 -0.6348
 1008MOL0     H36015   7.379   4.198   1.376  1.3892  1.2260 -0.2574
 1008MOL0     H36016   7.454   4.189   1.227  1.5888  0.7409  0.7044
 1008MOL0     H36017   7.400   3.907   1.285 -2.4571 -3.0101  0.2043
 1008MOL0     H36018   7.287   3.989   1.385  0.9704  2.8180  1.1240
 1008MOL0     H36019   7.305   4.065   1.093  2.1357  1.0177  3.5369
 1008MOL0     H36020   7.208   3.928   1.137  1.7774  0.8467 -2.5870
 1008MOL0     H36021   7.086   4.102   1.293 -0.9212  0.1980 -0.2523
 1008MOL0     H36022   7.197   4.223   1.235  0.2965 -0.8044 -1.2597
 1008MOL0     H36023   7.110   4.202   0.995  0.4975 -0.3754  0.8835
 1008MOL0     H36024   6.996   4.072   1.056 -1.4444 -0.0223  0.1500
 1008MOL0     H36025   6.886   4.213   1.202  3.7275 -2.6136  2.2656
 1008MOL0     H36026   6.994   4.347   1.167 -0.9204 -0.0022 -0.5160
 1008MOL0     H36027   6.897   4.354   0.923 -0.2578  2.3056  1.0185
 1008MOL0     H36028   6.795   4.216   0.978 -1.7459 -0.0353  1.1111
 1008MOL0     H36029   6.700   4.459   0.975 -0.5026  0.4982 -0.0048
 1008MOL0     H36030   6.797   4.491   1.117 -1.8551 -0.4198  2.7641
 1008MOL0     H36031   6.497   4.513   1.116 -2.7635  1.5664  1.8009
 1008MOL0     H36032   6.268   4.408   1.192 -1.6455 -0.4793  0.7701
 1008MOL0     H36033   6.254   4.298   1.333  1.1853  1.8048  4.0642
 1008MOL0     H36034   6.170   4.502   1.399  0.3546 -0.7336  1.5358
 1008MOL0     H36035   6.321   4.588   1.341  2.6660 -2.3778 -0.9554
 1008MOL0     H36036   6.420   4.419   1.517 -0.8347 -3.5006  2.0404
 1008MOL0     H36037   6.261   4.382   1.567  1.9576  0.0616  2.8037
 1008MOL0     H36038   6.389   4.659   1.607 -0.1002  0.8340 -1.2163
 1008MOL0     H36039   6.335   4.550   1.728  0.4248  3.0255  1.1516
 1008MOL0     H36040   6.197   4.421   1.787 -0.7765 -2.0772  1.0570
 1008MOL0     H36041   5.950   4.219   1.884 -0.6733  1.6472 -1.1766
 1008MOL0     H36042   6.115   4.267   1.921  0.2557 -1.4145  1.1722
 1008MOL0     H36043   5.987   4.319   2.031  0.0378 -0.6134  0.1588
 1008MOL0     H36044   5.725   4.162   2.170 -0.8291  2.0046  0.9548
 1008MOL0     H36045   5.517   4.067   2.275 -1.6010 -1.8659 -1.6649
 1008MOL0     H36046   5.158   4.337   2.259  0.8805 -0.1943  0.1262
 1008MOL0     H36047   5.111   4.208   2.142 -1.6002  1.2590  0.8261
 1008MOL0     H36048   5.133   4.134   2.421 -0.2122 -0.2564  1.3237
 1008MOL0     H36049   5.000   4.248   2.376 -0.2355 -1.2231  2.9730
 1008MOL0     H36050   5.083   3.980   2.254 -0.0600  0.0654 -2.9212
 1008MOL0     H36051   4.935   4.077   2.203 -0.6413  1.8079  1.1859
 1008MOL0     H36052   4.973   3.940   2.480  0.7199 -0.9161 -0.3629
 1008MOL0     H36053   4.833   4.018   2.420 -1.4833 -2.0825  1.4498
 1008MOL0     H36054   4.954   3.774   2.274 -0.9862  1.1438 -2.0301
 1008MOL0     H36055   4.802   3.858   2.254 -1.7732 -2.1540  0.2717
 1008MOL0     H36056   4.886   3.757   2.529 -1.5155  1.4895  0.3338
 1008MOL0     H36057   4.724   3.772   2.474  0.4893  1.1407  0.4463
 1008MOL0     H36058   4.917   3.552   2.392  0.5182  1.0443 -2.3337
 1008MOL0     H36059   4.745   3.573   2.327 -1.9978 -0.7703  2.2373
 1008MOL0     H36060   4.656   3.559   2.566 -1.3777 -1.8893  0.0348
 1008MOL0     H36061   4.820   3.516   2.605  0.7242  0.7715 -0.4109
 1008MOL0     H36062   5.284   4.344   2.051  0.4889 -0.1039 -3.1372
 1008MOL0     H36063   5.482   4.390   1.906  1.0290 -0.1905 -0.3174
 1008MOL0     H36064   5.764   4.659   1.753 -0.2809  0.5159  1.5504
 1008MOL0     H36065   5.950   4.746   1.635 -4.2800 -1.2776 -0.5883
 1008MOL0     H36066   7.745   4.068   1.555  1.3905 -1.5107  0.9280
 1008MOL0     H36067   7.952   4.058   1.513 -0.0642 -2.1732  0.5682
 1008MOL0     H36068   8.283   3.915   1.310  0.5074 -1.1574 -0.5441
 1008MOL0     H36069   8.492   3.824   1.268  3.5173  2.5753 -0.2401
 1008MOL0     H36070   8.716   3.796   1.234  0.4149  0.4216  0.8072
 1008MOL0     H36071   8.635   3.712   1.103 -4.4364  2.5590  3.4397
 1008MOL0     H36072   8.873   3.653   1.110 -0.7370 -0.8508 -0.1631
 1008MOL0     H36073   8.926   3.825   1.121  1.0222 -0.6160  0.1020
 1008MOL0     H36074   8.828   3.865   0.896  1.6540  1.4200 -1.2327
 1008MOL0     H36075   8.767   3.701   0.897  1.5219  0.7320 -1.2385
 1008MOL0     H36076   8.998   3.743   0.754 -0.8970  0.8387  0.8210
 1008MOL0     H36077   8.986   3.605   0.866 -0.7781 -1.3104 -3.5587
 1008MOL0     H36078   9.315   3.799   0.995  0.5629  0.0596 -1.1051
 1008MOL0     H36079   8.568   4.114   0.944  0.2497  2.9171  0.8444
 1008MOL0     H36080   8.347   4.228   1.017  2.3598  0.9610 -2.0081
 1009MOL0     O36081   5.039   2.114  10.341 -0.4439 -0.3601 -0.0477
 1009MOL0     C36082   5.004   2.112  10.461  0.5405  0.4207  0.2524
 1009MOL0     O36083   4.883   2.155  10.509  0.6436  0.5424  0.0357
 1009MOL0     C36084   4.801   2.228  10.423 -0.0301 -0.5797  0.0768
 1009MOL0     C36085   4.838   2.336  10.341 -0.6985 -0.1852  0.0145
 1009MOL0     C36086   4.746   2.411  10.265  0.9941  0.5124  0.1234
 1009MOL0     C36087   4.606   2.383  10.285 -0.1495  0.5068 -0.4315
 1009MOL0     O36088   4.527   2.450  10.197  0.4419 -0.4785  0.5086
 1009MOL0     C36089   4.512   2.384  10.073 -0.0348  0.0013  0.6732
 1009MOL0     C36090   4.514   2.499   9.957 -1.1458  0.3361  0.1309
 1009MOL0     C36091   4.389   2.584   9.985  0.6888  0.3086  0.8701
 1009MOL0     C36092   4.263   2.514   9.933  0.7935  0.3785  0.8499
 1009MOL0     C36093   4.144   2.566  10.006 -0.0615  0.2198 -0.5626
 1009MOL0     C36094   4.115   2.515  10.143  0.0840  0.4311  0.4690
 1009MOL0     C36095   4.096   2.353  10.158 -0.0773 -1.0724  0.7791
 1009MOL0     C36096   4.003   2.310  10.278  0.2807 -0.3840  0.2556
 1009MOL0     N36097   3.869   2.364  10.272 -0.1985  0.4325 -0.3418
 1009MOL0     C36098   3.789   2.356  10.167  0.1629 -0.2439 -0.7311
 1009MOL0     C36099   3.670   2.411  10.204  0.2260 -0.2417 -0.6506
 1009MOL0     C36100   3.547   2.423  10.116 -0.9549  0.2097  0.0688
 1009MOL0     C36101   3.423   2.404  10.207 -0.0518  0.1826 -0.2133
 1009MOL0     C36102   3.285   2.425  10.139  0.2391  0.6098 -0.4404
 1009MOL0     C36103   3.163   2.364  10.209 -1.6736 -0.1987 -0.0356
 1009MOL0     O36104   3.129   2.434  10.330 -0.6293 -0.3051 -0.6671
 1009MOL0     C36105   2.997   2.449  10.366  1.0313  0.0780  0.3005
 1009MOL0     C36106   2.968   2.519  10.477  0.9899 -0.8308 -0.2734
 1009MOL0     C36107   2.834   2.539  10.527 -0.0757  1.1387  0.7751
 1009MOL0     C36108   2.818   2.635  10.636 -0.5607  0.1469 -0.4357
 1009MOL0     C36109   2.727   2.489  10.449 -0.2693  0.0207 -0.7950
 1009MOL0     C36110   2.585   2.510  10.479  0.1010 -0.0831  0.1863
 1009MOL0     O36111   2.505   2.508  10.366 -0.2330 -0.4899  0.0685
 1009MOL0     C36112   2.377   2.550  10.363  0.6191 -0.3621  0.0708
 1009MOL0     C36113   2.297   2.503  10.259 -1.0174  0.4525 -0.1402
 1009MOL0     C36114   2.157   2.516  10.268  0.0548  0.4467 -0.1813
 1009MOL0     C36115   2.097   2.592  10.366 -0.4578  0.0975  0.8615
 1009MOL0     O36116   1.968   2.602  10.361 -0.0783  0.2523  0.2867
 1009MOL0     C36117   1.916   2.726  10.405  0.3119  0.1078  0.7028
 1009MOL0     C36118   1.779   2.765  10.350 -0.1761  0.0881  0.0566
 1009MOL0     C36119   1.740   2.911  10.342  0.8907  1.1492 -0.0683
 1009MOL0     C36120   1.599   2.920  10.417  0.0810 -0.6261 -0.5250
 1009MOL0     C36121   1.550   3.070  10.431  0.0605 -0.0197  0.1638
 1009MOL0     C36122   1.405   3.065  10.472  0.3846  0.4194 -0.3593
 1009MOL0     C36123   1.361   3.209  10.478  0.5043  0.4280 -0.1644
 1009MOL0     C36124   1.214   3.217  10.507 -0.3556 -0.5806 -0.7564
 1009MOL0    Cl36125   1.160   3.389  10.494 -0.2746 -0.2753  0.1687
 1009MOL0     C36126   2.176   2.649  10.465  0.0493 -0.2472  0.3405
 1009MOL0     C36127   2.313   2.631  10.462  0.1967  0.5607 -0.0733
 1009MOL0     O36128   2.562   2.530  10.594 -0.3888 -0.1641 -0.2897
 1009MOL0     C36129   2.758   2.405  10.336 -0.2746  0.4863 -0.1267
 1009MOL0     C36130   2.893   2.382  10.304  0.1530 -0.4607 -0.5528
 1009MOL0     N36131   3.687   2.473  10.330  0.5490  0.0248  0.0862
 1009MOL0     N36132   3.807   2.432  10.374  1.0393  0.1138  0.2235
 1009MOL0     C36133   4.568   2.272  10.365 -0.3165  0.1540 -0.1093
 1009MOL0     C36134   4.662   2.195  10.432 -0.2394  0.8959 -0.1082
 1009MOL0     C36135   5.078   2.036  10.564 -0.5780  0.4730  0.5974
 1009MOL0     C36136   5.060   2.047  10.703  1.1783 -0.6184 -1.1866
 1009MOL0     C36137   5.132   1.968  10.795 -0.3435 -0.7216  0.4107
 1009MOL0     C36138   5.219   1.870  10.751 -0.0326  0.0420  0.9842
 1009MOL0     O36139   5.287   1.778  10.817  0.0670  0.5762  0.3444
 1009MOL0     C36140   5.293   1.789  10.963  0.2268 -0.5634  0.4980
 1009MOL0     C36141   5.401   1.901  11.005 -0.2343  0.9315  1.3119
 1009MOL0     C36142   5.541   1.841  10.983  0.1783 -0.8933  0.2277
 1009MOL0     C36143   5.575   1.729  11.080 -0.4671 -0.5007 -0.0511
 1009MOL0     C36144   5.718   1.713  11.092 -0.0665  0.6042 -0.3982
 1009MOL0     C36145   5.838   1.713  11.104  0.1584  0.2346  0.1546
 1009MOL0     C36146   5.238   1.855  10.614  0.5629 -0.2557  0.5377
 1009MOL0     C36147   5.168   1.935  10.523  0.5071 -0.2923  0.2390
 1009MOL0     H36148   4.945   2.352  10.332 -0.0869 -3.2885  0.4341
 1009MOL0     H36149   4.770   2.484  10.188  1.4740 -1.5231 -1.7528
 1009MOL0     H36150   4.595   2.316  10.055 -3.0308 -3.8624  0.2096
 1009MOL0     H36151   4.421   2.324  10.065  1.2535 -1.8025 -1.7658
 1009MOL0     H36152   4.605   2.558   9.970 -1.5013  1.0773 -0.5922
 1009MOL0     H36153   4.523   2.454   9.857  2.5670  1.6444 -0.2788
 1009MOL0     H36154   4.380   2.616  10.090  0.8377 -0.8966  1.2648
 1009MOL0     H36155   4.403   2.683   9.941 -1.3173  0.5244  0.6079
 1009MOL0     H36156   4.243   2.529   9.826  0.4237 -0.5306  0.7843
 1009MOL0     H36157   4.261   2.406   9.952 -2.7529  0.5478  2.2511
 1009MOL0     H36158   4.146   2.676  10.008 -1.2912  0.2488  0.8468
 1009MOL0     H36159   4.054   2.556   9.944 -1.8710 -0.5448  1.9878
 1009MOL0     H36160   4.200   2.547  10.205  0.1971 -1.2011  1.1935
 1009MOL0     H36161   4.032   2.581  10.169  1.2574  1.8733  0.7737
 1009MOL0     H36162   4.058   2.324  10.060  0.1660 -0.4903  0.5064
 1009MOL0     H36163   4.196   2.309  10.164  0.2050 -0.4601  0.6601
 1009MOL0     H36164   4.050   2.365  10.361 -1.2761  1.4284  0.0001
 1009MOL0     H36165   4.009   2.203  10.300 -0.2237 -0.8948 -1.8875
 1009MOL0     H36166   3.800   2.318  10.066  1.2868 -1.9106 -0.0175
 1009MOL0     H36167   3.536   2.521  10.069 -1.1241  1.1637  2.0386
 1009MOL0     H36168   3.544   2.342  10.042  0.4184 -1.6795  1.9719
 1009MOL0     H36169   3.428   2.478  10.287 -1.1516 -0.2217  0.2439
 1009MOL0     H36170   3.430   2.303  10.247  0.4907 -1.8440 -4.7732
 1009MOL0     H36171   3.284   2.373  10.043 -0.8199 -0.5692  0.1646
 1009MOL0     H36172   3.267   2.528  10.108  2.0487  0.7319 -1.1834
 1009MOL0     H36173   3.175   2.256  10.225 -1.6918 -0.0394  1.1898
 1009MOL0     H36174   3.075   2.381  10.146 -0.7352  0.1043 -1.2936
 1009MOL0     H36175   3.051   2.567  10.528  0.1667  1.8377 -1.2655
 1009MOL0     H36176   2.726   2.694  10.626 -0.4265  0.4412  0.0460
 1009MOL0     H36177   2.822   2.583  10.732  0.0216  2.3206  0.7981
 1009MOL0     H36178   2.905   2.701  10.643  0.8618 -1.5610 -1.2768
 1009MOL0     H36179   2.348   2.440  10.187 -1.8208 -0.6386  0.2118
 1009MOL0     H36180   2.094   2.487  10.185  1.7473 -0.5696 -1.1576
 1009MOL0     H36181   1.901   2.716  10.513  1.0141 -1.1689  0.6926
 1009MOL0     H36182   1.986   2.808  10.389  1.0335 -0.5432  0.4836
 1009MOL0     H36183   1.779   2.727  10.248  1.8526  0.3324 -0.0837
 1009MOL0     H36184   1.702   2.705  10.399 -0.2701 -2.4001 -2.8549
 1009MOL0     H36185   1.732   2.944  10.238 -2.5860 -1.1032 -0.6861
 1009MOL0     H36186   1.814   2.980  10.384  0.6916  1.1579  0.2754
 1009MOL0     H36187   1.526   2.856  10.366  0.1699 -0.0666 -1.3789
 1009MOL0     H36188   1.596   2.877  10.517  2.5480  0.2155 -0.0192
 1009MOL0     H36189   1.565   3.121  10.335  1.6654  2.1026  1.4520
 1009MOL0     H36190   1.622   3.124  10.493  0.2858  1.4199 -1.2674
 1009MOL0     H36191   1.347   2.999  10.406  1.8615 -1.8108  0.4472
 1009MOL0     H36192   1.397   3.016  10.570  1.0011  1.2663  0.1242
 1009MOL0     H36193   1.381   3.252  10.379  0.6368 -3.4200 -1.9759
 1009MOL0     H36194   1.413   3.262  10.559  1.0247 -0.1534 -0.1107
 1009MOL0     H36195   1.195   3.176  10.607 -0.9428  1.3612 -0.0350
 1009MOL0     H36196   1.152   3.155  10.441 -1.8795  0.9694 -0.8623
 1009MOL0     H36197   2.131   2.703  10.547 -1.1325 -1.4917  0.5580
 1009MOL0     H36198   2.364   2.685  10.540  3.1053  1.2414 -2.2754
 1009MOL0     H36199   2.683   2.352  10.277  1.1715  0.7014 -2.2706
 1009MOL0     H36200   2.902   2.306  10.227  3.0192 -0.6772 -0.1127
 1009MOL0     H36201   4.464   2.256  10.340  0.1618 -0.0240 -2.1828
 1009MOL0     H36202   4.627   2.107  10.485 -0.7404 -0.7353 -2.9354
 1009MOL0     H36203   4.998   2.123  10.749  1.3547 -0.7471 -0.7298
 1009MOL0     H36204   5.116   1.991  10.900 -0.6215 -0.0565  0.2265
 1009MOL0     H36205   5.199   1.814  11.012  0.0573  1.1797 -0.6089
 1009MOL0     H36206   5.322   1.690  11.001  1.7152 -0.4691 -0.2800
 1009MOL0     H36207   5.391   1.943  11.105  3.0000 -0.2574  2.2648
 1009MOL0     H36208   5.392   1.984  10.934  2.5572  1.5415  1.5547
 1009MOL0     H36209   5.603   1.929  11.002 -1.1948  0.8135 -2.4960
 1009MOL0     H36210   5.559   1.806  10.881  0.5865  1.0049 -0.4062
 1009MOL0     H36211   5.534   1.636  11.039 -0.0096  0.5980 -3.3445
 1009MOL0     H36212   5.536   1.742  11.181  2.0594  1.6590  0.7539
 1009MOL0     H36213   5.944   1.705  11.109  0.3212  1.7273 -0.6381
 1009MOL0     H36214   5.303   1.781  10.569  1.1820 -0.7009  2.1216
 1009MOL0     H36215   5.189   1.916  10.418 -0.2815  1.0311 -0.1873
 1010MOL0     O36216   4.461   0.174   9.938 -0.3042  0.4952 -0.0126
 1010MOL0     C36217   4.387   0.131  10.026 -1.2029 -1.0595  0.3048
 1010MOL0     O36218   4.424   0.113  10.157 -0.0886 -0.1258  0.0824
 1010MOL0     C36219   4.556   0.107  10.205  0.6068  1.0887  0.8749
 1010MOL0     C36220   4.575   0.126  10.340 -1.1081 -0.4101  0.2874
 1010MOL0     C36221   4.693   0.109  10.408 -0.3084 -0.4209 -0.9664
 1010MOL0     C36222   4.812   0.084  10.331 -1.0583  0.3213 -0.5623
 1010MOL0     O36223   4.940   0.066  10.390  0.3254  0.4571 -0.5499
 1010MOL0     C36224   4.942  -0.023  10.498 -0.2690  0.4131  0.0677
 1010MOL0     C36225   5.083  -0.055  10.558  0.2107  0.4010 -0.3163
 1010MOL0     C36226   5.140   0.077  10.620  0.2061 -0.6036  0.7907
 1010MOL0     C36227   5.135   0.068  10.770 -0.0904 -0.6219  0.3541
 1010MOL0     C36228   5.244   0.163  10.818  0.6658 -0.9466 -0.6190
 1010MOL0     C36229   5.243   0.170  10.978  0.6703 -0.0254  0.0772
 1010MOL0     C36230   5.378   0.224  11.028 -0.1561 -0.2526  0.2818
 1010MOL0     C36231   5.404   0.183  11.176  0.0112 -0.3948 -0.2916
 1010MOL0     N36232   5.537   0.229  11.224  0.2396 -0.1358  1.0110
 1010MOL0     C36233   5.604   0.344  11.187  0.6112  0.4832 -0.0883
 1010MOL0     C36234   5.730   0.331  11.229 -0.0577  0.6720 -0.1322
 1010MOL0     C36235   5.851   0.417  11.202  0.4799  0.0797  0.7578
 1010MOL0     C36236   5.949   0.412  11.316  0.3639 -0.0248  0.0813
 1010MOL0     C36237   6.053   0.517  11.299 -0.7844  0.0883  0.4800
 1010MOL0     C36238   6.167   0.511  11.392  0.4300 -0.0040  0.0812
 1010MOL0     O36239   6.109   0.548  11.522  0.9852 -0.5108  0.0292
 1010MOL0     C36240   6.187   0.537  11.635  0.6162 -0.4628  0.4195
 1010MOL0     C36241   6.132   0.486  11.750  0.0196 -0.2015  0.3677
 1010MOL0     C36242   6.215   0.467  11.866  0.4515  0.2811  0.2315
 1010MOL0     C36243   6.127   0.418  11.978 -0.3495  0.0838 -0.1046
 1010MOL0     C36244   6.348   0.512  11.851  0.4559 -0.6914 -0.5491
 1010MOL0     C36245   6.438   0.492  11.960  0.1522 -0.5047  0.4785
 1010MOL0     O36246   6.544   0.572  11.953  0.6777  0.0869 -0.1042
 1010MOL0     C36247   6.636   0.580  12.058 -0.1915  0.2757 -1.1857
 1010MOL0     C36248   6.601   0.576  12.193 -0.1672  0.1007 -0.3917
 1010MOL0     C36249   6.698   0.550  12.291  0.1758 -0.6500  0.7501
 1010MOL0     C36250   6.837   0.544  12.261  1.0878  2.0226  0.1130
 1010MOL0     O36251   6.936   0.537  12.345  0.3068  0.5377 -0.1704
 1010MOL0     C36252   6.953   0.410  12.429 -1.0817 -0.1674  0.8919
 1010MOL0     C36253   7.098   0.398  12.475 -0.3205 -1.2166  0.2676
 1010MOL0     C36254   7.141   0.245  12.503 -0.1214 -0.2954 -0.2236
 1010MOL0     C36255   7.242   0.238  12.618  0.1340  0.1606 -0.3830
 1010MOL0     C36256   7.271   0.096  12.655 -0.2153  0.2093 -0.5353
 1010MOL0     C36257   7.352   0.060  12.783 -0.7222 -0.5070 -0.9046
 1010MOL0     C36258   7.496   0.119  12.794  0.5410 -0.3510 -0.0095
 1010MOL0     C36259   7.589   0.067  12.904 -0.0683 -0.4922  0.5835
 1010MOL0    Cl36260   7.510  -0.003  13.054 -0.1437  0.1824 -0.2418
 1010MOL0     C36261   6.871   0.552  12.129 -0.6430  0.9792  0.7004
 1010MOL0     C36262   6.776   0.571  12.028  0.5894  0.1534 -0.2920
 1010MOL0     O36263   6.419   0.400  12.044  0.2950  0.0496  0.0056
 1010MOL0     C36264   6.392   0.587  11.739  0.2669  0.9509 -0.4044
 1010MOL0     C36265   6.316   0.596  11.629 -0.0659 -0.2104  0.2854
 1010MOL0     N36266   5.734   0.215  11.305 -0.2163 -0.2922  0.3039
 1010MOL0     N36267   5.618   0.156  11.300 -0.7724 -0.0869 -0.0486
 1010MOL0     C36268   4.801   0.075  10.195  0.4129 -0.1662 -0.8381
 1010MOL0     C36269   4.674   0.078  10.134  0.0161 -0.4247 -0.4242
 1010MOL0     C36270   4.255   0.088   9.985  0.8670 -0.6304  0.2572
 1010MOL0     C36271   4.202   0.116   9.855 -0.3428 -0.0801 -0.9422
 1010MOL0     C36272   4.074   0.085   9.815  0.6842 -0.3671 -0.5061
 1010MOL0     C36273   3.995   0.012   9.901 -0.0700  0.2315  0.4390
 1010MOL0     O36274   3.862  -0.014   9.853  0.8043 -0.5260 -0.5752
 1010MOL0     C36275   3.778  -0.083   9.947 -0.3699 -0.8062 -1.1654
 1010MOL0     C36276   3.642  -0.113   9.885 -0.6837  0.2492 -0.1834
 1010MOL0     C36277   3.574   0.023   9.857  0.1352 -0.5504 -0.9536
 1010MOL0     C36278   3.435   0.009   9.803  0.3184 -0.4936 -0.0502
 1010MOL0     C36279   3.346  -0.061   9.899 -0.7875  1.0107 -0.8985
 1010MOL0     C36280   3.298  -0.135   9.986  0.0956 -0.6225 -0.2791
 1010MOL0     C36281   4.036  -0.016  10.030  0.4523  0.4035  0.2645
 1010MOL0     C36282   4.159   0.025  10.075 -0.8790 -1.0054  0.6110
 1010MOL0     H36283   4.486   0.166  10.389 -0.6082 -0.8022  1.5534
 1010MOL0     H36284   4.696   0.117  10.516 -2.4110  0.5448 -0.9360
 1010MOL0     H36285   4.899   0.035  10.580 -1.2575  0.5866 -0.5571
 1010MOL0     H36286   4.894  -0.117  10.470 -1.6428  2.1867 -4.4911
 1010MOL0     H36287   5.069  -0.122  10.644  0.7817  0.2698 -0.3239
 1010MOL0     H36288   5.147  -0.101  10.483 -0.8626  2.0037 -2.3255
 1010MOL0     H36289   5.244   0.084  10.587 -0.0027  1.5874  0.4692
 1010MOL0     H36290   5.097   0.169  10.581  2.6948 -0.7454 -2.8567
 1010MOL0     H36291   5.039   0.104  10.809  1.1246  0.6889  2.2961
 1010MOL0     H36292   5.143  -0.026  10.824 -2.9439  0.4729  2.9974
 1010MOL0     H36293   5.336   0.121  10.775 -0.1953 -3.3666 -0.2834
 1010MOL0     H36294   5.234   0.259  10.767  1.9537  0.0310  0.8660
 1010MOL0     H36295   5.165   0.237  11.015 -0.4458 -1.7769  1.0009
 1010MOL0     H36296   5.216   0.071  11.015  0.8122 -1.2046 -2.7120
 1010MOL0     H36297   5.457   0.192  10.959 -1.1736 -2.1234 -0.0702
 1010MOL0     H36298   5.374   0.333  11.019  1.3553  0.3899  4.8357
 1010MOL0     H36299   5.397   0.075  11.192 -3.4696 -0.1463  0.6912
 1010MOL0     H36300   5.335   0.228  11.248  0.2961  0.1771 -0.3749
 1010MOL0     H36301   5.572   0.421  11.118 -1.3254 -0.3308 -0.1543
 1010MOL0     H36302   5.898   0.390  11.107 -1.8755 -0.2438 -0.3726
 1010MOL0     H36303   5.827   0.523  11.185  1.6907  0.4203  1.0979
 1010MOL0     H36304   5.979   0.307  11.318 -3.1596 -1.2424 -1.8449
 1010MOL0     H36305   5.896   0.418  11.411 -1.1737 -1.4508 -0.6392
 1010MOL0     H36306   6.010   0.617  11.311  0.6304  0.5080  2.8672
 1010MOL0     H36307   6.089   0.503  11.197 -1.2410 -0.7791  0.4332
 1010MOL0     H36308   6.243   0.585  11.363  1.4095 -1.6597 -1.8918
 1010MOL0     H36309   6.225   0.419  11.394  0.8072  0.2398  2.6450
 1010MOL0     H36310   6.027   0.461  11.752  0.0149 -0.3486  3.5962
 1010MOL0     H36311   6.036   0.479  11.984  0.1328  0.7804  0.2651
 1010MOL0     H36312   6.107   0.311  11.972  0.8916 -0.3254  2.1267
 1010MOL0     H36313   6.183   0.435  12.070  0.7685  2.5955 -1.1328
 1010MOL0     H36314   6.500   0.593  12.229  1.0425  0.2468  3.3246
 1010MOL0     H36315   6.684   0.561  12.398 -0.2623 -0.2792  0.6605
 1010MOL0     H36316   6.881   0.420  12.510 -1.4660  2.2929  0.3064
 1010MOL0     H36317   6.936   0.315  12.377  2.7564 -1.5407  1.7954
 1010MOL0     H36318   7.149   0.439  12.387 -1.3089 -1.9731 -0.6888
 1010MOL0     H36319   7.124   0.463  12.559 -1.3355 -0.8663  0.3222
 1010MOL0     H36320   7.197   0.211  12.416  0.7684 -0.5849  0.4439
 1010MOL0     H36321   7.049   0.187  12.518  0.0413 -1.9931 -4.5181
 1010MOL0     H36322   7.332   0.293  12.587  0.7702  0.0562  1.1925
 1010MOL0     H36323   7.204   0.287  12.709 -0.1520 -0.0192 -0.4058
 1010MOL0     H36324   7.318   0.053  12.565 -2.8038  0.2966 -2.0290
 1010MOL0     H36325   7.187   0.027  12.663  2.4440 -3.5809 -2.0827
 1010MOL0     H36326   7.295   0.078  12.874  2.6928 -3.2898  2.1067
 1010MOL0     H36327   7.364  -0.049  12.778 -1.7577 -0.6085 -1.8072
 1010MOL0     H36328   7.488   0.228  12.797  1.7685 -0.2530  2.3777
 1010MOL0     H36329   7.552   0.106  12.701  2.3509  1.1411  0.8058
 1010MOL0     H36330   7.651   0.155  12.925 -1.8366  1.9616 -3.3772
 1010MOL0     H36331   7.662  -0.006  12.868  1.0192 -0.3085  2.2725
 1010MOL0     H36332   6.977   0.553  12.106 -0.7366 -2.1041 -0.2716
 1010MOL0     H36333   6.809   0.580  11.925  2.0675 -2.4073 -0.1110
 1010MOL0     H36334   6.493   0.628  11.740  0.3825  0.7008  1.1523
 1010MOL0     H36335   6.348   0.654  11.543 -0.2808 -2.8071 -1.6395
 1010MOL0     H36336   4.883   0.046  10.130  0.5691 -1.1125 -0.2436
 1010MOL0     H36337   4.662   0.068  10.027  0.2130  0.1724 -0.5093
 1010MOL0     H36338   4.281   0.151   9.789  0.1145 -1.6876 -1.3108
 1010MOL0     H36339   4.043   0.099   9.712 -4.0581  3.2568  1.0177
 1010MOL0     H36340   3.827  -0.179   9.968 -2.3127 -1.8130 -0.9872
 1010MOL0     H36341   3.767  -0.012  10.030 -1.6295 -1.8425 -0.3874
 1010MOL0     H36342   3.581  -0.174   9.952 -0.4382 -0.4149 -0.5493
 1010MOL0     H36343   3.647  -0.180   9.799 -0.2084  1.3242 -1.0109
 1010MOL0     H36344   3.645   0.065   9.785  4.0437 -1.0167  2.2333
 1010MOL0     H36345   3.580   0.079   9.952  2.8788 -1.1848 -0.6695
 1010MOL0     H36346   3.436  -0.051   9.712 -2.1219 -0.6621 -0.0417
 1010MOL0     H36347   3.392   0.102   9.766 -2.3162 -1.3192  0.6982
 1010MOL0     H36348   3.258  -0.205  10.056 -0.9549 -1.3572 -1.5697
 1010MOL0     H36349   3.970  -0.053  10.108 -1.5791  3.7707  0.3459
 1010MOL0     H36350   4.205   0.015  10.173  3.0678 -0.2976 -0.9561
 1011MOL0     O36351   8.740   8.307   7.949 -0.0325 -0.2553 -0.6251
 1011MOL0     C36352   8.724   8.430   7.945 -0.9918 -0.7013 -0.1985
 1011MOL0     O36353   8.613   8.508   7.977  0.2010 -0.0121  0.1608
 1011MOL0     C36354   8.500   8.457   8.041 -0.5096  0.0922  0.5224
 1011MOL0     C36355   8.512   8.363   8.142  0.1754  0.0121 -0.6620
 1011MOL0     C36356   8.399   8.321   8.209 -0.0625  0.7070  0.0998
 1011MOL0     C36357   8.276   8.380   8.188  0.2783 -0.2478 -0.5480
 1011MOL0     O36358   8.176   8.321   8.268 -0.4014 -0.3180  0.3476
 1011MOL0     C36359   8.053   8.392   8.288  0.0582 -0.0906  0.1086
 1011MOL0     C36360   8.024   8.352   8.427  0.4165  0.2912  0.9544
 1011MOL0     C36361   7.879   8.381   8.465  0.4000 -0.4385 -0.0141
 1011MOL0     C36362   7.867   8.347   8.624 -0.3162  0.3502  0.1076
 1011MOL0     C36363   7.729   8.383   8.684  0.4940 -1.1234  0.1239
 1011MOL0     C36364   7.603   8.305   8.616 -0.0209 -0.3783 -1.1934
 1011MOL0     C36365   7.478   8.341   8.701  0.0149  0.5559 -0.0357
 1011MOL0     C36366   7.427   8.486   8.680 -0.9119 -0.1645  0.0564
 1011MOL0     N36367   7.292   8.496   8.727 -0.8133 -0.3902 -0.2492
 1011MOL0     C36368   7.186   8.468   8.651  0.2376 -0.7918 -0.4996
 1011MOL0     C36369   7.071   8.480   8.725  0.5095  0.6031  0.5533
 1011MOL0     C36370   6.932   8.422   8.700  0.2179 -0.9049 -0.8597
 1011MOL0     C36371   6.860   8.517   8.614  0.2665  0.2727 -0.2214
 1011MOL0     C36372   6.796   8.622   8.698 -0.3044  0.4443  0.3257
 1011MOL0     C36373   6.734   8.735   8.608  0.6751  0.5805  0.3830
 1011MOL0     O36374   6.637   8.686   8.510  0.1706  0.0545 -0.1875
 1011MOL0     C36375   6.504   8.673   8.550 -0.1400  0.2487  1.1416
 1011MOL0     C36376   6.426   8.615   8.446  0.4655  0.0061  0.2005
 1011MOL0     C36377   6.293   8.600   8.457  0.9548  0.0116  0.2892
 1011MOL0     C36378   6.218   8.559   8.335  0.2211  0.4488 -0.4681
 1011MOL0     C36379   6.231   8.629   8.583  0.4129 -0.3025 -0.1329
 1011MOL0     C36380   6.090   8.623   8.613  0.1360 -0.2091  0.2607
 1011MOL0     O36381   6.049   8.591   8.738  0.1178  0.6925  0.1532
 1011MOL0     C36382   5.915   8.583   8.759 -0.2932  0.2894  1.6584
 1011MOL0     C36383   5.859   8.645   8.872  0.1235  0.1747 -0.4631
 1011MOL0     C36384   5.732   8.621   8.907  0.0578 -0.0472 -0.6178
 1011MOL0     C36385   5.655   8.536   8.824  0.4158 -0.4128 -0.6913
 1011MOL0     O36386   5.525   8.519   8.867  1.1678 -0.6851 -0.7370
 1011MOL0     C36387   5.428   8.501   8.764 -0.8024  0.0133  0.1531
 1011MOL0     C36388   5.286   8.553   8.801 -0.8356  0.6765 -0.6992
 1011MOL0     C36389   5.225   8.458   8.909 -0.0301 -0.3096 -0.9072
 1011MOL0     C36390   5.075   8.489   8.945 -0.3890 -0.4340  1.6781
 1011MOL0     C36391   5.018   8.393   9.050  0.0114 -0.0213 -0.4848
 1011MOL0     C36392   4.886   8.416   9.115  0.7660  0.0393 -0.8170
 1011MOL0     C36393   4.869   8.339   9.255 -0.4055 -0.3574 -1.1997
 1011MOL0     C36394   4.886   8.190   9.249 -0.3142  0.2589 -0.0782
 1011MOL0    Cl36395   4.745   8.126   9.161 -0.2310 -0.3291  0.3069
 1011MOL0     C36396   5.705   8.470   8.712  0.9644 -0.2460  0.3417
 1011MOL0     C36397   5.841   8.495   8.681  0.0802  0.6761 -0.4326
 1011MOL0     O36398   6.021   8.674   8.524  0.3777  0.0818 -0.1919
 1011MOL0     C36399   6.311   8.684   8.686 -0.3703 -0.0214  0.7482
 1011MOL0     C36400   6.444   8.710   8.670  0.5707 -0.1705  1.0327
 1011MOL0     N36401   7.114   8.504   8.855 -0.4617 -0.0759  0.1650
 1011MOL0     N36402   7.246   8.514   8.857  0.4108 -0.3070 -0.0070
 1011MOL0     C36403   8.265   8.474   8.088  0.4663  0.0267 -0.2149
 1011MOL0     C36404   8.375   8.514   8.019 -0.0569 -0.2290 -0.0731
 1011MOL0     C36405   8.834   8.509   7.879 -0.2012  0.4105  0.5433
 1011MOL0     C36406   8.828   8.649   7.846 -0.1493  0.8368 -0.3431
 1011MOL0     C36407   8.933   8.711   7.776 -0.3273 -0.1389  0.4846
 1011MOL0     C36408   9.053   8.654   7.735 -0.1481  0.3060  0.4190
 1011MOL0     O36409   9.134   8.739   7.668  0.3036  0.8969 -0.1694
 1011MOL0     C36410   9.260   8.684   7.626  0.2033 -0.3057 -0.4526
 1011MOL0     C36411   9.238   8.627   7.490 -0.5416  0.0369 -0.4331
 1011MOL0     C36412   9.345   8.535   7.427 -1.0355  0.9974 -0.1507
 1011MOL0     C36413   9.404   8.440   7.530 -0.9843  0.4170  0.5145
 1011MOL0     C36414   9.512   8.499   7.616  1.0608  1.0884  0.0491
 1011MOL0     C36415   9.601   8.548   7.679 -0.3484 -0.2958 -0.5038
 1011MOL0     C36416   9.056   8.518   7.763 -0.9060  0.0122 -0.3081
 1011MOL0     C36417   8.956   8.446   7.831  0.5476 -0.3850  0.4739
 1011MOL0     H36418   8.607   8.322   8.172 -0.0177 -0.5772 -0.8418
 1011MOL0     H36419   8.399   8.243   8.284 -0.6787 -0.5805 -1.1849
 1011MOL0     H36420   8.044   8.500   8.268 -2.8429 -0.4713 -1.1591
 1011MOL0     H36421   7.980   8.348   8.220 -0.6859  0.6970  0.3709
 1011MOL0     H36422   8.033   8.243   8.424  2.1761  0.3881 -2.6570
 1011MOL0     H36423   8.106   8.391   8.488  2.8780 -1.0478 -1.2700
 1011MOL0     H36424   7.857   8.488   8.461  2.2411  0.0580  1.7810
 1011MOL0     H36425   7.814   8.320   8.402 -0.4909 -0.5545  0.9939
 1011MOL0     H36426   7.884   8.240   8.642 -0.5988  0.4234  0.8723
 1011MOL0     H36427   7.948   8.401   8.673 -0.2831 -0.8923  1.5029
 1011MOL0     H36428   7.728   8.370   8.793 -3.1646 -2.2854  0.0764
 1011MOL0     H36429   7.712   8.487   8.654 -5.0517 -2.4319 -2.5054
 1011MOL0     H36430   7.590   8.326   8.510 -4.5724 -1.2101 -1.0366
 1011MOL0     H36431   7.627   8.198   8.622  0.7080 -0.4675 -4.3641
 1011MOL0     H36432   7.395   8.273   8.681 -0.3411  0.8364  0.4615
 1011MOL0     H36433   7.504   8.323   8.805  1.2894  1.5265 -0.1586
 1011MOL0     H36434   7.435   8.515   8.574  0.3894 -1.2810 -0.1853
 1011MOL0     H36435   7.491   8.555   8.736  2.7439 -4.0620  1.2256
 1011MOL0     H36436   7.206   8.440   8.548 -2.9887 -0.0989 -1.4386
 1011MOL0     H36437   6.943   8.319   8.664  0.0810 -1.2972  0.2113
 1011MOL0     H36438   6.884   8.422   8.798 -1.2759  2.7991 -1.4283
 1011MOL0     H36439   6.778   8.464   8.564 -0.4803  1.1532  0.0236
 1011MOL0     H36440   6.925   8.557   8.535 -0.2795 -0.0936 -0.8698
 1011MOL0     H36441   6.867   8.666   8.768 -0.0298  0.0881  0.2755
 1011MOL0     H36442   6.711   8.581   8.754  0.4143 -0.7314  0.5878
 1011MOL0     H36443   6.812   8.778   8.545 -0.1353  1.1961 -0.2316
 1011MOL0     H36444   6.691   8.816   8.669  1.5513  0.3103  1.3948
 1011MOL0     H36445   6.482   8.593   8.356  1.1008 -0.2537  0.6545
 1011MOL0     H36446   6.291   8.515   8.266  0.7327  1.5584 -0.6631
 1011MOL0     H36447   6.142   8.482   8.352  1.0506 -0.3359 -0.2374
 1011MOL0     H36448   6.175   8.652   8.296  0.2201  1.2770  1.4481
 1011MOL0     H36449   5.919   8.706   8.939  0.2062 -0.7181  0.2952
 1011MOL0     H36450   5.679   8.662   8.993 -0.2023 -1.0783 -0.2768
 1011MOL0     H36451   5.449   8.571   8.683  1.6098  1.2734  1.7571
 1011MOL0     H36452   5.426   8.394   8.740  1.1308  0.0113 -0.1417
 1011MOL0     H36453   5.291   8.658   8.831  3.8751  0.7521 -1.0237
 1011MOL0     H36454   5.225   8.548   8.710  0.3545  1.0876 -1.5531
 1011MOL0     H36455   5.281   8.465   9.002 -1.3086 -0.1591 -0.1300
 1011MOL0     H36456   5.231   8.354   8.875  0.8443 -0.4817 -0.2445
 1011MOL0     H36457   5.083   8.592   8.980  0.1295  1.1440 -2.5905
 1011MOL0     H36458   5.015   8.497   8.854 -1.1070  0.2683  2.1959
 1011MOL0     H36459   5.097   8.419   9.121  0.6750 -2.1999 -0.3457
 1011MOL0     H36460   5.015   8.298   8.996  0.0031  0.8171 -2.0142
 1011MOL0     H36461   4.873   8.518   9.151 -1.6701 -0.4005 -0.2221
 1011MOL0     H36462   4.798   8.400   9.051  1.1263  0.7474 -1.4975
 1011MOL0     H36463   4.764   8.352   9.284  0.3117  3.7579  0.1391
 1011MOL0     H36464   4.941   8.373   9.330  0.3257 -2.0996 -1.0638
 1011MOL0     H36465   4.875   8.139   9.345 -1.1574 -0.8753 -0.7620
 1011MOL0     H36466   4.984   8.155   9.216 -0.9056 -1.5065 -0.0686
 1011MOL0     H36467   5.652   8.401   8.646  0.6159  1.3755 -1.1480
 1011MOL0     H36468   5.904   8.449   8.606 -0.9813 -0.8843 -0.4044
 1011MOL0     H36469   6.283   8.716   8.786  1.2008  2.7228  0.3930
 1011MOL0     H36470   6.502   8.745   8.755  0.2234 -4.3421  3.2324
 1011MOL0     H36471   8.172   8.527   8.068  1.1781  0.9598 -1.1866
 1011MOL0     H36472   8.360   8.587   7.941  1.8587  0.3125  0.0066
 1011MOL0     H36473   8.739   8.705   7.872 -0.7692  0.4333 -1.5606
 1011MOL0     H36474   8.909   8.807   7.732  3.0629  0.3627 -0.5546
 1011MOL0     H36475   9.346   8.752   7.629  1.0768 -1.3942  3.1243
 1011MOL0     H36476   9.291   8.609   7.699  1.1372  0.8693  0.3824
 1011MOL0     H36477   9.234   8.710   7.419  0.2610 -1.1447 -1.9124
 1011MOL0     H36478   9.139   8.581   7.499 -0.4928  0.2181  1.2740
 1011MOL0     H36479   9.412   8.601   7.371 -1.0465  2.3257  1.3383
 1011MOL0     H36480   9.289   8.471   7.358  1.2226 -2.0435  0.6336
 1011MOL0     H36481   9.449   8.352   7.483 -0.6869  0.0269  1.4991
 1011MOL0     H36482   9.318   8.408   7.591 -1.5030  1.5020  0.3740
 1011MOL0     H36483   9.680   8.600   7.730 -2.9970  1.2278  2.4135
 1011MOL0     H36484   9.136   8.452   7.729 -2.8981 -0.4465 -4.8372
 1011MOL0     H36485   8.960   8.337   7.840 -2.4261 -0.7583 -1.2776
 1012MOL0     O36486   6.934  11.300   1.363 -0.2725  0.3143  0.7425
 1012MOL0     C36487   6.914  11.175   1.378 -0.0222 -0.4425  0.5531
 1012MOL0     O36488   6.804  11.112   1.325 -0.2785 -0.4096  0.0912
 1012MOL0     C36489   6.723  11.173   1.234 -1.3703 -0.4459 -0.1952
 1012MOL0     C36490   6.588  11.171   1.265  0.5920  0.4825 -0.7922
 1012MOL0     C36491   6.500  11.222   1.171 -0.8116 -0.2080  0.1691
 1012MOL0     C36492   6.540  11.283   1.053 -0.2915  0.2760 -0.0158
 1012MOL0     O36493   6.438  11.318   0.976  0.4333 -0.7379  0.1207
 1012MOL0     C36494   6.446  11.285   0.837  0.2727  0.3056  1.2077
 1012MOL0     C36495   6.342  11.363   0.738 -0.2275  0.0147  0.1371
 1012MOL0     C36496   6.200  11.321   0.769 -0.1893 -0.0744 -0.5883
 1012MOL0     C36497   6.104  11.373   0.661 -0.1984  0.2883 -0.2335
 1012MOL0     C36498   5.954  11.376   0.681 -0.7190 -0.3543  0.0571
 1012MOL0     C36499   5.919  11.233   0.725  0.1620  1.3549 -0.8690
 1012MOL0     C36500   5.764  11.212   0.745  0.3540 -0.2017  0.1661
 1012MOL0     C36501   5.687  11.225   0.608  0.2305  0.0480 -0.7167
 1012MOL0     N36502   5.559  11.160   0.640 -0.3843 -0.2493 -0.0948
 1012MOL0     C36503   5.497  11.051   0.580 -0.1969  0.0617  1.2094
 1012MOL0     C36504   5.371  11.050   0.638 -0.0928  0.2527  0.5778
 1012MOL0     C36505   5.259  10.951   0.601 -0.3066  1.0370  0.0545
 1012MOL0     C36506   5.169  11.005   0.492 -1.0027 -0.3381 -0.3108
 1012MOL0     C36507   5.058  10.902   0.472 -0.0788  0.9241 -0.0044
 1012MOL0     C36508   4.954  10.942   0.365 -1.0520  1.0645 -0.3147
 1012MOL0     O36509   4.911  11.071   0.397  0.2719 -0.2260  0.1772
 1012MOL0     C36510   4.788  11.090   0.338  0.1044 -0.1938 -0.0121
 1012MOL0     C36511   4.678  11.067   0.417 -0.4291 -0.1661 -0.1227
 1012MOL0     C36512   4.546  11.083   0.362 -0.3102  0.5265 -0.0858
 1012MOL0     C36513   4.427  11.060   0.456 -0.2957 -1.2075  0.3118
 1012MOL0     C36514   4.538  11.119   0.225 -0.5915  0.6537  0.2105
 1012MOL0     C36515   4.405  11.130   0.142 -0.6725  0.6648  0.4117
 1012MOL0     O36516   4.298  11.057   0.184 -0.8573 -0.3767 -0.8940
 1012MOL0     C36517   4.176  11.087   0.130  0.0473  0.3619 -0.3747
 1012MOL0     C36518   4.075  11.143   0.209 -0.9491 -0.4147 -0.2388
 1012MOL0     C36519   3.962  11.198   0.146  0.5037 -0.3455 -0.5781
 1012MOL0     C36520   3.935  11.174   0.010 -0.2909  0.3505 -0.4814
 1012MOL0     O36521   3.818  11.218  -0.046 -0.3379  0.2241 -0.6902
 1012MOL0     C36522   3.754  11.119  -0.122 -0.6315 -0.5152 -0.4811
 1012MOL0     C36523   3.621  11.083  -0.065  0.1666  0.2535  0.2210
 1012MOL0     C36524   3.510  11.155  -0.139 -0.5537 -0.2022 -0.7497
 1012MOL0     C36525   3.390  11.159  -0.039 -0.2284  0.6434  0.4492
 1012MOL0     C36526   3.276  11.244  -0.083  0.7886 -0.6989 -0.2661
 1012MOL0     C36527   3.185  11.172  -0.183 -0.5458 -0.7426  0.3224
 1012MOL0     C36528   3.109  11.061  -0.114  0.0293 -0.3023 -0.0823
 1012MOL0     C36529   2.982  11.015  -0.197 -0.2367 -0.4860  0.3767
 1012MOL0    Cl36530   2.859  11.148  -0.225  0.3699  0.2434  0.2826
 1012MOL0     C36531   4.031  11.108  -0.067 -0.2285  0.1813 -1.1664
 1012MOL0     C36532   4.148  11.055  -0.008 -0.4062  0.6957  0.3527
 1012MOL0     O36533   4.414  11.194   0.033 -0.5389  0.4639 -0.1062
 1012MOL0     C36534   4.658  11.148   0.155  0.8584  0.0866 -0.3660
 1012MOL0     C36535   4.783  11.120   0.201 -0.6594 -0.2897  0.2942
 1012MOL0     N36536   5.369  11.128   0.747 -0.2979 -0.2226 -0.1120
 1012MOL0     N36537   5.480  11.187   0.748 -0.0841 -0.7676  0.0219
 1012MOL0     C36538   6.677  11.296   1.035 -0.5746 -0.5114  0.4666
 1012MOL0     C36539   6.770  11.247   1.120  0.0101  0.4332 -0.1488
 1012MOL0     C36540   7.010  11.084   1.446 -0.0653 -0.8423 -0.1906
 1012MOL0     C36541   7.013  10.949   1.416 -0.0071  0.5364 -0.1389
 1012MOL0     C36542   7.111  10.863   1.470  0.2137 -0.0240 -0.4552
 1012MOL0     C36543   7.204  10.910   1.563 -0.0917  0.0994 -0.4339
 1012MOL0     O36544   7.293  10.832   1.627 -0.5586  0.5724 -0.2776
 1012MOL0     C36545   7.273  10.695   1.637  0.8427  0.3991 -0.3334
 1012MOL0     C36546   7.371  10.607   1.562  0.7886  0.7338  0.1612
 1012MOL0     C36547   7.511  10.604   1.618 -0.0746 -0.1160 -0.5421
 1012MOL0     C36548   7.605  10.525   1.524 -0.1064  0.0059  0.6377
 1012MOL0     C36549   7.745  10.543   1.565  1.0682  0.4060  0.4196
 1012MOL0     C36550   7.856  10.579   1.598  0.5463 -0.4130 -0.2420
 1012MOL0     C36551   7.200  11.044   1.598 -1.1043  0.0194 -0.2261
 1012MOL0     C36552   7.109  11.129   1.538  0.1634  0.1876  0.1368
 1012MOL0     H36553   6.559  11.116   1.354  0.4909  2.8287  0.6980
 1012MOL0     H36554   6.397  11.196   1.195 -1.4610 -0.4021 -2.4508
 1012MOL0     H36555   6.548  11.308   0.804  0.0391  4.3292  2.6589
 1012MOL0     H36556   6.421  11.179   0.829  2.4875 -0.3998  2.6168
 1012MOL0     H36557   6.341  11.473   0.745 -2.1549  0.1249 -1.2302
 1012MOL0     H36558   6.360  11.329   0.636 -3.9570 -2.5531  0.1588
 1012MOL0     H36559   6.188  11.213   0.781  2.3781 -0.1722  2.4839
 1012MOL0     H36560   6.171  11.364   0.866 -2.3261 -0.5651 -0.9599
 1012MOL0     H36561   6.124  11.478   0.636 -0.5823  0.3212 -0.4250
 1012MOL0     H36562   6.116  11.323   0.564  1.0541 -0.4239  0.2661
 1012MOL0     H36563   5.921  11.452   0.753  0.4236 -0.7379  1.0249
 1012MOL0     H36564   5.903  11.393   0.586 -2.9566 -0.4795  1.1881
 1012MOL0     H36565   5.948  11.162   0.647  1.5691 -0.1865  0.9636
 1012MOL0     H36566   5.972  11.197   0.813 -0.3257  0.6230 -0.8700
 1012MOL0     H36567   5.747  11.115   0.792  0.2904  1.1207  3.1377
 1012MOL0     H36568   5.730  11.274   0.829 -3.6850 -0.2984 -1.1398
 1012MOL0     H36569   5.745  11.176   0.529 -0.6916 -0.8184 -0.8702
 1012MOL0     H36570   5.672  11.330   0.578  1.7294 -0.0717 -1.9970
 1012MOL0     H36571   5.517  10.999   0.487 -2.4964 -1.8303  1.6945
 1012MOL0     H36572   5.296  10.852   0.573 -0.1058  1.4931 -1.3586
 1012MOL0     H36573   5.204  10.942   0.695  1.3820 -1.7194  0.8972
 1012MOL0     H36574   5.228  11.025   0.402 -0.6305  1.4220  0.2917
 1012MOL0     H36575   5.123  11.101   0.518  1.8118  1.1961 -0.5915
 1012MOL0     H36576   4.995  10.886   0.559 -1.0738 -2.4043 -1.1867
 1012MOL0     H36577   5.107  10.806   0.454  0.1618  0.3559  3.1727
 1012MOL0     H36578   4.881  10.861   0.369  0.6822 -0.5761 -0.5398
 1012MOL0     H36579   4.992  10.949   0.262 -2.3205  0.2871 -0.8596
 1012MOL0     H36580   4.695  11.037   0.520 -0.4120 -0.1812 -0.1299
 1012MOL0     H36581   4.382  10.962   0.434 -0.0082 -1.7522  1.9515
 1012MOL0     H36582   4.466  11.065   0.559  0.6263  0.2558 -0.0770
 1012MOL0     H36583   4.350  11.137   0.452 -2.3388 -3.1706 -0.4222
 1012MOL0     H36584   4.097  11.150   0.315 -1.6500  0.3694 -0.1411
 1012MOL0     H36585   3.881  11.252   0.195  1.8737  0.4396  0.9150
 1012MOL0     H36586   3.743  11.163  -0.221  2.3322  1.8944  0.1310
 1012MOL0     H36587   3.808  11.024  -0.134  1.2851  0.6126 -1.3018
 1012MOL0     H36588   3.615  10.974  -0.077  2.1415  0.3438 -2.7500
 1012MOL0     H36589   3.618  11.104   0.042 -1.9660 -0.0595  0.2580
 1012MOL0     H36590   3.491  11.108  -0.236 -0.9559 -0.5356 -0.5141
 1012MOL0     H36591   3.549  11.251  -0.173  4.0036 -1.8107 -0.6946
 1012MOL0     H36592   3.360  11.058  -0.011 -0.2676  0.4383 -0.3143
 1012MOL0     H36593   3.427  11.208   0.052 -0.0917  2.5710 -0.5831
 1012MOL0     H36594   3.325  11.322  -0.142  1.6473 -3.2993 -3.3149
 1012MOL0     H36595   3.209  11.286  -0.008 -1.3939 -2.5704 -1.0243
 1012MOL0     H36596   3.110  11.245  -0.214 -1.1855 -1.6004 -0.2168
 1012MOL0     H36597   3.243  11.144  -0.272  1.7902  3.2109  0.3735
 1012MOL0     H36598   3.074  11.102  -0.019  0.5537  0.0703 -0.0430
 1012MOL0     H36599   3.167  10.972  -0.089  0.2804  0.2045  1.2138
 1012MOL0     H36600   2.915  10.947  -0.144 -4.6578  1.5431 -2.0356
 1012MOL0     H36601   3.023  10.976  -0.291  0.4387  0.9841  0.0356
 1012MOL0     H36602   4.014  11.091  -0.173 -0.5418 -1.4122 -0.8921
 1012MOL0     H36603   4.216  10.991  -0.064 -0.2540 -0.1389  1.4587
 1012MOL0     H36604   4.645  11.163   0.048  2.0203 -0.8202 -0.6526
 1012MOL0     H36605   4.866  11.123   0.132 -2.2128  0.9637 -1.6260
 1012MOL0     H36606   6.711  11.361   0.955 -1.7995  0.1178  0.4343
 1012MOL0     H36607   6.874  11.262   1.092 -0.8952 -0.4907 -4.8600
 1012MOL0     H36608   6.945  10.910   1.341 -0.4934  1.5197 -0.2199
 1012MOL0     H36609   7.122  10.766   1.424 -1.5164 -1.0403  1.1592
 1012MOL0     H36610   7.269  10.670   1.743  0.4622  0.0764 -0.4198
 1012MOL0     H36611   7.178  10.656   1.599  2.0737 -3.3352 -0.0330
 1012MOL0     H36612   7.377  10.628   1.455 -1.7518 -4.4698 -1.3284
 1012MOL0     H36613   7.335  10.504   1.562 -0.9031  1.2788  0.0981
 1012MOL0     H36614   7.495  10.543   1.707 -1.1538 -1.0094 -1.3149
 1012MOL0     H36615   7.571  10.695   1.629 -1.3336  0.5142  1.7604
 1012MOL0     H36616   7.591  10.570   1.426 -1.1546 -2.0937 -0.2433
 1012MOL0     H36617   7.572  10.421   1.528 -0.2555 -0.0461 -1.2859
 1012MOL0     H36618   7.957  10.614   1.605  1.0918 -1.7003 -1.3123
 1012MOL0     H36619   7.275  11.089   1.662  0.8123 -1.5000 -1.2929
 1012MOL0     H36620   7.115  11.235   1.558  0.5228 -0.2004  2.2681
 1013MOL0     O36621   0.019   5.897   2.242 -0.2129 -0.4454 -0.2735
 1013MOL0     C36622   0.009   6.011   2.232  0.0746 -0.3894  0.7473
 1013MOL0     O36623  -0.114   6.071   2.248 -0.1697 -0.4462  0.3691
 1013MOL0     C36624  -0.223   5.998   2.271  0.1173 -0.0963 -0.9638
 1013MOL0     C36625  -0.248   5.959   2.399 -0.1945 -0.2435  0.0084
 1013MOL0     C36626  -0.362   5.886   2.432 -0.2550  0.0818  1.0785
 1013MOL0     C36627  -0.451   5.848   2.334  0.6511  0.4244 -0.3368
 1013MOL0     O36628  -0.545   5.761   2.374  0.5424 -0.1213 -0.0686
 1013MOL0     C36629  -0.658   5.740   2.287 -1.3079  0.5118 -0.4276
 1013MOL0     C36630  -0.734   5.617   2.337  0.4459  1.0214  0.2679
 1013MOL0     C36631  -0.878   5.634   2.295 -0.0814  0.5324  1.1891
 1013MOL0     C36632  -0.979   5.520   2.317  0.2523 -0.5759 -0.5153
 1013MOL0     C36633  -1.108   5.560   2.235 -0.0397  0.6747  0.4620
 1013MOL0     C36634  -1.220   5.454   2.247  0.3325  0.2708 -0.5139
 1013MOL0     C36635  -1.312   5.493   2.365 -0.3809  0.6462  0.2985
 1013MOL0     C36636  -1.454   5.441   2.350  0.6589  0.0117  0.1461
 1013MOL0     N36637  -1.535   5.522   2.255 -0.3237 -0.0805 -0.7040
 1013MOL0     C36638  -1.586   5.474   2.138 -0.6113 -0.3633  0.0040
 1013MOL0     C36639  -1.648   5.586   2.081  0.6165 -0.1258  0.5284
 1013MOL0     C36640  -1.713   5.596   1.949 -0.9529 -0.4008  0.3265
 1013MOL0     C36641  -1.860   5.611   1.964  0.4347 -0.5569  0.0305
 1013MOL0     C36642  -1.927   5.617   1.824  0.0674  0.5514  0.7715
 1013MOL0     C36643  -2.076   5.660   1.858 -1.2712  0.0434  0.5641
 1013MOL0     O36644  -2.135   5.575   1.953  0.5602  0.4061 -0.6059
 1013MOL0     C36645  -2.253   5.614   2.017  0.0537  0.4153  1.3366
 1013MOL0     C36646  -2.273   5.566   2.144  0.3852 -0.3549 -0.1982
 1013MOL0     C36647  -2.390   5.597   2.208  0.0162  0.3724 -0.3191
 1013MOL0     C36648  -2.418   5.523   2.344  0.4025 -0.5147  0.7228
 1013MOL0     C36649  -2.489   5.679   2.144  0.1205  0.3471  0.3361
 1013MOL0     C36650  -2.630   5.689   2.200 -0.8376  0.0226  0.5659
 1013MOL0     O36651  -2.685   5.572   2.246  0.2644 -0.2322 -0.7372
 1013MOL0     C36652  -2.819   5.564   2.303 -0.4486 -0.4369 -0.1613
 1013MOL0     C36653  -2.874   5.441   2.309  0.0048 -0.1571  0.5271
 1013MOL0     C36654  -3.006   5.401   2.353 -0.4640  0.1265 -1.3261
 1013MOL0     C36655  -3.083   5.502   2.410 -0.3848  0.1756  0.0575
 1013MOL0     O36656  -3.207   5.466   2.459 -0.3376  0.0823 -1.0038
 1013MOL0     C36657  -3.263   5.567   2.539 -0.2225  0.5048 -0.7340
 1013MOL0     C36658  -3.397   5.514   2.579 -0.8702 -1.4039 -0.2995
 1013MOL0     C36659  -3.459   5.605   2.685 -0.8430  0.2190  0.8804
 1013MOL0     C36660  -3.601   5.564   2.713 -0.1072 -0.3911  0.5851
 1013MOL0     C36661  -3.680   5.668   2.802 -0.7217  0.0554 -1.1065
 1013MOL0     C36662  -3.827   5.626   2.806 -0.2768  0.1284  0.0333
 1013MOL0     C36663  -3.915   5.728   2.887  0.0160  0.4849 -0.9906
 1013MOL0     C36664  -4.059   5.696   2.876  0.9192  0.4784  0.0376
 1013MOL0    Cl36665  -4.090   5.541   2.954  0.0468  0.1481  0.0208
 1013MOL0     C36666  -3.025   5.636   2.406  0.4293  0.4067 -0.5127
 1013MOL0     C36667  -2.891   5.664   2.357  1.6460 -0.4489 -0.0724
 1013MOL0     O36668  -2.682   5.796   2.200  0.2687  0.2341 -0.2860
 1013MOL0     C36669  -2.466   5.737   2.021 -0.1669  0.2094  0.8297
 1013MOL0     C36670  -2.347   5.702   1.957 -0.6138  0.4799 -0.6676
 1013MOL0     N36671  -1.642   5.687   2.174  0.3083 -0.8151  0.5374
 1013MOL0     N36672  -1.558   5.650   2.267 -0.6336 -0.3412 -0.3642
 1013MOL0     C36673  -0.434   5.889   2.201  0.0457  0.2205 -0.3122
 1013MOL0     C36674  -0.313   5.965   2.178 -0.4226  0.1063  0.3007
 1013MOL0     C36675   0.128   6.091   2.185 -0.1719 -0.9099 -0.1623
 1013MOL0     C36676   0.109   6.232   2.159  0.1408 -0.4041 -0.2036
 1013MOL0     C36677   0.212   6.315   2.113 -0.5756  0.2599 -0.8125
 1013MOL0     C36678   0.337   6.263   2.089 -0.3882 -0.7405  0.2412
 1013MOL0     O36679   0.451   6.333   2.061  0.1802 -0.1350  0.0312
 1013MOL0     C36680   0.479   6.447   2.150  0.2963 -0.1666  0.0634
 1013MOL0     C36681   0.634   6.467   2.148  0.0865  0.1412  0.3839
 1013MOL0     C36682   0.719   6.344   2.181  0.2587  0.6599 -0.2379
 1013MOL0     C36683   0.862   6.368   2.243  0.1215 -0.2061  0.6424
 1013MOL0     C36684   0.963   6.405   2.147  0.4613 -0.6652  0.7176
 1013MOL0     C36685   1.042   6.447   2.072 -0.3577  0.0129  0.3772
 1013MOL0     C36686   0.356   6.131   2.113  1.0812  0.8046 -0.1854
 1013MOL0     C36687   0.260   6.045   2.165  0.2202 -0.6143 -0.4511
 1013MOL0     H36688  -0.189   5.984   2.487  1.3114 -0.2717 -0.9481
 1013MOL0     H36689  -0.379   5.848   2.533 -1.1022 -3.3848 -0.2323
 1013MOL0     H36690  -0.719   5.831   2.291  0.1311  1.7254 -3.4075
 1013MOL0     H36691  -0.631   5.727   2.182 -0.2835  2.6340 -0.4697
 1013MOL0     H36692  -0.692   5.522   2.301 -1.3828 -0.0415  0.7928
 1013MOL0     H36693  -0.731   5.616   2.447  1.6344 -0.5326  0.2738
 1013MOL0     H36694  -0.918   5.723   2.344 -4.2136 -0.7159  0.4457
 1013MOL0     H36695  -0.881   5.647   2.186  4.0008 -3.9997  0.1437
 1013MOL0     H36696  -0.947   5.430   2.264 -0.1538 -1.8866  1.3622
 1013MOL0     H36697  -0.980   5.492   2.422  2.3082  0.9584 -0.0273
 1013MOL0     H36698  -1.140   5.657   2.275  0.9827  0.3662  2.0907
 1013MOL0     H36699  -1.079   5.579   2.131  0.1177 -0.5285  0.2652
 1013MOL0     H36700  -1.280   5.470   2.156  1.4186  0.7134 -1.1709
 1013MOL0     H36701  -1.188   5.349   2.250 -1.4180 -0.2840  0.4052
 1013MOL0     H36702  -1.263   5.442   2.449 -0.8674 -0.4753 -0.0766
 1013MOL0     H36703  -1.314   5.600   2.384  0.9421  0.7605 -0.1063
 1013MOL0     H36704  -1.504   5.457   2.445  1.7203 -0.0557  0.7349
 1013MOL0     H36705  -1.459   5.333   2.336 -1.8797  0.4110 -3.2667
 1013MOL0     H36706  -1.589   5.373   2.099 -2.0935 -0.3837  0.1387
 1013MOL0     H36707  -1.683   5.693   1.907 -0.7946  0.4945  2.4057
 1013MOL0     H36708  -1.680   5.509   1.892  1.1819  0.2422  0.4558
 1013MOL0     H36709  -1.885   5.694   2.031  0.2608  0.5790 -1.3955
 1013MOL0     H36710  -1.890   5.519   2.015  1.5905 -0.3633  1.1021
 1013MOL0     H36711  -1.926   5.523   1.768  0.6160  0.5494  0.7761
 1013MOL0     H36712  -1.894   5.685   1.744  0.9224  1.0435  1.5286
 1013MOL0     H36713  -2.126   5.641   1.762 -4.4792  0.2753  2.0688
 1013MOL0     H36714  -2.065   5.763   1.893  4.3681 -0.1303  0.2633
 1013MOL0     H36715  -2.209   5.488   2.184  1.7469 -0.2220 -1.9491
 1013MOL0     H36716  -2.322   5.517   2.396 -0.1721 -3.0372  1.6338
 1013MOL0     H36717  -2.497   5.575   2.399  1.2853 -0.6535  2.1766
 1013MOL0     H36718  -2.445   5.420   2.319  0.9703 -0.1920 -1.4164
 1013MOL0     H36719  -2.822   5.354   2.270 -3.1034 -1.3217 -1.4433
 1013MOL0     H36720  -3.042   5.298   2.354 -0.5284  0.0941  1.4388
 1013MOL0     H36721  -3.206   5.600   2.627  0.5828  2.3036 -1.8568
 1013MOL0     H36722  -3.288   5.656   2.480 -0.2334  1.0087  0.0149
 1013MOL0     H36723  -3.458   5.505   2.489  0.1553  3.1289 -1.6964
 1013MOL0     H36724  -3.395   5.421   2.636 -0.2506  0.4715  3.0050
 1013MOL0     H36725  -3.455   5.705   2.641 -0.3523 -0.3060 -0.3119
 1013MOL0     H36726  -3.407   5.609   2.780 -2.1726  0.3001  1.6261
 1013MOL0     H36727  -3.644   5.547   2.614  0.2654 -4.3743  0.9420
 1013MOL0     H36728  -3.591   5.465   2.757  1.7683  0.0273  1.2050
 1013MOL0     H36729  -3.658   5.763   2.752  1.8583 -1.1081 -2.3752
 1013MOL0     H36730  -3.637   5.667   2.903 -2.2481  1.4253 -0.3986
 1013MOL0     H36731  -3.877   5.607   2.710  0.2176 -1.7931  0.1146
 1013MOL0     H36732  -3.828   5.527   2.852  1.1364 -0.7357 -1.6862
 1013MOL0     H36733  -3.890   5.827   2.847  2.8143  0.8668  1.3631
 1013MOL0     H36734  -3.883   5.718   2.991  2.2098 -4.1066 -1.8248
 1013MOL0     H36735  -4.100   5.701   2.775 -0.0355  1.6135  0.4431
 1013MOL0     H36736  -4.103   5.777   2.937  0.0091 -1.4456  2.0873
 1013MOL0     H36737  -3.079   5.718   2.451 -1.6193 -0.1842 -1.7217
 1013MOL0     H36738  -2.852   5.765   2.361  1.6009 -0.4027 -0.7759
 1013MOL0     H36739  -2.540   5.803   1.977  0.0020  1.3553  2.2298
 1013MOL0     H36740  -2.319   5.747   1.863  2.3136  1.8293  0.7134
 1013MOL0     H36741  -0.506   5.879   2.120 -1.0731  2.1933  0.3761
 1013MOL0     H36742  -0.290   6.001   2.078  3.8168 -1.6944  0.3906
 1013MOL0     H36743   0.010   6.276   2.170 -1.1678 -1.9513 -4.0821
 1013MOL0     H36744   0.189   6.421   2.103 -0.9853  0.1698 -0.8191
 1013MOL0     H36745   0.409   6.524   2.117  0.3945  1.7274  3.7776
 1013MOL0     H36746   0.445   6.409   2.246  0.1656 -0.8447 -0.2473
 1013MOL0     H36747   0.648   6.552   2.216 -1.5460 -0.6721  1.8133
 1013MOL0     H36748   0.648   6.502   2.045 -0.6822  3.6714  1.3243
 1013MOL0     H36749   0.739   6.296   2.085 -2.4471 -2.5932  0.6294
 1013MOL0     H36750   0.661   6.271   2.238  1.9198 -1.9687 -1.7671
 1013MOL0     H36751   0.906   6.285   2.301 -0.8106 -1.3987 -0.3005
 1013MOL0     H36752   0.848   6.451   2.313 -1.3490 -1.7013  2.2528
 1013MOL0     H36753   1.101   6.503   2.002 -2.6772 -0.7904 -2.4155
 1013MOL0     H36754   0.450   6.079   2.101  0.5855 -0.6224  1.7445
 1013MOL0     H36755   0.285   5.947   2.203  0.6583  0.2569  1.6213
 1014MOL0     O36756   4.494  10.520   0.747  0.4489  0.5199 -0.2265
 1014MOL0     C36757   4.576  10.603   0.713 -0.4664 -1.0582  0.4240
 1014MOL0     O36758   4.550  10.736   0.670  0.1075  0.1991  0.1458
 1014MOL0     C36759   4.435  10.789   0.698 -0.1192 -0.2828 -0.2645
 1014MOL0     C36760   4.431  10.895   0.782  0.1512 -0.6578  0.4302
 1014MOL0     C36761   4.309  10.965   0.803 -0.5472  0.3231 -0.0437
 1014MOL0     C36762   4.197  10.920   0.738  0.2120 -0.5576 -0.0274
 1014MOL0     O36763   4.074  10.976   0.771 -0.4367  0.5474 -0.0593
 1014MOL0     C36764   3.998  11.014   0.661 -0.0071  0.3766  0.0215
 1014MOL0     C36765   3.932  11.149   0.682 -0.6772  0.8442 -0.3309
 1014MOL0     C36766   3.854  11.189   0.560  1.6013 -0.1392 -0.7521
 1014MOL0     C36767   3.737  11.291   0.582 -0.0938  0.6274  0.3887
 1014MOL0     C36768   3.644  11.302   0.466 -0.1427  0.0287  0.7570
 1014MOL0     C36769   3.514  11.390   0.488 -0.6041  0.0863  1.0852
 1014MOL0     C36770   3.400  11.373   0.395  0.1197  0.0399 -0.8131
 1014MOL0     C36771   3.273  11.455   0.443 -0.6569 -0.3361  0.4440
 1014MOL0     N36772   3.161  11.393   0.373 -0.9251 -0.5460  0.6691
 1014MOL0     C36773   3.116  11.413   0.241  0.3892  0.6604  0.1923
 1014MOL0     C36774   3.010  11.337   0.221  0.4303  0.9912 -0.0566
 1014MOL0     C36775   2.928  11.343   0.099  0.0612 -0.6861  0.4344
 1014MOL0     C36776   2.797  11.382   0.129 -1.4365  0.4287  0.3101
 1014MOL0     C36777   2.720  11.398  -0.003  0.8070 -0.2565 -0.6751
 1014MOL0     C36778   2.568  11.385   0.004 -0.1932 -0.1596  0.4878
 1014MOL0     O36779   2.518  11.253   0.030 -0.4836 -0.1730  0.1730
 1014MOL0     C36780   2.383  11.240   0.010  0.3746  0.0550  0.1805
 1014MOL0     C36781   2.303  11.184   0.112 -0.1431  1.3455 -0.2365
 1014MOL0     C36782   2.164  11.169   0.099  0.1071  0.3784 -0.1669
 1014MOL0     C36783   2.094  11.079   0.191  0.2879 -0.7939 -0.3095
 1014MOL0     C36784   2.103  11.213  -0.015  0.0107  0.0961  1.3258
 1014MOL0     C36785   1.959  11.199  -0.037  0.8378 -0.3891 -0.2076
 1014MOL0     O36786   1.921  11.165  -0.163  0.0297  0.0711  0.3995
 1014MOL0     C36787   1.796  11.116  -0.191 -0.8538  0.0601  0.8128
 1014MOL0     C36788   1.687  11.191  -0.243 -0.2850 -0.6470 -0.4208
 1014MOL0     C36789   1.570  11.122  -0.279  0.6646 -0.2818  0.3264
 1014MOL0     C36790   1.551  10.988  -0.265  0.4681  0.8939  0.6505
 1014MOL0     O36791   1.421  10.941  -0.288 -1.0860 -0.5384 -0.7472
 1014MOL0     C36792   1.408  10.795  -0.282 -0.5372  0.5242  0.1934
 1014MOL0     C36793   1.267  10.750  -0.332 -0.1073 -0.2682 -0.5386
 1014MOL0     C36794   1.163  10.741  -0.219  0.7876  0.4290  0.8094
 1014MOL0     C36795   1.034  10.693  -0.281 -0.1961 -0.5883  0.3098
 1014MOL0     C36796   0.920  10.704  -0.182 -1.0255  0.1207 -0.7246
 1014MOL0     C36797   0.798  10.646  -0.242 -0.2517  0.6716 -0.3616
 1014MOL0     C36798   0.697  10.638  -0.142  0.2615  0.2175 -0.2613
 1014MOL0     C36799   0.697  10.516  -0.050  1.0666 -1.1810 -0.4022
 1014MOL0    Cl36800   0.631  10.577   0.110  0.7808  0.2259 -0.5137
 1014MOL0     C36801   1.659  10.911  -0.228 -0.1313  0.1360 -0.1258
 1014MOL0     C36802   1.781  10.976  -0.190 -0.5446  0.9188  0.5871
 1014MOL0     O36803   1.885  11.227   0.052  0.1459  0.2326  0.3690
 1014MOL0     C36804   2.178  11.272  -0.118 -0.4732 -0.0846 -0.8900
 1014MOL0     C36805   2.312  11.282  -0.106 -1.0901 -0.9721 -0.2512
 1014MOL0     N36806   2.985  11.274   0.350  0.1301 -0.5677  0.4830
 1014MOL0     N36807   3.085  11.302   0.428  0.1066  0.6066  0.1158
 1014MOL0     C36808   4.199  10.811   0.657 -0.2973 -0.4278 -0.1689
 1014MOL0     C36809   4.319  10.740   0.635 -0.5626 -0.3868  0.1536
 1014MOL0     C36810   4.721  10.564   0.720 -0.4626  0.0000  0.6604
 1014MOL0     C36811   4.762  10.432   0.712 -0.2567 -0.3246 -0.1365
 1014MOL0     C36812   4.894  10.395   0.701  1.0211 -0.3664  0.5950
 1014MOL0     C36813   4.991  10.500   0.702 -0.6843  0.5192 -0.2482
 1014MOL0     O36814   5.128  10.483   0.671  0.0551 -0.5650  0.1305
 1014MOL0     C36815   5.183  10.350   0.647  0.5421 -0.6043  0.0794
 1014MOL0     C36816   5.152  10.307   0.509  0.3118  0.4469 -1.2674
 1014MOL0     C36817   5.232  10.402   0.413  0.2992 -0.9835 -0.2245
 1014MOL0     C36818   5.163  10.532   0.368  0.0273 -0.4900  0.2634
 1014MOL0     C36819   5.074  10.515   0.257  0.8845 -0.2893  0.1487
 1014MOL0     C36820   4.995  10.494   0.160 -0.6197  0.1042  0.2939
 1014MOL0     C36821   4.948  10.630   0.717  0.0100 -0.7366 -0.2914
 1014MOL0     C36822   4.812  10.668   0.721  0.3859 -0.1046  0.6866
 1014MOL0     H36823   4.520  10.936   0.828  0.6143  1.9346 -2.4281
 1014MOL0     H36824   4.299  11.054   0.864  3.7206  1.7212 -1.0582
 1014MOL0     H36825   4.053  11.010   0.566 -0.0000 -0.9080  0.0537
 1014MOL0     H36826   3.919  10.940   0.644 -0.1646  0.2899  1.0983
 1014MOL0     H36827   3.866  11.128   0.766 -0.4814 -2.8320 -0.9459
 1014MOL0     H36828   4.013  11.220   0.700  0.2484 -0.6060  1.5380
 1014MOL0     H36829   3.919  11.239   0.487  1.5226  0.0083 -0.7221
 1014MOL0     H36830   3.809  11.102   0.512 -0.1620  1.0505 -1.3642
 1014MOL0     H36831   3.685  11.264   0.674 -0.5129  2.6868  0.8055
 1014MOL0     H36832   3.783  11.385   0.614  0.8531 -0.0836  1.1801
 1014MOL0     H36833   3.694  11.347   0.381 -1.8875 -0.3769 -0.5425
 1014MOL0     H36834   3.627  11.197   0.441  2.4584 -0.1402 -0.6823
 1014MOL0     H36835   3.471  11.373   0.587 -2.6754 -0.9489  0.0878
 1014MOL0     H36836   3.534  11.497   0.477 -1.1540 -0.0017 -1.3087
 1014MOL0     H36837   3.424  11.412   0.295 -1.8541  2.4336 -0.4364
 1014MOL0     H36838   3.381  11.266   0.380 -1.3450  0.4014 -1.7447
 1014MOL0     H36839   3.297  11.558   0.413  1.0181 -0.8144  0.0248
 1014MOL0     H36840   3.259  11.460   0.551  1.7353  2.4389  0.7467
 1014MOL0     H36841   3.165  11.479   0.171 -1.1673  3.1948  1.3582
 1014MOL0     H36842   2.974  11.412   0.027 -0.5615  0.5733  1.2047
 1014MOL0     H36843   2.921  11.244   0.053 -2.0138  0.9167 -3.0365
 1014MOL0     H36844   2.803  11.476   0.184  0.7135 -0.3988  1.5888
 1014MOL0     H36845   2.746  11.314   0.198 -3.0966 -1.1314 -2.2617
 1014MOL0     H36846   2.746  11.319  -0.075 -0.3174 -0.7915 -0.5180
 1014MOL0     H36847   2.733  11.500  -0.040 -1.2981  1.7362  3.4482
 1014MOL0     H36848   2.534  11.404  -0.098  2.6555 -1.6965 -0.9104
 1014MOL0     H36849   2.527  11.462   0.069 -0.5714  2.2906 -2.4263
 1014MOL0     H36850   2.358  11.140   0.194  1.3569  4.1115  0.3760
 1014MOL0     H36851   2.160  11.004   0.238  1.2283  0.2770  0.1218
 1014MOL0     H36852   2.053  11.145   0.267  0.4855  1.8023 -2.3393
 1014MOL0     H36853   2.012  11.022   0.146  0.0617  0.0314 -0.9500
 1014MOL0     H36854   1.705  11.294  -0.272 -1.5516 -0.5903 -1.1068
 1014MOL0     H36855   1.488  11.178  -0.323  0.2111 -0.9777  0.2730
 1014MOL0     H36856   1.479  10.763  -0.358 -0.5773  1.5182 -0.2824
 1014MOL0     H36857   1.421  10.760  -0.179 -0.4570  2.9624  1.0809
 1014MOL0     H36858   1.234  10.825  -0.404  0.5385  0.8043  0.2522
 1014MOL0     H36859   1.276  10.654  -0.385 -1.5673 -0.1947 -0.9539
 1014MOL0     H36860   1.149  10.845  -0.187 -0.3951  0.8211 -0.8783
 1014MOL0     H36861   1.175  10.683  -0.127 -0.5461  0.5975  1.1104
 1014MOL0     H36862   1.015  10.758  -0.368  3.3092  0.0373 -0.1564
 1014MOL0     H36863   1.041  10.592  -0.321 -4.0102  0.2881 -3.2703
 1014MOL0     H36864   0.917  10.810  -0.155 -0.9705 -0.3981  1.4598
 1014MOL0     H36865   0.951  10.652  -0.091  0.4861  1.0013 -0.7086
 1014MOL0     H36866   0.761  10.710  -0.323 -2.9356  2.2250  1.9113
 1014MOL0     H36867   0.807  10.546  -0.287  0.7985  1.1113 -1.1583
 1014MOL0     H36868   0.595  10.633  -0.181 -0.1270 -4.7788  0.7357
 1014MOL0     H36869   0.699  10.733  -0.086 -1.1328  0.8725 -1.2702
 1014MOL0     H36870   0.800  10.483  -0.033  1.7412  1.7490  2.0482
 1014MOL0     H36871   0.639  10.434  -0.093  2.3425 -0.9612 -2.6469
 1014MOL0     H36872   1.666  10.803  -0.220  1.0626  0.0388 -1.9030
 1014MOL0     H36873   1.847  10.909  -0.136 -0.7863  0.5094  0.3877
 1014MOL0     H36874   2.119  11.296  -0.206 -2.3839 -0.2684  0.2946
 1014MOL0     H36875   2.374  11.324  -0.184  0.0891 -0.7585  0.7598
 1014MOL0     H36876   4.104  10.772   0.621 -0.4251  0.2262 -0.5671
 1014MOL0     H36877   4.323  10.650   0.576 -0.5408 -0.4064  0.1844
 1014MOL0     H36878   4.691  10.349   0.714  1.5789 -2.0389 -1.4700
 1014MOL0     H36879   4.905  10.288   0.691  1.1767 -0.2163 -0.9895
 1014MOL0     H36880   5.291  10.349   0.664  0.3090  0.0982  1.7666
 1014MOL0     H36881   5.134  10.279   0.715 -3.4856  0.1329 -1.7027
 1014MOL0     H36882   5.048  10.326   0.480  0.4227  1.3829 -1.0872
 1014MOL0     H36883   5.177  10.201   0.492 -1.1925 -0.2078  0.2548
 1014MOL0     H36884   5.252  10.344   0.322  1.7586 -2.7925  1.1556
 1014MOL0     H36885   5.328  10.434   0.455  0.1524  0.0234 -0.6442
 1014MOL0     H36886   5.235  10.613   0.351 -1.6486  1.3098  1.2633
 1014MOL0     H36887   5.096  10.573   0.445  1.5550  1.4094  0.6686
 1014MOL0     H36888   4.926  10.481   0.079  0.6209  0.0932 -0.7946
 1014MOL0     H36889   5.029  10.704   0.716 -0.8485  0.2250 -0.2560
 1014MOL0     H36890   4.784  10.773   0.727  0.4672 -0.1287  1.5588
 1015MOL0     O36891   0.861   8.125   7.718 -0.1289 -0.4597 -0.5936
 1015MOL0     C36892   0.931   8.111   7.622  0.1498  0.2139  0.2263
 1015MOL0     O36893   0.890   8.089   7.495  0.6850 -0.0862  0.1220
 1015MOL0     C36894   0.761   8.087   7.444  0.1417 -0.3136 -0.5493
 1015MOL0     C36895   0.736   8.129   7.316 -0.9152 -0.2933 -0.5417
 1015MOL0     C36896   0.607   8.117   7.263  1.1425 -0.5779 -0.1597
 1015MOL0     C36897   0.496   8.071   7.346 -0.0751 -1.0530 -0.6545
 1015MOL0     O36898   0.371   8.076   7.278  0.0857 -0.4861 -0.6502
 1015MOL0     C36899   0.263   8.013   7.336  0.3558  0.1040 -0.0809
 1015MOL0     C36900   0.143   8.002   7.240  0.7939  0.3853 -0.0334
 1015MOL0     C36901   0.078   8.148   7.222  0.0035  0.5982  0.2155
 1015MOL0     C36902  -0.031   8.176   7.336 -0.2599 -0.1337  0.3745
 1015MOL0     C36903  -0.085   8.320   7.334  0.4405 -0.1577  0.3704
 1015MOL0     C36904  -0.170   8.351   7.458 -0.8436  0.0075 -0.6955
 1015MOL0     C36905  -0.230   8.492   7.472 -0.6113  0.2342  0.0819
 1015MOL0     C36906  -0.312   8.499   7.602  0.1850  0.1260 -0.3266
 1015MOL0     N36907  -0.420   8.595   7.580 -0.8084  0.1326 -0.2001
 1015MOL0     C36908  -0.415   8.731   7.566  0.5010 -0.6273  0.1680
 1015MOL0     C36909  -0.539   8.765   7.535  0.5979 -1.2564 -0.5156
 1015MOL0     C36910  -0.591   8.910   7.517 -0.3979  0.2074  0.2684
 1015MOL0     C36911  -0.554   8.976   7.381 -0.3136 -0.1188 -1.2488
 1015MOL0     C36912  -0.561   9.127   7.403  0.3329  0.0157 -0.1412
 1015MOL0     C36913  -0.561   9.198   7.266 -0.1963  0.2992 -1.0750
 1015MOL0     O36914  -0.535   9.342   7.292  0.2180 -0.6222  0.3705
 1015MOL0     C36915  -0.404   9.394   7.316  0.4547  0.0158 -0.4152
 1015MOL0     C36916  -0.389   9.532   7.353  0.3647  0.0114 -0.1307
 1015MOL0     C36917  -0.267   9.594   7.387  0.4599 -0.0805  0.9080
 1015MOL0     C36918  -0.276   9.742   7.440  0.1554  0.7493  0.5664
 1015MOL0     C36919  -0.144   9.512   7.369  0.8067 -0.6247  0.6737
 1015MOL0     C36920  -0.005   9.566   7.378 -0.3864 -0.7963 -0.5132
 1015MOL0     O36921   0.011   9.689   7.318 -0.5529 -0.3181 -0.3347
 1015MOL0     C36922   0.132   9.755   7.337  0.2962 -0.7500 -0.5919
 1015MOL0     C36923   0.228   9.736   7.440  0.1619 -1.5523 -0.9642
 1015MOL0     C36924   0.337   9.817   7.448  1.5097  0.5241 -0.6136
 1015MOL0     C36925   0.349   9.928   7.366 -0.7166  0.2764 -0.0710
 1015MOL0     O36926   0.460  10.002   7.397  0.9419 -0.9675  1.4774
 1015MOL0     C36927   0.465  10.137   7.336  0.3251  0.6234  0.3178
 1015MOL0     C36928   0.560  10.222   7.403 -0.3663 -0.8763  0.9503
 1015MOL0     C36929   0.702  10.162   7.398  0.5973  0.8460  0.0389
 1015MOL0     C36930   0.801  10.268   7.436 -0.1949  0.4951 -0.6615
 1015MOL0     C36931   0.935  10.190   7.467  0.0905  0.6629 -0.8756
 1015MOL0     C36932   0.991  10.132   7.339  0.2789  0.3028 -0.1861
 1015MOL0     C36933   1.114  10.038   7.340  0.4798 -1.0216 -0.1391
 1015MOL0     C36934   1.184  10.053   7.474 -0.4569  0.3800  0.1144
 1015MOL0    Cl36935   1.337   9.978   7.473 -0.3545  0.2741 -0.1215
 1015MOL0     C36936   0.258   9.947   7.259 -0.2396  0.1268 -0.1229
 1015MOL0     C36937   0.154   9.861   7.250  0.3532 -1.0982 -0.0077
 1015MOL0     O36938   0.085   9.491   7.400 -0.0795  0.1128 -0.5818
 1015MOL0     C36939  -0.163   9.377   7.332 -0.0880 -0.3654 -0.1313
 1015MOL0     C36940  -0.287   9.327   7.305  0.4480  0.4498  0.6552
 1015MOL0     N36941  -0.627   8.659   7.534 -0.3530  0.2636  0.7869
 1015MOL0     N36942  -0.549   8.556   7.561 -0.3463  0.2712 -0.3395
 1015MOL0     C36943   0.527   8.020   7.473  0.3111  0.2319 -1.0074
 1015MOL0     C36944   0.660   8.028   7.523  0.1224  0.4090  0.1725
 1015MOL0     C36945   1.080   8.117   7.647  0.2177 -0.1901  0.0349
 1015MOL0     C36946   1.174   8.056   7.567 -0.3568 -0.0151  0.3491
 1015MOL0     C36947   1.302   8.040   7.607 -0.0545  0.1316  0.6136
 1015MOL0     C36948   1.350   8.091   7.730 -0.0761  1.5242  0.4346
 1015MOL0     O36949   1.483   8.061   7.756 -0.1584  0.1254  0.2967
 1015MOL0     C36950   1.545   8.113   7.874 -0.3873 -0.7678  0.5386
 1015MOL0     C36951   1.696   8.073   7.872  0.8878 -0.7594 -0.2270
 1015MOL0     C36952   1.783   8.155   7.781  0.1707 -0.4815 -0.2069
 1015MOL0     C36953   1.923   8.098   7.803  1.1299  0.2208 -0.9187
 1015MOL0     C36954   2.029   8.176   7.727 -0.7568 -0.0095  0.4681
 1015MOL0     C36955   2.108   8.249   7.657 -0.5522  0.5095 -0.0180
 1015MOL0     C36956   1.262   8.153   7.816  1.4456  0.9445  0.2314
 1015MOL0     C36957   1.121   8.170   7.776 -0.5980 -0.5370  0.4529
 1015MOL0     H36958   0.821   8.162   7.257 -0.9646  0.9119  0.0240
 1015MOL0     H36959   0.580   8.137   7.159 -3.0235  0.0032  0.8387
 1015MOL0     H36960   0.285   7.909   7.363 -1.3012  0.2989  2.3839
 1015MOL0     H36961   0.231   8.062   7.428 -1.7864 -1.5181  0.1102
 1015MOL0     H36962   0.188   7.964   7.147  4.0197  2.7798  0.3850
 1015MOL0     H36963   0.070   7.934   7.285  0.3666  0.8105 -0.0848
 1015MOL0     H36964   0.150   8.230   7.220  0.9356 -0.1716 -2.6703
 1015MOL0     H36965   0.025   8.145   7.126  2.9863  0.9834 -1.5520
 1015MOL0     H36966  -0.119   8.116   7.313  0.2089 -0.4454 -0.6966
 1015MOL0     H36967  -0.001   8.160   7.440  1.3779  0.9125  0.1017
 1015MOL0     H36968  -0.008   8.396   7.321 -0.0859  0.2235 -0.5515
 1015MOL0     H36969  -0.156   8.336   7.252 -0.6408 -1.1364  1.0657
 1015MOL0     H36970  -0.249   8.278   7.475  0.9779 -2.4946 -2.3273
 1015MOL0     H36971  -0.095   8.335   7.536  0.2876 -0.3123 -1.8185
 1015MOL0     H36972  -0.161   8.576   7.480 -0.5182  0.1037  0.7118
 1015MOL0     H36973  -0.301   8.505   7.389 -2.1142  0.9204  1.4146
 1015MOL0     H36974  -0.241   8.531   7.679  0.9873  0.7389 -1.3021
 1015MOL0     H36975  -0.356   8.402   7.628  1.6297 -1.3990 -3.1606
 1015MOL0     H36976  -0.328   8.796   7.570 -0.0102  0.0340  0.5270
 1015MOL0     H36977  -0.700   8.907   7.530 -0.5867 -1.0843 -1.2941
 1015MOL0     H36978  -0.543   8.985   7.581  2.0216 -0.7420 -0.3447
 1015MOL0     H36979  -0.620   8.936   7.303  2.1171 -3.7706 -1.6784
 1015MOL0     H36980  -0.454   8.941   7.354  0.1714 -1.3643  1.7631
 1015MOL0     H36981  -0.469   9.148   7.459 -0.0388 -0.4040  0.6400
 1015MOL0     H36982  -0.650   9.163   7.456  1.3173  4.2154 -0.9440
 1015MOL0     H36983  -0.654   9.176   7.213 -0.8726  0.0736  0.1845
 1015MOL0     H36984  -0.482   9.151   7.207 -2.0957 -4.3502 -0.3196
 1015MOL0     H36985  -0.477   9.595   7.366  0.6814  1.1626 -2.8051
 1015MOL0     H36986  -0.177   9.783   7.460  1.5357 -1.3905 -1.3323
 1015MOL0     H36987  -0.329   9.801   7.365 -0.0905  1.7102  1.4679
 1015MOL0     H36988  -0.320   9.734   7.540 -0.1808 -2.7303  0.2812
 1015MOL0     H36989   0.210   9.656   7.511 -0.8468 -2.4749 -2.2014
 1015MOL0     H36990   0.404   9.799   7.531  0.7312  1.1185  0.1620
 1015MOL0     H36991   0.486  10.135   7.229 -0.5081  0.1348  0.1547
 1015MOL0     H36992   0.361  10.170   7.348 -0.4872 -1.8348  0.6737
 1015MOL0     H36993   0.570  10.317   7.349  0.9105 -2.0295 -0.9323
 1015MOL0     H36994   0.528  10.247   7.505  0.2603 -2.3696  1.5430
 1015MOL0     H36995   0.725  10.127   7.297 -1.7959 -1.1047  0.0496
 1015MOL0     H36996   0.695  10.072   7.460 -0.1092  1.6784  1.2059
 1015MOL0     H36997   0.820  10.347   7.363 -1.4409 -0.7129 -2.3884
 1015MOL0     H36998   0.768  10.325   7.523  3.3028 -0.0498  1.2369
 1015MOL0     H36999   0.913  10.114   7.543 -0.5161  0.6359 -1.0728
 1015MOL0     H37000   1.014  10.259   7.499  2.0634 -2.0420  0.5411
 1015MOL0     H37001   0.915  10.076   7.284 -1.1464  1.8839  0.0953
 1015MOL0     H37002   1.019  10.218   7.277 -0.9498 -0.0501 -1.2613
 1015MOL0     H37003   1.180  10.068   7.258  2.4109  2.5599  2.4312
 1015MOL0     H37004   1.086   9.935   7.316 -0.5218 -0.2655 -2.4833
 1015MOL0     H37005   1.127  10.006   7.556  0.2641 -1.0726 -0.1758
 1015MOL0     H37006   1.200  10.157   7.504  0.8373 -0.2058  1.6088
 1015MOL0     H37007   0.268  10.027   7.186 -0.2493  0.5536  0.3321
 1015MOL0     H37008   0.090   9.871   7.163 -0.4314  1.7665  0.8193
 1015MOL0     H37009  -0.070   9.323   7.316 -1.7803 -3.3292 -0.8134
 1015MOL0     H37010  -0.298   9.222   7.280 -0.3804  0.1714  2.0808
 1015MOL0     H37011   0.453   7.970   7.535  3.1514 -1.5833  1.1416
 1015MOL0     H37012   0.674   7.990   7.624  0.1778 -0.4959 -0.1621
 1015MOL0     H37013   1.155   8.013   7.469  2.2472  0.9765 -0.7050
 1015MOL0     H37014   1.376   7.980   7.554  1.2082 -3.1602  5.4085
 1015MOL0     H37015   1.526   8.220   7.865 -3.1614 -1.3755 -3.8075
 1015MOL0     H37016   1.493   8.070   7.960 -0.7682  0.6215  1.0366
 1015MOL0     H37017   1.701   7.967   7.845 -0.5774 -0.6480 -1.0366
 1015MOL0     H37018   1.733   8.086   7.975  1.6623  0.1081 -0.6031
 1015MOL0     H37019   1.778   8.259   7.813  1.4644 -1.2425  2.7695
 1015MOL0     H37020   1.745   8.141   7.679  1.0996  0.4292 -0.6973
 1015MOL0     H37021   1.929   7.991   7.781  0.0466  0.1592 -0.9234
 1015MOL0     H37022   1.953   8.113   7.907  2.4474 -0.3052 -1.1904
 1015MOL0     H37023   2.172   8.310   7.596  0.1453 -2.4944 -2.5318
 1015MOL0     H37024   1.299   8.184   7.913  2.6675 -0.7637  0.3662
 1015MOL0     H37025   1.048   8.219   7.841 -1.6912  0.3779 -1.3674
 1016MOL0     O37026   9.339   0.309   7.368  0.0112 -0.1452 -0.3421
 1016MOL0     C37027   9.405   0.387   7.306  0.3878 -0.6838  0.3528
 1016MOL0     O37028   9.364   0.510   7.262 -0.6602  0.0690 -0.0887
 1016MOL0     C37029   9.224   0.520   7.272  0.2998  0.7216 -0.2143
 1016MOL0     C37030   9.166   0.615   7.358  0.6150 -0.1440  0.0327
 1016MOL0     C37031   9.033   0.631   7.361  0.0791 -0.7154  0.0504
 1016MOL0     C37032   8.948   0.565   7.271  0.1594 -0.1153 -0.2361
 1016MOL0     O37033   8.819   0.603   7.289  0.1249  0.0390 -0.2897
 1016MOL0     C37034   8.715   0.519   7.234  0.0369 -0.0780  0.0239
 1016MOL0     C37035   8.579   0.565   7.267 -0.3067  0.9505  0.7591
 1016MOL0     C37036   8.473   0.463   7.235 -0.1233 -0.5647 -0.0260
 1016MOL0     C37037   8.325   0.488   7.265  0.2330  0.5148 -0.4627
 1016MOL0     C37038   8.221   0.406   7.188  0.1280 -0.0178 -0.0113
 1016MOL0     C37039   8.084   0.446   7.220  0.7083 -0.2962 -0.0576
 1016MOL0     C37040   7.974   0.373   7.145 -0.0284 -0.5677  0.0754
 1016MOL0     C37041   7.887   0.279   7.223 -0.2820  0.4237  0.5959
 1016MOL0     N37042   7.801   0.183   7.141 -0.2541  0.5598  0.6341
 1016MOL0     C37043   7.865   0.094   7.054 -0.3988  0.0674  0.1467
 1016MOL0     C37044   7.767   0.009   7.010 -0.1862  0.2036  0.1755
 1016MOL0     C37045   7.789  -0.115   6.926  0.3949  0.8232 -0.5272
 1016MOL0     C37046   7.877  -0.094   6.801  0.3342 -0.3865 -0.8545
 1016MOL0     C37047   7.891  -0.224   6.716 -0.1124 -0.4374 -1.1085
 1016MOL0     C37048   7.956  -0.178   6.589  0.4278  0.7541  0.9268
 1016MOL0     O37049   8.087  -0.145   6.606 -0.0446 -0.2868 -0.4420
 1016MOL0     C37050   8.171  -0.127   6.498  0.3072 -0.3266 -0.4524
 1016MOL0     C37051   8.128  -0.100   6.369  0.3789 -0.3185  0.4839
 1016MOL0     C37052   8.207  -0.097   6.256  0.0427 -0.5465 -0.0252
 1016MOL0     C37053   8.124  -0.057   6.132 -0.6574  0.8187 -0.3885
 1016MOL0     C37054   8.348  -0.122   6.278  0.4060  0.5152 -0.2197
 1016MOL0     C37055   8.442  -0.155   6.164  0.2773  0.1050  0.4769
 1016MOL0     O37056   8.543  -0.235   6.204 -0.1856 -0.0204 -0.5182
 1016MOL0     C37057   8.644  -0.270   6.118  0.0606 -0.6526 -0.5224
 1016MOL0     C37058   8.626  -0.331   6.003  0.5717  0.8131 -0.1741
 1016MOL0     C37059   8.725  -0.365   5.914 -0.9338 -0.9369  0.0715
 1016MOL0     C37060   8.855  -0.325   5.944  0.5901  0.6042 -0.9943
 1016MOL0     O37061   8.960  -0.323   5.857  0.3085  0.0526 -0.2544
 1016MOL0     C37062   9.012  -0.457   5.821 -1.8153 -0.7294 -0.3064
 1016MOL0     C37063   9.132  -0.436   5.718 -0.7993  0.0032 -0.8810
 1016MOL0     C37064   9.208  -0.569   5.699  0.4036  0.3351  0.1401
 1016MOL0     C37065   9.348  -0.522   5.668 -0.2752 -0.4134 -0.2306
 1016MOL0     C37066   9.412  -0.629   5.577 -0.7990  0.1173 -0.1224
 1016MOL0     C37067   9.552  -0.560   5.518 -0.2425  0.2473 -0.4521
 1016MOL0     C37068   9.624  -0.645   5.407 -0.4347 -0.4686 -0.2385
 1016MOL0     C37069   9.745  -0.574   5.348  1.3909 -0.2701 -0.7660
 1016MOL0    Cl37070   9.867  -0.531   5.474  0.3801  0.4499  0.1658
 1016MOL0     C37071   8.871  -0.247   6.058  0.4984 -0.4162  0.0548
 1016MOL0     C37072   8.772  -0.227   6.148 -0.3835 -0.3049 -0.4490
 1016MOL0     O37073   8.442  -0.096   6.054  0.8057  0.3644  0.4024
 1016MOL0     C37074   8.393  -0.150   6.414  0.2281 -0.5201  0.8856
 1016MOL0     C37075   8.302  -0.158   6.519  0.9870 -0.4654  0.1335
 1016MOL0     N37076   7.649   0.064   7.054 -0.7763 -0.0017 -0.1289
 1016MOL0     N37077   7.672   0.167   7.124 -0.2379 -0.7203 -0.9815
 1016MOL0     C37078   9.008   0.472   7.176 -0.5106  0.6744  0.3376
 1016MOL0     C37079   9.143   0.442   7.186 -0.6847  0.3144 -0.4054
 1016MOL0     C37080   9.545   0.350   7.280  0.0168  0.0472 -0.2195
 1016MOL0     C37081   9.619   0.250   7.350  0.1221 -1.0223 -0.7329
 1016MOL0     C37082   9.756   0.246   7.318  0.3563  1.2941 -0.7825
 1016MOL0     C37083   9.822   0.318   7.219  0.4592  0.3708 -0.2843
 1016MOL0     O37084   9.956   0.290   7.181 -0.2819  0.0092 -0.0622
 1016MOL0     C37085  10.027   0.377   7.094  0.5743  0.3748 -0.1138
 1016MOL0     C37086  10.036   0.296   6.961 -0.5669  1.0667  0.1289
 1016MOL0     C37087  10.179   0.330   6.889  0.1085 -0.1236 -0.0353
 1016MOL0     C37088  10.300   0.261   6.956  0.0545  0.1166 -0.0174
 1016MOL0     C37089  10.425   0.258   6.886  0.4394  0.2531 -0.0296
 1016MOL0     C37090  10.537   0.248   6.839 -0.7365 -0.7878 -0.4700
 1016MOL0     C37091   9.740   0.403   7.141 -0.0197 -0.6270  0.1112
 1016MOL0     C37092   9.606   0.425   7.180 -0.1217  0.8569  0.1995
 1016MOL0     H37093   9.233   0.678   7.416  1.5471 -0.4625 -0.6870
 1016MOL0     H37094   8.966   0.699   7.414 -2.5032 -2.1709 -1.1334
 1016MOL0     H37095   8.719   0.521   7.125 -1.1872 -0.2718 -0.0326
 1016MOL0     H37096   8.723   0.413   7.262  1.0160 -0.1258 -0.3789
 1016MOL0     H37097   8.581   0.587   7.375  0.5118  0.0448  0.9464
 1016MOL0     H37098   8.551   0.656   7.214  1.0578  1.5188  0.9687
 1016MOL0     H37099   8.485   0.426   7.133 -0.8494  0.3080 -0.4503
 1016MOL0     H37100   8.499   0.377   7.296  1.7586 -0.6222 -0.8459
 1016MOL0     H37101   8.312   0.466   7.371 -4.0833 -0.2811 -0.9748
 1016MOL0     H37102   8.288   0.588   7.242 -4.9116 -1.6300 -3.2145
 1016MOL0     H37103   8.237   0.422   7.081 -1.1705  1.9839  0.0508
 1016MOL0     H37104   8.236   0.302   7.219  2.3335  1.2652  3.9293
 1016MOL0     H37105   8.066   0.442   7.328 -1.7649 -0.7706 -0.4192
 1016MOL0     H37106   8.072   0.548   7.183 -3.5959 -0.1458  1.1827
 1016MOL0     H37107   7.904   0.440   7.096  0.1141 -0.6001 -0.1749
 1016MOL0     H37108   8.030   0.321   7.066  1.9884 -0.1400  1.1695
 1016MOL0     H37109   7.824   0.329   7.297  0.2170 -0.7265  1.8598
 1016MOL0     H37110   7.955   0.236   7.298  0.9734  0.8716 -0.2460
 1016MOL0     H37111   7.972   0.091   7.036 -0.3785 -3.2934  0.1689
 1016MOL0     H37112   7.834  -0.188   6.994  2.3092  2.2344 -0.1874
 1016MOL0     H37113   7.694  -0.147   6.884  1.3612  0.3589 -2.5257
 1016MOL0     H37114   7.975  -0.062   6.837 -0.3459 -0.6871  1.4325
 1016MOL0     H37115   7.832  -0.009   6.749 -1.2894 -1.4540 -1.2627
 1016MOL0     H37116   7.789  -0.255   6.691 -0.5280  0.4558 -0.5598
 1016MOL0     H37117   7.945  -0.305   6.766  0.0943  0.3691  0.0211
 1016MOL0     H37118   7.905  -0.094   6.541 -1.2428 -0.5062  0.4102
 1016MOL0     H37119   7.966  -0.259   6.516  1.2560  1.9977 -0.4168
 1016MOL0     H37120   8.021  -0.091   6.357  0.6044  0.8779 -0.9517
 1016MOL0     H37121   8.168  -0.105   6.043 -1.2120 -0.2771 -0.0939
 1016MOL0     H37122   8.027  -0.106   6.146 -0.1658 -0.5681 -1.5222
 1016MOL0     H37123   8.109   0.051   6.130 -0.5957  0.9195  2.2914
 1016MOL0     H37124   8.526  -0.369   5.989 -0.2394  1.0640  3.9130
 1016MOL0     H37125   8.706  -0.421   5.823  0.9967 -0.8756 -0.3918
 1016MOL0     H37126   9.056  -0.500   5.911  3.9184  1.9515 -1.3629
 1016MOL0     H37127   8.931  -0.525   5.795  1.2479 -3.5863 -3.3860
 1016MOL0     H37128   9.082  -0.411   5.624  1.8960  0.1576 -2.3756
 1016MOL0     H37129   9.193  -0.357   5.761 -0.3793 -0.9577  0.3540
 1016MOL0     H37130   9.154  -0.612   5.614 -1.3445 -0.4908  1.6002
 1016MOL0     H37131   9.207  -0.640   5.782 -2.0147  1.2693  1.0023
 1016MOL0     H37132   9.341  -0.433   5.605  0.1287  0.0362  0.3475
 1016MOL0     H37133   9.403  -0.496   5.759 -1.4588  1.0302  0.0876
 1016MOL0     H37134   9.347  -0.659   5.494 -0.7266  2.6770 -1.1954
 1016MOL0     H37135   9.423  -0.711   5.648  1.0347 -0.7172 -1.2925
 1016MOL0     H37136   9.525  -0.465   5.471  0.6312 -0.7739 -3.2302
 1016MOL0     H37137   9.621  -0.538   5.599 -0.6607 -0.0310 -0.0102
 1016MOL0     H37138   9.549  -0.680   5.335 -1.0846 -2.9919  1.5029
 1016MOL0     H37139   9.668  -0.730   5.460  1.0180  0.2632 -0.2139
 1016MOL0     H37140   9.704  -0.491   5.291  0.6228 -0.7604 -0.9516
 1016MOL0     H37141   9.787  -0.644   5.275  2.1489 -1.3309  0.6147
 1016MOL0     H37142   8.973  -0.216   6.077 -0.2664  0.7386  2.7711
 1016MOL0     H37143   8.798  -0.171   6.237 -0.2827  0.2956 -0.8508
 1016MOL0     H37144   8.492  -0.187   6.438  0.0990 -0.4103  1.5888
 1016MOL0     H37145   8.334  -0.193   6.617  0.0180  1.1252  1.0556
 1016MOL0     H37146   8.940   0.410   7.118 -0.2344  0.3467  0.3606
 1016MOL0     H37147   9.188   0.366   7.124  2.7763  1.9232 -0.0863
 1016MOL0     H37148   9.583   0.191   7.434  0.3956 -1.3022 -0.8112
 1016MOL0     H37149   9.820   0.176   7.372  1.7354  0.7181 -3.0609
 1016MOL0     H37150   9.980   0.475   7.084  0.0679  0.0909 -0.6146
 1016MOL0     H37151  10.128   0.396   7.132  0.8272 -2.0178  0.5298
 1016MOL0     H37152   9.957   0.327   6.892 -0.3364 -2.0387 -1.7234
 1016MOL0     H37153  10.020   0.189   6.978 -1.0208  1.3567  1.7368
 1016MOL0     H37154  10.184   0.438   6.902 -0.3225  0.1674 -1.9836
 1016MOL0     H37155  10.180   0.295   6.785 -0.1103  0.3606 -0.2060
 1016MOL0     H37156  10.276   0.159   6.985  0.3750  0.6036  2.1948
 1016MOL0     H37157  10.325   0.314   7.049  3.4599 -0.6502 -0.3718
 1016MOL0     H37158  10.626   0.230   6.783  1.5057 -1.7001  3.0797
 1016MOL0     H37159   9.781   0.468   7.065 -0.2507 -0.0636  0.4636
 1016MOL0     H37160   9.549   0.491   7.114  1.6783  0.9607 -1.3346
 1017MOL0     O37161   2.412   8.412   7.700  0.2298  0.1909  0.4275
 1017MOL0     C37162   2.420   8.458   7.810 -0.2642  0.7903  0.1640
 1017MOL0     O37163   2.409   8.588   7.838  0.3617  0.3368 -1.0873
 1017MOL0     C37164   2.342   8.674   7.754 -0.5244  0.8746 -0.0247
 1017MOL0     C37165   2.201   8.656   7.730  0.3881  0.1143 -0.1944
 1017MOL0     C37166   2.135   8.745   7.646  0.0139  0.4683 -0.5787
 1017MOL0     C37167   2.192   8.864   7.609  0.6556 -0.1525  0.4489
 1017MOL0     O37168   2.111   8.963   7.555 -0.0608  1.0936  0.4256
 1017MOL0     C37169   1.980   8.940   7.510  0.5204  0.1455 -0.2005
 1017MOL0     C37170   1.920   9.076   7.475 -0.8977  0.2377 -0.3487
 1017MOL0     C37171   1.765   9.066   7.439 -0.4754 -0.5484 -0.0892
 1017MOL0     C37172   1.672   9.031   7.545  0.6819  0.2687 -0.7906
 1017MOL0     C37173   1.565   8.930   7.510 -0.6773 -1.4223 -0.7375
 1017MOL0     C37174   1.468   8.981   7.407  0.1178  0.6960  0.1257
 1017MOL0     C37175   1.344   8.904   7.401  0.4395 -0.3339 -0.8795
 1017MOL0     C37176   1.264   8.963   7.282  0.0418  1.0151  0.0803
 1017MOL0     N37177   1.123   8.927   7.287 -0.8296 -0.0070 -0.3190
 1017MOL0     C37178   1.074   8.798   7.277 -0.0392 -0.0589 -0.2804
 1017MOL0     C37179   0.939   8.803   7.279  0.9285  0.1517 -0.0047
 1017MOL0     C37180   0.837   8.696   7.276  0.1594  0.4924 -0.3660
 1017MOL0     C37181   0.769   8.678   7.143  0.8066 -0.2134 -0.7406
 1017MOL0     C37182   0.675   8.793   7.098  0.4436 -0.2535  0.9526
 1017MOL0     C37183   0.532   8.747   7.135 -0.6154  0.3733 -0.3026
 1017MOL0     O37184   0.492   8.632   7.055 -0.5528 -0.7087 -0.4767
 1017MOL0     C37185   0.364   8.588   7.054 -0.5633  0.0436  0.0796
 1017MOL0     C37186   0.338   8.476   6.974 -0.0941 -0.1627  0.3894
 1017MOL0     C37187   0.210   8.430   6.945 -0.3449  0.3366  0.0915
 1017MOL0     C37188   0.208   8.323   6.840  0.2110  1.2824 -0.9199
 1017MOL0     C37189   0.095   8.487   7.021 -0.7557 -0.2965  0.0064
 1017MOL0     C37190  -0.043   8.446   6.988  0.5141 -0.4234  0.2241
 1017MOL0     O37191  -0.141   8.506   7.057 -0.2809  0.4377 -0.6409
 1017MOL0     C37192  -0.281   8.518   7.043  0.3156  0.0915 -0.1685
 1017MOL0     C37193  -0.346   8.595   7.144  0.3628 -0.6011  0.5607
 1017MOL0     C37194  -0.482   8.605   7.132 -0.3229 -0.4116  0.1279
 1017MOL0     C37195  -0.568   8.540   7.046  1.2447 -0.6820  0.1750
 1017MOL0     O37196  -0.712   8.535   7.045 -0.2661  0.2862 -0.3297
 1017MOL0     C37197  -0.781   8.581   7.159  0.3313 -0.9458 -1.2279
 1017MOL0     C37198  -0.927   8.594   7.126 -0.3676  0.0915  0.2288
 1017MOL0     C37199  -1.005   8.630   7.247  0.1134 -0.6932  0.3182
 1017MOL0     C37200  -1.157   8.602   7.217  0.5804 -0.5762  0.1989
 1017MOL0     C37201  -1.244   8.673   7.330  0.4941  0.0329  0.8703
 1017MOL0     C37202  -1.395   8.663   7.297  0.0204  0.4823 -0.3258
 1017MOL0     C37203  -1.471   8.724   7.410  0.1612 -0.8034  0.0794
 1017MOL0     C37204  -1.617   8.738   7.357  0.1377 -0.6900  0.0172
 1017MOL0    Cl37205  -1.685   8.591   7.288 -0.1463 -0.0614 -0.0289
 1017MOL0     C37206  -0.507   8.450   6.957  0.2591 -0.1993 -1.1165
 1017MOL0     C37207  -0.367   8.437   6.959 -1.0272  0.5606  0.1722
 1017MOL0     O37208  -0.070   8.372   6.889  0.0984 -0.0953 -0.0410
 1017MOL0     C37209   0.128   8.592   7.115  0.1432  0.2313  0.3143
 1017MOL0     C37210   0.259   8.648   7.122 -0.5303  0.6562 -0.1201
 1017MOL0     N37211   0.905   8.944   7.288 -0.1686 -0.0465 -0.4493
 1017MOL0     N37212   1.019   9.017   7.283 -0.1817 -0.7748  0.3834
 1017MOL0     C37213   2.329   8.886   7.638  0.6467 -0.6712  0.8580
 1017MOL0     C37214   2.403   8.792   7.700 -0.5148  0.5223  0.3381
 1017MOL0     C37215   2.469   8.370   7.920  0.3357  1.4435  0.6410
 1017MOL0     C37216   2.470   8.227   7.902 -0.6627 -0.7782  0.2883
 1017MOL0     C37217   2.517   8.141   7.995 -0.1781  0.7747 -0.0941
 1017MOL0     C37218   2.582   8.187   8.104  0.3944 -0.0325 -0.5155
 1017MOL0     O37219   2.643   8.118   8.202 -0.3532  0.5631 -0.2206
 1017MOL0     C37220   2.656   7.975   8.201 -0.2847  0.0076 -0.1143
 1017MOL0     C37221   2.745   7.909   8.313 -0.1264  0.2492 -0.0767
 1017MOL0     C37222   2.694   7.911   8.459 -0.3805  0.1840 -0.0141
 1017MOL0     C37223   2.764   7.823   8.553  0.1003 -0.4972 -0.4813
 1017MOL0     C37224   2.915   7.826   8.543 -0.1983 -0.3074  0.1380
 1017MOL0     C37225   3.031   7.828   8.563  0.0630 -0.2652  0.3429
 1017MOL0     C37226   2.578   8.323   8.132 -0.2999 -0.3062 -0.0739
 1017MOL0     C37227   2.531   8.419   8.041  0.1246  0.2962 -0.1044
 1017MOL0     H37228   2.146   8.573   7.772 -1.2800 -0.5169 -3.3282
 1017MOL0     H37229   2.028   8.727   7.641  0.2792 -1.1472 -1.1962
 1017MOL0     H37230   1.976   8.872   7.424  1.2941  1.4071 -1.2717
 1017MOL0     H37231   1.922   8.885   7.585 -0.3499 -3.0045 -2.9436
 1017MOL0     H37232   1.929   9.142   7.563 -2.6908  0.6834 -0.4623
 1017MOL0     H37233   1.981   9.116   7.393  1.5294  3.1950  2.5722
 1017MOL0     H37234   1.739   9.166   7.405  1.6353  0.5494  1.3442
 1017MOL0     H37235   1.753   9.007   7.347 -3.2134  0.0013 -0.1743
 1017MOL0     H37236   1.733   8.987   7.624  2.1115  1.3369 -1.2613
 1017MOL0     H37237   1.619   9.119   7.584  0.4263 -0.3875  0.3810
 1017MOL0     H37238   1.615   8.848   7.457  0.5951  0.7693 -3.1708
 1017MOL0     H37239   1.517   8.892   7.600 -1.1391 -2.1166 -1.2578
 1017MOL0     H37240   1.442   9.086   7.428 -0.4417 -0.2480  5.6925
 1017MOL0     H37241   1.516   8.971   7.310 -2.9119 -0.1140 -1.4309
 1017MOL0     H37242   1.380   8.803   7.381  2.6885  0.6756 -2.4591
 1017MOL0     H37243   1.282   8.909   7.491  0.3928  3.9846 -0.9228
 1017MOL0     H37244   1.306   8.920   7.190 -1.3356  0.5573 -0.3511
 1017MOL0     H37245   1.279   9.071   7.285  2.8797  0.6959  0.7219
 1017MOL0     H37246   1.135   8.710   7.265  1.2081  1.0236 -2.4263
 1017MOL0     H37247   0.887   8.600   7.292 -1.1242 -0.5772 -2.3601
 1017MOL0     H37248   0.757   8.711   7.350  1.3778  1.9247  0.7248
 1017MOL0     H37249   0.707   8.589   7.152 -1.6500  1.5537  0.9669
 1017MOL0     H37250   0.843   8.671   7.062  2.2533 -0.1763  0.5245
 1017MOL0     H37251   0.669   8.812   6.991 -1.0292  1.3848  1.2800
 1017MOL0     H37252   0.702   8.890   7.142 -1.0983  0.6298  0.0149
 1017MOL0     H37253   0.477   8.838   7.108 -1.0577  0.1362 -0.1995
 1017MOL0     H37254   0.533   8.732   7.243  1.2649 -0.3634 -0.3813
 1017MOL0     H37255   0.425   8.435   6.923 -1.1004  1.9382 -3.4689
 1017MOL0     H37256   0.143   8.246   6.883  0.7343  1.5779  0.4634
 1017MOL0     H37257   0.172   8.362   6.744  2.1705 -0.2894 -2.3881
 1017MOL0     H37258   0.303   8.276   6.814 -1.2977 -1.9920 -1.0152
 1017MOL0     H37259  -0.302   8.646   7.228 -0.4333  0.8648  0.1140
 1017MOL0     H37260  -0.526   8.683   7.192 -1.3231 -1.5710  0.9524
 1017MOL0     H37261  -0.770   8.507   7.238 -0.9058  0.7572  0.6267
 1017MOL0     H37262  -0.743   8.679   7.187  0.7971 -0.1384 -4.3088
 1017MOL0     H37263  -0.941   8.673   7.051  4.0718 -0.0807 -1.0764
 1017MOL0     H37264  -0.944   8.495   7.083  2.8472 -0.4555 -0.0821
 1017MOL0     H37265  -0.987   8.733   7.276 -0.4404 -0.3461 -0.5440
 1017MOL0     H37266  -0.972   8.564   7.328 -1.7291 -1.6575  0.3415
 1017MOL0     H37267  -1.183   8.635   7.116 -2.9647 -3.3112  0.0378
 1017MOL0     H37268  -1.167   8.494   7.230  3.3619 -1.1296 -1.3210
 1017MOL0     H37269  -1.201   8.774   7.336 -1.0593  0.7147  1.0046
 1017MOL0     H37270  -1.215   8.624   7.423  1.2755 -0.2366  0.4888
 1017MOL0     H37271  -1.423   8.722   7.209 -1.7279 -0.7783 -0.6510
 1017MOL0     H37272  -1.420   8.557   7.290  0.7146 -0.0242  2.8710
 1017MOL0     H37273  -1.449   8.830   7.429 -0.6804 -0.7627  0.8955
 1017MOL0     H37274  -1.463   8.667   7.502  2.6329  1.3220  1.3157
 1017MOL0     H37275  -1.630   8.810   7.275 -0.3751  0.0416  0.7220
 1017MOL0     H37276  -1.679   8.782   7.436 -1.3610 -0.0773 -1.4554
 1017MOL0     H37277  -0.565   8.381   6.897 -1.5310 -0.5275  0.8760
 1017MOL0     H37278  -0.311   8.364   6.901 -0.7982 -0.8343  2.0689
 1017MOL0     H37279   0.043   8.634   7.167 -0.5839  0.3740 -0.9564
 1017MOL0     H37280   0.275   8.739   7.178  1.0381 -0.1169  0.7572
 1017MOL0     H37281   2.376   8.978   7.604  0.0798  0.1871  2.2796
 1017MOL0     H37282   2.511   8.797   7.702 -0.4748  0.4804 -1.0237
 1017MOL0     H37283   2.418   8.198   7.811 -0.8452  1.2244 -0.2950
 1017MOL0     H37284   2.503   8.034   7.983  1.5831  0.3905  0.8998
 1017MOL0     H37285   2.553   7.940   8.212 -0.6594  1.6743  2.3819
 1017MOL0     H37286   2.672   7.939   8.099 -3.5498 -4.1326  0.5765
 1017MOL0     H37287   2.847   7.948   8.314  0.3824 -0.9791  2.1642
 1017MOL0     H37288   2.746   7.803   8.284 -3.2500  0.6919 -2.4504
 1017MOL0     H37289   2.588   7.885   8.464 -0.6958  1.6440  1.6382
 1017MOL0     H37290   2.701   8.011   8.501 -1.3608  0.8597 -1.3764
 1017MOL0     H37291   2.731   7.720   8.536  0.2816 -1.1593  2.5508
 1017MOL0     H37292   2.736   7.852   8.655  2.6502 -0.3006  0.2257
 1017MOL0     H37293   3.129   7.810   8.601  1.0857  4.1005  0.3013
 1017MOL0     H37294   2.625   8.357   8.223 -1.6334  0.7156  0.2641
 1017MOL0     H37295   2.556   8.522   8.062 -0.8114  0.6408 -0.5934
 1018MOL0     O37296   6.220   0.475   6.075 -0.2178 -0.0755  0.2173
 1018MOL0     C37297   6.231   0.598   6.073 -0.3846 -0.7660  0.5081
 1018MOL0     O37298   6.128   0.684   6.037  0.4949  0.2924  0.1776
 1018MOL0     C37299   6.001   0.641   5.992  0.5594 -0.4630 -1.3516
 1018MOL0     C37300   5.927   0.732   5.913 -0.4962 -0.1208 -0.0206
 1018MOL0     C37301   5.790   0.689   5.872  0.1619 -0.3450 -0.2171
 1018MOL0     C37302   5.728   0.571   5.922 -0.1295  0.0896  0.0886
 1018MOL0     O37303   5.602   0.538   5.876  0.3457  0.2473  0.1879
 1018MOL0     C37304   5.580   0.393   5.861 -0.9107  0.0725 -0.0052
 1018MOL0     C37305   5.473   0.366   5.756 -0.5525 -0.4416  0.1784
 1018MOL0     C37306   5.521   0.367   5.613 -0.1559  0.1705 -0.2429
 1018MOL0     C37307   5.428   0.315   5.517 -0.8082  0.4958 -0.0840
 1018MOL0     C37308   5.462   0.339   5.367  0.4903  0.2003 -0.1286
 1018MOL0     C37309   5.334   0.332   5.274  0.1761  0.7915  0.0734
 1018MOL0     C37310   5.354   0.375   5.128 -0.7173  0.1374 -0.0526
 1018MOL0     C37311   5.224   0.405   5.061 -0.8935 -0.5591  0.3279
 1018MOL0     N37312   5.247   0.430   4.919 -0.2481  0.1729  0.6762
 1018MOL0     C37313   5.312   0.354   4.823  0.2395  1.2853 -0.0874
 1018MOL0     C37314   5.295   0.427   4.706 -0.8279  1.2665 -0.2920
 1018MOL0     C37315   5.354   0.389   4.576  0.5864 -0.7872 -1.3381
 1018MOL0     C37316   5.286   0.459   4.464  0.2771  0.0139  0.3372
 1018MOL0     C37317   5.335   0.395   4.341 -0.1482  0.1602  1.0485
 1018MOL0     C37318   5.248   0.437   4.214 -0.1942 -0.1281 -0.1015
 1018MOL0     O37319   5.261   0.579   4.179 -0.5330 -0.0465 -0.0508
 1018MOL0     C37320   5.168   0.609   4.087  0.1933 -0.4039 -0.0312
 1018MOL0     C37321   5.203   0.637   3.953 -0.0833  0.1220  0.5920
 1018MOL0     C37322   5.102   0.667   3.858  0.3869  0.0315 -0.6261
 1018MOL0     C37323   5.162   0.737   3.732 -0.0646 -0.4468 -0.1282
 1018MOL0     C37324   4.965   0.660   3.887 -0.2592 -0.9884  0.3226
 1018MOL0     C37325   4.850   0.678   3.797 -0.1577  0.7918 -0.3954
 1018MOL0     O37326   4.730   0.731   3.848 -0.1009 -0.2547  0.9447
 1018MOL0     C37327   4.628   0.770   3.758  0.5025 -1.9781 -0.2377
 1018MOL0     C37328   4.586   0.691   3.647 -0.1641 -0.6842  0.3085
 1018MOL0     C37329   4.497   0.750   3.557  0.3376  0.3247  0.5425
 1018MOL0     C37330   4.425   0.870   3.591 -0.4614 -1.4623  0.1411
 1018MOL0     O37331   4.328   0.925   3.516  0.0255  0.0161  0.3788
 1018MOL0     C37332   4.257   0.837   3.434 -0.1798  0.7143  0.4936
 1018MOL0     C37333   4.176   0.918   3.331 -0.6256 -0.4940 -0.6909
 1018MOL0     C37334   4.059   0.988   3.390  0.0627  0.2751 -0.5979
 1018MOL0     C37335   3.968   1.045   3.286 -0.2746 -0.1617  0.0291
 1018MOL0     C37336   3.840   1.091   3.357 -0.4155 -0.2475 -0.6496
 1018MOL0     C37337   3.720   1.094   3.266 -0.8582  0.4009  0.3811
 1018MOL0     C37338   3.601   1.152   3.335 -0.0387  0.3055  0.5055
 1018MOL0     C37339   3.493   1.185   3.240 -0.4705  0.7067  0.3259
 1018MOL0    Cl37340   3.344   1.225   3.336  0.3221 -0.2431 -0.2150
 1018MOL0     C37341   4.452   0.933   3.704  0.2400  0.5828 -0.3035
 1018MOL0     C37342   4.557   0.888   3.793 -0.6961 -0.0657  0.5068
 1018MOL0     O37343   4.871   0.651   3.678  0.6292  0.0438  0.1963
 1018MOL0     C37344   4.936   0.632   4.018 -0.7874  0.1225  0.3688
 1018MOL0     C37345   5.030   0.621   4.119 -0.1706  0.9028 -0.2953
 1018MOL0     N37346   5.231   0.544   4.737  0.6843  0.1224  0.2305
 1018MOL0     N37347   5.188   0.540   4.861 -0.7577 -1.2185  0.5224
 1018MOL0     C37348   5.803   0.493   6.016  0.2972  0.1200  0.4045
 1018MOL0     C37349   5.932   0.531   6.044 -0.3395 -0.1298 -0.8132
 1018MOL0     C37350   6.361   0.663   6.106  0.2211 -0.0011 -0.0729
 1018MOL0     C37351   6.477   0.596   6.142  0.5342 -0.4486  0.0248
 1018MOL0     C37352   6.590   0.652   6.194  0.0402  0.6370  0.1534
 1018MOL0     C37353   6.610   0.787   6.211  0.8186  0.5402 -0.4699
 1018MOL0     O37354   6.714   0.840   6.288  0.2106  0.3494  0.3060
 1018MOL0     C37355   6.785   0.745   6.370  0.3132  0.8567 -0.1198
 1018MOL0     C37356   6.873   0.832   6.468  0.0870  0.3510  0.1445
 1018MOL0     C37357   6.988   0.892   6.390  0.6950 -0.0990  0.3505
 1018MOL0     C37358   7.117   0.929   6.462  0.6510  0.7433 -0.0533
 1018MOL0     C37359   7.100   1.055   6.540  0.6467 -0.5960  0.0528
 1018MOL0     C37360   7.066   1.159   6.600  0.9889  0.7043 -0.1010
 1018MOL0     C37361   6.511   0.865   6.155 -0.9514  0.3333 -0.1270
 1018MOL0     C37362   6.383   0.805   6.111  0.5462  0.0193  0.6015
 1018MOL0     H37363   5.966   0.826   5.876  3.2241 -0.8581  1.6034
 1018MOL0     H37364   5.724   0.753   5.815  0.7503  0.3187 -0.1669
 1018MOL0     H37365   5.671   0.336   5.838 -1.6383 -1.7806  1.4624
 1018MOL0     H37366   5.549   0.348   5.955  2.5468  0.3735  1.4351
 1018MOL0     H37367   5.433   0.269   5.788 -1.3124 -1.0903 -2.5283
 1018MOL0     H37368   5.396   0.444   5.767 -0.3536 -0.1201 -0.6378
 1018MOL0     H37369   5.544   0.470   5.585 -1.1815  0.5032  0.0915
 1018MOL0     H37370   5.609   0.302   5.601  0.1873  0.1373  1.8990
 1018MOL0     H37371   5.431   0.210   5.548 -0.7641  0.9601  1.5622
 1018MOL0     H37372   5.328   0.360   5.522 -0.0966  2.1097  0.2356
 1018MOL0     H37373   5.510   0.438   5.368 -0.8778  0.8827  0.7139
 1018MOL0     H37374   5.541   0.271   5.333  0.0975 -1.5377  2.1991
 1018MOL0     H37375   5.309   0.227   5.260 -0.9301  1.3631 -3.0212
 1018MOL0     H37376   5.253   0.391   5.318  0.6716 -0.2586  2.6177
 1018MOL0     H37377   5.402   0.474   5.123 -0.7757  0.1210 -1.4333
 1018MOL0     H37378   5.409   0.296   5.076 -0.4676  0.3326 -0.0895
 1018MOL0     H37379   5.175   0.491   5.105  1.8480  0.7378  1.0852
 1018MOL0     H37380   5.166   0.314   5.081 -0.1344 -1.0690  0.2670
 1018MOL0     H37381   5.360   0.257   4.834 -0.7569  0.9003  1.1997
 1018MOL0     H37382   5.463   0.391   4.571  0.6736 -2.2939 -0.6649
 1018MOL0     H37383   5.318   0.286   4.572 -1.6462 -0.3889  2.8805
 1018MOL0     H37384   5.305   0.567   4.462  1.5348 -0.1966  0.0209
 1018MOL0     H37385   5.179   0.458   4.486 -0.8583 -0.4898 -4.2476
 1018MOL0     H37386   5.324   0.287   4.353  2.4866 -0.1219  1.5353
 1018MOL0     H37387   5.443   0.402   4.324  0.4153 -4.9864  0.8937
 1018MOL0     H37388   5.147   0.398   4.230 -0.1799 -0.0412  0.2008
 1018MOL0     H37389   5.295   0.383   4.131  1.3030 -0.1034  0.6995
 1018MOL0     H37390   5.308   0.642   3.929 -0.0728  0.7982  0.7596
 1018MOL0     H37391   5.091   0.738   3.649 -0.3204 -0.7541  0.0848
 1018MOL0     H37392   5.190   0.838   3.764 -0.4942 -0.9992  2.1701
 1018MOL0     H37393   5.243   0.671   3.700  0.2815  1.0028 -2.4502
 1018MOL0     H37394   4.628   0.593   3.626 -0.4879 -0.6792 -0.3551
 1018MOL0     H37395   4.487   0.694   3.465  1.3546 -0.7251  1.0498
 1018MOL0     H37396   4.320   0.779   3.367 -1.8270  1.0009 -1.3819
 1018MOL0     H37397   4.193   0.772   3.494  1.2948 -0.2557  1.0851
 1018MOL0     H37398   4.221   1.000   3.274 -0.7641 -0.5764 -0.9245
 1018MOL0     H37399   4.136   0.847   3.257  0.0646 -1.2913 -0.3172
 1018MOL0     H37400   4.094   1.061   3.464 -0.9540  0.8117 -0.6408
 1018MOL0     H37401   4.002   0.909   3.438 -0.2205  0.5823 -0.4273
 1018MOL0     H37402   4.015   1.136   3.247  3.3398 -1.7496  0.3159
 1018MOL0     H37403   3.952   0.974   3.204  0.6803 -0.2551 -0.0820
 1018MOL0     H37404   3.859   1.190   3.399 -3.1527 -0.4544  1.3387
 1018MOL0     H37405   3.815   1.031   3.445 -1.7302 -0.7877 -1.3624
 1018MOL0     H37406   3.742   1.149   3.174 -1.0602 -0.1749 -0.0235
 1018MOL0     H37407   3.691   0.991   3.240 -1.9392  0.7538  0.1476
 1018MOL0     H37408   3.619   1.246   3.387 -1.8821  0.6703  0.5602
 1018MOL0     H37409   3.578   1.079   3.413  1.4975 -2.1310 -1.1550
 1018MOL0     H37410   3.475   1.108   3.165  2.1032  2.3455 -2.2000
 1018MOL0     H37411   3.510   1.277   3.183 -2.7806  1.1481  0.2821
 1018MOL0     H37412   4.401   1.023   3.736  1.1001  1.0577 -0.2563
 1018MOL0     H37413   4.596   0.952   3.871  1.0250 -1.1213  0.5510
 1018MOL0     H37414   4.831   0.616   4.038 -1.0666  1.3485 -0.0529
 1018MOL0     H37415   5.005   0.614   4.224  2.8555  1.6265  0.5670
 1018MOL0     H37416   5.759   0.409   6.069 -1.0006  0.3528 -0.2840
 1018MOL0     H37417   5.978   0.480   6.129 -2.3641  1.8475  1.6179
 1018MOL0     H37418   6.470   0.490   6.124 -1.0656 -1.4972  5.1132
 1018MOL0     H37419   6.675   0.586   6.208  0.0330  0.5497 -0.2108
 1018MOL0     H37420   6.734   0.671   6.432  0.8494  2.6530  2.6113
 1018MOL0     H37421   6.852   0.690   6.303 -2.0804  0.2879 -2.2197
 1018MOL0     H37422   6.906   0.770   6.552 -3.9796 -1.9619  0.3213
 1018MOL0     H37423   6.807   0.903   6.519  2.5595  2.5402  0.5050
 1018MOL0     H37424   6.945   0.978   6.338  0.1577  1.2148  2.8362
 1018MOL0     H37425   7.020   0.812   6.322 -1.5405  1.2025 -2.4602
 1018MOL0     H37426   7.189   0.950   6.383  1.6134  1.8339  1.0820
 1018MOL0     H37427   7.151   0.849   6.529  2.7162  2.2428  0.7807
 1018MOL0     H37428   7.022   1.235   6.662 -0.6914 -0.1476 -0.1939
 1018MOL0     H37429   6.521   0.973   6.148 -0.9203  0.3979  0.8052
 1018MOL0     H37430   6.305   0.864   6.064  0.8988 -0.4973 -0.6691
 1019MOL0     O37431   6.085   3.498   7.008 -0.4631  0.5928 -0.3078
 1019MOL0     C37432   5.986   3.557   7.047  0.1310 -0.5687  0.6196
 1019MOL0     O37433   5.857   3.545   7.004 -0.8757  0.5777 -0.2134
 1019MOL0     C37434   5.800   3.443   6.933 -0.4302 -0.2138  0.3095
 1019MOL0     C37435   5.864   3.323   6.899 -0.7163  0.2933 -0.5094
 1019MOL0     C37436   5.812   3.225   6.816  0.1992 -0.3975 -0.0134
 1019MOL0     C37437   5.682   3.254   6.758  0.0240  0.1913 -0.7534
 1019MOL0     O37438   5.617   3.169   6.670 -0.0935  0.3085 -0.5214
 1019MOL0     C37439   5.678   3.050   6.623  0.2769 -0.5361 -0.2221
 1019MOL0     C37440   5.561   2.963   6.580  0.2541  0.5656  0.3338
 1019MOL0     C37441   5.603   2.828   6.518  0.8364  0.8907 -0.4668
 1019MOL0     C37442   5.485   2.755   6.472  0.3327 -0.1954 -0.4256
 1019MOL0     C37443   5.539   2.679   6.343  0.2345 -0.1640  0.3320
 1019MOL0     C37444   5.450   2.588   6.269  0.2201  1.1579 -0.4785
 1019MOL0     C37445   5.532   2.527   6.157 -0.2621  0.6679  0.0783
 1019MOL0     C37446   5.477   2.384   6.132  0.0642 -1.4859  1.0400
 1019MOL0     N37447   5.530   2.314   6.013 -0.6278 -0.3075 -0.0935
 1019MOL0     C37448   5.520   2.182   5.978 -0.6927  0.0361 -0.5683
 1019MOL0     C37449   5.591   2.140   5.878  0.9493 -1.1244 -0.2759
 1019MOL0     C37450   5.621   2.010   5.811  0.6344  0.4119 -0.5609
 1019MOL0     C37451   5.502   1.920   5.811 -1.0944 -0.2052  0.7674
 1019MOL0     C37452   5.389   1.971   5.713 -0.4923 -0.7609 -0.5283
 1019MOL0     C37453   5.273   2.045   5.790  0.4785 -0.2425 -0.1954
 1019MOL0     O37454   5.206   1.969   5.890 -0.6042  0.0812  0.0835
 1019MOL0     C37455   5.087   2.026   5.921 -0.8585  0.0367 -0.2372
 1019MOL0     C37456   4.977   1.939   5.924  0.1799  0.3843 -0.2216
 1019MOL0     C37457   4.851   1.985   5.963 -0.5952 -0.0219 -0.4312
 1019MOL0     C37458   4.744   1.881   5.961  0.3747 -0.2624  0.2612
 1019MOL0     C37459   4.830   2.127   5.995 -0.3693 -0.3557 -0.0209
 1019MOL0     C37460   4.697   2.191   6.035 -0.1247  1.6058 -0.5981
 1019MOL0     O37461   4.587   2.115   6.006  0.3588 -0.7167  0.0092
 1019MOL0     C37462   4.459   2.164   6.032  0.0403 -0.0269  0.2013
 1019MOL0     C37463   4.394   2.096   6.129  0.5026  0.4248 -0.2284
 1019MOL0     C37464   4.261   2.139   6.159 -0.3474  1.0250  0.6173
 1019MOL0     C37465   4.206   2.257   6.109 -0.0582  0.0802 -0.5687
 1019MOL0     O37466   4.077   2.290   6.149 -0.3133  0.1954 -0.4295
 1019MOL0     C37467   4.021   2.415   6.120 -0.3825  0.7484  0.4468
 1019MOL0     C37468   3.902   2.415   6.211  0.7802 -0.0287  0.2625
 1019MOL0     C37469   3.822   2.544   6.191  0.5712  0.1647  0.2828
 1019MOL0     C37470   3.706   2.562   6.289 -1.2263  0.1152 -0.6046
 1019MOL0     C37471   3.603   2.655   6.224  0.2581 -0.0864  0.2363
 1019MOL0     C37472   3.482   2.693   6.312  0.0253 -0.4141 -0.3789
 1019MOL0     C37473   3.406   2.822   6.263 -0.3385  0.6765 -0.0414
 1019MOL0     C37474   3.319   2.904   6.353 -0.2102 -0.4501 -0.1228
 1019MOL0    Cl37475   3.427   2.999   6.470 -0.1821  0.6827 -0.3256
 1019MOL0     C37476   4.285   2.331   6.016 -0.8076 -0.8442  0.1390
 1019MOL0     C37477   4.407   2.278   5.968  0.8004 -0.0817 -0.0889
 1019MOL0     O37478   4.701   2.292   6.109 -0.0991 -0.2683  0.5743
 1019MOL0     C37479   4.949   2.209   5.980  1.3437 -0.3380 -0.4868
 1019MOL0     C37480   5.078   2.159   5.960  0.8053  0.3894 -0.2328
 1019MOL0     N37481   5.677   2.253   5.846  0.2365 -0.0304 -1.4993
 1019MOL0     N37482   5.638   2.355   5.923  0.5319  0.0546  0.5317
 1019MOL0     C37483   5.605   3.371   6.799 -0.4704  0.8140 -0.7344
 1019MOL0     C37484   5.668   3.454   6.887 -0.4776 -0.6147 -0.4015
 1019MOL0     C37485   6.002   3.662   7.149  1.0056 -0.0981  0.2742
 1019MOL0     C37486   5.888   3.738   7.202 -0.7796 -0.1709 -0.1813
 1019MOL0     C37487   5.914   3.822   7.311 -0.3518 -0.1646 -0.3380
 1019MOL0     C37488   6.037   3.843   7.362 -0.6777  0.4397 -0.9030
 1019MOL0     O37489   6.046   3.919   7.470 -0.4595 -0.7217  0.3271
 1019MOL0     C37490   6.161   3.996   7.496 -0.4662 -0.2311 -0.8031
 1019MOL0     C37491   6.217   3.949   7.638 -0.0109  0.6275  0.6773
 1019MOL0     C37492   6.337   4.028   7.677  0.3640  0.2439  0.3540
 1019MOL0     C37493   6.319   4.169   7.743  0.0990 -0.8963  0.2432
 1019MOL0     C37494   6.449   4.235   7.755 -0.9822  0.1046  0.1676
 1019MOL0     C37495   6.565   4.273   7.758  0.3822 -0.6757 -0.1413
 1019MOL0     C37496   6.137   3.769   7.304 -0.0520  0.0379 -0.3294
 1019MOL0     C37497   6.127   3.684   7.203 -0.9972  0.0844 -0.0691
 1019MOL0     H37498   5.963   3.311   6.941 -0.4775  0.4185 -1.0296
 1019MOL0     H37499   5.867   3.139   6.779 -3.5077 -1.5895 -3.5143
 1019MOL0     H37500   5.752   3.075   6.546 -0.9853  0.2915 -1.2032
 1019MOL0     H37501   5.729   2.983   6.692 -1.0350 -2.6480 -1.1870
 1019MOL0     H37502   5.501   2.934   6.666 -3.2110  3.6881 -0.7578
 1019MOL0     H37503   5.498   3.020   6.511 -1.2888  0.3323  1.4954
 1019MOL0     H37504   5.674   2.847   6.437  0.3968 -1.1099 -1.3650
 1019MOL0     H37505   5.650   2.766   6.595  0.8233  1.8280  0.3245
 1019MOL0     H37506   5.447   2.685   6.547  0.9279 -0.2071 -0.1272
 1019MOL0     H37507   5.397   2.815   6.447 -0.7636 -0.5311  2.2322
 1019MOL0     H37508   5.573   2.757   6.274  2.9484 -0.9075  0.6895
 1019MOL0     H37509   5.626   2.620   6.375  0.3950  0.1699  0.5264
 1019MOL0     H37510   5.411   2.512   6.338 -4.8809  2.1075 -1.9137
 1019MOL0     H37511   5.368   2.646   6.228  0.1786 -0.1882 -2.4144
 1019MOL0     H37512   5.524   2.580   6.061 -2.1717 -1.0062 -0.7485
 1019MOL0     H37513   5.639   2.516   6.174 -0.1333  1.5209 -0.1030
 1019MOL0     H37514   5.369   2.398   6.123  0.3373  0.4747  0.4148
 1019MOL0     H37515   5.495   2.323   6.221 -3.5958  0.0711  3.1079
 1019MOL0     H37516   5.450   2.104   6.007 -1.7552  2.0390  2.7868
 1019MOL0     H37517   5.661   2.035   5.713 -2.6959  1.5780 -1.7577
 1019MOL0     H37518   5.700   1.967   5.874  2.4730  1.8039 -1.8179
 1019MOL0     H37519   5.479   1.890   5.914  0.5772 -0.2897  1.1374
 1019MOL0     H37520   5.548   1.829   5.773  2.6127  2.2217 -1.1345
 1019MOL0     H37521   5.339   1.893   5.655  0.3331 -1.4620 -0.3251
 1019MOL0     H37522   5.434   2.042   5.642 -0.3808  1.3383  1.4984
 1019MOL0     H37523   5.198   2.054   5.711  0.9607  0.1251 -0.6130
 1019MOL0     H37524   5.316   2.135   5.837 -0.5811 -0.6132  1.5820
 1019MOL0     H37525   4.984   1.839   5.881 -1.3010  0.3388 -0.3810
 1019MOL0     H37526   4.783   1.781   5.940 -1.8847 -1.7655  2.5403
 1019MOL0     H37527   4.689   1.873   6.055 -3.8280  1.3499 -1.7999
 1019MOL0     H37528   4.664   1.894   5.887 -0.0664 -0.7937  0.6321
 1019MOL0     H37529   4.441   2.008   6.172 -2.8279 -1.9397 -0.9717
 1019MOL0     H37530   4.215   2.081   6.238  2.6702  1.3222  2.7803
 1019MOL0     H37531   4.088   2.497   6.145  1.0227 -0.4804  0.8329
 1019MOL0     H37532   3.991   2.424   6.015  2.8504  1.3465 -0.5385
 1019MOL0     H37533   3.840   2.327   6.191  0.2797  0.4645 -0.4084
 1019MOL0     H37534   3.936   2.417   6.315  1.7081  0.0529 -0.0419
 1019MOL0     H37535   3.777   2.552   6.091  1.3023  3.8958  0.0917
 1019MOL0     H37536   3.888   2.631   6.187  0.9583 -0.1464 -0.4458
 1019MOL0     H37537   3.662   2.467   6.320 -1.1004 -0.1314 -1.1720
 1019MOL0     H37538   3.740   2.608   6.382  0.6700  0.5642 -1.4706
 1019MOL0     H37539   3.559   2.605   6.137  1.3772 -4.7984  2.0369
 1019MOL0     H37540   3.655   2.745   6.191 -1.5367  1.2870  1.0435
 1019MOL0     H37541   3.406   2.614   6.317  0.4079 -0.9719 -2.5727
 1019MOL0     H37542   3.514   2.719   6.414  0.0880  0.1348 -0.5341
 1019MOL0     H37543   3.342   2.777   6.186  2.6171 -2.5781 -0.8223
 1019MOL0     H37544   3.475   2.895   6.220 -1.7540  1.4315 -1.1412
 1019MOL0     H37545   3.249   2.839   6.406  0.7980 -1.5127 -0.0620
 1019MOL0     H37546   3.264   2.974   6.289 -1.9999 -0.8008  0.9641
 1019MOL0     H37547   4.252   2.429   5.984  4.0831  0.2336 -2.6162
 1019MOL0     H37548   4.461   2.332   5.890 -1.1924 -0.0431 -1.5264
 1019MOL0     H37549   4.922   2.314   5.991 -0.4231 -0.8759  0.8584
 1019MOL0     H37550   5.160   2.229   5.972 -2.1582  4.0526  0.7147
 1019MOL0     H37551   5.510   3.398   6.754 -2.1229 -0.9828  1.4095
 1019MOL0     H37552   5.617   3.550   6.895  1.8223  0.9783 -2.7886
 1019MOL0     H37553   5.792   3.739   7.151 -1.6084  1.5727  1.2983
 1019MOL0     H37554   5.842   3.893   7.351 -0.3196 -0.1386 -0.3267
 1019MOL0     H37555   6.236   3.984   7.417 -0.9339  1.4905 -1.5628
 1019MOL0     H37556   6.138   4.103   7.502  0.0660 -0.0955 -1.0438
 1019MOL0     H37557   6.256   3.847   7.633  0.1041  0.7219 -0.3713
 1019MOL0     H37558   6.132   3.959   7.707 -0.4407  0.5530  0.1690
 1019MOL0     H37559   6.404   4.034   7.591 -0.5841 -0.1371 -0.4350
 1019MOL0     H37560   6.399   3.970   7.746  0.0016 -1.4400 -0.6749
 1019MOL0     H37561   6.281   4.162   7.845 -0.4044  0.0410  0.1305
 1019MOL0     H37562   6.257   4.240   7.688  0.1927  0.2530  1.5624
 1019MOL0     H37563   6.667   4.304   7.770  0.3375  0.3389 -2.0136
 1019MOL0     H37564   6.240   3.778   7.339  0.0599  3.8868 -1.2091
 1019MOL0     H37565   6.213   3.633   7.160 -1.8109 -1.2958 -0.1129
 1020MOL0     O37566   1.675   8.989   4.178 -0.3382  0.4120  0.4407
 1020MOL0     C37567   1.741   8.989   4.074  0.4660  0.6709  0.1798
 1020MOL0     O37568   1.683   8.975   3.948 -0.4347  0.0746 -0.1653
 1020MOL0     C37569   1.549   8.979   3.932  0.4126  0.2287  0.4858
 1020MOL0     C37570   1.480   8.866   3.891  1.1341  0.0251  0.1933
 1020MOL0     C37571   1.333   8.871   3.896 -0.2324  0.2915  1.1235
 1020MOL0     C37572   1.264   8.990   3.916  0.1711  0.5608  0.6064
 1020MOL0     O37573   1.124   8.992   3.916  0.2283  0.1034 -0.0702
 1020MOL0     C37574   1.050   9.116   3.906 -0.8973  0.1714 -0.2583
 1020MOL0     C37575   0.905   9.089   3.894  0.1569  0.1585  0.6671
 1020MOL0     C37576   0.867   9.036   3.764  0.4332 -0.1740  0.6593
 1020MOL0     C37577   0.719   9.033   3.760 -0.4607  0.0032  0.3438
 1020MOL0     C37578   0.676   9.031   3.616 -0.1724  0.4365  0.4320
 1020MOL0     C37579   0.534   9.001   3.582 -0.3887  0.1150  0.0345
 1020MOL0     C37580   0.496   9.032   3.436 -0.2811  0.5165 -0.0612
 1020MOL0     C37581   0.351   8.990   3.397 -0.0034 -1.2058 -0.3867
 1020MOL0     N37582   0.250   9.092   3.441  0.3183  0.4629 -0.2331
 1020MOL0     C37583   0.259   9.231   3.427  0.5568 -0.1332  0.4857
 1020MOL0     C37584   0.138   9.289   3.464  1.0891  0.0113 -0.4798
 1020MOL0     C37585   0.097   9.437   3.467 -0.1525 -0.1768  0.3801
 1020MOL0     C37586  -0.040   9.468   3.529 -0.9971  0.4271 -0.1315
 1020MOL0     C37587  -0.064   9.616   3.554 -0.4149 -0.1579 -0.8669
 1020MOL0     C37588  -0.088   9.706   3.428  0.0493 -0.3917  0.2536
 1020MOL0     O37589  -0.208   9.669   3.372 -0.1380 -0.4536  0.4570
 1020MOL0     C37590  -0.298   9.768   3.334  0.5766 -0.1831  0.5166
 1020MOL0     C37591  -0.432   9.736   3.294 -0.0851  0.0872  0.4343
 1020MOL0     C37592  -0.523   9.832   3.255  0.4741  0.1588  0.5557
 1020MOL0     C37593  -0.666   9.783   3.227  0.0317  0.1271 -0.4697
 1020MOL0     C37594  -0.489   9.965   3.266 -0.2637  0.0118  0.4262
 1020MOL0     C37595  -0.586  10.072   3.232 -0.0261 -0.6350 -0.0166
 1020MOL0     O37596  -0.520  10.191   3.208  0.0940  0.5372 -0.1792
 1020MOL0     C37597  -0.588  10.302   3.161  0.6319 -0.0192 -0.7711
 1020MOL0     C37598  -0.500  10.398   3.116 -0.1133 -0.6200  0.3164
 1020MOL0     C37599  -0.541  10.518   3.056  0.0434  0.2652 -0.3499
 1020MOL0     C37600  -0.680  10.545   3.051 -0.0062 -0.2433  0.8661
 1020MOL0     O37601  -0.729  10.656   2.990  0.4717  0.9460 -0.1955
 1020MOL0     C37602  -0.718  10.773   3.075 -0.1904 -0.3264 -0.0116
 1020MOL0     C37603  -0.826  10.880   3.044 -0.1013  0.0095  0.3103
 1020MOL0     C37604  -0.971  10.846   3.070  0.4535  0.5877  0.0155
 1020MOL0     C37605  -0.993  10.782   3.210  0.3236 -0.0659 -0.0886
 1020MOL0     C37606  -1.141  10.771   3.243 -1.0152  0.3801 -0.7805
 1020MOL0     C37607  -1.194  10.626   3.236 -0.2091  0.7366 -0.2070
 1020MOL0     C37608  -1.174  10.529   3.364 -0.7749  0.0359  1.1896
 1020MOL0     C37609  -1.055  10.434   3.330  0.7982 -0.6723  0.0351
 1020MOL0    Cl37610  -1.053  10.300   3.436  0.1890 -0.0338  0.0743
 1020MOL0     C37611  -0.769  10.453   3.101  0.4975  0.1228 -0.0682
 1020MOL0     C37612  -0.730  10.334   3.154 -0.7388  0.0957 -0.3290
 1020MOL0     O37613  -0.708  10.050   3.215  0.0294  0.5289  0.2191
 1020MOL0     C37614  -0.360   9.996   3.290  0.2899 -0.7195  0.6070
 1020MOL0     C37615  -0.263   9.904   3.313  0.6887  0.1096 -0.8344
 1020MOL0     N37616   0.056   9.185   3.501 -0.2589 -0.2246  0.0122
 1020MOL0     N37617   0.122   9.071   3.482  0.2113 -0.3468  0.6727
 1020MOL0     C37618   1.343   9.103   3.940 -1.1417  0.1959 -0.5906
 1020MOL0     C37619   1.486   9.102   3.945 -0.0701  0.5221  0.2723
 1020MOL0     C37620   1.884   8.991   4.074  0.2023  1.1170  0.3006
 1020MOL0     C37621   1.954   9.044   4.183  0.0730 -1.2491 -0.2523
 1020MOL0     C37622   2.090   9.026   4.191  0.2143 -0.6910  0.1984
 1020MOL0     C37623   2.167   8.949   4.100  0.4925  0.3334  0.7724
 1020MOL0     O37624   2.307   8.946   4.115 -0.2985 -0.5309  0.1805
 1020MOL0     C37625   2.385   8.843   4.055 -0.5979  0.1089 -0.5683
 1020MOL0     C37626   2.367   8.702   4.116 -0.3131  0.0349 -0.1953
 1020MOL0     C37627   2.477   8.609   4.049  0.0891 -0.4898 -0.0502
 1020MOL0     C37628   2.508   8.622   3.898 -0.0840 -0.3414 -0.0772
 1020MOL0     C37629   2.394   8.628   3.815  0.9212  0.5204  0.8589
 1020MOL0     C37630   2.290   8.621   3.759  0.2080 -0.3719  0.3789
 1020MOL0     C37631   2.095   8.885   3.993 -0.8373 -0.3886 -0.2558
 1020MOL0     C37632   1.961   8.920   3.974 -0.3642  0.7035 -0.5110
 1020MOL0     H37633   1.519   8.765   3.880 -1.0939 -0.7757 -0.8434
 1020MOL0     H37634   1.271   8.784   3.880  0.2835 -0.0600  1.0376
 1020MOL0     H37635   1.063   9.165   4.003  0.3968 -0.9137  0.1468
 1020MOL0     H37636   1.084   9.173   3.819  1.1625  0.4648  0.6720
 1020MOL0     H37637   0.883   9.015   3.972  4.4599 -1.4809  0.5613
 1020MOL0     H37638   0.851   9.184   3.905  0.1093  0.1255  0.7213
 1020MOL0     H37639   0.899   9.099   3.681 -1.3518  0.7719  0.6387
 1020MOL0     H37640   0.909   8.936   3.751  0.8780  0.1414 -0.4826
 1020MOL0     H37641   0.684   8.940   3.805  0.9892 -1.2739 -1.0614
 1020MOL0     H37642   0.673   9.116   3.815  2.0253  2.5176 -1.0777
 1020MOL0     H37643   0.700   9.123   3.563  2.5726 -0.6528 -0.3618
 1020MOL0     H37644   0.732   8.949   3.569 -1.6463  0.1779 -1.0063
 1020MOL0     H37645   0.509   8.895   3.596  2.4825 -0.4674  1.7398
 1020MOL0     H37646   0.479   9.062   3.653  0.8220 -0.6822  1.7234
 1020MOL0     H37647   0.522   9.135   3.411  0.7179  0.4842  0.7931
 1020MOL0     H37648   0.558   8.968   3.374 -0.3861  0.8301 -0.4957
 1020MOL0     H37649   0.320   8.891   3.433  0.7607 -1.2255  0.2553
 1020MOL0     H37650   0.349   8.991   3.288  1.0431 -0.1065 -0.4130
 1020MOL0     H37651   0.346   9.292   3.404 -0.6161  2.2809  1.9533
 1020MOL0     H37652   0.180   9.484   3.521  0.5687  2.3796 -2.6862
 1020MOL0     H37653   0.101   9.479   3.366 -0.2394 -3.1999 -0.9865
 1020MOL0     H37654  -0.062   9.410   3.619 -1.6629  0.6686 -0.1338
 1020MOL0     H37655  -0.113   9.431   3.456  0.4250 -1.4943 -0.6511
 1020MOL0     H37656   0.024   9.659   3.602  1.9312 -3.9225 -1.4217
 1020MOL0     H37657  -0.143   9.631   3.628  2.5820 -2.8937  3.3243
 1020MOL0     H37658  -0.015   9.696   3.347  0.9091  1.2240  0.8025
 1020MOL0     H37659  -0.081   9.805   3.473  2.1209 -0.8982  1.2134
 1020MOL0     H37660  -0.462   9.633   3.313 -1.8043  0.2220 -1.2248
 1020MOL0     H37661  -0.721   9.801   3.320 -0.9130  0.1979 -1.0355
 1020MOL0     H37662  -0.716   9.825   3.139  0.6106 -0.5741 -1.1448
 1020MOL0     H37663  -0.660   9.676   3.201  2.3572  0.2369 -0.5492
 1020MOL0     H37664  -0.393  10.379   3.117  0.1843  0.4278  4.2790
 1020MOL0     H37665  -0.464  10.580   3.012  0.5721 -2.4840 -3.7721
 1020MOL0     H37666  -0.725  10.747   3.181 -1.7841 -0.3693 -0.1060
 1020MOL0     H37667  -0.620  10.819   3.058 -0.6998  2.6528  3.7782
 1020MOL0     H37668  -0.798  10.976   3.089 -2.6735  1.3600 -0.7153
 1020MOL0     H37669  -0.817  10.887   2.935 -0.6446 -2.1973  0.0769
 1020MOL0     H37670  -1.005  10.781   2.989  0.1275  2.0212 -1.0400
 1020MOL0     H37671  -1.026  10.941   3.071  1.6934  1.3301  0.4770
 1020MOL0     H37672  -0.942  10.688   3.230  0.3078 -0.5095 -1.8930
 1020MOL0     H37673  -0.946  10.853   3.278 -0.6706 -2.3430  3.1954
 1020MOL0     H37674  -1.203  10.841   3.187 -0.1285  1.4520 -0.4484
 1020MOL0     H37675  -1.146  10.795   3.350  0.3462  0.1783 -0.6458
 1020MOL0     H37676  -1.302  10.631   3.218 -0.9474 -1.4849  2.7945
 1020MOL0     H37677  -1.154  10.591   3.140  0.4403  2.7597 -0.7152
 1020MOL0     H37678  -1.266  10.470   3.373  1.1164 -3.0262  2.0429
 1020MOL0     H37679  -1.147  10.588   3.452  3.7184 -0.9224  0.7234
 1020MOL0     H37680  -0.960  10.486   3.348  1.8638 -2.3959 -0.3538
 1020MOL0     H37681  -1.055  10.401   3.226 -3.0684 -0.5895 -0.1152
 1020MOL0     H37682  -0.872  10.483   3.085  0.5962  1.9948  2.2036
 1020MOL0     H37683  -0.811  10.272   3.191 -1.8894  3.4381  3.5443
 1020MOL0     H37684  -0.336  10.101   3.280 -1.3526 -0.1724  1.8314
 1020MOL0     H37685  -0.163   9.945   3.319 -0.0594  2.1786 -1.6215
 1020MOL0     H37686   1.300   9.202   3.951 -0.5188  0.4534 -0.4262
 1020MOL0     H37687   1.531   9.198   3.968 -1.7078  0.6866  3.2684
 1020MOL0     H37688   1.909   9.096   4.267 -0.3225 -1.7889 -0.1249
 1020MOL0     H37689   2.143   9.087   4.264 -0.1486  0.8119 -0.7548
 1020MOL0     H37690   2.362   8.849   3.948 -0.5546  0.3938 -0.5637
 1020MOL0     H37691   2.488   8.878   4.057 -0.4644 -0.1625 -1.7215
 1020MOL0     H37692   2.272   8.655   4.089  0.5039 -2.0005  0.2676
 1020MOL0     H37693   2.381   8.698   4.224 -0.8878  1.1561 -0.0678
 1020MOL0     H37694   2.444   8.507   4.073 -1.6278  0.3134  1.1739
 1020MOL0     H37695   2.578   8.618   4.090  0.5597 -1.3872 -0.9437
 1020MOL0     H37696   2.565   8.535   3.864 -1.5836 -1.2936 -0.2172
 1020MOL0     H37697   2.576   8.708   3.889  0.8391 -0.8370  1.6091
 1020MOL0     H37698   2.207   8.607   3.692  1.2777 -0.8354 -0.9041
 1020MOL0     H37699   2.147   8.812   3.933 -0.7537 -1.8202  1.4963
 1020MOL0     H37700   1.915   8.877   3.886 -2.2749  1.6504 -0.0336
 1021MOL0     O37701   2.925  10.421   6.934  0.1006  0.3963 -0.7705
 1021MOL0     C37702   2.914  10.385   6.816 -0.1742 -0.6553  0.1936
 1021MOL0     O37703   2.810  10.339   6.747 -0.5577  0.9293  0.1426
 1021MOL0     C37704   2.693  10.325   6.805 -0.5002  0.5137  0.2586
 1021MOL0     C37705   2.670  10.221   6.907  0.5844 -0.2968  0.2181
 1021MOL0     C37706   2.551  10.238   6.968 -0.2115  0.6290 -0.8669
 1021MOL0     C37707   2.449  10.334   6.930  0.0248  0.6224 -0.6744
 1021MOL0     O37708   2.350  10.338   7.021  0.3126  0.3073  0.2482
 1021MOL0     C37709   2.218  10.334   6.959  0.0720 -0.0536  0.2607
 1021MOL0     C37710   2.120  10.367   7.063 -0.4461 -0.5686  0.1754
 1021MOL0     C37711   1.981  10.383   6.996 -0.2840  0.5171  0.0016
 1021MOL0     C37712   1.922  10.246   6.960 -0.9255  0.6167 -0.4080
 1021MOL0     C37713   1.780  10.258   6.917  0.7649  0.5715  0.5467
 1021MOL0     C37714   1.702  10.135   6.859 -0.0158 -1.0226 -0.0968
 1021MOL0     C37715   1.593  10.177   6.766  0.5044 -0.5400  0.0434
 1021MOL0     C37716   1.497  10.072   6.731  0.4317  0.3183 -0.2073
 1021MOL0     N37717   1.362  10.129   6.717 -0.5063 -1.1512 -0.1659
 1021MOL0     C37718   1.243  10.097   6.780 -0.2402  0.0503  0.0785
 1021MOL0     C37719   1.148  10.189   6.746 -1.0279  0.2825 -0.6276
 1021MOL0     C37720   1.005  10.204   6.780 -0.1950 -0.3028 -0.1135
 1021MOL0     C37721   0.984  10.206   6.931 -0.5388 -0.2739  0.2083
 1021MOL0     C37722   0.844  10.233   6.981  1.0544  0.4059 -0.1079
 1021MOL0     C37723   0.789  10.378   6.947 -0.8948  1.4615  0.3163
 1021MOL0     O37724   0.670  10.400   7.018 -0.0279  0.2277  0.6024
 1021MOL0     C37725   0.558  10.336   6.965  0.0512  0.2424 -0.0572
 1021MOL0     C37726   0.435  10.343   7.039 -0.2995  0.8559  0.2607
 1021MOL0     C37727   0.312  10.281   7.003 -0.1030 -0.0104  0.3217
 1021MOL0     C37728   0.181  10.323   7.073 -0.2383  0.2773 -0.0710
 1021MOL0     C37729   0.312  10.198   6.884  0.4068 -0.5029 -0.4098
 1021MOL0     C37730   0.196  10.117   6.837  0.0912 -0.7943 -0.2055
 1021MOL0     O37731   0.229  10.046   6.719 -0.2592  0.6700 -0.3457
 1021MOL0     C37732   0.127   9.990   6.648  0.0894 -0.3254  0.0393
 1021MOL0     C37733   0.076  10.055   6.541 -0.6570  0.1156  0.6843
 1021MOL0     C37734  -0.020   9.981   6.467  0.2779  0.0333  0.1241
 1021MOL0     C37735  -0.052   9.849   6.498  0.6666  0.4105  0.2469
 1021MOL0     O37736  -0.162   9.798   6.433 -0.2033  0.0285 -0.4744
 1021MOL0     C37737  -0.211   9.666   6.458 -0.4297 -0.2048  1.0585
 1021MOL0     C37738  -0.357   9.657   6.405  0.5309  1.0618  1.0517
 1021MOL0     C37739  -0.414   9.508   6.415 -0.2489  0.3980  0.1895
 1021MOL0     C37740  -0.489   9.472   6.289  0.1606 -0.3785 -0.2318
 1021MOL0     C37741  -0.530   9.326   6.301  0.0801  0.1278  0.5158
 1021MOL0     C37742  -0.582   9.284   6.165  0.0815  1.2099 -0.1761
 1021MOL0     C37743  -0.724   9.327   6.145 -0.1478  0.7189 -0.5332
 1021MOL0     C37744  -0.771   9.310   6.005  0.1130 -0.3613  0.2505
 1021MOL0    Cl37745  -0.743   9.152   5.939  0.2773 -0.3198 -0.3477
 1021MOL0     C37746  -0.000   9.787   6.604  0.0448  0.3167  0.5434
 1021MOL0     C37747   0.091   9.856   6.680 -0.5913  0.1896  0.2598
 1021MOL0     O37748   0.086  10.140   6.878 -0.6272 -0.0447  0.8189
 1021MOL0     C37749   0.433  10.191   6.809  0.4197  0.1951 -0.1728
 1021MOL0     C37750   0.545  10.263   6.848 -0.4978  0.2635 -0.0603
 1021MOL0     N37751   1.217  10.265   6.654 -0.1220 -0.1148 -0.3179
 1021MOL0     N37752   1.341  10.236   6.638  0.1728  0.0762 -0.4929
 1021MOL0     C37753   2.475  10.426   6.833 -0.4590  1.0347  0.0397
 1021MOL0     C37754   2.602  10.423   6.777 -0.0685 -0.1430  0.0681
 1021MOL0     C37755   3.034  10.404   6.743 -0.0496  0.0153 -0.7878
 1021MOL0     C37756   3.027  10.422   6.598 -1.2739 -0.2370  0.0754
 1021MOL0     C37757   3.144  10.437   6.523 -0.6419 -0.4061  0.1338
 1021MOL0     C37758   3.270  10.409   6.589 -0.0462 -0.0391 -0.2228
 1021MOL0     O37759   3.395  10.414   6.525 -1.1828 -0.6713  0.6772
 1021MOL0     C37760   3.398  10.466   6.388  0.4534  0.0964 -0.2091
 1021MOL0     C37761   3.545  10.470   6.346 -0.7871 -0.5729 -0.3022
 1021MOL0     C37762   3.549  10.498   6.193  0.4032 -0.4316 -0.0737
 1021MOL0     C37763   3.582  10.369   6.119  0.2683  0.7872 -0.6984
 1021MOL0     C37764   3.583  10.390   5.976 -0.1048  0.0749  0.8281
 1021MOL0     C37765   3.574  10.417   5.852  0.4402 -0.4293  0.1046
 1021MOL0     C37766   3.275  10.386   6.721 -0.3584 -0.5200  0.4122
 1021MOL0     C37767   3.163  10.387   6.802 -0.4625  0.5728  0.0517
 1021MOL0     H37768   2.748  10.152   6.937 -0.0054 -0.7793  0.6575
 1021MOL0     H37769   2.539  10.181   7.059  0.5456  2.1705  0.2395
 1021MOL0     H37770   2.203  10.409   6.881 -1.9204 -1.8501 -1.2172
 1021MOL0     H37771   2.202  10.237   6.912  0.5264 -0.1840  0.3647
 1021MOL0     H37772   2.128  10.296   7.146  1.7429 -0.0246  0.4946
 1021MOL0     H37773   2.157  10.461   7.105  0.6463 -0.7604 -0.3200
 1021MOL0     H37774   1.911  10.413   7.075  0.5785 -0.2344  1.0820
 1021MOL0     H37775   1.969  10.450   6.911  0.6570  2.2042  1.1382
 1021MOL0     H37776   1.990  10.203   6.886 -0.8061  0.7652 -0.3851
 1021MOL0     H37777   1.920  10.179   7.046 -0.0375 -0.1870 -0.9967
 1021MOL0     H37778   1.724  10.269   7.010 -1.3069 -2.3218 -0.2466
 1021MOL0     H37779   1.761  10.347   6.857  2.5828 -0.6815 -2.0603
 1021MOL0     H37780   1.780  10.073   6.812 -0.2427  0.9529 -3.4205
 1021MOL0     H37781   1.651  10.092   6.945  1.1241  2.8315  2.7647
 1021MOL0     H37782   1.543  10.267   6.800  0.0554 -0.3686 -1.0088
 1021MOL0     H37783   1.642  10.206   6.672  1.1160  2.2187  1.1275
 1021MOL0     H37784   1.491  10.002   6.815  1.7898  0.0835 -0.2779
 1021MOL0     H37785   1.523  10.024   6.636  2.4341 -1.3663  1.0851
 1021MOL0     H37786   1.227  10.015   6.849 -0.1118 -0.3398 -0.3557
 1021MOL0     H37787   0.972  10.301   6.740  1.5137  0.4538  0.2004
 1021MOL0     H37788   0.952  10.121   6.733  1.7658 -1.0138 -1.1952
 1021MOL0     H37789   1.052  10.273   6.985  0.7197 -0.4378 -1.1166
 1021MOL0     H37790   1.010  10.106   6.967 -1.1732 -0.6078 -0.2508
 1021MOL0     H37791   0.856  10.230   7.090  2.2505 -0.0311 -0.2326
 1021MOL0     H37792   0.773  10.161   6.940 -1.0723  2.2713  0.1395
 1021MOL0     H37793   0.773  10.391   6.839  0.1529 -2.9024 -0.5345
 1021MOL0     H37794   0.865  10.452   6.974  0.8499 -0.0990 -0.1583
 1021MOL0     H37795   0.417  10.396   7.132 -0.6990 -0.0657  0.7261
 1021MOL0     H37796   0.129  10.235   7.112  1.0616 -0.2290  0.5533
 1021MOL0     H37797   0.189  10.395   7.156 -1.7836 -0.6818  0.9584
 1021MOL0     H37798   0.112  10.364   6.998 -3.9962 -3.2081  1.0843
 1021MOL0     H37799   0.103  10.158   6.520 -3.5868  0.7659 -0.4045
 1021MOL0     H37800  -0.058  10.026   6.376  0.7298  0.9825  0.3878
 1021MOL0     H37801  -0.154   9.595   6.398 -2.6314 -0.9171 -0.2881
 1021MOL0     H37802  -0.213   9.631   6.561  6.0755 -1.8702  1.0662
 1021MOL0     H37803  -0.429   9.715   6.463 -1.1177  1.0001 -0.8261
 1021MOL0     H37804  -0.357   9.699   6.304  4.4747  0.8302  0.8133
 1021MOL0     H37805  -0.476   9.492   6.504  2.0145  0.4659  1.8691
 1021MOL0     H37806  -0.329   9.439   6.408 -1.4557 -1.0013 -2.1800
 1021MOL0     H37807  -0.573   9.542   6.285  2.4053  2.8682  2.6778
 1021MOL0     H37808  -0.420   9.495   6.208  0.8449  0.1240  0.4748
 1021MOL0     H37809  -0.610   9.312   6.374  0.7664 -0.8355  1.1064
 1021MOL0     H37810  -0.447   9.254   6.309  0.7788  0.6310 -1.5705
 1021MOL0     H37811  -0.535   9.332   6.079  0.3810  2.5062  0.6779
 1021MOL0     H37812  -0.553   9.180   6.150  4.1438  2.3350 -1.2035
 1021MOL0     H37813  -0.739   9.435   6.152 -0.7459  0.5772  0.7729
 1021MOL0     H37814  -0.785   9.279   6.222  1.3737 -2.1661 -1.0000
 1021MOL0     H37815  -0.722   9.384   5.941  1.7203 -1.5825  0.0115
 1021MOL0     H37816  -0.880   9.321   6.012  0.0695 -1.8178  3.5869
 1021MOL0     H37817  -0.032   9.688   6.638  2.8134 -0.3026  1.6298
 1021MOL0     H37818   0.145   9.816   6.765  1.4093  3.1765  0.5511
 1021MOL0     H37819   0.439  10.135   6.716  0.2465  0.9489 -0.6405
 1021MOL0     H37820   0.642  10.251   6.801 -0.7174  1.8403 -0.9632
 1021MOL0     H37821   2.413  10.512   6.810  0.6736  2.4488  1.9493
 1021MOL0     H37822   2.628  10.507   6.713  2.7813 -0.6018  0.5038
 1021MOL0     H37823   2.933  10.439   6.545 -0.7535 -0.0471 -0.8022
 1021MOL0     H37824   3.140  10.457   6.417  0.8928 -0.5911  0.0171
 1021MOL0     H37825   3.352  10.390   6.325  2.8623 -1.5033 -0.1688
 1021MOL0     H37826   3.353  10.566   6.393  3.0851  1.2957  1.9169
 1021MOL0     H37827   3.599  10.379   6.376 -2.0816 -1.1612  0.3440
 1021MOL0     H37828   3.588  10.556   6.398  0.1574 -0.9370 -0.4466
 1021MOL0     H37829   3.623  10.574   6.167  1.5327 -1.0653  1.1230
 1021MOL0     H37830   3.457  10.543   6.157  0.3574 -0.5792 -0.1389
 1021MOL0     H37831   3.506  10.292   6.135  0.3812  0.5493 -1.2868
 1021MOL0     H37832   3.676  10.329   6.158  0.1201  1.3013  0.2179
 1021MOL0     H37833   3.570  10.445   5.748 -1.8656  1.1191  0.5407
 1021MOL0     H37834   3.367  10.391   6.777 -0.2693 -1.1643  0.3250
 1021MOL0     H37835   3.175  10.373   6.909  0.2268 -2.4308 -0.3269
 1022MOL0     O37836   4.312   3.692   9.506  0.4247 -0.4875 -0.3832
 1022MOL0     C37837   4.331   3.639   9.399 -0.1660 -0.2315  0.2210
 1022MOL0     O37838   4.248   3.651   9.288  0.2112  0.6969 -0.6803
 1022MOL0     C37839   4.136   3.731   9.295 -0.0038  0.0988  0.1947
 1022MOL0     C37840   4.143   3.868   9.318  0.7346  0.4076  0.2374
 1022MOL0     C37841   4.026   3.951   9.320  0.5855 -0.0886 -0.4217
 1022MOL0     C37842   3.901   3.895   9.305 -1.2122  0.3949 -0.3065
 1022MOL0     O37843   3.791   3.979   9.319 -0.4506  0.7440 -0.1275
 1022MOL0     C37844   3.678   3.939   9.237  0.3320  0.0095 -0.0297
 1022MOL0     C37845   3.563   4.037   9.262  0.6974  0.5204  0.2801
 1022MOL0     C37846   3.545   4.131   9.140 -0.0259 -0.0226 -0.0924
 1022MOL0     C37847   3.416   4.220   9.163 -0.4323 -0.9431 -0.1234
 1022MOL0     C37848   3.371   4.268   9.028  0.1788  0.1247 -1.4666
 1022MOL0     C37849   3.273   4.396   9.037  0.0839  0.8421 -0.4015
 1022MOL0     C37850   3.158   4.381   9.136  0.7394 -0.3505  0.2848
 1022MOL0     C37851   3.026   4.435   9.076  0.7836 -0.0739  0.3591
 1022MOL0     N37852   2.986   4.379   8.949  0.1618  0.1475  0.0006
 1022MOL0     C37853   2.959   4.245   8.941 -0.2999  0.0580  0.4231
 1022MOL0     C37854   2.923   4.226   8.812  0.4367  0.9398 -0.4569
 1022MOL0     C37855   2.878   4.082   8.772 -0.0086  0.3732 -0.2332
 1022MOL0     C37856   2.955   4.026   8.653  0.6881 -0.7725  0.0912
 1022MOL0     C37857   3.099   4.041   8.681  0.0594 -0.1825 -0.4241
 1022MOL0     C37858   3.200   3.972   8.597  0.0912  1.2397 -0.1977
 1022MOL0     O37859   3.332   4.010   8.643  0.7678  0.4469  0.5191
 1022MOL0     C37860   3.439   3.938   8.596 -0.0959 -0.0733  0.2515
 1022MOL0     C37861   3.553   3.966   8.665  0.3149  0.1357 -0.6147
 1022MOL0     C37862   3.677   3.906   8.634 -0.6844 -0.3916  0.0949
 1022MOL0     C37863   3.797   3.957   8.714  0.2466  0.4210  1.0525
 1022MOL0     C37864   3.690   3.820   8.521  0.3764  0.5006 -0.8304
 1022MOL0     C37865   3.811   3.756   8.479  0.2852 -0.0557  0.9653
 1022MOL0     O37866   3.795   3.671   8.382  0.6641  0.5114  0.1390
 1022MOL0     C37867   3.907   3.606   8.328 -0.2321  0.7055 -1.0000
 1022MOL0     C37868   3.952   3.470   8.366 -0.1897 -0.1565 -0.2969
 1022MOL0     C37869   4.066   3.416   8.321 -0.4630  0.4806  0.5775
 1022MOL0     C37870   4.142   3.493   8.225 -0.0540 -0.5219  0.3427
 1022MOL0     O37871   4.257   3.459   8.173 -0.0473  0.6879 -0.1649
 1022MOL0     C37872   4.327   3.340   8.204 -0.5563  0.5442 -0.9979
 1022MOL0     C37873   4.467   3.364   8.166  0.5856 -0.1966 -0.2669
 1022MOL0     C37874   4.537   3.453   8.279  0.2196  0.0900  0.3189
 1022MOL0     C37875   4.683   3.490   8.235 -0.1020  0.7004 -0.0772
 1022MOL0     C37876   4.749   3.590   8.330  0.8380  0.5450 -0.5795
 1022MOL0     C37877   4.899   3.578   8.322 -0.1074 -0.3487 -0.8786
 1022MOL0     C37878   4.967   3.682   8.411  0.3806  0.1051  0.0641
 1022MOL0     C37879   5.117   3.673   8.365  0.1800  0.7635  0.2727
 1022MOL0    Cl37880   5.171   3.511   8.410 -0.1684  0.1439 -0.3406
 1022MOL0     C37881   4.085   3.617   8.177  0.1285 -0.2412  0.6647
 1022MOL0     C37882   3.975   3.673   8.229  1.9375  0.3314  0.0162
 1022MOL0     O37883   3.916   3.777   8.537 -0.3646  0.0456  0.2886
 1022MOL0     C37884   3.571   3.798   8.442 -0.0122 -0.9093  0.1496
 1022MOL0     C37885   3.451   3.860   8.479  0.1564  0.8006  0.2202
 1022MOL0     N37886   2.917   4.346   8.749 -0.5319 -0.1900  0.0193
 1022MOL0     N37887   2.954   4.438   8.831  0.1629 -0.3523  0.1464
 1022MOL0     C37888   3.892   3.749   9.290 -0.3400 -0.4268 -0.2090
 1022MOL0     C37889   4.004   3.669   9.287 -0.3249  0.6001  0.1205
 1022MOL0     C37890   4.469   3.584   9.378  0.0743 -0.5925  0.1820
 1022MOL0     C37891   4.558   3.575   9.485  0.2222 -0.8287 -0.4975
 1022MOL0     C37892   4.692   3.563   9.463 -0.2946 -0.4605 -0.5334
 1022MOL0     C37893   4.741   3.552   9.334  0.7308  0.1277 -0.2586
 1022MOL0     O37894   4.881   3.538   9.306 -0.1361 -0.1477 -0.4650
 1022MOL0     C37895   4.970   3.477   9.409  0.0268  0.1227 -0.0894
 1022MOL0     C37896   5.067   3.578   9.469  0.5903  0.5201 -0.4881
 1022MOL0     C37897   5.187   3.560   9.376 -1.0094  1.0234 -0.4806
 1022MOL0     C37898   5.314   3.651   9.416  0.1202 -0.7978 -0.4417
 1022MOL0     C37899   5.383   3.607   9.539  0.7656  0.0657 -0.0457
 1022MOL0     C37900   5.447   3.586   9.645  0.6006  0.2860  0.5486
 1022MOL0     C37901   4.663   3.559   9.226  0.0062  0.5123  0.2834
 1022MOL0     C37902   4.521   3.566   9.247 -0.6947  0.1435 -0.6755
 1022MOL0     H37903   4.235   3.920   9.343  0.4455  1.7933 -1.3849
 1022MOL0     H37904   4.029   4.056   9.348  0.4127 -0.0371 -0.5928
 1022MOL0     H37905   3.704   3.930   9.132 -1.9806  1.7449 -0.8297
 1022MOL0     H37906   3.636   3.847   9.279 -1.9154  1.7747  1.8764
 1022MOL0     H37907   3.472   3.977   9.275  1.1525 -0.2467  0.0026
 1022MOL0     H37908   3.572   4.087   9.359  0.4586 -1.2213  1.2386
 1022MOL0     H37909   3.639   4.187   9.128  0.8209 -1.3784  0.0486
 1022MOL0     H37910   3.532   4.062   9.056 -2.1696  0.7796 -0.4790
 1022MOL0     H37911   3.338   4.177   9.227 -3.4051  1.1780 -2.0297
 1022MOL0     H37912   3.445   4.309   9.219  1.9423 -0.8829 -1.3460
 1022MOL0     H37913   3.461   4.292   8.970  0.9811  0.9701  0.0587
 1022MOL0     H37914   3.329   4.178   8.982  0.3478 -0.1039 -1.1751
 1022MOL0     H37915   3.321   4.492   9.057 -1.2819  0.9761  2.8469
 1022MOL0     H37916   3.235   4.407   8.935 -1.1960  1.2103  0.0937
 1022MOL0     H37917   3.137   4.275   9.155  1.6546 -0.1890  2.5474
 1022MOL0     H37918   3.181   4.439   9.226 -1.4688  0.9155  0.1291
 1022MOL0     H37919   3.037   4.543   9.060  1.4580 -0.5658 -3.3368
 1022MOL0     H37920   2.952   4.405   9.151  2.2361  0.5551  2.1195
 1022MOL0     H37921   2.970   4.166   9.014  1.5371 -1.1997 -1.0991
 1022MOL0     H37922   2.900   4.013   8.854 -0.8833  0.1484 -0.1758
 1022MOL0     H37923   2.772   4.070   8.750 -0.4705  2.7410  0.4819
 1022MOL0     H37924   2.935   4.086   8.564 -1.1276  1.1475  1.6897
 1022MOL0     H37925   2.922   3.922   8.641 -1.1828 -0.3074  0.8860
 1022MOL0     H37926   3.103   3.993   8.779 -1.6035 -0.6981 -0.5905
 1022MOL0     H37927   3.134   4.145   8.673  2.3747 -1.0442 -3.1885
 1022MOL0     H37928   3.201   3.995   8.490  1.3158  0.3764 -0.3831
 1022MOL0     H37929   3.184   3.864   8.605  1.9852  1.0465  1.6489
 1022MOL0     H37930   3.542   4.047   8.737  0.1033 -2.1431  2.0963
 1022MOL0     H37931   3.856   3.872   8.751  0.0947  0.2167  0.8263
 1022MOL0     H37932   3.857   4.027   8.656 -1.9305 -0.5723 -2.7204
 1022MOL0     H37933   3.766   4.003   8.808  1.7886  1.0072  1.3011
 1022MOL0     H37934   3.900   3.404   8.434 -0.8359 -0.7981 -1.3923
 1022MOL0     H37935   4.092   3.321   8.367 -0.5329  0.9396  1.5921
 1022MOL0     H37936   4.331   3.312   8.310  3.3618 -2.4273 -1.7074
 1022MOL0     H37937   4.289   3.254   8.149  0.8055  1.4968 -3.6001
 1022MOL0     H37938   4.527   3.276   8.144 -1.0196 -2.0706  2.2094
 1022MOL0     H37939   4.461   3.425   8.076  0.5022  1.5091  0.8358
 1022MOL0     H37940   4.543   3.388   8.367 -1.3966 -0.9079 -0.2515
 1022MOL0     H37941   4.483   3.537   8.323 -0.3807 -0.0855 -0.0570
 1022MOL0     H37942   4.733   3.395   8.214  3.7100  2.6219 -0.5248
 1022MOL0     H37943   4.675   3.545   8.140 -3.4151 -2.5217 -1.9190
 1022MOL0     H37944   4.733   3.580   8.437  3.3376  0.7905 -0.1192
 1022MOL0     H37945   4.717   3.689   8.294 -1.1239  1.6239  3.5722
 1022MOL0     H37946   4.930   3.481   8.362 -0.0841  0.6857  1.8103
 1022MOL0     H37947   4.939   3.595   8.221  2.6034 -2.7051 -0.3382
 1022MOL0     H37948   4.947   3.641   8.510 -0.8991  0.3980 -0.0545
 1022MOL0     H37949   4.925   3.782   8.393  1.6003  0.4032 -1.4140
 1022MOL0     H37950   5.186   3.745   8.411  2.4052  0.9607 -3.0186
 1022MOL0     H37951   5.124   3.686   8.256 -1.1191  2.9619  0.3873
 1022MOL0     H37952   4.150   3.677   8.114 -0.2094 -0.7294 -0.1729
 1022MOL0     H37953   3.940   3.773   8.206  0.8789 -0.0907 -0.3007
 1022MOL0     H37954   3.566   3.737   8.352  1.7851 -2.6777  1.1905
 1022MOL0     H37955   3.361   3.848   8.419  0.2714  2.0588 -0.2413
 1022MOL0     H37956   3.794   3.702   9.298 -1.0647  0.7288 -1.6882
 1022MOL0     H37957   3.995   3.563   9.269 -0.7896  0.7905 -0.8359
 1022MOL0     H37958   4.519   3.588   9.586 -0.8588  1.9034 -1.1753
 1022MOL0     H37959   4.752   3.569   9.553 -0.8868  1.3989 -0.2260
 1022MOL0     H37960   4.919   3.444   9.500 -0.4602  0.2719 -0.3014
 1022MOL0     H37961   5.027   3.394   9.366 -0.0364 -0.0288  0.1174
 1022MOL0     H37962   5.091   3.538   9.568 -1.8358  0.7183  0.2435
 1022MOL0     H37963   5.022   3.678   9.471 -2.8942 -0.9069 -1.0249
 1022MOL0     H37964   5.158   3.579   9.272 -2.2584  0.8964 -0.1691
 1022MOL0     H37965   5.231   3.462   9.395 -0.0600  1.8423  2.1008
 1022MOL0     H37966   5.288   3.757   9.427 -0.5720 -1.1162  1.5102
 1022MOL0     H37967   5.391   3.640   9.339  2.3016  0.9205  1.3533
 1022MOL0     H37968   5.510   3.585   9.731 -1.1270  1.5861  1.9075
 1022MOL0     H37969   4.714   3.559   9.130  2.6127 -0.4918  1.5961
 1022MOL0     H37970   4.454   3.569   9.162 -3.0981  4.7557  1.0571
 1023MOL0     O37971   7.102   4.268   5.352 -0.0207  0.1333 -0.1527
 1023MOL0     C37972   7.150   4.266   5.465 -0.0386  0.1215  0.0442
 1023MOL0     O37973   7.102   4.316   5.577 -0.5595 -0.6217  0.3776
 1023MOL0     C37974   6.981   4.380   5.573 -0.8722  0.3896  0.1210
 1023MOL0     C37975   6.860   4.304   5.572 -0.5635  0.0689 -0.0373
 1023MOL0     C37976   6.736   4.359   5.546 -0.0350 -0.4875  0.2904
 1023MOL0     C37977   6.724   4.496   5.542  0.7681  0.2802  0.0064
 1023MOL0     O37978   6.600   4.546   5.525 -0.1589  0.1543 -0.0968
 1023MOL0     C37979   6.549   4.526   5.394 -0.8430  0.0141 -0.3241
 1023MOL0     C37980   6.413   4.597   5.381 -0.1793 -0.0088  0.2567
 1023MOL0     C37981   6.297   4.517   5.446 -0.1038  0.6903 -0.7439
 1023MOL0     C37982   6.166   4.609   5.426 -0.1640  0.0526  0.2002
 1023MOL0     C37983   6.033   4.544   5.444 -0.2996  1.5121 -0.0916
 1023MOL0     C37984   5.921   4.647   5.441 -0.9106 -0.0029  0.0819
 1023MOL0     C37985   5.787   4.573   5.466 -0.3475 -0.4782 -0.8523
 1023MOL0     C37986   5.674   4.679   5.475 -0.3103  0.1200 -0.5773
 1023MOL0     N37987   5.563   4.626   5.559  0.5213  0.4628  0.1244
 1023MOL0     C37988   5.522   4.496   5.566 -1.1720  0.2648 -1.3251
 1023MOL0     C37989   5.415   4.505   5.655 -1.1496 -0.4448  0.4624
 1023MOL0     C37990   5.316   4.401   5.694 -0.0606  0.5959  0.7915
 1023MOL0     C37991   5.164   4.422   5.658 -0.9972  0.4221  0.5981
 1023MOL0     C37992   5.096   4.506   5.765 -0.8199  0.0620  0.1496
 1023MOL0     C37993   4.948   4.519   5.759  0.1557 -0.0197  0.3002
 1023MOL0     O37994   4.887   4.399   5.781 -0.5185 -0.3433 -0.3560
 1023MOL0     C37995   4.773   4.422   5.851 -0.6082  0.2044  0.0852
 1023MOL0     C37996   4.657   4.464   5.788 -0.0641  0.7985  0.2196
 1023MOL0     C37997   4.548   4.515   5.857 -0.0197 -0.0158 -0.5943
 1023MOL0     C37998   4.425   4.572   5.781 -0.3602 -1.0118  0.1345
 1023MOL0     C37999   4.564   4.516   6.004  0.7521  0.1170  0.6038
 1023MOL0     C38000   4.472   4.586   6.096  0.1452  0.3686  0.2793
 1023MOL0     O38001   4.516   4.589   6.228  0.1252  0.6171 -0.4087
 1023MOL0     C38002   4.414   4.642   6.314 -0.0466 -0.2876 -1.0562
 1023MOL0     C38003   4.330   4.560   6.388  0.7081  0.3690 -0.5730
 1023MOL0     C38004   4.233   4.608   6.479 -1.6210 -0.4117  0.1557
 1023MOL0     C38005   4.233   4.746   6.504 -0.2803 -0.1714  0.0719
 1023MOL0     O38006   4.148   4.810   6.591  0.1438 -0.5913 -0.1112
 1023MOL0     C38007   4.099   4.736   6.706  0.3303 -0.2698  0.3227
 1023MOL0     C38008   3.964   4.665   6.670  0.4157 -0.3120 -0.6391
 1023MOL0     C38009   3.845   4.749   6.614  0.1916 -0.3984  0.8501
 1023MOL0     C38010   3.709   4.677   6.635 -1.3541  0.2691  0.6845
 1023MOL0     C38011   3.605   4.765   6.572  0.0973 -0.1380  0.1245
 1023MOL0     C38012   3.475   4.694   6.569  0.3736  0.2952  0.1929
 1023MOL0     C38013   3.366   4.791   6.518 -0.3366 -0.1813 -0.2697
 1023MOL0     C38014   3.238   4.726   6.454  0.2589  0.0327  0.4187
 1023MOL0    Cl38015   3.152   4.837   6.343  0.1776  0.4129 -0.0180
 1023MOL0     C38016   4.329   4.831   6.435 -0.3529  0.6404 -0.6795
 1023MOL0     C38017   4.410   4.778   6.338 -0.6395  0.6591  0.5637
 1023MOL0     O38018   4.370   4.633   6.050 -0.0481 -0.7817 -0.8732
 1023MOL0     C38019   4.680   4.472   6.065 -0.1884 -0.0109  0.3686
 1023MOL0     C38020   4.786   4.428   5.993 -0.2099  0.4734  0.1395
 1023MOL0     N38021   5.402   4.635   5.702  0.9650 -0.9238  0.5192
 1023MOL0     N38022   5.504   4.708   5.651 -0.2435 -0.3895  0.0640
 1023MOL0     C38023   6.838   4.577   5.540 -0.2266 -0.4167  0.0643
 1023MOL0     C38024   6.966   4.520   5.564  0.5408 -0.0804 -0.7034
 1023MOL0     C38025   7.292   4.215   5.472 -0.0081  0.2714  0.6703
 1023MOL0     C38026   7.354   4.224   5.595 -0.1409  0.5907 -0.4061
 1023MOL0     C38027   7.485   4.170   5.605 -0.5237  0.5269 -0.1508
 1023MOL0     C38028   7.558   4.115   5.499 -0.1825 -0.0582 -0.0477
 1023MOL0     O38029   7.688   4.077   5.533 -0.2256  0.2387  0.3456
 1023MOL0     C38030   7.741   3.977   5.458  0.2973  0.2938 -0.6506
 1023MOL0     C38031   7.871   3.943   5.540 -0.6967 -0.0740  0.8167
 1023MOL0     C38032   7.951   3.836   5.478  0.3021  0.1253 -0.2199
 1023MOL0     C38033   8.068   3.791   5.583 -0.2182 -0.8253  1.3350
 1023MOL0     C38034   8.023   3.721   5.700  0.5796  0.0639  0.2894
 1023MOL0     C38035   7.992   3.673   5.808 -0.6519 -0.9432 -0.5013
 1023MOL0     C38036   7.491   4.106   5.377 -0.1008  0.6582  0.3363
 1023MOL0     C38037   7.367   4.159   5.363  0.4170  0.4070  0.7412
 1023MOL0     H38038   6.867   4.196   5.578 -0.5823 -0.0300 -1.4560
 1023MOL0     H38039   6.657   4.287   5.526 -0.6320 -0.5458  2.5658
 1023MOL0     H38040   6.615   4.575   5.322 -0.1913  3.0122  2.1115
 1023MOL0     H38041   6.530   4.422   5.366  2.6814 -0.3225 -1.9112
 1023MOL0     H38042   6.424   4.694   5.429  0.9861 -1.0849  2.2928
 1023MOL0     H38043   6.388   4.611   5.275 -1.2682  3.5038  0.8628
 1023MOL0     H38044   6.288   4.417   5.402 -1.3754  0.8347 -0.8559
 1023MOL0     H38045   6.315   4.495   5.551 -0.7348  0.0160 -0.7677
 1023MOL0     H38046   6.174   4.696   5.491  0.4942  0.1410  0.0111
 1023MOL0     H38047   6.154   4.653   5.326 -0.4095 -1.8393 -0.6458
 1023MOL0     H38048   6.030   4.472   5.361  2.3681  1.8138 -0.5625
 1023MOL0     H38049   6.032   4.477   5.531  0.6299 -2.4374 -2.8101
 1023MOL0     H38050   5.935   4.699   5.536 -1.8773  0.6682 -0.1232
 1023MOL0     H38051   5.927   4.703   5.347  1.6595 -0.5466 -0.1377
 1023MOL0     H38052   5.760   4.510   5.380  0.4451 -0.9013 -0.8005
 1023MOL0     H38053   5.789   4.505   5.551  1.5511  1.1370  0.4876
 1023MOL0     H38054   5.637   4.694   5.374 -1.7151 -4.1897 -0.8775
 1023MOL0     H38055   5.702   4.777   5.516 -2.2453 -0.0606  1.3413
 1023MOL0     H38056   5.563   4.417   5.504  1.5189 -0.0623  0.6695
 1023MOL0     H38057   5.340   4.305   5.649 -0.6190  0.6178  0.4371
 1023MOL0     H38058   5.324   4.393   5.803 -0.5979  2.1588  0.9677
 1023MOL0     H38059   5.127   4.319   5.655  2.1363 -0.8468  1.8783
 1023MOL0     H38060   5.163   4.465   5.557  2.1454 -2.7877 -1.0151
 1023MOL0     H38061   5.137   4.607   5.770  0.4478 -0.3509 -1.2498
 1023MOL0     H38062   5.130   4.452   5.854 -0.5666  0.1009  0.0779
 1023MOL0     H38063   4.914   4.552   5.661  1.6738 -2.2569 -1.0743
 1023MOL0     H38064   4.923   4.602   5.826 -2.2306  0.5396 -1.1672
 1023MOL0     H38065   4.670   4.450   5.682  2.4408 -1.6064  0.7344
 1023MOL0     H38066   4.407   4.680   5.790  2.5371 -0.5158  1.0490
 1023MOL0     H38067   4.427   4.550   5.674 -0.0229  3.0243 -0.8490
 1023MOL0     H38068   4.331   4.526   5.812  0.2849 -2.8834 -0.5749
 1023MOL0     H38069   4.326   4.455   6.359  4.4943 -0.5607  1.6996
 1023MOL0     H38070   4.162   4.534   6.516 -0.7535 -2.4921 -2.0557
 1023MOL0     H38071   4.183   4.670   6.732  3.5478  3.2054 -0.5076
 1023MOL0     H38072   4.077   4.805   6.788 -1.3561 -1.2410  0.7435
 1023MOL0     H38073   3.979   4.592   6.589 -3.0669 -0.7560 -1.0622
 1023MOL0     H38074   3.942   4.618   6.766 -0.6303 -2.7948 -2.0007
 1023MOL0     H38075   3.869   4.758   6.508  1.0356  0.0971  1.0706
 1023MOL0     H38076   3.835   4.843   6.670  0.8412  0.8291 -0.9898
 1023MOL0     H38077   3.722   4.582   6.582 -1.1301  1.1523 -0.9299
 1023MOL0     H38078   3.686   4.667   6.741 -2.5309  1.1497  0.5411
 1023MOL0     H38079   3.634   4.781   6.467  0.2341  2.6490  0.4943
 1023MOL0     H38080   3.597   4.864   6.619 -0.8166 -0.5274  0.8102
 1023MOL0     H38081   3.489   4.610   6.500  1.1920  1.7721 -1.5016
 1023MOL0     H38082   3.446   4.655   6.667 -2.9526 -0.9626 -1.1577
 1023MOL0     H38083   3.401   4.857   6.438  1.3360  1.6976  1.8902
 1023MOL0     H38084   3.346   4.852   6.606  2.5650 -1.5102  1.4548
 1023MOL0     H38085   3.170   4.693   6.534 -1.1738 -0.7664 -1.0768
 1023MOL0     H38086   3.286   4.642   6.403 -1.1653 -2.0956  2.3552
 1023MOL0     H38087   4.334   4.936   6.460  2.8024  0.3209  0.6204
 1023MOL0     H38088   4.472   4.847   6.283  1.1324 -2.4680 -1.6346
 1023MOL0     H38089   4.693   4.487   6.172 -0.8470  5.7522 -0.0469
 1023MOL0     H38090   4.884   4.412   6.037 -0.3211  0.2510  0.3095
 1023MOL0     H38091   6.819   4.684   5.538 -2.9390 -0.7606  1.6916
 1023MOL0     H38092   7.048   4.592   5.561  1.3105 -0.9084  0.0477
 1023MOL0     H38093   7.316   4.286   5.676 -1.0595 -1.9788  1.2514
 1023MOL0     H38094   7.525   4.175   5.706 -0.4914 -2.0841  0.0327
 1023MOL0     H38095   7.665   3.898   5.452 -0.9233  1.4827 -1.4647
 1023MOL0     H38096   7.764   4.014   5.358 -0.3574  1.6925 -0.3016
 1023MOL0     H38097   7.848   3.900   5.639  1.5756 -1.0894  0.9732
 1023MOL0     H38098   7.934   4.029   5.563 -0.6901 -0.1236  0.9886
 1023MOL0     H38099   8.007   3.873   5.391  2.8382  1.8305  1.9881
 1023MOL0     H38100   7.888   3.753   5.447 -2.4575  1.6330  1.0009
 1023MOL0     H38101   8.112   3.884   5.620 -0.6686 -0.5337  1.1462
 1023MOL0     H38102   8.147   3.724   5.547 -1.0357 -0.5069 -1.2416
 1023MOL0     H38103   7.987   3.631   5.906  1.5490 -0.7023 -0.2291
 1023MOL0     H38104   7.541   4.064   5.290 -0.9295 -4.0148  1.8274
 1023MOL0     H38105   7.317   4.149   5.268  0.3750 -0.2249  0.8266
 1024MOL0     O38106  10.033   6.692   2.864 -0.3326  0.4178 -0.3503
 1024MOL0     C38107   9.932   6.640   2.916 -0.6789  0.1150  0.1143
 1024MOL0     O38108   9.835   6.568   2.847  0.5427  0.2077 -0.5615
 1024MOL0     C38109   9.847   6.544   2.713  0.3428 -0.4145 -0.3051
 1024MOL0     C38110   9.741   6.587   2.636 -0.2741  1.1723  0.5582
 1024MOL0     C38111   9.733   6.546   2.501 -0.0922 -0.4031 -0.7556
 1024MOL0     C38112   9.843   6.477   2.446  0.2902 -0.0687 -0.7475
 1024MOL0     O38113   9.834   6.447   2.314 -0.4156 -0.2302  0.3027
 1024MOL0     C38114   9.959   6.440   2.245  0.3458  0.0261 -0.1932
 1024MOL0     C38115   9.941   6.422   2.094  0.9034  0.4685 -0.7554
 1024MOL0     C38116   9.840   6.521   2.025 -0.8288 -0.3774  0.4388
 1024MOL0     C38117   9.696   6.479   2.032  0.6870 -0.2218 -0.0905
 1024MOL0     C38118   9.602   6.572   1.951  0.2834  0.6121 -0.3902
 1024MOL0     C38119   9.455   6.573   1.997  0.6323  0.3654 -0.3433
 1024MOL0     C38120   9.393   6.432   2.020 -0.2599  0.2355  0.0750
 1024MOL0     C38121   9.244   6.405   2.019 -0.4539  0.2265  0.5157
 1024MOL0     N38122   9.183   6.454   1.892 -0.4328 -0.5359  0.9523
 1024MOL0     C38123   9.183   6.397   1.758  0.9046 -0.5663 -0.6475
 1024MOL0     C38124   9.097   6.470   1.684 -0.0740 -0.9244 -0.2483
 1024MOL0     C38125   9.050   6.438   1.542  0.3000 -0.1946 -0.3709
 1024MOL0     C38126   8.933   6.336   1.550  0.4393 -0.5017 -0.0033
 1024MOL0     C38127   8.789   6.389   1.575 -0.1672  0.2486  0.0668
 1024MOL0     C38128   8.735   6.481   1.462 -0.6439 -0.5210 -0.0708
 1024MOL0     O38129   8.616   6.547   1.511 -0.3320 -0.6207  0.8883
 1024MOL0     C38130   8.495   6.486   1.490  0.7164  0.7451 -0.4737
 1024MOL0     C38131   8.447   6.401   1.589 -1.0076  0.0519 -0.1229
 1024MOL0     C38132   8.325   6.335   1.568 -0.4473  0.6074 -0.6575
 1024MOL0     C38133   8.274   6.270   1.697  0.0451  0.2508 -0.2101
 1024MOL0     C38134   8.259   6.326   1.445 -1.3340 -0.1266  1.2451
 1024MOL0     C38135   8.145   6.240   1.409 -1.9953  0.2397  0.8534
 1024MOL0     O38136   8.109   6.225   1.273 -0.1928 -0.3768 -1.1680
 1024MOL0     C38137   7.986   6.176   1.255  0.4168  0.0289  0.5881
 1024MOL0     C38138   7.877   6.232   1.323 -0.4269 -0.2241  0.3060
 1024MOL0     C38139   7.757   6.159   1.327  0.5374  1.2323  0.9471
 1024MOL0     C38140   7.737   6.039   1.251 -0.7487  0.0654 -0.0648
 1024MOL0     O38141   7.634   5.947   1.264  0.4308 -0.6583  0.1489
 1024MOL0     C38142   7.556   5.948   1.380 -0.8840 -0.6348  0.6072
 1024MOL0     C38143   7.457   5.830   1.387  0.5168  0.0730  0.2556
 1024MOL0     C38144   7.418   5.775   1.524  0.3826  0.8651  0.4657
 1024MOL0     C38145   7.315   5.661   1.502  1.1327 -0.2235 -0.0549
 1024MOL0     C38146   7.261   5.603   1.634 -1.1826  0.5228  0.7985
 1024MOL0     C38147   7.138   5.516   1.616  0.1281 -0.2211 -0.0953
 1024MOL0     C38148   7.095   5.436   1.745  0.5021  0.2961  0.4333
 1024MOL0     C38149   6.949   5.477   1.788 -0.0521  0.0052  0.6037
 1024MOL0    Cl38150   6.839   5.466   1.637  0.1440  0.0446 -0.1720
 1024MOL0     C38151   7.851   6.000   1.175 -0.6191 -0.0033 -0.3524
 1024MOL0     C38152   7.967   6.066   1.174  0.2247 -0.6397  0.8776
 1024MOL0     O38153   8.090   6.194   1.509 -0.1372 -0.7897  0.3513
 1024MOL0     C38154   8.308   6.414   1.347  0.3702 -0.3558 -0.0511
 1024MOL0     C38155   8.424   6.499   1.370  0.3646  0.0065 -0.0700
 1024MOL0     N38156   9.044   6.568   1.766 -0.0581 -1.0841  0.0670
 1024MOL0     N38157   9.096   6.557   1.888  0.0610  0.0432 -0.2336
 1024MOL0     C38158   9.956   6.450   2.516 -0.4085 -0.4534 -0.3317
 1024MOL0     C38159   9.960   6.477   2.653 -0.3669  0.0679  0.2602
 1024MOL0     C38160   9.906   6.664   3.058 -0.2470  0.1935 -0.4844
 1024MOL0     C38161   9.994   6.742   3.144 -0.3758 -0.6006 -0.0456
 1024MOL0     C38162   9.955   6.776   3.277 -0.5602 -0.3964 -0.0902
 1024MOL0     C38163   9.835   6.743   3.330  0.3850 -0.3975  0.1950
 1024MOL0     O38164   9.777   6.785   3.448  0.0312 -0.0278 -0.0438
 1024MOL0     C38165   9.865   6.801   3.556 -0.1992 -0.0084  0.6984
 1024MOL0     C38166   9.947   6.684   3.605  0.0952  0.6863  0.5611
 1024MOL0     C38167   9.858   6.558   3.610  0.1258 -0.3715  0.2102
 1024MOL0     C38168   9.929   6.429   3.649 -0.0364 -0.6701  0.1558
 1024MOL0     C38169   9.841   6.320   3.609  0.0378  0.6645 -0.9142
 1024MOL0     C38170   9.769   6.235   3.568  0.5343 -0.1401  0.0143
 1024MOL0     C38171   9.749   6.659   3.254 -0.5091 -0.7429  0.5317
 1024MOL0     C38172   9.790   6.623   3.122 -0.1645  0.4367 -0.0973
 1024MOL0     H38173   9.651   6.631   2.679  0.5315  0.4106  3.2271
 1024MOL0     H38174   9.645   6.575   2.445 -1.0577 -1.1693  0.3178
 1024MOL0     H38175  10.013   6.535   2.261  0.8888 -0.5648  1.7880
 1024MOL0     H38176  10.017   6.354   2.280 -1.3072 -1.0280  0.0121
 1024MOL0     H38177  10.038   6.436   2.045  2.2404 -1.8163  1.0428
 1024MOL0     H38178   9.914   6.319   2.072  0.8142  0.9265 -3.0424
 1024MOL0     H38179   9.865   6.617   2.072  2.6657  0.5186 -2.7280
 1024MOL0     H38180   9.863   6.531   1.918 -0.2629 -0.5549  0.5389
 1024MOL0     H38181   9.675   6.375   2.004 -1.6655 -0.5075  2.3204
 1024MOL0     H38182   9.673   6.478   2.139 -0.0895  1.0323 -0.2180
 1024MOL0     H38183   9.642   6.673   1.963  0.1937  0.7458 -1.1595
 1024MOL0     H38184   9.607   6.550   1.844 -2.2827 -0.0139 -0.4551
 1024MOL0     H38185   9.457   6.622   2.095 -1.2982 -0.9227  0.4027
 1024MOL0     H38186   9.391   6.639   1.939 -1.6427 -0.5850  0.9576
 1024MOL0     H38187   9.428   6.372   1.936  0.1638  1.0783 -0.3620
 1024MOL0     H38188   9.439   6.396   2.112 -0.9621 -0.3412  0.2094
 1024MOL0     H38189   9.194   6.458   2.101 -0.3658  0.9585  0.0979
 1024MOL0     H38190   9.214   6.299   2.019  1.0277 -0.2098  0.1750
 1024MOL0     H38191   9.250   6.315   1.736  1.1408 -0.5386 -0.0463
 1024MOL0     H38192   9.021   6.526   1.485  0.8207 -0.4008 -0.9642
 1024MOL0     H38193   9.142   6.415   1.487  1.8046  1.6997  1.2063
 1024MOL0     H38194   8.954   6.267   1.631  1.5423  0.8836  0.9401
 1024MOL0     H38195   8.929   6.278   1.457 -0.0012  2.0674 -1.7028
 1024MOL0     H38196   8.777   6.463   1.655 -2.3529  0.6328 -0.5412
 1024MOL0     H38197   8.721   6.305   1.590 -0.8265  0.7996  0.2463
 1024MOL0     H38198   8.708   6.431   1.369 -1.5774  1.9629 -1.2357
 1024MOL0     H38199   8.809   6.560   1.447  0.0492 -0.8781  1.2968
 1024MOL0     H38200   8.493   6.411   1.687  0.2835  2.9350 -0.8914
 1024MOL0     H38201   8.347   6.286   1.777  1.9607  0.0900 -1.8349
 1024MOL0     H38202   8.184   6.320   1.733  0.3961 -0.5218  1.9558
 1024MOL0     H38203   8.264   6.161   1.689  1.1765  0.2855 -3.0301
 1024MOL0     H38204   7.892   6.328   1.371 -1.6656 -0.5633  1.4187
 1024MOL0     H38205   7.674   6.188   1.391 -2.3341 -3.2171 -0.2898
 1024MOL0     H38206   7.615   5.963   1.471  1.4636  0.5602 -1.0332
 1024MOL0     H38207   7.493   6.037   1.374  2.8856  2.1665 -0.3281
 1024MOL0     H38208   7.366   5.860   1.334 -1.5350 -0.3769  3.3083
 1024MOL0     H38209   7.505   5.749   1.330 -0.5505 -1.2082  1.1209
 1024MOL0     H38210   7.373   5.858   1.579  2.6765  1.2900  1.8412
 1024MOL0     H38211   7.505   5.744   1.583 -1.6551 -2.6226  1.9257
 1024MOL0     H38212   7.222   5.696   1.456  1.1505 -0.1663 -0.0482
 1024MOL0     H38213   7.364   5.587   1.437  3.5437  2.3857 -1.4699
 1024MOL0     H38214   7.240   5.677   1.711  0.4317  0.7614  1.0395
 1024MOL0     H38215   7.337   5.536   1.676 -0.2268 -0.0979 -1.7327
 1024MOL0     H38216   7.058   5.585   1.586 -0.2616 -0.7057 -0.1800
 1024MOL0     H38217   7.154   5.441   1.538 -1.8684 -0.7704 -0.0323
 1024MOL0     H38218   7.168   5.444   1.827  0.1636 -0.7050  0.8418
 1024MOL0     H38219   7.093   5.330   1.717 -4.0392  0.5818 -1.1615
 1024MOL0     H38220   6.954   5.584   1.814  2.0444  0.3345 -0.9161
 1024MOL0     H38221   6.907   5.419   1.871  0.9036 -1.8757 -0.1786
 1024MOL0     H38222   7.852   5.911   1.112  2.5184 -0.2589 -0.1085
 1024MOL0     H38223   8.052   6.025   1.121  0.1197 -2.0541  1.7434
 1024MOL0     H38224   8.264   6.413   1.248  2.4286  1.9297 -1.0853
 1024MOL0     H38225   8.473   6.551   1.289 -0.6041  2.8986  1.0925
 1024MOL0     H38226  10.042   6.393   2.482  0.0827  1.2121 -2.0852
 1024MOL0     H38227  10.055   6.447   2.696 -0.4131 -1.2009 -0.4688
 1024MOL0     H38228  10.083   6.780   3.097 -1.4378  0.4728 -1.2703
 1024MOL0     H38229  10.020   6.839   3.337 -2.7674 -1.5168  3.8773
 1024MOL0     H38230   9.925   6.891   3.544  1.6513 -0.8698  2.8736
 1024MOL0     H38231   9.804   6.821   3.645 -0.7408  1.1266  0.0947
 1024MOL0     H38232   9.996   6.704   3.701  1.6236  1.7609 -0.3986
 1024MOL0     H38233  10.027   6.671   3.532 -1.0868  1.3855 -0.9047
 1024MOL0     H38234   9.830   6.547   3.504 -0.9983 -1.1957  0.5728
 1024MOL0     H38235   9.770   6.577   3.672 -0.1440  1.6308 -0.7017
 1024MOL0     H38236   9.945   6.435   3.757  1.7130  0.7223 -0.1360
 1024MOL0     H38237  10.027   6.420   3.603 -0.2271  0.9981 -0.6572
 1024MOL0     H38238   9.709   6.147   3.555  1.9336 -1.3133  1.2243
 1024MOL0     H38239   9.651   6.629   3.290 -2.1836  0.4547 -2.6171
 1024MOL0     H38240   9.715   6.568   3.065  0.3622 -0.5050  0.0963
  11.36811  11.36811  11.36811
